FOO
138240
    1MOL0     O    1   2.362   8.086   7.724  0.2148 -0.6607 -0.4704
    1MOL0     C    2   2.311   8.137   7.624 -0.5453 -0.4233  0.3903
    1MOL0     O    3   2.342   8.104   7.502  0.5640  0.3547 -0.0186
    1MOL0     C    4   2.443   8.013   7.487 -0.6100  0.0103 -0.0466
    1MOL0     C    5   2.580   8.048   7.499  0.3975  0.1573  0.8100
    1MOL0     C    6   2.674   7.943   7.478  0.8057  0.6624 -0.4409
    1MOL0     C    7   2.626   7.804   7.461 -0.9568 -0.0846 -0.0356
    1MOL0     O    8   2.710   7.699   7.434  0.0978  0.5122  0.7088
    1MOL0     C    9   2.852   7.726   7.423  0.7826  0.0093 -0.1396
    1MOL0     C   10   2.949   7.610   7.450 -0.7498  0.4730 -0.1743
    1MOL0     C   11   2.954   7.510   7.332  0.8290 -0.3463  0.7314
    1MOL0     C   12   3.090   7.453   7.308 -0.8455  0.3476  0.6605
    1MOL0     C   13   3.077   7.350   7.191 -0.0538 -0.2991 -0.7519
    1MOL0     C   14   3.098   7.209   7.241  0.1081 -0.2820 -0.4254
    1MOL0     C   15   3.110   7.120   7.122 -0.2019 -0.0819  0.4881
    1MOL0     C   16   3.027   6.991   7.122  1.2972 -0.3998  0.2294
    1MOL0     N   17   3.041   6.912   7.004  0.8061  0.2704  0.6743
    1MOL0     C   18   2.980   6.790   6.975  0.3100 -0.2867 -0.3570
    1MOL0     C   19   3.045   6.738   6.868 -0.3248  1.1200 -0.5755
    1MOL0     C   20   2.999   6.615   6.799 -0.8941  0.1368  0.1173
    1MOL0     C   21   3.015   6.488   6.881 -0.5328 -1.0600  0.8528
    1MOL0     C   22   3.156   6.474   6.948  0.4810 -0.2762 -0.3775
    1MOL0     C   23   3.152   6.344   7.034 -0.8578  0.1013  0.1779
    1MOL0     O   24   3.062   6.363   7.140  0.3158 -1.0413  0.0124
    1MOL0     C   25   3.095   6.445   7.251  0.2357 -0.4057 -0.3259
    1MOL0     C   26   2.995   6.539   7.279 -0.5696  0.1765  0.2330
    1MOL0     C   27   3.014   6.634   7.377 -0.1452 -0.3354  0.1489
    1MOL0     C   28   3.140   6.633   7.447  0.4975 -1.2412  0.6212
    1MOL0     C   29   3.178   6.736   7.542 -0.4759 -0.4280  0.1564
    1MOL0     O   30   3.298   6.720   7.608 -0.3948 -0.0995  0.0886
    1MOL0     C   31   3.330   6.798   7.714 -1.2447 -0.3181  0.6490
    1MOL0     C   32   3.226   6.841   7.803  0.0495 -0.5134 -0.7328
    1MOL0     C   33   3.263   6.892   7.931  0.0015 -0.3038  0.2328
    1MOL0     C   34   3.399   6.903   7.967  0.0435  0.6312 -0.3610
    1MOL0     O   35   3.447   6.948   8.094  0.0019 -0.9445 -0.1114
    1MOL0     C   36   3.375   6.922   8.211 -0.0826 -0.0143  0.7887
    1MOL0     C   37   3.454   6.958   8.348  0.2687  1.4440  1.3499
    1MOL0     C   38   3.485   7.112   8.364 -0.2715  0.1121  0.7496
    1MOL0     C   39   3.628   7.131   8.428  0.1719  0.0645 -0.6370
    1MOL0     C   40   3.662   7.276   8.469  0.7698  1.0010 -0.5812
    1MOL0     C   41   3.801   7.276   8.531  0.1078 -0.0279  0.5241
    1MOL0     C   42   3.914   7.274   8.422  0.4298  1.0770  0.0701
    1MOL0     C   43   4.061   7.294   8.479  0.5147  0.4874  0.5267
    1MOL0    Cl   44   4.125   7.141   8.535 -0.0841  0.2538 -0.2035
    1MOL0     C   45   3.490   6.871   7.866  0.0715 -0.3860  0.3623
    1MOL0     C   46   3.461   6.815   7.742 -1.4003 -0.0985  0.3317
    1MOL0     O   47   3.112   6.840   7.548  0.4183 -0.3204 -0.3522
    1MOL0     C   48   3.247   6.545   7.409  0.3676  0.2731 -0.3287
    1MOL0     C   49   3.220   6.446   7.310  0.5857 -0.0112 -1.0156
    1MOL0     N   50   3.129   6.829   6.807  0.2772 -0.7058 -1.0127
    1MOL0     N   51   3.130   6.928   6.897  1.1335 -0.3816 -0.4666
    1MOL0     C   52   2.490   7.775   7.451  0.1724 -0.7848  0.2309
    1MOL0     C   53   2.406   7.886   7.463 -0.7847  0.2393  0.1883
    1MOL0     C   54   2.215   8.256   7.653  0.8434  0.1838 -0.0288
    1MOL0     C   55   2.233   8.335   7.770  0.2946  0.8106  0.6062
    1MOL0     C   56   2.162   8.452   7.795 -0.0955 -1.1865 -0.2325
    1MOL0     C   57   2.073   8.497   7.695  0.4857  0.0219 -0.5364
    1MOL0     O   58   2.003   8.604   7.746  0.7468  0.0316 -0.1160
    1MOL0     C   59   2.026   8.714   7.662 -1.0910 -1.0167  0.1565
    1MOL0     C   60   2.031   8.849   7.727  0.0752  0.2057 -0.8693
    1MOL0     C   61   1.916   8.890   7.806  0.0805  0.0619  0.4446
    1MOL0     C   62   1.780   8.898   7.734  0.1128  0.3938 -0.5198
    1MOL0     C   63   1.781   8.968   7.610  0.2278 -1.1879 -0.4122
    1MOL0     C   64   1.762   9.029   7.510 -0.5523 -0.0626  0.2592
    1MOL0     C   65   2.059   8.427   7.579  0.9042  0.0360  0.3718
    1MOL0     C   66   2.123   8.305   7.558  0.4638  0.2811  1.1079
    1MOL0     C   67   2.087   8.241   7.421 -1.1780  0.0469  0.2054
    1MOL0     H   68   2.602   8.151   7.522 -0.4005  0.5132  0.0366
    1MOL0     H   69   2.781   7.962   7.478  0.8590  0.4177  0.3070
    1MOL0     H   70   2.869   7.775   7.326  1.9956 -0.9087 -0.4157
    1MOL0     H   71   2.884   7.800   7.497  1.2304  1.2922 -1.5427
    1MOL0     H   72   2.919   7.550   7.536 -4.4623  2.8497  0.4298
    1MOL0     H   73   3.045   7.660   7.468 -1.8557  2.1183  1.5271
    1MOL0     H   74   2.921   7.554   7.238 -1.6271 -4.2067 -0.4505
    1MOL0     H   75   2.882   7.429   7.346  0.2790 -0.2945 -1.4423
    1MOL0     H   76   3.167   7.528   7.288  1.1947 -1.9307 -0.5498
    1MOL0     H   77   3.130   7.393   7.390  5.1604  1.9667 -0.5924
    1MOL0     H   78   2.976   7.358   7.150 -1.3531 -2.3927  1.7234
    1MOL0     H   79   3.157   7.376   7.121  0.9696 -1.0869  0.0956
    1MOL0     H   80   3.178   7.186   7.312 -0.9477 -1.5111  0.4266
    1MOL0     H   81   3.004   7.184   7.291  1.1366  0.5840  2.1002
    1MOL0     H   82   3.213   7.083   7.128 -0.8210 -2.0618 -0.0225
    1MOL0     H   83   3.096   7.179   7.031  1.7977  0.2048  0.3198
    1MOL0     H   84   3.059   6.939   7.213  3.0262 -2.3279 -1.3685
    1MOL0     H   85   2.921   7.020   7.122  1.8840  2.4549 -2.9771
    1MOL0     H   86   2.898   6.748   7.032 -0.0166  0.1466 -0.4938
    1MOL0     H   87   2.891   6.626   6.781 -0.6323 -1.6049 -3.4896
    1MOL0     H   88   3.051   6.617   6.703 -0.6262 -0.0033  0.2587
    1MOL0     H   89   2.936   6.487   6.958 -0.9707 -1.6371  0.4035
    1MOL0     H   90   2.994   6.402   6.817  1.8310 -1.8354  1.0173
    1MOL0     H   91   3.164   6.561   7.013  0.8043 -2.2370  2.3672
    1MOL0     H   92   3.232   6.466   6.870 -0.7713  2.7008 -2.0954
    1MOL0     H   93   3.252   6.311   7.062 -0.0242  1.2662 -1.3107
    1MOL0     H   94   3.117   6.263   6.970 -1.0236  0.3569 -0.0578
    1MOL0     H   95   2.909   6.548   7.214  0.5360 -0.4239 -1.3618
    1MOL0     H   96   2.936   6.707   7.395 -0.3136 -0.2171 -0.9937
    1MOL0     H   97   3.120   6.822   7.803 -0.0423 -0.2970  1.7555
    1MOL0     H   98   3.177   6.906   7.996 -1.7530 -2.7588 -1.3401
    1MOL0     H   99   3.288   6.987   8.208 -0.1009 -0.0067 -2.4683
    1MOL0     H  100   3.351   6.815   8.204  0.2959 -0.1551  1.5398
    1MOL0     H  101   3.402   6.918   8.435  0.7814  0.3600  1.1872
    1MOL0     H  102   3.544   6.897   8.330 -0.1728  1.6325 -2.3093
    1MOL0     H  103   3.476   7.169   8.271 -3.3590 -2.8094 -0.9601
    1MOL0     H  104   3.413   7.153   8.436  1.3400  0.0304  2.4974
    1MOL0     H  105   3.699   7.097   8.351 -3.5389 -3.2949 -3.0027
    1MOL0     H  106   3.632   7.056   8.507  0.4917 -0.1486 -0.8524
    1MOL0     H  107   3.590   7.311   8.544  0.4355  1.3862 -1.0731
    1MOL0     H  108   3.654   7.337   8.378  2.2766 -0.6635 -1.9136
    1MOL0     H  109   3.810   7.372   8.583  0.7511  0.7908 -1.0624
    1MOL0     H  110   3.817   7.194   8.603 -0.3209  0.1612  0.8442
    1MOL0     H  111   3.900   7.345   8.339 -0.5726 -0.3751 -1.0461
    1MOL0     H  112   3.921   7.172   8.383 -0.5848 -0.0064  2.5224
    1MOL0     H  113   4.133   7.327   8.403 -1.0812 -0.7713 -1.6388
    1MOL0     H  114   4.059   7.378   8.549 -1.2489  1.5771 -0.7585
    1MOL0     H  115   3.591   6.896   7.896  0.5263  0.5773 -1.7703
    1MOL0     H  116   3.532   6.786   7.664 -0.2705  2.4458  0.3054
    1MOL0     H  117   3.344   6.528   7.456  1.8722  1.5557 -2.7180
    1MOL0     H  118   3.287   6.371   7.269  1.0929  0.1206 -0.4488
    1MOL0     H  119   2.472   7.671   7.423 -2.1715 -0.5270  0.5338
    1MOL0     H  120   2.300   7.866   7.461 -0.2347 -3.2612 -2.0958
    1MOL0     H  121   2.291   8.295   7.853 -0.4423  0.8505  1.1482
    1MOL0     H  122   2.172   8.513   7.883 -0.1938 -1.4062 -0.0679
    1MOL0     H  123   1.942   8.694   7.595 -0.4636 -2.9747 -0.1031
    1MOL0     H  124   2.118   8.704   7.605 -1.2062  0.1954 -0.2745
    1MOL0     H  125   2.045   8.915   7.640 -0.4171 -2.1701 -2.8740
    1MOL0     H  126   2.115   8.857   7.796 -0.9072 -0.1626  0.4113
    1MOL0     H  127   1.944   8.988   7.847 -2.1903  1.3630 -0.9399
    1MOL0     H  128   1.914   8.816   7.886  1.7325  0.1857  0.6498
    1MOL0     H  129   1.758   8.794   7.707  4.2449  0.1446 -4.0221
    1MOL0     H  130   1.713   8.937   7.811  0.1455 -2.5337  1.1436
    1MOL0     H  131   1.709   9.074   7.428 -0.3391 -1.2001 -0.5211
    1MOL0     H  132   1.980   8.465   7.514  0.0459 -0.2968  1.1902
    1MOL0     H  133   2.047   8.139   7.425  0.6703 -0.6676  1.6099
    1MOL0     H  134   2.011   8.299   7.368 -1.5271 -0.5444  0.0486
    1MOL0     H  135   2.181   8.239   7.365 -0.9834 -3.9232  0.3640
    2MOL0     O  136  10.389   7.726   2.004  0.4283 -0.6388 -0.2504
    2MOL0     C  137  10.342   7.806   1.923  0.4425  0.3583  0.2812
    2MOL0     O  138  10.229   7.789   1.853 -0.1502 -0.0964  0.1094
    2MOL0     C  139  10.159   7.675   1.867  0.8259 -0.0489 -0.2843
    2MOL0     C  140  10.073   7.669   1.973  0.3533  1.1338 -0.5433
    2MOL0     C  141  10.016   7.538   2.004 -0.4939  0.6880 -0.3446
    2MOL0     C  142  10.054   7.424   1.933  0.5758 -0.2606 -0.5093
    2MOL0     O  143  10.016   7.300   1.972  0.4164  0.1165  0.6832
    2MOL0     C  144  10.032   7.199   1.865 -0.3632  0.7139 -0.2145
    2MOL0     C  145   9.953   7.074   1.924 -0.4600  0.5166  0.4943
    2MOL0     C  146   9.908   6.977   1.809  0.4496 -0.2588 -1.3547
    2MOL0     C  147  10.036   6.908   1.756 -1.1246 -0.6665  1.4917
    2MOL0     C  148  10.015   6.761   1.761  0.3055  0.7862 -0.7373
    2MOL0     C  149   9.997   6.699   1.900 -0.4455 -0.1619  0.3706
    2MOL0     C  150  10.014   6.547   1.904 -0.6708 -0.2956 -1.0129
    2MOL0     C  151   9.881   6.483   1.877 -0.9363 -0.3697 -0.2635
    2MOL0     N  152   9.812   6.469   2.004 -0.2181 -0.6991  0.3548
    2MOL0     C  153   9.701   6.545   2.053 -0.5206 -0.4388  0.0370
    2MOL0     C  154   9.652   6.468   2.154 -0.0820 -0.1521  0.0679
    2MOL0     C  155   9.531   6.490   2.243 -0.5732  0.0385 -0.4421
    2MOL0     C  156   9.567   6.574   2.360  0.1854  0.3645 -0.2954
    2MOL0     C  157   9.456   6.569   2.469 -0.8149  0.0909 -0.6213
    2MOL0     C  158   9.541   6.609   2.596  0.8727 -0.1230  0.2887
    2MOL0     O  159   9.549   6.750   2.593  0.0287 -0.3217 -0.5342
    2MOL0     C  160   9.503   6.832   2.692  0.0868  0.0854  0.6049
    2MOL0     C  161   9.476   6.793   2.822  0.3248  0.2236  1.4791
    2MOL0     C  162   9.417   6.888   2.913  0.1419  0.3378 -0.0978
    2MOL0     C  163   9.382   7.017   2.867  0.2486 -0.3315  0.1711
    2MOL0     C  164   9.338   7.125   2.956  0.7403 -0.2153 -0.1315
    2MOL0     O  165   9.366   7.118   3.086 -0.5518 -0.4572 -0.5112
    2MOL0     C  166   9.315   7.215   3.166 -0.1228  0.0254  0.2082
    2MOL0     C  167   9.412   7.303   3.229  0.4236  1.0371 -0.9892
    2MOL0     C  168   9.353   7.406   3.301  0.7052 -0.5235  0.3808
    2MOL0     C  169   9.215   7.420   3.327 -0.1417 -0.4503  0.4164
    2MOL0     O  170   9.178   7.522   3.414  0.4776 -0.3254  0.1160
    2MOL0     C  171   9.081   7.611   3.345 -0.1401  0.3077 -0.3929
    2MOL0     C  172   9.062   7.726   3.443 -0.0832  0.5121 -0.2739
    2MOL0     C  173   9.189   7.797   3.469  0.0852  0.1424 -0.0017
    2MOL0     C  174   9.160   7.934   3.529  0.1492  0.0240  0.7028
    2MOL0     C  175   9.277   8.017   3.570 -0.9146 -0.0771  0.2505
    2MOL0     C  176   9.384   7.948   3.658  0.1916 -0.5635 -0.5480
    2MOL0     C  177   9.513   8.033   3.672  0.6120 -0.5754 -0.8379
    2MOL0     C  178   9.486   8.120   3.789  0.4542 -0.6556  0.1462
    2MOL0    Cl  179   9.489   8.028   3.946 -0.5152  0.2021  0.4298
    2MOL0     C  180   9.120   7.329   3.266  0.1018 -0.3236 -0.1060
    2MOL0     C  181   9.172   7.234   3.179  0.1729  0.1592  0.4965
    2MOL0     O  182   9.283   7.221   2.904 -0.0640 -0.3547 -0.0974
    2MOL0     C  183   9.420   7.063   2.738 -0.2200 -0.3474  0.4963
    2MOL0     C  184   9.469   6.962   2.648  0.2209  1.0702  0.1065
    2MOL0     N  185   9.736   6.362   2.177  0.8497  0.0556  0.2237
    2MOL0     N  186   9.827   6.366   2.092 -0.7840 -0.3525  0.4670
    2MOL0     C  187  10.153   7.438   1.837 -0.1728  0.5321 -0.9304
    2MOL0     C  188  10.205   7.565   1.803 -0.3320 -0.4858  0.4680
    2MOL0     C  189  10.409   7.935   1.885 -0.4966 -0.5164  0.2952
    2MOL0     C  190  10.370   8.021   1.780 -0.2705 -1.0715  0.0753
    2MOL0     C  191  10.441   8.129   1.726  0.1770 -0.1757 -1.2239
    2MOL0     C  192  10.567   8.162   1.783  0.3262 -0.3781  0.2823
    2MOL0     O  193  10.641   8.267   1.744 -0.6614  0.0354  0.2175
    2MOL0     C  194  10.595   8.361   1.641 -0.5021  0.0311 -0.2925
    2MOL0     C  195  10.507   8.464   1.706  0.4634 -0.0814 -0.0705
    2MOL0     C  196  10.417   8.543   1.605  0.3144  0.3154  0.2065
    2MOL0     C  197  10.310   8.630   1.671 -0.8696  0.7079  0.1472
    2MOL0     C  198  10.200   8.558   1.736 -0.2426 -0.5778  0.5539
    2MOL0     C  199  10.114   8.500   1.804  0.1440  0.3238  0.4248
    2MOL0     C  200  10.612   8.080   1.880 -0.2732 -0.3200 -0.2631
    2MOL0     C  201  10.537   7.973   1.938  0.4131  0.2815 -0.5071
    2MOL0     C  202  10.604   7.905   2.063  0.0854 -0.0015  0.3835
    2MOL0     H  203  10.045   7.741   2.049  1.9649  0.1362  1.0682
    2MOL0     H  204   9.938   7.518   2.076  0.2390 -0.2706  0.2136
    2MOL0     H  205   9.992   7.230   1.768  1.3553  1.4703 -0.7255
    2MOL0     H  206  10.139   7.176   1.862 -0.3093  0.8230  0.6504
    2MOL0     H  207   9.867   7.117   1.976 -0.5631 -1.5134  2.1458
    2MOL0     H  208  10.023   7.018   1.986  0.3659  1.3148  0.2936
    2MOL0     H  209   9.862   7.044   1.736 -2.4189 -1.5641 -0.8523
    2MOL0     H  210   9.823   6.917   1.841  0.3021 -0.2148 -1.6625
    2MOL0     H  211  10.051   6.929   1.649  1.3608 -0.5411  1.8022
    2MOL0     H  212  10.124   6.948   1.808 -0.0379 -0.6191 -0.2782
    2MOL0     H  213   9.933   6.735   1.693  0.9367 -0.9213 -0.8964
    2MOL0     H  214  10.097   6.711   1.709  1.3962 -1.3388  2.6401
    2MOL0     H  215  10.071   6.748   1.963 -1.1117  1.1702  0.1599
    2MOL0     H  216   9.904   6.728   1.950 -0.7517  1.9314 -1.2884
    2MOL0     H  217  10.041   6.532   2.009 -3.2779  0.5373 -0.1417
    2MOL0     H  218  10.096   6.503   1.846  0.5546 -3.7061  2.7654
    2MOL0     H  219   9.816   6.540   1.809  1.6133  0.7372 -1.9262
    2MOL0     H  220   9.894   6.393   1.816 -2.2033  0.9987 -2.6864
    2MOL0     H  221   9.662   6.639   2.015  1.9758 -0.6972 -3.6510
    2MOL0     H  222   9.459   6.550   2.185  2.4224  1.9866 -2.4332
    2MOL0     H  223   9.478   6.398   2.271 -1.2947  1.0117  1.5825
    2MOL0     H  224   9.668   6.546   2.392 -0.7863 -0.9551  1.8642
    2MOL0     H  225   9.569   6.678   2.326 -0.3572  0.7357  0.7294
    2MOL0     H  226   9.409   6.470   2.469  0.8504 -0.7531  0.8397
    2MOL0     H  227   9.374   6.640   2.452  0.2258  1.4998 -0.0229
    2MOL0     H  228   9.638   6.558   2.596  2.5196  2.7466  2.9702
    2MOL0     H  229   9.480   6.583   2.683  1.9647  0.4087  1.2361
    2MOL0     H  230   9.484   6.695   2.868  0.2357 -0.7992 -0.5632
    2MOL0     H  231   9.399   6.866   3.017  2.6948  3.9555  1.3145
    2MOL0     H  232   9.520   7.288   3.224  0.4484  0.1807  0.9753
    2MOL0     H  233   9.413   7.491   3.335  2.8014 -1.6549 -0.2801
    2MOL0     H  234   9.119   7.647   3.249 -2.3521  0.3363 -1.3145
    2MOL0     H  235   8.984   7.562   3.332  0.0271 -0.5641  1.4111
    2MOL0     H  236   8.987   7.798   3.408 -0.1595  0.3911 -0.3594
    2MOL0     H  237   9.012   7.689   3.533  2.5001  0.1370  1.1024
    2MOL0     H  238   9.241   7.721   3.527  0.1777 -3.6576 -4.5221
    2MOL0     H  239   9.243   7.817   3.376  2.7762  1.4545  1.7041
    2MOL0     H  240   9.109   7.912   3.623 -0.4330  4.9824  1.8533
    2MOL0     H  241   9.092   7.995   3.469  0.7185  0.4460  0.4668
    2MOL0     H  242   9.234   8.090   3.640  0.4630  1.7954 -0.7460
    2MOL0     H  243   9.324   8.079   3.493 -0.8226 -0.2636  0.1584
    2MOL0     H  244   9.335   7.914   3.750 -0.2293 -0.0396 -0.5741
    2MOL0     H  245   9.409   7.853   3.610 -0.5429 -2.3026  2.2600
    2MOL0     H  246   9.529   8.085   3.577  0.3863 -2.7429 -2.1351
    2MOL0     H  247   9.600   7.973   3.699  0.8635  0.1032 -0.1034
    2MOL0     H  248   9.569   8.189   3.807 -0.5171  0.1927  1.4984
    2MOL0     H  249   9.391   8.173   3.786  0.2758 -0.9202  0.8855
    2MOL0     H  250   9.016   7.357   3.278  0.3835  1.2263 -1.0791
    2MOL0     H  251   9.095   7.166   3.144  1.3784 -0.2259 -1.5808
    2MOL0     H  252   9.376   7.157   2.706 -3.1770 -1.6449  0.4723
    2MOL0     H  253   9.482   6.961   2.540  0.7299 -0.4366  0.1607
    2MOL0     H  254  10.209   7.355   1.793  3.5900  1.7634  1.0341
    2MOL0     H  255  10.275   7.568   1.721 -0.3033 -3.2843  0.2942
    2MOL0     H  256  10.271   8.005   1.738 -2.0002  0.8550  3.1053
    2MOL0     H  257  10.391   8.199   1.659  0.8874  2.2859  0.6745
    2MOL0     H  258  10.548   8.296   1.566  0.3466  0.0804 -0.8823
    2MOL0     H  259  10.682   8.396   1.584 -1.8267 -1.9278 -3.8048
    2MOL0     H  260  10.563   8.535   1.767 -0.9030  3.0113 -2.1384
    2MOL0     H  261  10.434   8.416   1.772  2.4586 -1.3034  1.3511
    2MOL0     H  262  10.362   8.475   1.539  0.7188 -0.3075  0.5029
    2MOL0     H  263  10.481   8.613   1.551 -3.0072  2.8231 -0.7858
    2MOL0     H  264  10.359   8.706   1.733 -1.1300  0.7746  0.2723
    2MOL0     H  265  10.264   8.668   1.579 -2.4437 -0.8879  0.2191
    2MOL0     H  266  10.056   8.448   1.877  1.4804  0.1846  1.4206
    2MOL0     H  267  10.707   8.098   1.931  0.0837 -0.1377 -0.9850
    2MOL0     H  268  10.639   7.804   2.041 -1.9758 -0.8294  0.7572
    2MOL0     H  269  10.685   7.958   2.114 -1.7444  0.6111  2.8292
    2MOL0     H  270  10.521   7.885   2.131 -1.3823  0.9705 -1.0346
    3MOL0     O  271   8.647   1.506   1.745 -0.0167 -0.9284 -0.4166
    3MOL0     C  272   8.599   1.511   1.634  0.9212  0.5921 -0.3978
    3MOL0     O  273   8.471   1.487   1.604  0.9237 -0.9850  0.5071
    3MOL0     C  274   8.380   1.474   1.706 -0.2566  0.2921 -0.1587
    3MOL0     C  275   8.272   1.556   1.704  0.1169 -0.5017  0.0637
    3MOL0     C  276   8.165   1.524   1.783  0.4966  0.5325  1.2333
    3MOL0     C  277   8.173   1.417   1.877 -0.0795 -0.0323 -0.4312
    3MOL0     O  278   8.057   1.400   1.956 -0.2261  1.1680 -0.2054
    3MOL0     C  279   8.017   1.260   1.948 -0.1373 -0.7405  0.2724
    3MOL0     C  280   7.873   1.247   1.980  0.0698  0.1196 -0.1055
    3MOL0     C  281   7.842   1.238   2.130  0.2808 -0.1322  0.5866
    3MOL0     C  282   7.848   1.098   2.203  0.4261 -0.8296  0.0913
    3MOL0     C  283   7.806   1.095   2.352 -0.3752  0.3140 -0.4540
    3MOL0     C  284   7.654   1.119   2.368  0.3091  0.8557  0.4907
    3MOL0     C  285   7.640   1.237   2.463  0.1137  0.2122  0.1928
    3MOL0     C  286   7.663   1.210   2.611 -0.8183 -0.6908  0.9855
    3MOL0     N  287   7.663   1.335   2.691 -0.0266  0.1739 -0.3362
    3MOL0     C  288   7.608   1.455   2.669  0.2405 -0.8106  1.0884
    3MOL0     C  289   7.650   1.528   2.778  0.7883  0.1053  0.4996
    3MOL0     C  290   7.585   1.665   2.809 -0.7484 -0.6226 -0.1063
    3MOL0     C  291   7.442   1.658   2.866 -0.4083  0.4094  0.7922
    3MOL0     C  292   7.344   1.629   2.754  0.2451 -0.2591 -0.3488
    3MOL0     C  293   7.317   1.764   2.683 -0.6422 -0.5296  0.2597
    3MOL0     O  294   7.213   1.837   2.749 -0.2428  0.6596  0.0415
    3MOL0     C  295   7.172   1.958   2.692 -0.3106 -0.1341  0.2460
    3MOL0     C  296   7.248   2.014   2.590 -0.2074 -0.4814 -0.6122
    3MOL0     C  297   7.213   2.142   2.541 -0.0795  0.2044 -0.4345
    3MOL0     C  298   7.108   2.217   2.594  0.2658 -0.0362 -1.6107
    3MOL0     C  299   7.085   2.352   2.558  0.6054  0.2179 -0.0655
    3MOL0     O  300   6.989   2.428   2.627 -0.4777  0.2598  0.8771
    3MOL0     C  301   6.955   2.553   2.586  0.4749  0.3513 -0.0975
    3MOL0     C  302   6.961   2.603   2.455 -1.1155 -0.1634 -0.6332
    3MOL0     C  303   6.922   2.735   2.425 -0.2218 -0.1321  0.6809
    3MOL0     C  304   6.882   2.820   2.523  0.8716 -0.3248 -0.1761
    3MOL0     O  305   6.843   2.944   2.479 -0.4040  0.0828 -0.6020
    3MOL0     C  306   6.860   3.067   2.564 -0.3752  0.8037  0.9171
    3MOL0     C  307   6.836   3.183   2.477 -0.7120 -0.1059  0.6049
    3MOL0     C  308   6.688   3.210   2.456 -0.4347  0.4745  0.4963
    3MOL0     C  309   6.654   3.334   2.367 -0.2472  0.5829  0.6211
    3MOL0     C  310   6.694   3.473   2.412 -0.6774 -0.5655 -0.2174
    3MOL0     C  311   6.655   3.507   2.552  0.1913 -0.2040  0.8987
    3MOL0     C  312   6.649   3.660   2.561  1.0306  0.8357  0.2757
    3MOL0     C  313   6.515   3.715   2.523  0.1876 -0.6515 -0.1637
    3MOL0    Cl  314   6.372   3.669   2.630  0.1732 -0.2605 -0.2100
    3MOL0     C  315   6.881   2.779   2.659 -0.1867  0.1712  0.0123
    3MOL0     C  316   6.918   2.646   2.683  0.0959  0.4558 -0.1579
    3MOL0     O  317   7.155   2.394   2.465  0.4103 -0.1918 -0.7566
    3MOL0     C  318   7.028   2.156   2.692  0.3475 -0.5224  0.7344
    3MOL0     C  319   7.063   2.029   2.742 -0.3606  0.0080  0.4421
    3MOL0     N  320   7.736   1.460   2.859 -0.6052 -0.7263  0.7805
    3MOL0     N  321   7.735   1.345   2.811 -0.0453 -0.5587  0.0391
    3MOL0     C  322   8.291   1.338   1.894  0.5824 -0.4926  0.7786
    3MOL0     C  323   8.390   1.377   1.805  0.2673  0.9783  0.2116
    3MOL0     C  324   8.697   1.521   1.524  0.8892  0.0795  0.5513
    3MOL0     C  325   8.709   1.646   1.472 -0.3425  0.7636  1.1728
    3MOL0     C  326   8.792   1.671   1.363  0.5316 -0.1068 -0.2544
    3MOL0     C  327   8.885   1.575   1.326 -0.0174  1.2155 -0.2486
    3MOL0     O  328   8.997   1.616   1.248 -0.8330  0.1247  0.2143
    3MOL0     C  329   9.127   1.601   1.319  0.1797  0.2160  0.0781
    3MOL0     C  330   9.237   1.677   1.252  0.0216 -0.2255  1.1582
    3MOL0     C  331   9.246   1.662   1.099  0.3204 -0.1485  0.4149
    3MOL0     C  332   9.295   1.514   1.073 -0.2189 -0.3306 -0.6982
    3MOL0     C  333   9.239   1.460   0.946 -0.6919 -1.0184  0.9865
    3MOL0     C  334   9.191   1.413   0.848 -0.1846 -0.8670 -1.0901
    3MOL0     C  335   8.876   1.445   1.388 -0.0128 -0.1292  0.7205
    3MOL0     C  336   8.784   1.417   1.492 -0.1970  0.6334  0.6628
    3MOL0     C  337   8.801   1.291   1.580  0.6516  0.1859 -0.0131
    3MOL0     H  338   8.267   1.647   1.645 -1.1950 -0.2089  0.5968
    3MOL0     H  339   8.072   1.579   1.773  0.9604  1.1132 -0.1433
    3MOL0     H  340   8.029   1.219   1.847 -0.8066 -2.0434  0.7021
    3MOL0     H  341   8.071   1.188   2.010  0.8302 -1.5231 -1.3897
    3MOL0     H  342   7.832   1.157   1.935  0.4302 -1.2274  2.1070
    3MOL0     H  343   7.816   1.329   1.934  0.4472  3.2668  4.3501
    3MOL0     H  344   7.738   1.272   2.142 -0.8518 -2.6267 -1.2687
    3MOL0     H  345   7.900   1.312   2.184  0.6964 -0.5617  0.7300
    3MOL0     H  346   7.768   1.043   2.151 -2.5415  3.1220 -0.0109
    3MOL0     H  347   7.949   1.057   2.199  1.2423  1.1634 -1.4635
    3MOL0     H  348   7.835   0.995   2.386 -2.3944  0.2291  1.2449
    3MOL0     H  349   7.861   1.162   2.419 -2.6084  0.9592  0.8539
    3MOL0     H  350   7.596   1.139   2.278  1.3965 -0.0952 -0.4613
    3MOL0     H  351   7.610   1.030   2.414 -4.7552  2.1443 -1.2017
    3MOL0     H  352   7.539   1.270   2.440 -1.2377 -4.0440 -0.9764
    3MOL0     H  353   7.709   1.307   2.415 -0.2429 -0.8397 -1.9765
    3MOL0     H  354   7.591   1.134   2.642  1.1745 -1.9243  2.8610
    3MOL0     H  355   7.763   1.172   2.636 -0.6232 -0.5412  0.4318
    3MOL0     H  356   7.547   1.489   2.586  0.7766 -0.7414  0.7214
    3MOL0     H  357   7.642   1.717   2.887 -0.7047 -0.4786 -0.2337
    3MOL0     H  358   7.593   1.717   2.714 -2.7708  3.2030  1.6098
    3MOL0     H  359   7.434   1.579   2.941  0.7015 -0.2341  0.2644
    3MOL0     H  360   7.415   1.755   2.908 -2.1482  1.3944 -2.2957
    3MOL0     H  361   7.245   1.596   2.789 -0.2713  1.5806  0.0784
    3MOL0     H  362   7.385   1.557   2.684 -1.0339 -3.6108  2.0716
    3MOL0     H  363   7.305   1.726   2.581  4.0156 -0.7807 -0.4317
    3MOL0     H  364   7.407   1.826   2.682 -2.3552  2.2139 -3.0053
    3MOL0     H  365   7.329   1.966   2.536  2.0761  1.1104  1.1692
    3MOL0     H  366   7.281   2.196   2.476  1.0025 -2.1605 -1.3816
    3MOL0     H  367   6.972   2.540   2.368  1.5558  0.2426 -0.6900
    3MOL0     H  368   6.922   2.757   2.319  0.3622 -3.8067 -0.2331
    3MOL0     H  369   6.791   3.066   2.650  1.2332  1.3261  2.2668
    3MOL0     H  370   6.960   3.062   2.608  0.0290 -3.3515 -0.0283
    3MOL0     H  371   6.873   3.275   2.521 -1.1536 -0.6872  2.2704
    3MOL0     H  372   6.884   3.172   2.379 -2.6192  0.6923 -0.4957
    3MOL0     H  373   6.653   3.115   2.414 -0.0742 -1.6819  4.5657
    3MOL0     H  374   6.637   3.229   2.551  0.7669  0.0848  1.2464
    3MOL0     H  375   6.544   3.337   2.364 -0.2855 -0.6244 -1.6218
    3MOL0     H  376   6.700   3.327   2.268  1.8529  0.4902  1.5598
    3MOL0     H  377   6.659   3.550   2.342 -0.5948 -1.4907 -1.3064
    3MOL0     H  378   6.804   3.475   2.405 -0.7425 -0.8597 -1.5893
    3MOL0     H  379   6.553   3.467   2.559 -0.9189  2.0128 -1.0073
    3MOL0     H  380   6.706   3.462   2.638  1.8936  2.3043  1.3262
    3MOL0     H  381   6.719   3.694   2.484  0.6117  1.8239  0.3215
    3MOL0     H  382   6.671   3.699   2.660  2.0620  4.4711 -1.2043
    3MOL0     H  383   6.524   3.823   2.539 -1.3993 -0.8729  3.0651
    3MOL0     H  384   6.495   3.695   2.417  0.6582  2.9161 -1.0544
    3MOL0     H  385   6.822   2.835   2.731  1.8888 -0.0042  1.9689
    3MOL0     H  386   6.904   2.618   2.787 -0.3846 -0.9754 -0.5896
    3MOL0     H  387   6.928   2.194   2.712 -0.8085 -0.3387 -4.1175
    3MOL0     H  388   7.019   1.976   2.826  0.0333  0.2847  0.8309
    3MOL0     H  389   8.310   1.264   1.972 -0.9851  1.3637  3.0689
    3MOL0     H  390   8.474   1.309   1.798 -1.3539 -1.0060 -1.2684
    3MOL0     H  391   8.637   1.719   1.509 -1.9231 -0.4322  0.5897
    3MOL0     H  392   8.791   1.774   1.327  3.0441  0.5475  1.3496
    3MOL0     H  393   9.148   1.494   1.315 -0.8312  0.0426 -1.3803
    3MOL0     H  394   9.128   1.649   1.417  1.5523  0.0352  0.1652
    3MOL0     H  395   9.327   1.652   1.309  0.7252 -2.3649 -0.7548
    3MOL0     H  396   9.219   1.783   1.272  2.1270  0.2902  0.5553
    3MOL0     H  397   9.321   1.728   1.055 -0.0058 -0.8754 -1.3228
    3MOL0     H  398   9.150   1.673   1.048 -0.7555  3.0774  2.8031
    3MOL0     H  399   9.404   1.525   1.067 -0.0479 -0.7254  1.2560
    3MOL0     H  400   9.281   1.437   1.148  1.3331 -0.4135 -0.4492
    3MOL0     H  401   9.178   1.354   0.760 -0.3626 -0.6281 -1.2233
    3MOL0     H  402   8.951   1.369   1.366 -0.1306 -0.9577  2.9038
    3MOL0     H  403   8.844   1.212   1.517  3.5615  1.9895 -0.4743
    3MOL0     H  404   8.859   1.317   1.669 -2.0436 -0.3323  2.0243
    3MOL0     H  405   8.710   1.249   1.624  1.8995 -3.8684 -0.8705
    4MOL0     O  406   4.672   1.246   0.495  0.8484 -0.0831  0.1752
    4MOL0     C  407   4.633   1.141   0.442 -0.5551 -0.3569 -0.4923
    4MOL0     O  408   4.694   1.083   0.335 -0.3350 -0.1911  0.5562
    4MOL0     C  409   4.802   1.154   0.286  0.1215  0.7896  0.2074
    4MOL0     C  410   4.930   1.096   0.281  1.1254  0.5013 -0.2364
    4MOL0     C  411   5.043   1.157   0.225  0.5677  0.3812 -0.6873
    4MOL0     C  412   5.028   1.269   0.156  0.1106 -0.1965 -0.7018
    4MOL0     O  413   5.137   1.317   0.105 -0.7050 -0.3176 -0.3784
    4MOL0     C  414   5.166   1.461   0.120  1.4770  0.3626 -1.3529
    4MOL0     C  415   5.163   1.511   0.263  0.0516 -0.0400  0.1648
    4MOL0     C  416   5.297   1.491   0.341  0.4572 -0.3820  0.3892
    4MOL0     C  417   5.319   1.349   0.400  1.0485 -0.6271  0.0944
    4MOL0     C  418   5.223   1.322   0.518 -0.5353 -0.0660 -0.0089
    4MOL0     C  419   5.239   1.196   0.587  0.2706 -0.3428 -0.2153
    4MOL0     C  420   5.160   1.177   0.720  0.2623 -0.2509  0.0674
    4MOL0     C  421   5.010   1.140   0.702 -1.0338  0.3922 -0.3704
    4MOL0     N  422   4.934   1.101   0.824 -1.2588  0.1590  0.2808
    4MOL0     C  423   4.802   1.077   0.828 -0.2371 -0.0055 -0.1452
    4MOL0     C  424   4.774   1.037   0.954 -0.0593 -0.7712 -0.4490
    4MOL0     C  425   4.636   0.992   1.010 -0.5618  0.2730  0.6927
    4MOL0     C  426   4.519   1.009   0.911  0.5296 -1.2451 -0.3135
    4MOL0     C  427   4.377   0.987   0.973 -0.5125 -1.2859  0.8667
    4MOL0     C  428   4.337   1.096   1.073 -0.3827  0.5303  0.4058
    4MOL0     O  429   4.313   1.213   0.995  0.2030  0.0936  0.5619
    4MOL0     C  430   4.288   1.333   1.067  0.1720  0.7834  0.5462
    4MOL0     C  431   4.252   1.445   1.001  0.0695  0.5142  0.0331
    4MOL0     C  432   4.233   1.560   1.078  0.9150 -0.8082  0.4022
    4MOL0     C  433   4.254   1.571   1.206 -0.9541  0.9459 -0.6960
    4MOL0     C  434   4.241   1.701   1.271  0.0188  0.3545  0.5638
    4MOL0     O  435   4.265   1.692   1.407 -0.1190 -0.2804  0.6403
    4MOL0     C  436   4.237   1.800   1.478  0.5317  0.0105 -0.5830
    4MOL0     C  437   4.103   1.839   1.519  0.6216 -1.0182  0.0309
    4MOL0     C  438   4.095   1.960   1.587  0.5990  0.4900  0.0304
    4MOL0     C  439   4.200   2.041   1.625  0.1247 -1.8532 -0.2563
    4MOL0     O  440   4.172   2.129   1.732  0.3656 -0.0001  0.2011
    4MOL0     C  441   4.247   2.253   1.728 -0.1600  0.1821  0.3423
    4MOL0     C  442   4.196   2.346   1.841 -0.0051  0.5768 -0.3588
    4MOL0     C  443   4.245   2.489   1.848  0.9063  0.0290 -0.0331
    4MOL0     C  444   4.399   2.501   1.880  0.6478 -0.0655  0.3220
    4MOL0     C  445   4.491   2.535   1.758 -0.8493 -0.8458 -0.0114
    4MOL0     C  446   4.564   2.677   1.777  0.1076 -0.1256 -0.7157
    4MOL0     C  447   4.657   2.696   1.663  1.0120 -0.4940  0.9755
    4MOL0     C  448   4.685   2.854   1.656  0.4652 -0.1909 -0.0775
    4MOL0    Cl  449   4.829   2.879   1.557  0.5217  0.2320 -0.1429
    4MOL0     C  450   4.326   1.993   1.605  0.6934  0.2753  0.3826
    4MOL0     C  451   4.348   1.885   1.513 -0.1837  0.4023 -1.3806
    4MOL0     O  452   4.220   1.801   1.200 -0.5428 -0.3601 -0.5433
    4MOL0     C  453   4.311   1.453   1.270  0.6669 -0.4316 -0.6268
    4MOL0     C  454   4.330   1.344   1.204 -0.5211 -0.2722  0.2802
    4MOL0     N  455   4.894   1.049   1.030  0.4735  0.4028 -0.4032
    4MOL0     N  456   4.990   1.075   0.949 -0.0622 -0.3354  0.0701
    4MOL0     C  457   4.900   1.328   0.153 -0.2066  0.1343 -0.1247
    4MOL0     C  458   4.797   1.272   0.216  0.6259  0.4658  0.1519
    4MOL0     C  459   4.507   1.077   0.489  0.0949  0.1123  0.4646
    4MOL0     C  460   4.483   0.939   0.460  0.2061 -0.5609  0.5413
    4MOL0     C  461   4.367   0.868   0.491  0.7378 -1.2227  0.7998
    4MOL0     C  462   4.259   0.951   0.559 -0.1470 -0.1379  0.8681
    4MOL0     O  463   4.129   0.900   0.586 -0.3135  0.0028 -0.3819
    4MOL0     C  464   4.107   0.762   0.550 -0.3736  0.2788  0.1029
    4MOL0     C  465   3.989   0.691   0.626  0.2507 -0.4123  0.3453
    4MOL0     C  466   4.008   0.537   0.602 -0.4379 -0.3199  0.8597
    4MOL0     C  467   3.873   0.477   0.603 -0.1271  0.0524  0.3347
    4MOL0     C  468   3.893   0.342   0.567  1.0684 -0.0078  0.2224
    4MOL0     C  469   3.891   0.220   0.556  0.5849 -1.0730 -0.5022
    4MOL0     C  470   4.290   1.078   0.608  0.4331  0.4180 -0.5454
    4MOL0     C  471   4.414   1.144   0.577  0.0512 -0.4061  0.3243
    4MOL0     C  472   4.429   1.276   0.652 -0.7460 -0.2745  0.2236
    4MOL0     H  473   4.941   1.001   0.334 -2.6156 -0.1171 -0.2917
    4MOL0     H  474   5.137   1.106   0.239 -0.4213 -1.3235  0.0171
    4MOL0     H  475   5.265   1.481   0.078  1.1741  0.0976 -2.2139
    4MOL0     H  476   5.096   1.513   0.054  0.6405  0.1643 -0.6383
    4MOL0     H  477   5.075   1.468   0.313  1.4701 -0.7760  2.1487
    4MOL0     H  478   5.143   1.617   0.245 -2.0977 -0.2787  0.7834
    4MOL0     H  479   5.295   1.568   0.419 -0.8745 -0.2071  0.2112
    4MOL0     H  480   5.377   1.506   0.269 -0.1574 -1.1755 -0.4848
    4MOL0     H  481   5.322   1.268   0.326  0.9390  2.0310 -3.0496
    4MOL0     H  482   5.417   1.344   0.446 -0.5830  0.9288  4.1809
    4MOL0     H  483   5.241   1.408   0.584  0.8603  0.0215 -0.4718
    4MOL0     H  484   5.119   1.322   0.484 -0.1685 -1.0288 -1.1807
    4MOL0     H  485   5.203   1.125   0.511 -2.3565 -1.4483  1.9059
    4MOL0     H  486   5.344   1.172   0.604  0.6318  0.9506 -0.5427
    4MOL0     H  487   5.163   1.264   0.787  1.6199 -1.2979  1.4295
    4MOL0     H  488   5.205   1.091   0.771 -0.7185 -0.7591  0.1056
    4MOL0     H  489   4.948   1.222   0.665 -2.7789 -0.8235 -0.2454
    4MOL0     H  490   5.001   1.058   0.631  0.0263  1.8042 -2.2366
    4MOL0     H  491   4.738   1.087   0.741  0.1632 -2.2639 -0.7661
    4MOL0     H  492   4.648   0.889   1.043 -0.5434  0.0166 -0.1160
    4MOL0     H  493   4.624   1.058   1.097  1.6526  0.4837  0.8968
    4MOL0     H  494   4.521   1.113   0.878 -0.4960 -0.1707  2.7243
    4MOL0     H  495   4.522   0.954   0.816 -3.1165 -2.7093  0.2595
    4MOL0     H  496   4.361   0.898   1.035 -3.3879 -0.2707  1.7268
    4MOL0     H  497   4.306   0.970   0.892 -0.0581  0.5905  0.0084
    4MOL0     H  498   4.415   1.107   1.149  0.5700  1.6721 -0.6847
    4MOL0     H  499   4.238   1.066   1.110  0.1677 -0.1637  1.3591
    4MOL0     H  500   4.237   1.438   0.894  3.7330 -1.3311 -0.4949
    4MOL0     H  501   4.202   1.646   1.020 -1.0648 -2.1101 -0.6071
    4MOL0     H  502   4.010   1.786   1.501  1.3768 -1.4081 -3.7063
    4MOL0     H  503   3.998   1.970   1.636  0.1515 -6.1918  1.5097
    4MOL0     H  504   4.352   2.225   1.726 -0.4212 -0.8504  0.2339
    4MOL0     H  505   4.217   2.309   1.639 -1.9433  2.1769  2.0832
    4MOL0     H  506   4.087   2.354   1.832 -0.1651 -2.8643 -4.3994
    4MOL0     H  507   4.221   2.295   1.935 -4.2653 -1.7444 -0.2106
    4MOL0     H  508   4.195   2.544   1.768 -0.5881 -2.4016 -0.8662
    4MOL0     H  509   4.200   2.532   1.938  0.8875  0.2602 -0.1516
    4MOL0     H  510   4.434   2.403   1.915 -0.4677 -0.0848  1.4560
    4MOL0     H  511   4.410   2.580   1.955  0.6802  0.1116  0.1333
    4MOL0     H  512   4.436   2.533   1.663 -0.6162  1.8514 -0.2745
    4MOL0     H  513   4.571   2.460   1.755  0.2433  0.0555  2.9331
    4MOL0     H  514   4.493   2.759   1.794 -0.8121 -1.1217  0.3923
    4MOL0     H  515   4.621   2.673   1.870 -1.2803  1.3102  0.2521
    4MOL0     H  516   4.622   2.648   1.572 -0.3161 -1.3880  1.9281
    4MOL0     H  517   4.750   2.640   1.675  0.9371 -1.4372 -2.0746
    4MOL0     H  518   4.602   2.897   1.601 -0.7999 -2.6978 -0.2670
    4MOL0     H  519   4.691   2.906   1.752 -2.3628 -0.2917  0.2330
    4MOL0     H  520   4.407   2.056   1.641  0.0932  0.4128  1.5398
    4MOL0     H  521   4.448   1.854   1.486 -0.0919  1.8845 -2.9078
    4MOL0     H  522   4.347   1.458   1.372  0.2795  3.7165 -0.5194
    4MOL0     H  523   4.381   1.259   1.249 -1.1373 -0.4019  0.7476
    4MOL0     H  524   4.886   1.411   0.084 -1.5538 -1.2420 -1.6155
    4MOL0     H  525   4.709   1.335   0.207  1.0547  0.7037 -4.4887
    4MOL0     H  526   4.554   0.881   0.400 -2.5158 -2.3249 -1.2171
    4MOL0     H  527   4.333   0.770   0.460 -4.1895 -0.8689  3.8730
    4MOL0     H  528   4.197   0.705   0.574  0.5047  1.2388 -0.7578
    4MOL0     H  529   4.094   0.753   0.442 -0.9702 -0.2178  0.2159
    4MOL0     H  530   3.894   0.729   0.588  1.1552  3.8512  1.7809
    4MOL0     H  531   3.995   0.709   0.734 -3.5210 -2.4270  1.0780
    4MOL0     H  532   4.077   0.490   0.673  2.6445 -0.9418 -2.2827
    4MOL0     H  533   4.056   0.510   0.508 -0.2887 -1.9908  1.3822
    4MOL0     H  534   3.826   0.481   0.701  1.1740  6.3851  1.1470
    4MOL0     H  535   3.804   0.534   0.540  0.7609 -0.3689 -1.0595
    4MOL0     H  536   3.886   0.114   0.543  0.0890 -1.1414  0.2195
    4MOL0     H  537   4.220   1.129   0.672 -2.4403 -0.5773 -2.6677
    4MOL0     H  538   4.449   1.356   0.580  4.1185 -1.4799 -0.0958
    4MOL0     H  539   4.336   1.293   0.706 -1.2654  0.1271 -0.7769
    4MOL0     H  540   4.515   1.269   0.719  0.7169  1.6521 -1.3184
    5MOL0     O  541   1.912   7.559   3.849 -0.0573  0.0688 -0.0724
    5MOL0     C  542   1.934   7.680   3.880 -0.7438 -0.8450  0.0165
    5MOL0     O  543   1.870   7.749   3.976 -0.1664 -0.1649 -0.2159
    5MOL0     C  544   1.727   7.741   3.962  0.6082 -0.7237  0.0364
    5MOL0     C  545   1.656   7.779   4.071  0.1656  0.2538 -0.2448
    5MOL0     C  546   1.513   7.793   4.060 -0.5114  0.8138 -0.1034
    5MOL0     C  547   1.437   7.787   3.941  0.3018 -0.1389  0.3698
    5MOL0     O  548   1.305   7.802   3.937 -0.2683  0.4144  0.2133
    5MOL0     C  549   1.239   7.832   4.066 -0.3419 -0.1755  0.2465
    5MOL0     C  550   1.089   7.840   4.042  0.3007  0.0790  0.3008
    5MOL0     C  551   1.045   7.902   3.916 -1.2333  0.4517  0.5218
    5MOL0     C  552   0.886   7.937   3.927 -0.4505  0.0849  0.6275
    5MOL0     C  553   0.797   7.817   3.902 -1.0564 -0.1059  0.0138
    5MOL0     C  554   0.797   7.768   3.762 -0.3178 -0.4596 -0.0904
    5MOL0     C  555   0.668   7.688   3.729  0.4588  0.2968  0.5362
    5MOL0     C  556   0.550   7.791   3.703 -0.4753  0.5050 -0.1376
    5MOL0     N  557   0.577   7.864   3.582 -0.0269 -0.2674  0.4146
    5MOL0     C  558   0.647   7.988   3.577  0.0374 -0.6040  0.0171
    5MOL0     C  559   0.625   8.019   3.447  0.7551 -0.1261 -0.2594
    5MOL0     C  560   0.695   8.124   3.374 -0.9281 -0.6617  1.2114
    5MOL0     C  561   0.842   8.104   3.339  0.0067 -0.2414 -0.8979
    5MOL0     C  562   0.927   8.088   3.462 -0.7366 -1.0073 -1.0030
    5MOL0     C  563   1.080   8.092   3.419  0.5816 -0.7902 -0.9506
    5MOL0     O  564   1.156   8.050   3.536 -0.8380  0.4772  0.9029
    5MOL0     C  565   1.290   8.074   3.549 -0.5499 -0.6131  0.3145
    5MOL0     C  566   1.372   8.129   3.446 -0.5956 -0.9831  0.1194
    5MOL0     C  567   1.502   8.166   3.471  0.7976 -0.0659  0.5418
    5MOL0     C  568   1.565   8.146   3.598  0.3702 -0.7771 -0.5922
    5MOL0     C  569   1.703   8.185   3.620 -0.7912 -0.0690  0.3033
    5MOL0     O  570   1.771   8.246   3.522 -0.1194 -0.1144 -0.1921
    5MOL0     C  571   1.886   8.327   3.563 -0.0531  0.5211 -0.0666
    5MOL0     C  572   2.017   8.269   3.557  0.0783 -0.0905 -0.7150
    5MOL0     C  573   2.139   8.350   3.565 -0.0951 -0.6781 -0.1665
    5MOL0     C  574   2.129   8.487   3.595 -0.0213 -0.9572 -0.5227
    5MOL0     O  575   2.234   8.578   3.611  0.7425 -0.0958  0.0872
    5MOL0     C  576   2.362   8.526   3.625 -0.0537  1.0539 -0.0408
    5MOL0     C  577   2.448   8.644   3.613 -0.0660  0.1443 -1.0223
    5MOL0     C  578   2.604   8.611   3.628  0.1921 -0.4210 -1.1867
    5MOL0     C  579   2.685   8.738   3.630 -0.0437  0.0315  0.2313
    5MOL0     C  580   2.840   8.720   3.666  0.6551 -0.4997 -0.2983
    5MOL0     C  581   2.914   8.627   3.574 -0.2768  0.5336 -0.2614
    5MOL0     C  582   3.067   8.614   3.592 -0.2490 -0.5671  1.3132
    5MOL0     C  583   3.102   8.553   3.733  0.1675 -0.6405 -0.4089
    5MOL0    Cl  584   3.045   8.393   3.746  0.8737 -0.2097 -0.1960
    5MOL0     C  585   1.996   8.544   3.612  0.2155  0.7724 -0.8134
    5MOL0     C  586   1.879   8.458   3.605  0.8605 -0.5020 -0.9801
    5MOL0     O  587   1.740   8.183   3.742 -0.1848  0.7885  0.6316
    5MOL0     C  588   1.488   8.085   3.694  1.5862 -0.0880 -0.2956
    5MOL0     C  589   1.351   8.051   3.680 -0.6467  0.3168  0.2103
    5MOL0     N  590   0.534   7.936   3.384  0.1033  0.4836 -0.6000
    5MOL0     N  591   0.501   7.842   3.465  0.5795 -0.0556  0.1410
    5MOL0     C  592   1.515   7.767   3.829  0.3277  0.0243  0.2998
    5MOL0     C  593   1.653   7.736   3.843  0.5294  0.6006  0.2534
    5MOL0     C  594   2.045   7.752   3.823  1.5317 -0.0998 -0.1934
    5MOL0     C  595   2.028   7.894   3.809  0.0621  0.4996 -0.1216
    5MOL0     C  596   2.135   7.961   3.757 -0.1543 -0.0525  0.0873
    5MOL0     C  597   2.255   7.904   3.721  0.6893 -1.5052  0.1771
    5MOL0     O  598   2.345   7.978   3.650  0.8545 -0.1073  0.5823
    5MOL0     C  599   2.471   7.996   3.716  0.3708 -0.5158 -0.7896
    5MOL0     C  600   2.582   8.029   3.601  0.1074  1.0888 -1.3189
    5MOL0     C  601   2.551   8.157   3.533 -0.0318 -0.3061  1.1882
    5MOL0     C  602   2.644   8.198   3.420  0.0157  0.3599  0.2215
    5MOL0     C  603   2.667   8.088   3.329 -0.2201  0.3192  0.1139
    5MOL0     C  604   2.680   7.994   3.246 -0.4958 -0.1832 -0.4852
    5MOL0     C  605   2.267   7.771   3.742 -0.0370 -0.7112  0.3564
    5MOL0     C  606   2.167   7.691   3.793  0.4014 -0.9398  0.0526
    5MOL0     C  607   2.185   7.541   3.818  0.4499  0.2447 -0.7913
    5MOL0     H  608   1.697   7.794   4.171  0.4225 -0.5781 -0.2167
    5MOL0     H  609   1.460   7.795   4.155 -1.9184 -1.3119 -0.7687
    5MOL0     H  610   1.258   7.757   4.143 -0.3099  0.2414  0.6484
    5MOL0     H  611   1.276   7.929   4.102 -4.2945  1.6131 -0.0381
    5MOL0     H  612   1.046   7.887   4.131  2.4965  1.4411  0.7422
    5MOL0     H  613   1.061   7.735   4.029  0.0676  0.2844 -0.9448
    5MOL0     H  614   1.060   7.840   3.826 -3.0751 -1.7341  1.5987
    5MOL0     H  615   1.102   7.994   3.904 -0.0292 -0.5795 -2.8822
    5MOL0     H  616   0.867   7.971   4.029  2.3856  1.2780  0.8655
    5MOL0     H  617   0.864   8.019   3.857 -1.8155  2.2661  3.4195
    5MOL0     H  618   0.835   7.740   3.970 -1.0323 -1.2274 -1.2313
    5MOL0     H  619   0.701   7.843   3.947 -0.1387 -0.9205  2.6537
    5MOL0     H  620   0.815   7.845   3.687  0.2126 -0.7825 -0.3014
    5MOL0     H  621   0.889   7.708   3.765  2.5921  3.6497  1.9237
    5MOL0     H  622   0.638   7.631   3.817  0.6392 -2.5297 -1.1170
    5MOL0     H  623   0.676   7.616   3.647 -1.7392 -3.2863  3.1966
    5MOL0     H  624   0.463   7.727   3.685  0.9260 -1.1509 -1.3220
    5MOL0     H  625   0.523   7.855   3.788 -0.8542  1.3636 -0.8879
    5MOL0     H  626   0.706   8.040   3.651 -4.0878  3.3272  1.0103
    5MOL0     H  627   0.654   8.131   3.273  2.5023 -2.7668 -0.5015
    5MOL0     H  628   0.675   8.221   3.422 -0.7754 -0.5832  1.1194
    5MOL0     H  629   0.858   8.012   3.284 -0.1708  0.7629 -2.6973
    5MOL0     H  630   0.892   8.190   3.292  1.5904 -0.0094  1.0732
    5MOL0     H  631   0.905   7.996   3.516 -0.6088 -0.4695 -0.0016
    5MOL0     H  632   0.913   8.166   3.538  0.0967 -2.4428  0.6931
    5MOL0     H  633   1.104   8.194   3.389  2.6385 -0.0563  2.5648
    5MOL0     H  634   1.101   8.022   3.338  1.1123  1.2425 -2.6560
    5MOL0     H  635   1.320   8.134   3.350 -1.5761 -1.5471  0.6086
    5MOL0     H  636   1.560   8.207   3.389  0.2456 -1.9171 -0.8380
    5MOL0     H  637   2.023   8.161   3.545 -2.3384 -0.3768  0.0512
    5MOL0     H  638   2.230   8.290   3.568 -0.5055 -1.4377 -1.8257
    5MOL0     H  639   2.383   8.472   3.718 -1.8088  0.2646 -0.0723
    5MOL0     H  640   2.380   8.450   3.549  1.3360  1.6842 -0.3739
    5MOL0     H  641   2.423   8.713   3.532 -1.4755  2.1257  0.9895
    5MOL0     H  642   2.420   8.706   3.699 -2.7071 -0.8473 -1.0823
    5MOL0     H  643   2.617   8.565   3.726 -2.8262 -2.7070 -1.7061
    5MOL0     H  644   2.634   8.537   3.553 -0.9580 -1.6159 -0.5188
    5MOL0     H  645   2.633   8.796   3.706  1.3698  0.5893  0.8060
    5MOL0     H  646   2.683   8.795   3.536  2.9556 -0.5416 -0.3002
    5MOL0     H  647   2.858   8.702   3.772  2.5423 -1.2991 -0.7147
    5MOL0     H  648   2.883   8.818   3.643  1.2121  0.1995  3.2238
    5MOL0     H  649   2.864   8.531   3.591  0.1991  0.2479 -0.4588
    5MOL0     H  650   2.892   8.662   3.472 -1.0248  4.1936  1.0064
    5MOL0     H  651   3.120   8.708   3.574 -0.3026 -0.5932  1.0135
    5MOL0     H  652   3.091   8.546   3.510 -6.8481 -1.0665 -0.7982
    5MOL0     H  653   3.206   8.581   3.751 -1.6323  5.3026  4.1073
    5MOL0     H  654   3.045   8.616   3.803  0.5259 -1.1713  0.3690
    5MOL0     H  655   1.988   8.651   3.629 -0.3099  0.3260  2.4943
    5MOL0     H  656   1.778   8.499   3.609  0.2085 -2.1182  0.9062
    5MOL0     H  657   1.547   8.073   3.784  1.8315  3.8887  0.2910
    5MOL0     H  658   1.304   8.006   3.767  3.5066 -1.6978  1.6819
    5MOL0     H  659   1.474   7.772   3.729  4.4411 -2.5759 -1.7675
    5MOL0     H  660   1.716   7.719   3.756  1.1090  0.6901  0.6483
    5MOL0     H  661   1.942   7.958   3.823 -0.5645 -0.6063  1.4676
    5MOL0     H  662   2.129   8.069   3.750  0.0502 -0.0856 -0.6092
    5MOL0     H  663   2.507   7.913   3.777 -0.4021  1.5735  2.7865
    5MOL0     H  664   2.472   8.086   3.779  2.3069 -0.1087 -1.3399
    5MOL0     H  665   2.583   7.950   3.525  0.2519  1.9067 -2.1892
    5MOL0     H  666   2.684   8.039   3.639  0.1691 -4.6842  0.9531
    5MOL0     H  667   2.563   8.241   3.601 -0.5593  0.1374  0.7465
    5MOL0     H  668   2.451   8.138   3.492  0.2273 -0.4588  0.6112
    5MOL0     H  669   2.609   8.291   3.373  2.4389  2.3531  2.0825
    5MOL0     H  670   2.742   8.223   3.463 -0.4966  1.4747  0.7887
    5MOL0     H  671   2.695   7.905   3.187  1.6174  0.3958 -0.8875
    5MOL0     H  672   2.360   7.720   3.721 -0.1887 -0.4252 -1.1280
    5MOL0     H  673   2.126   7.484   3.746  1.8969  2.5288 -4.0419
    5MOL0     H  674   2.289   7.514   3.800  0.3146  0.4586 -1.9535
    5MOL0     H  675   2.156   7.519   3.921 -0.8123  1.8700 -0.7451
    6MOL0     O  676   3.732  11.360   7.611  0.5300 -0.0047  0.2876
    6MOL0     C  677   3.770  11.452   7.678  0.3382 -1.0432 -0.8352
    6MOL0     O  678   3.861  11.553   7.633  0.0645 -0.6880 -0.1987
    6MOL0     C  679   3.940  11.541   7.528  0.9844  0.6417  0.5469
    6MOL0     C  680   3.976  11.651   7.448 -0.5718 -0.0958 -0.6659
    6MOL0     C  681   4.042  11.626   7.328 -0.8340 -0.1883  0.5825
    6MOL0     C  682   4.089  11.496   7.289  1.4723 -0.6279  0.0306
    6MOL0     O  683   4.158  11.461   7.175  0.2167 -0.1972 -0.0189
    6MOL0     C  684   4.157  11.553   7.067 -0.2192  0.6816 -0.2123
    6MOL0     C  685   4.270  11.652   7.085 -0.0800  0.5218 -0.1455
    6MOL0     C  686   4.273  11.751   6.966  0.0576 -0.5072 -1.2813
    6MOL0     C  687   4.162  11.850   6.972  1.1447  0.6844 -0.9024
    6MOL0     C  688   4.194  11.986   6.914  0.7338 -1.3558 -0.0445
    6MOL0     C  689   4.075  12.076   6.885  0.4223 -0.5496 -0.5188
    6MOL0     C  690   4.109  12.194   6.804  0.4266 -0.3094  0.2375
    6MOL0     C  691   3.976  12.267   6.758 -0.5724 -0.2872  0.7871
    6MOL0     N  692   3.915  12.334   6.872  0.2468 -0.0490 -0.1233
    6MOL0     C  693   3.977  12.380   6.991 -0.0197  0.1805 -0.0848
    6MOL0     C  694   3.872  12.420   7.069 -0.0182 -0.8477  0.0718
    6MOL0     C  695   3.888  12.475   7.200  0.6291 -0.9443 -0.4900
    6MOL0     C  696   3.938  12.620   7.203 -0.7055 -0.2196 -0.8616
    6MOL0     C  697   3.841  12.725   7.163 -0.1823  0.3612 -1.1972
    6MOL0     C  698   3.738  12.760   7.262 -0.3947 -0.8607  0.5616
    6MOL0     O  699   3.804  12.790   7.386  1.0171  0.2484 -0.4591
    6MOL0     C  700   3.719  12.829   7.488  0.5332 -0.2895 -0.7887
    6MOL0     C  701   3.579  12.810   7.498 -0.8832  0.5747  0.6280
    6MOL0     C  702   3.520  12.879   7.595  0.5710  0.3766 -0.3395
    6MOL0     C  703   3.571  12.962   7.686 -0.5114 -0.6157  0.6099
    6MOL0     C  704   3.499  13.038   7.795  0.0927  0.2216  0.0233
    6MOL0     O  705   3.568  13.094   7.890 -0.5834 -0.2042  0.5224
    6MOL0     C  706   3.536  13.209   7.955  0.4856 -0.1474 -0.3233
    6MOL0     C  707   3.434  13.303   7.926  0.3324  0.1683  1.0870
    6MOL0     C  708   3.411  13.417   8.008  0.8203  0.3110  0.4544
    6MOL0     C  709   3.485  13.432   8.120 -0.2106  0.5731 -0.3744
    6MOL0     O  710   3.465  13.533   8.198  0.1414 -0.3757  0.4355
    6MOL0     C  711   3.567  13.594   8.284 -0.7750 -0.0177 -0.4289
    6MOL0     C  712   3.520  13.732   8.324 -0.8740  0.0499 -0.9373
    6MOL0     C  713   3.501  13.729   8.477 -0.1352 -1.1684  0.6193
    6MOL0     C  714   3.408  13.613   8.522 -0.2748  0.3593 -0.1708
    6MOL0     C  715   3.257  13.610   8.482 -0.2385 -0.1568  0.1047
    6MOL0     C  716   3.157  13.714   8.540  0.6105  0.2110  0.4104
    6MOL0     C  717   3.009  13.690   8.487  0.1700  0.8676  0.3317
    6MOL0     C  718   2.911  13.793   8.549 -0.4376 -0.4036  0.2738
    6MOL0    Cl  719   2.753  13.755   8.491 -0.2039 -0.0485  0.1534
    6MOL0     C  720   3.586  13.343   8.154 -0.9875 -0.0805  0.0425
    6MOL0     C  721   3.611  13.231   8.077  0.2580 -0.3702  0.0066
    6MOL0     O  722   3.379  13.050   7.778 -0.7587  0.2839 -0.1322
    6MOL0     C  723   3.712  12.974   7.685  0.4561  0.3504 -0.1271
    6MOL0     C  724   3.778  12.904   7.592 -0.2469 -0.4144  0.3667
    6MOL0     N  725   3.754  12.400   7.003  0.8177 -0.1852  0.8507
    6MOL0     N  726   3.777  12.351   6.884 -0.2609 -0.0461 -0.2000
    6MOL0     C  727   4.059  11.389   7.377  0.1015 -0.0412  0.4786
    6MOL0     C  728   3.993  11.416   7.494  0.2624  0.4298  0.6306
    6MOL0     C  729   3.710  11.467   7.809 -0.9050  0.6220 -0.2712
    6MOL0     C  730   3.643  11.585   7.831 -0.2271 -0.5313 -0.7552
    6MOL0     C  731   3.580  11.600   7.954  0.8706 -0.9208  0.2447
    6MOL0     C  732   3.562  11.494   8.049 -0.6155 -1.2411  0.4693
    6MOL0     O  733   3.498  11.499   8.170  0.1549 -0.4572 -0.8429
    6MOL0     C  734   3.530  11.610   8.257  0.0697 -0.2289 -0.0464
    6MOL0     C  735   3.394  11.653   8.304 -0.1715  0.1152  0.8111
    6MOL0     C  736   3.316  11.731   8.192 -0.0741 -0.3531 -0.8821
    6MOL0     C  737   3.165  11.738   8.229 -0.1806  0.1732  0.8884
    6MOL0     C  738   3.081  11.633   8.161 -0.1713 -0.9102 -0.3231
    6MOL0     C  739   3.005  11.554   8.104  0.5404 -0.4379 -1.6574
    6MOL0     C  740   3.623  11.373   8.015  0.3726 -0.0652 -0.0855
    6MOL0     C  741   3.711  11.360   7.908  0.0923  0.0815  0.4930
    6MOL0     C  742   3.792  11.228   7.918  0.2639  0.0786  0.0505
    6MOL0     H  743   3.942  11.749   7.478 -3.4003 -1.6890  1.8588
    6MOL0     H  744   4.070  11.712   7.268 -3.0816  0.6748  0.6526
    6MOL0     H  745   4.179  11.492   6.980 -3.7268 -0.1940 -0.6479
    6MOL0     H  746   4.054  11.589   7.067 -0.7035 -0.6543 -1.0490
    6MOL0     H  747   4.369  11.605   7.081 -0.5092 -0.4638  0.6304
    6MOL0     H  748   4.257  11.705   7.180  0.2945 -2.2299  1.5201
    6MOL0     H  749   4.284  11.693   6.874  4.2736 -1.6553 -0.3140
    6MOL0     H  750   4.366  11.808   6.977  0.5872 -1.2306 -1.9006
    6MOL0     H  751   4.087  11.795   6.916  1.8119 -3.3162  1.6504
    6MOL0     H  752   4.122  11.849   7.074  1.6502 -1.0401 -0.6830
    6MOL0     H  753   4.265  12.040   6.978  0.3552 -4.5912  3.4275
    6MOL0     H  754   4.250  11.972   6.821  2.4210 -0.5252  0.7934
    6MOL0     H  755   3.992  12.024   6.837  0.0389 -0.3163 -0.1078
    6MOL0     H  756   4.042  12.104   6.985 -0.2636 -1.1335 -0.5757
    6MOL0     H  757   4.161  12.163   6.713  3.2322  0.3954  1.4897
    6MOL0     H  758   4.181  12.244   6.869 -1.6873  3.7791 -0.2577
    6MOL0     H  759   4.023  12.337   6.689  1.2988 -2.7850 -0.6504
    6MOL0     H  760   3.910  12.192   6.714 -0.5142  0.9463 -1.5133
    6MOL0     H  761   4.082  12.381   7.019  0.1889  3.5184 -0.5781
    6MOL0     H  762   3.788  12.474   7.243  0.6617  0.1766 -0.3530
    6MOL0     H  763   3.967  12.424   7.256  1.9531  2.3923  0.9833
    6MOL0     H  764   3.971  12.643   7.304 -0.4815  0.3957 -1.0730
    6MOL0     H  765   4.029  12.626   7.142 -0.6865 -3.3610 -1.3149
    6MOL0     H  766   3.781  12.718   7.072 -0.9629  0.3348 -0.6936
    6MOL0     H  767   3.895  12.816   7.137 -0.9939  0.2382 -3.5820
    6MOL0     H  768   3.680  12.668   7.273 -0.7288 -0.8026 -0.5651
    6MOL0     H  769   3.676  12.837   7.216  1.9195  0.5061 -0.4151
    6MOL0     H  770   3.530  12.728   7.446  0.6010 -0.6299  1.0369
    6MOL0     H  771   3.419  12.840   7.609  0.1680  1.4844 -0.1013
    6MOL0     H  772   3.378  13.288   7.834  3.7134  0.2047 -1.1405
    6MOL0     H  773   3.343  13.499   7.989 -1.9693 -1.8167  0.6822
    6MOL0     H  774   3.597  13.522   8.361 -1.0659  0.0811 -0.2240
    6MOL0     H  775   3.656  13.612   8.222  1.1768  1.9839  2.6967
    6MOL0     H  776   3.593  13.811   8.305 -0.5505  0.9022  2.9333
    6MOL0     H  777   3.434  13.767   8.267 -0.7676  1.9945  0.0345
    6MOL0     H  778   3.604  13.726   8.514  0.2773 -0.8865 -0.4635
    6MOL0     H  779   3.473  13.827   8.516 -0.1236 -1.4446  1.3467
    6MOL0     H  780   3.399  13.602   8.631 -4.1492 -3.6451 -0.6085
    6MOL0     H  781   3.432  13.511   8.491 -4.1233  0.0966 -3.0108
    6MOL0     H  782   3.215  13.512   8.511  0.4210  0.0022  1.7504
    6MOL0     H  783   3.245  13.617   8.374  0.5475 -2.0826 -0.1595
    6MOL0     H  784   3.159  13.696   8.648  0.1839  0.6569  0.4941
    6MOL0     H  785   3.201  13.812   8.520  3.6453 -0.8335  1.4208
    6MOL0     H  786   2.971  13.588   8.502  1.8575  0.4571  2.2886
    6MOL0     H  787   3.012  13.707   8.379 -2.3650  1.8506  0.3630
    6MOL0     H  788   2.906  13.776   8.657 -2.1571 -0.0219  0.2791
    6MOL0     H  789   2.941  13.891   8.510 -1.3539 -0.5500 -0.8731
    6MOL0     H  790   3.654  13.363   8.237 -1.0480  0.2625  0.0110
    6MOL0     H  791   3.692  13.171   8.118  0.6245  0.3963  0.4276
    6MOL0     H  792   3.769  13.040   7.749 -1.0306  0.9642  0.6293
    6MOL0     H  793   3.886  12.905   7.594 -0.1061  3.4541 -0.6395
    6MOL0     H  794   4.104  11.295   7.349 -0.1453  0.2122 -0.8536
    6MOL0     H  795   3.977  11.332   7.560 -1.1577 -1.3154 -1.7645
    6MOL0     H  796   3.639  11.670   7.764  0.5132  0.6455  0.6469
    6MOL0     H  797   3.531  11.695   7.973  1.6333 -0.1691 -1.3353
    6MOL0     H  798   3.572  11.697   8.205 -2.6651  0.4439 -1.3028
    6MOL0     H  799   3.607  11.591   8.333  1.2800  1.8975 -0.6546
    6MOL0     H  800   3.420  11.722   8.384 -0.2110  2.5564 -1.1597
    6MOL0     H  801   3.333  11.570   8.340  2.9072 -2.0303  1.4618
    6MOL0     H  802   3.338  11.695   8.091 -1.3479 -0.2224 -1.2333
    6MOL0     H  803   3.345  11.836   8.192 -0.5069 -0.2285 -0.9906
    6MOL0     H  804   3.157  11.735   8.338  3.0094  0.5018  1.2149
    6MOL0     H  805   3.138  11.841   8.200  1.4630  0.5635  0.6653
    6MOL0     H  806   2.939  11.495   8.044  1.0154 -4.1152  1.0979
    6MOL0     H  807   3.614  11.289   8.083  0.7100 -1.1035 -1.2814
    6MOL0     H  808   3.874  11.233   7.990  0.9590 -1.5046 -0.5982
    6MOL0     H  809   3.714  11.154   7.940 -0.6228 -0.0654 -3.0822
    6MOL0     H  810   3.817  11.200   7.816 -2.9402  1.2153 -1.2067
    7MOL0     O  811  11.468   6.421   6.713  0.8429 -0.2465  0.4667
    7MOL0     C  812  11.435   6.543   6.696  0.0678 -0.1622  0.5486
    7MOL0     O  813  11.434   6.636   6.805  0.0957  0.1563 -0.4089
    7MOL0     C  814  11.477   6.577   6.926 -0.6154 -0.0514  0.0370
    7MOL0     C  815  11.397   6.515   7.026  0.7120 -0.8946  0.3297
    7MOL0     C  816  11.459   6.463   7.140  0.9331  0.0937  0.2715
    7MOL0     C  817  11.600   6.469   7.158 -0.0586  0.0800  0.0902
    7MOL0     O  818  11.650   6.427   7.276 -0.0435 -0.2572  0.2411
    7MOL0     C  819  11.769   6.490   7.329  0.7031 -0.0486 -0.2611
    7MOL0     C  820  11.736   6.615   7.415 -0.0825 -0.0482 -0.2843
    7MOL0     C  821  11.847   6.660   7.509  0.1610  0.1250  0.6570
    7MOL0     C  822  11.808   6.782   7.586 -0.2787  0.5112  0.7389
    7MOL0     C  823  11.897   6.803   7.707  0.5172  0.3917 -0.3462
    7MOL0     C  824  11.896   6.678   7.802  0.2751 -0.0841  1.1920
    7MOL0     C  825  11.951   6.715   7.935 -0.3952 -0.4056 -0.6075
    7MOL0     C  826  11.909   6.632   8.054 -0.9424 -0.0570  0.0560
    7MOL0     N  827  11.955   6.690   8.183 -0.2351 -0.0424  0.4991
    7MOL0     C  828  12.088   6.732   8.218  0.3445  0.3828  0.1647
    7MOL0     C  829  12.071   6.808   8.333 -1.1001  0.0679  0.0847
    7MOL0     C  830  12.193   6.856   8.414 -0.1647  0.7241  0.0794
    7MOL0     C  831  12.326   6.904   8.338 -0.5232  0.6337  0.3907
    7MOL0     C  832  12.303   7.044   8.272 -0.3531  0.6058  1.2385
    7MOL0     C  833  12.403   7.076   8.156 -0.2847 -0.7453 -0.6936
    7MOL0     O  834  12.539   7.079   8.211 -0.4865  1.2023  0.7215
    7MOL0     C  835  12.581   7.187   8.271  0.0889 -0.6197 -0.1706
    7MOL0     C  836  12.643   7.294   8.196 -0.0089  0.1402  0.5558
    7MOL0     C  837  12.681   7.416   8.253 -0.0594 -1.0722 -0.2469
    7MOL0     C  838  12.655   7.424   8.389 -0.1285 -1.2511 -0.2376
    7MOL0     C  839  12.701   7.551   8.456  0.3831 -0.4903 -0.0874
    7MOL0     O  840  12.765   7.638   8.377  0.0126  0.6053 -0.1496
    7MOL0     C  841  12.821   7.760   8.414 -0.1648 -0.4109  0.3303
    7MOL0     C  842  12.909   7.823   8.326 -0.3915  0.8756 -0.3905
    7MOL0     C  843  12.970   7.934   8.361 -0.3613  0.3213  0.2340
    7MOL0     C  844  12.951   8.001   8.483 -0.6110  0.1803  0.3124
    7MOL0     O  845  13.019   8.114   8.519  0.8721 -0.1252  0.1374
    7MOL0     C  846  13.116   8.170   8.431  0.0860  0.2447  0.4316
    7MOL0     C  847  13.156   8.308   8.488 -0.3135 -0.0232  0.8292
    7MOL0     C  848  13.210   8.298   8.634 -0.1991  0.1279 -0.3367
    7MOL0     C  849  13.336   8.214   8.637 -0.8487  0.0373  0.7105
    7MOL0     C  850  13.403   8.224   8.770 -0.8047 -0.7813  0.3853
    7MOL0     C  851  13.526   8.131   8.771 -0.4386  0.1256 -0.2289
    7MOL0     C  852  13.491   7.983   8.758  0.1202  0.2770 -0.1322
    7MOL0     C  853  13.595   7.892   8.827 -0.5739 -0.5333 -0.5675
    7MOL0    Cl  854  13.543   7.721   8.837  0.4670  0.2075 -0.2282
    7MOL0     C  855  12.879   7.931   8.574 -0.3937  0.4845 -0.4542
    7MOL0     C  856  12.808   7.814   8.546  0.6180  0.0089  0.2881
    7MOL0     O  857  12.656   7.570   8.570  0.0657 -0.1664 -0.1849
    7MOL0     C  858  12.605   7.320   8.466 -0.1655  0.8334 -0.0817
    7MOL0     C  859  12.564   7.199   8.409 -0.0662  0.3360 -0.7458
    7MOL0     N  860  11.942   6.817   8.362  0.3431 -0.4916 -0.4345
    7MOL0     N  861  11.868   6.752   8.272  1.1393 -0.3901 -0.2212
    7MOL0     C  862  11.679   6.512   7.055  0.0220  0.2689 -0.8243
    7MOL0     C  863  11.616   6.567   6.945 -0.2555  0.3807  0.1146
    7MOL0     C  864  11.377   6.587   6.572  0.4925  0.4856  0.5304
    7MOL0     C  865  11.403   6.722   6.544 -0.1856  0.6712 -0.2716
    7MOL0     C  866  11.354   6.773   6.431 -0.8019 -0.9456  0.0249
    7MOL0     C  867  11.276   6.710   6.335 -0.2718  0.2203 -0.3317
    7MOL0     O  868  11.213   6.790   6.247 -0.5190 -0.2941  0.1695
    7MOL0     C  869  11.143   6.734   6.137  0.8458  0.0613 -1.4156
    7MOL0     C  870  11.068   6.841   6.057 -0.0388 -0.6549  0.0941
    7MOL0     C  871  10.979   6.934   6.138 -0.4947  0.7371 -0.2587
    7MOL0     C  872  10.838   6.961   6.077 -0.0962 -0.4099  0.0215
    7MOL0     C  873  10.751   6.841   6.106 -0.0800 -0.3345  1.0057
    7MOL0     C  874  10.663   6.754   6.127 -0.2519 -0.4416 -0.3053
    7MOL0     C  875  11.247   6.576   6.368 -0.7730  0.9780  0.4988
    7MOL0     C  876  11.292   6.510   6.489 -1.2403 -0.1754  0.8532
    7MOL0     C  877  11.241   6.374   6.522 -0.1110 -0.3812  0.2745
    7MOL0     H  878  11.290   6.520   7.014  0.9214  1.0615 -1.2317
    7MOL0     H  879  11.397   6.410   7.211 -0.3592 -1.6837 -2.0361
    7MOL0     H  880  11.818   6.424   7.401 -2.2201 -1.7024  0.3817
    7MOL0     H  881  11.844   6.506   7.251 -1.3826  1.2091 -2.1413
    7MOL0     H  882  11.638   6.613   7.463 -1.5519  0.8290 -2.9987
    7MOL0     H  883  11.723   6.685   7.332 -3.1188 -1.4583 -1.1647
    7MOL0     H  884  11.934   6.696   7.454 -0.8446 -1.8281 -2.4797
    7MOL0     H  885  11.870   6.573   7.571  0.9652 -0.7765 -0.8554
    7MOL0     H  886  11.808   6.871   7.522  0.8225 -1.5781 -2.4405
    7MOL0     H  887  11.707   6.792   7.627 -0.9976 -1.3390 -0.4298
    7MOL0     H  888  12.001   6.824   7.679  0.1145  1.7822 -0.9003
    7MOL0     H  889  11.860   6.891   7.762  1.0301 -0.5026  1.5046
    7MOL0     H  890  11.794   6.638   7.804  0.0284  0.4466  0.1585
    7MOL0     H  891  11.971   6.611   7.760  0.1966  1.1829 -1.1614
    7MOL0     H  892  11.909   6.815   7.952  2.2665  0.8559 -0.8499
    7MOL0     H  893  12.059   6.725   7.921 -0.3230 -0.8797 -0.3932
    7MOL0     H  894  11.801   6.616   8.045 -1.3465 -0.2838  3.9832
    7MOL0     H  895  11.957   6.534   8.058  1.1367  0.9388  2.9598
    7MOL0     H  896  12.180   6.712   8.164  1.0608 -2.9047  2.3754
    7MOL0     H  897  12.170   6.941   8.480 -0.8992  0.5532  0.0569
    7MOL0     H  898  12.215   6.779   8.488  3.5277 -0.7840 -2.3402
    7MOL0     H  899  12.410   6.895   8.407 -1.0301 -1.3288  0.8145
    7MOL0     H  900  12.356   6.834   8.260 -1.2897  2.5052 -1.7168
    7MOL0     H  901  12.321   7.106   8.361  0.7148  0.1066  1.3883
    7MOL0     H  902  12.199   7.062   8.246 -0.1525  1.8115  1.1936
    7MOL0     H  903  12.384   7.172   8.107  2.1285 -0.0769 -0.4321
    7MOL0     H  904  12.400   7.002   8.076  2.9380 -2.2099  0.3729
    7MOL0     H  905  12.656   7.298   8.088  3.6221 -2.0518  0.7517
    7MOL0     H  906  12.718   7.498   8.192 -2.2244 -0.5232 -0.9161
    7MOL0     H  907  12.931   7.804   8.222 -0.9732 -1.9816 -0.0637
    7MOL0     H  908  13.036   7.972   8.284 -1.2024  0.8928 -0.2331
    7MOL0     H  909  13.199   8.099   8.433 -1.8648 -2.1572  0.2812
    7MOL0     H  910  13.086   8.175   8.326  0.3769 -2.0510  0.1995
    7MOL0     H  911  13.220   8.363   8.419 -0.7553 -2.6074 -1.8673
    7MOL0     H  912  13.062   8.363   8.487  0.5738  1.6649 -2.8853
    7MOL0     H  913  13.235   8.395   8.678 -1.6645  0.6420 -0.5882
    7MOL0     H  914  13.125   8.254   8.687  0.8885 -0.2713  1.1640
    7MOL0     H  915  13.413   8.248   8.566  1.8918 -1.2515  2.8655
    7MOL0     H  916  13.311   8.110   8.612 -1.1799  0.0031  1.1608
    7MOL0     H  917  13.343   8.196   8.857  2.1752 -0.8842  2.5820
    7MOL0     H  918  13.442   8.325   8.786 -1.7569  0.2765 -3.1366
    7MOL0     H  919  13.597   8.163   8.694 -0.9184 -0.8913 -1.1304
    7MOL0     H  920  13.580   8.149   8.864  0.5601 -0.9898 -0.5709
    7MOL0     H  921  13.499   7.952   8.653  4.3139 -2.1941  0.6820
    7MOL0     H  922  13.398   7.961   8.810  0.4776 -1.5775 -0.2068
    7MOL0     H  923  13.684   7.896   8.763  1.4655 -0.2590  2.0978
    7MOL0     H  924  13.634   7.933   8.921  1.2377  0.4589 -1.6783
    7MOL0     H  925  12.859   7.973   8.672  2.3145  0.1384  0.3197
    7MOL0     H  926  12.754   7.768   8.628 -0.6031 -2.6948 -1.8861
    7MOL0     H  927  12.586   7.336   8.571 -0.9515  0.9101 -0.2311
    7MOL0     H  928  12.538   7.114   8.472  0.5386 -1.0757 -2.3124
    7MOL0     H  929  11.782   6.478   7.050  0.2466  0.9713 -1.0479
    7MOL0     H  930  11.680   6.595   6.862 -0.3999 -2.5162 -1.0793
    7MOL0     H  931  11.469   6.785   6.604 -2.0944  1.9455  0.5828
    7MOL0     H  932  11.384   6.877   6.419  0.7930 -1.2175  1.2513
    7MOL0     H  933  11.064   6.663   6.162 -0.7907  2.3113  0.1945
    7MOL0     H  934  11.220   6.693   6.071  2.3530 -0.4701  0.5630
    7MOL0     H  935  11.011   6.781   5.986 -0.9730  0.1049  0.1891
    7MOL0     H  936  11.137   6.910   6.008 -1.2364  0.8234  0.4558
    7MOL0     H  937  11.028   7.027   6.168  1.5111  0.5239 -2.5861
    7MOL0     H  938  10.958   6.881   6.231 -2.6280 -0.1535 -1.1570
    7MOL0     H  939  10.789   7.052   6.113 -1.4325  0.1796 -3.0055
    7MOL0     H  940  10.833   6.981   5.970 -3.0170  2.4141  0.5152
    7MOL0     H  941  10.598   6.670   6.139 -0.8946 -0.5666 -3.8052
    7MOL0     H  942  11.199   6.502   6.306  0.1680  1.6487 -1.0843
    7MOL0     H  943  11.217   6.360   6.627 -1.8389  2.7051  0.4128
    7MOL0     H  944  11.149   6.347   6.468  0.1062  0.6923 -0.6785
    7MOL0     H  945  11.315   6.296   6.500 -2.2443 -3.0529  1.8654
    8MOL0     O  946   1.029   3.322   2.233  0.5506  0.2499 -0.3471
    8MOL0     C  947   1.014   3.431   2.181 -0.0156 -0.1477  0.3058
    8MOL0     O  948   1.054   3.467   2.057 -0.2874  0.3874 -0.0001
    8MOL0     C  949   1.146   3.394   1.986 -0.1459  0.0113  0.4438
    8MOL0     C  950   1.109   3.263   1.946 -0.3959 -0.2362 -0.4580
    8MOL0     C  951   1.193   3.190   1.865 -0.8832  0.4297 -0.4686
    8MOL0     C  952   1.316   3.241   1.811 -0.1470  0.6105 -0.0364
    8MOL0     O  953   1.375   3.167   1.717 -0.2289 -0.3601  0.4034
    8MOL0     C  954   1.462   3.068   1.774  0.0770  0.3540 -0.4640
    8MOL0     C  955   1.565   3.034   1.669 -0.4004  0.4206 -0.7114
    8MOL0     C  956   1.699   2.976   1.728  0.6241 -0.4746 -0.4189
    8MOL0     C  957   1.793   3.090   1.752 -0.7262 -0.7133 -0.1400
    8MOL0     C  958   1.895   3.070   1.866  0.2868 -0.3009  0.9953
    8MOL0     C  959   1.816   3.082   1.992  0.4703  0.7736 -0.4352
    8MOL0     C  960   1.913   3.078   2.112  0.3758  0.2628  0.4150
    8MOL0     C  961   1.966   3.224   2.137 -0.3134 -0.1626 -0.5960
    8MOL0     N  962   2.073   3.208   2.241  0.8965 -0.4697  0.1432
    8MOL0     C  963   2.069   3.115   2.340 -0.6702 -0.4294 -0.1603
    8MOL0     C  964   2.185   3.130   2.411  0.0843 -0.4558  0.1061
    8MOL0     C  965   2.219   3.048   2.529 -0.5968  0.2313  0.2097
    8MOL0     C  966   2.364   2.995   2.515  0.3197  0.7414  0.3990
    8MOL0     C  967   2.428   2.995   2.653  0.1277  0.6293  0.9613
    8MOL0     C  968   2.561   2.930   2.647  1.0289  0.6301  0.6630
    8MOL0     O  969   2.636   2.957   2.761  0.7904 -0.2067 -0.3787
    8MOL0     C  970   2.735   3.045   2.763  0.6404  0.4923  0.6833
    8MOL0     C  971   2.724   3.173   2.702  0.6324  0.1049 -0.4102
    8MOL0     C  972   2.837   3.266   2.693  1.2503 -0.2509 -1.1757
    8MOL0     C  973   2.950   3.232   2.776  0.1393  0.5666 -1.0157
    8MOL0     C  974   3.068   3.325   2.793 -0.4383  0.5309  0.5640
    8MOL0     O  975   3.163   3.277   2.876  0.0724  0.3071 -0.3797
    8MOL0     C  976   3.288   3.334   2.895  0.9998 -0.3021 -0.3588
    8MOL0     C  977   3.352   3.314   3.020  0.4967 -0.9485  0.4498
    8MOL0     C  978   3.474   3.376   3.048 -0.3414 -0.6615  0.5659
    8MOL0     C  979   3.539   3.432   2.939 -0.0030 -0.4105 -0.0891
    8MOL0     O  980   3.663   3.486   2.958 -0.3143  0.6356  0.1264
    8MOL0     C  981   3.696   3.556   3.079 -0.4263 -0.2609  1.9752
    8MOL0     C  982   3.770   3.686   3.041 -0.6150  0.4609 -0.1699
    8MOL0     C  983   3.682   3.811   3.049 -0.4015  0.3033 -0.2664
    8MOL0     C  984   3.783   3.939   3.059 -0.8986  0.1747 -0.4351
    8MOL0     C  985   3.695   4.065   3.030  1.6243 -0.5781  0.5339
    8MOL0     C  986   3.749   4.210   3.027  0.7188 -0.2323 -0.7175
    8MOL0     C  987   3.883   4.219   2.947  0.3265 -0.4913 -0.1261
    8MOL0     C  988   3.949   4.346   2.967  0.3322 -0.2507  0.1742
    8MOL0    Cl  989   3.990   4.379   3.138  0.2458 -0.0294 -0.1042
    8MOL0     C  990   3.481   3.444   2.812 -0.6760  0.7380 -0.4769
    8MOL0     C  991   3.350   3.399   2.790 -0.2470  0.1764  0.9779
    8MOL0     O  992   3.085   3.426   2.719  0.3118 -1.2336 -0.3639
    8MOL0     C  993   2.959   3.101   2.842  0.8031  0.2673 -0.1581
    8MOL0     C  994   2.851   3.006   2.822 -0.4416  0.2246 -0.1582
    8MOL0     N  995   2.246   3.246   2.358 -0.1405 -0.1080 -0.3489
    8MOL0     N  996   2.174   3.286   2.254 -0.1809  0.2099 -0.9789
    8MOL0     C  997   1.351   3.369   1.856  0.6110  0.5819 -1.3048
    8MOL0     C  998   1.264   3.437   1.942 -0.0460 -2.2649  0.4893
    8MOL0     C  999   0.944   3.541   2.257  1.4950  0.2985 -0.8504
    8MOL0     C 1000   0.859   3.500   2.372  0.1218 -0.6217 -1.0563
    8MOL0     C 1001   0.770   3.592   2.430  0.1721 -1.3554 -0.0057
    8MOL0     C 1002   0.744   3.725   2.383  0.2444 -0.3854 -0.2638
    8MOL0     O 1003   0.652   3.807   2.440  0.0300 -0.4920 -0.2871
    8MOL0     C 1004   0.647   3.947   2.406 -0.2687 -0.2409 -0.3615
    8MOL0     C 1005   0.594   3.985   2.269 -0.6904 -0.4001 -0.5742
    8MOL0     C 1006   0.597   4.140   2.269  0.4314 -0.3008  0.3747
    8MOL0     C 1007   0.503   4.187   2.154 -0.1580 -0.6588  0.3293
    8MOL0     C 1008   0.513   4.336   2.137 -0.7083  0.0109  0.1412
    8MOL0     C 1009   0.497   4.455   2.126 -0.6559 -1.2760 -0.6633
    8MOL0     C 1010   0.843   3.766   2.287  1.3019 -0.5715  0.0760
    8MOL0     C 1011   0.928   3.683   2.224  1.3170 -0.1516 -0.2243
    8MOL0     C 1012   1.024   3.738   2.118 -0.3336 -0.0897  0.2571
    8MOL0     H 1013   1.013   3.224   1.978  0.1493 -2.2203 -1.1068
    8MOL0     H 1014   1.151   3.095   1.833 -0.4983  0.0727  0.0634
    8MOL0     H 1015   1.517   3.093   1.865  3.4830 -1.9101 -1.7139
    8MOL0     H 1016   1.413   2.977   1.810  0.1523  2.0255  4.7139
    8MOL0     H 1017   1.596   3.123   1.614  1.9220  0.6663  0.8145
    8MOL0     H 1018   1.514   2.957   1.612 -0.6813 -3.6962  4.3301
    8MOL0     H 1019   1.742   2.903   1.659 -0.9435 -1.2892 -0.5684
    8MOL0     H 1020   1.687   2.922   1.822  0.2995  0.6007  0.1825
    8MOL0     H 1021   1.844   3.100   1.656 -1.2479  1.4322 -0.2438
    8MOL0     H 1022   1.741   3.183   1.774 -0.7515 -0.5384 -0.9147
    8MOL0     H 1023   1.953   2.977   1.857 -2.8067 -2.2295 -1.8436
    8MOL0     H 1024   1.965   3.152   1.853  1.2956 -1.3277 -0.4419
    8MOL0     H 1025   1.764   3.178   1.984 -0.5837  0.2917  0.4794
    8MOL0     H 1026   1.744   3.000   1.997  2.5648 -1.2487 -1.4043
    8MOL0     H 1027   1.986   2.999   2.093 -1.3883 -1.0732 -1.1663
    8MOL0     H 1028   1.859   3.041   2.199  1.7613  0.2072  1.2839
    8MOL0     H 1029   1.996   3.269   2.042  0.5084 -1.1436 -0.8270
    8MOL0     H 1030   1.880   3.283   2.168 -0.9433 -1.5918  0.5277
    8MOL0     H 1031   1.999   3.033   2.341  1.3499 -2.2579 -0.8317
    8MOL0     H 1032   2.211   3.112   2.618  3.6385 -2.5883  3.0088
    8MOL0     H 1033   2.147   2.967   2.543 -2.0859  1.6498  1.1506
    8MOL0     H 1034   2.351   2.897   2.468  0.5173  1.8038 -2.0013
    8MOL0     H 1035   2.432   3.049   2.448 -0.6881 -0.2239 -1.4606
    8MOL0     H 1036   2.361   2.946   2.725 -2.8657 -1.0648 -2.6188
    8MOL0     H 1037   2.440   3.093   2.700  1.6259  0.1248  1.6838
    8MOL0     H 1038   2.616   2.971   2.562 -0.2106  1.7066  0.3450
    8MOL0     H 1039   2.540   2.824   2.637  0.7920  0.7947 -0.8002
    8MOL0     H 1040   2.630   3.199   2.654 -0.9079 -1.7459  1.4408
    8MOL0     H 1041   2.831   3.364   2.647 -2.7885  1.9946  3.2759
    8MOL0     H 1042   3.293   3.268   3.098 -3.2821 -0.5284 -1.8767
    8MOL0     H 1043   3.523   3.370   3.145  0.3281  2.1380  0.4959
    8MOL0     H 1044   3.609   3.580   3.141 -0.8497 -4.1335  3.1112
    8MOL0     H 1045   3.769   3.496   3.133  2.0213  1.3395  0.6768
    8MOL0     H 1046   3.864   3.697   3.097  0.4139 -0.6110 -1.6102
    8MOL0     H 1047   3.812   3.674   2.941  2.8547  0.1001  1.1685
    8MOL0     H 1048   3.621   3.813   2.958  0.3900  1.8610 -0.8065
    8MOL0     H 1049   3.614   3.820   3.134 -1.3800 -3.4515 -0.4860
    8MOL0     H 1050   3.871   3.930   2.995 -0.2095 -1.7051  0.7121
    8MOL0     H 1051   3.823   3.956   3.159  0.1532  0.3823 -0.8815
    8MOL0     H 1052   3.612   4.065   3.103  1.4441  0.4311  0.3442
    8MOL0     H 1053   3.641   4.039   2.938 -1.5432 -1.0663  2.3550
    8MOL0     H 1054   3.683   4.283   2.979  1.3121  0.3815 -0.6034
    8MOL0     H 1055   3.767   4.240   3.130  1.6871 -0.3218 -0.8575
    8MOL0     H 1056   3.863   4.211   2.840  0.2512 -0.9763 -0.0801
    8MOL0     H 1057   3.963   4.151   2.976 -0.0364 -0.4170  1.1281
    8MOL0     H 1058   4.039   4.354   2.904  1.0130  1.1877  1.2567
    8MOL0     H 1059   3.879   4.422   2.932  0.4970 -0.2278 -0.1129
    8MOL0     H 1060   3.523   3.503   2.731  0.2223  1.5912  0.5740
    8MOL0     H 1061   3.313   3.421   2.690  0.5668 -0.5203  0.5167
    8MOL0     H 1062   3.050   3.084   2.898  1.8160  2.8565 -0.9062
    8MOL0     H 1063   2.854   2.906   2.863 -1.1813  0.0670 -0.4624
    8MOL0     H 1064   1.436   3.420   1.813  3.8912 -2.7856  0.5925
    8MOL0     H 1065   1.296   3.537   1.967  0.3381 -2.4553  0.7736
    8MOL0     H 1066   0.857   3.394   2.394  0.9284 -0.8798 -2.1874
    8MOL0     H 1067   0.703   3.555   2.506 -0.9966  0.4448 -0.0907
    8MOL0     H 1068   0.749   3.985   2.418 -0.7626  1.7306 -1.9346
    8MOL0     H 1069   0.584   4.000   2.478 -0.3822 -1.1354  0.2303
    8MOL0     H 1070   0.492   3.947   2.261 -1.2883  0.0933  3.0223
    8MOL0     H 1071   0.653   3.946   2.186 -1.7035 -0.6420 -1.1944
    8MOL0     H 1072   0.699   4.170   2.242 -0.0176  3.5267  2.2726
    8MOL0     H 1073   0.566   4.183   2.365 -2.0921  1.6832 -1.2106
    8MOL0     H 1074   0.551   4.146   2.065  0.6655 -0.9272  0.8864
    8MOL0     H 1075   0.399   4.160   2.176 -1.2766  2.8424  0.0266
    8MOL0     H 1076   0.481   4.558   2.099  2.4209 -0.0016  1.7296
    8MOL0     H 1077   0.848   3.868   2.252 -0.5201 -0.6777 -0.6388
    8MOL0     H 1078   1.009   3.711   2.013 -1.5069  1.0129  0.1127
    8MOL0     H 1079   1.024   3.846   2.138 -1.3717 -0.7045  4.7540
    8MOL0     H 1080   1.117   3.687   2.145  0.4463  1.2565  0.2593
    9MOL0     O 1081   8.187   9.060   9.249 -0.1523  0.2044  0.4158
    9MOL0     C 1082   8.223   9.166   9.305  0.2970 -0.1935 -1.0467
    9MOL0     O 1083   8.141   9.262   9.356  0.6557 -1.1535  0.2311
    9MOL0     C 1084   8.010   9.243   9.326  0.6234 -0.6862  0.2646
    9MOL0     C 1085   7.947   9.334   9.242  0.5423 -0.6623  0.2855
    9MOL0     C 1086   7.807   9.354   9.225 -0.0928  0.0865  0.3356
    9MOL0     C 1087   7.731   9.241   9.266 -0.4681  0.1630  0.4587
    9MOL0     O 1088   7.596   9.234   9.244 -0.2036 -0.1504  0.2076
    9MOL0     C 1089   7.522   9.346   9.196  0.1613  0.4158  0.5367
    9MOL0     C 1090   7.492   9.442   9.313 -0.1224  0.6421  0.0650
    9MOL0     C 1091   7.393   9.372   9.404  0.0649 -0.9518 -0.0062
    9MOL0     C 1092   7.254   9.444   9.414  0.2355 -0.0570 -0.6529
    9MOL0     C 1093   7.174   9.451   9.284  0.4317  0.1347 -0.6287
    9MOL0     C 1094   7.092   9.327   9.254 -0.7295  0.2813 -0.6801
    9MOL0     C 1095   6.967   9.356   9.165  0.4695  0.2976 -1.2023
    9MOL0     C 1096   6.861   9.450   9.233  0.0857  0.3869  0.4236
    9MOL0     N 1097   6.731   9.449   9.168 -0.8275  1.2839  0.1297
    9MOL0     C 1098   6.656   9.560   9.158 -1.0450  0.5052  0.1464
    9MOL0     C 1099   6.553   9.518   9.087  0.7662 -0.2744 -0.2213
    9MOL0     C 1100   6.445   9.607   9.044  1.1927 -1.0518 -0.1874
    9MOL0     C 1101   6.472   9.665   8.907 -1.0343  0.3125 -0.1862
    9MOL0     C 1102   6.347   9.714   8.843  0.7002 -0.2032  0.3703
    9MOL0     C 1103   6.363   9.796   8.705 -0.8071 -0.4493  0.5745
    9MOL0     O 1104   6.236   9.832   8.659 -0.1713  0.9584 -0.5323
    9MOL0     C 1105   6.201   9.847   8.526  0.0162  1.0307  1.4549
    9MOL0     C 1106   6.084   9.919   8.511  0.3160 -0.5829  1.3518
    9MOL0     C 1107   6.019   9.940   8.385  0.5538  0.7876  0.2119
    9MOL0     C 1108   6.086   9.896   8.270  0.2544  0.7369  0.0184
    9MOL0     C 1109   6.008   9.905   8.133  0.5264 -0.3513  0.2647
    9MOL0     O 1110   5.884   9.955   8.137  0.3272  0.4405  0.3603
    9MOL0     C 1111   5.806   9.966   8.028  0.2623 -1.1446  0.6044
    9MOL0     C 1112   5.776  10.100   7.991 -0.4076  0.5426 -1.2507
    9MOL0     C 1113   5.698  10.123   7.877  0.1765  0.4739  0.4438
    9MOL0     C 1114   5.657  10.021   7.791 -0.2356  0.1194  0.1141
    9MOL0     O 1115   5.589  10.062   7.679  0.1126  0.0065  0.0414
    9MOL0     C 1116   5.520   9.973   7.594 -0.2678 -0.3237 -0.4101
    9MOL0     C 1117   5.388   9.930   7.665  0.1343 -0.7149  0.1576
    9MOL0     C 1118   5.272  10.012   7.606 -0.2545  0.3393  0.2635
    9MOL0     C 1119   5.139   9.955   7.669 -1.2452  0.3438  1.4939
    9MOL0     C 1120   5.026  10.054   7.660  0.8450 -0.1875 -0.0544
    9MOL0     C 1121   5.049  10.183   7.757 -0.5334  0.3534  0.5739
    9MOL0     C 1122   4.927  10.260   7.801  0.5611  0.5500  1.0160
    9MOL0     C 1123   4.872  10.344   7.687 -0.2544  0.5728  0.1034
    9MOL0    Cl 1124   4.974  10.490   7.644  0.1044  0.0734  0.0855
    9MOL0     C 1125   5.688   9.889   7.824 -0.7150  0.4087  0.6504
    9MOL0     C 1126   5.769   9.859   7.938 -0.2607 -0.2346 -0.3766
    9MOL0     O 1127   6.056   9.863   8.029  0.2738 -0.1422  0.1684
    9MOL0     C 1128   6.213   9.828   8.285  0.6306 -0.5540  0.7274
    9MOL0     C 1129   6.274   9.814   8.410  0.1481 -0.8721  0.3939
    9MOL0     N 1130   6.571   9.397   9.044  0.0503  0.8544  0.0763
    9MOL0     N 1131   6.678   9.345   9.100  0.1724 -0.3275 -0.6338
    9MOL0     C 1132   7.785   9.140   9.345  0.6014  0.4324  0.1916
    9MOL0     C 1133   7.924   9.146   9.386  0.6482 -0.4831 -0.0750
    9MOL0     C 1134   8.366   9.202   9.300  0.1423 -0.2258  0.5501
    9MOL0     C 1135   8.446   9.169   9.186 -0.2736 -0.2135 -0.0467
    9MOL0     C 1136   8.579   9.209   9.177 -0.0272 -0.1051 -0.7353
    9MOL0     C 1137   8.637   9.278   9.287  0.2793 -0.5390 -0.2784
    9MOL0     O 1138   8.772   9.320   9.290  0.4468 -0.9136 -0.0381
    9MOL0     C 1139   8.865   9.278   9.190  0.5779  1.1037  0.2847
    9MOL0     C 1140   8.999   9.328   9.240 -0.2231 -0.7857 -0.3563
    9MOL0     C 1141   9.120   9.247   9.192  0.2081  0.1194 -0.0933
    9MOL0     C 1142   9.252   9.319   9.236 -0.0896 -0.1265 -0.6797
    9MOL0     C 1143   9.372   9.244   9.191  0.1615 -0.5392  0.2820
    9MOL0     C 1144   9.477   9.199   9.160 -0.2259  0.9197 -0.2607
    9MOL0     C 1145   8.565   9.307   9.393  0.2883  1.6074  0.2063
    9MOL0     C 1146   8.427   9.267   9.407  0.9693 -0.6176  0.2281
    9MOL0     C 1147   8.364   9.291   9.546  0.5887 -0.0611  0.2220
    9MOL0     H 1148   8.000   9.421   9.203 -3.2617  0.4539 -3.0065
    9MOL0     H 1149   7.776   9.439   9.165 -0.6544 -0.3970 -0.0751
    9MOL0     H 1150   7.570   9.393   9.110  1.2698 -2.0671 -0.2845
    9MOL0     H 1151   7.430   9.300   9.159  1.6903 -5.2829  2.7441
    9MOL0     H 1152   7.450   9.537   9.278 -0.2932  1.2546  1.8121
    9MOL0     H 1153   7.581   9.462   9.375  0.6783 -1.5049 -0.3339
    9MOL0     H 1154   7.435   9.375   9.505  2.3702  0.4036 -0.9157
    9MOL0     H 1155   7.369   9.268   9.380 -1.7196 -0.5081 -0.2376
    9MOL0     H 1156   7.206   9.391   9.497  0.8080  0.6865  0.1888
    9MOL0     H 1157   7.264   9.545   9.457  1.6694 -0.2978 -0.3675
    9MOL0     H 1158   7.116   9.544   9.291  0.0874 -0.1644  1.1747
    9MOL0     H 1159   7.244   9.463   9.202  1.4149 -0.8603  0.0389
    9MOL0     H 1160   7.161   9.256   9.208  0.4253  0.7916  0.2084
    9MOL0     H 1161   7.056   9.288   9.350  2.5182 -0.1223  0.5080
    9MOL0     H 1162   6.921   9.258   9.149 -0.6897  1.0123 -2.3856
    9MOL0     H 1163   7.001   9.391   9.068  0.5994  0.3660 -1.1320
    9MOL0     H 1164   6.847   9.417   9.336 -3.7000 -1.7451 -0.5928
    9MOL0     H 1165   6.893   9.554   9.242 -1.0486  0.7775  0.1565
    9MOL0     H 1166   6.670   9.644   9.226 -0.3977 -0.2819  1.0116
    9MOL0     H 1167   6.343   9.568   9.036 -0.4836  3.2410 -2.9570
    9MOL0     H 1168   6.445   9.694   9.110  0.3235 -1.7357  0.7507
    9MOL0     H 1169   6.534   9.752   8.930 -2.6173  1.4795 -0.1328
    9MOL0     H 1170   6.525   9.593   8.844 -0.6062 -1.2957  1.8973
    9MOL0     H 1171   6.295   9.773   8.918 -0.7980 -1.3194  0.2723
    9MOL0     H 1172   6.295   9.620   8.821 -0.4879  0.1716  1.4708
    9MOL0     H 1173   6.414   9.730   8.634 -3.4607  0.7081 -2.6835
    9MOL0     H 1174   6.427   9.882   8.728 -3.0876  1.0765  1.5836
    9MOL0     H 1175   6.023   9.953   8.593  2.0820  1.2346  1.9702
    9MOL0     H 1176   5.928   9.999   8.385  1.3720  2.1163  0.9875
    9MOL0     H 1177   5.797  10.189   8.049 -2.2574 -0.2378  0.7684
    9MOL0     H 1178   5.678  10.225   7.847 -0.5061  0.4955  0.9460
    9MOL0     H 1179   5.490  10.032   7.507 -4.7522  2.1118  2.3731
    9MOL0     H 1180   5.589   9.891   7.572  2.3028  1.6709 -0.2188
    9MOL0     H 1181   5.358   9.829   7.637 -1.1031  0.1545 -1.8984
    9MOL0     H 1182   5.399   9.930   7.774 -2.2807 -1.2024  0.4615
    9MOL0     H 1183   5.283  10.115   7.639  1.4258  1.8078 -4.1220
    9MOL0     H 1184   5.257   9.999   7.498 -0.7682 -0.0993  0.3850
    9MOL0     H 1185   5.148   9.939   7.777  0.8187 -2.0342  1.0509
    9MOL0     H 1186   5.119   9.859   7.620  1.2430 -0.8195  2.6012
    9MOL0     H 1187   4.932  10.011   7.697  0.3287  0.1233 -0.9828
    9MOL0     H 1188   5.008  10.093   7.560 -1.3022  1.0606  0.7489
    9MOL0     H 1189   5.101  10.163   7.851 -1.6735 -0.1746  1.1115
    9MOL0     H 1190   5.115  10.245   7.696 -1.0359  2.4858  2.0903
    9MOL0     H 1191   4.943  10.317   7.893  3.0932 -2.3965  2.6221
    9MOL0     H 1192   4.852  10.184   7.825  0.7872 -0.4592 -1.2582
    9MOL0     H 1193   4.875  10.294   7.589  2.9819 -2.6685  1.5949
    9MOL0     H 1194   4.773  10.379   7.715 -0.3758 -1.7989  3.2131
    9MOL0     H 1195   5.648   9.821   7.750 -1.1197  1.2190  0.1145
    9MOL0     H 1196   5.808   9.763   7.970  3.0272  1.5041  1.2793
    9MOL0     H 1197   6.259   9.807   8.189 -0.9167 -0.6121 -0.0241
    9MOL0     H 1198   6.360   9.749   8.418 -0.5084 -1.7436  0.4796
    9MOL0     H 1199   7.727   9.061   9.392  1.9381  0.2570  1.6078
    9MOL0     H 1200   7.971   9.070   9.447  0.9635  0.9163  1.5008
    9MOL0     H 1201   8.410   9.125   9.093 -0.8473 -0.8396  0.4697
    9MOL0     H 1202   8.637   9.193   9.087  2.5567  0.2587  0.7695
    9MOL0     H 1203   8.832   9.317   9.093 -1.8435 -1.3491 -0.0184
    9MOL0     H 1204   8.883   9.170   9.180  5.6689  1.6970  0.5874
    9MOL0     H 1205   8.991   9.324   9.349 -0.0848 -0.7618 -0.3447
    9MOL0     H 1206   8.994   9.436   9.222 -1.1926 -0.7515  0.0463
    9MOL0     H 1207   9.105   9.244   9.084  2.8517 -0.2648 -0.4983
    9MOL0     H 1208   9.110   9.145   9.230  1.7119  0.1845  0.5562
    9MOL0     H 1209   9.267   9.420   9.196  4.4730 -0.3214 -0.0358
    9MOL0     H 1210   9.250   9.333   9.345 -0.0626 -4.5204  0.0483
    9MOL0     H 1211   9.557   9.138   9.121  1.5415  0.7481  3.2105
    9MOL0     H 1212   8.596   9.356   9.485  2.0576 -2.7332  2.1850
    9MOL0     H 1213   8.423   9.257   9.631 -2.3015 -3.7010  1.0584
    9MOL0     H 1214   8.339   9.396   9.561  2.7508  0.6042 -0.4497
    9MOL0     H 1215   8.280   9.221   9.561 -1.4475  1.9453 -1.1990
   10MOL0     O 1216   9.007   8.766   5.317 -0.6120  0.1004  0.2624
   10MOL0     C 1217   9.049   8.784   5.202  0.9118  0.5890 -0.1764
   10MOL0     O 1218   9.133   8.704   5.138  0.3057 -0.6473  0.4580
   10MOL0     C 1219   9.156   8.575   5.189 -0.6954  0.3351  0.3745
   10MOL0     C 1220   9.090   8.476   5.117 -0.1798 -0.1571  0.5737
   10MOL0     C 1221   9.127   8.340   5.148 -0.2436  0.2036 -0.1470
   10MOL0     C 1222   9.211   8.306   5.258 -0.6920 -0.3278  0.8616
   10MOL0     O 1223   9.276   8.191   5.282  0.0533 -0.1356 -0.1703
   10MOL0     C 1224   9.270   8.079   5.178 -0.7469 -0.8378 -0.3272
   10MOL0     C 1225   9.403   8.000   5.177 -0.6612 -0.6149 -0.2386
   10MOL0     C 1226   9.509   8.097   5.112  0.4687  0.2748 -0.0361
   10MOL0     C 1227   9.638   8.026   5.150  0.2505 -0.3467 -0.4843
   10MOL0     C 1228   9.754   8.117   5.085 -0.5917  0.0047  0.0802
   10MOL0     C 1229   9.888   8.060   5.126  0.1025  0.3348  0.0729
   10MOL0     C 1230   9.914   8.086   5.282  1.0850  0.6904  0.5198
   10MOL0     C 1231  10.071   8.099   5.297  0.4749 -1.0905  0.1100
   10MOL0     N 1232  10.098   8.083   5.447  0.7104 -0.6430 -0.0936
   10MOL0     C 1233  10.085   8.193   5.540 -0.5668  0.2228 -0.3348
   10MOL0     C 1234  10.183   8.159   5.637  0.5261  0.1326 -0.4254
   10MOL0     C 1235  10.241   8.248   5.741  0.5658  0.1978  0.4022
   10MOL0     C 1236  10.267   8.188   5.881  0.4805  0.5981 -0.0878
   10MOL0     C 1237  10.136   8.165   5.954 -0.2970 -0.1046 -0.6386
   10MOL0     C 1238  10.129   8.040   6.045  0.4608 -0.6215 -0.6471
   10MOL0     O 1239  10.212   8.042   6.159 -0.2264  0.0696 -0.1582
   10MOL0     C 1240  10.182   8.132   6.263 -0.2667 -0.3730  0.1033
   10MOL0     C 1241  10.054   8.185   6.303 -0.2497  0.2413 -1.0723
   10MOL0     C 1242  10.033   8.246   6.427  0.4905 -0.7382  0.5998
   10MOL0     C 1243  10.140   8.278   6.507  0.2421 -1.1268 -0.1608
   10MOL0     C 1244  10.120   8.333   6.639  0.7243  0.4170  0.9677
   10MOL0     O 1245   9.986   8.336   6.687  0.6105  0.5621 -0.4601
   10MOL0     C 1246   9.965   8.409   6.808  0.3592  0.4367 -0.0431
   10MOL0     C 1247   9.898   8.344   6.915  0.0920 -0.3296 -0.3921
   10MOL0     C 1248   9.878   8.413   7.035  0.6454 -0.0353 -0.6879
   10MOL0     C 1249   9.919   8.546   7.051 -0.9465 -0.3615  1.0462
   10MOL0     O 1250   9.911   8.612   7.172  1.0680  0.4123 -0.0552
   10MOL0     C 1251   9.840   8.547   7.285 -0.5994  0.8344 -1.1724
   10MOL0     C 1252   9.833   8.631   7.409  0.0527 -0.3382 -0.5153
   10MOL0     C 1253   9.967   8.714   7.454  0.0896 -0.1775  0.5548
   10MOL0     C 1254   9.962   8.750   7.606  0.9446 -0.8859 -1.1982
   10MOL0     C 1255  10.098   8.736   7.668  0.5958  0.0627  0.1035
   10MOL0     C 1256  10.099   8.804   7.798  0.4323 -0.1410 -0.5571
   10MOL0     C 1257  10.118   8.964   7.782  0.7299  0.2880 -0.1747
   10MOL0     C 1258  10.065   9.037   7.904 -0.2227  0.4844 -0.0845
   10MOL0    Cl 1259  10.135   8.968   8.067  0.2021  0.0547  0.3843
   10MOL0     C 1260   9.990   8.612   6.956  0.0989 -0.1330  0.4912
   10MOL0     C 1261  10.013   8.539   6.832 -0.6771  0.0795  0.3210
   10MOL0     O 1262  10.220   8.370   6.695  0.3077 -0.0116  0.1875
   10MOL0     C 1263  10.271   8.227   6.467 -0.5790  0.2148  0.1248
   10MOL0     C 1264  10.286   8.163   6.347 -0.5021  0.2224  0.7752
   10MOL0     N 1265  10.247   8.041   5.609 -0.0197 -0.6834 -0.0426
   10MOL0     N 1266  10.196   7.996   5.501  0.6757 -0.1052  0.6704
   10MOL0     C 1267   9.254   8.411   5.340  0.7905 -0.3194  0.3366
   10MOL0     C 1268   9.233   8.542   5.300 -0.9532 -0.5016 -0.2911
   10MOL0     C 1269   9.020   8.922   5.132  0.1248  0.7755 -0.4132
   10MOL0     C 1270   9.118   9.000   5.073 -0.5263 -0.1813 -0.5624
   10MOL0     C 1271   9.095   9.130   5.030  0.1294 -0.1655 -0.3337
   10MOL0     C 1272   8.961   9.183   5.044  0.7488 -0.5795 -0.1687
   10MOL0     O 1273   8.942   9.314   5.006  0.0740 -0.8554  0.0246
   10MOL0     C 1274   8.948   9.410   5.110  0.0189  0.2947 -0.1342
   10MOL0     C 1275   9.022   9.532   5.070 -0.5121  1.0065 -0.2629
   10MOL0     C 1276   9.146   9.518   4.981 -0.1952 -0.2546  0.4394
   10MOL0     C 1277   9.227   9.647   4.965  0.4284 -0.0657 -0.1100
   10MOL0     C 1278   9.362   9.623   4.924 -0.6151  0.7758  0.1321
   10MOL0     C 1279   9.484   9.604   4.900  0.4323  0.8764  0.3076
   10MOL0     C 1280   8.856   9.103   5.069 -0.2901  0.3333 -0.3717
   10MOL0     C 1281   8.881   8.969   5.113 -0.8935  1.2096  0.5553
   10MOL0     C 1282   8.762   8.887   5.127 -0.1652  0.1114 -0.7211
   10MOL0     H 1283   9.029   8.504   5.032  0.2722  0.2477  0.3803
   10MOL0     H 1284   9.078   8.265   5.086  0.9734 -1.6069  0.9965
   10MOL0     H 1285   9.179   8.022   5.202 -4.7481  4.9224  0.3704
   10MOL0     H 1286   9.257   8.108   5.073  0.1786 -2.2072 -0.8466
   10MOL0     H 1287   9.405   7.917   5.106 -3.1117  1.3171 -2.7871
   10MOL0     H 1288   9.446   7.968   5.272 -0.1768 -0.6293 -0.4609
   10MOL0     H 1289   9.507   8.200   5.148  0.3554  0.1474  0.3144
   10MOL0     H 1290   9.498   8.111   5.004  0.4323  0.2386 -0.0370
   10MOL0     H 1291   9.648   8.021   5.259 -1.9913  0.5280 -0.1668
   10MOL0     H 1292   9.627   7.927   5.105  0.8715 -0.4970 -0.3112
   10MOL0     H 1293   9.750   8.112   4.976  3.9957  0.6477 -0.3097
   10MOL0     H 1294   9.758   8.222   5.114  0.1743 -0.6084  2.4490
   10MOL0     H 1295   9.896   7.952   5.109 -0.6362  0.1961  0.5404
   10MOL0     H 1296   9.960   8.104   5.057  1.0442 -3.5649 -1.7219
   10MOL0     H 1297   9.888   7.993   5.335  1.5208  1.9061  3.0049
   10MOL0     H 1298   9.857   8.174   5.312  0.9686  0.7643  0.0948
   10MOL0     H 1299  10.129   8.015   5.258  0.3280 -2.4993  2.7299
   10MOL0     H 1300  10.111   8.197   5.268 -0.4632 -0.1306  1.8941
   10MOL0     H 1301  10.053   8.295   5.525  1.1484  0.7524 -0.6149
   10MOL0     H 1302  10.337   8.291   5.712 -0.6974  3.2300  0.2336
   10MOL0     H 1303  10.174   8.335   5.746  1.8477  1.4087 -1.8379
   10MOL0     H 1304  10.334   8.101   5.871 -1.1021 -0.6527 -0.2790
   10MOL0     H 1305  10.319   8.263   5.941  0.4905  0.9958 -0.5854
   10MOL0     H 1306  10.053   8.151   5.884 -0.3941 -2.8981 -0.0752
   10MOL0     H 1307  10.134   8.259   6.011  0.9816  0.3095 -1.2329
   10MOL0     H 1308  10.142   7.946   5.991 -0.7063  0.4558 -2.9823
   10MOL0     H 1309  10.026   8.032   6.083  1.1453  0.9749  1.7351
   10MOL0     H 1310   9.969   8.143   6.250  0.5218 -2.5501 -0.3074
   10MOL0     H 1311   9.933   8.276   6.459 -0.5123 -1.4294 -1.6766
   10MOL0     H 1312   9.863   8.242   6.902  0.8237 -0.4874 -1.2444
   10MOL0     H 1313   9.833   8.349   7.109 -1.2402  0.9621 -0.8939
   10MOL0     H 1314   9.736   8.533   7.254 -1.1284  3.4635 -0.8112
   10MOL0     H 1315   9.876   8.445   7.302  0.1830  1.1907 -0.6102
   10MOL0     H 1316   9.749   8.696   7.380  0.0736  0.5985  1.3381
   10MOL0     H 1317   9.785   8.576   7.491  1.1838 -0.3410  0.1608
   10MOL0     H 1318  10.056   8.655   7.429 -0.3530  0.2652 -2.5053
   10MOL0     H 1319   9.975   8.806   7.396  0.1890 -0.0460  0.7747
   10MOL0     H 1320   9.892   8.690   7.664 -1.2924  2.1578 -0.5582
   10MOL0     H 1321   9.921   8.850   7.616 -1.9380 -2.0550 -0.2845
   10MOL0     H 1322  10.169   8.782   7.598 -2.5803  1.2894 -2.6011
   10MOL0     H 1323  10.109   8.630   7.692 -3.4855 -0.0766  2.3205
   10MOL0     H 1324  10.004   8.786   7.849  1.0482  1.7629  1.4249
   10MOL0     H 1325  10.168   8.766   7.874 -1.3458 -0.1804  1.1455
   10MOL0     H 1326  10.052   8.993   7.700 -0.8382  0.5454  1.1132
   10MOL0     H 1327  10.221   8.992   7.759  1.3667 -0.9386  1.0069
   10MOL0     H 1328  10.102   9.140   7.900  3.5764 -0.6040  1.5324
   10MOL0     H 1329   9.958   9.018   7.908 -0.0460 -0.5925 -0.1235
   10MOL0     H 1330  10.008   8.718   6.968  0.1852 -0.2975  2.0279
   10MOL0     H 1331  10.073   8.601   6.767  1.6170 -0.6501  1.6254
   10MOL0     H 1332  10.352   8.248   6.536 -1.7570 -0.9972  1.9531
   10MOL0     H 1333  10.389   8.135   6.329 -1.1550 -2.9186  1.3436
   10MOL0     H 1334   9.302   8.388   5.434  1.8008 -1.9437 -0.5184
   10MOL0     H 1335   9.268   8.628   5.356  2.4722 -1.5268 -0.6522
   10MOL0     H 1336   9.217   8.956   5.078  0.0996  1.2069 -0.1770
   10MOL0     H 1337   9.182   9.187   4.998 -1.0979  1.8731 -0.1935
   10MOL0     H 1338   9.002   9.371   5.197  1.2085  1.7548 -0.1823
   10MOL0     H 1339   8.845   9.440   5.132  0.1286  1.7650 -1.4584
   10MOL0     H 1340   9.046   9.588   5.160  0.4300  2.4326 -1.3529
   10MOL0     H 1341   8.952   9.591   5.010 -0.6291 -1.2058 -2.4905
   10MOL0     H 1342   9.126   9.474   4.883  3.1635 -1.4194  0.1284
   10MOL0     H 1343   9.204   9.435   5.022  0.1994 -0.4916 -0.5684
   10MOL0     H 1344   9.181   9.698   4.880  3.8912 -1.2933 -2.9837
   10MOL0     H 1345   9.232   9.712   5.053  2.9874  1.3757 -1.1851
   10MOL0     H 1346   9.589   9.607   4.883  0.7654 -2.4084  1.1531
   10MOL0     H 1347   8.757   9.140   5.046  0.9906  2.7025 -2.5068
   10MOL0     H 1348   8.677   8.955   5.141  2.1609  3.0861 -0.1477
   10MOL0     H 1349   8.763   8.821   5.039  0.4564 -0.3198 -0.3967
   10MOL0     H 1350   8.780   8.827   5.217 -3.0249  1.1585  0.6524
   11MOL0     O 1351  10.197   8.550  10.631 -0.1222  0.3274  0.5898
   11MOL0     C 1352  10.312   8.525  10.601  0.0859  0.6311 -0.2143
   11MOL0     O 1353  10.352   8.425  10.521  0.2196 -0.5225 -0.5241
   11MOL0     C 1354  10.268   8.353  10.447  0.1917 -0.2302  0.0996
   11MOL0     C 1355  10.270   8.210  10.449  0.0744 -0.2099  0.0363
   11MOL0     C 1356  10.184   8.140  10.362 -1.0759 -0.7791  0.2129
   11MOL0     C 1357  10.101   8.202  10.263 -0.6852  0.3149  0.2206
   11MOL0     O 1358  10.017   8.134  10.174 -0.6886  0.1515  1.0734
   11MOL0     C 1359  10.078   8.006  10.133  0.1915  0.0773 -0.6920
   11MOL0     C 1360  10.001   7.940  10.019 -0.5331 -0.8070 -1.0539
   11MOL0     C 1361  10.055   7.801   9.976 -0.6503 -0.7157 -0.5926
   11MOL0     C 1362  10.191   7.815   9.918  0.5839 -0.4364  0.0030
   11MOL0     C 1363  10.249   7.703   9.835  0.2976 -0.1828  0.1378
   11MOL0     C 1364  10.308   7.587   9.916  1.0343  0.3248 -0.9447
   11MOL0     C 1365  10.369   7.480   9.829 -0.1197 -0.3767  0.5055
   11MOL0     C 1366  10.424   7.375   9.922  0.4110  0.8171  0.2642
   11MOL0     N 1367  10.561   7.392   9.972 -1.1001 -1.1163  0.9238
   11MOL0     C 1368  10.674   7.305   9.967  0.0439 -0.0106  0.3965
   11MOL0     C 1369  10.762   7.375  10.042  1.0105  0.4553  0.1081
   11MOL0     C 1370  10.909   7.351  10.051  1.0665  0.4980 -0.0786
   11MOL0     C 1371  10.980   7.368   9.918  0.3315  0.4906 -0.3123
   11MOL0     C 1372  11.010   7.512   9.887  0.3332  0.5555  0.0820
   11MOL0     C 1373  11.112   7.524   9.775  0.1972  0.1395 -0.1698
   11MOL0     O 1374  11.065   7.478   9.643  0.2531 -0.7704  0.7400
   11MOL0     C 1375  11.022   7.581   9.555 -0.4654 -0.1363  0.4181
   11MOL0     C 1376  11.039   7.545   9.425  0.1512  0.4754 -0.2040
   11MOL0     C 1377  10.993   7.628   9.317  0.5007  0.6201 -0.7552
   11MOL0     C 1378  10.941   7.757   9.356 -0.0148  0.4826  0.6178
   11MOL0     C 1379  10.910   7.849   9.254 -0.9054 -0.0676 -0.3338
   11MOL0     O 1380  10.845   7.961   9.301 -0.2160  0.3203 -0.3049
   11MOL0     C 1381  10.797   8.061   9.222  0.4397  0.0484  0.0811
   11MOL0     C 1382  10.695   8.042   9.128 -0.0928  0.4452  0.3808
   11MOL0     C 1383  10.659   8.137   9.032 -0.3036 -0.7685 -0.3224
   11MOL0     C 1384  10.718   8.270   9.039 -0.0442  1.0045 -0.5878
   11MOL0     O 1385  10.701   8.369   8.954  0.2662 -0.7105  1.2584
   11MOL0     C 1386  10.597   8.356   8.851 -0.0002 -0.4021  0.7521
   11MOL0     C 1387  10.583   8.480   8.759  0.3496  0.5505  0.4148
   11MOL0     C 1388  10.709   8.534   8.686 -0.0549 -0.6597  0.9910
   11MOL0     C 1389  10.757   8.438   8.576 -0.1223 -0.3464  0.1578
   11MOL0     C 1390  10.865   8.503   8.479 -0.4955  0.4232  1.1945
   11MOL0     C 1391  10.940   8.380   8.414  0.1435 -1.1698  0.1002
   11MOL0     C 1392  11.052   8.438   8.335 -0.5328 -0.5344 -0.2183
   11MOL0     C 1393  11.148   8.324   8.286 -1.1883 -0.1672  0.1155
   11MOL0    Cl 1394  11.224   8.364   8.135  0.2516  0.1055 -0.1058
   11MOL0     C 1395  10.804   8.294   9.140 -0.1365 -0.2981 -0.6955
   11MOL0     C 1396  10.848   8.192   9.231 -0.1981 -0.3111  1.0015
   11MOL0     O 1397  10.937   7.831   9.138  0.5737  0.4422 -1.2106
   11MOL0     C 1398  10.935   7.790   9.490  0.4501 -0.2477  0.1655
   11MOL0     C 1399  10.959   7.697   9.590 -0.0478  0.1070  1.0313
   11MOL0     N 1400  10.705   7.477  10.113  0.7786  0.0039 -0.1857
   11MOL0     N 1401  10.582   7.493  10.068 -0.7475 -0.3863  0.5960
   11MOL0     C 1402  10.098   8.339  10.268  0.6385  0.5714  0.0398
   11MOL0     C 1403  10.181   8.415  10.353  1.1598 -0.8213  0.4069
   11MOL0     C 1404  10.406   8.635  10.611  0.7044 -0.5753 -1.4650
   11MOL0     C 1405  10.424   8.707  10.734 -0.0509  1.0383  0.0850
   11MOL0     C 1406  10.506   8.820  10.751 -0.3143  0.2369  0.4295
   11MOL0     C 1407  10.573   8.864  10.641  0.0927  0.3027 -0.4647
   11MOL0     O 1408  10.642   8.985  10.631 -0.0635 -0.1588  0.4876
   11MOL0     C 1409  10.672   9.057  10.749  0.7240  0.8456 -0.6735
   11MOL0     C 1410  10.816   9.011  10.792 -0.6186  0.5447  0.3560
   11MOL0     C 1411  10.881   9.101  10.901  0.2081  0.0885 -0.5676
   11MOL0     C 1412  10.975   9.013  10.981  0.6384  0.7965 -1.0259
   11MOL0     C 1413  11.058   9.089  11.069 -0.8566  0.2241  0.3686
   11MOL0     C 1414  11.144   9.146  11.129  0.1607 -0.3001  0.2146
   11MOL0     C 1415  10.567   8.789  10.528  0.7616  0.1460  0.2538
   11MOL0     C 1416  10.483   8.677  10.504  0.4823 -0.9294 -0.6308
   11MOL0     C 1417  10.474   8.634  10.369  1.0188  0.1486  0.2108
   11MOL0     H 1418  10.329   8.143  10.511  0.6421 -1.6021 -1.9146
   11MOL0     H 1419  10.181   8.033  10.374 -0.5400 -0.8677 -0.3703
   11MOL0     H 1420  10.181   8.029  10.103 -0.2355  2.0250 -0.8117
   11MOL0     H 1421  10.084   7.930  10.212 -1.1643 -1.3913 -1.9565
   11MOL0     H 1422  10.005   8.007   9.932 -0.3093  0.9003  0.2338
   11MOL0     H 1423   9.893   7.934  10.038 -0.6913 -2.2352 -2.1630
   11MOL0     H 1424   9.996   7.771   9.889 -0.3423  0.5831 -1.2693
   11MOL0     H 1425  10.055   7.733  10.062 -2.9451  1.1848  1.0114
   11MOL0     H 1426  10.189   7.902   9.853 -0.6445  1.5404  2.4950
   11MOL0     H 1427  10.258   7.838  10.002 -1.5623  3.3880  0.8880
   11MOL0     H 1428  10.172   7.658   9.771  0.3713  0.6612 -0.5702
   11MOL0     H 1429  10.333   7.748   9.780 -0.8897  1.0943 -0.6934
   11MOL0     H 1430  10.374   7.637   9.988 -1.2633  0.4019  1.2401
   11MOL0     H 1431  10.228   7.541   9.975  1.0145 -0.1488 -1.3295
   11MOL0     H 1432  10.448   7.519   9.763 -0.1836 -1.9604 -0.5698
   11MOL0     H 1433  10.290   7.441   9.764  0.2178 -1.5517  0.7932
   11MOL0     H 1434  10.352   7.360  10.003  0.8275 -3.3397  0.1071
   11MOL0     H 1435  10.437   7.287   9.857  1.1239  1.9476 -1.1808
   11MOL0     H 1436  10.703   7.223   9.903 -2.8876 -1.7255  1.0643
   11MOL0     H 1437  10.959   7.417  10.122 -0.2522  0.8827  0.5164
   11MOL0     H 1438  10.920   7.244  10.073 -1.1420  0.1478 -0.4350
   11MOL0     H 1439  11.072   7.309   9.915 -0.1207 -0.3411  1.2400
   11MOL0     H 1440  10.913   7.321   9.845  1.9522  0.5198 -1.8814
   11MOL0     H 1441  11.042   7.566   9.976 -2.5000 -0.0378  1.5676
   11MOL0     H 1442  10.919   7.570   9.868 -1.9935 -3.1974 -1.4003
   11MOL0     H 1443  11.188   7.453   9.812  0.6610  0.5029 -0.4129
   11MOL0     H 1444  11.159   7.622   9.766  1.1743 -0.4240 -1.5117
   11MOL0     H 1445  11.066   7.440   9.417 -0.7230  0.2365 -0.1604
   11MOL0     H 1446  10.999   7.588   9.216 -2.3958 -0.2692 -0.6710
   11MOL0     H 1447  10.650   7.944   9.113  0.0363  0.3895  0.3617
   11MOL0     H 1448  10.591   8.109   8.952 -3.1199 -2.9799  2.6217
   11MOL0     H 1449  10.622   8.276   8.780 -0.7281  0.2357 -0.2355
   11MOL0     H 1450  10.505   8.341   8.907  2.2312 -1.4485  4.4869
   11MOL0     H 1451  10.509   8.450   8.685  0.4554  1.2538  0.0165
   11MOL0     H 1452  10.544   8.560   8.822 -1.1906 -0.0559  0.2820
   11MOL0     H 1453  10.674   8.631   8.651 -0.2266 -1.3172 -0.7255
   11MOL0     H 1454  10.791   8.544   8.758 -1.0352 -2.2475  2.4398
   11MOL0     H 1455  10.673   8.396   8.520 -0.9026  1.6392 -0.2254
   11MOL0     H 1456  10.796   8.351   8.630 -0.9238 -1.6891 -1.3276
   11MOL0     H 1457  10.935   8.565   8.536  1.0443  0.4936 -0.6772
   11MOL0     H 1458  10.818   8.563   8.401  0.9376 -0.0698 -0.0960
   11MOL0     H 1459  10.987   8.319   8.491  3.1571  2.1727  1.1852
   11MOL0     H 1460  10.868   8.326   8.352  0.4837 -1.2224 -0.2488
   11MOL0     H 1461  11.115   8.517   8.375 -0.7326 -0.8343  0.7033
   11MOL0     H 1462  11.003   8.488   8.251  1.6940  0.9015 -0.7620
   11MOL0     H 1463  11.215   8.298   8.369 -0.6271 -1.0068 -0.5801
   11MOL0     H 1464  11.088   8.235   8.266  0.3542 -0.7609 -2.2826
   11MOL0     H 1465  10.846   8.394   9.155 -0.5242 -0.4349  1.6654
   11MOL0     H 1466  10.929   8.216   9.299 -0.0456 -0.6484  0.9406
   11MOL0     H 1467  10.887   7.877   9.535 -0.8063 -1.6391  1.6502
   11MOL0     H 1468  10.935   7.730   9.690 -0.2794  0.6982  0.7891
   11MOL0     H 1469  10.042   8.397  10.195  1.8051  3.3753  1.2386
   11MOL0     H 1470  10.182   8.522  10.333  2.2561 -1.2540 -2.4102
   11MOL0     H 1471  10.368   8.655  10.811 -0.7872 -0.9690 -1.7053
   11MOL0     H 1472  10.519   8.885  10.836  1.3278  1.3312 -0.6041
   11MOL0     H 1473  10.589   9.071  10.820  0.1181  2.0085 -1.5703
   11MOL0     H 1474  10.683   9.160  10.716  0.0405  1.2451  0.3073
   11MOL0     H 1475  10.876   9.007  10.701 -2.5760  0.0214 -0.9675
   11MOL0     H 1476  10.807   8.908  10.828  2.6198  0.2201  0.4812
   11MOL0     H 1477  10.809   9.156  10.962 -0.2159  1.0923 -1.9177
   11MOL0     H 1478  10.943   9.180  10.858  0.5859  1.9910  3.0800
   11MOL0     H 1479  10.928   8.943  11.051  1.3907  2.8325  1.6787
   11MOL0     H 1480  11.036   8.967  10.902 -1.5493 -1.1088 -1.7151
   11MOL0     H 1481  11.221   9.209  11.170 -2.1084  1.7602  1.6683
   11MOL0     H 1482  10.631   8.828  10.450  0.0072  1.2530  0.1738
   11MOL0     H 1483  10.504   8.705  10.290  2.9854 -0.5959  0.2308
   11MOL0     H 1484  10.531   8.542  10.351 -0.7265 -0.9771  0.2387
   11MOL0     H 1485  10.367   8.619  10.352  1.3786 -2.3181 -0.2115
   12MOL0     O 1486   4.633   7.397   4.831  0.4426  0.4378  0.6421
   12MOL0     C 1487   4.653   7.280   4.876 -0.3152  0.2004 -0.9570
   12MOL0     O 1488   4.592   7.223   4.984 -0.4338 -0.0530 -0.1509
   12MOL0     C 1489   4.521   7.306   5.070  0.2781 -0.1760  1.0141
   12MOL0     C 1490   4.537   7.449   5.085 -0.2997  0.6502  0.3476
   12MOL0     C 1491   4.476   7.506   5.197 -0.9537 -0.3390  0.1791
   12MOL0     C 1492   4.396   7.440   5.291 -0.7314 -0.0408  0.2926
   12MOL0     O 1493   4.321   7.485   5.394 -0.2252  0.2698  0.8249
   12MOL0     C 1494   4.365   7.600   5.464 -0.4006 -0.5263 -0.3000
   12MOL0     C 1495   4.302   7.631   5.604  0.1734  1.0954 -0.1388
   12MOL0     C 1496   4.323   7.525   5.719  0.0988  0.2811 -0.2289
   12MOL0     C 1497   4.276   7.582   5.851  0.3334 -0.1545 -0.1548
   12MOL0     C 1498   4.318   7.494   5.962 -0.1422 -0.3163  1.5114
   12MOL0     C 1499   4.463   7.519   6.006 -0.3538 -0.3550 -1.2505
   12MOL0     C 1500   4.511   7.476   6.145 -0.0424  0.8818  0.2597
   12MOL0     C 1501   4.528   7.323   6.155  0.4364 -0.0189 -0.3923
   12MOL0     N 1502   4.659   7.267   6.123 -0.5654 -0.3998  0.0101
   12MOL0     C 1503   4.684   7.135   6.074 -0.3866 -0.6083 -0.5303
   12MOL0     C 1504   4.815   7.116   6.059 -0.1313 -0.3102  0.6859
   12MOL0     C 1505   4.881   7.006   5.982 -0.4038  0.1599 -0.2836
   12MOL0     C 1506   4.991   6.927   6.067  0.4858 -0.5662 -0.2591
   12MOL0     C 1507   5.126   7.000   6.056 -0.8523  0.5577 -0.9135
   12MOL0     C 1508   5.211   6.980   6.182 -0.4690 -0.4312  1.1945
   12MOL0     O 1509   5.223   6.837   6.227 -0.3962  0.4914  0.9227
   12MOL0     C 1510   5.215   6.825   6.365  0.8102 -0.4602 -0.6443
   12MOL0     C 1511   5.105   6.766   6.429  0.6636  0.0554  0.2128
   12MOL0     C 1512   5.094   6.761   6.569  0.4588 -0.8621  1.0369
   12MOL0     C 1513   5.191   6.829   6.647 -0.0440  0.7608  0.6224
   12MOL0     C 1514   5.158   6.855   6.785 -0.2451 -0.6364  0.2012
   12MOL0     O 1515   5.024   6.838   6.824 -0.8449  0.6880 -0.0301
   12MOL0     C 1516   4.990   6.878   6.952 -0.1515  1.5585  0.8376
   12MOL0     C 1517   4.991   7.011   6.988 -0.5184 -1.2655  1.0665
   12MOL0     C 1518   4.957   7.046   7.120 -0.0544 -0.0117  0.0920
   12MOL0     C 1519   4.923   6.943   7.215  0.2603 -0.1596  0.2629
   12MOL0     O 1520   4.873   6.983   7.335  0.0395  0.1711  0.7425
   12MOL0     C 1521   4.845   6.896   7.441  0.3484  0.7146 -0.4589
   12MOL0     C 1522   4.983   6.893   7.495 -0.7760  1.0976  0.2432
   12MOL0     C 1523   4.993   6.803   7.618 -0.3921 -0.1670  0.7351
   12MOL0     C 1524   5.125   6.835   7.693  0.0629  0.2717  1.7837
   12MOL0     C 1525   5.143   6.724   7.798 -1.0638  0.3577 -0.5938
   12MOL0     C 1526   5.246   6.747   7.908  0.8031  0.0954 -0.2667
   12MOL0     C 1527   5.242   6.655   8.032 -0.1965 -0.0225  0.8354
   12MOL0     C 1528   5.322   6.521   8.014  0.8231 -0.0171 -0.2256
   12MOL0    Cl 1529   5.328   6.439   8.164  0.3272  0.2048 -0.2776
   12MOL0     C 1530   4.921   6.808   7.168  0.1885  0.1276 -0.6298
   12MOL0     C 1531   4.953   6.777   7.040 -1.4562  0.3623  0.1479
   12MOL0     O 1532   5.252   6.891   6.861  0.3249  0.0604 -0.1370
   12MOL0     C 1533   5.304   6.889   6.584 -0.3671 -0.2888  0.2787
   12MOL0     C 1534   5.313   6.892   6.445 -0.3564 -0.3303 -0.8646
   12MOL0     N 1535   4.868   7.239   6.104 -0.2327  0.2318 -0.0206
   12MOL0     N 1536   4.777   7.313   6.146 -1.0630  0.9332 -0.5917
   12MOL0     C 1537   4.378   7.309   5.271  0.8044 -0.4162  1.2669
   12MOL0     C 1538   4.434   7.247   5.160  1.2677  0.0654  0.5763
   12MOL0     C 1539   4.747   7.187   4.802  0.4804  0.5540  0.3395
   12MOL0     C 1540   4.846   7.254   4.733  0.3960 -0.4350  0.0062
   12MOL0     C 1541   4.946   7.184   4.654 -0.4940 -0.3933 -0.4570
   12MOL0     C 1542   4.938   7.049   4.639 -0.9644 -0.8717 -0.4640
   12MOL0     O 1543   5.032   6.980   4.573 -0.1622 -0.3397 -0.1720
   12MOL0     C 1544   5.107   7.043   4.464  0.5122  1.3753  0.0758
   12MOL0     C 1545   5.175   6.947   4.366  0.0247  0.3742 -0.1484
   12MOL0     C 1546   5.307   6.888   4.429  0.4733  0.8959 -0.0793
   12MOL0     C 1547   5.367   6.782   4.332  0.0022 -0.2420 -0.0721
   12MOL0     C 1548   5.442   6.855   4.228  1.1089  0.9878 -1.0421
   12MOL0     C 1549   5.531   6.895   4.149 -0.5165  0.1704  0.4965
   12MOL0     C 1550   4.858   6.974   4.724  0.4607 -1.2224  1.0879
   12MOL0     C 1551   4.763   7.044   4.804  0.3440  0.2303 -0.2757
   12MOL0     C 1552   4.660   6.965   4.873 -0.3318  0.8070  0.1642
   12MOL0     H 1553   4.594   7.513   5.019 -2.9937  0.9200 -1.9007
   12MOL0     H 1554   4.488   7.613   5.210  2.0095 -0.7721  1.9343
   12MOL0     H 1555   4.471   7.582   5.487 -0.0333  2.0338  0.3854
   12MOL0     H 1556   4.356   7.686   5.397  1.0956 -1.0811 -1.2583
   12MOL0     H 1557   4.194   7.637   5.588  0.5994 -0.5903 -5.7083
   12MOL0     H 1558   4.335   7.733   5.626  0.1184  1.1095 -0.1201
   12MOL0     H 1559   4.431   7.505   5.718  0.0577  0.0173 -1.5417
   12MOL0     H 1560   4.273   7.431   5.696  0.0674  0.0895  0.5860
   12MOL0     H 1561   4.307   7.685   5.870  0.7513  0.0337 -1.7673
   12MOL0     H 1562   4.167   7.574   5.853  0.4251 -3.9165 -2.1341
   12MOL0     H 1563   4.243   7.505   6.041 -1.2094 -2.0299  0.8130
   12MOL0     H 1564   4.318   7.392   5.923 -2.5657  0.5681 -1.1725
   12MOL0     H 1565   4.530   7.475   5.932  3.4056 -1.6562  2.5104
   12MOL0     H 1566   4.470   7.628   6.005  2.0460 -0.3470  1.7817
   12MOL0     H 1567   4.432   7.512   6.212 -0.7302 -1.4540  0.7976
   12MOL0     H 1568   4.604   7.532   6.158  2.3421 -0.4091 -6.8716
   12MOL0     H 1569   4.495   7.302   6.258  2.8469 -2.0078  0.0720
   12MOL0     H 1570   4.464   7.273   6.082 -0.1143 -2.2278  1.4386
   12MOL0     H 1571   4.612   7.061   6.040  0.8476 -2.1787  0.1053
   12MOL0     H 1572   4.797   6.939   5.960 -2.8078  1.7193  3.1796
   12MOL0     H 1573   4.918   7.056   5.892 -3.3479  4.9297  0.7631
   12MOL0     H 1574   4.942   6.905   6.162 -1.2709  0.7764 -0.8029
   12MOL0     H 1575   4.994   6.825   6.029 -4.1097 -1.5910  1.4840
   12MOL0     H 1576   5.118   7.108   6.042 -0.5337  0.6360 -0.5261
   12MOL0     H 1577   5.179   6.968   5.966 -1.2047 -0.5214 -0.7455
   12MOL0     H 1578   5.175   7.044   6.262  2.6619  0.6797  1.8464
   12MOL0     H 1579   5.313   7.008   6.155  0.7132 -4.2274  1.0816
   12MOL0     H 1580   5.026   6.721   6.369 -1.0674  2.4300  0.5404
   12MOL0     H 1581   4.993   6.739   6.603 -1.8201  4.1164 -1.4170
   12MOL0     H 1582   4.994   7.091   6.915 -3.8381 -0.6875  1.4203
   12MOL0     H 1583   4.955   7.150   7.150 -1.4612  0.3255 -1.0236
   12MOL0     H 1584   4.784   6.943   7.518 -0.8549  1.1616 -1.6408
   12MOL0     H 1585   4.817   6.793   7.417  1.3559  1.3161 -5.2986
   12MOL0     H 1586   5.067   6.852   7.438 -1.2064 -3.0807  2.2643
   12MOL0     H 1587   5.022   6.991   7.524  0.9701 -0.1133  2.2873
   12MOL0     H 1588   4.914   6.838   7.684 -1.2810  1.6788 -1.1760
   12MOL0     H 1589   4.984   6.696   7.597  1.1625 -0.1722 -0.1037
   12MOL0     H 1590   5.110   6.929   7.746 -1.4561  0.4980  0.9871
   12MOL0     H 1591   5.216   6.835   7.632 -1.2417 -2.9643 -0.4226
   12MOL0     H 1592   5.173   6.634   7.744 -2.1604  0.4393 -1.3709
   12MOL0     H 1593   5.049   6.707   7.850 -0.8895 -0.6792 -0.5962
   12MOL0     H 1594   5.350   6.751   7.874  1.1254 -3.6223 -0.1032
   12MOL0     H 1595   5.222   6.843   7.956 -1.2692 -0.1279 -0.8054
   12MOL0     H 1596   5.137   6.634   8.055  0.3562 -1.6662  2.0311
   12MOL0     H 1597   5.297   6.703   8.114 -0.0231 -1.3715  1.5399
   12MOL0     H 1598   5.282   6.453   7.938 -0.0995 -0.6563  0.8068
   12MOL0     H 1599   5.424   6.546   7.984  0.6721  1.1850  0.2154
   12MOL0     H 1600   4.886   6.739   7.244  3.6694  2.4827  3.5623
   12MOL0     H 1601   4.956   6.678   6.996 -0.7189  0.9425 -1.1705
   12MOL0     H 1602   5.376   6.935   6.651 -3.0632  0.5898  2.7724
   12MOL0     H 1603   5.401   6.936   6.400 -1.1445  0.6097 -1.5058
   12MOL0     H 1604   4.309   7.258   5.337 -1.7533  1.3506  0.1482
   12MOL0     H 1605   4.409   7.142   5.149  0.8078  0.1873  0.4579
   12MOL0     H 1606   4.852   7.361   4.747 -0.4968 -0.5455  1.5239
   12MOL0     H 1607   5.035   7.238   4.622  1.8567 -3.1969  0.8915
   12MOL0     H 1608   5.182   7.110   4.506 -0.9824  0.4932  4.6946
   12MOL0     H 1609   5.038   7.098   4.400  4.6127  4.4991 -2.1723
   12MOL0     H 1610   5.197   7.009   4.278  0.0321 -0.7207 -0.9379
   12MOL0     H 1611   5.102   6.875   4.328 -1.6658  2.2040 -0.5246
   12MOL0     H 1612   5.276   6.838   4.521 -0.0354  0.3549 -0.5342
   12MOL0     H 1613   5.380   6.968   4.444 -1.2624  2.8052 -1.2619
   12MOL0     H 1614   5.427   6.722   4.401  0.7144 -0.6021 -0.9844
   12MOL0     H 1615   5.284   6.723   4.291  0.0984  0.9934 -2.1376
   12MOL0     H 1616   5.609   6.927   4.083 -0.2908  0.4365  0.8834
   12MOL0     H 1617   4.866   6.866   4.720 -1.2664 -1.3538  0.1134
   12MOL0     H 1618   4.654   6.998   4.978 -0.0457 -4.8580  2.3236
   12MOL0     H 1619   4.560   6.950   4.830 -1.3896  0.2688  2.6194
   12MOL0     H 1620   4.695   6.861   4.877 -0.7913  0.6673  0.7686
   13MOL0     O 1621   8.290   0.446   7.731  0.1177  0.1506  0.3755
   13MOL0     C 1622   8.241   0.555   7.745  0.0161  0.0883  0.6536
   13MOL0     O 1623   8.299   0.662   7.811 -0.0174 -0.0524 -0.3560
   13MOL0     C 1624   8.430   0.662   7.847 -0.4977  0.2249  1.1643
   13MOL0     C 1625   8.473   0.756   7.935 -0.5987  0.1396 -0.5127
   13MOL0     C 1626   8.611   0.761   7.970 -0.3984  0.2553 -0.1675
   13MOL0     C 1627   8.710   0.676   7.909 -0.5745 -1.4076 -1.5731
   13MOL0     O 1628   8.853   0.690   7.932 -0.0666  0.0674  1.1174
   13MOL0     C 1629   8.905   0.805   7.996  0.7859 -0.2113  0.3381
   13MOL0     C 1630   9.061   0.791   7.995 -0.4596  0.0263 -0.0644
   13MOL0     C 1631   9.108   0.677   8.082 -0.3100  0.1094  0.3115
   13MOL0     C 1632   9.264   0.648   8.043  0.1723 -0.0530  0.1543
   13MOL0     C 1633   9.309   0.514   8.088  0.8594 -0.6387  0.6490
   13MOL0     C 1634   9.335   0.501   8.232 -0.3844 -0.1515 -0.4101
   13MOL0     C 1635   9.374   0.360   8.269  0.0520 -0.7215 -0.3790
   13MOL0     C 1636   9.418   0.339   8.421 -0.1633 -0.0907 -0.0863
   13MOL0     N 1637   9.543   0.407   8.447  0.5356  0.6871 -0.5986
   13MOL0     C 1638   9.559   0.539   8.499  0.3111  0.0571  0.4053
   13MOL0     C 1639   9.691   0.555   8.497  0.3342 -0.3588 -0.2911
   13MOL0     C 1640   9.771   0.680   8.539 -0.9855  0.2039  0.0843
   13MOL0     C 1641   9.778   0.772   8.422 -0.3842 -0.5634  0.1638
   13MOL0     C 1642   9.912   0.852   8.408  0.2251 -0.0921 -0.0836
   13MOL0     C 1643   9.945   0.921   8.541 -0.0144 -0.6935  0.3708
   13MOL0     O 1644   9.981   0.851   8.648 -0.1932 -0.4913 -0.1264
   13MOL0     C 1645  10.112   0.840   8.670 -0.0687  0.5849  0.9643
   13MOL0     C 1646  10.169   0.719   8.659 -1.1757  0.7971  0.3045
   13MOL0     C 1647  10.305   0.698   8.682 -0.2060 -1.0131  0.9347
   13MOL0     C 1648  10.378   0.817   8.718  0.9648 -0.8504  0.1087
   13MOL0     C 1649  10.522   0.802   8.749  0.9328  0.4472  0.0179
   13MOL0     O 1650  10.560   0.696   8.821  0.1155  0.1150 -0.2006
   13MOL0     C 1651  10.689   0.674   8.855  0.3973 -0.4732  0.4490
   13MOL0     C 1652  10.699   0.636   8.989 -0.7431 -0.4682 -0.8448
   13MOL0     C 1653  10.821   0.612   9.051  0.4693  0.1231  0.6369
   13MOL0     C 1654  10.936   0.630   8.978  0.0662 -0.9569  0.3406
   13MOL0     O 1655  11.064   0.594   9.007  0.3958 -0.6364 -0.7908
   13MOL0     C 1656  11.092   0.565   9.145 -0.3496 -0.1119 -0.1758
   13MOL0     C 1657  11.221   0.484   9.147 -0.9527  1.0155 -0.8574
   13MOL0     C 1658  11.242   0.387   9.265 -0.3821 -0.2926  0.0831
   13MOL0     C 1659  11.311   0.462   9.377 -0.3269  0.0095 -0.1861
   13MOL0     C 1660  11.459   0.507   9.344  0.5668  0.6252 -0.1880
   13MOL0     C 1661  11.572   0.475   9.455  0.1560 -0.4592 -0.2289
   13MOL0     C 1662  11.709   0.535   9.415  0.6089 -0.0504 -0.7127
   13MOL0     C 1663  11.821   0.447   9.469 -0.0393  0.7937 -0.3143
   13MOL0    Cl 1664  11.812   0.435   9.643 -0.2337 -0.1892 -0.3582
   13MOL0     C 1665  10.929   0.688   8.842 -0.3001 -0.1758 -0.0478
   13MOL0     C 1666  10.805   0.703   8.788  0.3445 -0.1654  0.3692
   13MOL0     O 1667  10.598   0.885   8.700 -0.2379 -0.3908  0.3048
   13MOL0     C 1668  10.316   0.940   8.741 -0.5271 -0.1676 -1.2358
   13MOL0     C 1669  10.188   0.948   8.714 -0.1980  0.1173 -1.6823
   13MOL0     N 1670   9.752   0.437   8.457  0.4585  0.4439 -1.3066
   13MOL0     N 1671   9.665   0.345   8.415  0.3802  0.1388  0.6065
   13MOL0     C 1672   8.664   0.592   7.811  0.5227 -0.5319  0.0458
   13MOL0     C 1673   8.525   0.582   7.783 -0.6143  0.9413  0.1135
   13MOL0     C 1674   8.098   0.576   7.699 -0.2099 -0.0824 -0.1534
   13MOL0     C 1675   8.036   0.680   7.763 -0.1248  0.9765 -0.3158
   13MOL0     C 1676   7.902   0.706   7.752  0.3648 -1.1511 -0.3232
   13MOL0     C 1677   7.819   0.630   7.671  0.0665 -0.4115  0.1119
   13MOL0     O 1678   7.680   0.662   7.677  0.8232 -0.3389 -0.0373
   13MOL0     C 1679   7.584   0.566   7.635 -0.6363  0.8051  1.0847
   13MOL0     C 1680   7.447   0.624   7.680  0.1726  0.3144  0.8443
   13MOL0     C 1681   7.419   0.614   7.830 -0.6740  0.4798 -0.2090
   13MOL0     C 1682   7.308   0.709   7.880 -0.6191  0.0018  1.6080
   13MOL0     C 1683   7.174   0.658   7.834  0.1741 -1.1781  0.0885
   13MOL0     C 1684   7.063   0.605   7.805 -0.3113  0.0547 -0.0880
   13MOL0     C 1685   7.878   0.523   7.594 -0.4873 -0.7351 -0.0448
   13MOL0     C 1686   8.022   0.508   7.601 -1.0431 -0.3116 -0.1722
   13MOL0     C 1687   8.078   0.392   7.519  0.5713 -0.0990  0.1496
   13MOL0     H 1688   8.420   0.839   7.980  1.2942  0.5769  1.0804
   13MOL0     H 1689   8.642   0.830   8.048  0.6288  1.8291 -1.8839
   13MOL0     H 1690   8.866   0.893   7.944 -4.3749 -1.4253  1.5903
   13MOL0     H 1691   8.876   0.808   8.101  0.0838  4.9705  0.2449
   13MOL0     H 1692   9.101   0.883   8.038  2.5202 -0.2240 -1.9802
   13MOL0     H 1693   9.100   0.779   7.893  0.2561 -0.9885  0.3072
   13MOL0     H 1694   9.044   0.589   8.074  0.4093 -0.3309 -0.8660
   13MOL0     H 1695   9.107   0.701   8.188  1.8439 -2.2145  0.9676
   13MOL0     H 1696   9.268   0.655   7.933 -1.0898  0.8614  0.1330
   13MOL0     H 1697   9.323   0.730   8.083  1.1525 -1.1220  0.9462
   13MOL0     H 1698   9.237   0.438   8.059 -0.1625  1.2042 -2.0827
   13MOL0     H 1699   9.405   0.501   8.037  0.6852 -2.0872  0.6502
   13MOL0     H 1700   9.415   0.571   8.256 -0.1111  0.2762 -2.3684
   13MOL0     H 1701   9.243   0.527   8.285 -0.7111  2.6553 -2.1115
   13MOL0     H 1702   9.461   0.324   8.213  2.4320  2.1839  1.0826
   13MOL0     H 1703   9.280   0.310   8.249 -1.7198  1.9134  0.7529
   13MOL0     H 1704   9.340   0.366   8.493  2.1242  1.5440  1.9175
   13MOL0     H 1705   9.439   0.233   8.435  1.2926  0.3311  1.1546
   13MOL0     H 1706   9.481   0.611   8.523 -0.7806 -0.0425 -2.4196
   13MOL0     H 1707   9.734   0.733   8.627  1.8071  0.6803  1.0826
   13MOL0     H 1708   9.872   0.650   8.565  0.3940  4.2199  0.1341
   13MOL0     H 1709   9.766   0.720   8.327 -0.2281  3.3510 -2.2522
   13MOL0     H 1710   9.705   0.852   8.436  2.4276  2.2977 -0.3428
   13MOL0     H 1711   9.881   0.929   8.336 -0.8983 -2.7021 -2.5764
   13MOL0     H 1712   9.982   0.785   8.358 -0.1547  0.4483 -1.3970
   13MOL0     H 1713   9.858   0.982   8.566 -0.1235 -0.7514  0.1311
   13MOL0     H 1714  10.028   0.989   8.517  0.9672 -2.2282 -0.7631
   13MOL0     H 1715  10.086   0.650   8.645 -1.7361  1.5365 -0.0561
   13MOL0     H 1716  10.355   0.601   8.674  4.1140  1.1064 -2.5802
   13MOL0     H 1717  10.614   0.618   9.053  2.5446 -1.8977  3.6072
   13MOL0     H 1718  10.824   0.563   9.149  1.9189 -2.0210 -0.4061
   13MOL0     H 1719  11.095   0.645   9.219  0.0952 -2.6809  2.7595
   13MOL0     H 1720  11.018   0.497   9.190  1.1134  0.0040  2.6035
   13MOL0     H 1721  11.241   0.434   9.052 -1.0423 -0.4245 -0.1469
   13MOL0     H 1722  11.304   0.556   9.149  0.0982 -0.1585 -0.9821
   13MOL0     H 1723  11.146   0.344   9.296 -1.1512  2.2395  1.5074
   13MOL0     H 1724  11.317   0.316   9.228  1.3057  0.9480  1.0219
   13MOL0     H 1725  11.313   0.395   9.464  2.9742 -1.0203 -0.9057
   13MOL0     H 1726  11.263   0.551   9.417  2.4466  2.1232 -1.2514
   13MOL0     H 1727  11.457   0.614   9.319 -1.4310  0.7202  0.2141
   13MOL0     H 1728  11.494   0.460   9.251  1.4999  0.4633  0.2345
   13MOL0     H 1729  11.539   0.497   9.557  3.9104 -1.6921  1.4318
   13MOL0     H 1730  11.582   0.366   9.461  1.1039 -0.5605 -2.7514
   13MOL0     H 1731  11.729   0.637   9.449  2.8635 -0.1037 -1.7086
   13MOL0     H 1732  11.708   0.544   9.306  2.7593  1.1389 -0.6891
   13MOL0     H 1733  11.800   0.345   9.436 -0.5668  0.9132 -0.3540
   13MOL0     H 1734  11.922   0.477   9.438  1.0971  2.4373  4.1555
   13MOL0     H 1735  11.020   0.696   8.783  1.2852 -0.6266  2.2134
   13MOL0     H 1736  10.797   0.722   8.681 -1.7478 -3.0820 -0.0894
   13MOL0     H 1737  10.375   1.028   8.766  0.4486 -1.3621  1.0145
   13MOL0     H 1738  10.137   1.044   8.708 -1.2601 -0.3952 -1.0854
   13MOL0     H 1739   8.741   0.525   7.774  4.1342  2.3366  1.7362
   13MOL0     H 1740   8.502   0.513   7.703  0.4644  2.9920 -2.1190
   13MOL0     H 1741   8.076   0.735   7.847  2.7655 -2.4353  0.8174
   13MOL0     H 1742   7.843   0.777   7.809  1.4223 -0.1012 -0.5079
   13MOL0     H 1743   7.608   0.467   7.673 -0.3277  1.1196  1.7388
   13MOL0     H 1744   7.587   0.554   7.527 -2.0728 -0.6559  1.1763
   13MOL0     H 1745   7.379   0.566   7.617  1.8683  2.6504 -3.5111
   13MOL0     H 1746   7.436   0.723   7.635  1.4442  0.4659  0.8288
   13MOL0     H 1747   7.514   0.645   7.874 -0.3668 -0.1205 -0.4274
   13MOL0     H 1748   7.403   0.511   7.865  0.4015 -0.1726 -1.5078
   13MOL0     H 1749   7.308   0.726   7.988 -0.6136  2.3086  1.2920
   13MOL0     H 1750   7.321   0.806   7.831  1.8567 -1.3418 -0.7310
   13MOL0     H 1751   6.968   0.561   7.785 -1.0302  1.6475 -0.2913
   13MOL0     H 1752   7.816   0.456   7.537 -0.1613 -1.1061  0.0356
   13MOL0     H 1753   8.022   0.362   7.431  1.0795 -0.3677 -0.0900
   13MOL0     H 1754   8.173   0.434   7.483  0.0037  2.5959  1.5092
   13MOL0     H 1755   8.091   0.302   7.580  2.1947 -1.3817 -1.9569
   14MOL0     O 1756  10.010   6.752   2.819 -0.2916  0.4269  0.4459
   14MOL0     C 1757   9.924   6.802   2.747  0.3771  0.5326 -0.2044
   14MOL0     O 1758   9.876   6.753   2.624 -0.7740  0.0640 -0.3987
   14MOL0     C 1759   9.940   6.663   2.539 -0.4224  0.5827  0.0776
   14MOL0     C 1760  10.044   6.573   2.581  0.3066 -0.3576 -0.0451
   14MOL0     C 1761  10.128   6.521   2.485  0.4897  0.1750 -0.6666
   14MOL0     C 1762  10.103   6.539   2.346 -0.2416  0.7076  0.1204
   14MOL0     O 1763  10.161   6.462   2.246  0.0992  0.2205 -1.1015
   14MOL0     C 1764  10.231   6.344   2.280  0.0277 -0.2785 -0.2908
   14MOL0     C 1765  10.279   6.278   2.149 -0.0862  0.0151 -0.7981
   14MOL0     C 1766  10.194   6.169   2.089 -0.4891  0.1214 -1.0594
   14MOL0     C 1767  10.225   6.149   1.946 -0.6321  0.1393  0.7579
   14MOL0     C 1768  10.151   6.024   1.895  0.1843  0.0465  0.1032
   14MOL0     C 1769   9.999   6.015   1.918 -0.7095 -0.4868  0.9074
   14MOL0     C 1770   9.929   6.137   1.863 -0.5075 -0.2246 -0.1798
   14MOL0     C 1771   9.783   6.117   1.892  1.2546  0.1113  1.0811
   14MOL0     N 1772   9.697   6.219   1.835  0.0570  0.0709  0.5013
   14MOL0     C 1773   9.580   6.261   1.894 -0.4865 -0.2007 -0.1546
   14MOL0     C 1774   9.502   6.319   1.805 -0.4629  0.3330  0.4325
   14MOL0     C 1775   9.358   6.367   1.822 -0.5038  0.1472  0.0960
   14MOL0     C 1776   9.359   6.520   1.796 -0.7003 -0.1441  0.6143
   14MOL0     C 1777   9.212   6.561   1.783 -0.0257 -1.3538 -0.1594
   14MOL0     C 1778   9.126   6.535   1.910  0.5580 -0.6415 -0.9592
   14MOL0     O 1779   9.190   6.550   2.040  0.6526 -0.3207 -0.3876
   14MOL0     C 1780   9.088   6.554   2.138 -1.0609  0.3441 -0.0739
   14MOL0     C 1781   8.972   6.473   2.151  0.4600  0.2810  0.1497
   14MOL0     C 1782   8.886   6.482   2.260 -0.2547  0.5644  0.2784
   14MOL0     C 1783   8.912   6.569   2.365 -1.8052  0.6420 -0.0462
   14MOL0     C 1784   8.816   6.580   2.474 -0.3278 -0.5549  0.2306
   14MOL0     O 1785   8.774   6.714   2.511  0.5822  0.2065  1.4461
   14MOL0     C 1786   8.681   6.750   2.606  0.5569 -0.9455  0.4581
   14MOL0     C 1787   8.652   6.887   2.604 -0.3444  0.1831 -1.0873
   14MOL0     C 1788   8.572   6.946   2.696  0.0081 -0.8016 -1.4495
   14MOL0     C 1789   8.520   6.880   2.812  1.3385  0.7595 -0.1306
   14MOL0     O 1790   8.446   6.924   2.922  0.8018 -0.1540 -0.3716
   14MOL0     C 1791   8.436   7.064   2.927 -0.1366  0.5322  0.0841
   14MOL0     C 1792   8.367   7.120   3.051 -1.0832  0.1536  0.3171
   14MOL0     C 1793   8.219   7.071   3.075 -0.2034  0.7862  0.6639
   14MOL0     C 1794   8.168   7.104   3.218 -0.6104  0.4243  0.3894
   14MOL0     C 1795   8.018   7.072   3.247 -0.5896 -0.7818 -0.1359
   14MOL0     C 1796   7.968   7.115   3.388 -0.3343 -0.8718 -0.1250
   14MOL0     C 1797   7.815   7.091   3.400  0.3589  0.9129  0.6915
   14MOL0     C 1798   7.760   7.193   3.509 -0.0076 -0.3628  0.6896
   14MOL0    Cl 1799   7.760   7.366   3.432 -0.0171 -0.3802  0.6861
   14MOL0     C 1800   8.538   6.743   2.805 -0.8359 -0.8922 -0.4761
   14MOL0     C 1801   8.630   6.673   2.710 -0.2443 -0.3891  0.2490
   14MOL0     O 1802   8.767   6.480   2.522 -0.2809 -0.3305 -0.2110
   14MOL0     C 1803   9.027   6.649   2.354  0.1347  0.4511 -0.5591
   14MOL0     C 1804   9.113   6.639   2.243  0.3105  0.1005 -0.4881
   14MOL0     N 1805   9.576   6.317   1.692 -1.1610  0.4440  0.0674
   14MOL0     N 1806   9.691   6.259   1.705  1.3879 -0.6361 -0.0602
   14MOL0     C 1807  10.003   6.629   2.302  0.5604 -1.0611 -0.8847
   14MOL0     C 1808   9.924   6.699   2.402 -0.7162 -0.2292  0.6330
   14MOL0     C 1809   9.868   6.931   2.779 -1.0269 -1.1582  0.6696
   14MOL0     C 1810   9.819   7.016   2.672 -0.8234  0.2307 -0.4318
   14MOL0     C 1811   9.756   7.140   2.695 -0.2469 -0.5235  0.4836
   14MOL0     C 1812   9.747   7.198   2.820  0.7081 -0.0702 -0.3666
   14MOL0     O 1813   9.690   7.329   2.844  0.5751 -0.7382  0.2943
   14MOL0     C 1814   9.783   7.443   2.830 -0.5336  0.1397 -0.0784
   14MOL0     C 1815   9.890   7.442   2.944 -0.8823  0.0669  0.4632
   14MOL0     C 1816   9.841   7.476   3.084  0.3851 -0.3568  0.5673
   14MOL0     C 1817   9.951   7.458   3.185  0.2979 -0.1306  0.3063
   14MOL0     C 1818  10.000   7.321   3.207  0.8664 -1.1472 -0.5572
   14MOL0     C 1819  10.030   7.200   3.212  0.2014 -0.8809  0.2712
   14MOL0     C 1820   9.787   7.119   2.931 -0.4747  0.3302 -0.1352
   14MOL0     C 1821   9.854   6.991   2.915 -0.6594  0.7561  0.1666
   14MOL0     C 1822   9.904   6.915   3.036  1.1613  0.4336 -0.2555
   14MOL0     H 1823  10.047   6.537   2.684  1.6320 -0.7735 -0.2176
   14MOL0     H 1824  10.200   6.444   2.510 -2.7111 -2.4466  1.3667
   14MOL0     H 1825  10.321   6.370   2.337 -0.5732  0.6510  0.2506
   14MOL0     H 1826  10.180   6.275   2.349 -0.4989 -0.3742 -0.7747
   14MOL0     H 1827  10.380   6.246   2.178 -0.2109 -0.3264 -0.7375
   14MOL0     H 1828  10.276   6.351   2.068 -2.0312  0.9572  0.0553
   14MOL0     H 1829  10.096   6.216   2.101 -0.1253  0.7306 -0.4451
   14MOL0     H 1830  10.204   6.069   2.134 -0.7108 -0.0705 -1.4291
   14MOL0     H 1831  10.223   6.241   1.887 -0.8844 -1.6854 -2.2882
   14MOL0     H 1832  10.334   6.138   1.938 -0.6754 -1.2400  1.6698
   14MOL0     H 1833  10.153   6.009   1.787  1.5796  1.3816 -0.0875
   14MOL0     H 1834  10.196   5.930   1.929  1.6201  0.9166  0.6520
   14MOL0     H 1835   9.959   5.931   1.861  0.5819 -0.3207 -0.3029
   14MOL0     H 1836   9.971   5.994   2.022 -3.2993 -1.3939  0.1120
   14MOL0     H 1837   9.947   6.150   1.756 -2.4904  0.0876 -0.5152
   14MOL0     H 1838   9.963   6.226   1.916  2.0438 -2.5316  2.4751
   14MOL0     H 1839   9.749   6.024   1.845 -1.8355  0.9841  1.3602
   14MOL0     H 1840   9.765   6.106   2.000 -1.9713  3.3343  1.0669
   14MOL0     H 1841   9.556   6.248   1.999  2.6672  1.2509  0.8684
   14MOL0     H 1842   9.287   6.302   1.770 -0.2013 -2.0292  2.2526
   14MOL0     H 1843   9.342   6.350   1.929  0.2698  3.7658  0.9130
   14MOL0     H 1844   9.411   6.575   1.874 -1.3983 -0.0642  1.0374
   14MOL0     H 1845   9.414   6.529   1.702 -0.9517 -1.6120  0.3015
   14MOL0     H 1846   9.167   6.509   1.698 -0.7264  0.7016 -1.0899
   14MOL0     H 1847   9.208   6.666   1.753 -1.2912 -0.9822  1.1881
   14MOL0     H 1848   9.092   6.431   1.906  3.6606 -1.9885  2.0851
   14MOL0     H 1849   9.042   6.604   1.905 -0.6727 -2.0075 -0.1642
   14MOL0     H 1850   8.948   6.397   2.078 -2.0418 -1.3231  2.4422
   14MOL0     H 1851   8.794   6.424   2.254  0.3082 -0.5231  1.6641
   14MOL0     H 1852   8.693   6.955   2.529 -0.4140 -0.5322 -1.7938
   14MOL0     H 1853   8.566   7.054   2.685  2.5901 -0.4218  0.0831
   14MOL0     H 1854   8.539   7.101   2.923  0.4030 -0.7498  0.9957
   14MOL0     H 1855   8.391   7.102   2.835 -3.8682 -1.1657  1.0194
   14MOL0     H 1856   8.417   7.099   3.146 -1.6514 -1.2442  0.3242
   14MOL0     H 1857   8.377   7.229   3.049 -0.8993  0.1235 -1.0243
   14MOL0     H 1858   8.157   7.131   3.008 -0.8964  0.6549  1.1867
   14MOL0     H 1859   8.213   6.966   3.044  0.2717  0.9429  0.0120
   14MOL0     H 1860   8.191   7.210   3.234 -1.5277  1.0745 -2.0381
   14MOL0     H 1861   8.230   7.045   3.286  2.2395  2.8542  0.0948
   14MOL0     H 1862   8.002   6.967   3.220 -0.1311 -1.3962  1.7924
   14MOL0     H 1863   7.965   7.144   3.184 -0.3301  0.3100  0.8556
   14MOL0     H 1864   8.029   7.071   3.468  0.2706  1.7585  0.9422
   14MOL0     H 1865   7.995   7.221   3.393  0.3819 -0.9631 -1.5776
   14MOL0     H 1866   7.806   6.986   3.426  2.5769  0.6063  0.4512
   14MOL0     H 1867   7.773   7.106   3.301 -1.3891 -0.6216  1.1464
   14MOL0     H 1868   7.655   7.171   3.533 -0.3034 -4.1607 -2.7899
   14MOL0     H 1869   7.823   7.195   3.598 -2.9266  2.6223  2.9413
   14MOL0     H 1870   8.482   6.684   2.878 -1.0787 -0.1978 -0.0902
   14MOL0     H 1871   8.640   6.565   2.720 -0.9387 -0.3764  1.2807
   14MOL0     H 1872   9.049   6.722   2.432 -0.4172 -2.4702  2.6016
   14MOL0     H 1873   9.198   6.706   2.247 -0.3402  0.9270 -0.4279
   14MOL0     H 1874   9.993   6.642   2.194  3.7406 -3.5128 -1.5973
   14MOL0     H 1875   9.865   6.789   2.386 -1.7995 -0.7724  1.5254
   14MOL0     H 1876   9.837   6.986   2.569  0.6149  0.7459 -0.3627
   14MOL0     H 1877   9.709   7.191   2.611  2.9346 -1.0204 -1.8019
   14MOL0     H 1878   9.723   7.534   2.832 -1.9751 -0.7437 -1.1406
   14MOL0     H 1879   9.825   7.451   2.730 -2.3478  1.3831 -0.7896
   14MOL0     H 1880   9.969   7.511   2.914  0.7937  0.2799  4.6272
   14MOL0     H 1881   9.931   7.340   2.950 -3.4902 -1.4622 -3.6945
   14MOL0     H 1882   9.757   7.415   3.120 -1.1128  1.4725  0.2830
   14MOL0     H 1883   9.810   7.579   3.070  0.4867 -0.5304 -1.1554
   14MOL0     H 1884  10.037   7.520   3.159 -0.0655 -0.6375 -2.4835
   14MOL0     H 1885   9.916   7.508   3.276 -0.5888  1.7913 -1.0179
   14MOL0     H 1886  10.063   7.098   3.217  1.7328 -0.4512 -0.5160
   14MOL0     H 1887   9.790   7.160   3.031  0.1782 -4.1121  1.9510
   14MOL0     H 1888   9.877   6.809   3.044 -1.6214  0.8656 -2.3301
   14MOL0     H 1889  10.011   6.935   3.046  1.2135  1.0203 -1.7038
   14MOL0     H 1890   9.861   6.965   3.124  2.3451 -2.0401  1.8473
   15MOL0     O 1891   2.048   1.621   6.079  0.2506 -1.1733  0.0308
   15MOL0     C 1892   1.993   1.724   6.047  0.2521  0.5166 -0.7412
   15MOL0     O 1893   1.883   1.780   6.112 -0.6289 -0.0379  0.0520
   15MOL0     C 1894   1.857   1.766   6.252  0.5132  0.8157 -0.6889
   15MOL0     C 1895   1.950   1.725   6.345  0.0698 -0.3081  0.0457
   15MOL0     C 1896   1.919   1.718   6.473  0.4867  0.1924 -0.4339
   15MOL0     C 1897   1.796   1.776   6.517  0.3057 -1.3864  0.7705
   15MOL0     O 1898   1.755   1.790   6.647 -0.5394 -0.0919  0.3388
   15MOL0     C 1899   1.848   1.750   6.752  0.9218 -0.2444 -0.3390
   15MOL0     C 1900   1.806   1.811   6.881 -0.5354  0.1013  0.3375
   15MOL0     C 1901   1.695   1.738   6.934  0.7873  0.9774 -0.0475
   15MOL0     C 1902   1.628   1.794   7.058 -0.3601 -0.0104 -0.8756
   15MOL0     C 1903   1.530   1.906   7.039  0.9149 -0.4831  0.2294
   15MOL0     C 1904   1.484   1.956   7.173  0.7426  0.6108 -0.2554
   15MOL0     C 1905   1.570   2.077   7.215  0.1083 -0.0191  0.1667
   15MOL0     C 1906   1.562   2.083   7.369  0.0605 -0.5039  0.9251
   15MOL0     N 1907   1.433   2.110   7.426  0.1905 -0.5745 -0.7361
   15MOL0     C 1908   1.369   2.236   7.415  0.0342  0.8429  0.5187
   15MOL0     C 1909   1.267   2.235   7.497 -1.0591 -0.2499  0.1492
   15MOL0     C 1910   1.161   2.344   7.511  0.6470  0.1335  0.2759
   15MOL0     C 1911   1.192   2.482   7.444 -0.3726  0.4567  0.8138
   15MOL0     C 1912   1.076   2.578   7.470 -0.4959  0.4243  0.0938
   15MOL0     C 1913   1.040   2.651   7.337 -0.4179 -0.1590 -0.4535
   15MOL0     O 1914   0.988   2.547   7.254 -0.1157  0.5518  0.4215
   15MOL0     C 1915   0.951   2.572   7.125  1.0821  0.9339  0.3174
   15MOL0     C 1916   0.895   2.452   7.070 -0.4498 -1.0794 -0.5106
   15MOL0     C 1917   0.847   2.465   6.939 -0.1581  0.7112  0.2695
   15MOL0     C 1918   0.872   2.584   6.861  0.0068 -0.0438 -0.7241
   15MOL0     C 1919   0.812   2.591   6.726 -0.5689  0.1998 -1.1455
   15MOL0     O 1920   0.712   2.495   6.697  1.0993  0.5520  0.0230
   15MOL0     C 1921   0.677   2.477   6.560 -0.0802  0.3773 -0.2215
   15MOL0     C 1922   0.548   2.454   6.530  1.3072 -0.3634 -0.3646
   15MOL0     C 1923   0.509   2.414   6.403 -0.0814 -0.4527  0.1114
   15MOL0     C 1924   0.600   2.384   6.304 -0.7315 -0.9136  0.2760
   15MOL0     O 1925   0.585   2.340   6.178  0.3438  0.4795  0.7288
   15MOL0     C 1926   0.461   2.277   6.140 -0.8540  0.1525 -0.9475
   15MOL0     C 1927   0.476   2.209   6.007  0.4570 -0.4348  0.2162
   15MOL0     C 1928   0.582   2.107   6.008  0.1587  0.3264  0.9781
   15MOL0     C 1929   0.583   2.025   5.874 -0.6130  0.9804 -0.4405
   15MOL0     C 1930   0.629   1.874   5.899 -0.7926  0.1636 -0.2671
   15MOL0     C 1931   0.709   1.816   5.782 -0.2575  0.1470 -0.5106
   15MOL0     C 1932   0.731   1.674   5.783 -0.4979  0.0031 -0.0005
   15MOL0     C 1933   0.788   1.628   5.652  0.2742 -0.6028  0.2980
   15MOL0    Cl 1934   0.935   1.718   5.586  0.2876 -0.3340  0.0007
   15MOL0     C 1935   0.729   2.417   6.334  0.0541  0.4911 -0.3839
   15MOL0     C 1936   0.775   2.462   6.465 -0.0882 -0.2412 -0.0679
   15MOL0     O 1937   0.871   2.663   6.646 -0.5283  0.1619  0.0605
   15MOL0     C 1938   0.935   2.697   6.923 -0.5329 -0.6828 -1.4360
   15MOL0     C 1939   0.966   2.694   7.061 -0.0645  0.2149  0.2456
   15MOL0     N 1940   1.274   2.119   7.572  0.0711 -0.7812  1.0834
   15MOL0     N 1941   1.367   2.051   7.529  0.5441  0.1314 -0.0167
   15MOL0     C 1942   1.703   1.814   6.424  0.2168  0.7138 -0.3450
   15MOL0     C 1943   1.734   1.799   6.290 -0.1751 -0.5420 -0.1177
   15MOL0     C 1944   2.058   1.789   5.928 -0.1115 -0.4220  0.3935
   15MOL0     C 1945   2.180   1.735   5.883  0.6446  0.2730  0.0910
   15MOL0     C 1946   2.238   1.788   5.770 -0.6180 -0.0165  0.4105
   15MOL0     C 1947   2.194   1.900   5.707 -0.3244  0.3350 -0.0622
   15MOL0     O 1948   2.258   1.918   5.591 -0.8337 -0.0295  0.3785
   15MOL0     C 1949   2.205   2.004   5.486 -0.5434 -0.1740  0.5865
   15MOL0     C 1950   2.296   1.992   5.361 -0.7195  1.1755  0.3512
   15MOL0     C 1951   2.267   1.868   5.281  0.4052  0.3012  0.7448
   15MOL0     C 1952   2.182   1.889   5.155  0.3694  0.1785  0.9391
   15MOL0     C 1953   2.265   1.964   5.061  0.6045 -0.0812 -0.5536
   15MOL0     C 1954   2.336   2.016   4.983 -0.0732  0.1399  0.5174
   15MOL0     C 1955   2.082   1.967   5.756 -0.2652 -0.5042  0.2395
   15MOL0     C 1956   2.013   1.913   5.866 -0.2384  0.6010 -0.1916
   15MOL0     C 1957   1.884   1.975   5.907  1.8170  0.0049  0.0360
   15MOL0     H 1958   2.053   1.706   6.318  0.6572 -0.5606  2.2722
   15MOL0     H 1959   1.994   1.674   6.538  1.1959  1.4825 -0.3404
   15MOL0     H 1960   1.824   1.643   6.758 -2.1031  0.3794  0.6912
   15MOL0     H 1961   1.957   1.756   6.742  0.9567  0.0704  0.2179
   15MOL0     H 1962   1.776   1.913   6.856 -0.4346  0.1955  0.5971
   15MOL0     H 1963   1.880   1.808   6.962  1.7095  0.3658 -1.5928
   15MOL0     H 1964   1.731   1.638   6.961 -2.1246 -1.1200 -3.1110
   15MOL0     H 1965   1.615   1.718   6.863 -0.4376  1.8619  1.0284
   15MOL0     H 1966   1.585   1.705   7.105  1.4604 -2.2219 -3.1137
   15MOL0     H 1967   1.699   1.837   7.130 -0.8595 -0.7427  0.0773
   15MOL0     H 1968   1.564   1.988   6.975  0.6421  0.7139  1.5846
   15MOL0     H 1969   1.439   1.870   6.990  0.1680 -0.5303  1.6165
   15MOL0     H 1970   1.378   1.977   7.183  0.4656 -1.1003  0.8885
   15MOL0     H 1971   1.494   1.869   7.239 -1.0654  0.2909 -0.3564
   15MOL0     H 1972   1.542   2.176   7.178  3.0289  1.2715  1.1021
   15MOL0     H 1973   1.674   2.059   7.185  0.1684  0.0337  0.3429
   15MOL0     H 1974   1.591   1.987   7.414 -0.7480 -1.1091  0.2075
   15MOL0     H 1975   1.636   2.149   7.414  0.4701  0.4439 -1.0491
   15MOL0     H 1976   1.407   2.312   7.348  0.1815 -0.4964 -0.9929
   15MOL0     H 1977   1.079   2.303   7.452 -1.3232  1.0524  2.2285
   15MOL0     H 1978   1.135   2.353   7.617  2.1786 -0.2046  0.7106
   15MOL0     H 1979   1.280   2.530   7.487 -0.8388  1.5567  0.5640
   15MOL0     H 1980   1.208   2.466   7.337 -0.5060 -2.3193  1.1204
   15MOL0     H 1981   1.116   2.643   7.549 -1.6352  1.7296 -0.3551
   15MOL0     H 1982   0.986   2.534   7.514  1.0433 -3.1228  0.0276
   15MOL0     H 1983   1.130   2.702   7.302  0.6485 -0.5795  1.5335
   15MOL0     H 1984   0.964   2.727   7.358  2.0594  1.9227  1.5268
   15MOL0     H 1985   0.884   2.365   7.133  0.7187 -0.8858 -0.0025
   15MOL0     H 1986   0.788   2.383   6.900 -2.3558  1.6149  1.4768
   15MOL0     H 1987   0.467   2.461   6.602  1.4092  0.6450 -0.3351
   15MOL0     H 1988   0.405   2.403   6.372  0.9520  0.3351 -4.4154
   15MOL0     H 1989   0.431   2.203   6.215 -2.4524  0.5048 -1.2087
   15MOL0     H 1990   0.382   2.352   6.137 -0.4332  0.5656 -2.7384
   15MOL0     H 1991   0.377   2.174   5.974  0.4944  1.5769 -2.2973
   15MOL0     H 1992   0.488   2.287   5.932 -1.8676  3.0154  3.1157
   15MOL0     H 1993   0.675   2.163   6.010 -0.5763  1.7044 -0.6463
   15MOL0     H 1994   0.553   2.047   6.095 -0.4283 -3.1850 -1.4241
   15MOL0     H 1995   0.658   2.083   5.818  1.8595 -0.7303  0.9110
   15MOL0     H 1996   0.495   2.020   5.810  0.5415 -2.4167 -1.9942
   15MOL0     H 1997   0.540   1.815   5.923 -0.3453  0.6149  3.0944
   15MOL0     H 1998   0.691   1.867   5.990 -2.2146  1.1682  0.8263
   15MOL0     H 1999   0.649   1.839   5.694 -0.8015 -0.2774 -0.2585
   15MOL0     H 2000   0.803   1.869   5.763 -0.2029  0.0098 -0.6297
   15MOL0     H 2001   0.633   1.630   5.807 -0.7194  0.3722 -0.2295
   15MOL0     H 2002   0.798   1.651   5.867 -0.9605  2.3014  1.0607
   15MOL0     H 2003   0.823   1.526   5.674 -0.2990 -0.3770  2.5453
   15MOL0     H 2004   0.719   1.627   5.567 -0.2239 -1.9019  0.6941
   15MOL0     H 2005   0.796   2.405   6.249 -0.2356 -1.5837 -0.3719
   15MOL0     H 2006   0.881   2.480   6.481 -0.5445  2.0291  0.7575
   15MOL0     H 2007   0.957   2.791   6.873 -3.7699  0.2540 -1.2922
   15MOL0     H 2008   1.012   2.778   7.113  5.2959 -1.8368 -0.6164
   15MOL0     H 2009   1.601   1.832   6.459 -1.0572 -0.9164 -2.8994
   15MOL0     H 2010   1.667   1.814   6.206  1.0101 -0.5711 -1.1032
   15MOL0     H 2011   2.206   1.638   5.924 -0.3719 -0.6770 -1.3819
   15MOL0     H 2012   2.320   1.728   5.728 -0.9852  0.8365 -1.6462
   15MOL0     H 2013   2.218   2.106   5.525 -1.5490 -1.0476  3.4695
   15MOL0     H 2014   2.101   1.992   5.454  0.1010 -0.3713 -1.5484
   15MOL0     H 2015   2.399   1.994   5.399 -0.1897  2.2985 -1.0290
   15MOL0     H 2016   2.281   2.080   5.297  0.1675  1.0571 -0.0281
   15MOL0     H 2017   2.237   1.787   5.348  1.7637 -0.3973  0.5487
   15MOL0     H 2018   2.361   1.823   5.247  0.8623  0.4658  1.7377
   15MOL0     H 2019   2.146   1.796   5.110 -0.8818  0.5313  1.1875
   15MOL0     H 2020   2.088   1.938   5.183  1.3725  2.5391  0.4053
   15MOL0     H 2021   2.398   2.071   4.915  2.8249 -1.0508  2.0247
   15MOL0     H 2022   2.048   2.059   5.708 -1.7968 -0.2481  1.7087
   15MOL0     H 2023   1.798   1.910   5.890  0.4389  2.5876 -4.4881
   15MOL0     H 2024   1.894   2.014   6.009  1.2910 -0.5649  0.3137
   15MOL0     H 2025   1.862   2.061   5.843 -1.4583 -1.1473 -0.5667
   16MOL0     O 2026   1.201   5.602   1.047 -0.0538 -0.5167  0.3190
   16MOL0     C 2027   1.140   5.500   1.063  0.1752 -0.1193  0.4352
   16MOL0     O 2028   1.086   5.423   0.959 -0.1016 -0.5654 -0.7094
   16MOL0     C 2029   1.097   5.445   0.824 -0.0155 -0.1289 -0.9314
   16MOL0     C 2030   1.038   5.339   0.746  0.0141 -0.3949  0.2807
   16MOL0     C 2031   1.030   5.345   0.607 -0.0734 -0.5063 -0.2944
   16MOL0     C 2032   1.079   5.465   0.544 -0.3180 -0.6849 -0.2746
   16MOL0     O 2033   1.074   5.471   0.407 -0.0077  0.5693  0.8854
   16MOL0     C 2034   1.163   5.556   0.330  0.6736 -0.0318  0.6840
   16MOL0     C 2035   1.149   5.520   0.179 -0.3766 -0.9890  0.2589
   16MOL0     C 2036   0.993   5.545   0.132 -0.2600  1.0894  0.1931
   16MOL0     C 2037   0.991   5.597  -0.017  0.9775 -0.7108  0.6564
   16MOL0     C 2038   0.883   5.544  -0.116 -1.3641 -0.0936 -0.2076
   16MOL0     C 2039   0.932   5.565  -0.256 -0.4011  0.4014 -0.6132
   16MOL0     C 2040   0.954   5.718  -0.287 -0.6451  0.4518  1.1266
   16MOL0     C 2041   1.114   5.747  -0.306  0.6624  0.4357 -0.4765
   16MOL0     N 2042   1.172   5.687  -0.425  0.9531  0.3888 -0.6313
   16MOL0     C 2043   1.302   5.694  -0.450 -0.8254  0.9405  0.5485
   16MOL0     C 2044   1.322   5.632  -0.570  0.6891  0.5242 -0.6331
   16MOL0     C 2045   1.448   5.607  -0.624  0.9270 -0.1049 -0.0951
   16MOL0     C 2046   1.538   5.507  -0.552 -0.0402 -0.4950 -0.2308
   16MOL0     C 2047   1.488   5.366  -0.555 -0.2162 -0.0334  0.0143
   16MOL0     C 2048   1.615   5.281  -0.545  0.3822  0.0633 -1.1371
   16MOL0     O 2049   1.695   5.287  -0.661 -0.4358  0.5299  0.5153
   16MOL0     C 2050   1.668   5.195  -0.760 -0.1155 -0.8601 -0.5273
   16MOL0     C 2051   1.650   5.057  -0.735 -0.1282  1.3731  0.1027
   16MOL0     C 2052   1.639   4.959  -0.839 -0.4119  0.2218  0.6156
   16MOL0     C 2053   1.634   5.008  -0.969  1.0465 -0.3830  0.6039
   16MOL0     C 2054   1.604   4.919  -1.087 -0.7542  0.3946 -0.7730
   16MOL0     O 2055   1.591   4.786  -1.066 -0.6390  0.7338  0.9074
   16MOL0     C 2056   1.528   4.718  -1.170 -0.4104  0.0159  0.1946
   16MOL0     C 2057   1.591   4.665  -1.288 -0.1304 -0.4808 -0.2902
   16MOL0     C 2058   1.503   4.597  -1.380 -0.2931  0.1331 -0.3189
   16MOL0     C 2059   1.364   4.581  -1.354 -0.1402 -0.1256 -1.1531
   16MOL0     O 2060   1.291   4.509  -1.443 -1.1983  0.0017 -0.6561
   16MOL0     C 2061   1.250   4.378  -1.407 -0.0091 -0.4043 -0.8694
   16MOL0     C 2062   1.271   4.275  -1.523  0.9855  0.2298  0.1857
   16MOL0     C 2063   1.284   4.121  -1.470 -0.9858 -0.9071  0.0188
   16MOL0     C 2064   1.408   4.090  -1.387 -0.2802 -0.9208  0.2125
   16MOL0     C 2065   1.420   3.940  -1.347 -0.0006 -0.0652  0.3637
   16MOL0     C 2066   1.534   3.869  -1.411  0.3057  0.3862  0.4531
   16MOL0     C 2067   1.592   3.745  -1.348  0.7090 -0.2626 -0.6652
   16MOL0     C 2068   1.703   3.698  -1.430 -0.1092  0.4589  0.2841
   16MOL0    Cl 2069   1.781   3.549  -1.362  0.5547 -0.1542 -0.1302
   16MOL0     C 2070   1.310   4.634  -1.228  0.2190  0.4953  0.0976
   16MOL0     C 2071   1.398   4.690  -1.142  0.6898 -0.3381  0.7351
   16MOL0     O 2072   1.566   4.968  -1.191 -0.5213 -0.0716 -0.3185
   16MOL0     C 2073   1.643   5.144  -0.993  0.0756  0.0114 -0.6246
   16MOL0     C 2074   1.670   5.235  -0.893  0.1245  0.4612 -0.3822
   16MOL0     N 2075   1.199   5.590  -0.619  0.7363  0.1969  0.1107
   16MOL0     N 2076   1.104   5.621  -0.526 -0.0701 -0.7266 -1.0558
   16MOL0     C 2077   1.126   5.573   0.621 -0.6478 -0.6863  1.2487
   16MOL0     C 2078   1.131   5.562   0.762  0.8971  0.7585 -0.0148
   16MOL0     C 2079   1.107   5.455   1.205 -0.4131 -0.1092 -0.0969
   16MOL0     C 2080   1.104   5.548   1.307 -0.9357  0.0743 -0.7147
   16MOL0     C 2081   1.071   5.509   1.440  0.9148 -0.1875  0.3468
   16MOL0     C 2082   1.043   5.376   1.465  0.3429 -0.3043 -1.0117
   16MOL0     O 2083   1.014   5.355   1.596  0.8789  0.3132  0.1041
   16MOL0     C 2084   0.977   5.227   1.647  0.1641  0.3507 -0.4542
   16MOL0     C 2085   0.997   5.218   1.804 -0.1311 -0.2732 -0.3299
   16MOL0     C 2086   0.916   5.329   1.881 -0.1139 -0.0064 -0.8554
   16MOL0     C 2087   0.970   5.356   2.026  0.0356  1.0371  0.3397
   16MOL0     C 2088   0.913   5.245   2.102 -0.1351  0.0892 -0.0001
   16MOL0     C 2089   0.855   5.176   2.176 -0.6293  0.2254 -1.1036
   16MOL0     C 2090   1.048   5.287   1.360  0.1947 -0.9737  0.0568
   16MOL0     C 2091   1.073   5.319   1.241 -0.0114 -1.8902  0.9644
   16MOL0     C 2092   1.095   5.204   1.141 -0.1633 -0.2041 -0.6261
   16MOL0     H 2093   0.994   5.247   0.782 -2.3417  0.1119 -1.1073
   16MOL0     H 2094   0.985   5.256   0.564 -2.0126 -0.5387  1.6188
   16MOL0     H 2095   1.133   5.661   0.337 -1.7787 -0.3259 -2.9315
   16MOL0     H 2096   1.264   5.534   0.368 -0.5733 -2.7104  2.7382
   16MOL0     H 2097   1.204   5.427   0.165  3.1311  0.7239  1.3493
   16MOL0     H 2098   1.204   5.596   0.124 -2.0185  1.2984  1.5909
   16MOL0     H 2099   0.946   5.616   0.201  1.0091  0.9811  1.2236
   16MOL0     H 2100   0.939   5.451   0.122 -1.0671  1.4757  0.7642
   16MOL0     H 2101   1.004   5.706  -0.008  2.7009 -0.9810  2.1912
   16MOL0     H 2102   1.084   5.557  -0.057 -0.4096 -4.4543  0.8434
   16MOL0     H 2103   0.889   5.437  -0.098  2.1574 -0.0314 -0.2968
   16MOL0     H 2104   0.783   5.584  -0.097 -1.4643 -0.8299  0.9115
   16MOL0     H 2105   1.027   5.512  -0.253 -0.3826  0.4222 -0.8329
   16MOL0     H 2106   0.871   5.511  -0.329 -1.5667 -1.7066  1.7373
   16MOL0     H 2107   0.905   5.782  -0.214 -2.7873 -1.6724  1.6755
   16MOL0     H 2108   0.906   5.736  -0.384  3.7152  4.6785 -0.7024
   16MOL0     H 2109   1.110   5.856  -0.308  0.1079  0.4446  0.3043
   16MOL0     H 2110   1.167   5.709  -0.218  0.8415 -0.2546 -0.8748
   16MOL0     H 2111   1.376   5.744  -0.387 -0.7056  3.1988 -1.2750
   16MOL0     H 2112   1.432   5.562  -0.722 -0.7151  0.2112  0.0109
   16MOL0     H 2113   1.500   5.699  -0.651 -0.4248  2.1329  3.9731
   16MOL0     H 2114   1.642   5.508  -0.588  0.8640 -1.8501  2.1031
   16MOL0     H 2115   1.547   5.536  -0.447  1.2331 -0.3726 -0.3602
   16MOL0     H 2116   1.431   5.338  -0.643 -1.6114 -1.8982  1.4210
   16MOL0     H 2117   1.416   5.356  -0.473 -3.3549  2.4627 -2.1913
   16MOL0     H 2118   1.587   5.177  -0.523 -2.4917  1.3421  2.3540
   16MOL0     H 2119   1.678   5.318  -0.463 -1.3780  1.1957 -0.2376
   16MOL0     H 2120   1.649   5.030  -0.630  3.0765 -0.8486 -0.2957
   16MOL0     H 2121   1.619   4.857  -0.809 -0.8588 -0.6203 -2.1744
   16MOL0     H 2122   1.699   4.674  -1.295 -0.0122 -0.5767  1.1083
   16MOL0     H 2123   1.541   4.557  -1.473  1.9592  1.7666 -0.1839
   16MOL0     H 2124   1.297   4.332  -1.320 -0.6282 -0.3684 -0.5111
   16MOL0     H 2125   1.146   4.394  -1.377  0.5047  1.8987 -0.1212
   16MOL0     H 2126   1.197   4.288  -1.604  2.6734 -0.8102 -1.6172
   16MOL0     H 2127   1.364   4.301  -1.574  0.5140 -0.4598 -1.0919
   16MOL0     H 2128   1.191   4.097  -1.418 -0.4293  2.2129  2.7857
   16MOL0     H 2129   1.285   4.059  -1.560 -0.6940  1.2916 -1.5725
   16MOL0     H 2130   1.405   4.141  -1.291 -1.6215 -0.2649 -0.1529
   16MOL0     H 2131   1.503   4.112  -1.435 -0.1430 -0.9808  0.4557
   16MOL0     H 2132   1.328   3.885  -1.373 -0.6315  2.4554 -3.6146
   16MOL0     H 2133   1.436   3.944  -1.239  2.2525  1.1297  0.0305
   16MOL0     H 2134   1.513   3.854  -1.517  0.2589  0.8475  0.3938
   16MOL0     H 2135   1.619   3.938  -1.401  0.6060 -0.1504  1.8816
   16MOL0     H 2136   1.521   3.663  -1.336 -0.1964  0.6626  0.4690
   16MOL0     H 2137   1.627   3.763  -1.247  1.8167 -2.6456 -0.5501
   16MOL0     H 2138   1.675   3.678  -1.534 -0.0442  3.3444 -0.3490
   16MOL0     H 2139   1.787   3.768  -1.437  1.2550 -1.2466 -3.2453
   16MOL0     H 2140   1.206   4.642  -1.199  0.1909  0.8186 -0.0823
   16MOL0     H 2141   1.357   4.722  -1.047  0.4695 -1.0027  0.8667
   16MOL0     H 2142   1.639   5.184  -1.093 -0.5681  1.8439  0.0826
   16MOL0     H 2143   1.688   5.336  -0.929 -0.5043  0.7614  0.1228
   16MOL0     H 2144   1.154   5.668   0.576  1.3445 -1.8092 -0.0136
   16MOL0     H 2145   1.161   5.651   0.817 -0.7374  2.1135 -1.2041
   16MOL0     H 2146   1.121   5.652   1.283  1.0162  0.0949  0.5591
   16MOL0     H 2147   1.075   5.578   1.523 -0.4333  0.2974  0.0478
   16MOL0     H 2148   1.042   5.148   1.608  0.3510 -0.1647  0.8448
   16MOL0     H 2149   0.871   5.205   1.632  0.5283 -2.1967  0.2271
   16MOL0     H 2150   1.103   5.218   1.832 -0.3694  3.3984  1.2015
   16MOL0     H 2151   0.955   5.119   1.822 -2.1452  0.2166 -1.8650
   16MOL0     H 2152   0.814   5.292   1.887 -1.4768  3.6252  1.8648
   16MOL0     H 2153   0.919   5.420   1.821  3.3791  0.6391  0.0688
   16MOL0     H 2154   1.078   5.341   2.040 -0.2036  1.7320  3.5995
   16MOL0     H 2155   0.934   5.452   2.063 -1.3667  1.5825 -2.1719
   16MOL0     H 2156   0.786   5.122   2.238 -2.4133  0.0866 -3.0717
   16MOL0     H 2157   1.033   5.183   1.387 -0.7767 -1.0167 -0.6009
   16MOL0     H 2158   1.012   5.202   1.069 -2.2484  0.7513  1.6243
   16MOL0     H 2159   1.191   5.227   1.093  2.2711 -0.0135  3.8283
   16MOL0     H 2160   1.100   5.108   1.193 -0.9408 -0.2099 -0.5480
   17MOL0     O 2161   1.810   8.286   4.680  0.1445 -0.7016  0.0454
   17MOL0     C 2162   1.916   8.344   4.674  0.0784 -0.2566  0.0007
   17MOL0     O 2163   1.951   8.451   4.596  0.6546 -0.1500  0.2294
   17MOL0     C 2164   1.862   8.522   4.523 -0.7871  0.3942 -0.2990
   17MOL0     C 2165   1.731   8.541   4.577  0.1844 -0.2483  0.7329
   17MOL0     C 2166   1.626   8.599   4.497 -0.2842  0.9030 -0.6475
   17MOL0     C 2167   1.667   8.665   4.376  0.0141  0.1492 -0.8756
   17MOL0     O 2168   1.603   8.755   4.301  0.0281  0.4044 -0.3611
   17MOL0     C 2169   1.521   8.846   4.370 -0.3038  0.3764 -0.4771
   17MOL0     C 2170   1.483   8.970   4.285 -0.3360 -0.0128  0.3682
   17MOL0     C 2171   1.357   8.933   4.211  0.8596 -0.1886  0.0551
   17MOL0     C 2172   1.304   9.049   4.121  0.1698  0.4978 -0.0404
   17MOL0     C 2173   1.398   9.076   3.998  0.1534 -1.0889  0.0634
   17MOL0     C 2174   1.338   9.166   3.894 -0.9352 -0.6028 -0.8036
   17MOL0     C 2175   1.449   9.192   3.784 -0.9491 -0.4374 -0.7374
   17MOL0     C 2176   1.409   9.294   3.676 -0.5288 -0.1184 -0.2725
   17MOL0     N 2177   1.379   9.424   3.744 -0.2697 -1.0284 -0.1653
   17MOL0     C 2178   1.270   9.503   3.743 -0.1119  0.2440  0.3747
   17MOL0     C 2179   1.291   9.608   3.823  0.1791 -0.1019 -0.4932
   17MOL0     C 2180   1.205   9.734   3.841  0.2433  0.0656 -0.6652
   17MOL0     C 2181   1.092   9.691   3.947  0.3423  0.3341  0.1102
   17MOL0     C 2182   0.972   9.782   3.951  0.4853 -0.8754 -0.8406
   17MOL0     C 2183   0.855   9.736   4.037 -0.6982  0.1068  0.4653
   17MOL0     O 2184   0.913   9.744   4.173 -1.2660  0.3696 -0.6381
   17MOL0     C 2185   0.827   9.715   4.273  0.5230 -0.9896 -0.3742
   17MOL0     C 2186   0.893   9.713   4.390 -0.3095  0.4552 -0.9709
   17MOL0     C 2187   0.829   9.710   4.511 -0.0147 -0.0546  0.0772
   17MOL0     C 2188   0.689   9.693   4.524  0.7655  0.1051  0.1277
   17MOL0     C 2189   0.624   9.687   4.652  0.2121  0.6066 -0.9439
   17MOL0     O 2190   0.709   9.702   4.754 -0.2660 -0.2613 -0.1143
   17MOL0     C 2191   0.678   9.685   4.881  0.7274 -0.1452 -0.4977
   17MOL0     C 2192   0.761   9.597   4.949  0.3030  0.7322 -0.5529
   17MOL0     C 2193   0.737   9.556   5.083  0.2478  0.3100  0.4105
   17MOL0     C 2194   0.648   9.627   5.163  0.5645 -1.1707  0.6878
   17MOL0     O 2195   0.637   9.581   5.293  0.1444 -0.5666  0.7837
   17MOL0     C 2196   0.632   9.687   5.388  0.3060 -0.6340 -0.2303
   17MOL0     C 2197   0.774   9.707   5.440  0.1431  0.2340 -0.1429
   17MOL0     C 2198   0.852   9.581   5.491 -0.3179  0.3548  1.2636
   17MOL0     C 2199   0.976   9.556   5.413 -0.3849 -0.1174 -0.1007
   17MOL0     C 2200   1.106   9.596   5.506  0.2655 -1.0044 -0.3238
   17MOL0     C 2201   1.223   9.659   5.434  0.0204  0.0142 -0.9379
   17MOL0     C 2202   1.322   9.721   5.534  0.2530 -0.2565  0.1945
   17MOL0     C 2203   1.457   9.774   5.479  0.4041  0.2326 -0.5337
   17MOL0    Cl 2204   1.550   9.868   5.600  0.1850  0.2436  1.0559
   17MOL0     C 2205   0.547   9.711   5.097 -0.2959  0.9622 -0.0666
   17MOL0     C 2206   0.572   9.736   4.956 -0.6497 -0.0048  0.1541
   17MOL0     O 2207   0.506   9.652   4.660 -0.5329  0.0909  0.6964
   17MOL0     C 2208   0.617   9.695   4.396  0.0409 -0.0302  0.5294
   17MOL0     C 2209   0.688   9.714   4.277  0.0995  0.3264  0.5571
   17MOL0     N 2210   1.424   9.599   3.864  0.4073 -0.1194  0.2762
   17MOL0     N 2211   1.474   9.493   3.811  0.5110  0.0870 -0.0949
   17MOL0     C 2212   1.802   8.661   4.336  0.5268  0.0802  0.5892
   17MOL0     C 2213   1.894   8.586   4.400  0.3692  0.3661  0.1024
   17MOL0     C 2214   2.027   8.274   4.743 -0.0624  0.0623  0.3251
   17MOL0     C 2215   2.153   8.273   4.683 -0.1751  0.2342 -0.1772
   17MOL0     C 2216   2.256   8.197   4.736 -0.8797  0.3940  0.3881
   17MOL0     C 2217   2.242   8.134   4.862 -0.3929 -0.8250 -0.4373
   17MOL0     O 2218   2.341   8.071   4.926  0.0745 -0.0640  0.3647
   17MOL0     C 2219   2.346   7.930   4.898  0.1767 -0.9004 -0.7008
   17MOL0     C 2220   2.483   7.878   4.952 -0.5711  0.5707  0.3723
   17MOL0     C 2221   2.468   7.864   5.105  0.2847 -0.3589 -0.9245
   17MOL0     C 2222   2.576   7.793   5.174  0.2083 -0.0987 -0.0458
   17MOL0     C 2223   2.709   7.853   5.132 -0.3970 -1.0320  0.9576
   17MOL0     C 2224   2.814   7.899   5.087 -0.2527  0.8623 -0.2412
   17MOL0     C 2225   2.125   8.151   4.935 -0.0452 -0.7441 -0.1194
   17MOL0     C 2226   2.018   8.217   4.871 -0.6479 -0.2476 -0.2151
   17MOL0     C 2227   1.884   8.222   4.952  0.1266  0.2511 -0.0274
   17MOL0     H 2228   1.709   8.495   4.673  1.2149 -0.6356  0.8052
   17MOL0     H 2229   1.522   8.602   4.528 -0.0466 -0.3716  0.3534
   17MOL0     H 2230   1.424   8.805   4.401 -0.4918  2.7916  2.6490
   17MOL0     H 2231   1.570   8.883   4.461  1.1556 -2.7754  0.1841
   17MOL0     H 2232   1.562   8.992   4.212 -2.0664  0.6305 -1.4021
   17MOL0     H 2233   1.461   9.056   4.348 -1.1518  0.5937 -0.7128
   17MOL0     H 2234   1.275   8.902   4.277 -0.2284  0.0547 -1.1470
   17MOL0     H 2235   1.373   8.841   4.155  0.6237  0.4009 -1.0273
   17MOL0     H 2236   1.201   9.025   4.093  0.6243  1.0263 -2.2889
   17MOL0     H 2237   1.301   9.140   4.182 -0.3197  0.1005  0.5400
   17MOL0     H 2238   1.494   9.112   4.035  0.9912 -1.9194 -1.2305
   17MOL0     H 2239   1.423   8.983   3.947 -1.5918 -0.8334 -1.3755
   17MOL0     H 2240   1.247   9.134   3.844  0.0094 -2.6793 -1.2812
   17MOL0     H 2241   1.318   9.264   3.939 -1.5738 -1.0146 -0.1581
   17MOL0     H 2242   1.480   9.105   3.727 -0.0203  1.3699 -3.1656
   17MOL0     H 2243   1.537   9.231   3.837 -0.9201 -2.2128  0.5990
   17MOL0     H 2244   1.489   9.308   3.603  0.3860 -1.9161  0.3334
   17MOL0     H 2245   1.318   9.261   3.626 -1.7135  1.8579  0.4447
   17MOL0     H 2246   1.176   9.487   3.691 -0.0994  1.3056  0.0075
   17MOL0     H 2247   1.268   9.817   3.873  3.2256 -0.9998 -3.3161
   17MOL0     H 2248   1.169   9.751   3.739  1.5797  0.0066 -1.1617
   17MOL0     H 2249   1.053   9.597   3.907  2.1101  0.0643 -1.0606
   17MOL0     H 2250   1.134   9.688   4.048  2.4658  2.0574 -0.6657
   17MOL0     H 2251   0.934   9.790   3.848  1.8923 -0.0475 -1.3176
   17MOL0     H 2252   0.995   9.885   3.982  2.4256 -1.3799 -0.5326
   17MOL0     H 2253   0.830   9.637   3.998  1.1855  0.9076 -3.2814
   17MOL0     H 2254   0.769   9.803   4.032 -2.8420 -2.2770  2.5017
   17MOL0     H 2255   1.000   9.698   4.392  0.2234  3.3355  2.3320
   17MOL0     H 2256   0.900   9.705   4.593  0.9486 -1.8209 -0.7969
   17MOL0     H 2257   0.849   9.548   4.910  1.3504  0.1475  2.3276
   17MOL0     H 2258   0.803   9.486   5.132 -0.3087 -0.6563 -0.1985
   17MOL0     H 2259   0.600   9.786   5.352  0.4565  0.1498  1.6548
   17MOL0     H 2260   0.562   9.659   5.467  2.8775  1.1489  2.9069
   17MOL0     H 2261   0.829   9.765   5.365 -2.0219  2.1239 -0.3780
   17MOL0     H 2262   0.782   9.771   5.527  2.1283 -0.8140  0.5087
   17MOL0     H 2263   0.878   9.603   5.595  1.6284  1.9370  0.5129
   17MOL0     H 2264   0.795   9.488   5.492 -1.4089  0.9933  2.4862
   17MOL0     H 2265   0.978   9.619   5.324 -3.3893  2.5121  1.4955
   17MOL0     H 2266   0.982   9.452   5.379 -0.3326  0.8298 -3.2908
   17MOL0     H 2267   1.137   9.502   5.552  2.2429  0.0731  0.7273
   17MOL0     H 2268   1.073   9.661   5.587 -0.9731 -1.3789 -0.5034
   17MOL0     H 2269   1.270   9.578   5.378 -3.0254 -2.4579 -0.2827
   17MOL0     H 2270   1.181   9.738   5.371  0.5659  0.5843 -0.5987
   17MOL0     H 2271   1.345   9.654   5.617 -0.0126  1.9900  2.1803
   17MOL0     H 2272   1.277   9.809   5.581  0.8196  0.6584 -0.9139
   17MOL0     H 2273   1.499   9.673   5.477 -1.0428 -0.3872 -1.1184
   17MOL0     H 2274   1.454   9.820   5.380 -1.8957  1.5108  0.0721
   17MOL0     H 2275   0.463   9.750   5.152 -1.4312 -2.6570  1.0661
   17MOL0     H 2276   0.498   9.788   4.897  0.0950 -1.6386 -2.3913
   17MOL0     H 2277   0.512   9.669   4.385 -0.1879  1.1332 -0.2880
   17MOL0     H 2278   0.637   9.722   4.182  0.8677  1.0368  0.1848
   17MOL0     H 2279   1.829   8.705   4.241 -0.0969  1.2838  0.9489
   17MOL0     H 2280   1.994   8.568   4.362  0.2796  0.4993 -0.1950
   17MOL0     H 2281   2.163   8.312   4.582 -0.7945 -1.0017 -0.7247
   17MOL0     H 2282   2.350   8.194   4.682 -0.0825 -1.5513  1.7768
   17MOL0     H 2283   2.325   7.921   4.791 -0.6050  1.2330 -0.7915
   17MOL0     H 2284   2.262   7.888   4.953  1.2772  0.2031  2.0118
   17MOL0     H 2285   2.564   7.943   4.920  1.6384 -0.7471  2.8119
   17MOL0     H 2286   2.511   7.782   4.907  1.8345  1.9679 -1.3013
   17MOL0     H 2287   2.372   7.818   5.133  0.6362 -0.5900 -0.0645
   17MOL0     H 2288   2.467   7.965   5.148  1.1322  1.2433 -4.3712
   17MOL0     H 2289   2.565   7.798   5.283 -1.8212 -0.1589 -0.1995
   17MOL0     H 2290   2.575   7.687   5.151  0.1111 -0.9377  3.3170
   17MOL0     H 2291   2.898   7.946   5.040  1.6410 -0.1150  1.9500
   17MOL0     H 2292   2.123   8.111   5.036 -1.6607 -2.1666 -0.6680
   17MOL0     H 2293   1.885   8.184   5.055 -1.4360  4.3974  1.7023
   17MOL0     H 2294   1.858   8.327   4.944 -3.2581 -0.5801 -2.0320
   17MOL0     H 2295   1.798   8.170   4.907 -3.4136  3.3903  2.5356
   18MOL0     O 2296   9.272   0.269   6.363  0.1035  0.1379  0.1021
   18MOL0     C 2297   9.189   0.207   6.430 -0.4364 -0.6223 -0.3660
   18MOL0     O 2298   9.188   0.069   6.461  0.2023  0.7684  0.3359
   18MOL0     C 2299   9.270  -0.026   6.397 -0.8641  0.4869 -0.2488
   18MOL0     C 2300   9.291  -0.037   6.258  0.2556  0.0204  0.0147
   18MOL0     C 2301   9.378  -0.134   6.202 -0.2694  0.8688  0.8368
   18MOL0     C 2302   9.432  -0.239   6.281 -0.3431 -0.6005  0.4038
   18MOL0     O 2303   9.524  -0.330   6.230  1.0028  0.1793 -0.0656
   18MOL0     C 2304   9.513  -0.466   6.276  0.6121 -0.5505 -0.2020
   18MOL0     C 2305   9.564  -0.533   6.158  1.2399 -1.1313  1.7670
   18MOL0     C 2306   9.453  -0.582   6.056 -0.2733 -0.4257 -0.7699
   18MOL0     C 2307   9.369  -0.464   6.009  0.5851  0.4547 -0.1702
   18MOL0     C 2308   9.438  -0.360   5.911 -0.1402  0.4769  0.4893
   18MOL0     C 2309   9.446  -0.423   5.767 -0.2308 -0.0904  0.3321
   18MOL0     C 2310   9.512  -0.325   5.670 -0.2234 -0.2721  0.2534
   18MOL0     C 2311   9.395  -0.232   5.607 -0.4616  0.9733  0.7036
   18MOL0     N 2312   9.439  -0.118   5.525 -0.4947  0.0317  0.4301
   18MOL0     C 2313   9.470   0.006   5.573 -0.3101  0.1153  0.0889
   18MOL0     C 2314   9.450   0.087   5.464 -0.9422  0.2226  0.4265
   18MOL0     C 2315   9.464   0.232   5.438  1.1348  0.3245 -0.9988
   18MOL0     C 2316   9.334   0.292   5.398  0.7036 -0.1069 -1.1568
   18MOL0     C 2317   9.240   0.278   5.517  0.8997  0.6853 -0.9792
   18MOL0     C 2318   9.135   0.394   5.545  0.2028  1.2341 -0.0526
   18MOL0     O 2319   9.191   0.513   5.607 -0.1473  0.8707 -0.0290
   18MOL0     C 2320   9.183   0.634   5.542 -0.8495  0.0558 -0.5220
   18MOL0     C 2321   9.160   0.644   5.407 -0.8553  0.1286 -0.2418
   18MOL0     C 2322   9.143   0.772   5.345  0.0267  0.1659 -0.6545
   18MOL0     C 2323   9.143   0.891   5.425  0.6724  0.1476  0.1601
   18MOL0     C 2324   9.159   1.021   5.351 -0.6638  1.0612 -0.5189
   18MOL0     O 2325   9.164   1.016   5.209 -0.6794  0.5287 -0.7322
   18MOL0     C 2326   9.186   1.116   5.111 -0.5900 -0.6807  0.3990
   18MOL0     C 2327   9.252   1.242   5.140 -0.6815 -0.8203  0.0874
   18MOL0     C 2328   9.261   1.350   5.047 -0.2837  0.6122 -0.9517
   18MOL0     C 2329   9.207   1.337   4.919  0.1772 -0.4225 -0.1859
   18MOL0     O 2330   9.198   1.432   4.824 -0.2632 -0.0161  0.0709
   18MOL0     C 2331   9.236   1.564   4.862 -0.7637 -1.1296  0.8583
   18MOL0     C 2332   9.241   1.657   4.736  0.1739 -0.1060 -0.3290
   18MOL0     C 2333   9.181   1.800   4.779  0.3294 -0.2119 -0.3771
   18MOL0     C 2334   9.277   1.872   4.869 -0.7219 -0.2497  0.2165
   18MOL0     C 2335   9.259   2.022   4.898  0.9223 -0.1480 -1.3328
   18MOL0     C 2336   9.237   2.102   4.759 -0.7004 -0.6984 -0.5039
   18MOL0     C 2337   9.361   2.067   4.670  0.1305  1.2752  0.5180
   18MOL0     C 2338   9.412   2.171   4.588 -0.0800 -0.7366 -0.1457
   18MOL0    Cl 2339   9.298   2.249   4.478  0.4614  0.2875 -0.3772
   18MOL0     C 2340   9.148   1.217   4.882  0.7528  0.5826  0.1127
   18MOL0     C 2341   9.140   1.105   4.981  0.3278  0.0397 -0.0990
   18MOL0     O 2342   9.160   1.118   5.422  0.0131  0.5977  0.2069
   18MOL0     C 2343   9.157   0.878   5.568  0.8106 -0.4278  0.3327
   18MOL0     C 2344   9.178   0.752   5.617  0.6088  0.0798 -0.2883
   18MOL0     N 2345   9.422   0.003   5.356  0.3637  0.1509  0.3527
   18MOL0     N 2346   9.417  -0.119   5.397 -0.0438  0.2807 -0.1695
   18MOL0     C 2347   9.418  -0.232   6.423  1.0614  0.3259  0.2689
   18MOL0     C 2348   9.339  -0.125   6.481  0.7922  0.3021  0.4606
   18MOL0     C 2349   9.079   0.286   6.508  0.0960  0.1869  0.5766
   18MOL0     C 2350   9.019   0.220   6.616 -0.5293 -1.1411 -0.0398
   18MOL0     C 2351   8.912   0.283   6.689 -1.1296  0.7787 -0.4937
   18MOL0     C 2352   8.870   0.415   6.666 -0.1923  1.1935 -1.5804
   18MOL0     O 2353   8.782   0.460   6.751  0.7397  0.0466  0.2162
   18MOL0     C 2354   8.662   0.487   6.685  0.5026  0.0115  0.4996
   18MOL0     C 2355   8.558   0.491   6.784 -0.6147  0.0368  0.8775
   18MOL0     C 2356   8.443   0.580   6.741  0.0657  0.0504  0.2376
   18MOL0     C 2357   8.359   0.510   6.634  0.2264  0.4888  0.4573
   18MOL0     C 2358   8.245   0.576   6.570 -0.0965 -0.1006 -0.1110
   18MOL0     C 2359   8.152   0.631   6.520 -0.1795 -0.8507 -0.1509
   18MOL0     C 2360   8.935   0.489   6.569 -0.4721 -0.0262 -0.6100
   18MOL0     C 2361   9.043   0.425   6.492  0.0465  0.5497 -0.8734
   18MOL0     C 2362   9.108   0.514   6.394  0.0117 -0.4695  0.7634
   18MOL0     H 2363   9.242   0.032   6.190 -1.5802  1.0547  2.2580
   18MOL0     H 2364   9.416  -0.134   6.101  0.7096 -0.2900  1.1808
   18MOL0     H 2365   9.580  -0.472   6.362 -0.2607  0.5810  0.5873
   18MOL0     H 2366   9.411  -0.491   6.307  1.0745 -2.4726 -0.1437
   18MOL0     H 2367   9.615  -0.629   6.174  0.9282 -1.6835 -0.2645
   18MOL0     H 2368   9.636  -0.470   6.107 -2.2418  1.5911 -0.2525
   18MOL0     H 2369   9.387  -0.645   6.116  2.8978 -2.8942  0.3799
   18MOL0     H 2370   9.487  -0.645   5.973  0.5438  0.4219 -1.0935
   18MOL0     H 2371   9.278  -0.500   5.961 -0.2403 -0.5423  1.9888
   18MOL0     H 2372   9.326  -0.411   6.095 -4.9623 -1.0244 -1.5933
   18MOL0     H 2373   9.376  -0.270   5.914 -0.1573  0.4753  0.2662
   18MOL0     H 2374   9.537  -0.333   5.948  0.8772  0.0438 -1.7415
   18MOL0     H 2375   9.501  -0.516   5.761 -3.3588 -1.9999 -2.7473
   18MOL0     H 2376   9.347  -0.447   5.726  0.7268  1.2559 -3.1424
   18MOL0     H 2377   9.562  -0.379   5.588  0.9136  1.5940 -0.3433
   18MOL0     H 2378   9.597  -0.271   5.712 -0.9212  3.3116 -2.4652
   18MOL0     H 2379   9.347  -0.298   5.534  0.4178  0.5345  0.5033
   18MOL0     H 2380   9.320  -0.208   5.682 -1.8833 -1.7753  0.2969
   18MOL0     H 2381   9.495   0.040   5.673 -3.0025  1.9885  0.2216
   18MOL0     H 2382   9.488   0.283   5.532 -1.7736  2.0070 -1.0498
   18MOL0     H 2383   9.543   0.252   5.365  0.0141  2.8031 -1.6621
   18MOL0     H 2384   9.349   0.399   5.377 -1.4429  0.2364 -1.1541
   18MOL0     H 2385   9.293   0.236   5.313 -1.6013 -1.0831  0.4942
   18MOL0     H 2386   9.285   0.262   5.616  4.1337  1.3072 -2.2340
   18MOL0     H 2387   9.191   0.185   5.487 -0.0311  0.2214  1.6571
   18MOL0     H 2388   9.068   0.358   5.624  1.7866  0.6670  1.0732
   18MOL0     H 2389   9.074   0.392   5.454  0.8979 -0.8780 -0.5251
   18MOL0     H 2390   9.166   0.561   5.337  3.1681  1.3619 -1.6434
   18MOL0     H 2391   9.151   0.771   5.237  0.1540 -1.5403 -0.6482
   18MOL0     H 2392   9.283   1.251   5.244 -1.5509 -1.9355  0.4617
   18MOL0     H 2393   9.306   1.443   5.083 -2.3407  0.7003  1.6486
   18MOL0     H 2394   9.157   1.592   4.932 -1.1209 -0.0676  0.0538
   18MOL0     H 2395   9.333   1.568   4.912  0.1800  1.1304 -0.9850
   18MOL0     H 2396   9.346   1.673   4.708  0.8965  0.6955  2.4690
   18MOL0     H 2397   9.185   1.617   4.651  1.9388  1.3927 -2.3060
   18MOL0     H 2398   9.158   1.851   4.685  0.1993 -2.7177 -1.7927
   18MOL0     H 2399   9.091   1.778   4.837  1.2944 -1.6160  0.6268
   18MOL0     H 2400   9.376   1.861   4.822 -1.9338  0.2758 -2.6614
   18MOL0     H 2401   9.284   1.822   4.966  1.2195  1.0209  0.7789
   18MOL0     H 2402   9.352   2.050   4.950  0.5106 -3.0577  1.2596
   18MOL0     H 2403   9.177   2.051   4.963  2.3495 -1.7485  1.3830
   18MOL0     H 2404   9.142   2.072   4.713 -1.0741  1.7249 -1.4518
   18MOL0     H 2405   9.246   2.209   4.778  0.1607 -0.8993  0.2606
   18MOL0     H 2406   9.324   1.983   4.612 -1.4253  0.5513  2.4134
   18MOL0     H 2407   9.442   2.031   4.733  1.5137  3.1486 -0.1115
   18MOL0     H 2408   9.452   2.241   4.662 -2.3507  0.0475  0.4106
   18MOL0     H 2409   9.497   2.129   4.533  1.8522  1.0960  1.2397
   18MOL0     H 2410   9.100   1.212   4.785 -0.9569  0.3450  0.9339
   18MOL0     H 2411   9.092   1.014   4.945  1.7093  0.8404 -4.6702
   18MOL0     H 2412   9.149   0.954   5.645  1.8640 -2.6563  2.8366
   18MOL0     H 2413   9.178   0.739   5.724 -0.1452 -0.7687 -0.3766
   18MOL0     H 2414   9.460  -0.311   6.484  0.8998 -0.5354 -0.7166
   18MOL0     H 2415   9.339  -0.108   6.588 -0.6324 -1.3033  0.7573
   18MOL0     H 2416   9.049   0.118   6.639 -1.0817 -0.7333  2.8450
   18MOL0     H 2417   8.875   0.232   6.777 -1.6090 -0.6518 -1.4930
   18MOL0     H 2418   8.640   0.413   6.607 -1.0898 -0.5386  1.4138
   18MOL0     H 2419   8.674   0.588   6.645  0.0329 -0.8869 -2.1621
   18MOL0     H 2420   8.603   0.524   6.878  0.9970  0.8336 -0.1181
   18MOL0     H 2421   8.510   0.394   6.798 -0.7265 -0.6513 -3.0834
   18MOL0     H 2422   8.474   0.679   6.704 -2.9861  1.7585  1.8072
   18MOL0     H 2423   8.380   0.617   6.823  1.8872 -1.8891  2.6710
   18MOL0     H 2424   8.431   0.490   6.555 -0.0326 -2.4536  0.8547
   18MOL0     H 2425   8.318   0.417   6.676  4.2400 -2.3161 -1.2383
   18MOL0     H 2426   8.071   0.689   6.482 -0.2940 -0.8505  0.0926
   18MOL0     H 2427   8.902   0.590   6.551 -0.8896 -0.0015  0.2487
   18MOL0     H 2428   9.047   0.603   6.377 -1.1390 -1.5030 -0.8345
   18MOL0     H 2429   9.209   0.537   6.429  1.1650 -1.0141 -1.9108
   18MOL0     H 2430   9.108   0.472   6.293  1.1419 -2.1089  1.4203
   19MOL0     O 2431   7.045   3.551  10.445  0.0060 -0.3301 -0.1533
   19MOL0     C 2432   6.929   3.560  10.486 -0.1650 -0.2906 -0.2246
   19MOL0     O 2433   6.877   3.665  10.558 -0.9395 -0.0215  0.0613
   19MOL0     C 2434   6.941   3.719  10.668 -0.0833  0.2033  0.6924
   19MOL0     C 2435   6.866   3.804  10.751 -0.6565  0.7650 -0.0610
   19MOL0     C 2436   6.917   3.867  10.863  0.1842 -0.1334 -0.8109
   19MOL0     C 2437   7.055   3.848  10.896 -1.2061  0.2970  0.9882
   19MOL0     O 2438   7.095   3.918  11.008  0.4062 -0.0549 -0.0870
   19MOL0     C 2439   7.239   3.947  11.016  0.1526 -0.5825  0.7835
   19MOL0     C 2440   7.294   4.025  11.133  0.1741 -0.3440 -1.3064
   19MOL0     C 2441   7.279   3.943  11.268  0.3644 -0.6443  0.2080
   19MOL0     C 2442   7.400   3.853  11.300 -0.2766 -0.5072 -0.7764
   19MOL0     C 2443   7.377   3.773  11.428  1.1119 -0.2586  0.3704
   19MOL0     C 2444   7.407   3.853  11.556  1.0461 -0.2910  0.1564
   19MOL0     C 2445   7.561   3.852  11.567  0.5149  0.0273 -0.0621
   19MOL0     C 2446   7.600   3.885  11.715 -1.0027 -0.0504 -0.0691
   19MOL0     N 2447   7.629   3.768  11.796  0.7048  0.0046  1.0651
   19MOL0     C 2448   7.571   3.643  11.789 -0.0311 -0.1529 -0.2857
   19MOL0     C 2449   7.629   3.571  11.882  0.0863  0.6639 -0.4188
   19MOL0     C 2450   7.600   3.419  11.900  0.5860 -0.0265  0.1094
   19MOL0     C 2451   7.721   3.326  11.894 -0.7349  0.8458  0.0907
   19MOL0     C 2452   7.706   3.186  11.948  0.4336  0.5238  0.5535
   19MOL0     C 2453   7.833   3.105  11.914  1.0178  0.0243  0.9467
   19MOL0     O 2454   7.924   3.148  12.014  0.4465  0.2175 -0.4983
   19MOL0     C 2455   8.062   3.111  12.001  0.0082 -0.0045 -0.2473
   19MOL0     C 2456   8.144   3.153  12.103 -0.8448  0.7475 -0.6370
   19MOL0     C 2457   8.286   3.121  12.109  0.5483  0.5003  1.2524
   19MOL0     C 2458   8.341   3.026  12.013 -0.4078 -0.3758 -1.3831
   19MOL0     C 2459   8.483   2.969  12.031  0.6492 -0.1247  0.0435
   19MOL0     O 2460   8.566   3.033  12.120  0.2104 -0.5202 -0.3362
   19MOL0     C 2461   8.694   2.984  12.132 -0.0473  0.0078  0.3021
   19MOL0     C 2462   8.725   2.848  12.177 -0.0491  0.5461 -0.0668
   19MOL0     C 2463   8.864   2.806  12.189  0.3456 -0.7920 -0.4249
   19MOL0     C 2464   8.968   2.901  12.155 -0.2342  0.1785 -0.3082
   19MOL0     O 2465   9.104   2.867  12.149  0.4792 -0.4990 -0.3532
   19MOL0     C 2466   9.140   2.729  12.177  0.5307  0.2111 -0.7602
   19MOL0     C 2467   9.275   2.700  12.112  0.9247  0.1624 -0.1571
   19MOL0     C 2468   9.399   2.774  12.160  0.4685 -0.0824 -0.3948
   19MOL0     C 2469   9.520   2.695  12.119 -0.4393  0.5013  0.5278
   19MOL0     C 2470   9.597   2.734  11.987  0.7964 -0.0801  0.0116
   19MOL0     C 2471   9.704   2.849  11.996  0.9790  0.1316  0.7935
   19MOL0     C 2472   9.758   2.888  11.850 -0.1008  0.4431 -1.6766
   19MOL0     C 2473   9.658   2.983  11.788 -0.2947  0.5726  0.4906
   19MOL0    Cl 2474   9.723   3.122  11.712  0.0444 -0.1291 -0.1109
   19MOL0     C 2475   8.930   3.034  12.126 -0.2265 -0.8205 -0.0505
   19MOL0     C 2476   8.795   3.070  12.111 -0.0064 -1.1185  0.0504
   19MOL0     O 2477   8.515   2.881  11.946  0.0229 -0.6583 -0.0697
   19MOL0     C 2478   8.255   2.993  11.900  0.4952 -0.3127  0.2474
   19MOL0     C 2479   8.119   3.040  11.891 -0.0028 -0.2947  0.1144
   19MOL0     N 2480   7.714   3.647  11.957  0.1536 -0.4287  0.0900
   19MOL0     N 2481   7.716   3.764  11.907  0.0956  0.4829 -0.2176
   19MOL0     C 2482   7.129   3.746  10.822  0.2674  0.4302  0.8990
   19MOL0     C 2483   7.072   3.688  10.708 -0.6412  0.8390 -0.5084
   19MOL0     C 2484   6.841   3.470  10.407  0.1948  0.9332 -0.4118
   19MOL0     C 2485   6.744   3.520  10.326 -0.2350  0.3203 -0.2818
   19MOL0     C 2486   6.653   3.442  10.246  0.1394 -0.1696 -0.1006
   19MOL0     C 2487   6.653   3.304  10.266  0.4047 -0.2827  0.7891
   19MOL0     O 2488   6.573   3.208  10.203 -0.0994  0.7671 -0.3655
   19MOL0     C 2489   6.496   3.247  10.090 -0.0302  0.6502  0.5937
   19MOL0     C 2490   6.424   3.127  10.038 -0.0789  0.3645  0.4342
   19MOL0     C 2491   6.359   3.175   9.903 -0.3767  0.3069 -0.4731
   19MOL0     C 2492   6.215   3.186   9.907 -0.0219 -0.5164 -0.1957
   19MOL0     C 2493   6.155   3.268  10.016 -0.4488 -0.5061 -0.7723
   19MOL0     C 2494   6.113   3.340  10.105  0.8100  0.9242  0.0289
   19MOL0     C 2495   6.750   3.251  10.339  0.8442  0.9967 -0.8268
   19MOL0     C 2496   6.830   3.327  10.421 -0.2213  0.2924 -0.8417
   19MOL0     C 2497   6.924   3.249  10.518  0.8015 -0.1331  0.2614
   19MOL0     H 2498   6.758   3.806  10.751 -0.7667 -0.6254  2.6254
   19MOL0     H 2499   6.849   3.909  10.936 -0.7808 -1.4351 -0.9187
   19MOL0     H 2500   7.288   3.849  11.010  0.4012 -0.4168 -0.1292
   19MOL0     H 2501   7.271   4.006  10.930 -2.1676  0.9309  0.8827
   19MOL0     H 2502   7.242   4.118  11.159 -0.7115 -0.4357 -2.6567
   19MOL0     H 2503   7.400   4.042  11.111  0.1925  0.2581 -0.7941
   19MOL0     H 2504   7.190   3.880  11.259 -1.2721  1.4513  0.8873
   19MOL0     H 2505   7.272   4.022  11.344  1.7885 -0.5441  0.2534
   19MOL0     H 2506   7.438   3.788  11.220  4.3348 -0.5746  1.1422
   19MOL0     H 2507   7.482   3.922  11.321 -0.8535 -0.5265  1.9174
   19MOL0     H 2508   7.273   3.739  11.424  1.5613 -1.9712  1.8460
   19MOL0     H 2509   7.438   3.683  11.430 -1.2682 -1.9744  1.5274
   19MOL0     H 2510   7.376   3.958  11.555  0.4989 -0.4440  0.5378
   19MOL0     H 2511   7.358   3.810  11.644 -0.5113  0.3948 -0.3367
   19MOL0     H 2512   7.599   3.933  11.504  1.7753 -0.5364 -0.0533
   19MOL0     H 2513   7.605   3.758  11.534 -1.8916 -1.5438  0.9274
   19MOL0     H 2514   7.685   3.949  11.688 -1.7378  1.0970  0.2581
   19MOL0     H 2515   7.517   3.944  11.756  0.0234  0.7587  0.8971
   19MOL0     H 2516   7.516   3.597  11.707 -1.7758  1.1905  0.0695
   19MOL0     H 2517   7.556   3.397  11.998  1.9499  0.6365  0.9058
   19MOL0     H 2518   7.530   3.388  11.823  0.1275 -1.1430  0.9467
   19MOL0     H 2519   7.739   3.325  11.786 -1.6167 -1.3082 -0.0783
   19MOL0     H 2520   7.813   3.376  11.926 -0.0244  0.0594 -0.6591
   19MOL0     H 2521   7.620   3.146  11.894 -0.8378  2.3156  1.1366
   19MOL0     H 2522   7.678   3.177  12.053 -2.5430  1.5814 -0.0405
   19MOL0     H 2523   7.865   3.126  11.812 -1.0455 -1.2508 -0.0377
   19MOL0     H 2524   7.819   2.996  11.915 -0.0653  0.1126 -1.0402
   19MOL0     H 2525   8.100   3.217  12.179  0.0192 -0.0255  0.5548
   19MOL0     H 2526   8.351   3.152  12.190 -2.3852  0.4127  3.8376
   19MOL0     H 2527   8.653   2.769  12.195  0.9940 -0.3969  0.1056
   19MOL0     H 2528   8.890   2.705  12.221  1.1597 -0.2196  0.7738
   19MOL0     H 2529   9.151   2.703  12.283  0.4944 -1.5105 -1.1527
   19MOL0     H 2530   9.068   2.663  12.129  3.2774 -1.4196 -2.9260
   19MOL0     H 2531   9.286   2.592  12.120 -1.2812 -0.0672  0.2750
   19MOL0     H 2532   9.262   2.720  12.005  2.4143  0.6901 -0.2681
   19MOL0     H 2533   9.404   2.880  12.133  0.8122  0.5183  1.8311
   19MOL0     H 2534   9.401   2.783  12.269  3.0553 -0.6341 -0.3573
   19MOL0     H 2535   9.500   2.588  12.126 -0.0102  0.2372 -1.5397
   19MOL0     H 2536   9.596   2.699  12.198  0.5977 -2.6413 -0.1642
   19MOL0     H 2537   9.526   2.770  11.912  1.4304  2.7021  0.6551
   19MOL0     H 2538   9.660   2.650  11.953  2.6515  0.6356  1.5225
   19MOL0     H 2539   9.660   2.937  12.044  0.3663  0.4757 -0.3645
   19MOL0     H 2540   9.782   2.804  12.059  1.0748  2.0743  2.1673
   19MOL0     H 2541   9.779   2.799  11.790 -0.5837 -3.7920  3.6337
   19MOL0     H 2542   9.856   2.936  11.858 -0.3661  0.7687  0.4018
   19MOL0     H 2543   9.602   2.930  11.711  1.4109 -0.9744  0.2324
   19MOL0     H 2544   9.598   3.023  11.870  1.0221  0.3525  1.5906
   19MOL0     H 2545   9.014   3.093  12.089 -0.6476 -1.3918 -2.0333
   19MOL0     H 2546   8.755   3.162  12.069 -1.4730 -1.5352  0.4967
   19MOL0     H 2547   8.290   2.935  11.815  0.3023 -0.0687  0.0015
   19MOL0     H 2548   8.066   3.021  11.798 -2.0080  2.2238  0.6351
   19MOL0     H 2549   7.223   3.707  10.858  2.0208 -0.5872 -4.0483
   19MOL0     H 2550   7.128   3.608  10.660 -2.1383 -0.9026  0.5333
   19MOL0     H 2551   6.737   3.628  10.320  1.8745  0.5046 -0.4694
   19MOL0     H 2552   6.576   3.487  10.184  3.9278  2.7200 -3.1591
   19MOL0     H 2553   6.562   3.284  10.011  0.5146  2.1510  1.7151
   19MOL0     H 2554   6.424   3.326  10.111 -1.8490 -0.1931 -1.9982
   19MOL0     H 2555   6.360   3.079  10.113  0.4085 -3.2100 -1.2595
   19MOL0     H 2556   6.486   3.042  10.012 -3.0701 -2.0248  0.5411
   19MOL0     H 2557   6.386   3.103   9.825  2.6499  0.1159  0.5812
   19MOL0     H 2558   6.407   3.258   9.851 -2.2057  0.4631 -1.9879
   19MOL0     H 2559   6.173   3.210   9.809 -0.2649 -5.4537 -1.5787
   19MOL0     H 2560   6.184   3.081   9.916 -0.3327 -0.4429 -0.3993
   19MOL0     H 2561   6.064   3.397  10.182 -1.9847 -1.8451  0.4974
   19MOL0     H 2562   6.752   3.143  10.353  2.1009  1.3226  2.4219
   19MOL0     H 2563   6.866   3.186  10.586 -1.8004  2.2849  0.4384
   19MOL0     H 2564   6.989   3.189  10.453 -1.2589  1.2733 -3.4070
   19MOL0     H 2565   6.991   3.313  10.575 -0.7315  1.7896 -0.0132
   20MOL0     O 2566   9.289  10.416   5.518 -0.1531 -0.2865  0.7151
   20MOL0     C 2567   9.171  10.401   5.566 -0.4827  0.0656 -0.3610
   20MOL0     O 2568   9.063  10.455   5.520  0.0747 -0.0925  1.2585
   20MOL0     C 2569   9.070  10.535   5.411  0.5288  0.1144  0.4296
   20MOL0     C 2570   9.160  10.642   5.392 -0.4168  0.5043  0.0759
   20MOL0     C 2571   9.132  10.738   5.296 -0.0318  1.2186  1.4224
   20MOL0     C 2572   9.017  10.731   5.213 -0.2190 -0.3934  0.4569
   20MOL0     O 2573   8.977  10.823   5.117 -0.5438  0.8132  0.0166
   20MOL0     C 2574   9.060  10.943   5.099  0.3373 -0.6022  0.5338
   20MOL0     C 2575   9.005  11.019   4.981 -0.0283  0.1030 -0.2334
   20MOL0     C 2576   9.085  11.145   4.954  0.3592 -0.3434  0.0519
   20MOL0     C 2577   9.101  11.163   4.805 -0.6086  0.9432  0.3643
   20MOL0     C 2578   9.185  11.286   4.791 -0.0450 -0.0024 -0.0826
   20MOL0     C 2579   9.196  11.320   4.634 -0.9040  0.2736 -0.5611
   20MOL0     C 2580   9.261  11.211   4.555 -0.3331  0.5757  0.4461
   20MOL0     C 2581   9.260  11.246   4.396 -0.4454  0.2725 -0.4916
   20MOL0     N 2582   9.247  11.129   4.304 -0.6530  0.8043  0.9717
   20MOL0     C 2583   9.352  11.070   4.242  0.5034  0.4477  0.3861
   20MOL0     C 2584   9.306  10.951   4.191  0.7925  0.0326  0.2467
   20MOL0     C 2585   9.379  10.845   4.110  0.7184 -0.0630 -1.1132
   20MOL0     C 2586   9.385  10.707   4.172  0.1375  0.2081 -0.3847
   20MOL0     C 2587   9.425  10.597   4.076  0.8166  1.3132  0.0510
   20MOL0     C 2588   9.533  10.503   4.136 -0.3746 -0.1278  1.1777
   20MOL0     O 2589   9.542  10.384   4.057 -0.5641  0.0437 -0.1725
   20MOL0     C 2590   9.600  10.388   3.934  0.4498 -0.4133  0.1290
   20MOL0     C 2591   9.574  10.286   3.843 -0.0962 -0.2487 -0.2965
   20MOL0     C 2592   9.635  10.275   3.718  0.1121 -0.9335 -0.3801
   20MOL0     C 2593   9.731  10.368   3.679 -0.3606  1.5486  0.6094
   20MOL0     C 2594   9.797  10.356   3.548 -0.3656 -0.0451  0.9046
   20MOL0     O 2595   9.872  10.248   3.508 -0.3675 -0.8914  0.2583
   20MOL0     C 2596   9.867  10.134   3.577  0.4414  0.2206 -0.1188
   20MOL0     C 2597   9.918  10.113   3.706 -0.0544 -0.6048  0.3617
   20MOL0     C 2598   9.915   9.990   3.765 -0.3266 -0.1817 -1.0596
   20MOL0     C 2599   9.845   9.886   3.708  0.1990 -0.1239 -0.1344
   20MOL0     O 2600   9.829   9.783   3.790  0.8509 -0.2624 -0.1072
   20MOL0     C 2601   9.727   9.689   3.760  0.2772 -0.5139  0.0883
   20MOL0     C 2602   9.701   9.609   3.882  0.5960 -1.2269  0.2749
   20MOL0     C 2603   9.639   9.697   4.001 -0.7783  0.3110  0.1735
   20MOL0     C 2604   9.634   9.605   4.125  1.2306 -0.7082 -0.4436
   20MOL0     C 2605   9.605   9.676   4.257 -0.5351 -0.7009 -0.6328
   20MOL0     C 2606   9.690   9.599   4.361  0.5805  0.6470  0.8074
   20MOL0     C 2607   9.673   9.658   4.500  0.5098  0.7455 -1.0793
   20MOL0     C 2608   9.800   9.605   4.580 -1.4656  0.0458  1.2734
   20MOL0    Cl 2609   9.812   9.422   4.591 -0.1338 -0.4176  0.1210
   20MOL0     C 2610   9.798   9.901   3.573  0.2304 -0.2085  0.8319
   20MOL0     C 2611   9.813  10.026   3.514  1.6078 -0.1081 -0.0777
   20MOL0     O 2612   9.774  10.454   3.477  0.1773 -0.4489 -0.2222
   20MOL0     C 2613   9.761  10.477   3.772  0.5413  0.0135 -0.7769
   20MOL0     C 2614   9.702  10.487   3.897 -0.0122  0.7141  0.4991
   20MOL0     N 2615   9.169  10.953   4.206  0.3036  0.4094  0.0196
   20MOL0     N 2616   9.138  11.052   4.277  0.1323 -0.1274 -0.1748
   20MOL0     C 2617   8.942  10.610   5.217 -0.3825 -0.2642  0.3973
   20MOL0     C 2618   8.960  10.523   5.325 -1.3582 -0.3075 -1.3579
   20MOL0     C 2619   9.168  10.338   5.699 -0.4170  0.1751 -0.8327
   20MOL0     C 2620   9.258  10.236   5.725 -0.7858  0.2845 -1.0713
   20MOL0     C 2621   9.257  10.156   5.834  0.3573  0.3345  0.2966
   20MOL0     C 2622   9.163  10.183   5.932  0.4364  0.6167  0.2533
   20MOL0     O 2623   9.164  10.091   6.037 -0.0246 -0.1722  0.8314
   20MOL0     C 2624   9.076  10.118   6.150  0.2335  0.9154 -0.3195
   20MOL0     C 2625   9.071  10.001   6.245  0.3751  0.9932 -0.1791
   20MOL0     C 2626   8.993  10.031   6.380  0.3997 -0.1932 -0.7664
   20MOL0     C 2627   8.997   9.892   6.451 -0.3426 -0.6493  0.2694
   20MOL0     C 2628   9.132   9.872   6.508 -0.0488  0.3829  0.2935
   20MOL0     C 2629   9.247   9.842   6.542 -0.0442 -0.0996  0.2917
   20MOL0     C 2630   9.067  10.286   5.915 -0.0199 -0.0222  0.0277
   20MOL0     C 2631   9.072  10.373   5.801 -0.3502 -0.9491 -0.3542
   20MOL0     C 2632   8.967  10.479   5.794 -0.8695 -0.2517  0.6412
   20MOL0     H 2633   9.241  10.656   5.463  1.0043 -1.2472 -1.1027
   20MOL0     H 2634   9.202  10.821   5.297  2.4306 -0.6875 -0.1879
   20MOL0     H 2635   9.052  10.997   5.194 -1.7924 -0.5877  0.3819
   20MOL0     H 2636   9.167  10.926   5.087 -0.0252 -2.5887 -0.2024
   20MOL0     H 2637   8.903  11.038   5.016  0.4261  4.0260 -0.6090
   20MOL0     H 2638   8.989  10.954   4.895 -0.7864  1.1881 -0.9316
   20MOL0     H 2639   9.185  11.154   4.998  0.8068 -3.0150 -0.2588
   20MOL0     H 2640   9.030  11.233   4.990 -0.8788 -1.3109  0.6531
   20MOL0     H 2641   9.145  11.073   4.763  1.9894  1.2671  2.1515
   20MOL0     H 2642   8.997  11.161   4.770 -0.3908 -2.1466 -0.4189
   20MOL0     H 2643   9.141  11.370   4.846  1.2799  0.3698  0.4515
   20MOL0     H 2644   9.287  11.260   4.820 -0.0461  0.7838  0.6705
   20MOL0     H 2645   9.100  11.353   4.595 -1.4244  1.4881  1.5981
   20MOL0     H 2646   9.273  11.397   4.624  0.2570 -0.5197  1.5785
   20MOL0     H 2647   9.196  11.123   4.559  0.9353 -0.3406  1.9318
   20MOL0     H 2648   9.358  11.177   4.591 -0.9909  0.5020  2.2827
   20MOL0     H 2649   9.189  11.323   4.366  3.6143  3.9439 -1.6953
   20MOL0     H 2650   9.360  11.287   4.377  0.8239 -0.9952  2.7166
   20MOL0     H 2651   9.453  11.108   4.251  1.9290 -2.1959 -2.5377
   20MOL0     H 2652   9.328  10.857   4.014 -2.2364  2.4372  0.5980
   20MOL0     H 2653   9.482  10.879   4.101  1.3773 -1.7002 -0.1662
   20MOL0     H 2654   9.466  10.705   4.245 -0.5698 -0.4101  0.4040
   20MOL0     H 2655   9.286  10.690   4.215  0.4428  2.7152  1.4938
   20MOL0     H 2656   9.470  10.654   3.994  0.8835 -0.1216 -0.9422
   20MOL0     H 2657   9.347  10.526   4.048  1.8143  0.3460 -0.3452
   20MOL0     H 2658   9.497  10.479   4.237 -1.9790  3.8929  1.7430
   20MOL0     H 2659   9.631  10.551   4.136  0.3921 -1.6211  0.2768
   20MOL0     H 2660   9.487  10.224   3.862 -0.1226 -0.1779 -0.1834
   20MOL0     H 2661   9.584  10.206   3.651 -1.0909 -1.4864  1.0729
   20MOL0     H 2662   9.964  10.203   3.747  0.8049 -2.2347  3.2795
   20MOL0     H 2663   9.967   9.984   3.860 -2.1342  0.1209  0.0043
   20MOL0     H 2664   9.648   9.759   3.731  1.9165  0.5298 -2.1716
   20MOL0     H 2665   9.757   9.630   3.673 -0.2403 -0.1005 -0.3880
   20MOL0     H 2666   9.623   9.535   3.862  2.5592 -3.1850 -0.6202
   20MOL0     H 2667   9.795   9.561   3.913  1.3420  0.5695  0.9297
   20MOL0     H 2668   9.717   9.771   4.023  2.2465 -2.0471 -1.8190
   20MOL0     H 2669   9.551   9.746   3.959  0.1443  0.5923 -1.5159
   20MOL0     H 2670   9.723   9.541   4.133  1.9192  0.2074 -0.5498
   20MOL0     H 2671   9.547   9.542   4.109 -0.3723  1.4663 -0.7151
   20MOL0     H 2672   9.498   9.679   4.280 -0.1279  1.8595  1.5279
   20MOL0     H 2673   9.639   9.780   4.262  3.2779 -1.7915 -0.4332
   20MOL0     H 2674   9.671   9.492   4.354  0.3577  0.6441  1.4099
   20MOL0     H 2675   9.793   9.614   4.326 -1.4339  4.6827 -4.9061
   20MOL0     H 2676   9.580   9.620   4.544 -1.6611  2.7019 -3.6004
   20MOL0     H 2677   9.661   9.767   4.498 -3.3010  0.6427  2.5629
   20MOL0     H 2678   9.888   9.651   4.534 -1.6346 -0.4808  0.4023
   20MOL0     H 2679   9.818   9.645   4.680  0.7769 -1.7960  1.7105
   20MOL0     H 2680   9.749   9.821   3.518  2.2637 -1.2043  0.3924
   20MOL0     H 2681   9.792  10.035   3.407  3.8847  3.9135 -0.3820
   20MOL0     H 2682   9.837  10.551   3.750 -1.0388  1.4499 -1.5658
   20MOL0     H 2683   9.744  10.570   3.954  4.2035  1.0765 -2.6301
   20MOL0     H 2684   8.856  10.597   5.151 -2.1086  1.1635  2.2714
   20MOL0     H 2685   8.901  10.434   5.344  0.2658 -0.8329  1.9198
   20MOL0     H 2686   9.334  10.223   5.649  0.9367  4.1962 -0.3065
   20MOL0     H 2687   9.312  10.063   5.844  0.8669  0.2302 -2.6105
   20MOL0     H 2688   8.977  10.131   6.105  1.3129 -0.3021 -3.3628
   20MOL0     H 2689   9.106  10.206   6.207 -0.7373 -0.2626  2.1405
   20MOL0     H 2690   9.175   9.977   6.266  0.8661  4.7821  2.9277
   20MOL0     H 2691   9.022   9.920   6.190 -2.8621  1.4057  1.8277
   20MOL0     H 2692   8.893  10.065   6.351  0.1871  1.0735  1.2874
   20MOL0     H 2693   9.025  10.117   6.439 -6.1160  2.7924 -0.7018
   20MOL0     H 2694   8.923   9.903   6.531 -2.3069 -3.5372 -0.9844
   20MOL0     H 2695   8.957   9.813   6.387  0.3008 -0.9845  0.2589
   20MOL0     H 2696   9.341   9.798   6.568  0.0113 -0.7677 -0.9759
   20MOL0     H 2697   8.995  10.299   5.994 -1.9769  1.6461 -1.8995
   20MOL0     H 2698   8.923  10.473   5.894 -0.1929 -1.2106  0.8943
   20MOL0     H 2699   9.007  10.575   5.757  0.5487 -1.9057 -2.5275
   20MOL0     H 2700   8.886  10.455   5.724 -0.9034 -0.7595  0.8541
   21MOL0     O 2701   1.805   5.981   4.355 -0.5414  0.1137 -0.2977
   21MOL0     C 2702   1.748   5.986   4.466 -0.7176 -0.8839 -0.2236
   21MOL0     O 2703   1.647   6.075   4.493 -0.4646  0.0237 -0.8272
   21MOL0     C 2704   1.604   6.154   4.383 -0.3136 -0.4579  0.6871
   21MOL0     C 2705   1.612   6.296   4.387  0.2484 -0.6917  0.0585
   21MOL0     C 2706   1.566   6.370   4.269  0.5129  0.5489 -0.4773
   21MOL0     C 2707   1.498   6.299   4.163 -1.2413 -1.6132  0.1062
   21MOL0     O 2708   1.446   6.372   4.060 -0.0542  0.5264  0.2144
   21MOL0     C 2709   1.500   6.330   3.932 -0.4728  0.3354  0.2272
   21MOL0     C 2710   1.531   6.446   3.834  0.0649  0.1467 -0.2583
   21MOL0     C 2711   1.411   6.505   3.755 -0.0612 -0.5874 -0.0465
   21MOL0     C 2712   1.452   6.611   3.647 -0.2786 -0.5613  1.2972
   21MOL0     C 2713   1.330   6.655   3.571  0.7156 -0.2148 -0.5176
   21MOL0     C 2714   1.367   6.760   3.463  0.0147 -0.2214 -0.2596
   21MOL0     C 2715   1.270   6.759   3.344  0.7828  0.2933 -0.9885
   21MOL0     C 2716   1.280   6.866   3.234 -0.6877 -0.1170 -0.3237
   21MOL0     N 2717   1.409   6.860   3.178 -0.8820 -1.0995  0.4232
   21MOL0     C 2718   1.522   6.929   3.226  0.4528 -0.1395  0.3225
   21MOL0     C 2719   1.625   6.885   3.155 -0.7244  0.1570  0.8076
   21MOL0     C 2720   1.768   6.920   3.197  0.3353  0.2160 -0.0301
   21MOL0     C 2721   1.805   7.055   3.157  0.0058  0.4776 -0.2017
   21MOL0     C 2722   1.810   7.084   3.016  0.1545 -0.1151 -0.9744
   21MOL0     C 2723   1.947   7.052   2.960  0.0008  1.2268  0.0699
   21MOL0     O 2724   1.932   6.934   2.863  0.6872  0.4158 -0.4485
   21MOL0     C 2725   2.020   6.831   2.870 -0.6620  0.7485 -0.7506
   21MOL0     C 2726   2.093   6.795   2.989  0.2955 -0.0095 -0.8575
   21MOL0     C 2727   2.190   6.696   2.989  0.0647  0.1978  0.4465
   21MOL0     C 2728   2.210   6.628   2.869 -0.7781 -0.6049  0.2326
   21MOL0     C 2729   2.311   6.525   2.872  0.3816 -0.5083 -0.3303
   21MOL0     O 2730   2.302   6.437   2.781  1.2911  0.0462 -0.0515
   21MOL0     C 2731   2.373   6.317   2.772 -0.9342 -0.4595  0.3751
   21MOL0     C 2732   2.305   6.226   2.695 -0.0549  0.3082 -0.3351
   21MOL0     C 2733   2.348   6.088   2.689 -0.0301  0.2390  0.3175
   21MOL0     C 2734   2.475   6.048   2.745  0.0873 -0.1445 -1.1943
   21MOL0     O 2735   2.531   5.925   2.742 -0.4224 -0.6133 -0.3024
   21MOL0     C 2736   2.478   5.814   2.651  0.4611  0.0052 -0.1171
   21MOL0     C 2737   2.427   5.708   2.748 -0.4331 -0.4959  0.2738
   21MOL0     C 2738   2.336   5.773   2.852 -0.1422  0.8176 -1.0489
   21MOL0     C 2739   2.285   5.672   2.956 -0.2431 -0.0917 -0.6590
   21MOL0     C 2740   2.182   5.741   3.042  0.1808  0.6637  0.0562
   21MOL0     C 2741   2.101   5.644   3.128  0.2039 -0.0314 -0.3538
   21MOL0     C 2742   2.178   5.559   3.229 -0.6332 -0.6125  0.5306
   21MOL0     C 2743   2.271   5.635   3.322  0.1133 -0.7975 -0.4271
   21MOL0    Cl 2744   2.191   5.737   3.438 -0.0530  0.6789  0.5497
   21MOL0     C 2745   2.534   6.144   2.826  0.3490  0.4827  0.1355
   21MOL0     C 2746   2.491   6.277   2.844  0.3569 -0.3311 -0.5276
   21MOL0     O 2747   2.386   6.521   2.968  0.1751  0.5173  0.5166
   21MOL0     C 2748   2.126   6.650   2.758 -0.4483  0.5624  0.1602
   21MOL0     C 2749   2.036   6.757   2.756 -0.4304 -0.2624 -0.2775
   21MOL0     N 2750   1.571   6.801   3.052 -0.2284 -0.7163 -0.6752
   21MOL0     N 2751   1.446   6.789   3.069 -0.1794 -1.6264  0.6386
   21MOL0     C 2752   1.496   6.156   4.164 -0.0649 -0.3104  0.0213
   21MOL0     C 2753   1.532   6.086   4.283  0.3303 -0.4035 -0.7841
   21MOL0     C 2754   1.759   5.871   4.561  0.3853 -0.5692  0.2149
   21MOL0     C 2755   1.771   5.746   4.504  0.7640 -0.7039  0.5799
   21MOL0     C 2756   1.796   5.635   4.588 -0.4401  0.4670  0.8265
   21MOL0     C 2757   1.817   5.650   4.718  0.4279 -0.5359 -0.9981
   21MOL0     O 2758   1.831   5.542   4.796  0.7772  0.0171 -0.2785
   21MOL0     C 2759   1.940   5.459   4.804 -0.9084 -0.2494  0.7256
   21MOL0     C 2760   1.925   5.364   4.918 -0.0631 -0.0353 -0.2079
   21MOL0     C 2761   1.961   5.441   5.051 -1.2671 -0.1867 -0.0891
   21MOL0     C 2762   1.961   5.338   5.160 -0.2531 -0.0657  0.0009
   21MOL0     C 2763   2.079   5.263   5.142  0.5058 -0.9227 -0.1837
   21MOL0     C 2764   2.175   5.193   5.128 -0.2020  0.9407 -0.4660
   21MOL0     C 2765   1.800   5.773   4.781 -0.2145 -0.3804  0.6668
   21MOL0     C 2766   1.769   5.887   4.704  0.5900 -0.5709 -0.4720
   21MOL0     C 2767   1.751   6.024   4.773 -0.2595  0.5674  0.7796
   21MOL0     H 2768   1.636   6.349   4.478 -2.7435 -2.5892  2.1123
   21MOL0     H 2769   1.572   6.478   4.270 -2.7960  0.8379 -0.9792
   21MOL0     H 2770   1.598   6.284   3.945 -0.0132  1.3513  0.4910
   21MOL0     H 2771   1.427   6.265   3.884 -1.8206  3.6485 -2.6587
   21MOL0     H 2772   1.598   6.406   3.758 -0.3486 -1.2287  0.0729
   21MOL0     H 2773   1.581   6.521   3.897 -0.5208 -0.3481  0.8284
   21MOL0     H 2774   1.342   6.550   3.827  2.6365 -0.0854  2.4227
   21MOL0     H 2775   1.355   6.424   3.707 -0.2265  0.5639 -1.9127
   21MOL0     H 2776   1.502   6.700   3.689 -0.7926  0.1157  0.4981
   21MOL0     H 2777   1.509   6.557   3.570 -1.8094  0.0428 -0.3223
   21MOL0     H 2778   1.291   6.557   3.539 -0.1412 -0.5492  1.3759
   21MOL0     H 2779   1.253   6.696   3.637 -0.3586  0.6235 -2.2089
   21MOL0     H 2780   1.376   6.861   3.505  2.1785 -0.3914 -0.1856
   21MOL0     H 2781   1.463   6.727   3.421 -1.5314 -2.1116 -2.5931
   21MOL0     H 2782   1.167   6.762   3.381  0.8384 -0.6411 -0.7284
   21MOL0     H 2783   1.274   6.667   3.285 -0.2122  1.4823 -3.0511
   21MOL0     H 2784   1.208   6.848   3.153  0.4591 -1.4868 -1.0814
   21MOL0     H 2785   1.255   6.969   3.262  0.3625  0.6115 -1.9390
   21MOL0     H 2786   1.524   7.003   3.306  1.2052 -0.1115  0.2773
   21MOL0     H 2787   1.773   6.924   3.306  1.0854  1.4225 -0.0977
   21MOL0     H 2788   1.837   6.839   3.171 -0.1721 -0.0603 -0.5524
   21MOL0     H 2789   1.742   7.139   3.189 -0.5844  0.6062 -1.6048
   21MOL0     H 2790   1.902   7.084   3.198 -0.4398  3.5649 -1.0224
   21MOL0     H 2791   1.786   7.190   3.003  0.2084  0.2803  1.5809
   21MOL0     H 2792   1.735   7.039   2.951  0.4632  2.1698 -3.0572
   21MOL0     H 2793   2.024   7.024   3.032  0.3227  1.9078 -0.0009
   21MOL0     H 2794   1.988   7.135   2.901  1.8813  1.0736  1.0985
   21MOL0     H 2795   2.083   6.836   3.089  4.0295 -0.7966 -0.0171
   21MOL0     H 2796   2.243   6.666   3.078  1.3155 -3.1774 -1.2632
   21MOL0     H 2797   2.208   6.254   2.655 -1.9895 -1.0943  3.0050
   21MOL0     H 2798   2.300   6.027   2.613 -1.3999  1.9819 -0.2680
   21MOL0     H 2799   2.393   5.838   2.586  1.5805  1.4509 -1.1154
   21MOL0     H 2800   2.559   5.767   2.594  1.8812 -0.8695  2.4766
   21MOL0     H 2801   2.391   5.618   2.698  0.4544 -0.6326 -0.1447
   21MOL0     H 2802   2.510   5.680   2.813 -0.5165 -0.1174  0.5459
   21MOL0     H 2803   2.373   5.862   2.904 -0.7460  1.1378 -1.1577
   21MOL0     H 2804   2.253   5.812   2.792  0.7100  1.0589 -2.1124
   21MOL0     H 2805   2.368   5.637   3.018 -0.2035  1.1252  0.0074
   21MOL0     H 2806   2.246   5.585   2.903  1.4714 -0.9447 -0.5918
   21MOL0     H 2807   2.114   5.805   2.985  1.2591  1.0954 -0.7909
   21MOL0     H 2808   2.230   5.811   3.112  2.3558  0.6842 -1.3421
   21MOL0     H 2809   2.037   5.707   3.191  1.7046  1.5607 -0.3296
   21MOL0     H 2810   2.039   5.583   3.063 -0.3433  1.1899 -1.0188
   21MOL0     H 2811   2.242   5.478   3.190  1.5058  1.8451 -1.4850
   21MOL0     H 2812   2.109   5.495   3.284 -0.0927  0.2996  2.3596
   21MOL0     H 2813   2.328   5.560   3.377  0.5064 -0.1263  0.0955
   21MOL0     H 2814   2.339   5.709   3.280 -0.9435 -0.6345 -1.9100
   21MOL0     H 2815   2.628   6.123   2.876  0.7400  1.9144  0.0468
   21MOL0     H 2816   2.554   6.340   2.906 -0.1865 -0.9693  0.6885
   21MOL0     H 2817   2.155   6.588   2.673 -1.8703 -0.3262  0.2966
   21MOL0     H 2818   1.990   6.785   2.662  2.5962  1.5281 -1.3743
   21MOL0     H 2819   1.472   6.108   4.070  3.5489 -0.0363 -1.2132
   21MOL0     H 2820   1.520   5.979   4.288  0.1319 -0.4390 -1.8921
   21MOL0     H 2821   1.771   5.734   4.396  0.3066  1.7437  0.2441
   21MOL0     H 2822   1.809   5.533   4.553  2.2338 -0.1544  3.3030
   21MOL0     H 2823   2.027   5.525   4.806  0.1425 -1.6050  1.3743
   21MOL0     H 2824   1.959   5.406   4.710  1.7639  1.6798  0.0399
   21MOL0     H 2825   1.986   5.273   4.905 -0.3148 -0.0408 -1.4853
   21MOL0     H 2826   1.825   5.322   4.933  0.4912 -1.0829  0.6419
   21MOL0     H 2827   1.896   5.525   5.076 -0.3681  0.5348 -0.1210
   21MOL0     H 2828   2.057   5.492   5.036  0.3712 -3.2591 -0.9895
   21MOL0     H 2829   1.969   5.382   5.260 -3.3774 -1.1926  0.8449
   21MOL0     H 2830   1.869   5.279   5.154 -1.0167  1.2260 -1.7745
   21MOL0     H 2831   2.266   5.143   5.102 -0.4962 -0.2115  0.5884
   21MOL0     H 2832   1.796   5.777   4.890 -0.6844  1.1677  0.6186
   21MOL0     H 2833   1.736   6.009   4.880  0.3682  0.1168  0.8072
   21MOL0     H 2834   1.827   6.096   4.742 -1.7547  2.6823  1.8211
   21MOL0     H 2835   1.652   6.055   4.738 -0.1641  0.1258  0.1052
   22MOL0     O 2836  10.451   4.579   5.147 -0.6851  0.3185  0.1694
   22MOL0     C 2837  10.478   4.649   5.052  0.0655 -0.2449 -0.0428
   22MOL0     O 2838  10.553   4.602   4.938  0.6463  0.6332 -0.3179
   22MOL0     C 2839  10.519   4.487   4.860  0.2679 -1.1580 -0.1124
   22MOL0     C 2840  10.571   4.477   4.734 -0.0754 -0.0839  0.7811
   22MOL0     C 2841  10.542   4.374   4.649 -0.7943  0.6403 -0.3510
   22MOL0     C 2842  10.450   4.271   4.698  0.5278  0.7443  0.7457
   22MOL0     O 2843  10.428   4.164   4.616 -0.8341  0.4229  0.1481
   22MOL0     C 2844  10.285   4.143   4.589 -0.7254 -0.6501 -0.4865
   22MOL0     C 2845  10.266   4.094   4.444 -0.3401 -0.6051  0.1889
   22MOL0     C 2846  10.108   4.084   4.409  1.3743  0.1130  0.6403
   22MOL0     C 2847  10.085   4.112   4.257  0.1217 -0.7598 -0.3589
   22MOL0     C 2848  10.155   4.008   4.174  0.0064 -0.4902  0.0449
   22MOL0     C 2849  10.097   3.988   4.035 -0.0302  0.5326 -0.3921
   22MOL0     C 2850  10.155   3.895   3.941 -0.2590 -0.2501 -0.2434
   22MOL0     C 2851  10.297   3.942   3.920  0.6056 -0.0812  0.2919
   22MOL0     N 2852  10.366   3.872   3.808  1.0085  0.2469  0.2007
   22MOL0     C 2853  10.331   3.752   3.748 -0.4969 -1.2425 -0.4825
   22MOL0     C 2854  10.413   3.739   3.643 -0.5287 -0.0288 -0.3824
   22MOL0     C 2855  10.415   3.631   3.529 -0.4874 -0.0048 -0.7395
   22MOL0     C 2856  10.536   3.527   3.549  0.3533  0.2338  0.0692
   22MOL0     C 2857  10.538   3.464   3.688  0.0267  0.0660 -0.2864
   22MOL0     C 2858  10.629   3.339   3.703 -0.5680  0.1426  0.2549
   22MOL0     O 2859  10.570   3.219   3.652  0.2317  0.0369  0.6493
   22MOL0     C 2860  10.539   3.118   3.741 -0.2193  0.2213 -0.2317
   22MOL0     C 2861  10.643   3.026   3.768  0.2208  0.7045 -0.1155
   22MOL0     C 2862  10.618   2.928   3.859 -0.0898  0.5440  0.2847
   22MOL0     C 2863  10.492   2.909   3.916  0.2789  0.2400  0.3499
   22MOL0     C 2864  10.475   2.798   4.012  1.0510 -0.8930  0.5712
   22MOL0     O 2865  10.586   2.745   4.065  0.3368  0.1746  0.0353
   22MOL0     C 2866  10.584   2.627   4.138  0.5165 -0.6644  0.3473
   22MOL0     C 2867  10.484   2.588   4.230 -0.9939  0.4837  0.9510
   22MOL0     C 2868  10.480   2.470   4.303  0.3417  0.5131 -0.7155
   22MOL0     C 2869  10.594   2.380   4.285 -0.8119 -0.9440 -0.6105
   22MOL0     O 2870  10.593   2.258   4.347  0.4398  0.8558 -0.0496
   22MOL0     C 2871  10.666   2.152   4.293 -0.2891  0.1221 -0.9370
   22MOL0     C 2872  10.613   2.022   4.359  0.5164 -0.6579  0.7408
   22MOL0     C 2873  10.640   2.013   4.513  1.0611 -0.1998  0.3813
   22MOL0     C 2874  10.588   1.875   4.551 -1.0769  0.0591  0.8180
   22MOL0     C 2875  10.596   1.835   4.700  0.7865  1.2104  0.1066
   22MOL0     C 2876  10.481   1.902   4.778  0.3439  0.7113 -0.2495
   22MOL0     C 2877  10.518   1.900   4.929  0.0907  0.0871  0.5034
   22MOL0     C 2878  10.456   2.017   5.014  0.6244  0.4492  1.1620
   22MOL0    Cl 2879  10.286   1.965   5.054 -0.1249 -0.1908 -0.1656
   22MOL0     C 2880  10.709   2.430   4.217 -0.3880 -0.4614  0.3160
   22MOL0     C 2881  10.709   2.553   4.144  0.1840  0.5740  0.8992
   22MOL0     O 2882  10.362   2.784   4.059  0.8087  0.0778 -0.0389
   22MOL0     C 2883  10.389   2.994   3.875 -0.1142  0.2621 -0.6173
   22MOL0     C 2884  10.408   3.099   3.787 -0.1268  0.7354 -0.0812
   22MOL0     N 2885  10.506   3.843   3.651  0.5875  0.7101 -0.3964
   22MOL0     N 2886  10.474   3.929   3.745 -0.5633  0.2677  0.3225
   22MOL0     C 2887  10.401   4.283   4.822  0.7225 -0.0505  0.0253
   22MOL0     C 2888  10.437   4.388   4.902 -0.0230 -0.3641 -0.4477
   22MOL0     C 2889  10.419   4.798   5.046 -0.9027  1.1765 -0.9563
   22MOL0     C 2890  10.380   4.856   4.926  0.6352  0.4462  0.5126
   22MOL0     C 2891  10.322   4.983   4.912 -0.1590 -0.2304 -0.2518
   22MOL0     C 2892  10.303   5.053   5.036  0.2209  0.3179 -0.0746
   22MOL0     O 2893  10.235   5.177   5.027  0.7514  0.2706  0.8412
   22MOL0     C 2894  10.263   5.279   5.127  0.3563  0.1221 -1.1946
   22MOL0     C 2895  10.123   5.316   5.183  0.8312  0.2902  0.5653
   22MOL0     C 2896  10.024   5.366   5.071  0.2583  0.2655 -0.5360
   22MOL0     C 2897   9.877   5.362   5.123  0.1633 -0.3980  0.0971
   22MOL0     C 2898   9.851   5.455   5.228  0.8032 -0.3425 -0.4013
   22MOL0     C 2899   9.847   5.533   5.330  0.4425 -0.2186 -1.3000
   22MOL0     C 2900  10.344   4.996   5.150 -0.3228  0.1603 -0.1130
   22MOL0     C 2901  10.404   4.871   5.156 -0.0879  0.4426  0.2683
   22MOL0     C 2902  10.436   4.821   5.298  0.6319 -0.1199 -0.5810
   22MOL0     H 2903  10.641   4.552   4.701 -1.3989  1.1248  0.6305
   22MOL0     H 2904  10.601   4.359   4.559  2.0511 -2.5301  1.7668
   22MOL0     H 2905  10.252   4.066   4.660 -1.1312 -0.5025 -0.5137
   22MOL0     H 2906  10.234   4.239   4.600 -0.2559 -0.2478 -1.6641
   22MOL0     H 2907  10.311   3.996   4.428  1.6974  0.6584 -2.8376
   22MOL0     H 2908  10.314   4.171   4.383 -0.6041 -2.5039 -2.5790
   22MOL0     H 2909  10.048   4.145   4.477  0.8460  1.9830 -1.3880
   22MOL0     H 2910  10.067   3.986   4.432 -0.2011  0.3371 -1.0282
   22MOL0     H 2911   9.977   4.119   4.241  0.2041  0.2125 -0.5115
   22MOL0     H 2912  10.117   4.209   4.219 -0.6457  0.5337  2.0470
   22MOL0     H 2913  10.255   4.046   4.154 -1.3689  1.2626 -4.8720
   22MOL0     H 2914  10.163   3.912   4.226  0.5186 -0.5778 -0.1933
   22MOL0     H 2915   9.993   3.958   4.050  0.6888 -1.9771 -0.0675
   22MOL0     H 2916  10.090   4.083   3.980 -0.2987 -0.5694 -2.3363
   22MOL0     H 2917  10.092   3.894   3.851 -0.0268  0.0255 -0.4090
   22MOL0     H 2918  10.148   3.788   3.964 -1.0564 -0.2562 -0.4758
   22MOL0     H 2919  10.315   4.049   3.909  1.2681 -0.1785  0.4280
   22MOL0     H 2920  10.353   3.915   4.010 -0.6967 -0.3701  1.0501
   22MOL0     H 2921  10.258   3.682   3.786 -1.4305 -0.7293 -1.3023
   22MOL0     H 2922  10.321   3.576   3.531 -1.3050  1.1912  3.3621
   22MOL0     H 2923  10.438   3.674   3.431  1.6873 -2.8659 -1.6065
   22MOL0     H 2924  10.523   3.447   3.476  0.4248  1.4657 -1.3516
   22MOL0     H 2925  10.633   3.573   3.523 -0.1325  0.0426 -2.3142
   22MOL0     H 2926  10.437   3.442   3.723 -0.2296  2.6786  0.8607
   22MOL0     H 2927  10.591   3.523   3.762  3.1190 -0.3237 -1.9938
   22MOL0     H 2928  10.670   3.323   3.803  1.3671  3.9361  0.2402
   22MOL0     H 2929  10.719   3.337   3.640 -0.8992 -3.7569 -0.3547
   22MOL0     H 2930  10.745   3.027   3.733  0.5887 -0.5936  0.8324
   22MOL0     H 2931  10.690   2.849   3.881 -0.8095 -1.3185 -3.3421
   22MOL0     H 2932  10.405   2.656   4.262 -3.4973 -1.9119  0.2788
   22MOL0     H 2933  10.406   2.429   4.371  2.5125 -0.7877  1.0048
   22MOL0     H 2934  10.674   2.149   4.184  3.1285  2.4507 -0.9218
   22MOL0     H 2935  10.771   2.167   4.322 -1.4673  1.4759  3.2202
   22MOL0     H 2936  10.507   2.011   4.334  0.3812  2.1871 -0.3269
   22MOL0     H 2937  10.664   1.937   4.314  0.9655 -0.7681  1.4536
   22MOL0     H 2938  10.746   2.026   4.536  1.2693 -1.1666  0.0436
   22MOL0     H 2939  10.578   2.088   4.560  1.2722 -0.0978  0.4979
   22MOL0     H 2940  10.656   1.805   4.502 -2.2502 -1.9768  1.9367
   22MOL0     H 2941  10.488   1.863   4.509 -0.8093  2.3053 -0.5876
   22MOL0     H 2942  10.701   1.856   4.726  1.9655 -1.0694 -2.2942
   22MOL0     H 2943  10.589   1.726   4.705  2.1539  1.1495  1.4265
   22MOL0     H 2944  10.478   2.008   4.753 -0.6928  0.7448 -0.0589
   22MOL0     H 2945  10.382   1.858   4.761  1.9591 -2.9178 -1.3234
   22MOL0     H 2946  10.627   1.907   4.927  0.0622  0.5359  0.5200
   22MOL0     H 2947  10.504   1.799   4.970 -0.0179  0.6778  1.9659
   22MOL0     H 2948  10.512   2.008   5.108 -2.6235 -3.1386  3.0703
   22MOL0     H 2949  10.457   2.118   4.973  0.8742 -0.2402 -0.6076
   22MOL0     H 2950  10.803   2.377   4.207  1.1868  1.6180  2.8139
   22MOL0     H 2951  10.796   2.589   4.090 -0.3692  1.0154  0.2789
   22MOL0     H 2952  10.289   2.990   3.918  0.3640  2.3407  0.8258
   22MOL0     H 2953  10.337   3.180   3.775 -2.3483 -1.1652 -0.4303
   22MOL0     H 2954  10.324   4.213   4.854  0.2403  0.9708  1.1630
   22MOL0     H 2955  10.388   4.400   4.998 -2.2891  0.7213 -1.6495
   22MOL0     H 2956  10.403   4.795   4.840  2.0610 -0.1986  1.3281
   22MOL0     H 2957  10.297   5.026   4.816  0.6446 -1.5985 -1.1074
   22MOL0     H 2958  10.317   5.367   5.092 -1.2137  1.3442 -0.6926
   22MOL0     H 2959  10.327   5.232   5.203  0.0759  0.5343 -0.6954
   22MOL0     H 2960  10.122   5.401   5.251 -0.3728  1.9937 -1.4420
   22MOL0     H 2961  10.076   5.234   5.238 -1.0071  1.0353  0.1676
   22MOL0     H 2962  10.038   5.296   4.988 -0.1000 -0.1663 -0.2305
   22MOL0     H 2963  10.056   5.468   5.047  1.4831  0.6254  2.3140
   22MOL0     H 2964   9.801   5.388   5.048 -2.6259 -1.1290  2.4486
   22MOL0     H 2965   9.850   5.263   5.162  0.4714 -0.0569  1.2252
   22MOL0     H 2966   9.836   5.586   5.423 -0.1829  0.7771 -1.9239
   22MOL0     H 2967  10.327   5.047   5.245 -1.5124  1.4208 -0.9640
   22MOL0     H 2968  10.362   4.748   5.332 -0.5639  1.9991  1.6744
   22MOL0     H 2969  10.535   4.774   5.297  1.4434  1.4836 -1.6697
   22MOL0     H 2970  10.429   4.905   5.368 -0.1131  1.7650 -2.7613
   23MOL0     O 2971   9.910   6.399   1.368 -0.7732 -0.0156 -0.8500
   23MOL0     C 2972   9.983   6.332   1.294 -1.0609 -0.4785  0.1848
   23MOL0     O 2973  10.010   6.363   1.158 -0.3951  0.2129 -0.3152
   23MOL0     C 2974   9.932   6.463   1.106  0.4469 -0.0981 -0.3049
   23MOL0     C 2975   9.967   6.592   1.127  0.0933 -0.0481  0.7623
   23MOL0     C 2976   9.892   6.708   1.077  0.1495  0.4606  0.0536
   23MOL0     C 2977   9.791   6.683   0.987 -0.1871 -0.3163 -0.6130
   23MOL0     O 2978   9.723   6.787   0.916 -0.6814  0.3350  0.1940
   23MOL0     C 2979   9.745   6.919   0.963 -0.1636  0.3582 -0.6321
   23MOL0     C 2980   9.645   6.996   0.882  0.4426  0.3905 -0.8169
   23MOL0     C 2981   9.648   7.145   0.906 -0.4273 -0.6336 -0.1200
   23MOL0     C 2982   9.746   7.221   0.815 -0.3710  0.3637  0.2995
   23MOL0     C 2983   9.898   7.185   0.817  0.0708 -0.4246 -0.4894
   23MOL0     C 2984   9.980   7.240   0.698  0.6636  0.1534 -0.3000
   23MOL0     C 2985  10.120   7.172   0.686 -0.2471 -0.0009 -0.0235
   23MOL0     C 2986  10.195   7.201   0.558 -0.5365  0.4645  0.0212
   23MOL0     N 2987  10.267   7.331   0.552 -0.0912  0.9070 -0.9934
   23MOL0     C 2988  10.318   7.410   0.660  0.8583 -0.7787 -0.1691
   23MOL0     C 2989  10.364   7.522   0.605 -0.1220 -0.4282 -0.0888
   23MOL0     C 2990  10.418   7.646   0.669  0.2906 -0.9155 -1.1463
   23MOL0     C 2991  10.305   7.751   0.670 -0.4391 -0.0234  0.2322
   23MOL0     C 2992  10.340   7.886   0.756  0.4117 -0.0848  0.9316
   23MOL0     C 2993  10.218   7.989   0.784 -0.0343  0.1876  0.3496
   23MOL0     O 2994  10.156   7.966   0.916 -0.1031  0.1788  0.1678
   23MOL0     C 2995  10.072   8.058   0.964 -0.0232  0.0828 -0.2737
   23MOL0     C 2996  10.003   8.009   1.075 -0.3555 -0.0905  0.5135
   23MOL0     C 2997   9.922   8.103   1.134  0.1952  0.3618 -0.4619
   23MOL0     C 2998   9.910   8.238   1.095 -0.8373 -0.6047 -0.2217
   23MOL0     C 2999   9.832   8.328   1.176  0.5991  0.0327 -1.1959
   23MOL0     O 3000   9.805   8.293   1.308  0.2160 -0.2794 -0.4422
   23MOL0     C 3001   9.671   8.293   1.348 -0.4577  1.1456 -0.4170
   23MOL0     C 3002   9.556   8.296   1.269 -0.4489 -0.4262 -0.3513
   23MOL0     C 3003   9.422   8.292   1.318 -0.0719  0.5119 -0.1713
   23MOL0     C 3004   9.407   8.283   1.458  0.5949 -0.0239 -0.5299
   23MOL0     O 3005   9.287   8.298   1.526  0.3883  0.4491 -0.4052
   23MOL0     C 3006   9.170   8.289   1.452 -0.5202  0.1796  0.3332
   23MOL0     C 3007   9.059   8.297   1.556  0.4245  0.1416  0.6322
   23MOL0     C 3008   9.027   8.443   1.568  0.1428 -0.0742  0.9399
   23MOL0     C 3009   8.911   8.457   1.660 -0.2029 -0.7670  0.3798
   23MOL0     C 3010   8.872   8.593   1.706 -0.7125 -0.2938 -0.6907
   23MOL0     C 3011   8.759   8.590   1.813 -0.1265 -0.0616  0.7364
   23MOL0     C 3012   8.622   8.580   1.755  1.1521 -0.4128  0.7687
   23MOL0     C 3013   8.525   8.493   1.835 -0.0074 -0.1677  0.2001
   23MOL0    Cl 3014   8.539   8.558   2.006  0.0561 -0.3596 -0.0522
   23MOL0     C 3015   9.524   8.280   1.546  0.4455 -0.0853  0.8679
   23MOL0     C 3016   9.656   8.273   1.487  0.6495 -0.7086 -0.2235
   23MOL0     O 3017   9.788   8.427   1.117 -0.5250 -0.5869 -0.3057
   23MOL0     C 3018   9.986   8.281   0.985 -1.0103  0.7449  0.1813
   23MOL0     C 3019  10.060   8.187   0.912  1.0666 -0.0813 -0.0975
   23MOL0     N 3020  10.341   7.511   0.472  0.0571 -0.1886  0.7835
   23MOL0     N 3021  10.279   7.403   0.436 -0.4704 -0.4520  0.2275
   23MOL0     C 3022   9.750   6.550   0.969 -0.3528 -0.2901 -0.3398
   23MOL0     C 3023   9.825   6.441   1.021  0.2534 -0.2862 -0.0155
   23MOL0     C 3024  10.037   6.209   1.339 -0.8509  1.2143 -0.0302
   23MOL0     C 3025  10.029   6.103   1.258  0.1884  0.4995  0.1864
   23MOL0     C 3026  10.076   5.974   1.281 -0.1242  0.3770  0.0189
   23MOL0     C 3027  10.130   5.941   1.399 -0.9849 -0.6342 -0.0725
   23MOL0     O 3028  10.180   5.818   1.436  0.7369 -0.3799 -0.1994
   23MOL0     C 3029  10.168   5.706   1.358  0.1129  0.2909  0.9347
   23MOL0     C 3030  10.218   5.581   1.424 -1.1557  0.3493  0.4289
   23MOL0     C 3031  10.368   5.599   1.459 -0.1045  0.0218  1.1384
   23MOL0     C 3032  10.415   5.497   1.562 -0.4824  0.3638 -0.5387
   23MOL0     C 3033  10.352   5.522   1.699  0.6089 -0.6529  0.7104
   23MOL0     C 3034  10.287   5.544   1.798 -0.4141  0.1061 -0.3345
   23MOL0     C 3035  10.156   6.043   1.491 -0.0450 -0.6603 -0.2805
   23MOL0     C 3036  10.103   6.183   1.466  0.3308 -0.0146 -0.5066
   23MOL0     C 3037  10.101   6.297   1.573 -0.2072  0.9964 -0.4842
   23MOL0     H 3038  10.060   6.605   1.181  1.2611 -0.5113 -1.0356
   23MOL0     H 3039   9.936   6.805   1.098 -0.0417  0.1281  2.1562
   23MOL0     H 3040   9.718   6.933   1.068 -0.4952 -2.8047 -0.2118
   23MOL0     H 3041   9.851   6.942   0.945  0.2890  3.5029  4.2433
   23MOL0     H 3042   9.547   6.954   0.908  0.3794  1.0523  0.0688
   23MOL0     H 3043   9.665   6.966   0.779 -1.2885  4.3890 -2.4977
   23MOL0     H 3044   9.664   7.175   1.010  2.9529  2.8357 -1.4268
   23MOL0     H 3045   9.551   7.184   0.875 -0.7217 -3.0016 -2.5556
   23MOL0     H 3046   9.710   7.212   0.713  1.0373 -2.4858 -0.0464
   23MOL0     H 3047   9.740   7.326   0.846 -0.6161  0.1396  1.0447
   23MOL0     H 3048   9.931   7.217   0.917 -0.1549  1.5853 -1.0153
   23MOL0     H 3049   9.900   7.075   0.818 -0.6459 -0.4414  0.2516
   23MOL0     H 3050   9.909   7.226   0.616  1.1119 -2.1260 -0.3419
   23MOL0     H 3051   9.994   7.348   0.712  3.4422 -0.0696 -0.9396
   23MOL0     H 3052  10.095   7.065   0.681  3.2825 -0.9517  0.3583
   23MOL0     H 3053  10.176   7.198   0.777  1.1067 -1.5719 -0.3716
   23MOL0     H 3054  10.265   7.117   0.544 -0.0363  0.4656  2.1595
   23MOL0     H 3055  10.129   7.198   0.471 -0.6336 -1.5092  0.1050
   23MOL0     H 3056  10.319   7.374   0.762 -1.1200  1.5892  0.7892
   23MOL0     H 3057  10.435   7.618   0.773 -4.0314 -0.7334 -0.2279
   23MOL0     H 3058  10.515   7.683   0.633  0.7738  0.3129  1.1994
   23MOL0     H 3059  10.271   7.771   0.568 -0.4160 -2.5440 -0.3442
   23MOL0     H 3060  10.218   7.713   0.725 -1.8299  1.8023 -0.6239
   23MOL0     H 3061  10.403   7.943   0.688 -0.4735 -0.0141  0.1494
   23MOL0     H 3062  10.405   7.853   0.837  0.2343 -3.1761 -0.0662
   23MOL0     H 3063  10.144   7.971   0.706 -1.3152  0.9542  1.3411
   23MOL0     H 3064  10.256   8.089   0.763 -0.6878 -0.1817 -3.0408
   23MOL0     H 3065  10.031   7.910   1.108 -1.7220  0.0735  2.3001
   23MOL0     H 3066   9.860   8.072   1.217  2.7166 -0.6393  1.1507
   23MOL0     H 3067   9.566   8.301   1.161 -0.1941 -1.1941 -0.3653
   23MOL0     H 3068   9.336   8.297   1.253  0.2680  0.6535 -0.6163
   23MOL0     H 3069   9.148   8.375   1.389 -1.8541  0.9148  1.7369
   23MOL0     H 3070   9.170   8.198   1.391 -0.6888  0.6531 -0.3764
   23MOL0     H 3071   8.978   8.250   1.499  1.1383  0.0155 -0.3219
   23MOL0     H 3072   9.086   8.251   1.651  1.4269  1.5332  1.0531
   23MOL0     H 3073   9.118   8.490   1.607 -0.7011  1.9672  0.6010
   23MOL0     H 3074   8.995   8.500   1.480  2.5684 -0.5025 -0.3178
   23MOL0     H 3075   8.921   8.393   1.748 -1.6537 -4.6469 -1.9952
   23MOL0     H 3076   8.821   8.409   1.619  1.3587 -4.2188  0.6085
   23MOL0     H 3077   8.845   8.662   1.626 -0.3329  0.8960  0.1909
   23MOL0     H 3078   8.950   8.645   1.762  0.4674 -0.8374 -1.7479
   23MOL0     H 3079   8.773   8.516   1.892 -0.3934 -0.9859 -0.0594
   23MOL0     H 3080   8.763   8.689   1.859 -0.0165 -0.6521  2.0312
   23MOL0     H 3081   8.637   8.550   1.651  4.0302 -2.8793  1.7495
   23MOL0     H 3082   8.567   8.674   1.746 -1.0203 -1.6034  0.9685
   23MOL0     H 3083   8.427   8.508   1.790 -0.2854 -1.1152  0.4645
   23MOL0     H 3084   8.535   8.385   1.830 -1.1540 -0.2482 -0.9918
   23MOL0     H 3085   9.494   8.280   1.650 -1.3119  0.5441  0.4055
   23MOL0     H 3086   9.746   8.249   1.542  0.4242 -3.2318 -0.8244
   23MOL0     H 3087   9.969   8.377   0.937  1.7359 -0.0719 -2.7025
   23MOL0     H 3088  10.112   8.223   0.824  2.3556  2.1418  1.4900
   23MOL0     H 3089   9.650   6.538   0.927 -2.1734  2.5105  2.6824
   23MOL0     H 3090   9.785   6.341   1.008 -3.7852  1.2515 -1.1904
   23MOL0     H 3091   9.975   6.112   1.164 -2.5197  1.9886  1.7500
   23MOL0     H 3092  10.064   5.894   1.208 -1.1126  2.9190 -2.8663
   23MOL0     H 3093  10.225   5.718   1.265  0.0027 -0.4297  0.7674
   23MOL0     H 3094  10.071   5.679   1.315  1.1066 -2.4652  0.2100
   23MOL0     H 3095  10.219   5.499   1.352  1.8991  1.1965 -0.6415
   23MOL0     H 3096  10.154   5.555   1.509 -2.3053 -1.6493 -0.9563
   23MOL0     H 3097  10.379   5.696   1.508 -1.6257  1.0394 -0.4238
   23MOL0     H 3098  10.417   5.591   1.362 -3.8367 -1.9610 -0.8328
   23MOL0     H 3099  10.404   5.392   1.532  4.6537 -2.1933  4.5629
   23MOL0     H 3100  10.521   5.525   1.562 -0.5558  0.7549 -1.9791
   23MOL0     H 3101  10.228   5.584   1.878  1.3887 -0.0200  1.1060
   23MOL0     H 3102  10.219   6.011   1.574  2.7764  0.1951 -1.9326
   23MOL0     H 3103  10.154   6.266   1.663  0.2859  0.5521 -0.9189
   23MOL0     H 3104  10.168   6.380   1.548  0.4498  0.1185 -1.7524
   23MOL0     H 3105   9.996   6.326   1.584 -0.5438  0.2879 -1.6270
   24MOL0     O 3106   2.768   1.688  10.710  0.4313 -0.0446 -0.0073
   24MOL0     C 3107   2.737   1.632  10.814  0.2194 -0.3305  0.2603
   24MOL0     O 3108   2.827   1.556  10.890  0.1022 -0.2316  0.9962
   24MOL0     C 3109   2.967   1.565  10.861 -0.3879 -0.0227  0.4651
   24MOL0     C 3110   3.028   1.477  10.783  0.1692 -0.1971  1.0884
   24MOL0     C 3111   3.175   1.471  10.779  0.5195  0.5607  0.3287
   24MOL0     C 3112   3.253   1.574  10.847 -0.6389 -0.0079 -0.7509
   24MOL0     O 3113   3.387   1.585  10.850 -0.0349  0.0278 -0.2694
   24MOL0     C 3114   3.469   1.516  10.757  0.7593  0.0778  0.2158
   24MOL0     C 3115   3.588   1.625  10.727 -0.2468 -0.0870 -0.7290
   24MOL0     C 3116   3.540   1.738  10.620 -1.2550  0.6458 -0.9090
   24MOL0     C 3117   3.643   1.852  10.596  0.8312  0.5558  0.9799
   24MOL0     C 3118   3.586   1.970  10.679 -0.2100 -0.4965 -0.3204
   24MOL0     C 3119   3.671   2.098  10.667 -0.0768  0.2269  0.0819
   24MOL0     C 3120   3.812   2.075  10.728 -0.7218 -0.3080  0.4217
   24MOL0     C 3121   3.892   2.212  10.714  0.6893  0.9583 -0.6597
   24MOL0     N 3122   3.890   2.273  10.581  0.0143 -0.3451  0.5009
   24MOL0     C 3123   3.867   2.408  10.560  1.0819  0.3277 -0.1651
   24MOL0     C 3124   3.891   2.431  10.424 -0.1552 -1.0045 -0.1849
   24MOL0     C 3125   3.893   2.567  10.372 -0.1349  0.3880  0.9061
   24MOL0     C 3126   4.039   2.627  10.368  0.2173 -1.0939 -0.3610
   24MOL0     C 3127   4.046   2.749  10.272 -0.7665 -0.2663 -0.1202
   24MOL0     C 3128   4.005   2.882  10.347  0.8039  0.6115  0.0434
   24MOL0     O 3129   4.078   2.993  10.306 -0.4385 -0.7957 -0.0889
   24MOL0     C 3130   4.052   3.052  10.182  0.3046  0.1827  0.4627
   24MOL0     C 3131   4.154   3.128  10.119  0.0360 -0.0504 -0.9948
   24MOL0     C 3132   4.138   3.167   9.989  0.2134 -0.8397 -0.1205
   24MOL0     C 3133   4.020   3.156   9.915  0.3068  0.0179 -0.6170
   24MOL0     C 3134   4.013   3.203   9.777 -0.3076 -0.1136  0.7680
   24MOL0     O 3135   3.882   3.228   9.729 -0.2767  0.1838 -0.2527
   24MOL0     C 3136   3.864   3.266   9.603  0.7304  0.6075 -0.5845
   24MOL0     C 3137   3.901   3.190   9.488  0.0635 -0.3931 -1.1987
   24MOL0     C 3138   3.874   3.227   9.358  0.2856 -0.4463 -0.6968
   24MOL0     C 3139   3.816   3.356   9.331  0.5959  0.4745 -0.3124
   24MOL0     O 3140   3.785   3.391   9.193  0.7396 -0.1267 -0.1829
   24MOL0     C 3141   3.855   3.323   9.082 -0.6147 -0.1620 -0.7444
   24MOL0     C 3142   3.836   3.412   8.961 -0.0163  0.9073 -0.4394
   24MOL0     C 3143   3.690   3.421   8.925  0.0591 -0.6340  0.3353
   24MOL0     C 3144   3.679   3.413   8.769 -0.1035 -0.4985  0.4053
   24MOL0     C 3145   3.653   3.271   8.711 -0.7307 -0.2389  0.3314
   24MOL0     C 3146   3.626   3.278   8.559 -0.2252  0.8427  0.0504
   24MOL0     C 3147   3.495   3.356   8.513  0.3507 -0.0019 -0.4199
   24MOL0     C 3148   3.456   3.323   8.372 -0.0932  1.3772 -1.1681
   24MOL0    Cl 3149   3.310   3.407   8.322  0.2416  0.1653  0.4682
   24MOL0     C 3150   3.782   3.431   9.445 -0.3087 -0.2433 -0.6185
   24MOL0     C 3151   3.798   3.380   9.570 -0.3292  0.7687 -0.1912
   24MOL0     O 3152   4.118   3.198   9.714 -0.1433 -0.5214  0.3896
   24MOL0     C 3153   3.919   3.076   9.975  0.5114 -0.4351  0.3120
   24MOL0     C 3154   3.938   3.021  10.108  0.1866  0.2335  0.3412
   24MOL0     N 3155   3.910   2.312  10.363  0.4545 -0.1935  0.0858
   24MOL0     N 3156   3.900   2.216  10.456 -0.5747 -1.1068  0.6816
   24MOL0     C 3157   3.184   1.663  10.922 -0.9236 -0.6098  0.0366
   24MOL0     C 3158   3.044   1.657  10.931  0.4164  0.7815 -0.8600
   24MOL0     C 3159   2.598   1.636  10.867  0.9484 -0.1099 -0.5393
   24MOL0     C 3160   2.489   1.669  10.782 -0.1761  0.2191  0.4002
   24MOL0     C 3161   2.355   1.670  10.823  0.4887  0.6965 -0.5520
   24MOL0     C 3162   2.324   1.632  10.955  0.1584  0.8358  0.2703
   24MOL0     O 3163   2.191   1.608  10.992 -1.0954 -0.7481 -0.5131
   24MOL0     C 3164   2.104   1.542  10.899  0.9979 -0.7282 -0.2931
   24MOL0     C 3165   2.009   1.652  10.854 -0.0890  0.4688  1.2786
   24MOL0     C 3166   1.925   1.714  10.962 -0.3152 -0.2177 -0.7386
   24MOL0     C 3167   1.786   1.741  10.919 -0.3571 -0.2029  0.0912
   24MOL0     C 3168   1.776   1.887  10.875 -0.6496  0.9639  0.4263
   24MOL0     C 3169   1.746   1.997  10.839 -0.4350 -0.5746 -0.1763
   24MOL0     C 3170   2.428   1.598  11.038  0.0324 -0.0614  0.3247
   24MOL0     C 3171   2.560   1.600  11.000 -0.5053  0.3661 -0.0344
   24MOL0     C 3172   2.661   1.567  11.111  0.7162 -0.0880 -0.4119
   24MOL0     H 3173   2.967   1.399  10.739  0.7137  1.1458 -2.3595
   24MOL0     H 3174   3.224   1.409  10.704 -1.2107  0.2273 -0.5714
   24MOL0     H 3175   3.496   1.428  10.816 -1.6145  0.0289  1.3263
   24MOL0     H 3176   3.431   1.487  10.659  0.4960 -0.6770  0.5352
   24MOL0     H 3177   3.678   1.571  10.695  0.2608 -0.0578  0.5644
   24MOL0     H 3178   3.631   1.673  10.816  1.3744  0.5193 -1.7796
   24MOL0     H 3179   3.433   1.761  10.624 -1.0114  1.6583  0.2371
   24MOL0     H 3180   3.541   1.694  10.520  0.9436  0.0158 -0.6682
   24MOL0     H 3181   3.743   1.812  10.618 -0.8375 -4.1833  1.1093
   24MOL0     H 3182   3.637   1.884  10.492 -1.6329 -0.1440  0.8585
   24MOL0     H 3183   3.487   2.005  10.650  0.6061  0.9316 -1.4692
   24MOL0     H 3184   3.580   1.956  10.788 -3.3260  3.3534  0.2259
   24MOL0     H 3185   3.683   2.136  10.565 -0.5092  0.3056  0.0571
   24MOL0     H 3186   3.635   2.182  10.728  1.1060  1.1230 -0.4124
   24MOL0     H 3187   3.868   2.007  10.663  1.3380  1.4748  0.2106
   24MOL0     H 3188   3.812   2.046  10.833  2.0789  1.6084  1.0890
   24MOL0     H 3189   3.844   2.288  10.775 -0.1882  0.8797 -1.2320
   24MOL0     H 3190   3.987   2.204  10.767 -0.3543  1.4367  1.3928
   24MOL0     H 3191   3.824   2.480  10.628 -1.2419  0.2718 -1.4724
   24MOL0     H 3192   3.853   2.567  10.271  0.9768  4.3838  0.2984
   24MOL0     H 3193   3.825   2.632  10.427 -3.2092  0.1690 -2.2867
   24MOL0     H 3194   4.066   2.662  10.468  0.1783  2.2816 -1.4070
   24MOL0     H 3195   4.122   2.561  10.344 -0.2589 -1.5099 -0.8967
   24MOL0     H 3196   4.004   2.733  10.172 -4.0439  1.6839  0.7657
   24MOL0     H 3197   4.152   2.761  10.252 -0.4924 -2.0386  0.1777
   24MOL0     H 3198   4.033   2.866  10.452  2.8525  1.8527 -0.2682
   24MOL0     H 3199   3.897   2.891  10.332  0.7590 -1.1703 -0.8412
   24MOL0     H 3200   4.244   3.147  10.177 -0.6091  3.6920 -0.9783
   24MOL0     H 3201   4.221   3.213   9.935 -0.0503 -1.1636 -0.8104
   24MOL0     H 3202   3.949   3.094   9.503  3.2050  1.0249 -1.3035
   24MOL0     H 3203   3.901   3.154   9.283  0.6668  1.0913 -2.1142
   24MOL0     H 3204   3.960   3.304   9.108 -0.3936 -2.1484 -2.7328
   24MOL0     H 3205   3.807   3.227   9.061 -0.2346 -0.1307 -1.8176
   24MOL0     H 3206   3.879   3.511   8.974  3.8485 -0.4987 -1.3039
   24MOL0     H 3207   3.886   3.356   8.881 -1.8422 -2.3671  0.5108
   24MOL0     H 3208   3.620   3.343   8.958 -0.0366 -0.2462  1.0905
   24MOL0     H 3209   3.665   3.521   8.962  0.9462  0.0310 -0.8033
   24MOL0     H 3210   3.766   3.469   8.733 -0.6207 -0.4162 -0.7541
   24MOL0     H 3211   3.598   3.483   8.744  0.6761  0.5329  0.6987
   24MOL0     H 3212   3.565   3.219   8.749 -0.5728 -1.1117 -0.4695
   24MOL0     H 3213   3.741   3.213   8.740 -1.2342  0.0575  2.5802
   24MOL0     H 3214   3.709   3.337   8.520 -0.6814  1.9927  0.7730
   24MOL0     H 3215   3.623   3.177   8.515 -2.7764  1.0013 -0.3349
   24MOL0     H 3216   3.509   3.465   8.507 -1.5080  0.2273 -1.4685
   24MOL0     H 3217   3.409   3.340   8.579  0.4605  2.2607  0.3675
   24MOL0     H 3218   3.533   3.344   8.298  2.5446  0.4632  1.1609
   24MOL0     H 3219   3.433   3.216   8.374  0.0421  1.3543  0.7302
   24MOL0     H 3220   3.726   3.523   9.444 -0.1217 -0.1323 -0.8492
   24MOL0     H 3221   3.773   3.444   9.654 -4.4974  0.2616 -0.8135
   24MOL0     H 3222   3.827   3.057   9.920 -0.1848  1.6611  0.6770
   24MOL0     H 3223   3.859   2.953  10.140 -1.7720  1.0398 -2.4245
   24MOL0     H 3224   3.243   1.737  10.974 -0.8799  0.5732 -1.6231
   24MOL0     H 3225   2.979   1.715  10.995 -2.6245 -3.4259  0.3150
   24MOL0     H 3226   2.508   1.683  10.676 -0.2273 -2.8313 -0.1020
   24MOL0     H 3227   2.275   1.697  10.754  0.0896  1.4644  0.1816
   24MOL0     H 3228   2.058   1.460  10.955 -0.6520  2.0621  2.8367
   24MOL0     H 3229   2.150   1.500  10.809  1.5319 -0.4587 -0.1530
   24MOL0     H 3230   1.952   1.618  10.767  0.0005  0.2180  1.3151
   24MOL0     H 3231   2.073   1.725  10.803  0.2517 -1.3105 -1.0325
   24MOL0     H 3232   1.985   1.804  10.983  0.4409 -0.2892 -2.3670
   24MOL0     H 3233   1.919   1.656  11.054 -0.7510  0.1850 -0.5120
   24MOL0     H 3234   1.753   1.680  10.834  1.5129 -0.4294 -0.5191
   24MOL0     H 3235   1.727   1.735  11.011  0.2909  1.2836  0.6330
   24MOL0     H 3236   1.701   2.091  10.812  2.3293  0.5137 -1.2968
   24MOL0     H 3237   2.405   1.558  11.136  2.6997 -0.5902  0.8118
   24MOL0     H 3238   2.630   1.576  11.215  3.7289  2.4270  0.4359
   24MOL0     H 3239   2.688   1.463  11.093 -1.2783 -0.4198 -1.7661
   24MOL0     H 3240   2.744   1.639  11.112  0.5104  0.4187  4.2491
   25MOL0     O 3241   7.890   1.621   5.762 -0.7866 -0.0566  0.3525
   25MOL0     C 3242   7.789   1.557   5.791  0.1474 -0.2352 -0.5082
   25MOL0     O 3243   7.745   1.544   5.913  1.1103 -0.2077 -0.2518
   25MOL0     C 3244   7.810   1.617   6.014  0.0649  0.0937  0.0649
   25MOL0     C 3245   7.900   1.540   6.087  0.3334  0.1791  0.4880
   25MOL0     C 3246   7.981   1.608   6.180  0.9169  0.0092 -0.1627
   25MOL0     C 3247   7.973   1.753   6.185 -0.3262  0.5184 -0.2977
   25MOL0     O 3248   8.066   1.818   6.259  0.3942  0.1815  0.1724
   25MOL0     C 3249   8.202   1.828   6.201  0.5318 -0.1633 -0.1093
   25MOL0     C 3250   8.303   1.864   6.303  0.5172 -0.2515  0.9313
   25MOL0     C 3251   8.328   2.011   6.333  0.8448  0.2469 -0.2859
   25MOL0     C 3252   8.197   2.059   6.411 -0.1344  0.3755  0.1684
   25MOL0     C 3253   8.223   2.197   6.480  0.8285  0.7219  0.7918
   25MOL0     C 3254   8.110   2.248   6.568  0.4813  0.5249 -0.9275
   25MOL0     C 3255   7.985   2.292   6.481  0.0262 -1.4444 -0.2756
   25MOL0     C 3256   7.989   2.413   6.383  0.2707 -1.5025 -1.3190
   25MOL0     N 3257   7.936   2.536   6.435  0.7795 -0.1450  0.5492
   25MOL0     C 3258   7.986   2.634   6.524 -1.2376  0.8945  0.4489
   25MOL0     C 3259   7.917   2.745   6.519 -0.5494 -0.1980 -0.2460
   25MOL0     C 3260   7.950   2.873   6.581 -0.8146 -0.9049  0.1836
   25MOL0     C 3261   8.100   2.918   6.570 -0.3817 -0.3787  0.0766
   25MOL0     C 3262   8.143   2.954   6.424 -0.4800 -0.2772  0.4395
   25MOL0     C 3263   8.275   3.031   6.422  0.3910 -0.1742  0.5332
   25MOL0     O 3264   8.246   3.167   6.468 -0.0182  0.1205 -0.9392
   25MOL0     C 3265   8.271   3.270   6.392 -0.1366 -0.0026 -0.3485
   25MOL0     C 3266   8.249   3.284   6.259  0.6399  0.3669 -0.0433
   25MOL0     C 3267   8.288   3.402   6.193  0.2814 -0.0337  0.3778
   25MOL0     C 3268   8.318   3.514   6.270 -0.2531  0.5828  1.3199
   25MOL0     C 3269   8.326   3.650   6.206 -0.0343  0.1164 -0.2045
   25MOL0     O 3270   8.405   3.744   6.263 -0.4676  0.2824 -0.0024
   25MOL0     C 3271   8.426   3.867   6.204 -0.7746 -0.0600  0.5714
   25MOL0     C 3272   8.337   3.956   6.136  0.5287  1.0385  0.0218
   25MOL0     C 3273   8.376   4.078   6.080  0.6353 -1.5084  0.1072
   25MOL0     C 3274   8.508   4.121   6.094 -0.0697 -0.1181 -0.1285
   25MOL0     O 3275   8.538   4.249   6.056  0.3788 -0.4100  0.1848
   25MOL0     C 3276   8.476   4.356   6.139  0.2476 -0.1828  0.4040
   25MOL0     C 3277   8.502   4.343   6.293  0.0826  0.2941 -0.8336
   25MOL0     C 3278   8.637   4.388   6.357  0.1413 -0.0752  0.2078
   25MOL0     C 3279   8.679   4.309   6.478  0.4039  0.6021 -0.3171
   25MOL0     C 3280   8.833   4.343   6.506 -0.6551 -0.3939 -0.3476
   25MOL0     C 3281   8.866   4.279   6.646  0.5509  0.5436  0.5140
   25MOL0     C 3282   9.020   4.295   6.683  0.6902 -0.2005  0.2101
   25MOL0     C 3283   9.115   4.245   6.583  0.0591  0.2551 -0.6924
   25MOL0    Cl 3284   9.108   4.072   6.561 -0.1958  0.2539  0.2172
   25MOL0     C 3285   8.590   4.036   6.162 -0.4959 -0.4183 -0.0299
   25MOL0     C 3286   8.557   3.911   6.207  0.1439 -0.3578  0.0193
   25MOL0     O 3287   8.260   3.657   6.105 -1.0483 -0.0692  0.2938
   25MOL0     C 3288   8.335   3.497   6.403  0.0148 -0.5936 -0.7417
   25MOL0     C 3289   8.333   3.368   6.462 -0.9305 -0.6757 -0.5077
   25MOL0     N 3290   7.819   2.729   6.426 -0.1355  0.0599 -0.6334
   25MOL0     N 3291   7.825   2.598   6.386  0.2070  0.1088 -0.5096
   25MOL0     C 3292   7.868   1.820   6.129  0.0644 -0.0852  0.2123
   25MOL0     C 3293   7.784   1.750   6.048  0.0252  0.2371  0.3816
   25MOL0     C 3294   7.744   1.472   5.678  0.2337  0.8343  0.2269
   25MOL0     C 3295   7.796   1.499   5.546  0.4663  0.2769  0.3719
   25MOL0     C 3296   7.761   1.410   5.450 -0.1325  0.3209  0.4522
   25MOL0     C 3297   7.670   1.307   5.460 -0.7501 -1.0595  0.1387
   25MOL0     O 3298   7.648   1.241   5.349 -0.4854  0.7156 -0.2737
   25MOL0     C 3299   7.672   1.099   5.360 -0.2825  0.3305 -0.1025
   25MOL0     C 3300   7.725   1.050   5.224 -0.4266  0.0295  0.8753
   25MOL0     C 3301   7.625   1.029   5.116 -0.1157  0.1685 -0.3183
   25MOL0     C 3302   7.689   1.008   4.977 -0.2717  0.6352 -0.2348
   25MOL0     C 3303   7.598   0.934   4.893  0.0342  0.6183  0.3277
   25MOL0     C 3304   7.506   0.874   4.844 -0.3488  0.1868  0.3510
   25MOL0     C 3305   7.614   1.288   5.587  1.6179 -0.5673 -0.4237
   25MOL0     C 3306   7.651   1.366   5.693  0.3794 -0.4439 -0.8651
   25MOL0     C 3307   7.563   1.339   5.814  0.4504  0.2098 -0.5902
   25MOL0     H 3308   7.916   1.432   6.084 -1.7497 -0.3161  3.5018
   25MOL0     H 3309   8.058   1.557   6.237  3.2739  2.5126 -0.9479
   25MOL0     H 3310   8.245   1.734   6.165  0.8842  0.0022 -0.1273
   25MOL0     H 3311   8.213   1.891   6.112  1.2502  0.1699  0.2071
   25MOL0     H 3312   8.402   1.833   6.268  0.5225  0.9628 -0.1849
   25MOL0     H 3313   8.270   1.821   6.398  2.7811 -2.1955  0.9293
   25MOL0     H 3314   8.347   2.081   6.252  0.7133  3.2543  2.1098
   25MOL0     H 3315   8.425   2.022   6.382  2.5209 -1.2535 -2.9864
   25MOL0     H 3316   8.113   2.056   6.341 -0.3638 -2.2911  0.4728
   25MOL0     H 3317   8.171   1.987   6.489  0.1541 -2.8508 -2.4754
   25MOL0     H 3318   8.323   2.207   6.524  2.6764 -0.9263 -2.6203
   25MOL0     H 3319   8.230   2.269   6.398  1.7142  0.0847  0.2856
   25MOL0     H 3320   8.095   2.187   6.658 -0.3660  3.1774  0.8401
   25MOL0     H 3321   8.151   2.338   6.615 -0.5375  1.1154 -1.1292
   25MOL0     H 3322   7.898   2.322   6.540 -0.3568  0.5894 -1.7529
   25MOL0     H 3323   7.948   2.207   6.422 -4.1506  0.3058 -0.5676
   25MOL0     H 3324   8.095   2.433   6.364  0.9376 -1.5692  1.9130
   25MOL0     H 3325   7.940   2.384   6.289  0.8305 -2.3413 -1.3658
   25MOL0     H 3326   8.081   2.611   6.571 -0.2947  3.2061 -0.2204
   25MOL0     H 3327   7.887   2.946   6.528  1.3270  0.3642 -0.7125
   25MOL0     H 3328   7.941   2.881   6.689  0.3707 -3.2420  0.5271
   25MOL0     H 3329   8.118   3.007   6.630  2.9134  0.0990 -1.4300
   25MOL0     H 3330   8.156   2.837   6.616 -1.8958 -0.6559  1.5304
   25MOL0     H 3331   8.066   3.020   6.382  0.8536  1.4165  0.5649
   25MOL0     H 3332   8.157   2.864   6.365 -0.8434 -0.6248  0.8737
   25MOL0     H 3333   8.311   3.034   6.319 -3.9517 -0.4549 -1.1991
   25MOL0     H 3334   8.354   2.997   6.489  0.6300  0.0699  0.3751
   25MOL0     H 3335   8.208   3.205   6.197 -1.4522  0.8687  0.6401
   25MOL0     H 3336   8.272   3.414   6.086 -0.3749  0.7031  0.5544
   25MOL0     H 3337   8.238   3.918   6.115  0.4626  1.0495  0.3041
   25MOL0     H 3338   8.309   4.136   6.018  2.1890 -0.9373 -1.1022
   25MOL0     H 3339   8.518   4.454   6.115  0.3908  0.4980  3.0820
   25MOL0     H 3340   8.369   4.361   6.114  0.5771  1.7859 -0.8449
   25MOL0     H 3341   8.425   4.394   6.352  0.3919  0.8436 -0.8917
   25MOL0     H 3342   8.481   4.241   6.327 -1.3155  0.5015 -1.0159
   25MOL0     H 3343   8.718   4.386   6.283  1.0467 -2.0152  1.1844
   25MOL0     H 3344   8.639   4.494   6.383  0.6161 -0.3245  1.2272
   25MOL0     H 3345   8.666   4.202   6.457 -1.8945 -0.6103  5.5062
   25MOL0     H 3346   8.620   4.348   6.561  0.7784 -0.2995  0.4031
   25MOL0     H 3347   8.845   4.451   6.520 -4.4242 -0.1648  3.1435
   25MOL0     H 3348   8.901   4.314   6.425  3.1338  1.6345  1.7996
   25MOL0     H 3349   8.812   4.323   6.730 -0.0672 -1.5507  1.2802
   25MOL0     H 3350   8.845   4.172   6.638 -4.1351  0.9782  3.2573
   25MOL0     H 3351   9.037   4.243   6.778  1.2562  0.6238  0.5609
   25MOL0     H 3352   9.048   4.395   6.715  2.7093 -0.5157 -0.4252
   25MOL0     H 3353   9.123   4.301   6.489  3.6458  0.4884 -0.3856
   25MOL0     H 3354   9.211   4.264   6.630 -0.5958  0.3563  0.6385
   25MOL0     H 3355   8.688   4.077   6.186 -0.1990 -1.5413  0.7878
   25MOL0     H 3356   8.632   3.853   6.260 -1.4950 -3.2067 -0.5993
   25MOL0     H 3357   8.360   3.583   6.465 -0.8624  0.0400 -1.2607
   25MOL0     H 3358   8.354   3.349   6.567 -1.0421 -3.8481 -0.9549
   25MOL0     H 3359   7.852   1.927   6.134  1.2757  0.2032 -1.3207
   25MOL0     H 3360   7.703   1.797   5.993  0.3290  1.8975  1.3059
   25MOL0     H 3361   7.873   1.572   5.527  1.7868 -0.3337  2.9677
   25MOL0     H 3362   7.798   1.421   5.349 -1.1769  1.2048  0.1555
   25MOL0     H 3363   7.582   1.038   5.371  0.4458 -0.7907 -0.1641
   25MOL0     H 3364   7.739   1.075   5.443 -0.7820  3.0379  1.1874
   25MOL0     H 3365   7.767   0.951   5.241  0.4542  0.5939  2.1712
   25MOL0     H 3366   7.802   1.114   5.181 -0.7284 -0.8339 -1.0395
   25MOL0     H 3367   7.551   1.109   5.120 -1.0082 -0.6305 -0.3770
   25MOL0     H 3368   7.572   0.936   5.140  0.7079 -0.2206  0.0188
   25MOL0     H 3369   7.723   1.101   4.930 -2.5298 -0.0087 -3.5156
   25MOL0     H 3370   7.778   0.946   4.988 -0.0264  0.8849 -0.7502
   25MOL0     H 3371   7.429   0.817   4.797  0.0776 -0.4896  0.4555
   25MOL0     H 3372   7.539   1.210   5.585 -0.4799  1.3356  0.4566
   25MOL0     H 3373   7.531   1.235   5.829 -1.4938  0.9543  0.9309
   25MOL0     H 3374   7.622   1.361   5.903 -1.1793  0.6990  0.4102
   25MOL0     H 3375   7.479   1.408   5.822  0.4879  1.0213 -4.9710
   26MOL0     O 3376   8.854  10.355   0.892  0.2155  0.0241 -0.3248
   26MOL0     C 3377   8.779  10.261   0.878  0.2591  0.1362  0.8752
   26MOL0     O 3378   8.810  10.141   0.865  0.0672  0.0064 -0.0023
   26MOL0     C 3379   8.918  10.099   0.804 -0.4433  0.4469  0.2347
   26MOL0     C 3380   8.902   9.998   0.703 -0.4706  1.3609  0.4342
   26MOL0     C 3381   9.007   9.939   0.634 -1.2791 -1.0773  0.6586
   26MOL0     C 3382   9.137   9.995   0.664 -0.6504 -0.0249 -0.4382
   26MOL0     O 3383   9.236   9.971   0.568 -0.6619  0.7576 -0.1570
   26MOL0     C 3384   9.346  10.077   0.560  0.5659 -0.0990 -0.4366
   26MOL0     C 3385   9.419  10.081   0.424 -1.0103  0.8575  0.2976
   26MOL0     C 3386   9.461   9.937   0.375  0.3215 -0.6815 -0.6488
   26MOL0     C 3387   9.528   9.921   0.231 -0.0405 -1.1702 -0.1922
   26MOL0     C 3388   9.551   9.784   0.194 -0.8145  0.6447  0.3954
   26MOL0     C 3389   9.562   9.771   0.041  0.2336  0.4507  0.4744
   26MOL0     C 3390   9.570   9.628   0.002 -0.6717  0.0618 -0.6640
   26MOL0     C 3391   9.709   9.562   0.032  0.1551 -0.4007 -0.2988
   26MOL0     N 3392   9.731   9.445  -0.063  0.0951 -0.3438  0.9231
   26MOL0     C 3393   9.747   9.446  -0.200 -0.1074  0.4102 -0.4374
   26MOL0     C 3394   9.788   9.313  -0.224 -0.7271 -0.3635  0.6100
   26MOL0     C 3395   9.841   9.250  -0.353  0.0099 -0.1887 -0.8761
   26MOL0     C 3396   9.797   9.332  -0.479  0.1022 -0.0993  0.0695
   26MOL0     C 3397   9.667   9.277  -0.551 -0.1284  0.3554 -0.8221
   26MOL0     C 3398   9.554   9.256  -0.452  0.0398  0.4052 -0.3374
   26MOL0     O 3399   9.445   9.160  -0.497 -0.1451 -0.2120 -0.3523
   26MOL0     C 3400   9.432   9.033  -0.441 -0.3950  1.0982  0.6239
   26MOL0     C 3401   9.330   8.944  -0.480 -0.8947  0.0205 -0.5985
   26MOL0     C 3402   9.288   8.823  -0.407 -0.9563  0.4136  0.9695
   26MOL0     C 3403   9.368   8.774  -0.313 -0.5919 -0.2687  0.2994
   26MOL0     C 3404   9.338   8.644  -0.244  0.0440 -1.2349  0.3735
   26MOL0     O 3405   9.252   8.566  -0.310  0.0395 -0.1708  1.0694
   26MOL0     C 3406   9.220   8.445  -0.249 -0.0325 -0.2785 -0.1443
   26MOL0     C 3407   9.310   8.359  -0.185 -0.6457  0.6864  0.1975
   26MOL0     C 3408   9.261   8.243  -0.121  0.1548 -0.2469  0.6897
   26MOL0     C 3409   9.127   8.206  -0.122 -0.4261  0.0597 -0.4378
   26MOL0     O 3410   9.100   8.092  -0.047  0.5480 -0.0431 -0.1236
   26MOL0     C 3411   8.971   8.040  -0.053 -0.5872 -0.5267  0.0229
   26MOL0     C 3412   8.903   8.092   0.077 -0.1140  0.0842 -0.4898
   26MOL0     C 3413   8.756   8.048   0.068 -0.8114  0.2957  0.3026
   26MOL0     C 3414   8.642   8.158   0.039 -0.3232 -1.2232  0.3298
   26MOL0     C 3415   8.506   8.089   0.029  0.2713  0.0159 -0.0881
   26MOL0     C 3416   8.391   8.189   0.024 -0.1584  0.3980 -0.3215
   26MOL0     C 3417   8.254   8.138  -0.005 -0.4333  0.4955  0.1852
   26MOL0     C 3418   8.147   8.232   0.058 -0.1568  0.5138 -0.1020
   26MOL0    Cl 3419   8.155   8.407   0.005 -0.4011  0.0141 -0.2201
   26MOL0     C 3420   9.036   8.283  -0.202 -0.0832  0.1101 -0.6269
   26MOL0     C 3421   9.083   8.402  -0.260  0.3968  0.0887  0.2039
   26MOL0     O 3422   9.404   8.617  -0.139 -0.4385 -0.2323  0.3638
   26MOL0     C 3423   9.467   8.862  -0.261 -0.2141  0.4158 -0.4548
   26MOL0     C 3424   9.490   8.991  -0.320  0.0314  0.5241  0.1839
   26MOL0     N 3425   9.782   9.245  -0.112 -0.1433  1.1507  0.2949
   26MOL0     N 3426   9.752   9.317  -0.013 -0.0164  0.2218  0.5307
   26MOL0     C 3427   9.160  10.071   0.777  0.3249 -0.3980  0.5617
   26MOL0     C 3428   9.052  10.111   0.853  0.1311  0.5180 -0.0372
   26MOL0     C 3429   8.634  10.277   0.869  0.6459  0.0946 -0.5172
   26MOL0     C 3430   8.581  10.401   0.853  0.2123  0.4195 -0.7668
   26MOL0     C 3431   8.451  10.430   0.834 -0.7601 -0.1922  0.6397
   26MOL0     C 3432   8.360  10.325   0.815 -0.1834  0.1478  0.4209
   26MOL0     O 3433   8.226  10.341   0.806  0.2123  0.2025  0.4551
   26MOL0     C 3434   8.162  10.469   0.787 -0.5999 -0.2054  0.4211
   26MOL0     C 3435   8.013  10.464   0.779  0.2796  0.4973 -0.7221
   26MOL0     C 3436   7.945  10.598   0.750 -0.6053 -0.6704  0.0736
   26MOL0     C 3437   7.869  10.578   0.621  0.5571 -0.4051  0.6519
   26MOL0     C 3438   7.784  10.694   0.590  1.2844 -0.0626  0.3300
   26MOL0     C 3439   7.710  10.788   0.563 -0.2880 -0.7576  0.3007
   26MOL0     C 3440   8.397  10.198   0.837  0.1507  0.8118 -0.6297
   26MOL0     C 3441   8.537  10.171   0.873  1.3445 -0.2617  0.1433
   26MOL0     C 3442   8.561  10.024   0.909  0.3390  0.0994  0.1870
   26MOL0     H 3443   8.798   9.973   0.685 -0.7112  1.2326  1.9345
   26MOL0     H 3444   8.999   9.876   0.546 -0.7774  0.2249 -0.3592
   26MOL0     H 3445   9.309  10.174   0.594 -0.1690  0.0111 -1.5014
   26MOL0     H 3446   9.415  10.043   0.638 -3.4662 -1.6717  2.8630
   26MOL0     H 3447   9.513  10.136   0.426 -0.4243 -0.1157  0.5773
   26MOL0     H 3448   9.342  10.126   0.360 -3.1609  1.3454  3.0399
   26MOL0     H 3449   9.373   9.871   0.379  1.4010 -2.1473 -0.5157
   26MOL0     H 3450   9.535   9.904   0.449  0.1730 -3.0365 -1.4672
   26MOL0     H 3451   9.452   9.961   0.163  0.7969 -1.0766 -1.0921
   26MOL0     H 3452   9.613   9.989   0.223 -0.7964  0.0844  1.6291
   26MOL0     H 3453   9.642   9.758   0.247  1.0211  1.5321 -2.1116
   26MOL0     H 3454   9.469   9.722   0.231  1.3644 -1.6921  1.5624
   26MOL0     H 3455   9.471   9.818   0.003  0.2309  1.6890  1.9318
   26MOL0     H 3456   9.643   9.827  -0.007 -1.4202  3.1274  0.5674
   26MOL0     H 3457   9.540   9.617  -0.103 -3.9058  0.3612  0.1341
   26MOL0     H 3458   9.494   9.576   0.061  1.1925 -1.9417  0.1422
   26MOL0     H 3459   9.794   9.629   0.016  0.6562 -0.8280  0.4847
   26MOL0     H 3460   9.702   9.533   0.137 -5.8715  2.0690  0.3671
   26MOL0     H 3461   9.729   9.531  -0.265 -3.7060 -0.5914 -0.9728
   26MOL0     H 3462   9.950   9.239  -0.345 -0.0696 -0.6538 -0.3303
   26MOL0     H 3463   9.796   9.151  -0.354 -1.1446  0.2274  1.8297
   26MOL0     H 3464   9.786   9.438  -0.452  0.4604 -0.4521  1.7140
   26MOL0     H 3465   9.882   9.324  -0.546 -0.3615  2.5808 -0.9495
   26MOL0     H 3466   9.685   9.185  -0.607  1.9210  1.3742 -1.9858
   26MOL0     H 3467   9.630   9.352  -0.622 -1.1234 -0.1255 -0.8147
   26MOL0     H 3468   9.501   9.349  -0.428  0.2892  0.7098 -0.9320
   26MOL0     H 3469   9.601   9.217  -0.361  0.1874  3.0734  0.8149
   26MOL0     H 3470   9.255   8.982  -0.549 -0.6631  0.7586 -0.4467
   26MOL0     H 3471   9.201   8.768  -0.439 -2.2151  0.8949  3.3371
   26MOL0     H 3472   9.417   8.380  -0.180 -0.3364 -0.2628 -1.4375
   26MOL0     H 3473   9.332   8.174  -0.078  1.6028 -0.8088 -2.3765
   26MOL0     H 3474   8.906   8.071  -0.136  1.8354  2.7938 -0.9058
   26MOL0     H 3475   8.973   7.931  -0.052 -1.3519 -0.5522  1.4973
   26MOL0     H 3476   8.955   8.050   0.164 -2.5873  0.2861  1.1995
   26MOL0     H 3477   8.907   8.199   0.100 -1.9917  0.3823 -1.3326
   26MOL0     H 3478   8.737   7.959   0.007 -1.2293 -0.7806  1.9351
   26MOL0     H 3479   8.734   8.021   0.171 -2.8024  2.0893  0.4101
   26MOL0     H 3480   8.638   8.213  -0.055 -2.6234  0.3957  1.2903
   26MOL0     H 3481   8.653   8.228   0.122  0.3193 -3.1332  1.9391
   26MOL0     H 3482   8.484   8.018   0.109 -1.0110 -1.1230 -1.4168
   26MOL0     H 3483   8.506   8.024  -0.058  0.8921 -1.1591  0.7597
   26MOL0     H 3484   8.405   8.247   0.115  2.4317 -0.0804 -0.3572
   26MOL0     H 3485   8.408   8.252  -0.065 -0.8235  2.0351  0.6533
   26MOL0     H 3486   8.241   8.038   0.037  2.5582 -0.8283 -1.6573
   26MOL0     H 3487   8.229   8.131  -0.111 -2.5599  0.7977  0.6386
   26MOL0     H 3488   8.049   8.187   0.039  0.6202 -1.9950  1.3393
   26MOL0     H 3489   8.162   8.228   0.166  1.4643  0.2686 -0.3196
   26MOL0     H 3490   8.930   8.262  -0.214 -0.0548 -1.0557  0.8621
   26MOL0     H 3491   9.007   8.463  -0.309 -0.4840 -0.1024  1.2873
   26MOL0     H 3492   9.517   8.843  -0.166  1.8031 -1.6701 -1.8372
   26MOL0     H 3493   9.571   9.047  -0.274  2.1900 -1.8706 -0.4790
   26MOL0     H 3494   9.252  10.124   0.801 -0.1334  0.2567  0.9065
   26MOL0     H 3495   9.073  10.182   0.933  2.8809  0.8665 -0.9402
   26MOL0     H 3496   8.663  10.471   0.866  2.8555 -2.5695  0.0258
   26MOL0     H 3497   8.435  10.532   0.803 -0.7633 -0.7358 -1.2740
   26MOL0     H 3498   8.218  10.508   0.702  0.4057  3.0466  2.3955
   26MOL0     H 3499   8.192  10.531   0.871  1.5131  1.0440 -1.1631
   26MOL0     H 3500   7.958  10.426   0.865  1.7512  0.9013  0.4337
   26MOL0     H 3501   7.993  10.402   0.691  0.2601  0.8671 -0.9830
   26MOL0     H 3502   8.027  10.670   0.745 -0.2178 -1.1161 -0.0662
   26MOL0     H 3503   7.881  10.637   0.830 -0.3095 -0.0559  0.0166
   26MOL0     H 3504   7.935  10.573   0.534 -4.4915  0.6677 -3.7449
   26MOL0     H 3505   7.808  10.488   0.624  0.8291 -0.7129 -1.5240
   26MOL0     H 3506   7.658  10.880   0.544  0.8865 -0.1394 -0.0402
   26MOL0     H 3507   8.321  10.122   0.832  1.0819 -0.2578  0.5976
   26MOL0     H 3508   8.577   9.962   0.821 -2.4391 -2.8757  1.6106
   26MOL0     H 3509   8.648  10.009   0.973 -0.9164  1.3224  2.3028
   26MOL0     H 3510   8.473   9.975   0.950  0.4449  0.0026  0.3006
   27MOL0     O 3511   0.737   1.426   4.860  0.4495  0.6918 -0.0901
   27MOL0     C 3512   0.685   1.420   4.973  1.3400  0.2700 -0.5479
   27MOL0     O 3513   0.622   1.306   5.017 -0.6755 -0.2230  0.7016
   27MOL0     C 3514   0.538   1.241   4.934  0.0704  0.4981 -0.5446
   27MOL0     C 3515   0.448   1.297   4.842 -0.7895 -0.0650  0.3762
   27MOL0     C 3516   0.372   1.222   4.750 -1.0113 -0.8640  0.8552
   27MOL0     C 3517   0.400   1.086   4.742 -0.3381 -0.5589  0.2115
   27MOL0     O 3518   0.328   1.008   4.660 -0.4351  0.1781  0.3919
   27MOL0     C 3519   0.195   1.037   4.633  0.4327  1.6864 -0.0590
   27MOL0     C 3520   0.091   1.021   4.750  0.1179  0.0470  0.4411
   27MOL0     C 3521   0.100   0.902   4.840  0.1399 -0.2104  0.1206
   27MOL0     C 3522   0.007   0.893   4.963  1.0870 -0.3190  0.0111
   27MOL0     C 3523   0.069   0.789   5.061  0.1512 -0.1221 -0.4995
   27MOL0     C 3524   0.156   0.866   5.160  0.8719 -0.3111 -0.3853
   27MOL0     C 3525   0.271   0.781   5.210 -0.0320  0.2104  0.7890
   27MOL0     C 3526   0.368   0.882   5.283  0.6378  0.4112  0.1921
   27MOL0     N 3527   0.492   0.829   5.326 -0.0407  0.0787 -0.7473
   27MOL0     C 3528   0.503   0.718   5.397 -0.9666  0.1289 -0.2821
   27MOL0     C 3529   0.638   0.693   5.399 -0.3850 -0.3192 -0.3437
   27MOL0     C 3530   0.697   0.565   5.465  0.3681 -1.0151  0.1078
   27MOL0     C 3531   0.804   0.509   5.363  1.2166 -0.2829 -0.4343
   27MOL0     C 3532   0.866   0.382   5.415 -0.0893 -0.0990  0.2449
   27MOL0     C 3533   0.954   0.304   5.318 -1.1857  0.4614 -0.4571
   27MOL0     O 3534   1.046   0.235   5.394 -0.5271 -0.1457  0.2266
   27MOL0     C 3535   1.157   0.312   5.437  0.2726  0.8294  0.7307
   27MOL0     C 3536   1.176   0.452   5.414 -0.0039 -0.2913  0.2377
   27MOL0     C 3537   1.296   0.506   5.455 -0.0416 -0.8810  0.4644
   27MOL0     C 3538   1.399   0.432   5.520  0.7344 -0.6256  0.2927
   27MOL0     C 3539   1.522   0.497   5.560 -0.6273  0.2123 -0.5401
   27MOL0     O 3540   1.519   0.626   5.580  1.3106 -0.1359 -0.3177
   27MOL0     C 3541   1.640   0.684   5.572 -0.2186  0.6472  0.1243
   27MOL0     C 3542   1.727   0.683   5.463  0.4348  0.3742 -0.8985
   27MOL0     C 3543   1.832   0.769   5.444  0.3562  0.9520 -0.6753
   27MOL0     C 3544   1.873   0.850   5.546 -0.2607  0.3050 -0.1519
   27MOL0     O 3545   1.978   0.935   5.550  0.3428  0.7233 -0.8831
   27MOL0     C 3546   2.042   0.955   5.428 -0.1005  0.1259  0.1986
   27MOL0     C 3547   2.144   1.074   5.450  0.0219  0.0344 -1.0531
   27MOL0     C 3548   2.071   1.204   5.451 -0.1271 -0.2904  0.0916
   27MOL0     C 3549   2.173   1.301   5.526  0.4514  0.7604  0.2023
   27MOL0     C 3550   2.132   1.446   5.558 -0.2620  0.5562  0.4669
   27MOL0     C 3551   2.079   1.517   5.433  1.2332  0.8506 -0.1407
   27MOL0     C 3552   1.993   1.643   5.466 -1.1957  0.2942  0.8747
   27MOL0     C 3553   1.888   1.624   5.576 -0.2524  0.9963 -0.2317
   27MOL0    Cl 3554   1.774   1.767   5.578 -0.2815  0.1211  0.2159
   27MOL0     C 3555   1.804   0.847   5.671  1.2029  1.1550  0.0753
   27MOL0     C 3556   1.686   0.765   5.679 -0.5002 -0.2559 -0.4144
   27MOL0     O 3557   1.625   0.428   5.553  0.2118  0.2609 -0.2736
   27MOL0     C 3558   1.370   0.298   5.558 -0.0005  0.4525 -0.3486
   27MOL0     C 3559   1.259   0.234   5.504  0.0728  0.6251  0.4606
   27MOL0     N 3560   0.704   0.799   5.331 -0.3635 -0.0048 -0.0760
   27MOL0     N 3561   0.608   0.878   5.284 -0.2041  0.2922  0.3433
   27MOL0     C 3562   0.494   1.026   4.826  0.1936 -0.2292  0.8645
   27MOL0     C 3563   0.557   1.102   4.926  0.0912  0.6467 -0.6810
   27MOL0     C 3564   0.700   1.540   5.053 -0.8923  0.4619 -0.8558
   27MOL0     C 3565   0.770   1.640   5.006 -0.6895  0.0609 -0.2979
   27MOL0     C 3566   0.790   1.753   5.088 -0.0004 -0.0553  0.6781
   27MOL0     C 3567   0.725   1.776   5.210  0.1476 -0.1364  0.7831
   27MOL0     O 3568   0.737   1.904   5.275 -0.4922 -0.6334  0.8241
   27MOL0     C 3569   0.672   1.940   5.397  0.2222 -0.1470 -0.5779
   27MOL0     C 3570   0.721   2.079   5.449  0.8844 -0.2648 -0.9560
   27MOL0     C 3571   0.875   2.073   5.496 -0.5051  0.9575 -0.3116
   27MOL0     C 3572   0.927   2.210   5.534 -0.2659  0.6586  0.2660
   27MOL0     C 3573   0.852   2.260   5.645 -1.0994  0.2219 -0.1809
   27MOL0     C 3574   0.794   2.317   5.736 -0.8464 -0.2262  0.0651
   27MOL0     C 3575   0.663   1.665   5.269  0.5273 -0.0360 -0.0380
   27MOL0     C 3576   0.654   1.548   5.185  0.1057 -0.4942  0.5992
   27MOL0     C 3577   0.579   1.443   5.247 -0.0114  1.1106  0.8641
   27MOL0     H 3578   0.428   1.404   4.844  0.9635  0.3551 -1.5643
   27MOL0     H 3579   0.313   1.275   4.676  1.0576  0.6404  0.1914
   27MOL0     H 3580   0.185   1.141   4.599  0.9891  1.6131 -0.4594
   27MOL0     H 3581   0.176   0.974   4.546  2.5546  1.9825 -0.8063
   27MOL0     H 3582  -0.005   1.005   4.702  1.1135 -6.8009 -0.1810
   27MOL0     H 3583   0.075   1.111   4.810 -0.0280 -0.5245  1.2794
   27MOL0     H 3584   0.204   0.886   4.869  0.8968  0.3996 -2.0648
   27MOL0     H 3585   0.083   0.817   4.773 -2.3100  0.4928 -0.2725
   27MOL0     H 3586  -0.014   0.991   5.008 -0.9633 -0.8309  0.2437
   27MOL0     H 3587  -0.090   0.852   4.935 -0.2111  1.7169  1.2347
   27MOL0     H 3588  -0.017   0.740   5.107 -1.1764  2.3942 -0.1126
   27MOL0     H 3589   0.122   0.724   4.991  0.2493  0.6764 -1.1859
   27MOL0     H 3590   0.205   0.950   5.112  2.1925 -0.7500  0.1525
   27MOL0     H 3591   0.091   0.904   5.240 -1.6230 -1.0007 -1.9713
   27MOL0     H 3592   0.319   0.723   5.130  0.9591  1.9154  0.0751
   27MOL0     H 3593   0.221   0.711   5.277 -2.3103  1.0069  0.0065
   27MOL0     H 3594   0.383   0.957   5.205 -3.5268  0.6218 -0.6076
   27MOL0     H 3595   0.317   0.929   5.367  2.1391  5.1286 -1.2415
   27MOL0     H 3596   0.425   0.663   5.448 -0.9080  1.2446  1.0512
   27MOL0     H 3597   0.754   0.579   5.557 -0.9068  0.3754  0.7286
   27MOL0     H 3598   0.612   0.497   5.480  0.8588 -1.9829 -1.2664
   27MOL0     H 3599   0.761   0.495   5.264 -0.8359  1.5242  0.1191
   27MOL0     H 3600   0.887   0.577   5.341  0.5229 -0.0962 -2.7453
   27MOL0     H 3601   0.792   0.318   5.464  1.0342 -1.9892 -0.4410
   27MOL0     H 3602   0.930   0.414   5.498 -0.0014  2.8630 -0.8462
   27MOL0     H 3603   0.996   0.367   5.239 -0.6654  2.5769  1.3962
   27MOL0     H 3604   0.902   0.219   5.274  0.9946 -0.3085 -1.6646
   27MOL0     H 3605   1.103   0.513   5.360  2.6429  1.8925 -1.1027
   27MOL0     H 3606   1.301   0.611   5.427  1.4043 -1.1526 -0.3942
   27MOL0     H 3607   1.708   0.617   5.379 -3.6845 -1.2804  1.0531
   27MOL0     H 3608   1.886   0.764   5.350 -1.2710  1.4277 -1.6763
   27MOL0     H 3609   2.092   0.861   5.403  0.5789  0.8523 -1.2495
   27MOL0     H 3610   1.988   0.984   5.337  0.6815 -0.0545 -0.3292
   27MOL0     H 3611   2.188   1.055   5.548  1.2147  1.6316 -1.2471
   27MOL0     H 3612   2.232   1.069   5.386  0.0430  0.9948 -1.1226
   27MOL0     H 3613   2.050   1.234   5.348 -2.6167  0.1269  0.6621
   27MOL0     H 3614   1.971   1.197   5.493 -1.8503  0.7377 -3.4154
   27MOL0     H 3615   2.262   1.300   5.461 -2.0689  1.0349 -3.5430
   27MOL0     H 3616   2.200   1.254   5.621  1.1123 -0.2258 -0.4477
   27MOL0     H 3617   2.221   1.493   5.601 -1.1892  1.0757  1.9041
   27MOL0     H 3618   2.050   1.448   5.630 -0.8416  0.9693 -0.1862
   27MOL0     H 3619   2.168   1.545   5.375  0.2547  0.1947 -2.0325
   27MOL0     H 3620   2.021   1.448   5.371  0.0528 -1.0575  2.8645
   27MOL0     H 3621   1.948   1.675   5.371  0.9262  0.6501 -0.0701
   27MOL0     H 3622   2.053   1.730   5.494 -0.9927 -0.5030  3.1202
   27MOL0     H 3623   1.831   1.536   5.547 -1.2954  0.4898  2.9933
   27MOL0     H 3624   1.934   1.617   5.675 -0.5659  2.0764  0.0029
   27MOL0     H 3625   1.817   0.901   5.764 -4.4823  0.4025  1.7199
   27MOL0     H 3626   1.620   0.775   5.765  1.4410  0.7802  1.0447
   27MOL0     H 3627   1.438   0.253   5.630 -1.4057 -0.0551  0.6937
   27MOL0     H 3628   1.230   0.133   5.530 -0.1049  0.9892  1.7793
   27MOL0     H 3629   0.523   0.924   4.804  2.8268  0.9185 -1.6273
   27MOL0     H 3630   0.636   1.055   4.985 -0.4610 -0.1974 -0.6127
   27MOL0     H 3631   0.796   1.648   4.901  0.3179 -0.3797 -0.0935
   27MOL0     H 3632   0.834   1.841   5.042 -1.7819  0.0865 -0.8862
   27MOL0     H 3633   0.683   1.870   5.480 -5.7956 -1.5078 -0.4337
   27MOL0     H 3634   0.566   1.942   5.368  0.0019  0.4541  0.2172
   27MOL0     H 3635   0.665   2.105   5.539 -0.1781 -0.3790 -1.5697
   27MOL0     H 3636   0.702   2.147   5.366 -4.6899 -0.0420  0.1235
   27MOL0     H 3637   0.932   2.035   5.411 -2.2126 -1.7576 -0.3966
   27MOL0     H 3638   0.888   2.005   5.581 -3.5912 -0.0479 -0.4966
   27MOL0     H 3639   1.034   2.207   5.553  0.2583  1.4177 -2.2087
   27MOL0     H 3640   0.911   2.287   5.458 -0.4284  3.1450  2.6405
   27MOL0     H 3641   0.747   2.373   5.814  2.5446  1.7641  0.8749
   27MOL0     H 3642   0.620   1.672   5.368 -0.3496  0.2319 -0.4341
   27MOL0     H 3643   0.530   1.461   5.343 -0.2236  0.8801  0.7998
   27MOL0     H 3644   0.500   1.421   5.175  1.8662 -0.9360 -0.7143
   27MOL0     H 3645   0.647   1.357   5.251 -2.4519 -0.9977 -0.4166
   28MOL0     O 3646   0.305   8.105   3.495 -0.4109 -0.0094 -0.0218
   28MOL0     C 3647   0.199   8.073   3.524 -1.1142  0.5161 -0.1086
   28MOL0     O 3648   0.172   7.998   3.640 -0.2263 -0.0387  0.2176
   28MOL0     C 3649   0.243   8.013   3.752 -0.3783 -0.9647  0.5764
   28MOL0     C 3650   0.329   8.120   3.788 -1.0105 -0.5674  0.7507
   28MOL0     C 3651   0.384   8.138   3.914  0.1066 -0.3921 -0.6691
   28MOL0     C 3652   0.364   8.043   4.016  0.0674  0.3289  0.7058
   28MOL0     O 3653   0.418   8.067   4.144 -0.1537 -0.3030 -0.9738
   28MOL0     C 3654   0.341   8.023   4.259  1.3631  1.1099 -0.1347
   28MOL0     C 3655   0.376   7.874   4.305  0.1243  0.1235 -0.2626
   28MOL0     C 3656   0.386   7.856   4.462  0.3022 -0.6289 -0.1178
   28MOL0     C 3657   0.394   7.711   4.500 -0.3098 -0.5532 -0.2116
   28MOL0     C 3658   0.461   7.704   4.634 -0.5428 -0.3642 -0.5096
   28MOL0     C 3659   0.391   7.771   4.763  0.3546  0.1531  1.2781
   28MOL0     C 3660   0.485   7.736   4.880  0.9734 -0.1297 -0.2232
   28MOL0     C 3661   0.464   7.851   4.983  1.1383  0.5671  0.3631
   28MOL0     N 3662   0.517   7.844   5.111 -1.0495  0.8138  1.0081
   28MOL0     C 3663   0.612   7.749   5.152  0.8825 -0.3210  0.5333
   28MOL0     C 3664   0.625   7.772   5.286 -0.5995  0.5062 -0.3091
   28MOL0     C 3665   0.735   7.702   5.364 -0.2242 -0.4179 -0.1247
   28MOL0     C 3666   0.871   7.751   5.320  0.9225  0.2788 -0.1422
   28MOL0     C 3667   0.980   7.658   5.376  0.4215 -0.2091  1.0147
   28MOL0     C 3668   0.992   7.681   5.521 -0.3174  0.4801 -0.9782
   28MOL0     O 3669   1.061   7.574   5.594  0.5684 -0.1583  0.5212
   28MOL0     C 3670   1.069   7.595   5.731  0.3931  0.4509  0.3811
   28MOL0     C 3671   1.191   7.631   5.772 -0.2140  0.7025 -0.0884
   28MOL0     C 3672   1.215   7.647   5.914  0.3424  0.2191  0.0575
   28MOL0     C 3673   1.102   7.636   5.998  0.3848 -0.9491 -0.6153
   28MOL0     C 3674   1.118   7.657   6.144 -0.1572  0.0006  0.1097
   28MOL0     O 3675   1.244   7.712   6.176  0.6142  0.0274 -0.1463
   28MOL0     C 3676   1.294   7.708   6.306 -0.1622 -0.6299  0.2063
   28MOL0     C 3677   1.314   7.835   6.361  0.2920  1.1138 -1.0618
   28MOL0     C 3678   1.325   7.837   6.497 -0.7416  0.3052 -0.8112
   28MOL0     C 3679   1.345   7.723   6.580  0.3359 -1.2007 -0.5468
   28MOL0     O 3680   1.375   7.728   6.711 -1.0252 -0.1018 -0.3381
   28MOL0     C 3681   1.290   7.815   6.790  0.3744  0.2505  0.2118
   28MOL0     C 3682   1.241   7.754   6.927 -0.7031  0.5933  0.1688
   28MOL0     C 3683   1.148   7.862   6.993 -0.3019  0.6375 -0.2927
   28MOL0     C 3684   1.115   7.831   7.146 -0.5725  0.5952 -0.0977
   28MOL0     C 3685   1.020   7.932   7.210  1.2173 -0.7276  0.9949
   28MOL0     C 3686   1.093   8.057   7.252 -0.8442 -0.0222  0.1698
   28MOL0     C 3687   0.998   8.174   7.292  0.3828  0.2099 -1.0997
   28MOL0     C 3688   1.078   8.288   7.364  0.9273  0.1388  0.6919
   28MOL0    Cl 3689   0.969   8.412   7.438 -0.2556 -0.0929  1.0280
   28MOL0     C 3690   1.330   7.600   6.517 -0.7402 -0.0050  0.2802
   28MOL0     C 3691   1.295   7.594   6.383 -0.4986  0.5168  0.1914
   28MOL0     O 3692   1.047   7.591   6.219 -0.1449  0.3210  0.0091
   28MOL0     C 3693   0.975   7.606   5.953  0.0443  0.5072 -1.0515
   28MOL0     C 3694   0.959   7.587   5.817  1.1139 -0.3305  0.0762
   28MOL0     N 3695   0.545   7.874   5.321 -0.3141  0.4439  0.1325
   28MOL0     N 3696   0.474   7.911   5.219  0.4516  1.0559  0.2036
   28MOL0     C 3697   0.274   7.935   3.976 -0.0561 -0.1005  0.2162
   28MOL0     C 3698   0.219   7.922   3.850 -0.1246 -0.0580  0.1412
   28MOL0     C 3699   0.107   8.057   3.415 -0.4465  0.2170  0.5395
   28MOL0     C 3700   0.085   7.933   3.369  0.1029 -0.3406  0.0195
   28MOL0     C 3701   0.013   7.917   3.244 -0.2411  0.2059  0.0122
   28MOL0     C 3702  -0.052   8.023   3.176  0.6580 -0.7980  0.6147
   28MOL0     O 3703  -0.131   8.006   3.060 -0.6766 -0.2544  0.6156
   28MOL0     C 3704  -0.169   7.879   3.030  0.4736  0.5749  0.7230
   28MOL0     C 3705  -0.292   7.825   3.105  0.5266 -0.3921 -0.3636
   28MOL0     C 3706  -0.303   7.675   3.077 -0.2923  0.5898  0.7551
   28MOL0     C 3707  -0.178   7.602   3.073 -0.7817  0.7512 -1.1525
   28MOL0     C 3708  -0.186   7.470   3.138  0.3149 -0.2999 -1.0893
   28MOL0     C 3709  -0.216   7.360   3.188  0.6082 -1.2051 -0.1729
   28MOL0     C 3710  -0.032   8.151   3.232 -0.7219 -1.0883  0.1604
   28MOL0     C 3711   0.050   8.170   3.348  0.0290  0.7475  0.4125
   28MOL0     C 3712   0.079   8.313   3.395  0.0993 -0.0117 -0.3021
   28MOL0     H 3713   0.371   8.189   3.715 -3.2800 -0.9520 -1.0394
   28MOL0     H 3714   0.427   8.237   3.926 -1.8202  0.6307 -1.6841
   28MOL0     H 3715   0.352   8.091   4.344 -1.4525  0.1352  1.1361
   28MOL0     H 3716   0.237   8.022   4.225  0.2746 -1.7191  2.7975
   28MOL0     H 3717   0.475   7.856   4.262  0.3344 -0.8491  0.5887
   28MOL0     H 3718   0.308   7.805   4.255 -0.0180 -0.9987  1.4128
   28MOL0     H 3719   0.299   7.903   4.509  0.8307  0.2349  0.0110
   28MOL0     H 3720   0.464   7.918   4.507  1.6288 -1.3877 -1.2940
   28MOL0     H 3721   0.288   7.684   4.493 -0.8698  0.8921  1.7874
   28MOL0     H 3722   0.454   7.651   4.431  4.2877  0.9505  2.0821
   28MOL0     H 3723   0.440   7.600   4.660  1.3394 -0.1567  2.3095
   28MOL0     H 3724   0.564   7.739   4.627 -0.2391 -0.3756  2.4530
   28MOL0     H 3725   0.383   7.879   4.753 -1.8869 -0.0009  1.0327
   28MOL0     H 3726   0.291   7.733   4.784  0.7083  0.5058  3.9611
   28MOL0     H 3727   0.593   7.742   4.864  1.6554 -1.5097  2.9827
   28MOL0     H 3728   0.464   7.635   4.919 -1.3402  0.3105 -0.2061
   28MOL0     H 3729   0.492   7.947   4.939  0.8799 -0.7858 -3.0429
   28MOL0     H 3730   0.358   7.866   5.006  1.0175  0.9042 -0.3921
   28MOL0     H 3731   0.669   7.689   5.082 -0.2484  1.6145 -2.2507
   28MOL0     H 3732   0.725   7.718   5.472 -0.9396  3.3863 -0.6297
   28MOL0     H 3733   0.728   7.593   5.353  2.0252 -0.4798 -1.4965
   28MOL0     H 3734   0.872   7.757   5.211 -1.7910 -0.4317 -0.2898
   28MOL0     H 3735   0.903   7.849   5.357 -1.9853  1.4135 -0.3906
   28MOL0     H 3736   1.069   7.687   5.320  0.5579 -3.5261 -0.7158
   28MOL0     H 3737   0.960   7.551   5.364 -0.4771  0.0665 -0.2415
   28MOL0     H 3738   0.902   7.705   5.578  1.9481 -1.9890  4.3366
   28MOL0     H 3739   1.047   7.775   5.531  1.9953 -0.4824 -3.2661
   28MOL0     H 3740   1.278   7.644   5.707  1.0444 -1.7710  0.9854
   28MOL0     H 3741   1.314   7.649   5.958 -0.6163  0.2810  2.3488
   28MOL0     H 3742   1.309   7.927   6.305  1.2008  1.8305 -0.0001
   28MOL0     H 3743   1.341   7.933   6.545  1.5474 -0.5803  0.3784
   28MOL0     H 3744   1.324   7.919   6.802 -1.0932  1.3856 -3.7698
   28MOL0     H 3745   1.197   7.816   6.733 -0.5558  0.1602  1.6754
   28MOL0     H 3746   1.192   7.659   6.904 -0.6587  0.1046  1.9032
   28MOL0     H 3747   1.314   7.730   7.005 -1.9972 -3.9451  0.2937
   28MOL0     H 3748   1.189   7.963   6.988 -0.0042  0.6112  1.0547
   28MOL0     H 3749   1.048   7.861   6.949 -0.7464  1.8375  0.6263
   28MOL0     H 3750   1.209   7.826   7.202  0.8809  1.9208 -2.2654
   28MOL0     H 3751   1.062   7.735   7.157  1.5086 -0.6818 -0.6495
   28MOL0     H 3752   0.978   7.879   7.295 -0.3478  2.5785  2.4491
   28MOL0     H 3753   0.946   7.961   7.135  0.3060  0.4863  2.3072
   28MOL0     H 3754   1.149   8.021   7.340  1.1874  0.5890 -0.8001
   28MOL0     H 3755   1.170   8.085   7.179  0.6796 -1.8537  0.9764
   28MOL0     H 3756   0.923   8.132   7.359  3.2979 -1.0560  1.6032
   28MOL0     H 3757   0.967   8.206   7.192  2.3433  1.0627 -1.4894
   28MOL0     H 3758   1.143   8.231   7.432  2.3459 -0.7145 -1.2596
   28MOL0     H 3759   1.143   8.332   7.289 -1.7877  1.3062 -1.1254
   28MOL0     H 3760   1.336   7.506   6.571 -1.7241 -0.0436  0.3515
   28MOL0     H 3761   1.282   7.499   6.332  4.6429  1.6996 -4.1807
   28MOL0     H 3762   0.885   7.590   6.011  1.2129 -1.2208  0.4280
   28MOL0     H 3763   0.867   7.575   5.761  0.7111 -2.8703  1.1486
   28MOL0     H 3764   0.238   7.869   4.054 -0.2539 -1.4177 -0.9530
   28MOL0     H 3765   0.162   7.838   3.812 -2.1688  2.1217 -1.9506
   28MOL0     H 3766   0.147   7.852   3.408  1.5170  0.7479  0.1194
   28MOL0     H 3767   0.029   7.819   3.201 -0.8262 -0.4709  1.2652
   28MOL0     H 3768  -0.087   7.807   3.015  0.6192  1.0254 -0.8610
   28MOL0     H 3769  -0.220   7.898   2.935 -1.9806  0.9385  2.0453
   28MOL0     H 3770  -0.380   7.882   3.073  1.4744  1.6762  0.4994
   28MOL0     H 3771  -0.270   7.840   3.211  0.9934 -2.1486 -0.1868
   28MOL0     H 3772  -0.366   7.657   2.989  1.3143  0.6539 -0.4523
   28MOL0     H 3773  -0.363   7.634   3.158 -0.3862  1.5545  1.1874
   28MOL0     H 3774  -0.143   7.603   2.969 -0.8540 -0.9820 -1.2307
   28MOL0     H 3775  -0.096   7.647   3.129 -1.9687  2.5569 -0.7997
   28MOL0     H 3776  -0.253   7.275   3.242 -1.2521  0.2149  0.9042
   28MOL0     H 3777  -0.070   8.235   3.176 -3.0440 -1.6130  0.8282
   28MOL0     H 3778   0.009   8.383   3.349 -0.2416  0.4106  0.8293
   28MOL0     H 3779   0.060   8.338   3.499  1.1290 -0.0661 -0.0920
   28MOL0     H 3780   0.183   8.338   3.370 -0.6440  2.5537 -1.0910
   29MOL0     O 3781   8.985   7.404   7.731  1.1085  0.3670  0.3911
   29MOL0     C 3782   9.007   7.334   7.830  0.1219 -0.5422 -0.1179
   29MOL0     O 3783   9.075   7.213   7.818 -0.3873 -0.8053  0.5305
   29MOL0     C 3784   9.120   7.180   7.697 -0.0297 -0.8448 -0.6351
   29MOL0     C 3785   9.211   7.255   7.630 -0.2404  0.5136  0.5378
   29MOL0     C 3786   9.256   7.226   7.504  0.2500 -0.1815  0.1493
   29MOL0     C 3787   9.211   7.110   7.441  0.2702  0.6517  0.1136
   29MOL0     O 3788   9.256   7.069   7.317 -0.0240  0.7443  0.4978
   29MOL0     C 3789   9.150   7.024   7.226 -1.3072 -0.4835  0.5730
   29MOL0     C 3790   9.207   6.934   7.117  0.2703 -1.2935  0.0988
   29MOL0     C 3791   9.304   7.007   7.016 -1.1818  0.1399  0.4784
   29MOL0     C 3792   9.463   6.964   7.017  0.4835  0.0802 -0.4627
   29MOL0     C 3793   9.542   7.019   7.141  0.7180  0.4586  0.9618
   29MOL0     C 3794   9.556   7.172   7.142  0.3322  0.6174  0.7852
   29MOL0     C 3795   9.572   7.243   7.001 -0.0129 -1.2363 -0.2615
   29MOL0     C 3796   9.625   7.388   7.019  0.2398  0.5851 -0.3009
   29MOL0     N 3797   9.568   7.460   7.136  0.6313  0.1487  0.3137
   29MOL0     C 3798   9.445   7.524   7.125  0.4573  0.3009 -0.1475
   29MOL0     C 3799   9.416   7.561   7.251 -0.7152 -0.9407 -0.2296
   29MOL0     C 3800   9.311   7.649   7.291 -0.3123 -0.7300 -0.2039
   29MOL0     C 3801   9.243   7.642   7.425 -0.1684  0.7594 -0.5085
   29MOL0     C 3802   9.340   7.650   7.537  0.2164  0.7919  0.2500
   29MOL0     C 3803   9.248   7.660   7.664 -0.5817 -0.0595  0.1898
   29MOL0     O 3804   9.341   7.646   7.781  0.4931 -0.6517 -0.0327
   29MOL0     C 3805   9.292   7.651   7.912  0.5388 -0.6824  0.2015
   29MOL0     C 3806   9.157   7.686   7.932 -0.7381 -0.2412 -0.9968
   29MOL0     C 3807   9.111   7.699   8.062  0.1773 -0.1367  0.6436
   29MOL0     C 3808   9.191   7.677   8.175  0.2695  0.8795 -0.4612
   29MOL0     C 3809   9.130   7.719   8.299 -0.2121 -0.3704  0.2933
   29MOL0     O 3810   9.009   7.785   8.301 -0.2195  0.2093  0.5794
   29MOL0     C 3811   8.969   7.870   8.391 -0.8823 -0.1516  0.5683
   29MOL0     C 3812   9.021   7.899   8.520 -0.1468  1.0686  0.3445
   29MOL0     C 3813   8.982   8.014   8.593 -0.1732 -0.5712  0.3951
   29MOL0     C 3814   8.874   8.091   8.545 -0.3931 -0.2155  0.4604
   29MOL0     O 3815   8.827   8.209   8.604 -0.6709 -0.3470  0.4973
   29MOL0     C 3816   8.931   8.285   8.664  0.0878  0.0687  0.6491
   29MOL0     C 3817   9.029   8.354   8.560  0.4503  0.1445 -0.2371
   29MOL0     C 3818   8.946   8.467   8.487 -0.7402  0.1112 -0.5536
   29MOL0     C 3819   9.042   8.549   8.390  0.4865  0.0932 -0.3669
   29MOL0     C 3820   8.971   8.680   8.352 -0.1804 -0.3515  0.0822
   29MOL0     C 3821   9.035   8.747   8.226  0.3747 -0.5086  0.8668
   29MOL0     C 3822   9.008   8.896   8.204  0.6048 -0.8289 -0.3367
   29MOL0     C 3823   8.859   8.938   8.228 -1.5057 -0.0930 -0.1784
   29MOL0    Cl 3824   8.748   8.812   8.171 -0.5122 -0.2732  0.4560
   29MOL0     C 3825   8.814   8.048   8.418 -0.1830 -0.8009  0.9084
   29MOL0     C 3826   8.866   7.944   8.345  0.0650 -0.0814  0.9806
   29MOL0     O 3827   9.200   7.704   8.399 -0.4611 -0.0465  0.9190
   29MOL0     C 3828   9.323   7.642   8.149 -1.2142  0.6082 -0.1078
   29MOL0     C 3829   9.374   7.629   8.021  0.8250  0.0450 -1.2752
   29MOL0     N 3830   9.522   7.528   7.329  0.4277  0.3059 -0.2951
   29MOL0     N 3831   9.613   7.461   7.263  1.0082 -1.4026 -0.2560
   29MOL0     C 3832   9.128   7.022   7.515  0.7366  0.0623  0.1928
   29MOL0     C 3833   9.077   7.059   7.638 -0.2919  0.9083  0.0390
   29MOL0     C 3834   8.964   7.387   7.966 -0.0094  0.3670 -0.9124
   29MOL0     C 3835   9.035   7.342   8.081 -0.1780  0.2300  0.0786
   29MOL0     C 3836   8.996   7.372   8.206 -0.9445  0.3689  0.6412
   29MOL0     C 3837   8.878   7.436   8.240  0.0182 -0.0313  0.2531
   29MOL0     O 3838   8.840   7.451   8.378 -0.7623 -0.6710 -0.6574
   29MOL0     C 3839   8.761   7.553   8.413  0.1494 -0.2357 -0.3212
   29MOL0     C 3840   8.714   7.557   8.564 -0.6135  0.9079  0.8252
   29MOL0     C 3841   8.843   7.543   8.651  0.5553  0.5485  0.3234
   29MOL0     C 3842   8.824   7.589   8.799  0.3394 -0.7669  0.4061
   29MOL0     C 3843   8.764   7.485   8.880 -0.5593  0.7249  0.0449
   29MOL0     C 3844   8.718   7.399   8.954  0.8585 -0.8992 -0.9206
   29MOL0     C 3845   8.809   7.492   8.128  0.6083  0.4432 -0.7502
   29MOL0     C 3846   8.846   7.465   7.995 -0.0508  0.8171 -0.8506
   29MOL0     C 3847   8.757   7.525   7.890  0.2089 -0.0899  0.6403
   29MOL0     H 3848   9.253   7.346   7.672  4.1783 -0.3353 -1.4015
   29MOL0     H 3849   9.322   7.293   7.449  1.3751 -1.5796 -0.2601
   29MOL0     H 3850   9.061   6.969   7.260 -1.1891 -1.2730 -0.3594
   29MOL0     H 3851   9.111   7.119   7.187  0.0498  0.3007  1.0747
   29MOL0     H 3852   9.125   6.893   7.058  0.0730 -2.0622  0.8838
   29MOL0     H 3853   9.255   6.856   7.177 -0.4726 -0.8344  1.3307
   29MOL0     H 3854   9.322   7.114   7.030  1.7136  0.1699 -2.2648
   29MOL0     H 3855   9.263   6.988   6.916 -0.9771 -0.2234  0.4613
   29MOL0     H 3856   9.467   6.856   7.029 -2.6810 -0.0497  0.4545
   29MOL0     H 3857   9.520   7.001   6.931 -1.4188  0.8035 -1.4834
   29MOL0     H 3858   9.496   6.986   7.234  0.6102 -1.5667  0.2445
   29MOL0     H 3859   9.645   6.982   7.137  0.2818 -1.2375  3.2529
   29MOL0     H 3860   9.474   7.213   7.201 -2.7682 -1.9247 -1.4206
   29MOL0     H 3861   9.647   7.191   7.200 -0.9117  0.5581  2.8451
   29MOL0     H 3862   9.477   7.247   6.948  0.0330  0.7526 -0.2922
   29MOL0     H 3863   9.635   7.184   6.934  1.6284  1.2951 -1.1321
   29MOL0     H 3864   9.728   7.361   7.041  0.1237 -1.0964 -1.6275
   29MOL0     H 3865   9.617   7.452   6.931  2.6103  0.2244 -0.8513
   29MOL0     H 3866   9.384   7.550   7.039  0.4877 -0.9418 -0.5581
   29MOL0     H 3867   9.340   7.754   7.277 -2.8566 -0.1957 -2.2336
   29MOL0     H 3868   9.237   7.633   7.212  1.1170  1.6919 -2.1975
   29MOL0     H 3869   9.175   7.728   7.427  3.0080  3.5201  1.7816
   29MOL0     H 3870   9.185   7.550   7.431 -0.8221  1.0945 -1.4687
   29MOL0     H 3871   9.410   7.732   7.523 -1.4593  2.1099 -0.7079
   29MOL0     H 3872   9.396   7.555   7.544  0.2244  0.5454 -2.1966
   29MOL0     H 3873   9.180   7.575   7.663 -1.7202  0.8291  0.2202
   29MOL0     H 3874   9.179   7.744   7.666 -2.0574 -1.2592  1.8906
   29MOL0     H 3875   9.089   7.703   7.849  2.5040 -0.9860 -4.0785
   29MOL0     H 3876   9.008   7.733   8.068  0.9155  2.8317 -1.4157
   29MOL0     H 3877   9.101   7.837   8.559 -0.4556 -0.8194 -1.8070
   29MOL0     H 3878   9.021   8.021   8.694  1.2290 -3.5392  0.1830
   29MOL0     H 3879   8.877   8.365   8.716 -0.2869  1.1834 -1.3647
   29MOL0     H 3880   8.984   8.222   8.736  1.2821 -1.9734 -1.8649
   29MOL0     H 3881   9.114   8.397   8.612 -0.8913  0.7469  1.5607
   29MOL0     H 3882   9.074   8.281   8.492  2.3591 -0.3542  1.4991
   29MOL0     H 3883   8.872   8.408   8.432  0.6062 -0.6669 -1.6055
   29MOL0     H 3884   8.900   8.530   8.563  0.1781 -0.6829  0.7062
   29MOL0     H 3885   9.058   8.490   8.300  1.6820 -1.9779  1.1262
   29MOL0     H 3886   9.140   8.584   8.424 -0.0652  0.4057  0.9538
   29MOL0     H 3887   8.978   8.732   8.448  0.9955 -2.3901  1.1592
   29MOL0     H 3888   8.863   8.672   8.332 -0.2255 -0.4192  0.3525
   29MOL0     H 3889   9.143   8.730   8.230  0.6992  1.1308 -0.1215
   29MOL0     H 3890   9.008   8.696   8.134  4.2464  0.9069 -1.2464
   29MOL0     H 3891   9.039   8.934   8.107  0.9441  1.4125  0.5915
   29MOL0     H 3892   9.057   8.953   8.283 -0.9187 -1.2725  0.9871
   29MOL0     H 3893   8.847   8.944   8.337  0.8121 -0.2281  0.1270
   29MOL0     H 3894   8.834   9.030   8.175  0.2304  0.3970 -0.2093
   29MOL0     H 3895   8.740   8.114   8.374 -3.1181 -2.3865  3.0797
   29MOL0     H 3896   8.810   7.915   8.256 -0.4494  2.1484  0.5219
   29MOL0     H 3897   9.389   7.633   8.235 -0.6131 -2.4996 -0.7952
   29MOL0     H 3898   9.479   7.610   8.006  0.8615  1.2645 -2.9081
   29MOL0     H 3899   9.103   6.928   7.467 -2.6178  1.0429 -0.2578
   29MOL0     H 3900   9.003   6.991   7.678 -0.4616 -1.6141 -4.0197
   29MOL0     H 3901   9.111   7.265   8.075 -3.8545 -3.7761 -0.1559
   29MOL0     H 3902   9.052   7.342   8.293 -3.7289  0.5947  2.6384
   29MOL0     H 3903   8.668   7.544   8.356  1.2641 -2.5926 -1.9303
   29MOL0     H 3904   8.815   7.646   8.391  0.7876 -0.5011  0.0796
   29MOL0     H 3905   8.646   7.473   8.582 -0.9512  1.1464  0.6757
   29MOL0     H 3906   8.673   7.653   8.597  0.7090  2.4631 -1.7096
   29MOL0     H 3907   8.918   7.611   8.611  2.1687 -1.3369  0.0171
   29MOL0     H 3908   8.874   7.439   8.642 -4.6935 -1.1178 -4.7837
   29MOL0     H 3909   8.922   7.613   8.841  1.3785 -4.3906  0.3854
   29MOL0     H 3910   8.756   7.673   8.814  3.0320  1.4549  1.0120
   29MOL0     H 3911   8.654   7.335   9.010 -1.4482  0.6228 -1.6586
   29MOL0     H 3912   8.720   7.552   8.143 -0.2069 -0.9599  0.2956
   29MOL0     H 3913   8.776   7.628   7.859  0.2126  0.1861  1.5164
   29MOL0     H 3914   8.740   7.458   7.805  1.8580  1.8769 -1.3585
   29MOL0     H 3915   8.655   7.520   7.928 -0.1241 -1.8824 -0.3566
   30MOL0     O 3916   2.251   9.766   2.718 -0.3653 -0.1342 -0.4326
   30MOL0     C 3917   2.234   9.851   2.636  0.7081  0.7028  0.6928
   30MOL0     O 3918   2.130   9.846   2.534 -1.2586  1.1106 -0.7437
   30MOL0     C 3919   2.015   9.776   2.552  0.1323 -0.2510  0.7675
   30MOL0     C 3920   1.954   9.725   2.436  0.1140 -0.0729  0.9199
   30MOL0     C 3921   1.824   9.667   2.447 -0.0845 -0.0621  0.3455
   30MOL0     C 3922   1.764   9.664   2.569  0.0776  0.2693  0.2436
   30MOL0     O 3923   1.636   9.608   2.567 -0.1278 -1.0831 -1.0486
   30MOL0     C 3924   1.531   9.672   2.638 -0.1442  0.5194  0.3593
   30MOL0     C 3925   1.395   9.603   2.599 -0.3117 -0.4858 -0.2621
   30MOL0     C 3926   1.275   9.678   2.648  0.1512 -0.5507  0.0739
   30MOL0     C 3927   1.149   9.594   2.631  0.4864  0.8047 -0.1394
   30MOL0     C 3928   1.025   9.688   2.621 -0.5093 -0.0477  0.1000
   30MOL0     C 3929   0.948   9.702   2.757 -0.4109 -1.6778  0.4904
   30MOL0     C 3930   0.859   9.817   2.744  0.4081  0.1574  0.5206
   30MOL0     C 3931   0.786   9.862   2.868  0.3398 -0.1443  0.0672
   30MOL0     N 3932   0.875   9.916   2.977 -1.2657 -1.1867 -0.1809
   30MOL0     C 3933   0.973  10.016   2.965 -0.0361  0.2564  0.6805
   30MOL0     C 3934   1.054  10.005   3.068  0.6186 -0.6157 -0.5774
   30MOL0     C 3935   1.171  10.077   3.092  0.3296  0.5750  0.1659
   30MOL0     C 3936   1.272  10.034   2.977  0.3461  0.4263  0.5117
   30MOL0     C 3937   1.404  10.105   2.997 -0.1310 -0.6807 -0.5567
   30MOL0     C 3938   1.524  10.051   2.920 -0.7979 -0.6556 -0.2279
   30MOL0     O 3939   1.523   9.904   2.919 -0.2602 -0.2725  0.4655
   30MOL0     C 3940   1.620   9.841   2.994  1.1595  0.5671  0.3095
   30MOL0     C 3941   1.582   9.724   3.047 -1.0165 -0.2125 -0.7681
   30MOL0     C 3942   1.665   9.642   3.120  0.5186  0.0257  0.3897
   30MOL0     C 3943   1.797   9.675   3.132 -0.1598  0.3308  0.0511
   30MOL0     C 3944   1.889   9.592   3.215  0.2952 -0.0164 -0.5949
   30MOL0     O 3945   2.002   9.644   3.263 -0.9087  0.8026  0.5634
   30MOL0     C 3946   2.089   9.564   3.345  0.2529 -0.9325 -0.4164
   30MOL0     C 3947   2.134   9.432   3.309 -0.4696  0.1627 -0.3484
   30MOL0     C 3948   2.224   9.352   3.381  0.4362  0.7573  0.3160
   30MOL0     C 3949   2.287   9.405   3.487  0.3709  0.5654  0.2442
   30MOL0     O 3950   2.394   9.350   3.556  0.7086  0.2265 -0.5657
   30MOL0     C 3951   2.486   9.259   3.492 -0.7541 -0.8263  0.1528
   30MOL0     C 3952   2.624   9.251   3.571  0.3034 -0.7720  1.0788
   30MOL0     C 3953   2.719   9.150   3.500  0.1967  0.5200  0.4685
   30MOL0     C 3954   2.860   9.135   3.573  0.2228 -0.6598 -0.6705
   30MOL0     C 3955   2.976   9.070   3.497 -0.3374 -0.7950  0.3625
   30MOL0     C 3956   3.104   9.067   3.582 -0.4288  0.1094 -0.7931
   30MOL0     C 3957   3.222   9.010   3.502  0.5840  0.3835 -0.7079
   30MOL0     C 3958   3.341   8.981   3.587  0.5951 -0.0873  0.5239
   30MOL0    Cl 3959   3.315   8.856   3.712 -0.0044  0.4023  0.3366
   30MOL0     C 3960   2.249   9.531   3.530  0.2426 -0.2202 -0.0199
   30MOL0     C 3961   2.148   9.612   3.465 -0.5623 -0.6540 -0.6798
   30MOL0     O 3962   1.838   9.482   3.253 -0.0721  0.1580  0.4470
   30MOL0     C 3963   1.848   9.792   3.078  0.9161 -0.1039 -0.7922
   30MOL0     C 3964   1.760   9.871   2.999 -0.2455 -0.3148  0.3192
   30MOL0     N 3965   0.987   9.923   3.156  0.1823  0.1219 -0.4765
   30MOL0     N 3966   0.890   9.864   3.101 -0.0289 -0.4611 -0.4984
   30MOL0     C 3967   1.826   9.718   2.689  0.8248  1.2972  0.1554
   30MOL0     C 3968   1.950   9.766   2.680 -1.0978 -0.3176  0.4076
   30MOL0     C 3969   2.318   9.968   2.636 -0.9149 -0.0385  0.0763
   30MOL0     C 3970   2.426   9.967   2.730  0.3836  1.6426  0.6625
   30MOL0     C 3971   2.511  10.076   2.755  0.1242  0.3336  0.2342
   30MOL0     C 3972   2.501  10.198   2.671  0.7815  0.1877 -1.7184
   30MOL0     O 3973   2.585  10.304   2.685  0.3429 -0.2138 -0.0404
   30MOL0     C 3974   2.548  10.395   2.784 -0.5108 -0.5404  0.9762
   30MOL0     C 3975   2.650  10.511   2.800  0.1735 -0.5874  1.3056
   30MOL0     C 3976   2.667  10.597   2.668 -0.1332 -0.9223 -0.2658
   30MOL0     C 3977   2.758  10.716   2.674 -1.4266 -0.0267  0.0959
   30MOL0     C 3978   2.757  10.791   2.551  1.6165 -0.4327  0.1734
   30MOL0     C 3979   2.756  10.859   2.449  0.4290 -0.6020 -0.3192
   30MOL0     C 3980   2.399  10.198   2.582 -0.6549  0.1733 -0.3251
   30MOL0     C 3981   2.305  10.086   2.569 -0.4296  0.0111 -0.0539
   30MOL0     C 3982   2.192  10.120   2.483  0.1278 -0.3048  0.5838
   30MOL0     H 3983   2.001   9.738   2.339  0.0882 -0.2157  0.8869
   30MOL0     H 3984   1.778   9.621   2.360  2.7999 -3.4998  0.4001
   30MOL0     H 3985   1.541   9.667   2.746  0.8235  1.0325  0.3049
   30MOL0     H 3986   1.536   9.778   2.613  2.7674  1.1322  2.9973
   30MOL0     H 3987   1.389   9.507   2.652 -0.8704 -0.6988 -0.6969
   30MOL0     H 3988   1.393   9.576   2.493  3.1836  1.4881 -0.9803
   30MOL0     H 3989   1.262   9.759   2.576 -3.6394 -0.0592  1.0722
   30MOL0     H 3990   1.281   9.723   2.748 -1.1793 -0.5369  0.1604
   30MOL0     H 3991   1.176   9.543   2.538  2.3986  0.8890  0.3359
   30MOL0     H 3992   1.137   9.522   2.713  0.3155 -1.4052 -2.0040
   30MOL0     H 3993   1.063   9.784   2.585 -2.1668  0.4181 -0.4960
   30MOL0     H 3994   0.960   9.640   2.547  0.3303 -1.7555  0.4076
   30MOL0     H 3995   0.897   9.608   2.779 -3.4595 -0.2561  0.0166
   30MOL0     H 3996   1.019   9.715   2.840 -1.1606 -1.6276  1.1270
   30MOL0     H 3997   0.775   9.773   2.689 -0.5209  1.5946  0.7472
   30MOL0     H 3998   0.902   9.900   2.686 -0.4514 -0.2445 -0.7569
   30MOL0     H 3999   0.709   9.933   2.837  0.3174 -2.3134 -6.2238
   30MOL0     H 4000   0.732   9.778   2.915  1.1537  1.9501  5.3917
   30MOL0     H 4001   0.981  10.081   2.879  1.4523  1.6228  1.7962
   30MOL0     H 4002   1.156  10.184   3.072  0.0581 -0.0241 -3.4570
   30MOL0     H 4003   1.201  10.051   3.194  1.0684  0.1435 -0.1578
   30MOL0     H 4004   1.278   9.925   2.975  0.3179  0.3388 -3.8174
   30MOL0     H 4005   1.230  10.061   2.880 -1.1615 -0.3469  0.9033
   30MOL0     H 4006   1.429  10.090   3.102  0.3820  0.2550 -0.5264
   30MOL0     H 4007   1.399  10.214   2.981  0.5415 -0.2056  2.0459
   30MOL0     H 4008   1.615  10.089   2.968 -0.1135 -0.1431 -1.8735
   30MOL0     H 4009   1.518  10.079   2.815 -1.2776  0.6832  0.1349
   30MOL0     H 4010   1.479   9.689   3.037 -0.6476 -0.9688 -2.1866
   30MOL0     H 4011   1.630   9.548   3.161  1.1347 -1.4950 -2.3797
   30MOL0     H 4012   2.098   9.401   3.211 -1.2826 -2.2918  0.6529
   30MOL0     H 4013   2.256   9.256   3.341  0.0383 -0.3899  2.6282
   30MOL0     H 4014   2.445   9.157   3.496 -3.1843  0.0980  0.2227
   30MOL0     H 4015   2.499   9.287   3.387 -0.3832  1.1062  0.6754
   30MOL0     H 4016   2.673   9.348   3.578  0.2676 -0.8051  1.8152
   30MOL0     H 4017   2.602   9.206   3.668 -0.3862  1.7738  2.1567
   30MOL0     H 4018   2.666   9.055   3.501  1.4459 -0.2155 -0.4448
   30MOL0     H 4019   2.731   9.166   3.392 -0.3069 -2.4811 -0.1225
   30MOL0     H 4020   2.842   9.088   3.670 -0.0915  1.8231  0.5555
   30MOL0     H 4021   2.889   9.238   3.595 -1.1564 -0.1994 -0.9204
   30MOL0     H 4022   3.000   9.122   3.404 -1.1557 -2.0618 -0.6034
   30MOL0     H 4023   2.931   8.981   3.452 -0.1913 -0.2154 -0.9849
   30MOL0     H 4024   3.121   9.167   3.623  0.4803  0.2171 -1.3969
   30MOL0     H 4025   3.083   9.002   3.668 -1.5650 -0.0224 -1.1472
   30MOL0     H 4026   3.256   9.072   3.419 -3.6812  1.1055 -2.1762
   30MOL0     H 4027   3.187   8.916   3.459  0.6876  0.3652 -0.7521
   30MOL0     H 4028   3.428   8.952   3.526 -1.9563 -0.2468 -3.3542
   30MOL0     H 4029   3.378   9.074   3.632  2.3149 -1.1776  1.4704
   30MOL0     H 4030   2.300   9.565   3.620 -2.6049  1.7086  1.0026
   30MOL0     H 4031   2.129   9.715   3.496 -1.5082 -1.4163  1.4446
   30MOL0     H 4032   1.953   9.815   3.094  1.0922 -0.5734 -1.2623
   30MOL0     H 4033   1.814   9.950   2.949  0.8040 -1.5403 -0.5621
   30MOL0     H 4034   1.775   9.720   2.785 -2.4409  0.0702 -1.3941
   30MOL0     H 4035   1.998   9.809   2.767  0.0344  1.5919 -1.0648
   30MOL0     H 4036   2.441   9.881   2.795 -1.3425  1.6865  1.1773
   30MOL0     H 4037   2.574  10.078   2.843 -0.0024  2.8652  0.3535
   30MOL0     H 4038   2.541  10.338   2.877  0.2728 -2.0828  0.1347
   30MOL0     H 4039   2.457  10.439   2.742  0.4609 -0.2526 -0.9640
   30MOL0     H 4040   2.743  10.462   2.832 -0.1994 -0.4530  2.6443
   30MOL0     H 4041   2.606  10.568   2.882  0.5215  0.3287  0.8805
   30MOL0     H 4042   2.570  10.635   2.634 -1.3483 -0.8811  2.9343
   30MOL0     H 4043   2.699  10.535   2.584  2.2149  2.2838 -1.9454
   30MOL0     H 4044   2.730  10.783   2.756 -2.1813 -0.9208  0.5945
   30MOL0     H 4045   2.863  10.694   2.697 -1.1262  2.6327  1.6710
   30MOL0     H 4046   2.755  10.911   2.355 -1.4521  0.9490  0.4938
   30MOL0     H 4047   2.373  10.290   2.530  2.4767  0.2498 -2.0155
   30MOL0     H 4048   2.210  10.218   2.439  2.7683 -1.8476 -2.1419
   30MOL0     H 4049   2.177  10.052   2.398  0.0716 -1.6109  1.5948
   30MOL0     H 4050   2.095  10.112   2.534 -0.9630 -2.8466 -1.5988
   31MOL0     O 4051   4.119   3.007   5.639  0.2722 -0.2515 -0.1428
   31MOL0     C 4052   4.012   3.062   5.592 -0.4493 -0.1785  0.5938
   31MOL0     O 4053   3.884   3.035   5.624 -0.5619 -0.1220  0.1999
   31MOL0     C 4054   3.849   2.931   5.709  0.3333 -0.5718  0.5646
   31MOL0     C 4055   3.773   2.956   5.826 -0.4292  0.4476  0.0753
   31MOL0     C 4056   3.743   2.848   5.915 -0.5434  0.0520 -0.3842
   31MOL0     C 4057   3.788   2.724   5.889 -0.6350 -0.9178  0.3942
   31MOL0     O 4058   3.771   2.624   5.978 -0.8544  0.6297 -0.1588
   31MOL0     C 4059   3.659   2.620   6.063 -1.7386 -0.6453 -0.5632
   31MOL0     C 4060   3.725   2.649   6.202 -0.4020 -0.4927  0.7490
   31MOL0     C 4061   3.627   2.634   6.321 -0.0443  0.4173  0.1316
   31MOL0     C 4062   3.516   2.737   6.316  0.1278 -0.2889 -0.1912
   31MOL0     C 4063   3.390   2.708   6.409 -0.2837  1.0528 -0.7496
   31MOL0     C 4064   3.306   2.587   6.378 -0.2470 -0.5316 -0.8161
   31MOL0     C 4065   3.246   2.585   6.238  0.1615 -0.9575 -0.1696
   31MOL0     C 4066   3.198   2.448   6.189  0.5512  0.1521 -0.0185
   31MOL0     N 4067   3.103   2.380   6.291  0.1784  0.0029  0.8124
   31MOL0     C 4068   2.974   2.419   6.321 -0.0971  0.3313  0.5525
   31MOL0     C 4069   2.940   2.336   6.424  0.2221  0.0263 -0.8402
   31MOL0     C 4070   2.811   2.302   6.496  0.0882 -0.4653  0.9901
   31MOL0     C 4071   2.702   2.286   6.389 -0.8239  1.3214  0.6320
   31MOL0     C 4072   2.566   2.283   6.468  0.3388 -0.2952  0.6296
   31MOL0     C 4073   2.546   2.404   6.572 -0.0822 -0.7050  0.3040
   31MOL0     O 4074   2.406   2.434   6.579  0.1070  0.6210  0.7175
   31MOL0     C 4075   2.345   2.483   6.463 -0.1452  0.6273  0.3278
   31MOL0     C 4076   2.421   2.530   6.354  0.2708  0.0068  0.5118
   31MOL0     C 4077   2.358   2.582   6.240  0.8362 -0.9023 -0.6540
   31MOL0     C 4078   2.221   2.586   6.233  0.6192 -0.2977 -0.0914
   31MOL0     C 4079   2.160   2.642   6.107  0.8510 -0.5191 -0.4677
   31MOL0     O 4080   2.250   2.684   6.016  0.0761  0.9627 -0.3557
   31MOL0     C 4081   2.225   2.744   5.905  0.2803 -0.7273  0.7905
   31MOL0     C 4082   2.328   2.719   5.819 -0.1884  0.9194  0.9506
   31MOL0     C 4083   2.337   2.774   5.692 -0.7483  0.2660 -0.4093
   31MOL0     C 4084   2.248   2.870   5.658 -0.0469 -0.5310  0.0216
   31MOL0     O 4085   2.271   2.922   5.533 -0.8152  0.4521  0.2728
   31MOL0     C 4086   2.219   3.053   5.487 -0.1220  0.9646  0.3575
   31MOL0     C 4087   2.251   3.088   5.339 -0.7088 -0.1071  0.0754
   31MOL0     C 4088   2.184   3.231   5.314  0.4220 -0.1800  0.1626
   31MOL0     C 4089   2.248   3.297   5.189  0.4648 -0.1731  0.2022
   31MOL0     C 4090   2.206   3.447   5.172 -0.2483  0.5129  0.2691
   31MOL0     C 4091   2.054   3.479   5.179  0.0679 -0.0902 -0.3855
   31MOL0     C 4092   2.039   3.631   5.208 -0.5048  0.2297 -1.1044
   31MOL0     C 4093   1.888   3.679   5.204 -0.8082  1.1746 -0.1585
   31MOL0    Cl 4094   1.778   3.609   5.321 -0.0010 -0.6113  0.8115
   31MOL0     C 4095   2.155   2.918   5.752 -0.1140  0.3108  0.1511
   31MOL0     C 4096   2.139   2.851   5.876 -0.5098  0.8864  0.1319
   31MOL0     O 4097   2.034   2.655   6.097  0.0127  0.5067 -0.9639
   31MOL0     C 4098   2.148   2.546   6.342  0.4832 -0.2753 -0.7037
   31MOL0     C 4099   2.200   2.495   6.457 -0.8649 -0.1304  0.1228
   31MOL0     N 4100   3.049   2.258   6.442  0.5607 -0.5862 -0.1830
   31MOL0     N 4101   3.157   2.280   6.370  0.3400 -0.3038 -0.2071
   31MOL0     C 4102   3.851   2.699   5.767  0.6283 -0.6089 -0.0026
   31MOL0     C 4103   3.895   2.804   5.687  0.1194  1.0742 -0.0397
   31MOL0     C 4104   4.023   3.185   5.506 -0.8992 -1.0545 -0.5396
   31MOL0     C 4105   3.925   3.286   5.497 -0.0084  0.1670  0.0585
   31MOL0     C 4106   3.944   3.407   5.430  0.1531  0.4146 -1.1743
   31MOL0     C 4107   4.056   3.419   5.343 -0.1280  0.6199 -0.7138
   31MOL0     O 4108   4.057   3.526   5.262  0.0614  0.4460  0.7714
   31MOL0     C 4109   4.055   3.662   5.316  0.0740 -0.0663  0.2167
   31MOL0     C 4110   4.079   3.752   5.197 -0.5927 -0.1934 -0.1257
   31MOL0     C 4111   4.207   3.709   5.121 -1.0419 -1.3272 -0.3790
   31MOL0     C 4112   4.261   3.812   5.022 -0.3745 -0.5536 -0.9315
   31MOL0     C 4113   4.171   3.853   4.914  0.2871 -0.8117  0.1965
   31MOL0     C 4114   4.100   3.888   4.823 -0.4560 -0.2025 -0.3422
   31MOL0     C 4115   4.162   3.328   5.354 -0.0327 -0.0758 -0.0477
   31MOL0     C 4116   4.141   3.210   5.427 -0.1096  0.4355  0.5315
   31MOL0     C 4117   4.259   3.114   5.410 -0.2074  0.2070 -0.1100
   31MOL0     H 4118   3.741   3.059   5.839 -1.3797  0.1288  0.3641
   31MOL0     H 4119   3.683   2.890   5.995  1.2523  0.1895  0.9606
   31MOL0     H 4120   3.579   2.683   6.023 -2.2726  1.3249  3.1954
   31MOL0     H 4121   3.612   2.521   6.064 -4.0867  0.2038  3.9768
   31MOL0     H 4122   3.761   2.751   6.218  1.7180 -0.6560 -2.1570
   31MOL0     H 4123   3.805   2.576   6.217 -1.8060 -2.4207 -0.5539
   31MOL0     H 4124   3.676   2.641   6.419  1.2294  3.4725 -0.6062
   31MOL0     H 4125   3.584   2.536   6.298  0.2628  0.4807 -0.7685
   31MOL0     H 4126   3.552   2.829   6.362  1.6146 -1.5327  1.2994
   31MOL0     H 4127   3.476   2.760   6.217 -0.7229 -0.6320  0.0587
   31MOL0     H 4128   3.402   2.699   6.518 -1.8392  0.3145 -0.6140
   31MOL0     H 4129   3.323   2.793   6.401 -1.7921  0.4942  3.2653
   31MOL0     H 4130   3.364   2.496   6.397  1.9338 -0.2926 -5.0499
   31MOL0     H 4131   3.222   2.600   6.446  0.0898  3.2446 -0.9470
   31MOL0     H 4132   3.318   2.633   6.171  2.6057  2.3788  4.3288
   31MOL0     H 4133   3.160   2.651   6.229 -0.4812 -1.8471 -0.6677
   31MOL0     H 4134   3.161   2.462   6.087  0.4520  1.9244  0.2232
   31MOL0     H 4135   3.284   2.381   6.196  0.9680  0.8613  4.2461
   31MOL0     H 4136   2.906   2.491   6.276 -1.4987  0.0465  2.1066
   31MOL0     H 4137   2.818   2.221   6.569 -0.7144 -0.6646  0.8594
   31MOL0     H 4138   2.797   2.397   6.549  0.9723  0.4984 -0.4410
   31MOL0     H 4139   2.719   2.359   6.310  0.2337 -0.9778 -1.3674
   31MOL0     H 4140   2.716   2.194   6.331 -0.7061  2.9444 -2.0333
   31MOL0     H 4141   2.553   2.184   6.512 -2.6028  0.3165  1.3825
   31MOL0     H 4142   2.486   2.286   6.394  1.4114  4.7923 -0.7469
   31MOL0     H 4143   2.613   2.486   6.543  1.8568 -3.1215 -2.7424
   31MOL0     H 4144   2.580   2.357   6.665  0.8126  0.8620  0.8130
   31MOL0     H 4145   2.529   2.523   6.345  0.7218 -1.2142  4.8320
   31MOL0     H 4146   2.423   2.600   6.156 -0.1988  1.2001 -1.0799
   31MOL0     H 4147   2.410   2.651   5.838 -1.2099 -0.8110 -0.5181
   31MOL0     H 4148   2.405   2.723   5.624  1.2940  1.0907  0.8950
   31MOL0     H 4149   2.115   3.077   5.510 -1.2115 -0.3985 -2.6456
   31MOL0     H 4150   2.271   3.121   5.555 -2.5088  2.1086  1.1429
   31MOL0     H 4151   2.360   3.094   5.334 -0.7425  0.1575 -0.4546
   31MOL0     H 4152   2.234   3.008   5.267 -0.2602  1.6820 -2.1171
   31MOL0     H 4153   2.078   3.219   5.292  0.2512  2.9606 -1.2491
   31MOL0     H 4154   2.211   3.296   5.398  0.0400  0.0750  0.0885
   31MOL0     H 4155   2.218   3.250   5.095  0.9340 -0.1410  0.0337
   31MOL0     H 4156   2.356   3.280   5.187  0.9361  2.3422  1.2597
   31MOL0     H 4157   2.235   3.482   5.072  1.1601  0.3260  0.5923
   31MOL0     H 4158   2.258   3.509   5.245 -0.6626  0.3038  0.7523
   31MOL0     H 4159   2.010   3.447   5.084 -2.1168 -0.7732  0.7742
   31MOL0     H 4160   2.012   3.416   5.258  4.1477 -1.4129  0.9588
   31MOL0     H 4161   2.102   3.679   5.133  0.4640  0.5082 -0.1547
   31MOL0     H 4162   2.076   3.651   5.309 -1.1954  0.2694 -0.8558
   31MOL0     H 4163   1.884   3.786   5.227 -1.2206  1.2854 -0.7208
   31MOL0     H 4164   1.869   3.662   5.098  0.3883  3.5735 -0.8387
   31MOL0     H 4165   2.087   2.999   5.727 -0.8622 -0.5664 -0.7658
   31MOL0     H 4166   2.072   2.872   5.959  0.0400 -2.1968  1.5281
   31MOL0     H 4167   2.040   2.534   6.333  0.5323 -3.1713  1.2312
   31MOL0     H 4168   2.133   2.460   6.534 -1.4953 -2.8302 -1.5227
   31MOL0     H 4169   3.887   2.601   5.738 -3.3479 -1.7516 -1.6562
   31MOL0     H 4170   3.957   2.793   5.599  0.1518  0.4852  0.0535
   31MOL0     H 4171   3.837   3.273   5.559  0.1108 -0.7495  0.0490
   31MOL0     H 4172   3.872   3.488   5.432 -0.0266  0.2767  1.5689
   31MOL0     H 4173   4.136   3.664   5.390  0.7127  0.1776 -0.4818
   31MOL0     H 4174   3.960   3.686   5.366  0.5184  3.4878 -0.4198
   31MOL0     H 4175   4.103   3.853   5.232 -0.9281  0.2962 -1.2644
   31MOL0     H 4176   3.997   3.744   5.126 -0.4933 -0.4349 -0.2113
   31MOL0     H 4177   4.187   3.618   5.064 -2.4262 -0.3297 -1.5779
   31MOL0     H 4178   4.287   3.678   5.189 -0.7218 -2.3844 -1.2062
   31MOL0     H 4179   4.289   3.899   5.082 -0.7922 -0.4122 -0.9373
   31MOL0     H 4180   4.348   3.771   4.971  0.2547 -2.2598  1.3873
   31MOL0     H 4181   4.042   3.926   4.742 -0.4559  2.3063  0.7194
   31MOL0     H 4182   4.253   3.335   5.295  1.8802 -3.3937  2.1825
   31MOL0     H 4183   4.222   3.017   5.375 -2.7802 -0.4285  3.7914
   31MOL0     H 4184   4.334   3.152   5.340  1.1644  0.2189  1.3164
   31MOL0     H 4185   4.321   3.111   5.500 -0.6991  1.6296  0.3059
   32MOL0     O 4186   0.657   6.149  10.923  0.8017  0.4435 -0.4322
   32MOL0     C 4187   0.556   6.211  10.963 -0.1413  0.0930 -0.5145
   32MOL0     O 4188   0.515   6.228  11.093  0.7808  0.2314 -0.0525
   32MOL0     C 4189   0.557   6.147  11.196  0.3460 -0.2080 -1.0747
   32MOL0     C 4190   0.596   6.011  11.185  0.7875 -0.1541 -0.2211
   32MOL0     C 4191   0.621   5.923  11.297 -0.1269 -0.0147  0.3795
   32MOL0     C 4192   0.625   5.981  11.427 -0.5913  0.0672 -0.0844
   32MOL0     O 4193   0.647   5.902  11.543 -0.5378 -0.1027  1.0269
   32MOL0     C 4194   0.569   5.779  11.567  0.5843 -0.4164 -0.5197
   32MOL0     C 4195   0.591   5.742  11.708 -0.6855 -0.1438 -0.4966
   32MOL0     C 4196   0.525   5.834  11.812  0.4264  0.2257  0.0581
   32MOL0     C 4197   0.575   5.800  11.957 -0.2916  0.1952 -0.5343
   32MOL0     C 4198   0.511   5.906  12.055 -0.2335  1.1316  0.8588
   32MOL0     C 4199   0.568   5.906  12.199 -0.9931  0.7269 -0.2500
   32MOL0     C 4200   0.486   6.013  12.287 -0.8983 -0.8442 -1.3129
   32MOL0     C 4201   0.529   5.997  12.437 -0.5155 -0.4011 -0.0199
   32MOL0     N 4202   0.492   6.117  12.511  0.3630  0.5645  0.3035
   32MOL0     C 4203   0.556   6.231  12.515 -0.1465 -0.2770 -0.8478
   32MOL0     C 4204   0.497   6.289  12.618 -0.5835  0.9750  0.5166
   32MOL0     C 4205   0.554   6.406  12.693  0.0626  0.3897 -0.6901
   32MOL0     C 4206   0.687   6.364  12.765  0.6395 -0.2013 -0.4608
   32MOL0     C 4207   0.693   6.450  12.893 -0.5903  0.3264  0.6635
   32MOL0     C 4208   0.838   6.451  12.941  0.0682  0.7338 -0.4331
   32MOL0     O 4209   0.837   6.541  13.052  0.1977 -0.2124  0.0143
   32MOL0     C 4210   0.918   6.500  13.157  0.9211 -0.1629  0.3548
   32MOL0     C 4211   0.898   6.383  13.235  0.2439  0.1834 -0.5344
   32MOL0     C 4212   0.971   6.371  13.351 -1.1145  1.2097  0.1053
   32MOL0     C 4213   1.064   6.465  13.396 -0.8452 -0.3127  0.4318
   32MOL0     C 4214   1.147   6.461  13.515  0.9128 -0.2655 -0.0072
   32MOL0     O 4215   1.136   6.336  13.574  0.4380  0.9418  0.1117
   32MOL0     C 4216   1.185   6.303  13.697 -0.4820 -0.0193 -0.7184
   32MOL0     C 4217   1.222   6.395  13.799 -0.4606 -0.7424  0.0237
   32MOL0     C 4218   1.283   6.350  13.919  0.2785  0.2629 -0.8695
   32MOL0     C 4219   1.286   6.208  13.949  0.3594  0.1591 -0.0299
   32MOL0     O 4220   1.340   6.149  14.054 -0.4576 -0.1519 -0.3105
   32MOL0     C 4221   1.240   6.105  14.155 -0.6167 -1.4279  1.0180
   32MOL0     C 4222   1.297   6.055  14.290 -0.5358  0.4455 -0.7722
   32MOL0     C 4223   1.387   6.152  14.353  0.5309 -0.0311  1.0351
   32MOL0     C 4224   1.406   6.118  14.504  0.0704 -0.0772  1.0430
   32MOL0     C 4225   1.434   6.231  14.602 -0.1524  0.2733 -0.0154
   32MOL0     C 4226   1.473   6.184  14.740  0.5923  0.4954  0.5030
   32MOL0     C 4227   1.483   6.305  14.837 -0.0482  0.1448 -0.2940
   32MOL0     C 4228   1.533   6.260  14.973  1.1049  1.2940  0.0537
   32MOL0    Cl 4229   1.424   6.152  15.070 -0.0004  0.2970 -0.4185
   32MOL0     C 4230   1.240   6.124  13.847 -0.3661  0.1722  0.4763
   32MOL0     C 4231   1.195   6.175  13.721  0.5347 -0.0150  1.4033
   32MOL0     O 4232   1.196   6.561  13.561 -0.3221 -0.6413 -0.7080
   32MOL0     C 4233   1.075   6.589  13.324  0.5726  0.8203 -0.4493
   32MOL0     C 4234   0.991   6.602  13.214  0.2851 -0.0218 -0.1457
   32MOL0     N 4235   0.396   6.209  12.671  0.0495 -0.8403  0.4535
   32MOL0     N 4236   0.393   6.104  12.598  0.8039  0.5757 -0.0451
   32MOL0     C 4237   0.615   6.119  11.437 -0.5245  0.0309 -0.0205
   32MOL0     C 4238   0.575   6.197  11.332 -0.8979 -0.3456  0.6732
   32MOL0     C 4239   0.469   6.274  10.865  0.4212 -0.6676  0.4053
   32MOL0     C 4240   0.338   6.302  10.903 -0.0761  0.8703  0.6538
   32MOL0     C 4241   0.257   6.385  10.814 -0.7247 -0.2634 -0.6384
   32MOL0     C 4242   0.297   6.415  10.686  0.5180 -0.7040 -0.8598
   32MOL0     O 4243   0.231   6.482  10.590  0.0606 -1.0788 -0.2945
   32MOL0     C 4244   0.087   6.479  10.591 -0.0840  0.6799  0.2850
   32MOL0     C 4245   0.030   6.340  10.563 -0.5953  0.3972  0.0365
   32MOL0     C 4246  -0.128   6.342  10.582 -0.3386  0.2152  0.0196
   32MOL0     C 4247  -0.183   6.200  10.539 -0.5842  0.9145 -0.0460
   32MOL0     C 4248  -0.162   6.110  10.658 -0.1551  0.3805  0.4956
   32MOL0     C 4249  -0.151   6.027  10.749 -0.1953 -0.4661  0.7492
   32MOL0     C 4250   0.428   6.378  10.648 -0.1020 -0.2724 -0.6263
   32MOL0     C 4251   0.507   6.316  10.741 -0.5175  0.8488  0.9891
   32MOL0     C 4252   0.652   6.309  10.693  0.1026 -0.2339  0.6254
   32MOL0     H 4253   0.598   5.960  11.089 -2.7831 -2.4790  0.7394
   32MOL0     H 4254   0.627   5.815  11.293 -0.6261 -0.0595  0.8539
   32MOL0     H 4255   0.465   5.801  11.542  0.7491  1.2948  0.1718
   32MOL0     H 4256   0.601   5.692  11.508 -0.1308 -2.6998  2.2341
   32MOL0     H 4257   0.699   5.741  11.724 -0.7661 -1.3475  0.0638
   32MOL0     H 4258   0.549   5.647  11.743 -0.6991  0.1272  0.2426
   32MOL0     H 4259   0.418   5.824  11.793 -0.0766  1.1352  2.0848
   32MOL0     H 4260   0.540   5.942  11.797 -0.2795  0.2125 -0.8358
   32MOL0     H 4261   0.544   5.701  11.992 -3.3659  1.6158  1.1487
   32MOL0     H 4262   0.685   5.793  11.955 -0.3420 -1.3097  0.3367
   32MOL0     H 4263   0.525   6.007  12.016  0.5152  0.6788 -0.1125
   32MOL0     H 4264   0.406   5.874  12.055 -0.1990  0.8437 -1.1851
   32MOL0     H 4265   0.556   5.802  12.230  3.8480 -0.0840 -0.2403
   32MOL0     H 4266   0.676   5.925  12.198 -0.9651  0.5685 -0.1625
   32MOL0     H 4267   0.379   5.992  12.301 -1.1626  0.7545 -0.7953
   32MOL0     H 4268   0.482   6.120  12.265 -1.5211 -0.1334  1.7985
   32MOL0     H 4269   0.481   5.903  12.464 -0.7688 -0.1949  0.2626
   32MOL0     H 4270   0.634   5.971  12.449 -0.6374 -0.9672 -0.1757
   32MOL0     H 4271   0.638   6.269  12.455 -0.6904 -1.8011 -2.6288
   32MOL0     H 4272   0.567   6.497  12.634 -1.4491  2.3101  1.7085
   32MOL0     H 4273   0.477   6.438  12.765 -0.0584  0.8678 -1.0251
   32MOL0     H 4274   0.679   6.257  12.789 -0.5408 -0.5548 -2.2665
   32MOL0     H 4275   0.773   6.384  12.701 -0.6460  1.5710 -1.7539
   32MOL0     H 4276   0.628   6.419  12.975  0.0310  4.9455  3.2147
   32MOL0     H 4277   0.670   6.555  12.875  1.1299  0.3091 -2.4895
   32MOL0     H 4278   0.899   6.480  12.855  0.1553  3.3125  0.4219
   32MOL0     H 4279   0.863   6.348  12.968  1.2787  0.6668 -1.7043
   32MOL0     H 4280   0.842   6.294  13.211  0.2127 -0.3226  1.2271
   32MOL0     H 4281   0.956   6.280  13.408  2.4052  0.7927  0.5757
   32MOL0     H 4282   1.212   6.504  13.802 -0.1819 -0.6896 -0.6914
   32MOL0     H 4283   1.318   6.418  13.995 -2.2970  1.0253 -0.2755
   32MOL0     H 4284   1.170   6.186  14.180 -0.1928 -0.8738  0.4299
   32MOL0     H 4285   1.175   6.029  14.109 -1.1614 -1.3026  1.5656
   32MOL0     H 4286   1.213   6.034  14.357  2.9303  0.3187  4.1267
   32MOL0     H 4287   1.338   5.954  14.278 -3.0266 -0.5931 -1.1796
   32MOL0     H 4288   1.481   6.160  14.297  0.5708  0.4856  1.1731
   32MOL0     H 4289   1.340   6.251  14.354 -1.4581 -0.9198 -0.2654
   32MOL0     H 4290   1.481   6.040  14.515 -0.0844 -0.8385 -2.3306
   32MOL0     H 4291   1.312   6.084  14.549  0.3351  0.8346  2.3639
   32MOL0     H 4292   1.340   6.287  14.599 -0.2575  0.0646 -1.1263
   32MOL0     H 4293   1.517   6.289  14.562 -0.4445  1.4306  1.0099
   32MOL0     H 4294   1.406   6.125  14.802  1.9790  1.1930  2.7599
   32MOL0     H 4295   1.573   6.142  14.732  1.8788  3.4511 -0.3343
   32MOL0     H 4296   1.381   6.342  14.850 -1.2888 -3.1938  0.4630
   32MOL0     H 4297   1.551   6.386  14.809  3.2320 -1.5454  2.2255
   32MOL0     H 4298   1.625   6.201  14.978 -0.0282 -0.7955 -2.0370
   32MOL0     H 4299   1.531   6.356  15.025 -1.4479  1.0244  0.5877
   32MOL0     H 4300   1.251   6.017  13.861 -1.3692 -0.5566 -3.2786
   32MOL0     H 4301   1.154   6.109  13.645  1.0568 -0.6759  1.6878
   32MOL0     H 4302   1.155   6.662  13.334  3.3384 -1.8919 -0.9134
   32MOL0     H 4303   1.003   6.694  13.159  1.0188 -0.9943 -1.6963
   32MOL0     H 4304   0.626   6.160  11.537  0.0988  0.2886 -0.1957
   32MOL0     H 4305   0.551   6.301  11.351 -1.6253  0.4058 -3.4535
   32MOL0     H 4306   0.294   6.271  10.997 -2.6323  0.0683 -0.7082
   32MOL0     H 4307   0.153   6.410  10.837 -0.3841  1.2893 -0.6813
   32MOL0     H 4308   0.045   6.546  10.516 -1.4258  0.5303  0.8599
   32MOL0     H 4309   0.052   6.515  10.689 -0.3573  1.4390 -0.0881
   32MOL0     H 4310   0.062   6.266  10.637  0.1719  0.2084 -0.4736
   32MOL0     H 4311   0.072   6.310  10.467 -3.1381 -1.3952 -0.6251
   32MOL0     H 4312  -0.176   6.428  10.534  1.1515  0.8253 -0.4525
   32MOL0     H 4313  -0.139   6.366  10.688  2.6127  2.0867  0.0187
   32MOL0     H 4314  -0.288   6.211  10.512 -0.2706  1.3875 -1.1318
   32MOL0     H 4315  -0.131   6.165  10.449 -3.4416  1.2939 -1.9625
   32MOL0     H 4316  -0.131   5.952  10.822  3.6082  0.5659  0.9970
   32MOL0     H 4317   0.477   6.407  10.556  0.3227 -0.3622 -0.4337
   32MOL0     H 4318   0.718   6.360  10.763 -1.8811  1.2698  1.5092
   32MOL0     H 4319   0.669   6.202  10.677 -0.4372  0.0278 -2.3297
   32MOL0     H 4320   0.655   6.344  10.590 -1.3392 -2.5253 -0.2692
   33MOL0     O 4321   3.324   9.245   3.145  1.0066  0.6293  1.0351
   33MOL0     C 4322   3.438   9.289   3.140  0.1161 -0.4521 -0.0772
   33MOL0     O 4323   3.540   9.247   3.068 -0.9447 -0.2667 -0.6302
   33MOL0     C 4324   3.533   9.137   2.990  0.0107 -1.4010 -0.5441
   33MOL0     C 4325   3.625   9.031   2.994  0.1070  0.6997  0.6749
   33MOL0     C 4326   3.606   8.916   2.906 -0.3600 -0.7427 -0.4445
   33MOL0     C 4327   3.513   8.917   2.799 -0.4447  0.1050  0.9737
   33MOL0     O 4328   3.508   8.807   2.718 -0.5829 -0.1495  0.1236
   33MOL0     C 4329   3.481   8.838   2.587  0.5367  0.1961  1.3492
   33MOL0     C 4330   3.473   8.711   2.504  0.0284  0.4716 -0.0720
   33MOL0     C 4331   3.400   8.732   2.365 -0.7621  0.5407  0.1440
   33MOL0     C 4332   3.455   8.839   2.273 -0.1629  0.4043  0.6821
   33MOL0     C 4333   3.424   8.822   2.119 -0.7013 -1.1208 -0.3937
   33MOL0     C 4334   3.270   8.841   2.094  0.1177 -0.2886  0.2045
   33MOL0     C 4335   3.231   8.988   2.094 -0.0959  0.3792 -0.3803
   33MOL0     C 4336   3.099   9.035   2.034  0.0674  0.5967 -0.1375
   33MOL0     N 4337   3.075   8.972   1.904  0.0429 -0.0349  0.6829
   33MOL0     C 4338   3.140   9.013   1.784 -0.0512 -0.2744 -0.4088
   33MOL0     C 4339   3.092   8.929   1.691 -0.0583  0.8475 -0.2360
   33MOL0     C 4340   3.125   8.920   1.547 -0.9744 -0.2748  0.0234
   33MOL0     C 4341   3.113   9.046   1.467 -0.1245 -0.6532 -0.2894
   33MOL0     C 4342   2.969   9.103   1.456  0.0163 -0.2929  0.0428
   33MOL0     C 4343   2.948   9.224   1.360 -0.4428 -0.1438  0.4615
   33MOL0     O 4344   3.026   9.338   1.420  0.0380 -0.7249 -0.0375
   33MOL0     C 4345   3.000   9.463   1.370  1.4131 -0.5670 -0.3752
   33MOL0     C 4346   3.041   9.571   1.444 -0.0312  0.2597  0.7045
   33MOL0     C 4347   3.019   9.699   1.406 -0.2437 -0.2216  0.2403
   33MOL0     C 4348   2.945   9.728   1.288  0.3721  0.6160 -0.7313
   33MOL0     C 4349   2.954   9.867   1.229  0.1681  0.1970 -0.3595
   33MOL0     O 4350   2.967   9.971   1.321 -0.4417 -0.2770  0.7196
   33MOL0     C 4351   2.946  10.107   1.295  1.4724  0.9179  0.0560
   33MOL0     C 4352   3.010  10.198   1.383 -0.8554  0.7270 -0.0468
   33MOL0     C 4353   2.989  10.334   1.367 -0.7324  0.6950  1.1682
   33MOL0     C 4354   2.911  10.390   1.268 -0.3286 -0.4248  0.4541
   33MOL0     O 4355   2.895  10.527   1.295 -0.4329  0.1758 -0.2876
   33MOL0     C 4356   2.757  10.570   1.266  0.7277 -0.3647 -1.3302
   33MOL0     C 4357   2.667  10.515   1.385  0.0879  0.7612 -0.5333
   33MOL0     C 4358   2.517  10.556   1.371  0.4685 -0.3683  0.1960
   33MOL0     C 4359   2.448  10.465   1.270  0.0275 -0.8818  0.7768
   33MOL0     C 4360   2.311  10.528   1.225 -0.9289 -0.8828 -0.1691
   33MOL0     C 4361   2.240  10.414   1.140 -0.3941 -0.0547 -0.2427
   33MOL0     C 4362   2.119  10.463   1.064  0.1860  0.3235 -0.8856
   33MOL0     C 4363   2.073  10.356   0.974 -0.3248 -0.7729 -0.2376
   33MOL0    Cl 4364   1.995  10.217   1.051 -0.2346  0.3710  0.2919
   33MOL0     C 4365   2.854  10.304   1.179 -0.4661  0.5175 -0.7020
   33MOL0     C 4366   2.869  10.160   1.191  0.4556 -0.7595 -0.3369
   33MOL0     O 4367   2.932   9.879   1.108 -0.3205 -0.2492  0.1699
   33MOL0     C 4368   2.893   9.615   1.212 -0.9376 -0.2905 -0.1241
   33MOL0     C 4369   2.928   9.486   1.255 -0.3295 -0.5554  0.9144
   33MOL0     N 4370   3.000   8.838   1.752 -0.1163 -0.5658 -0.3997
   33MOL0     N 4371   2.993   8.873   1.875  1.3406  0.4399  0.0761
   33MOL0     C 4372   3.427   9.024   2.806 -0.4518  0.0725  0.6721
   33MOL0     C 4373   3.428   9.131   2.897  0.6785 -0.3538  0.7178
   33MOL0     C 4374   3.459   9.404   3.235 -0.3470 -0.2837  0.6893
   33MOL0     C 4375   3.385   9.414   3.351 -0.3452 -0.1616 -0.0297
   33MOL0     C 4376   3.411   9.513   3.440  0.2134  0.6577 -0.4431
   33MOL0     C 4377   3.500   9.618   3.416  0.2763  0.3630 -0.2458
   33MOL0     O 4378   3.504   9.718   3.512 -0.6395  0.1537 -0.4383
   33MOL0     C 4379   3.603   9.816   3.533 -0.1091 -0.3127 -1.0780
   33MOL0     C 4380   3.633   9.839   3.684 -0.2434 -0.9273 -0.7301
   33MOL0     C 4381   3.652   9.713   3.753  0.0352  0.6755  0.2812
   33MOL0     C 4382   3.711   9.727   3.898  0.4084  0.5762 -0.3799
   33MOL0     C 4383   3.717   9.597   3.971  0.3867  0.1674  1.4749
   33MOL0     C 4384   3.722   9.486   4.012 -0.5253 -0.3630  0.1072
   33MOL0     C 4385   3.572   9.609   3.299  0.9146 -0.0115 -0.0109
   33MOL0     C 4386   3.559   9.500   3.212 -0.2421 -0.3162  0.0435
   33MOL0     C 4387   3.638   9.523   3.083 -0.4859  0.1809  0.3789
   33MOL0     H 4388   3.697   9.031   3.076 -0.7264 -4.1548  1.6857
   33MOL0     H 4389   3.685   8.842   2.903  0.8075  0.0825  3.7372
   33MOL0     H 4390   3.376   8.868   2.580 -0.3104 -2.8937 -1.7258
   33MOL0     H 4391   3.550   8.909   2.539  2.0572 -1.3181  1.1976
   33MOL0     H 4392   3.438   8.620   2.553  1.3440 -1.2823 -2.1577
   33MOL0     H 4393   3.573   8.683   2.469 -0.4453  1.3021 -2.2915
   33MOL0     H 4394   3.296   8.758   2.389 -0.8363  0.7567 -0.4201
   33MOL0     H 4395   3.406   8.640   2.305 -1.5378  0.8550 -0.4245
   33MOL0     H 4396   3.406   8.929   2.310 -0.6000  0.3227  0.2987
   33MOL0     H 4397   3.563   8.854   2.280  0.0855 -1.5306  2.0386
   33MOL0     H 4398   3.480   8.900   2.068  3.1003 -0.6320  3.8857
   33MOL0     H 4399   3.459   8.727   2.078  2.5940 -0.1653 -0.0248
   33MOL0     H 4400   3.248   8.799   1.996 -1.0627 -0.3158  0.4723
   33MOL0     H 4401   3.217   8.780   2.168 -2.4463 -0.3371 -1.5562
   33MOL0     H 4402   3.301   9.047   2.034 -0.6814  1.5903  0.0901
   33MOL0     H 4403   3.239   9.033   2.193  3.5043  1.3251 -0.9543
   33MOL0     H 4404   3.029   9.001   2.111  1.7726  2.6464  2.5164
   33MOL0     H 4405   3.094   9.144   2.027 -0.7849  0.5829  0.1531
   33MOL0     H 4406   3.212   9.091   1.762  1.6646 -2.0194 -1.2302
   33MOL0     H 4407   3.229   8.886   1.550 -0.9138 -0.2420 -1.0815
   33MOL0     H 4408   3.074   8.834   1.503  1.0068 -1.7441  0.4321
   33MOL0     H 4409   3.172   9.125   1.515 -4.5284  2.4859  0.5696
   33MOL0     H 4410   3.161   9.032   1.369 -2.9604 -1.7895 -1.6397
   33MOL0     H 4411   2.925   9.136   1.550 -0.3395  3.2106 -1.1955
   33MOL0     H 4412   2.900   9.024   1.427 -0.4855  0.6698 -1.5366
   33MOL0     H 4413   2.844   9.258   1.348  0.2426  2.2475  0.8253
   33MOL0     H 4414   2.986   9.204   1.260 -1.3440 -1.1126  0.2849
   33MOL0     H 4415   3.085   9.535   1.537 -1.9906 -0.9275  1.2299
   33MOL0     H 4416   3.066   9.784   1.454 -0.8030  0.1752  0.1055
   33MOL0     H 4417   3.083  10.174   1.460 -0.8789  1.1806  0.1248
   33MOL0     H 4418   3.046  10.391   1.440  1.6601  0.2054 -0.1924
   33MOL0     H 4419   2.754  10.679   1.266  1.2209 -0.3089  0.7654
   33MOL0     H 4420   2.721  10.536   1.169 -5.0815 -1.4472  0.7915
   33MOL0     H 4421   2.668  10.406   1.392 -2.2189  0.3371 -4.2385
   33MOL0     H 4422   2.690  10.552   1.486  0.1947 -0.4573 -0.0984
   33MOL0     H 4423   2.465  10.549   1.466  2.0234 -2.7941  0.9381
   33MOL0     H 4424   2.530  10.658   1.333  1.5724 -0.4145  0.4035
   33MOL0     H 4425   2.433  10.371   1.324  2.5156 -1.6889  0.2067
   33MOL0     H 4426   2.510  10.454   1.180 -2.4453  3.6347 -1.8765
   33MOL0     H 4427   2.329  10.614   1.160  2.6409 -3.2432 -2.6966
   33MOL0     H 4428   2.266  10.554   1.321  0.3862  0.8222  0.0409
   33MOL0     H 4429   2.314  10.372   1.071  0.5794  0.9093  0.1797
   33MOL0     H 4430   2.204  10.340   1.212  0.6232 -1.0054 -0.6797
   33MOL0     H 4431   2.157  10.543   0.999  2.8431 -1.1253 -1.2819
   33MOL0     H 4432   2.041  10.497   1.133  0.1252  0.1205 -0.8543
   33MOL0     H 4433   1.992  10.389   0.908  2.4774  0.9481 -3.0580
   33MOL0     H 4434   2.157  10.319   0.915 -0.4220 -0.5866 -0.4940
   33MOL0     H 4435   2.796  10.342   1.095 -3.1111 -1.5387  0.0503
   33MOL0     H 4436   2.812  10.100   1.120  2.7203 -1.1521 -1.9237
   33MOL0     H 4437   2.838   9.637   1.121 -0.0757  0.6320 -0.4444
   33MOL0     H 4438   2.875   9.418   1.189 -1.3877  1.2772 -0.2146
   33MOL0     H 4439   3.354   9.023   2.726 -0.3460 -1.3380  0.5638
   33MOL0     H 4440   3.350   9.206   2.900  2.2091  1.2917  0.8389
   33MOL0     H 4441   3.314   9.333   3.368  2.0280 -2.8914 -1.9731
   33MOL0     H 4442   3.357   9.506   3.533  0.5671 -0.2873 -0.2974
   33MOL0     H 4443   3.581   9.909   3.479  0.5783  1.1879  1.1026
   33MOL0     H 4444   3.693   9.778   3.483 -0.9721 -0.9083 -2.2085
   33MOL0     H 4445   3.552   9.890   3.737  2.6152  1.3590  1.9185
   33MOL0     H 4446   3.720   9.905   3.697  0.2475 -2.0479  3.2559
   33MOL0     H 4447   3.707   9.638   3.696 -3.0088 -0.9195 -0.7566
   33MOL0     H 4448   3.549   9.676   3.758 -0.2481  1.3353 -0.4337
   33MOL0     H 4449   3.801   9.789   3.902  1.0429 -0.1260 -2.4865
   33MOL0     H 4450   3.626   9.781   3.942 -0.2933 -1.7824  1.3888
   33MOL0     H 4451   3.727   9.392   4.063 -0.8206  0.4912  1.7643
   33MOL0     H 4452   3.656   9.675   3.278  1.5781 -0.9010 -0.2077
   33MOL0     H 4453   3.706   9.609   3.087  0.4520 -0.4925 -0.5129
   33MOL0     H 4454   3.697   9.432   3.070  1.0862  1.0393  1.1762
   33MOL0     H 4455   3.569   9.549   3.002  1.4168 -0.6682 -1.6048
   34MOL0     O 4456  10.749   2.151   1.018 -0.1492 -0.1691  0.3128
   34MOL0     C 4457  10.834   2.223   0.962  0.3654 -0.1739  0.3530
   34MOL0     O 4458  10.953   2.259   1.025  0.3066 -0.7024 -0.0400
   34MOL0     C 4459  11.012   2.162   1.104  0.3666  0.2763  0.1862
   34MOL0     C 4460  11.097   2.067   1.042 -0.0267  0.2785  0.5744
   34MOL0     C 4461  11.150   1.957   1.107  0.3788  0.3425 -0.3073
   34MOL0     C 4462  11.107   1.930   1.235 -1.2198  1.0249 -0.0654
   34MOL0     O 4463  11.133   1.815   1.304 -0.2384 -0.1377  0.0321
   34MOL0     C 4464  11.230   1.718   1.246  0.3646 -0.9076 -0.0992
   34MOL0     C 4465  11.195   1.589   1.314 -0.3018 -0.2732 -0.3296
   34MOL0     C 4466  11.258   1.557   1.449  0.2539 -0.2481  1.5948
   34MOL0     C 4467  11.187   1.439   1.515 -0.0372  0.1576 -1.1519
   34MOL0     C 4468  11.256   1.419   1.652  0.7973  0.0249  0.1624
   34MOL0     C 4469  11.193   1.289   1.724 -0.1871  0.1705 -0.3496
   34MOL0     C 4470  11.264   1.277   1.860  0.4450  0.4522 -0.4985
   34MOL0     C 4471  11.219   1.149   1.945  0.2530 -0.3108  0.4819
   34MOL0     N 4472  11.259   1.170   2.084  0.1107  0.3411  1.4090
   34MOL0     C 4473  11.192   1.238   2.180 -0.0800  0.4015  0.2549
   34MOL0     C 4474  11.267   1.235   2.295 -1.1173 -0.0371  1.0995
   34MOL0     C 4475  11.234   1.294   2.430  0.2503 -0.2118  0.0634
   34MOL0     C 4476  11.089   1.245   2.481 -0.1614  1.0860 -0.2604
   34MOL0     C 4477  11.040   1.290   2.610  0.0970 -0.6003 -1.0498
   34MOL0     C 4478  10.899   1.254   2.635  1.0111 -0.4386  0.1405
   34MOL0     O 4479  10.814   1.349   2.583 -0.0305  0.1262 -1.2484
   34MOL0     C 4480  10.725   1.333   2.478  0.0605 -0.3154 -0.3604
   34MOL0     C 4481  10.635   1.440   2.461  1.2870  0.0331  0.3823
   34MOL0     C 4482  10.535   1.427   2.354 -0.6064 -0.0031  0.3833
   34MOL0     C 4483  10.539   1.319   2.262  0.0910  0.4448  0.7546
   34MOL0     C 4484  10.445   1.325   2.138  0.0602 -0.1918 -0.0101
   34MOL0     O 4485  10.474   1.234   2.041  0.8269  0.3897  0.6432
   34MOL0     C 4486  10.397   1.225   1.917 -0.0759  0.2340  0.6138
   34MOL0     C 4487  10.349   1.339   1.842 -0.7384  1.2256 -0.4974
   34MOL0     C 4488  10.287   1.308   1.723  0.1795 -0.3625  0.0233
   34MOL0     C 4489  10.268   1.179   1.674 -0.4881  0.5329  0.6049
   34MOL0     O 4490  10.209   1.146   1.557 -0.1127 -0.4577  0.3550
   34MOL0     C 4491  10.269   1.217   1.446  0.0389  0.2136 -0.2659
   34MOL0     C 4492  10.201   1.177   1.320 -0.1767 -0.2907 -0.1359
   34MOL0     C 4493  10.263   1.235   1.194 -0.1421  0.7647 -0.3883
   34MOL0     C 4494  10.387   1.157   1.152 -0.0385 -0.0074 -0.5419
   34MOL0     C 4495  10.462   1.217   1.040 -0.5095 -0.2041 -1.1978
   34MOL0     C 4496  10.581   1.138   0.995  0.1207  0.0645  0.6107
   34MOL0     C 4497  10.550   1.025   0.896 -0.3085  0.0573 -0.1806
   34MOL0     C 4498  10.690   0.993   0.811  0.8942  0.0072 -1.1496
   34MOL0    Cl 4499  10.665   0.835   0.730 -0.5674  0.1064  0.0223
   34MOL0     C 4500  10.319   1.073   1.743  0.1554  0.9258 -0.1906
   34MOL0     C 4501  10.389   1.096   1.860 -0.1522  0.2502 -1.4657
   34MOL0     O 4502  10.347   1.393   2.142  0.1691  0.3929  0.2314
   34MOL0     C 4503  10.629   1.218   2.286 -0.8200  0.6168  0.1761
   34MOL0     C 4504  10.717   1.220   2.392 -1.1473  0.5184  0.6805
   34MOL0     N 4505  11.385   1.165   2.263  0.4513 -0.0638 -0.3565
   34MOL0     N 4506  11.372   1.113   2.141  0.2782 -1.4255  0.1745
   34MOL0     C 4507  11.017   2.016   1.292  0.7719 -0.8468  0.0728
   34MOL0     C 4508  10.966   2.133   1.233 -0.1587 -0.4949  0.3247
   34MOL0     C 4509  10.817   2.280   0.824  0.8890  0.2642 -0.7973
   34MOL0     C 4510  10.949   2.308   0.758  0.9934 -0.3281 -0.6317
   34MOL0     C 4511  10.941   2.350   0.627  0.3523 -0.2418 -0.7884
   34MOL0     C 4512  10.819   2.380   0.568  0.1904 -1.0345 -0.0641
   34MOL0     O 4513  10.830   2.439   0.440  0.5726  0.0577 -0.9159
   34MOL0     C 4514  10.796   2.574   0.443  0.8807 -0.7560  0.7913
   34MOL0     C 4515  10.887   2.669   0.354 -0.3612 -0.2483  0.0307
   34MOL0     C 4516  11.042   2.663   0.393  0.1617  0.0026  0.0870
   34MOL0     C 4517  11.120   2.673   0.267 -0.0968 -0.0156 -0.4221
   34MOL0     C 4518  11.148   2.811   0.234  0.2610 -0.6954 -0.2963
   34MOL0     C 4519  11.148   2.934   0.198 -0.1577  0.0322 -0.2321
   34MOL0     C 4520  10.702   2.380   0.647 -0.9354 -0.3386  0.2683
   34MOL0     C 4521  10.701   2.330   0.771  0.5108 -0.2875 -0.5414
   34MOL0     C 4522  10.571   2.337   0.847 -0.5180  0.8946 -0.0220
   34MOL0     H 4523  11.117   2.076   0.936  2.2196 -1.3026  0.7783
   34MOL0     H 4524  11.224   1.894   1.059  0.5464  0.2468  0.0715
   34MOL0     H 4525  11.198   1.703   1.142 -2.7247 -0.1551  0.6566
   34MOL0     H 4526  11.338   1.738   1.251  0.0231  0.9661  0.7482
   34MOL0     H 4527  11.227   1.505   1.252 -1.0138 -1.1132  0.3921
   34MOL0     H 4528  11.086   1.594   1.324 -0.0733  0.7356  2.8958
   34MOL0     H 4529  11.260   1.651   1.504  1.7606  1.8712 -1.7136
   34MOL0     H 4530  11.365   1.543   1.430  0.5568  3.6662 -0.8429
   34MOL0     H 4531  11.086   1.476   1.535 -1.0018 -2.3188 -1.0761
   34MOL0     H 4532  11.201   1.346   1.459 -0.5086 -1.0007  0.5630
   34MOL0     H 4533  11.365   1.412   1.645  0.9330 -0.3714  2.0932
   34MOL0     H 4534  11.235   1.508   1.712 -0.1743  1.8592 -2.7034
   34MOL0     H 4535  11.087   1.303   1.746  0.4583  1.5721  2.2966
   34MOL0     H 4536  11.202   1.201   1.660 -3.1534 -0.7029  0.3000
   34MOL0     H 4537  11.249   1.368   1.919 -2.2264  0.4089 -0.9669
   34MOL0     H 4538  11.373   1.283   1.847  0.5922  1.9819  1.0189
   34MOL0     H 4539  11.112   1.134   1.933  0.5795 -0.3199 -4.9393
   34MOL0     H 4540  11.263   1.063   1.894 -2.2950 -0.7730 -1.0984
   34MOL0     H 4541  11.096   1.287   2.167  0.1203  0.2783 -2.3938
   34MOL0     H 4542  11.313   1.260   2.498  0.6320 -3.6675 -1.9010
   34MOL0     H 4543  11.235   1.403   2.422 -2.6641 -0.2299 -1.9375
   34MOL0     H 4544  11.017   1.282   2.408 -0.7861  2.4259  0.9886
   34MOL0     H 4545  11.088   1.136   2.488 -1.2783  1.0623 -0.6041
   34MOL0     H 4546  11.066   1.394   2.628 -1.4005 -0.8154  4.1061
   34MOL0     H 4547  11.098   1.232   2.683 -1.8092 -1.0748  0.1602
   34MOL0     H 4548  10.896   1.263   2.744  3.4481  1.8853  0.1147
   34MOL0     H 4549  10.874   1.150   2.613 -3.6289  0.9760 -2.5043
   34MOL0     H 4550  10.631   1.527   2.525 -2.2601  0.8177 -0.6383
   34MOL0     H 4551  10.482   1.522   2.348 -0.1955  0.2347  0.4985
   34MOL0     H 4552  10.362   1.441   1.875 -0.3352  0.2317  2.7653
   34MOL0     H 4553  10.237   1.391   1.675 -2.3160 -0.1623  2.6870
   34MOL0     H 4554  10.243   1.322   1.460  1.0926  0.4883 -0.2377
   34MOL0     H 4555  10.378   1.202   1.451  0.3147  1.7838 -0.8982
   34MOL0     H 4556  10.199   1.067   1.317 -3.6301 -0.3180 -0.7612
   34MOL0     H 4557  10.100   1.220   1.323  0.7400  2.1402 -1.6679
   34MOL0     H 4558  10.195   1.236   1.108  1.5231 -0.2906 -1.7715
   34MOL0     H 4559  10.286   1.341   1.205  0.0093  0.5392  2.0488
   34MOL0     H 4560  10.355   1.057   1.122  1.0540 -1.6806  3.2407
   34MOL0     H 4561  10.451   1.143   1.240 -2.0392 -0.6581  0.8969
   34MOL0     H 4562  10.495   1.320   1.057 -1.0988 -0.3901  1.5887
   34MOL0     H 4563  10.398   1.217   0.951  1.5691 -2.0838 -2.8337
   34MOL0     H 4564  10.664   1.197   0.953  2.6830 -2.3610  1.9071
   34MOL0     H 4565  10.638   1.102   1.081 -0.8280  0.1519  1.2830
   34MOL0     H 4566  10.466   1.052   0.831  0.9083  1.4981 -1.2321
   34MOL0     H 4567  10.533   0.926   0.939  3.1172 -1.4399 -1.8953
   34MOL0     H 4568  10.687   1.070   0.734  1.6367 -0.3400 -1.5392
   34MOL0     H 4569  10.775   0.992   0.880 -1.2428  1.3672  1.7313
   34MOL0     H 4570  10.301   0.975   1.699  0.2989  0.6755  0.3018
   34MOL0     H 4571  10.421   1.019   1.930  2.0563  1.5654 -0.9237
   34MOL0     H 4572  10.630   1.132   2.219 -0.2301  0.3353  0.5316
   34MOL0     H 4573  10.783   1.134   2.405  0.3292  1.2438 -1.4278
   34MOL0     H 4574  10.998   2.001   1.398  2.2821 -1.0802  0.3249
   34MOL0     H 4575  10.904   2.196   1.296  0.3751 -1.0334  1.4176
   34MOL0     H 4576  11.043   2.272   0.798  1.4682  1.7654  0.2919
   34MOL0     H 4577  11.036   2.354   0.575  1.5432  4.6261  1.1278
   34MOL0     H 4578  10.801   2.622   0.541  0.5229 -0.9861  0.9197
   34MOL0     H 4579  10.694   2.578   0.403  1.1951  0.4021  0.0258
   34MOL0     H 4580  10.851   2.768   0.383 -0.7047 -0.8436  1.7472
   34MOL0     H 4581  10.865   2.644   0.249  1.7209 -3.9198  0.3127
   34MOL0     H 4582  11.066   2.565   0.434 -1.4955  0.2321  1.7161
   34MOL0     H 4583  11.060   2.739   0.470 -1.2767  0.5490 -0.0733
   34MOL0     H 4584  11.217   2.627   0.289 -0.8630 -0.7834  1.6715
   34MOL0     H 4585  11.066   2.633   0.181 -1.1200  4.3310 -2.1088
   34MOL0     H 4586  11.147   3.037   0.169 -1.1850  0.1378  0.1287
   34MOL0     H 4587  10.619   2.436   0.605  0.3334  0.2952 -1.5150
   34MOL0     H 4588  10.483   2.358   0.786 -1.5379  1.8710  1.7065
   34MOL0     H 4589  10.558   2.241   0.898 -1.1796  1.6193  1.2269
   34MOL0     H 4590  10.600   2.419   0.913  0.0185  0.8711 -0.2203
   35MOL0     O 4591   2.292   6.877   0.856 -0.3857 -0.1169 -0.0079
   35MOL0     C 4592   2.193   6.928   0.816 -0.3336 -0.3416  0.2823
   35MOL0     O 4593   2.145   7.056   0.850 -0.4524  1.3350 -0.8808
   35MOL0     C 4594   2.178   7.102   0.977 -0.0170 -0.6183  0.6684
   35MOL0     C 4595   2.136   7.025   1.084  0.5405 -0.7307 -0.0077
   35MOL0     C 4596   2.159   7.063   1.215 -0.7143  0.0302 -0.2136
   35MOL0     C 4597   2.244   7.166   1.242 -0.5473 -0.2286 -0.4282
   35MOL0     O 4598   2.283   7.200   1.372  0.4879  0.6337 -1.5628
   35MOL0     C 4599   2.331   7.089   1.457  0.0077 -0.7369  0.5888
   35MOL0     C 4600   2.383   7.129   1.605 -0.1874 -0.8698 -0.2057
   35MOL0     C 4601   2.506   7.216   1.586 -0.2084  0.0757 -0.4124
   35MOL0     C 4602   2.627   7.135   1.651  1.1398 -0.5605 -0.3937
   35MOL0     C 4603   2.753   7.212   1.662 -0.6997 -0.5108  0.0756
   35MOL0     C 4604   2.759   7.359   1.705  0.1485 -0.0285 -0.1598
   35MOL0     C 4605   2.908   7.410   1.707  0.0772  0.7100 -0.2735
   35MOL0     C 4606   2.917   7.555   1.726  0.8647 -0.4994  0.1053
   35MOL0     N 4607   3.049   7.613   1.700  0.3380  0.4410  0.9340
   35MOL0     C 4608   3.159   7.554   1.764  0.2353 -1.6477  0.0212
   35MOL0     C 4609   3.260   7.650   1.741  0.3324 -0.8680 -1.4944
   35MOL0     C 4610   3.399   7.638   1.805  0.2285 -0.1134  0.6304
   35MOL0     C 4611   3.467   7.515   1.749 -0.7834 -0.4252 -0.1736
   35MOL0     C 4612   3.611   7.469   1.810  0.5612 -0.7038 -0.2075
   35MOL0     C 4613   3.655   7.342   1.758 -0.5420  0.9994 -0.0965
   35MOL0     O 4614   3.782   7.312   1.826  0.4247 -0.4181  0.1460
   35MOL0     C 4615   3.848   7.189   1.820  0.0846 -0.9135 -0.2473
   35MOL0     C 4616   3.919   7.152   1.932 -0.0163 -1.0674 -0.8920
   35MOL0     C 4617   3.972   7.032   1.956 -0.6893  1.2233  0.2166
   35MOL0     C 4618   3.965   6.933   1.859 -0.0192  0.6941  0.5203
   35MOL0     C 4619   4.008   6.789   1.895  0.0052 -0.5011 -0.1692
   35MOL0     O 4620   4.073   6.764   2.014 -0.0607 -0.8040 -0.5563
   35MOL0     C 4621   4.053   6.654   2.095 -1.1453 -0.4731 -0.2858
   35MOL0     C 4622   4.164   6.624   2.172 -0.3336 -0.5027 -1.0668
   35MOL0     C 4623   4.146   6.545   2.282 -0.7908 -0.5587 -0.0004
   35MOL0     C 4624   4.019   6.483   2.307 -0.4004 -0.3988  0.7961
   35MOL0     O 4625   3.997   6.399   2.414 -0.1724 -0.0051 -0.4007
   35MOL0     C 4626   4.083   6.291   2.419  0.7925 -0.0925  0.6505
   35MOL0     C 4627   4.055   6.188   2.530  0.2038  0.5359  0.5799
   35MOL0     C 4628   4.168   6.084   2.550 -0.2025  0.0986 -1.4528
   35MOL0     C 4629   4.111   5.935   2.539 -0.0178 -0.6580 -0.3097
   35MOL0     C 4630   4.058   5.889   2.671 -0.1411  0.3869  0.7922
   35MOL0     C 4631   4.047   5.740   2.684  0.9776 -0.0423 -0.3239
   35MOL0     C 4632   3.996   5.714   2.831 -0.5232  0.1171  0.0183
   35MOL0     C 4633   3.937   5.571   2.858  0.4680  0.0831  1.1929
   35MOL0    Cl 4634   3.762   5.578   2.824 -0.1131 -0.2167  0.0121
   35MOL0     C 4635   3.918   6.512   2.223 -0.0794 -1.1315 -0.8666
   35MOL0     C 4636   3.928   6.598   2.123  0.7251  0.2716  0.1751
   35MOL0     O 4637   3.977   6.709   1.813  0.2900  0.1824 -0.5386
   35MOL0     C 4638   3.888   6.956   1.737  0.4649 -0.7896 -1.1276
   35MOL0     C 4639   3.831   7.088   1.719  0.0633 -0.3810  0.1587
   35MOL0     N 4640   3.207   7.752   1.667  0.5453  0.1109 -0.7079
   35MOL0     N 4641   3.078   7.730   1.642 -0.2268 -0.2975  0.5008
   35MOL0     C 4642   2.289   7.246   1.135  0.1735  0.0205 -0.2324
   35MOL0     C 4643   2.251   7.224   1.006 -0.0509 -0.1704 -0.3796
   35MOL0     C 4644   2.123   6.854   0.703 -0.9050 -0.6643 -0.3819
   35MOL0     C 4645   1.984   6.857   0.701 -0.5839 -1.3573  0.1060
   35MOL0     C 4646   1.919   6.797   0.596 -0.2671 -0.5387  0.3637
   35MOL0     C 4647   1.986   6.741   0.488 -0.2458  0.0167  0.0064
   35MOL0     O 4648   1.899   6.687   0.404  0.8379 -0.2261  0.1357
   35MOL0     C 4649   1.965   6.678   0.271 -0.0427 -0.5974  0.1553
   35MOL0     C 4650   1.855   6.665   0.166  0.7371 -0.1401  0.2758
   35MOL0     C 4651   1.888   6.727   0.023 -1.6008 -0.0474  0.6771
   35MOL0     C 4652   1.745   6.761  -0.043  0.3767  0.4426  0.3550
   35MOL0     C 4653   1.767   6.781  -0.183  0.1714  0.1798 -0.4365
   35MOL0     C 4654   1.776   6.792  -0.306 -0.2314  0.5709  0.1281
   35MOL0     C 4655   2.131   6.720   0.491 -0.4436  0.1764  1.0032
   35MOL0     C 4656   2.195   6.784   0.597  0.2968 -1.0176 -0.2521
   35MOL0     C 4657   2.350   6.810   0.579 -0.1490  0.6155  0.2654
   35MOL0     H 4658   2.073   6.941   1.057 -1.0776  1.3504 -3.3114
   35MOL0     H 4659   2.128   6.994   1.293  3.8269 -1.5702  0.4988
   35MOL0     H 4660   2.254   7.012   1.473 -0.7256 -0.0174  0.5938
   35MOL0     H 4661   2.420   7.042   1.414 -1.4229 -4.5001  1.2826
   35MOL0     H 4662   2.408   7.034   1.651 -0.1683 -0.8472 -0.1691
   35MOL0     H 4663   2.309   7.173   1.672  1.7654  0.0602  1.4474
   35MOL0     H 4664   2.484   7.311   1.637  1.0098 -0.2578  0.8161
   35MOL0     H 4665   2.529   7.240   1.482  0.0271  2.1848  0.0740
   35MOL0     H 4666   2.602   7.115   1.756  1.3818 -0.0106 -0.2251
   35MOL0     H 4667   2.652   7.042   1.599  1.2665 -0.8205  0.1274
   35MOL0     H 4668   2.821   7.154   1.725  1.1110 -0.7570 -1.9992
   35MOL0     H 4669   2.792   7.217   1.560  1.1000  2.4410  0.7850
   35MOL0     H 4670   2.713   7.423   1.629 -0.5189 -1.3684 -0.9264
   35MOL0     H 4671   2.709   7.366   1.802  0.1851 -1.1825 -0.0425
   35MOL0     H 4672   2.961   7.381   1.616 -1.9629  2.9293 -2.3040
   35MOL0     H 4673   2.947   7.354   1.793 -0.8356 -1.9367 -1.4552
   35MOL0     H 4674   2.848   7.610   1.661  2.0612 -2.7524 -3.3414
   35MOL0     H 4675   2.894   7.571   1.832 -0.8894  3.2655 -0.6556
   35MOL0     H 4676   3.163   7.464   1.823 -1.1472 -1.2428  0.7844
   35MOL0     H 4677   3.461   7.725   1.782  3.4576 -2.0875  1.1801
   35MOL0     H 4678   3.388   7.622   1.913 -1.6248  2.4348  0.8932
   35MOL0     H 4679   3.400   7.432   1.773  1.1704 -1.5434  1.7970
   35MOL0     H 4680   3.477   7.518   1.640 -2.6852 -3.3646 -0.5206
   35MOL0     H 4681   3.607   7.463   1.919 -3.5661  3.6692  0.1869
   35MOL0     H 4682   3.688   7.540   1.782  0.1487 -0.3198 -0.3760
   35MOL0     H 4683   3.651   7.340   1.648 -3.9527 -0.4778 -0.0654
   35MOL0     H 4684   3.592   7.259   1.791  2.3127 -1.8083 -1.1504
   35MOL0     H 4685   3.918   7.227   2.011 -0.0314 -0.7971 -1.1492
   35MOL0     H 4686   4.019   7.011   2.052  2.9607 -0.9112 -1.8133
   35MOL0     H 4687   4.260   6.672   2.160 -0.4510 -0.4522 -1.8427
   35MOL0     H 4688   4.241   6.534   2.333 -1.1026  0.2841  0.7838
   35MOL0     H 4689   4.082   6.244   2.320  0.2731 -0.3560  0.7783
   35MOL0     H 4690   4.185   6.328   2.438  0.4512  0.1795  2.1140
   35MOL0     H 4691   4.040   6.248   2.621  2.2334  0.8598  0.7307
   35MOL0     H 4692   3.963   6.133   2.510 -1.3332  3.0085  0.3007
   35MOL0     H 4693   4.247   6.122   2.485  2.4818 -1.7628  0.4992
   35MOL0     H 4694   4.207   6.092   2.652 -3.4244  0.2687 -0.1049
   35MOL0     H 4695   4.188   5.867   2.504 -1.0370  0.1081 -4.6171
   35MOL0     H 4696   4.033   5.931   2.462 -0.7735  1.5850  0.2377
   35MOL0     H 4697   3.973   5.955   2.693 -1.6789 -0.6918 -1.4855
   35MOL0     H 4698   4.144   5.920   2.730  3.2167  0.2921 -3.5213
   35MOL0     H 4699   3.974   5.693   2.618  0.0832  0.2108  0.4669
   35MOL0     H 4700   4.147   5.698   2.669  2.0932  2.4614 -0.2877
   35MOL0     H 4701   3.922   5.789   2.862 -1.1258 -1.5724  3.0371
   35MOL0     H 4702   4.087   5.725   2.891 -1.2955 -2.7708  1.8849
   35MOL0     H 4703   3.997   5.500   2.800  0.6773 -0.5045  2.1214
   35MOL0     H 4704   3.944   5.550   2.965 -0.2342 -4.1281  0.5928
   35MOL0     H 4705   3.825   6.472   2.261 -0.8903  1.7448  0.3827
   35MOL0     H 4706   3.831   6.621   2.081  0.6201  0.4538  0.5120
   35MOL0     H 4707   3.864   6.873   1.671 -0.3028  0.4165 -2.4253
   35MOL0     H 4708   3.766   7.117   1.637 -1.0798  2.1178  1.8476
   35MOL0     H 4709   2.354   7.332   1.152  0.1823  0.0058 -0.1914
   35MOL0     H 4710   2.279   7.297   0.932  0.2439  0.4675  0.3539
   35MOL0     H 4711   1.920   6.903   0.776  0.0458  0.8242 -0.6102
   35MOL0     H 4712   1.811   6.802   0.593 -0.4325 -1.2869  2.6779
   35MOL0     H 4713   2.032   6.593   0.260  1.9347  1.2556 -4.7435
   35MOL0     H 4714   2.026   6.767   0.253  2.3562 -1.7141  2.1917
   35MOL0     H 4715   1.774   6.733   0.194  2.7605  3.7800 -2.3884
   35MOL0     H 4716   1.826   6.561   0.149 -2.6578  0.7303  0.0016
   35MOL0     H 4717   1.939   6.646  -0.030  2.3184  2.9271 -0.6041
   35MOL0     H 4718   1.953   6.814   0.033  0.9033 -1.6965 -0.3487
   35MOL0     H 4719   1.669   6.683  -0.038  1.1773 -0.3186  0.8563
   35MOL0     H 4720   1.705   6.854  -0.001  1.6718 -0.3108  3.5955
   35MOL0     H 4721   1.789   6.805  -0.411  0.9748  0.6803  0.2716
   35MOL0     H 4722   2.178   6.682   0.401 -0.9907  0.0711  0.7595
   35MOL0     H 4723   2.392   6.748   0.500  0.6461 -0.1891  1.2795
   35MOL0     H 4724   2.388   6.913   0.578 -0.1571  0.6774 -3.1855
   35MOL0     H 4725   2.396   6.770   0.670  1.3642 -0.9387 -1.1100
   36MOL0     O 4726   8.698   7.686   5.282  0.0634  0.1714 -0.1656
   36MOL0     C 4727   8.647   7.635   5.180 -0.0480 -0.4094  0.1173
   36MOL0     O 4728   8.716   7.574   5.084  0.0552 -0.6418 -1.0795
   36MOL0     C 4729   8.839   7.617   5.045 -0.5067  0.2269  0.1604
   36MOL0     C 4730   8.864   7.584   4.915  0.2922  0.7790  0.3225
   36MOL0     C 4731   8.974   7.647   4.843 -0.2422 -0.1241 -0.0615
   36MOL0     C 4732   9.050   7.744   4.909  0.3042 -0.3304  0.1418
   36MOL0     O 4733   9.155   7.807   4.850  0.0135 -0.2083  0.3737
   36MOL0     C 4734   9.135   7.855   4.718  0.3235  0.1085 -0.0535
   36MOL0     C 4735   9.227   7.967   4.690 -0.4731 -0.0036 -0.2846
   36MOL0     C 4736   9.373   7.927   4.658 -0.3017 -0.3234 -0.0344
   36MOL0     C 4737   9.401   7.904   4.509 -0.6487 -0.3157 -0.3486
   36MOL0     C 4738   9.519   7.818   4.490  0.1721  0.0414 -0.1694
   36MOL0     C 4739   9.472   7.672   4.485  0.6753  0.1501  0.2021
   36MOL0     C 4740   9.556   7.576   4.564 -0.2811  0.1396 -0.1340
   36MOL0     C 4741   9.552   7.597   4.721  0.5082 -0.5266 -0.4020
   36MOL0     N 4742   9.666   7.683   4.770 -0.0891 -0.4733 -0.2922
   36MOL0     C 4743   9.802   7.645   4.767 -0.4918  0.5332  0.0321
   36MOL0     C 4744   9.866   7.742   4.841 -0.3408  0.6187  0.1309
   36MOL0     C 4745  10.013   7.761   4.852  0.3417  0.1377  0.5252
   36MOL0     C 4746  10.049   7.880   4.771  0.7439 -0.2100  0.5144
   36MOL0     C 4747  10.198   7.898   4.768 -0.8296 -0.6479  0.3166
   36MOL0     C 4748  10.238   8.044   4.719  0.0436  0.5983 -0.0393
   36MOL0     O 4749  10.154   8.064   4.599 -0.6855  0.1063  0.2531
   36MOL0     C 4750  10.193   8.157   4.514 -0.1686  0.1878  1.0155
   36MOL0     C 4751  10.107   8.180   4.404 -0.9239 -0.2533 -0.6531
   36MOL0     C 4752  10.116   8.293   4.327 -1.8185 -1.1145 -0.0436
   36MOL0     C 4753  10.231   8.368   4.333 -0.0196  0.6216  0.6736
   36MOL0     C 4754  10.245   8.492   4.242 -0.1076  0.3292  0.0610
   36MOL0     O 4755  10.181   8.483   4.117  0.2017  1.1377  0.6429
   36MOL0     C 4756  10.185   8.587   4.027 -0.3318  0.1856 -1.0954
   36MOL0     C 4757  10.241   8.574   3.903  0.2483  0.9908 -0.0153
   36MOL0     C 4758  10.256   8.681   3.822 -0.1802  0.2376 -0.4835
   36MOL0     C 4759  10.220   8.812   3.864 -1.0828 -0.3221 -0.0554
   36MOL0     O 4760  10.261   8.920   3.786 -0.6076  0.1503  0.4580
   36MOL0     C 4761  10.240   9.058   3.816  0.5266 -0.3522 -0.6921
   36MOL0     C 4762  10.318   9.142   3.730  0.0535  0.0381  0.2096
   36MOL0     C 4763  10.253   9.156   3.592 -0.0976  0.0506 -1.0351
   36MOL0     C 4764  10.179   9.036   3.523 -0.0300 -0.2330  0.2924
   36MOL0     C 4765  10.099   9.102   3.409  0.6663 -0.3541  0.0160
   36MOL0     C 4766  10.039   8.995   3.327 -0.0082 -0.2225  0.1361
   36MOL0     C 4767   9.947   9.047   3.208  0.0497  0.1864  0.2933
   36MOL0     C 4768  10.034   9.073   3.091  0.5429  0.8746  0.7533
   36MOL0    Cl 4769   9.957   9.169   2.954  0.4026 -0.1972 -0.1535
   36MOL0     C 4770  10.158   8.821   3.986  0.1882 -0.8940  0.6590
   36MOL0     C 4771  10.137   8.711   4.068  0.3116  0.1261  0.5208
   36MOL0     O 4772  10.318   8.585   4.275 -0.2080  0.4159  0.2632
   36MOL0     C 4773  10.331   8.342   4.432 -0.5363 -0.4206  0.3013
   36MOL0     C 4774  10.308   8.238   4.524  0.1929  0.4482  0.7585
   36MOL0     N 4775   9.769   7.835   4.868 -0.3618  0.7887 -0.2245
   36MOL0     N 4776   9.655   7.802   4.833  0.9909 -0.7200  0.6042
   36MOL0     C 4777   9.034   7.770   5.040  0.3655  0.4034 -0.7831
   36MOL0     C 4778   8.926   7.708   5.104 -0.8755  0.1343  0.1175
   36MOL0     C 4779   8.496   7.648   5.169 -0.5090  0.6062  0.0094
   36MOL0     C 4780   8.430   7.708   5.281  0.6854 -0.6090  0.8046
   36MOL0     C 4781   8.291   7.713   5.288 -0.2022  0.1942  0.6651
   36MOL0     C 4782   8.212   7.665   5.182  1.0011  0.3920  0.0206
   36MOL0     O 4783   8.080   7.673   5.164  0.3544  1.2413 -0.4939
   36MOL0     C 4784   8.015   7.776   5.243 -0.7587  0.4550 -0.9851
   36MOL0     C 4785   7.912   7.842   5.161  0.7092  0.4101  0.3560
   36MOL0     C 4786   7.954   7.878   5.025 -1.4369 -1.6319 -0.4491
   36MOL0     C 4787   7.860   7.993   4.977 -0.1637  0.5977 -0.0350
   36MOL0     C 4788   7.921   8.058   4.865  0.0497  0.2739 -0.0235
   36MOL0     C 4789   7.976   8.121   4.783  0.1821 -0.0166 -0.6311
   36MOL0     C 4790   8.278   7.607   5.069 -0.0975  0.0147  0.5707
   36MOL0     C 4791   8.423   7.600   5.067 -0.5509  1.0252 -0.0715
   36MOL0     C 4792   8.487   7.516   4.948  0.0424 -0.0600  0.1104
   36MOL0     H 4793   8.803   7.507   4.868  1.0322  1.0079 -1.0780
   36MOL0     H 4794   8.991   7.618   4.740 -0.3205 -1.2694  0.2389
   36MOL0     H 4795   9.145   7.772   4.648  0.0822 -1.4833  1.7029
   36MOL0     H 4796   9.031   7.886   4.703  0.1221 -1.0723 -1.2152
   36MOL0     H 4797   9.225   8.046   4.765 -1.2687 -1.4921  1.3167
   36MOL0     H 4798   9.183   8.016   4.602 -1.0260 -0.1215 -0.0763
   36MOL0     H 4799   9.395   7.842   4.722 -1.3361 -1.3182 -0.9626
   36MOL0     H 4800   9.432   8.012   4.694 -0.4456 -0.4397  0.4805
   36MOL0     H 4801   9.308   7.872   4.459  0.6787 -1.0790 -2.4838
   36MOL0     H 4802   9.419   8.008   4.481  2.1047  0.1441  2.6512
   36MOL0     H 4803   9.568   7.842   4.395 -0.5583 -1.1274 -0.8637
   36MOL0     H 4804   9.599   7.824   4.565 -0.7326 -2.0321  1.0695
   36MOL0     H 4805   9.370   7.661   4.524  0.6731  2.3493  0.9121
   36MOL0     H 4806   9.466   7.650   4.378 -1.0644 -0.1924  0.3342
   36MOL0     H 4807   9.662   7.572   4.536 -0.2952 -0.5770 -0.1153
   36MOL0     H 4808   9.514   7.480   4.531 -0.5064  0.4966 -0.9101
   36MOL0     H 4809   9.464   7.657   4.743  1.8304  0.8550  1.4019
   36MOL0     H 4810   9.552   7.502   4.775  2.3137  0.4360  1.4301
   36MOL0     H 4811   9.850   7.561   4.718 -3.0846 -1.3189  0.4602
   36MOL0     H 4812  10.059   7.775   4.950 -0.1962  2.6336  0.4700
   36MOL0     H 4813  10.059   7.675   4.802 -0.4131  1.0865 -1.9596
   36MOL0     H 4814  10.007   7.876   4.670 -1.6231  2.0569  1.2919
   36MOL0     H 4815  10.003   7.968   4.816 -0.7238 -0.6108 -0.1447
   36MOL0     H 4816  10.241   7.821   4.703  0.0796  0.9139 -1.0114
   36MOL0     H 4817  10.249   7.872   4.861  3.4097 -2.3698 -2.2365
   36MOL0     H 4818  10.345   8.033   4.696  0.0228 -3.7934  1.0678
   36MOL0     H 4819  10.218   8.106   4.807 -2.6744 -2.5636  1.7993
   36MOL0     H 4820  10.023   8.110   4.403 -0.8666 -0.3699  0.5694
   36MOL0     H 4821  10.050   8.302   4.241 -0.4480 -2.0844 -1.2513
   36MOL0     H 4822  10.266   8.474   3.869  0.4886 -0.1515  3.1886
   36MOL0     H 4823  10.311   8.660   3.731 -0.7888 -2.4709 -0.2998
   36MOL0     H 4824  10.134   9.085   3.816  0.5661  0.5614  3.8667
   36MOL0     H 4825  10.261   9.072   3.922 -1.9486 -3.3563  0.3619
   36MOL0     H 4826  10.337   9.242   3.771 -0.9264  0.4154 -0.2197
   36MOL0     H 4827  10.416   9.093   3.734 -0.5962 -1.3742 -0.5775
   36MOL0     H 4828  10.181   9.238   3.600  2.8055  2.6286  1.6670
   36MOL0     H 4829  10.329   9.200   3.526  1.9001  1.8862  2.1980
   36MOL0     H 4830  10.111   8.992   3.596 -3.4139  3.9799  0.0930
   36MOL0     H 4831  10.252   8.961   3.489  2.6155  0.7678  3.3674
   36MOL0     H 4832  10.173   9.167   3.360 -0.5642  1.1815  0.0933
   36MOL0     H 4833  10.016   9.168   3.435  1.8831  2.1804 -1.9417
   36MOL0     H 4834  10.110   8.927   3.279  0.7706  0.6061  0.1024
   36MOL0     H 4835   9.978   8.929   3.391  0.7976 -1.6648 -0.5288
   36MOL0     H 4836   9.893   9.140   3.229  0.2627  0.1322  1.1082
   36MOL0     H 4837   9.881   8.963   3.184  1.8671 -1.7735  1.7034
   36MOL0     H 4838  10.130   9.121   3.116  0.4099  0.5077  1.9848
   36MOL0     H 4839  10.058   8.976   3.047  0.2792  1.1332  0.0071
   36MOL0     H 4840  10.126   8.917   4.025  2.6647  0.4792 -0.4308
   36MOL0     H 4841  10.091   8.708   4.166 -0.8965 -0.9505 -0.0503
   36MOL0     H 4842  10.421   8.402   4.440 -1.1531  0.3484  1.7209
   36MOL0     H 4843  10.382   8.230   4.604  1.8705  0.1667 -0.7583
   36MOL0     H 4844   9.104   7.841   5.083  0.4769  1.3042 -2.3895
   36MOL0     H 4845   8.908   7.763   5.196  3.5154  2.7540 -0.3168
   36MOL0     H 4846   8.491   7.748   5.361 -0.6928  1.1369  1.0554
   36MOL0     H 4847   8.260   7.762   5.380 -1.0886 -1.0956  1.0658
   36MOL0     H 4848   8.086   7.850   5.280  0.5395 -1.6051  0.8892
   36MOL0     H 4849   7.983   7.722   5.332  1.3729  0.2038 -0.3248
   36MOL0     H 4850   7.870   7.929   5.213 -3.2381 -0.8364 -0.3663
   36MOL0     H 4851   7.834   7.766   5.149  2.8384 -2.1124  1.2992
   36MOL0     H 4852   7.961   7.804   4.945 -1.4729  0.6150 -2.6769
   36MOL0     H 4853   8.054   7.917   5.047 -1.8802 -0.8453  0.2274
   36MOL0     H 4854   7.758   7.967   4.949 -0.3702  1.5596 -0.1827
   36MOL0     H 4855   7.860   8.068   5.057 -2.8626  0.0622  0.5454
   36MOL0     H 4856   8.020   8.195   4.719  1.0419  1.5474  1.6395
   36MOL0     H 4857   8.217   7.582   4.983  0.0318  2.3588 -0.2890
   36MOL0     H 4858   8.411   7.491   4.873 -1.2258 -0.0349  1.3460
   36MOL0     H 4859   8.558   7.580   4.894  1.9327 -2.5635 -0.5505
   36MOL0     H 4860   8.538   7.429   4.989 -1.0045 -0.8730 -0.2925
   37MOL0     O 4861   2.125   4.024   9.431  0.0913  0.2346 -0.1003
   37MOL0     C 4862   2.024   3.975   9.486 -0.4007  0.3293 -0.0242
   37MOL0     O 4863   1.901   4.026   9.474 -0.1230 -0.0716  0.4545
   37MOL0     C 4864   1.883   4.073   9.347  0.7749  0.4523  0.7258
   37MOL0     C 4865   1.841   3.988   9.242  0.0983 -0.2315  1.4012
   37MOL0     C 4866   1.819   4.046   9.120 -0.1902 -0.2250 -0.0048
   37MOL0     C 4867   1.818   4.186   9.103  0.5319 -1.4119 -0.1967
   37MOL0     O 4868   1.800   4.251   8.983 -0.5964  0.7014  0.2338
   37MOL0     C 4869   1.718   4.190   8.886 -0.3971  0.4535 -0.7916
   37MOL0     C 4870   1.709   4.287   8.763 -0.6039 -0.5540  0.2544
   37MOL0     C 4871   1.610   4.399   8.790  0.0378  0.0222  0.3868
   37MOL0     C 4872   1.562   4.446   8.655  0.1065  1.1812  0.3730
   37MOL0     C 4873   1.500   4.587   8.664 -1.2900  0.9215  0.3470
   37MOL0     C 4874   1.375   4.602   8.742  0.4485  0.0551  0.6212
   37MOL0     C 4875   1.257   4.562   8.656  0.9590  0.7799  1.0924
   37MOL0     C 4876   1.125   4.576   8.729  0.7277 -0.6140 -0.4572
   37MOL0     N 4877   1.007   4.574   8.639 -0.1426 -0.2326 -0.1797
   37MOL0     C 4878   0.890   4.616   8.678  1.1580 -0.3511 -0.2648
   37MOL0     C 4879   0.818   4.633   8.565 -0.9098 -0.5162 -0.0790
   37MOL0     C 4880   0.684   4.694   8.560  0.4495 -0.4503 -0.3850
   37MOL0     C 4881   0.685   4.837   8.506  1.0154 -0.2537  0.0653
   37MOL0     C 4882   0.638   4.854   8.362  0.0774  0.3416 -1.1010
   37MOL0     C 4883   0.731   4.776   8.266 -0.5973 -0.4654  0.2744
   37MOL0     O 4884   0.681   4.819   8.139 -0.0248  0.1904 -0.2862
   37MOL0     C 4885   0.733   4.924   8.061 -0.2443  0.1869 -0.2078
   37MOL0     C 4886   0.662   4.954   7.946 -0.1330 -0.1684  0.4563
   37MOL0     C 4887   0.730   5.048   7.858  0.2349  0.1431  1.2797
   37MOL0     C 4888   0.857   5.100   7.882  0.7644 -1.0324 -0.5535
   37MOL0     C 4889   0.918   5.187   7.777 -0.1278  0.3424 -0.5173
   37MOL0     O 4890   1.060   5.214   7.790  0.6565  0.3704 -0.2520
   37MOL0     C 4891   1.130   5.270   7.693  0.1840  0.2408 -0.1351
   37MOL0     C 4892   1.133   5.224   7.557  0.4202  0.4797  1.0812
   37MOL0     C 4893   1.224   5.281   7.469  0.2018  0.1697  0.8162
   37MOL0     C 4894   1.306   5.382   7.507 -0.4260  0.2521  0.6340
   37MOL0     O 4895   1.397   5.443   7.422  0.2481  0.6753  0.0717
   37MOL0     C 4896   1.463   5.365   7.330  0.2862  0.0847  0.4993
   37MOL0     C 4897   1.583   5.440   7.290  0.6042  0.3782  0.3332
   37MOL0     C 4898   1.658   5.378   7.170 -0.0491  0.8499 -0.4471
   37MOL0     C 4899   1.765   5.475   7.110  0.0620 -0.4376  0.3043
   37MOL0     C 4900   1.805   5.440   6.966  0.0726  0.5362 -0.3448
   37MOL0     C 4901   1.893   5.548   6.900  0.5117  0.7191  0.5087
   37MOL0     C 4902   2.022   5.578   6.992 -0.2923 -0.2344  0.3326
   37MOL0     C 4903   2.098   5.461   7.068  0.3294  0.4370 -0.9344
   37MOL0    Cl 4904   2.197   5.536   7.206  0.2246  0.0816  0.4330
   37MOL0     C 4905   1.310   5.430   7.637  0.1062 -0.2906 -0.0586
   37MOL0     C 4906   1.216   5.378   7.731 -0.2050  0.5448  0.1651
   37MOL0     O 4907   0.854   5.217   7.680  0.7814  0.2299  0.3863
   37MOL0     C 4908   0.927   5.073   7.999 -0.2794  0.5144 -0.6651
   37MOL0     C 4909   0.858   4.991   8.097  0.2778  0.0897  0.3474
   37MOL0     N 4910   0.898   4.597   8.462  0.2057  0.0135  0.3524
   37MOL0     N 4911   1.011   4.571   8.499  0.0793  1.6096 -0.1875
   37MOL0     C 4912   1.851   4.272   9.211 -0.3359  0.9839 -1.1945
   37MOL0     C 4913   1.872   4.211   9.334 -0.8475 -0.4662 -0.7236
   37MOL0     C 4914   2.045   3.843   9.562  0.1076 -0.1834 -0.9783
   37MOL0     C 4915   1.944   3.814   9.662  0.0534 -0.1917 -0.6168
   37MOL0     C 4916   1.963   3.713   9.760  0.2513  0.2178  1.2053
   37MOL0     C 4917   2.072   3.628   9.750 -0.5129 -0.1063  0.4165
   37MOL0     O 4918   2.066   3.521   9.832  0.8027 -0.2580  0.1859
   37MOL0     C 4919   2.132   3.394   9.802  0.8503 -0.1836  0.0899
   37MOL0     C 4920   2.032   3.286   9.771 -0.5998 -0.0648 -0.3882
   37MOL0     C 4921   2.100   3.150   9.739 -0.3142  0.0309  0.6487
   37MOL0     C 4922   2.003   3.032   9.716 -0.9462  0.2399 -0.8227
   37MOL0     C 4923   1.922   3.061   9.595  0.0326  0.0206 -1.3514
   37MOL0     C 4924   1.856   3.077   9.498  1.0125  0.8001  0.0287
   37MOL0     C 4925   2.177   3.658   9.660 -0.2308  0.3429  0.0902
   37MOL0     C 4926   2.154   3.752   9.563 -0.2737 -0.1236 -0.4049
   37MOL0     C 4927   2.255   3.738   9.448 -0.1181  0.5148  0.5400
   37MOL0     H 4928   1.848   3.881   9.230 -0.0221 -0.0028 -1.3167
   37MOL0     H 4929   1.801   3.977   9.038 -3.4470  0.2368  0.1764
   37MOL0     H 4930   1.772   4.105   8.842  3.0509  2.0883 -0.0162
   37MOL0     H 4931   1.622   4.149   8.918  0.7644 -0.6460  1.5613
   37MOL0     H 4932   1.666   4.221   8.687  1.8696 -2.1047  0.0973
   37MOL0     H 4933   1.808   4.311   8.724 -1.4261  0.8526 -1.0935
   37MOL0     H 4934   1.673   4.471   8.843 -1.6413  1.0919  1.0075
   37MOL0     H 4935   1.534   4.355   8.855  0.6796  0.5311  1.5161
   37MOL0     H 4936   1.643   4.448   8.581 -0.0773  0.0226  0.1196
   37MOL0     H 4937   1.483   4.386   8.608  0.7546  0.2424  0.4590
   37MOL0     H 4938   1.581   4.639   8.716  0.9023 -0.5662 -1.3923
   37MOL0     H 4939   1.485   4.617   8.560 -2.2393  0.0889  0.2292
   37MOL0     H 4940   1.374   4.549   8.838  1.8280 -3.0744 -0.9715
   37MOL0     H 4941   1.354   4.709   8.758 -3.3933 -0.5762  0.8848
   37MOL0     H 4942   1.261   4.464   8.608 -2.8952 -0.0794  2.1992
   37MOL0     H 4943   1.256   4.634   8.574  1.5406  1.4963  1.7043
   37MOL0     H 4944   1.122   4.507   8.814  1.7847  1.8076  1.6759
   37MOL0     H 4945   1.120   4.674   8.778 -1.6039 -1.6326  1.5357
   37MOL0     H 4946   0.858   4.643   8.778 -0.0139  0.0153 -0.7270
   37MOL0     H 4947   0.629   4.631   8.490  0.3401  1.4681 -2.1367
   37MOL0     H 4948   0.630   4.695   8.655 -1.7228  3.4545 -1.4624
   37MOL0     H 4949   0.627   4.903   8.571 -0.2865 -1.2317 -0.0638
   37MOL0     H 4950   0.789   4.870   8.503  1.6014 -1.8587 -4.1087
   37MOL0     H 4951   0.642   4.963   8.350  3.6734  0.5272  0.5500
   37MOL0     H 4952   0.534   4.819   8.364  0.6654 -1.4703 -0.2597
   37MOL0     H 4953   0.722   4.668   8.281  0.2981 -0.3338  1.9839
   37MOL0     H 4954   0.837   4.793   8.286 -0.1628 -1.8696 -0.6708
   37MOL0     H 4955   0.566   4.916   7.913  0.0808 -0.0612 -0.3094
   37MOL0     H 4956   0.694   5.053   7.756  3.3329 -0.9404  0.0186
   37MOL0     H 4957   1.061   5.148   7.528 -0.2159  0.9110  1.4840
   37MOL0     H 4958   1.214   5.244   7.367 -2.4761 -3.0384  2.0404
   37MOL0     H 4959   1.503   5.275   7.378 -0.7295 -0.4972  0.2849
   37MOL0     H 4960   1.394   5.336   7.251 -2.1843  4.4786  0.7153
   37MOL0     H 4961   1.548   5.536   7.250 -0.3281 -1.4533 -3.7587
   37MOL0     H 4962   1.636   5.456   7.384 -1.2823  3.7962  1.0031
   37MOL0     H 4963   1.688   5.278   7.200 -1.1232  0.4557 -0.6118
   37MOL0     H 4964   1.582   5.366   7.092  0.2566 -1.4688 -0.4506
   37MOL0     H 4965   1.847   5.491   7.181  0.8477  0.5952 -0.8162
   37MOL0     H 4966   1.707   5.567   7.116 -1.7743 -1.5224  0.0382
   37MOL0     H 4967   1.718   5.441   6.900 -0.8242 -2.0173  0.6654
   37MOL0     H 4968   1.858   5.345   6.955 -3.5667 -1.6682 -0.5559
   37MOL0     H 4969   1.920   5.533   6.795  1.2665  1.3336  0.6005
   37MOL0     H 4970   1.838   5.641   6.881  1.1991  0.8200 -1.1455
   37MOL0     H 4971   1.995   5.658   7.062 -1.5707 -0.0551 -0.3242
   37MOL0     H 4972   2.105   5.625   6.939  1.2986 -1.2524  1.8337
   37MOL0     H 4973   2.032   5.391   7.119  0.4334 -0.7116 -2.3099
   37MOL0     H 4974   2.146   5.394   6.996 -0.1071 -0.3938 -0.4643
   37MOL0     H 4975   1.369   5.520   7.647 -2.6080  1.8793 -1.8244
   37MOL0     H 4976   1.206   5.405   7.836 -0.5719  3.0941 -0.4519
   37MOL0     H 4977   1.027   5.113   7.998  0.1881 -0.3107 -4.8605
   37MOL0     H 4978   0.916   4.964   8.185  0.4181  0.2359  0.3006
   37MOL0     H 4979   1.860   4.380   9.217  0.3660  0.8593  2.0562
   37MOL0     H 4980   1.909   4.275   9.414 -1.8510 -1.5833  0.6846
   37MOL0     H 4981   1.859   3.879   9.679 -0.0641 -0.6708  0.7365
   37MOL0     H 4982   1.887   3.698   9.836 -2.1069 -1.1631 -1.2366
   37MOL0     H 4983   2.192   3.359   9.887 -1.2475 -0.0808  1.6816
   37MOL0     H 4984   2.203   3.406   9.718 -1.1003 -1.5242 -1.8473
   37MOL0     H 4985   1.981   3.324   9.682  0.5056  1.2902 -0.4677
   37MOL0     H 4986   1.983   3.280   9.869  5.0880 -2.5123  2.8370
   37MOL0     H 4987   2.167   3.139   9.825  0.9459  1.0598 -0.1604
   37MOL0     H 4988   2.151   3.161   9.643 -0.6835 -0.8585  0.3435
   37MOL0     H 4989   2.053   2.936   9.701  1.9393  1.3681  0.6150
   37MOL0     H 4990   1.936   3.027   9.802 -0.9350  2.1913 -0.6436
   37MOL0     H 4991   1.794   3.070   9.411 -3.3180  0.9842  2.7529
   37MOL0     H 4992   2.261   3.590   9.654 -0.0939  0.5820 -0.8062
   37MOL0     H 4993   2.274   3.828   9.389  1.5822  0.5476  1.0750
   37MOL0     H 4994   2.350   3.692   9.479 -1.6062 -2.4623  1.0533
   37MOL0     H 4995   2.214   3.661   9.382  1.9835 -0.0778 -0.1651
   38MOL0     O 4996   0.771   4.957   1.016  0.3904  0.7393  0.8250
   38MOL0     C 4997   0.712   4.868   1.082  0.1837  0.6158  0.0590
   38MOL0     O 4998   0.631   4.756   1.028  0.1721 -0.1492 -0.1840
   38MOL0     C 4999   0.604   4.754   0.894 -0.4857 -0.5369 -0.6048
   38MOL0     C 5000   0.500   4.830   0.848  0.5980 -0.5244  0.5545
   38MOL0     C 5001   0.454   4.815   0.713 -1.0368  1.2178  0.6693
   38MOL0     C 5002   0.529   4.729   0.628  0.0268 -0.5519  0.2127
   38MOL0     O 5003   0.472   4.715   0.505 -0.2062  0.3898  0.0257
   38MOL0     C 5004   0.538   4.640   0.401 -0.7280  1.5010 -0.0528
   38MOL0     C 5005   0.470   4.655   0.265  0.1749  0.3433 -0.6046
   38MOL0     C 5006   0.316   4.620   0.255 -0.3885 -1.0176  0.6164
   38MOL0     C 5007   0.305   4.474   0.296  0.5573  0.3390  1.0173
   38MOL0     C 5008   0.225   4.456   0.429  0.4251  0.1190  0.5501
   38MOL0     C 5009   0.284   4.345   0.526 -0.8942  0.8359  1.1301
   38MOL0     C 5010   0.318   4.218   0.452 -1.1621  0.1510 -0.4766
   38MOL0     C 5011   0.217   4.106   0.445  0.2521 -0.0635  0.3600
   38MOL0     N 5012   0.196   4.023   0.570  0.2761  0.5474 -0.7096
   38MOL0     C 5013   0.085   3.951   0.609  0.4647 -1.2378  0.3155
   38MOL0     C 5014   0.115   3.881   0.724 -0.1419  0.8345 -1.2349
   38MOL0     C 5015   0.013   3.801   0.797 -0.5482 -0.0799 -0.1286
   38MOL0     C 5016  -0.018   3.853   0.940 -0.1678 -0.0060 -0.3537
   38MOL0     C 5017  -0.167   3.844   0.988 -0.0766  0.3787 -0.1361
   38MOL0     C 5018  -0.197   3.689   1.007  0.5038 -1.0982  0.1562
   38MOL0     O 5019  -0.334   3.664   1.040  1.3863 -0.6512  0.9705
   38MOL0     C 5020  -0.384   3.530   1.047 -0.0590  0.2614  0.5096
   38MOL0     C 5021  -0.524   3.519   1.059  0.3145  0.0829  1.5575
   38MOL0     C 5022  -0.573   3.388   1.070  0.1697 -0.1275 -0.8469
   38MOL0     C 5023  -0.490   3.268   1.065  0.3007  0.4563 -0.5036
   38MOL0     C 5024  -0.556   3.127   1.061  0.3501 -1.0511  0.0176
   38MOL0     O 5025  -0.689   3.127   1.038 -0.7605  0.1337  0.3414
   38MOL0     C 5026  -0.735   3.039   0.942  0.6339 -0.6034  0.1027
   38MOL0     C 5027  -0.869   3.018   0.947  0.4444 -0.3413 -0.3108
   38MOL0     C 5028  -0.932   2.921   0.870  0.2439 -0.7922 -0.7390
   38MOL0     C 5029  -0.855   2.842   0.789 -0.2231 -0.0379 -0.1661
   38MOL0     O 5030  -0.892   2.724   0.718 -0.3056 -0.2828 -0.0793
   38MOL0     C 5031  -1.023   2.683   0.719 -0.1015  0.3188  0.1533
   38MOL0     C 5032  -1.110   2.783   0.635 -1.2610  0.1024  1.1057
   38MOL0     C 5033  -1.251   2.729   0.646  0.1205 -0.7570  0.2261
   38MOL0     C 5034  -1.374   2.825   0.625  0.1874  0.2358  0.5363
   38MOL0     C 5035  -1.387   2.906   0.494  1.0038  0.9868 -0.0902
   38MOL0     C 5036  -1.291   3.026   0.487  1.0611  0.5132 -0.2998
   38MOL0     C 5037  -1.364   3.145   0.410 -0.6923  0.5305  0.6472
   38MOL0     C 5038  -1.279   3.268   0.371  0.3344 -0.6452  0.8145
   38MOL0    Cl 5039  -1.137   3.225   0.270  0.3432 -0.0822  0.2060
   38MOL0     C 5040  -0.720   2.870   0.772  0.4052 -0.1225 -0.5106
   38MOL0     C 5041  -0.656   2.969   0.848 -0.2223  0.2433 -0.0516
   38MOL0     O 5042  -0.479   3.032   1.082 -0.2424  0.2045  0.4349
   38MOL0     C 5043  -0.355   3.281   1.061  0.7219 -0.9815 -0.0049
   38MOL0     C 5044  -0.302   3.409   1.055 -0.4240 -0.9516  0.5977
   38MOL0     N 5045   0.252   3.910   0.757  0.2842  0.1497  0.1046
   38MOL0     N 5046   0.290   3.994   0.664  0.1614 -0.0208 -0.8750
   38MOL0     C 5047   0.640   4.657   0.674 -0.5841 -0.4624 -0.7295
   38MOL0     C 5048   0.675   4.671   0.808 -0.3896  0.2722  0.9762
   38MOL0     C 5049   0.740   4.864   1.226 -0.2352 -0.2078  0.3133
   38MOL0     C 5050   0.871   4.907   1.267 -0.7755  0.1105 -0.4441
   38MOL0     C 5051   0.908   4.909   1.403  0.1557  0.0257 -0.4582
   38MOL0     C 5052   0.815   4.856   1.502  0.5598 -0.2300  0.4433
   38MOL0     O 5053   0.840   4.852   1.637 -0.1529 -0.8409 -0.4183
   38MOL0     C 5054   0.744   4.826   1.747  0.3269 -0.7043 -0.1219
   38MOL0     C 5055   0.646   4.941   1.771 -1.0559  0.1895 -0.3342
   38MOL0     C 5056   0.545   4.916   1.883  0.0055 -0.0899 -0.8611
   38MOL0     C 5057   0.459   5.045   1.909 -0.1681 -0.2966  0.2922
   38MOL0     C 5058   0.333   5.013   1.975 -0.3685  0.0144  0.6714
   38MOL0     C 5059   0.224   5.006   2.021  1.0241  0.5452  0.5321
   38MOL0     C 5060   0.685   4.816   1.452 -0.3313  0.6327 -0.5108
   38MOL0     C 5061   0.647   4.819   1.320 -0.5907 -0.0562  0.3880
   38MOL0     C 5062   0.513   4.757   1.298  0.8844  0.3611 -0.0446
   38MOL0     H 5063   0.445   4.885   0.922  2.3715  3.2208 -0.6479
   38MOL0     H 5064   0.371   4.866   0.665 -3.6132 -3.5449 -0.5220
   38MOL0     H 5065   0.642   4.673   0.397 -0.9858  2.3216 -0.0410
   38MOL0     H 5066   0.541   4.537   0.437  0.9473  1.9223  1.1179
   38MOL0     H 5067   0.541   4.613   0.194  0.1771  0.2347 -0.5383
   38MOL0     H 5068   0.474   4.759   0.232 -0.5921 -0.2520 -2.7004
   38MOL0     H 5069   0.283   4.642   0.153  0.1908 -0.0435  0.6262
   38MOL0     H 5070   0.254   4.683   0.319  0.9837  2.6546 -1.3672
   38MOL0     H 5071   0.246   4.408   0.232 -3.0032  0.3786  3.9588
   38MOL0     H 5072   0.406   4.433   0.288  0.5450  0.5354 -0.5309
   38MOL0     H 5073   0.219   4.549   0.487 -1.4409 -0.3337  1.1617
   38MOL0     H 5074   0.120   4.449   0.400  0.2484  2.9799  0.1727
   38MOL0     H 5075   0.370   4.401   0.564 -1.0129  1.4617  0.5030
   38MOL0     H 5076   0.221   4.322   0.612 -0.6455  1.5922  1.5322
   38MOL0     H 5077   0.392   4.170   0.516 -1.0148  1.0502  0.0444
   38MOL0     H 5078   0.350   4.239   0.349 -0.8696  2.1181 -0.0225
   38MOL0     H 5079   0.121   4.152   0.418  0.5494  1.6046  1.9065
   38MOL0     H 5080   0.246   4.033   0.370 -1.3639 -0.0333 -0.3418
   38MOL0     H 5081  -0.016   3.953   0.570  0.1123 -4.2413  0.8953
   38MOL0     H 5082  -0.083   3.821   0.748 -1.2588 -0.4956  1.0797
   38MOL0     H 5083   0.038   3.696   0.779 -1.5401 -0.5438  1.0630
   38MOL0     H 5084   0.042   3.802   1.016 -1.3754 -1.8237 -0.5516
   38MOL0     H 5085   0.012   3.958   0.934 -1.9110  0.4491 -2.9278
   38MOL0     H 5086  -0.231   3.891   0.912  1.0087  0.9577 -0.7230
   38MOL0     H 5087  -0.196   3.894   1.082 -2.6794 -0.0287 -0.6344
   38MOL0     H 5088  -0.129   3.651   1.084  0.4864 -2.2078 -0.3427
   38MOL0     H 5089  -0.184   3.643   0.908 -2.0989 -0.5179 -0.5259
   38MOL0     H 5090  -0.584   3.610   1.057  0.8085  0.3964 -0.8733
   38MOL0     H 5091  -0.679   3.366   1.075  0.0377  0.6640  0.6195
   38MOL0     H 5092  -0.932   3.072   1.017 -0.2114 -0.0286 -1.1265
   38MOL0     H 5093  -1.038   2.895   0.864  0.4667 -1.9882  0.1447
   38MOL0     H 5094  -1.034   2.580   0.683  3.0928  0.2955 -1.0896
   38MOL0     H 5095  -1.053   2.684   0.824 -2.9757  1.3369 -0.6036
   38MOL0     H 5096  -1.114   2.886   0.674  3.5692 -0.7997  5.0472
   38MOL0     H 5097  -1.067   2.785   0.535 -0.7884  0.1586  1.3110
   38MOL0     H 5098  -1.253   2.650   0.570 -0.7587 -0.2370 -0.3093
   38MOL0     H 5099  -1.269   2.669   0.735  0.9856 -3.1942 -1.1313
   38MOL0     H 5100  -1.377   2.894   0.710  0.7916 -1.6967  2.2194
   38MOL0     H 5101  -1.463   2.762   0.621  0.8156 -0.9798  3.3022
   38MOL0     H 5102  -1.495   2.921   0.488  0.1859 -1.4143  4.3921
   38MOL0     H 5103  -1.367   2.840   0.409  1.6586 -0.6085  1.2562
   38MOL0     H 5104  -1.263   3.056   0.589 -0.7207 -0.1496  0.4320
   38MOL0     H 5105  -1.203   2.991   0.433  0.2468 -1.2270 -0.5628
   38MOL0     H 5106  -1.453   3.177   0.465 -0.3448  0.2800  1.3840
   38MOL0     H 5107  -1.397   3.092   0.321  4.2139 -2.2068  0.0756
   38MOL0     H 5108  -1.337   3.339   0.311  0.6745 -1.0127  0.0420
   38MOL0     H 5109  -1.238   3.316   0.460  4.4298 -2.9047  0.4016
   38MOL0     H 5110  -0.654   2.823   0.700  1.5206  0.5956  0.0020
   38MOL0     H 5111  -0.552   2.985   0.820  0.0222  1.8397  1.5789
   38MOL0     H 5112  -0.290   3.195   1.054  1.7999 -0.1003 -1.2020
   38MOL0     H 5113  -0.195   3.426   1.050 -0.6145  0.2857  0.2867
   38MOL0     H 5114   0.707   4.590   0.620  2.0228 -0.8470  2.6260
   38MOL0     H 5115   0.758   4.621   0.859 -1.0279 -2.3251 -0.3510
   38MOL0     H 5116   0.954   4.932   1.202  0.1560  1.2149  1.1011
   38MOL0     H 5117   1.006   4.945   1.432  0.5112 -1.4863  0.3235
   38MOL0     H 5118   0.796   4.813   1.842  1.0114  1.9574 -0.0709
   38MOL0     H 5119   0.682   4.739   1.723 -2.3006  1.1358 -0.3669
   38MOL0     H 5120   0.608   4.961   1.670  0.4565  0.0819 -0.9663
   38MOL0     H 5121   0.709   5.024   1.804  3.5389 -4.3641  4.1351
   38MOL0     H 5122   0.612   4.898   1.967 -1.3817  4.9798  1.7462
   38MOL0     H 5123   0.478   4.832   1.864 -1.5180  1.3923 -2.3898
   38MOL0     H 5124   0.509   5.109   1.981  1.5290 -0.2484 -0.8734
   38MOL0     H 5125   0.448   5.108   1.820 -0.7224  1.5972  1.6424
   38MOL0     H 5126   0.124   5.010   2.058  1.3559 -0.1478  1.5482
   38MOL0     H 5127   0.618   4.772   1.526  0.3018  1.4783  0.6032
   38MOL0     H 5128   0.497   4.674   1.367 -0.6625  2.4137  2.2635
   38MOL0     H 5129   0.438   4.834   1.318 -0.8949 -0.4271 -2.9852
   38MOL0     H 5130   0.485   4.725   1.197  0.9621  2.9831 -0.9885
   39MOL0     O 5131   9.239   8.508   2.845 -0.7152  0.1646 -0.1982
   39MOL0     C 5132   9.249   8.613   2.915 -0.0834  0.2264  0.2679
   39MOL0     O 5133   9.367   8.653   2.981  0.2935  0.1455 -0.5210
   39MOL0     C 5134   9.475   8.581   2.957  0.0808 -0.8037 -0.1842
   39MOL0     C 5135   9.536   8.575   2.833  0.6197 -0.3338 -0.3888
   39MOL0     C 5136   9.664   8.519   2.814  0.8635 -0.2838 -0.1305
   39MOL0     C 5137   9.733   8.465   2.920  0.1760 -0.1707  0.1807
   39MOL0     O 5138   9.853   8.406   2.917 -0.3170 -0.4874 -0.7653
   39MOL0     C 5139   9.945   8.470   2.819  0.1199  0.0595 -0.6077
   39MOL0     C 5140  10.088   8.484   2.885 -0.9628 -1.2153 -0.7028
   39MOL0     C 5141  10.071   8.592   3.002 -0.4894  0.2388  0.0909
   39MOL0     C 5142  10.205   8.620   3.084  0.8467  0.2395  0.0317
   39MOL0     C 5143  10.334   8.636   3.002 -0.6936  0.1754 -0.1704
   39MOL0     C 5144  10.342   8.757   2.911 -0.1232  0.3768 -0.1347
   39MOL0     C 5145  10.462   8.754   2.825 -0.7283 -0.4787  0.2322
   39MOL0     C 5146  10.593   8.794   2.905  0.7046 -0.1189 -0.6048
   39MOL0     N 5147  10.707   8.829   2.818 -0.2744  0.1034 -0.4598
   39MOL0     C 5148  10.722   8.781   2.688  0.0945 -0.2088 -0.2108
   39MOL0     C 5149  10.825   8.864   2.641  0.8363  0.0206 -0.3492
   39MOL0     C 5150  10.879   8.863   2.499  0.7432  0.4235 -1.2304
   39MOL0     C 5151  11.023   8.822   2.501  1.0960 -1.2614  0.4368
   39MOL0     C 5152  11.054   8.676   2.492 -0.3027  1.4968 -0.2380
   39MOL0     C 5153  11.197   8.632   2.492 -0.2593 -0.3655  0.2126
   39MOL0     O 5154  11.290   8.680   2.387  0.1273  0.2008  0.2463
   39MOL0     C 5155  11.422   8.646   2.389  0.5091 -0.2317 -0.4092
   39MOL0     C 5156  11.488   8.628   2.271 -0.7424 -0.3111 -0.4035
   39MOL0     C 5157  11.622   8.610   2.272 -0.0736  1.0072 -0.2257
   39MOL0     C 5158  11.705   8.596   2.384 -0.4235  0.8300  0.1153
   39MOL0     C 5159  11.848   8.573   2.378  0.1697  0.5463  0.8630
   39MOL0     O 5160  11.913   8.494   2.469 -0.5080 -0.2273  0.1070
   39MOL0     C 5161  12.045   8.474   2.442  0.2409 -0.3732  0.5469
   39MOL0     C 5162  12.080   8.395   2.333 -0.8668  0.7180  0.7896
   39MOL0     C 5163  12.210   8.372   2.312 -0.4259 -0.7901  0.1899
   39MOL0     C 5164  12.312   8.442   2.383 -0.5848  0.0221 -0.3657
   39MOL0     O 5165  12.445   8.416   2.379  0.4502  0.2503  0.2147
   39MOL0     C 5166  12.489   8.282   2.359 -0.5952 -0.9240 -0.4440
   39MOL0     C 5167  12.626   8.260   2.413 -0.4095  0.2334  0.5238
   39MOL0     C 5168  12.661   8.338   2.535  0.5625 -0.0900 -0.2610
   39MOL0     C 5169  12.555   8.324   2.655 -0.0286 -0.9355  0.0365
   39MOL0     C 5170  12.594   8.400   2.776  0.3155 -0.3177 -0.6083
   39MOL0     C 5171  12.573   8.556   2.756 -0.9555  0.4108  0.2016
   39MOL0     C 5172  12.586   8.635   2.884  0.5900 -0.0151 -0.4261
   39MOL0     C 5173  12.720   8.612   2.959  0.0149  0.5956  0.0571
   39MOL0    Cl 5174  12.737   8.737   3.089  0.2461  0.2929  0.1147
   39MOL0     C 5175  12.276   8.533   2.487  0.2901 -0.6127  0.2820
   39MOL0     C 5176  12.140   8.545   2.523  0.0614  0.3486  1.0946
   39MOL0     O 5177  11.898   8.626   2.283 -0.6853  0.4411  0.2595
   39MOL0     C 5178  11.639   8.603   2.511  0.1492 -0.4526 -0.2823
   39MOL0     C 5179  11.495   8.628   2.511 -0.1472  0.2650  0.0924
   39MOL0     N 5180  10.877   8.948   2.742  0.7086  0.6954  0.2921
   39MOL0     N 5181  10.805   8.925   2.847 -0.3799 -0.1148  0.3709
   39MOL0     C 5182   9.669   8.471   3.049  0.6067 -0.0342  0.2599
   39MOL0     C 5183   9.539   8.510   3.062 -0.3505 -0.8702  0.3449
   39MOL0     C 5184   9.114   8.678   2.924  0.2326  0.0503  0.2120
   39MOL0     C 5185   9.064   8.711   3.050  0.5488 -0.0291  0.2002
   39MOL0     C 5186   8.929   8.775   3.064 -0.0974  0.1685 -1.2231
   39MOL0     C 5187   8.841   8.785   2.963 -0.7326 -0.0061  0.3196
   39MOL0     O 5188   8.721   8.846   2.967 -0.4272 -0.1898 -0.3835
   39MOL0     C 5189   8.680   8.910   3.088  0.8270  0.0242 -0.0509
   39MOL0     C 5190   8.542   8.962   3.039 -0.1459  0.7182  0.2109
   39MOL0     C 5191   8.452   8.984   3.163  0.8868  0.0223 -0.6991
   39MOL0     C 5192   8.310   9.023   3.108  0.1761 -0.6934  0.1225
   39MOL0     C 5193   8.228   9.088   3.209  0.1894  0.0676  1.2904
   39MOL0     C 5194   8.183   9.174   3.285 -0.2993  0.5512  0.8807
   39MOL0     C 5195   8.887   8.749   2.837  0.9223  0.0868 -0.3232
   39MOL0     C 5196   9.017   8.699   2.813 -1.0213  0.1583 -0.3774
   39MOL0     C 5197   9.048   8.651   2.664  0.5493 -0.2824 -0.6932
   39MOL0     H 5198   9.478   8.623   2.754  1.9596 -2.0391 -2.5539
   39MOL0     H 5199   9.700   8.515   2.711 -1.7505 -3.1721 -1.0940
   39MOL0     H 5200   9.949   8.419   2.722 -0.7298  3.5250 -2.6362
   39MOL0     H 5201   9.915   8.571   2.787 -0.6913  0.4951  1.4000
   39MOL0     H 5202  10.158   8.514   2.806  0.9727  2.9011  2.2127
   39MOL0     H 5203  10.120   8.385   2.919  0.8317  0.6806  3.9894
   39MOL0     H 5204   9.997   8.558   3.075 -1.4688  2.2162  0.0820
   39MOL0     H 5205  10.037   8.688   2.963  0.3624  0.3053 -0.5242
   39MOL0     H 5206  10.191   8.717   3.134  0.3638 -0.3198  1.0069
   39MOL0     H 5207  10.214   8.543   3.161  1.7394  0.7979  0.5035
   39MOL0     H 5208  10.413   8.656   3.075  0.2288  0.5960 -1.2556
   39MOL0     H 5209  10.359   8.542   2.952 -1.1470 -0.4459  0.7329
   39MOL0     H 5210  10.260   8.758   2.838 -0.9125 -1.0380  0.6893
   39MOL0     H 5211  10.333   8.850   2.967 -2.5005  0.4934 -0.6311
   39MOL0     H 5212  10.452   8.839   2.756 -2.0322  0.2187  1.2329
   39MOL0     H 5213  10.473   8.659   2.772 -0.0971 -0.1435 -0.2591
   39MOL0     H 5214  10.564   8.877   2.969 -1.1741  0.7038 -2.4021
   39MOL0     H 5215  10.615   8.710   2.971 -1.3405 -0.5481 -0.3959
   39MOL0     H 5216  10.671   8.701   2.636  2.1856 -2.0362  0.3960
   39MOL0     H 5217  10.819   8.794   2.439 -0.9957  0.8025  0.0172
   39MOL0     H 5218  10.861   8.963   2.459 -2.6967  0.2687 -0.3333
   39MOL0     H 5219  11.056   8.866   2.406 -0.8271 -1.0338 -0.1526
   39MOL0     H 5220  11.075   8.870   2.585 -0.4302 -2.5379  2.1675
   39MOL0     H 5221  11.010   8.629   2.403 -1.1897  0.0069  0.9289
   39MOL0     H 5222  11.001   8.635   2.579  1.3801 -1.4574 -0.4734
   39MOL0     H 5223  11.190   8.523   2.492 -0.9291 -0.3259 -0.3409
   39MOL0     H 5224  11.242   8.665   2.586  2.5249 -2.5560 -0.2119
   39MOL0     H 5225  11.440   8.651   2.176  1.0134  3.2034 -0.6356
   39MOL0     H 5226  11.675   8.615   2.178  0.5507 -1.4850 -0.0863
   39MOL0     H 5227  11.997   8.350   2.278 -1.8025  2.2623  0.8745
   39MOL0     H 5228  12.250   8.304   2.237  1.6574  0.8015 -0.2329
   39MOL0     H 5229  12.419   8.214   2.408  0.4656 -2.5917 -1.1474
   39MOL0     H 5230  12.485   8.258   2.252  2.5664  2.4763 -1.5369
   39MOL0     H 5231  12.630   8.153   2.434 -0.4813  0.2961  0.8525
   39MOL0     H 5232  12.704   8.284   2.339 -0.2199  2.1522  1.2808
   39MOL0     H 5233  12.756   8.313   2.584 -1.4341 -1.4409  3.3150
   39MOL0     H 5234  12.666   8.439   2.492  1.2756 -0.7833 -1.8994
   39MOL0     H 5235  12.548   8.217   2.677 -1.5318 -1.7414 -3.6484
   39MOL0     H 5236  12.459   8.354   2.611  1.1580  0.3929 -1.7926
   39MOL0     H 5237  12.702   8.394   2.792  0.8672  2.1299 -2.8018
   39MOL0     H 5238  12.541   8.362   2.864 -0.1603 -1.1386 -1.2402
   39MOL0     H 5239  12.649   8.593   2.687 -1.0955 -1.6966 -1.1520
   39MOL0     H 5240  12.478   8.573   2.706 -1.5672  0.2791  1.2819
   39MOL0     H 5241  12.503   8.606   2.950  0.3475  1.1904 -0.1749
   39MOL0     H 5242  12.570   8.738   2.854 -1.6570 -1.0214 -3.0927
   39MOL0     H 5243  12.730   8.515   3.010  0.0147 -0.2815 -1.5271
   39MOL0     H 5244  12.799   8.622   2.884 -2.0606 -0.0512 -2.3572
   39MOL0     H 5245  12.356   8.578   2.545  1.6299  0.2964 -2.1540
   39MOL0     H 5246  12.107   8.606   2.606  2.6657  0.1560  2.3606
   39MOL0     H 5247  11.700   8.589   2.600  1.6834 -3.1337 -1.6348
   39MOL0     H 5248  11.455   8.633   2.611  0.4269 -1.0622  0.4136
   39MOL0     H 5249   9.718   8.440   3.141 -1.0227 -3.4301  0.1316
   39MOL0     H 5250   9.504   8.530   3.163 -0.2459  0.7659  0.0868
   39MOL0     H 5251   9.127   8.697   3.137  1.5993 -2.1566 -0.8254
   39MOL0     H 5252   8.888   8.812   3.157 -0.3050  0.1723 -1.3163
   39MOL0     H 5253   8.751   8.988   3.118  4.8372 -3.1010 -0.5367
   39MOL0     H 5254   8.670   8.844   3.174  1.9360 -0.0110  0.0713
   39MOL0     H 5255   8.487   8.899   2.967 -3.1097  1.2740  1.8168
   39MOL0     H 5256   8.567   9.056   2.989  0.6337  1.0209  1.1531
   39MOL0     H 5257   8.483   9.060   3.235 -0.5615 -1.7195  1.9604
   39MOL0     H 5258   8.453   8.888   3.217  0.9750  0.4115  0.0044
   39MOL0     H 5259   8.330   9.089   3.022 -0.6225 -2.5909 -1.6122
   39MOL0     H 5260   8.260   8.935   3.066  0.6712 -1.5886  1.3759
   39MOL0     H 5261   8.146   9.247   3.354 -0.9897  0.8284  0.2389
   39MOL0     H 5262   8.822   8.778   2.756  2.6481  3.5261 -0.6508
   39MOL0     H 5263   8.962   8.683   2.604 -0.8701 -1.9546  0.3344
   39MOL0     H 5264   9.138   8.695   2.621  1.4286 -2.3072 -1.0328
   39MOL0     H 5265   9.048   8.542   2.651 -0.3992 -0.9470  3.4640
   40MOL0     O 5266   3.124   1.949   3.002 -0.2835  0.2757 -0.3616
   40MOL0     C 5267   3.165   2.028   3.086  0.1542 -0.3312  0.0644
   40MOL0     O 5268   3.183   2.169   3.062 -0.2837 -0.0417  1.0213
   40MOL0     C 5269   3.119   2.228   2.955 -0.1623  0.3714 -0.1741
   40MOL0     C 5270   3.167   2.349   2.922  0.3116  0.4088  0.3182
   40MOL0     C 5271   3.093   2.434   2.839 -0.1854 -1.2934  0.4010
   40MOL0     C 5272   2.972   2.390   2.781  0.3818 -0.4743  1.2024
   40MOL0     O 5273   2.895   2.464   2.692  0.6445  0.1837  0.5053
   40MOL0     C 5274   2.941   2.592   2.653  0.8037  0.0662 -0.1461
   40MOL0     C 5275   2.856   2.630   2.526 -0.0374 -0.5571  0.3436
   40MOL0     C 5276   2.910   2.763   2.485  0.6785  0.3142  0.1790
   40MOL0     C 5277   2.829   2.804   2.370  0.0339  1.2972 -0.7118
   40MOL0     C 5278   2.824   2.956   2.355  0.3324 -0.2154 -0.5593
   40MOL0     C 5279   2.709   3.013   2.279  0.0015  0.3770 -0.7244
   40MOL0     C 5280   2.715   3.165   2.283  1.0246 -0.4177  0.1580
   40MOL0     C 5281   2.611   3.233   2.185 -0.9181 -0.0590 -0.4433
   40MOL0     N 5282   2.650   3.201   2.045 -0.6436 -0.2285  1.2028
   40MOL0     C 5283   2.567   3.128   1.960 -0.1421  0.2533  0.5886
   40MOL0     C 5284   2.640   3.107   1.850  0.1944  1.1232  0.2673
   40MOL0     C 5285   2.614   3.031   1.722  0.8866 -0.2879 -0.7658
   40MOL0     C 5286   2.462   3.036   1.670  0.1371  0.0084 -0.7767
   40MOL0     C 5287   2.438   3.178   1.610 -0.8518  0.3784  1.4944
   40MOL0     C 5288   2.297   3.199   1.548 -0.5702 -0.0389  0.7323
   40MOL0     O 5289   2.280   3.110   1.438 -0.3834  0.5799 -0.4831
   40MOL0     C 5290   2.182   3.131   1.344 -0.2059 -0.0637  0.3780
   40MOL0     C 5291   2.217   3.076   1.218 -0.7453 -1.4117  0.2621
   40MOL0     C 5292   2.112   3.075   1.117 -0.2843 -0.6123 -0.5741
   40MOL0     C 5293   1.992   3.130   1.136  1.2653  0.4180 -0.1117
   40MOL0     C 5294   1.897   3.127   1.023  0.6849 -0.0667 -0.5259
   40MOL0     O 5295   1.791   3.223   1.029 -0.1258  0.7601  0.7591
   40MOL0     C 5296   1.701   3.236   0.929 -0.2985 -0.0019  0.2317
   40MOL0     C 5297   1.657   3.367   0.905 -0.2139 -0.5108 -0.8103
   40MOL0     C 5298   1.553   3.394   0.820  0.5813  0.1080  0.2490
   40MOL0     C 5299   1.488   3.293   0.748  0.0811  0.6080  0.9341
   40MOL0     O 5300   1.380   3.325   0.671  0.6350  0.6895 -0.8066
   40MOL0     C 5301   1.371   3.261   0.542 -0.2178  0.6554  0.6461
   40MOL0     C 5302   1.487   3.301   0.449  0.1650 -0.8323 -0.3403
   40MOL0     C 5303   1.508   3.448   0.458  0.0844 -0.8277 -0.8409
   40MOL0     C 5304   1.587   3.495   0.335 -0.3447  0.2952  0.5404
   40MOL0     C 5305   1.587   3.646   0.329  0.6462  0.1905  0.2375
   40MOL0     C 5306   1.680   3.711   0.423 -0.5501  0.9015 -0.6136
   40MOL0     C 5307   1.701   3.866   0.434 -0.7920  0.3735  0.1558
   40MOL0     C 5308   1.800   3.912   0.329 -0.0703  0.1021  0.1856
   40MOL0    Cl 5309   1.968   3.893   0.389 -0.2606 -0.1739  0.0942
   40MOL0     C 5310   1.543   3.161   0.762 -1.1448 -0.4512  0.2169
   40MOL0     C 5311   1.647   3.138   0.852 -0.2019 -0.0439 -0.3793
   40MOL0     O 5312   1.924   3.058   0.923 -0.4072 -0.6882 -0.2976
   40MOL0     C 5313   1.968   3.192   1.264  0.2071 -0.0704  0.0524
   40MOL0     C 5314   2.060   3.184   1.367 -0.3177  0.7824 -0.3350
   40MOL0     N 5315   2.763   3.171   1.866  0.2044  0.6653  0.4195
   40MOL0     N 5316   2.772   3.227   1.983  0.3916  0.7120 -0.0967
   40MOL0     C 5317   2.919   2.274   2.823 -0.0470  0.1362 -0.3266
   40MOL0     C 5318   2.993   2.191   2.915 -0.3463  0.2973  0.5599
   40MOL0     C 5319   3.210   1.972   3.214  0.6168 -1.0594 -0.3276
   40MOL0     C 5320   3.314   2.045   3.287 -0.0219  0.5735  0.1235
   40MOL0     C 5321   3.362   1.990   3.401 -0.3586  0.3024  0.5416
   40MOL0     C 5322   3.278   1.899   3.472 -0.7296  0.2835  0.2147
   40MOL0     O 5323   3.316   1.872   3.607  0.8398  1.0601 -0.5511
   40MOL0     C 5324   3.245   1.782   3.696  0.5162 -0.6866 -0.0106
   40MOL0     C 5325   3.142   1.862   3.777 -0.4053  0.6068 -1.6168
   40MOL0     C 5326   3.046   1.966   3.696 -0.1505  0.1711 -0.2702
   40MOL0     C 5327   2.922   1.899   3.646 -0.0489 -0.8056  0.3132
   40MOL0     C 5328   2.844   1.858   3.757 -0.5302  0.6385 -0.9039
   40MOL0     C 5329   2.768   1.811   3.845 -0.0575 -0.1419 -0.2900
   40MOL0     C 5330   3.175   1.839   3.406  0.3419  0.7139  0.7214
   40MOL0     C 5331   3.150   1.862   3.270  0.6313  0.6449 -0.7566
   40MOL0     C 5332   3.049   1.769   3.214  0.0826  0.5879 -0.2456
   40MOL0     H 5333   3.265   2.379   2.956 -0.3663  1.6878  1.2271
   40MOL0     H 5334   3.138   2.528   2.808 -1.2621 -1.5803 -2.3514
   40MOL0     H 5335   2.937   2.672   2.727  0.9048 -0.4869  0.4691
   40MOL0     H 5336   3.043   2.574   2.618  0.2917 -0.9425 -1.1940
   40MOL0     H 5337   2.752   2.640   2.556 -0.3579  3.4736 -1.4423
   40MOL0     H 5338   2.866   2.567   2.437 -4.3706  2.1640 -2.4471
   40MOL0     H 5339   3.012   2.751   2.448  0.0400 -0.5291 -1.3993
   40MOL0     H 5340   2.897   2.828   2.572 -2.2533  2.8797 -1.9345
   40MOL0     H 5341   2.864   2.755   2.279  1.4425  1.9275 -0.5325
   40MOL0     H 5342   2.725   2.771   2.376  0.1636  1.1518  1.6812
   40MOL0     H 5343   2.842   3.000   2.454  3.0886  2.7100 -2.1556
   40MOL0     H 5344   2.904   3.007   2.300 -0.6634  4.2601  1.6348
   40MOL0     H 5345   2.709   2.980   2.175 -4.7246  0.3996 -0.9760
   40MOL0     H 5346   2.611   2.983   2.317 -0.6801 -0.8459 -3.2102
   40MOL0     H 5347   2.817   3.188   2.252  0.3277  0.1661 -1.8887
   40MOL0     H 5348   2.686   3.207   2.379  0.9237 -1.4571  0.6008
   40MOL0     H 5349   2.520   3.180   2.214 -0.1893 -0.3366  1.4587
   40MOL0     H 5350   2.608   3.339   2.213  1.5374  0.0906 -0.5170
   40MOL0     H 5351   2.466   3.097   1.986 -0.1394 -0.5868 -0.3350
   40MOL0     H 5352   2.677   3.063   1.638 -0.9258 -0.5472 -2.2902
   40MOL0     H 5353   2.628   2.930   1.761 -2.1157 -1.7608 -3.1196
   40MOL0     H 5354   2.438   2.967   1.588 -1.8464 -1.5661  1.0026
   40MOL0     H 5355   2.397   3.015   1.756  1.2574  3.0802  0.9613
   40MOL0     H 5356   2.510   3.189   1.528 -0.1315  0.5646  2.1444
   40MOL0     H 5357   2.448   3.258   1.683 -3.7150  2.5892 -0.3373
   40MOL0     H 5358   2.289   3.298   1.501 -2.6425 -0.0814  0.9198
   40MOL0     H 5359   2.226   3.181   1.629 -0.9110 -1.9901  0.0389
   40MOL0     H 5360   2.317   3.038   1.202  1.2064  2.8193  0.9555
   40MOL0     H 5361   2.132   3.033   1.020 -0.3025 -1.6301 -0.1430
   40MOL0     H 5362   1.704   3.449   0.959 -1.1187  1.1541 -2.4483
   40MOL0     H 5363   1.522   3.496   0.799  0.1691 -0.5187 -2.6554
   40MOL0     H 5364   1.359   3.152   0.548 -0.5648  0.6725  0.3262
   40MOL0     H 5365   1.272   3.296   0.510 -0.3826  0.4571  0.9288
   40MOL0     H 5366   1.583   3.258   0.480  1.1845  0.4052 -1.6248
   40MOL0     H 5367   1.460   3.269   0.347  0.2160 -3.3134  0.3563
   40MOL0     H 5368   1.414   3.503   0.467  0.5407 -0.2965  0.8590
   40MOL0     H 5369   1.567   3.472   0.546 -1.1289  0.0744 -0.2427
   40MOL0     H 5370   1.542   3.455   0.244 -2.2713  0.3891  1.4184
   40MOL0     H 5371   1.687   3.451   0.329 -0.8242 -0.9023  1.0555
   40MOL0     H 5372   1.483   3.676   0.348 -0.5771 -2.8936 -0.9280
   40MOL0     H 5373   1.599   3.687   0.228 -2.0852  3.0972  0.9004
   40MOL0     H 5374   1.662   3.672   0.524  3.5714 -0.6249 -0.2609
   40MOL0     H 5375   1.778   3.668   0.401 -0.5165  0.5227  0.2099
   40MOL0     H 5376   1.761   3.880   0.525 -0.6641  0.6779  0.0256
   40MOL0     H 5377   1.607   3.921   0.434 -0.0750  1.7426 -2.0057
   40MOL0     H 5378   1.774   3.872   0.231  2.0115 -2.6287  0.6290
   40MOL0     H 5379   1.789   4.020   0.316  0.9039  0.0985 -0.8021
   40MOL0     H 5380   1.499   3.076   0.710  2.6727 -2.7128  0.3199
   40MOL0     H 5381   1.676   3.034   0.860  2.8206  0.2618 -4.1907
   40MOL0     H 5382   1.877   3.250   1.269 -1.7326 -2.8998  0.1656
   40MOL0     H 5383   2.029   3.223   1.463 -3.7179  1.7074 -1.6753
   40MOL0     H 5384   2.821   2.239   2.791 -1.5147 -0.6939  4.2728
   40MOL0     H 5385   2.947   2.099   2.950  3.2005  0.1150  5.7833
   40MOL0     H 5386   3.366   2.134   3.254  3.2122 -1.9954 -2.4381
   40MOL0     H 5387   3.454   2.038   3.433 -0.3382  1.3707 -1.0446
   40MOL0     H 5388   3.309   1.747   3.778  1.8593 -0.3266 -0.8709
   40MOL0     H 5389   3.188   1.705   3.642  1.2127  0.9546 -3.3544
   40MOL0     H 5390   3.201   1.913   3.853  1.1266 -1.4765 -1.3362
   40MOL0     H 5391   3.079   1.797   3.837 -0.0332  1.6460 -0.0336
   40MOL0     H 5392   3.099   2.011   3.611  1.5523  2.5753  1.8986
   40MOL0     H 5393   3.026   2.049   3.764 -0.5044 -0.6752  0.6826
   40MOL0     H 5394   2.867   1.977   3.594  3.0983  0.2121 -1.8049
   40MOL0     H 5395   2.947   1.818   3.577  0.6546  0.9459 -1.5801
   40MOL0     H 5396   2.710   1.757   3.918  0.6945 -0.4830  0.0586
   40MOL0     H 5397   3.121   1.751   3.440  0.8522  0.3670  0.6485
   40MOL0     H 5398   3.086   1.734   3.117  1.1061 -1.0103  0.6825
   40MOL0     H 5399   3.030   1.679   3.273 -2.8296 -0.0076 -1.9096
   40MOL0     H 5400   2.950   1.814   3.200 -0.3657  0.0997  1.1712
   41MOL0     O 5401   7.230   0.443   0.085 -0.3086 -0.4996  0.0768
   41MOL0     C 5402   7.198   0.442  -0.038 -0.1018  0.0618  0.1927
   41MOL0     O 5403   7.235   0.346  -0.125 -1.1904 -0.7341 -0.3757
   41MOL0     C 5404   7.338   0.266  -0.074  0.1072  0.1391 -0.4476
   41MOL0     C 5405   7.320   0.136  -0.038  0.6985  0.4938  0.0550
   41MOL0     C 5406   7.422   0.056   0.005 -0.7252 -0.1022  0.7240
   41MOL0     C 5407   7.556   0.106   0.006  0.4955 -0.0180  0.3623
   41MOL0     O 5408   7.648   0.018   0.043 -0.2438  0.5006 -0.3297
   41MOL0     C 5409   7.786   0.045  -0.009 -0.1588  0.2344 -0.1862
   41MOL0     C 5410   7.872  -0.064   0.032 -0.6639  0.2655  0.7232
   41MOL0     C 5411   7.829  -0.198  -0.034 -0.3274  0.1747  0.3151
   41MOL0     C 5412   7.944  -0.301  -0.017 -0.0440 -0.8444  0.5769
   41MOL0     C 5413   7.994  -0.310   0.121 -0.3663 -0.6588 -0.5152
   41MOL0     C 5414   8.101  -0.424   0.137 -0.1375 -0.7613 -0.1400
   41MOL0     C 5415   8.127  -0.451   0.275 -0.3731  0.2226  0.4897
   41MOL0     C 5416   8.018  -0.548   0.338  0.3123  0.4892 -0.6206
   41MOL0     N 5417   8.059  -0.677   0.298 -0.0112  0.1930 -0.3329
   41MOL0     C 5418   8.004  -0.749   0.199 -0.1795  0.5805  0.2542
   41MOL0     C 5419   8.081  -0.856   0.199 -0.0610  1.3048 -0.4729
   41MOL0     C 5420   8.060  -0.981   0.111  1.1158  0.8449  0.1476
   41MOL0     C 5421   8.086  -0.972  -0.045 -0.2168 -0.5185 -0.7638
   41MOL0     C 5422   8.230  -0.922  -0.058  1.0330 -0.5702 -0.2483
   41MOL0     C 5423   8.277  -0.945  -0.195 -0.3114  0.8265 -0.4610
   41MOL0     O 5424   8.195  -0.889  -0.292  0.0844 -0.4675  0.7056
   41MOL0     C 5425   8.192  -0.940  -0.424 -0.2101 -0.6811 -0.0493
   41MOL0     C 5426   8.075  -0.912  -0.496 -0.4667  0.9029 -0.2477
   41MOL0     C 5427   8.047  -0.962  -0.624 -0.6226  1.2622  0.5382
   41MOL0     C 5428   8.150  -1.029  -0.683 -0.4555  1.1390  0.8214
   41MOL0     C 5429   8.126  -1.087  -0.819 -0.1459 -0.1035  1.0649
   41MOL0     O 5430   8.221  -1.165  -0.874  0.3871  0.5918  0.2087
   41MOL0     C 5431   8.194  -1.228  -0.996  0.6306  0.1030  0.0954
   41MOL0     C 5432   8.130  -1.349  -1.015 -0.0355 -0.6651  0.2907
   41MOL0     C 5433   8.120  -1.398  -1.153 -0.0418  0.6100  0.0482
   41MOL0     C 5434   8.169  -1.337  -1.268 -0.2820  0.5679 -0.3004
   41MOL0     O 5435   8.182  -1.395  -1.392  0.4672  0.1919 -0.2237
   41MOL0     C 5436   8.057  -1.419  -1.460 -0.2020 -0.4780  0.4076
   41MOL0     C 5437   8.089  -1.534  -1.553  0.5760 -1.2290  0.1936
   41MOL0     C 5438   8.203  -1.519  -1.659 -0.9707 -0.4890 -0.7731
   41MOL0     C 5439   8.214  -1.384  -1.719  0.7236  0.2836 -0.4088
   41MOL0     C 5440   8.248  -1.398  -1.873  0.4203 -0.0217 -0.7647
   41MOL0     C 5441   8.399  -1.432  -1.886  0.4182  0.5925  0.2146
   41MOL0     C 5442   8.442  -1.412  -2.032 -0.4382  0.4994  0.3037
   41MOL0     C 5443   8.581  -1.337  -2.040 -0.2435 -0.3645  0.3353
   41MOL0    Cl 5444   8.563  -1.166  -2.052 -0.5134  0.3687 -0.2246
   41MOL0     C 5445   8.237  -1.223  -1.236 -0.3929 -0.4746 -0.3451
   41MOL0     C 5446   8.238  -1.166  -1.109  0.2638 -0.4706 -0.2200
   41MOL0     O 5447   8.020  -1.056  -0.875  1.1982  0.4596  0.3461
   41MOL0     C 5448   8.274  -1.046  -0.613 -0.4821 -0.3023 -0.6301
   41MOL0     C 5449   8.292  -1.011  -0.481  0.4165 -0.6273 -0.6901
   41MOL0     N 5450   8.175  -0.850   0.302  0.7592  0.1131 -0.1663
   41MOL0     N 5451   8.166  -0.735   0.350  0.2100  0.3813 -0.2462
   41MOL0     C 5452   7.582   0.237  -0.033  0.2955 -1.0735  0.2186
   41MOL0     C 5453   7.468   0.319  -0.061  1.1734  1.2923 -0.1411
   41MOL0     C 5454   7.107   0.545  -0.094 -0.2998  0.7147  0.3116
   41MOL0     C 5455   7.064   0.522  -0.218 -0.0114  0.5856  0.4837
   41MOL0     C 5456   6.985   0.617  -0.283 -0.0733 -0.6264 -0.4491
   41MOL0     C 5457   6.940   0.727  -0.211 -0.1353 -0.1104 -0.1788
   41MOL0     O 5458   6.856   0.820  -0.263  0.2909  0.1292  0.5159
   41MOL0     C 5459   6.900   0.869  -0.395  0.0472 -0.1543 -0.5685
   41MOL0     C 5460   7.049   0.893  -0.411 -0.1357 -1.2093  0.2476
   41MOL0     C 5461   7.097   0.994  -0.296  0.0518 -0.6915 -0.4463
   41MOL0     C 5462   7.033   1.131  -0.282 -0.2979  0.5325  0.5857
   41MOL0     C 5463   7.040   1.196  -0.413  0.6813  0.2669 -0.5644
   41MOL0     C 5464   7.071   1.238  -0.523 -0.3269  0.3269  0.1441
   41MOL0     C 5465   6.993   0.756  -0.087 -0.3682 -0.0155 -0.0261
   41MOL0     C 5466   7.079   0.664  -0.027 -1.4315 -0.3074 -0.2230
   41MOL0     C 5467   7.123   0.702   0.116 -1.0066 -0.3868  0.5015
   41MOL0     H 5468   7.223   0.093  -0.057  1.8112 -0.7814 -3.6257
   41MOL0     H 5469   7.426  -0.050   0.028 -2.3931 -0.9251 -2.2102
   41MOL0     H 5470   7.790   0.048  -0.118  2.0214 -1.8916 -0.2429
   41MOL0     H 5471   7.824   0.134   0.042  3.5649 -0.4377 -1.4852
   41MOL0     H 5472   7.883  -0.079   0.140 -0.9843  2.3225  1.0789
   41MOL0     H 5473   7.972  -0.048  -0.009 -0.7997 -0.6452  0.0068
   41MOL0     H 5474   7.803  -0.180  -0.139 -0.1469 -1.7197 -0.0768
   41MOL0     H 5475   7.742  -0.228   0.025 -0.9478  3.3804  1.2570
   41MOL0     H 5476   7.909  -0.397  -0.057  0.5339 -0.0041 -2.1201
   41MOL0     H 5477   8.025  -0.269  -0.083 -0.7921 -0.8511 -0.3564
   41MOL0     H 5478   8.037  -0.218   0.162 -3.1002  1.0250 -1.1154
   41MOL0     H 5479   7.908  -0.319   0.189 -1.5079  2.1943 -1.4341
   41MOL0     H 5480   8.048  -0.508   0.090 -1.3395  0.7827 -1.6593
   41MOL0     H 5481   8.192  -0.401   0.082  0.1965  2.7826  1.6428
   41MOL0     H 5482   8.122  -0.352   0.321  1.3511  0.2532  0.6790
   41MOL0     H 5483   8.229  -0.488   0.286 -0.7445 -1.8545 -2.0635
   41MOL0     H 5484   8.008  -0.545   0.447  0.1076 -1.5287 -0.5400
   41MOL0     H 5485   7.915  -0.520   0.314 -0.7498 -1.6418  1.0198
   41MOL0     H 5486   7.915  -0.727   0.141 -0.8520 -0.3295  0.9215
   41MOL0     H 5487   8.119  -1.062   0.153 -2.1273 -2.2472 -0.6892
   41MOL0     H 5488   7.953  -1.005   0.112  1.7141 -2.6511 -2.1289
   41MOL0     H 5489   8.073  -1.075  -0.079  0.3795 -0.8759  0.0517
   41MOL0     H 5490   8.011  -0.912  -0.099 -0.8530 -0.1878  0.4385
   41MOL0     H 5491   8.292  -0.984   0.007  0.8317 -1.4377 -0.8639
   41MOL0     H 5492   8.250  -0.815  -0.044 -1.4461  0.0541 -0.9881
   41MOL0     H 5493   8.283  -1.054  -0.199  0.2088  0.9012 -2.4913
   41MOL0     H 5494   8.380  -0.909  -0.198 -0.0190  0.0662 -4.0306
   41MOL0     H 5495   7.990  -0.863  -0.450 -1.0167  0.6063 -0.9259
   41MOL0     H 5496   7.956  -0.942  -0.679  0.8603  2.9284 -1.4534
   41MOL0     H 5497   8.099  -1.401  -0.925 -1.1181 -1.4657 -0.5342
   41MOL0     H 5498   8.074  -1.495  -1.168  0.7311  0.6842 -3.8966
   41MOL0     H 5499   7.973  -1.453  -1.399 -1.6527  3.8038  1.1203
   41MOL0     H 5500   8.023  -1.327  -1.508 -4.1213  0.2422  3.9079
   41MOL0     H 5501   8.102  -1.629  -1.500 -1.5556 -0.1130  2.9656
   41MOL0     H 5502   8.000  -1.553  -1.615  0.9306 -3.0631  0.1980
   41MOL0     H 5503   8.300  -1.551  -1.620  0.4562  1.5641 -2.4117
   41MOL0     H 5504   8.178  -1.591  -1.737  1.3925  0.2841 -2.3601
   41MOL0     H 5505   8.277  -1.321  -1.655  0.1061  0.4141  0.0760
   41MOL0     H 5506   8.113  -1.347  -1.735  0.6971 -0.1605 -1.3201
   41MOL0     H 5507   8.238  -1.302  -1.924  0.9492  3.0138  4.2008
   41MOL0     H 5508   8.188  -1.475  -1.923 -2.4077  1.6439 -0.1623
   41MOL0     H 5509   8.459  -1.360  -1.829 -0.1614 -1.9831  4.4787
   41MOL0     H 5510   8.421  -1.530  -1.843 -0.3430  0.2773 -0.0921
   41MOL0     H 5511   8.374  -1.355  -2.095  2.7895  2.0896 -2.0724
   41MOL0     H 5512   8.464  -1.514  -2.064  3.3416  1.3718 -0.4420
   41MOL0     H 5513   8.643  -1.367  -1.955 -2.2066 -2.6049  1.0972
   41MOL0     H 5514   8.646  -1.373  -2.120 -0.8190  0.4857 -0.5398
   41MOL0     H 5515   8.310  -1.195  -1.311  0.3919  1.7231  1.1333
   41MOL0     H 5516   8.292  -1.072  -1.111 -0.9546  0.2384 -0.6701
   41MOL0     H 5517   8.364  -1.080  -0.663 -0.2004 -1.6018  0.7015
   41MOL0     H 5518   8.383  -1.031  -0.426 -0.0106 -2.7274 -0.6929
   41MOL0     H 5519   7.681   0.282  -0.034  1.3563 -3.0603  3.3924
   41MOL0     H 5520   7.483   0.425  -0.079 -1.3911  1.8265  0.5206
   41MOL0     H 5521   7.066   0.427  -0.271  1.0156 -0.1701  1.8012
   41MOL0     H 5522   6.919   0.605  -0.369 -1.4073  1.7867  0.1702
   41MOL0     H 5523   6.842   0.957  -0.422  1.0566 -0.2421 -3.3101
   41MOL0     H 5524   6.879   0.796  -0.473  1.9175 -1.3886  0.0022
   41MOL0     H 5525   7.067   0.931  -0.512 -1.6466 -2.7390 -0.6636
   41MOL0     H 5526   7.103   0.798  -0.408  0.9570 -0.7478 -2.1435
   41MOL0     H 5527   7.205   0.994  -0.317  0.2150  0.6980  0.2735
   41MOL0     H 5528   7.088   0.945  -0.199 -0.4810 -1.3320 -0.8130
   41MOL0     H 5529   6.928   1.123  -0.250 -0.8538 -1.2972 -1.4600
   41MOL0     H 5530   7.078   1.183  -0.197  0.2178  0.8802  0.1057
   41MOL0     H 5531   7.111   1.273  -0.616 -0.7963  0.6233  0.0471
   41MOL0     H 5532   6.964   0.845  -0.031  1.8063  0.5967  0.2053
   41MOL0     H 5533   7.084   0.636   0.194 -4.7990 -3.3411 -3.3690
   41MOL0     H 5534   7.232   0.705   0.110 -0.9210  3.2104  1.7674
   41MOL0     H 5535   7.094   0.798   0.159 -1.8555  0.5335 -1.9463
   42MOL0     O 5536   3.062   4.751   1.547  1.2857 -0.1621  0.2349
   42MOL0     C 5537   3.000   4.751   1.652 -0.4054 -0.1033  0.4499
   42MOL0     O 5538   3.032   4.821   1.759  0.4728  0.6112  0.5190
   42MOL0     C 5539   3.109   4.933   1.743 -0.3896  0.2865  0.2255
   42MOL0     C 5540   3.056   5.060   1.781 -0.8970 -0.2518  0.1295
   42MOL0     C 5541   3.137   5.173   1.789 -0.6368 -0.1059 -0.0000
   42MOL0     C 5542   3.278   5.152   1.772 -0.2952 -1.0059  0.1480
   42MOL0     O 5543   3.331   5.274   1.791 -0.0533 -1.0314 -0.4901
   42MOL0     C 5544   3.474   5.276   1.762 -0.0964 -0.5867  0.6902
   42MOL0     C 5545   3.493   5.280   1.610  0.8143 -0.0290 -0.9502
   42MOL0     C 5546   3.393   5.372   1.531 -0.1357  0.1486  0.9780
   42MOL0     C 5547   3.388   5.516   1.587  0.7252  0.1920  0.8660
   42MOL0     C 5548   3.365   5.637   1.486 -0.4786  0.9647  0.4215
   42MOL0     C 5549   3.486   5.655   1.383 -0.0268 -0.1351 -0.7275
   42MOL0     C 5550   3.457   5.741   1.270  0.3095  0.4933  0.3473
   42MOL0     C 5551   3.376   5.873   1.309 -0.7338  0.2369 -0.1695
   42MOL0     N 5552   3.471   5.990   1.354 -0.0515  0.2160  0.1999
   42MOL0     C 5553   3.552   5.995   1.463  0.4247 -0.1135 -0.0079
   42MOL0     C 5554   3.580   6.132   1.477  0.4337  0.3293  0.6024
   42MOL0     C 5555   3.680   6.200   1.575 -0.7155 -0.5116 -0.7282
   42MOL0     C 5556   3.620   6.204   1.714 -0.2747 -0.6013 -0.2064
   42MOL0     C 5557   3.685   6.303   1.810 -0.3710  0.2976 -0.1332
   42MOL0     C 5558   3.676   6.452   1.768 -0.5948  0.9373 -0.6038
   42MOL0     O 5559   3.543   6.481   1.728 -0.3757  0.1074 -0.1037
   42MOL0     C 5560   3.514   6.611   1.685 -0.6676  0.0795  0.7284
   42MOL0     C 5561   3.574   6.726   1.733  0.1165  0.7139 -0.1077
   42MOL0     C 5562   3.552   6.854   1.680 -0.4551 -1.3234  0.3850
   42MOL0     C 5563   3.468   6.867   1.571  0.8390 -0.7882 -1.0673
   42MOL0     C 5564   3.435   7.000   1.510 -0.7162 -0.8673 -0.1784
   42MOL0     O 5565   3.505   7.118   1.564 -0.0458  0.0026 -0.6670
   42MOL0     C 5566   3.449   7.229   1.512  0.1698 -0.2011 -0.1168
   42MOL0     C 5567   3.326   7.271   1.566  0.2686  0.4933 -0.7238
   42MOL0     C 5568   3.246   7.368   1.504 -0.3929 -0.0305  0.0468
   42MOL0     C 5569   3.288   7.444   1.407 -1.0943  0.6469  0.1738
   42MOL0     O 5570   3.222   7.554   1.357  0.3946 -0.0031 -0.4736
   42MOL0     C 5571   3.247   7.610   1.224 -0.6129  0.1940 -0.7022
   42MOL0     C 5572   3.144   7.729   1.224  0.5759 -0.3191  0.6085
   42MOL0     C 5573   3.010   7.666   1.164 -0.2719  0.1574 -1.4501
   42MOL0     C 5574   2.898   7.760   1.128 -0.9976  0.3802 -0.3028
   42MOL0     C 5575   2.848   7.828   1.255 -0.2549 -0.5992 -0.0579
   42MOL0     C 5576   2.721   7.915   1.229 -0.5538 -1.0125  0.0479
   42MOL0     C 5577   2.672   7.963   1.361  0.8110  0.5305 -0.2943
   42MOL0     C 5578   2.676   8.115   1.373  0.5393 -0.3895  0.1925
   42MOL0    Cl 5579   2.554   8.194   1.284  0.1320  0.0254  0.4305
   42MOL0     C 5580   3.410   7.401   1.345 -0.8495  0.7974  0.9501
   42MOL0     C 5581   3.487   7.291   1.395 -0.8240 -0.4999  0.7940
   42MOL0     O 5582   3.356   6.999   1.418  0.0463  0.4707 -0.3659
   42MOL0     C 5583   3.414   6.754   1.516  0.5223 -0.6641 -0.0651
   42MOL0     C 5584   3.434   6.626   1.573  0.1207  0.4315 -0.7549
   42MOL0     N 5585   3.509   6.200   1.379 -0.2727  0.0945  0.2907
   42MOL0     N 5586   3.441   6.116   1.306 -0.5376  0.2895 -0.7229
   42MOL0     C 5587   3.331   5.027   1.737 -1.4193 -0.3408  0.1791
   42MOL0     C 5588   3.244   4.921   1.727  0.0144 -0.4115  0.0310
   42MOL0     C 5589   2.873   4.668   1.663 -0.6556  0.4048  0.5496
   42MOL0     C 5590   2.834   4.627   1.795 -0.0080 -0.1870  0.3586
   42MOL0     C 5591   2.717   4.561   1.816 -0.1162  0.1880  0.1336
   42MOL0     C 5592   2.628   4.520   1.712 -0.5942 -0.3376 -0.6605
   42MOL0     O 5593   2.506   4.454   1.730 -0.6879  0.3597  0.0620
   42MOL0     C 5594   2.450   4.418   1.857  0.1199 -0.3465 -0.7203
   42MOL0     C 5595   2.312   4.351   1.821 -0.5555  0.6389  0.3803
   42MOL0     C 5596   2.325   4.225   1.731  0.4505 -0.4366  0.4924
   42MOL0     C 5597   2.325   4.236   1.576  0.7846  0.2271  0.5329
   42MOL0     C 5598   2.207   4.319   1.542  0.0318 -0.2784 -0.9652
   42MOL0     C 5599   2.128   4.389   1.500  0.4409 -0.0335  0.6267
   42MOL0     C 5600   2.672   4.555   1.580  0.3379  0.5463  0.0081
   42MOL0     C 5601   2.792   4.632   1.556  0.3306  0.5074  0.5882
   42MOL0     C 5602   2.819   4.672   1.413  0.7908 -0.2788  0.1497
   42MOL0     H 5603   2.950   5.076   1.796 -1.3292  0.9220 -3.3681
   42MOL0     H 5604   3.078   5.260   1.814 -0.8062  1.1674 -4.1145
   42MOL0     H 5605   3.512   5.368   1.808 -1.0175 -0.5019  1.2970
   42MOL0     H 5606   3.530   5.190   1.799 -0.2605 -0.6429  0.8063
   42MOL0     H 5607   3.485   5.180   1.568 -0.6515 -0.7119  0.8113
   42MOL0     H 5608   3.594   5.317   1.590  0.4536  0.6424 -1.5843
   42MOL0     H 5609   3.292   5.332   1.520 -1.5667  3.9943 -2.6438
   42MOL0     H 5610   3.407   5.367   1.423  0.2353  1.2966  0.9573
   42MOL0     H 5611   3.313   5.521   1.665 -0.7350  0.9773 -0.5281
   42MOL0     H 5612   3.491   5.532   1.620  1.6559  2.1840 -2.4489
   42MOL0     H 5613   3.277   5.622   1.422  1.0385 -0.2695 -1.4869
   42MOL0     H 5614   3.363   5.729   1.545  1.2857  1.2628  0.0753
   42MOL0     H 5615   3.581   5.680   1.432  1.0043  1.0696 -3.1698
   42MOL0     H 5616   3.525   5.563   1.338  1.1155  0.4379 -0.9383
   42MOL0     H 5617   3.394   5.682   1.203  3.4903 -2.4067 -0.3951
   42MOL0     H 5618   3.546   5.758   1.209  1.7968 -2.3110  1.5203
   42MOL0     H 5619   3.313   5.908   1.226 -0.3969  2.5472  0.4624
   42MOL0     H 5620   3.294   5.857   1.380 -0.6058 -0.3301 -0.1439
   42MOL0     H 5621   3.587   5.910   1.521  1.5677 -1.7422 -2.8655
   42MOL0     H 5622   3.782   6.161   1.574  0.2299  1.7823 -0.2178
   42MOL0     H 5623   3.689   6.307   1.550 -4.3527  0.8291  2.6046
   42MOL0     H 5624   3.513   6.224   1.699  0.3515  1.0225 -3.3853
   42MOL0     H 5625   3.611   6.106   1.762 -2.0931  0.0484  0.9045
   42MOL0     H 5626   3.787   6.268   1.827 -1.7932 -2.7869  3.4007
   42MOL0     H 5627   3.639   6.287   1.908  0.0223 -0.1759 -0.0241
   42MOL0     H 5628   3.747   6.469   1.687  0.4361 -2.0205 -0.4160
   42MOL0     H 5629   3.696   6.515   1.856  1.6734 -2.2023  1.3449
   42MOL0     H 5630   3.649   6.725   1.811 -0.4593 -1.3195  0.4715
   42MOL0     H 5631   3.597   6.943   1.722 -1.4234  0.8775 -2.8260
   42MOL0     H 5632   3.290   7.216   1.653  0.2926  2.7910  0.8223
   42MOL0     H 5633   3.147   7.400   1.536 -0.7730 -0.2176 -0.8897
   42MOL0     H 5634   3.353   7.637   1.221 -0.7021  0.6171 -0.3113
   42MOL0     H 5635   3.215   7.547   1.141 -3.2781  3.3227 -2.2457
   42MOL0     H 5636   3.130   7.760   1.328  0.0006 -3.4665  1.5923
   42MOL0     H 5637   3.183   7.804   1.155  1.5137 -1.1466  0.2001
   42MOL0     H 5638   3.032   7.610   1.073  4.3183  2.0224 -1.7720
   42MOL0     H 5639   2.978   7.598   1.243 -0.9277  1.0855 -0.9066
   42MOL0     H 5640   2.831   7.690   1.078 -0.2562 -1.7242  1.4631
   42MOL0     H 5641   2.927   7.841   1.061 -0.0680  0.2803 -0.0363
   42MOL0     H 5642   2.924   7.896   1.294 -1.1413  0.6318 -0.4111
   42MOL0     H 5643   2.831   7.752   1.332 -0.5918  1.1534  1.6704
   42MOL0     H 5644   2.742   8.002   1.166 -2.2250  1.4015  2.5879
   42MOL0     H 5645   2.647   7.849   1.182 -1.4171 -0.9094  1.2223
   42MOL0     H 5646   2.721   7.924   1.451  2.6901 -1.7442 -2.1460
   42MOL0     H 5647   2.569   7.930   1.376  1.7357 -2.1922  0.7581
   42MOL0     H 5648   2.664   8.147   1.477  1.5498 -0.6669  0.4115
   42MOL0     H 5649   2.776   8.145   1.341  0.0689  0.7101 -0.2998
   42MOL0     H 5650   3.453   7.457   1.263 -2.6209  3.1901  1.5412
   42MOL0     H 5651   3.587   7.262   1.366  1.3794 -0.0953  6.7036
   42MOL0     H 5652   3.332   6.755   1.446 -0.9684  1.3396  1.5925
   42MOL0     H 5653   3.382   6.540   1.531  0.9141  0.1672 -1.2232
   42MOL0     H 5654   3.437   5.020   1.718 -1.6426 -1.0425 -0.9540
   42MOL0     H 5655   3.286   4.824   1.703  3.0618  1.0856 -1.2032
   42MOL0     H 5656   2.897   4.646   1.881  0.7810 -1.2219  0.0312
   42MOL0     H 5657   2.705   4.541   1.922 -1.0440 -3.0425 -0.4648
   42MOL0     H 5658   2.425   4.515   1.900 -1.9320 -0.1524 -2.2075
   42MOL0     H 5659   2.520   4.361   1.919 -2.7057 -1.9032  1.2685
   42MOL0     H 5660   2.243   4.429   1.787 -0.3833 -0.0608 -1.7228
   42MOL0     H 5661   2.279   4.317   1.919  0.7679  0.2312  0.7047
   42MOL0     H 5662   2.232   4.176   1.760  0.8328 -1.4605  0.0646
   42MOL0     H 5663   2.414   4.169   1.763  1.9296  3.3229  3.7608
   42MOL0     H 5664   2.422   4.277   1.549  2.0904 -0.6298  3.5690
   42MOL0     H 5665   2.308   4.139   1.528  2.0584 -0.5809  1.6440
   42MOL0     H 5666   2.052   4.459   1.471 -2.4376 -2.0555  2.7365
   42MOL0     H 5667   2.615   4.529   1.491  3.4764  1.1325 -2.3661
   42MOL0     H 5668   2.747   4.634   1.340  0.8246 -0.7206  0.3432
   42MOL0     H 5669   2.809   4.781   1.414 -4.6611 -0.4741  0.5612
   42MOL0     H 5670   2.919   4.643   1.380 -0.5390 -2.7819 -2.0389
   43MOL0     O 5671   4.812   7.379   3.816  1.2730 -0.3034  0.2172
   43MOL0     C 5672   4.743   7.318   3.732  0.2619  0.3482 -0.9442
   43MOL0     O 5673   4.684   7.369   3.616 -0.2742 -0.1642 -0.0897
   43MOL0     C 5674   4.701   7.501   3.559 -0.6783 -0.2558  0.7018
   43MOL0     C 5675   4.742   7.617   3.636 -0.1848  1.2466  0.4154
   43MOL0     C 5676   4.749   7.745   3.576 -0.2499 -0.0865  0.1288
   43MOL0     C 5677   4.723   7.756   3.426  0.0793  0.0107 -0.5091
   43MOL0     O 5678   4.735   7.873   3.363 -0.1995  0.4155 -0.1095
   43MOL0     C 5679   4.804   7.887   3.242  0.0798 -0.3801 -0.3562
   43MOL0     C 5680   4.880   8.026   3.226  0.7192 -0.1694  0.7602
   43MOL0     C 5681   4.807   8.159   3.214  0.3372 -0.3541 -0.6987
   43MOL0     C 5682   4.706   8.204   3.322  0.5859  0.4522 -0.0233
   43MOL0     C 5683   4.645   8.356   3.298  0.3269  0.0199  0.2268
   43MOL0     C 5684   4.540   8.372   3.401 -1.2182  0.7780  0.1552
   43MOL0     C 5685   4.447   8.486   3.377 -0.4211 -0.7816  0.2714
   43MOL0     C 5686   4.522   8.618   3.386  0.0235  0.0704 -0.0724
   43MOL0     N 5687   4.419   8.725   3.381 -0.4757  0.4912  0.6406
   43MOL0     C 5688   4.325   8.738   3.274 -1.6948  0.8859  0.4284
   43MOL0     C 5689   4.272   8.862   3.286 -0.4146 -0.8513 -0.4315
   43MOL0     C 5690   4.169   8.923   3.215 -0.0414 -0.0666  0.5962
   43MOL0     C 5691   4.116   9.062   3.268 -0.6735  0.2033  0.8605
   43MOL0     C 5692   4.021   9.124   3.166 -0.4260  0.2793 -0.4709
   43MOL0     C 5693   3.956   9.255   3.196  0.5893 -0.3142  0.1905
   43MOL0     O 5694   4.048   9.362   3.220  0.2154 -0.2030 -0.2257
   43MOL0     C 5695   4.089   9.440   3.113  0.1821 -0.9305  0.7380
   43MOL0     C 5696   4.016   9.557   3.073 -0.9967 -0.2566 -0.0225
   43MOL0     C 5697   4.074   9.645   2.982  0.1952 -0.4076  0.1283
   43MOL0     C 5698   4.192   9.606   2.919 -0.1149 -1.1800  0.5694
   43MOL0     C 5699   4.258   9.708   2.831 -0.6030  0.3297  0.3994
   43MOL0     O 5700   4.225   9.841   2.844 -0.0910 -0.4743 -0.1236
   43MOL0     C 5701   4.265   9.941   2.760  0.2014 -0.5912  0.4832
   43MOL0     C 5702   4.259   9.925   2.619  0.0346  0.9731  0.6213
   43MOL0     C 5703   4.275  10.040   2.530 -0.0465  0.4573 -0.5072
   43MOL0     C 5704   4.291  10.164   2.587  0.0094 -0.6822  1.0180
   43MOL0     O 5705   4.317  10.261   2.494  0.6240 -0.2776  0.0552
   43MOL0     C 5706   4.337  10.394   2.542 -0.0361 -0.0204 -0.6733
   43MOL0     C 5707   4.352  10.490   2.426 -0.0845  0.3084 -0.0803
   43MOL0     C 5708   4.300  10.623   2.473  0.7339  0.0097 -0.8409
   43MOL0     C 5709   4.409  10.716   2.505 -0.4272  0.2571 -1.0602
   43MOL0     C 5710   4.369  10.852   2.566  0.1408 -0.0009 -0.2884
   43MOL0     C 5711   4.292  10.942   2.471  0.0754 -0.7630  0.6328
   43MOL0     C 5712   4.273  11.073   2.543 -0.6091  0.6238  0.4266
   43MOL0     C 5713   4.175  11.163   2.449 -0.3576 -0.1248 -0.7306
   43MOL0    Cl 5714   4.008  11.109   2.472  0.0916  0.1388  0.3183
   43MOL0     C 5715   4.305  10.178   2.727  0.5993 -0.5873 -0.5294
   43MOL0     C 5716   4.283  10.064   2.810 -0.7616 -0.5138 -0.7959
   43MOL0     O 5717   4.348   9.658   2.757 -0.4094  0.0874  0.1349
   43MOL0     C 5718   4.249   9.485   2.942 -0.8160 -1.2655 -0.7850
   43MOL0     C 5719   4.201   9.405   3.045 -0.1094  0.8742  0.0717
   43MOL0     N 5720   4.342   8.924   3.392 -1.1421  0.3601  0.2885
   43MOL0     N 5721   4.430   8.840   3.457 -0.4073  0.4515 -0.4449
   43MOL0     C 5722   4.688   7.635   3.363  0.2705 -0.2124  0.3205
   43MOL0     C 5723   4.677   7.512   3.425 -0.3612  0.4620  0.9163
   43MOL0     C 5724   4.743   7.166   3.737  0.0732  0.0838 -0.5255
   43MOL0     C 5725   4.659   7.090   3.649  0.4215  0.2311  0.2262
   43MOL0     C 5726   4.656   6.951   3.656 -0.7888  0.6295 -0.1221
   43MOL0     C 5727   4.739   6.879   3.752  0.9643 -0.0346  0.6470
   43MOL0     O 5728   4.720   6.742   3.758 -0.1845  0.1528  0.0929
   43MOL0     C 5729   4.791   6.673   3.865  0.9117 -0.2287  0.4144
   43MOL0     C 5730   4.812   6.527   3.835 -0.2625 -0.1439 -0.3341
   43MOL0     C 5731   4.914   6.508   3.726 -0.5685  0.1845 -1.3570
   43MOL0     C 5732   4.962   6.357   3.710  1.3630  0.3600 -0.4887
   43MOL0     C 5733   5.011   6.288   3.823  0.7281  0.3046 -0.1257
   43MOL0     C 5734   5.063   6.233   3.919  0.2663 -0.6285  0.0967
   43MOL0     C 5735   4.818   6.955   3.845  0.9225  0.0310  0.6138
   43MOL0     C 5736   4.805   7.097   3.851  0.9707  0.0316  0.4342
   43MOL0     C 5737   4.887   7.156   3.957  0.6838  0.6159 -0.0637
   43MOL0     H 5738   4.779   7.606   3.738 -0.2856 -1.6914  0.2204
   43MOL0     H 5739   4.775   7.829   3.639  1.8555  0.4080 -1.2993
   43MOL0     H 5740   4.873   7.805   3.221 -0.0256  0.0665 -2.7260
   43MOL0     H 5741   4.741   7.871   3.153 -0.3128 -0.0572 -0.1427
   43MOL0     H 5742   4.946   8.020   3.139  0.1662 -1.9553  0.4212
   43MOL0     H 5743   4.950   8.036   3.310  2.0030 -1.2218 -0.1450
   43MOL0     H 5744   4.754   8.167   3.119  1.4005 -1.6382 -1.4354
   43MOL0     H 5745   4.886   8.233   3.196 -0.7072  1.0551  0.2896
   43MOL0     H 5746   4.614   8.145   3.326  1.0560 -0.3607  5.1783
   43MOL0     H 5747   4.762   8.206   3.415 -2.4620  0.0271  1.9517
   43MOL0     H 5748   4.733   8.422   3.299 -0.7097  1.4443 -0.2670
   43MOL0     H 5749   4.609   8.356   3.195  1.4029  0.6416 -0.1674
   43MOL0     H 5750   4.480   8.282   3.415 -0.8885  0.3172 -1.2837
   43MOL0     H 5751   4.598   8.387   3.493  0.2812  2.8531 -1.0332
   43MOL0     H 5752   4.356   8.479   3.437  1.3589 -2.0918  2.9714
   43MOL0     H 5753   4.401   8.481   3.278 -1.7020 -0.3672  0.8225
   43MOL0     H 5754   4.573   8.623   3.483  0.8761  3.6724 -0.5732
   43MOL0     H 5755   4.582   8.633   3.296 -4.9572  3.1026 -3.3078
   43MOL0     H 5756   4.300   8.665   3.197 -0.6438 -0.1432  1.0500
   43MOL0     H 5757   4.222   8.950   3.123 -1.9572  0.3918 -0.4208
   43MOL0     H 5758   4.080   8.860   3.203 -1.0800  1.5148 -0.2916
   43MOL0     H 5759   4.068   9.041   3.364 -2.0042  0.4760  0.2799
   43MOL0     H 5760   4.199   9.133   3.277 -0.5580  0.2083 -0.1480
   43MOL0     H 5761   3.950   9.045   3.137  0.1225  0.4991 -2.6046
   43MOL0     H 5762   4.068   9.147   3.070  1.5545 -3.8570 -0.7371
   43MOL0     H 5763   3.906   9.245   3.293  0.4212 -1.0293  0.0326
   43MOL0     H 5764   3.879   9.279   3.122  1.6748 -0.0137 -0.8674
   43MOL0     H 5765   3.923   9.572   3.127  1.5278  2.8257  4.0543
   43MOL0     H 5766   4.037   9.745   2.966 -0.6674  0.0404  3.8991
   43MOL0     H 5767   4.239   9.828   2.576  1.9583  1.1055 -0.7032
   43MOL0     H 5768   4.260  10.016   2.425 -0.4585 -2.1072  0.0783
   43MOL0     H 5769   4.253  10.419   2.607 -0.2523 -0.3338 -0.8305
   43MOL0     H 5770   4.437  10.399   2.587 -0.2481 -3.4821  0.4756
   43MOL0     H 5771   4.458  10.495   2.401 -0.0686  2.4010  0.2289
   43MOL0     H 5772   4.288  10.453   2.345  2.8697 -2.3051 -1.4217
   43MOL0     H 5773   4.225  10.653   2.400  2.7258  1.5708 -2.3526
   43MOL0     H 5774   4.234  10.604   2.558  0.6839 -2.3812 -1.3442
   43MOL0     H 5775   4.474  10.722   2.417  0.9566  2.2675  0.0340
   43MOL0     H 5776   4.470  10.670   2.584 -1.7945 -0.2925 -0.2764
   43MOL0     H 5777   4.462  10.909   2.577 -0.1773  1.8788 -4.9589
   43MOL0     H 5778   4.327  10.831   2.664  4.1326  0.9542  1.8654
   43MOL0     H 5779   4.347  10.946   2.377 -3.0833  0.6668 -1.3297
   43MOL0     H 5780   4.191  10.904   2.449 -0.3547  0.6302  0.0873
   43MOL0     H 5781   4.374  11.115   2.552 -1.3045  1.8897  3.6383
   43MOL0     H 5782   4.231  11.058   2.642  2.3285 -0.0242  1.6683
   43MOL0     H 5783   4.164  11.269   2.473 -1.7565 -1.0079  3.2900
   43MOL0     H 5784   4.195  11.163   2.341 -0.8226  2.8747 -0.8993
   43MOL0     H 5785   4.308  10.278   2.769 -0.0561 -1.5481  2.0119
   43MOL0     H 5786   4.270  10.080   2.916 -2.6679  5.6512 -1.5171
   43MOL0     H 5787   4.341   9.457   2.892  3.9013  3.6561  3.9353
   43MOL0     H 5788   4.243   9.313   3.084 -2.2522  0.3571  1.3962
   43MOL0     H 5789   4.677   7.637   3.256 -0.1713 -2.2103  0.3004
   43MOL0     H 5790   4.643   7.428   3.365  0.7199  0.3560  0.4308
   43MOL0     H 5791   4.612   7.142   3.567 -0.0329 -0.0946  0.2703
   43MOL0     H 5792   4.581   6.900   3.598  0.6348 -2.8671  0.8552
   43MOL0     H 5793   4.743   6.683   3.963  1.1551  5.3904  0.2843
   43MOL0     H 5794   4.892   6.714   3.863  1.1035 -0.6172  1.5459
   43MOL0     H 5795   4.717   6.481   3.807 -0.2950  0.3458 -1.0429
   43MOL0     H 5796   4.844   6.481   3.930 -1.6694 -0.3617  0.0518
   43MOL0     H 5797   4.990   6.582   3.756 -0.7842 -0.3036  0.5117
   43MOL0     H 5798   4.871   6.537   3.630 -1.3980 -1.0733 -1.3839
   43MOL0     H 5799   4.869   6.302   3.693  0.0400  2.3491 -0.0980
   43MOL0     H 5800   5.035   6.347   3.630  0.1707  1.4799 -1.7619
   43MOL0     H 5801   5.101   6.187   4.008  0.8992 -2.8236 -1.2285
   43MOL0     H 5802   4.873   6.904   3.924 -1.6437 -2.2772  1.0787
   43MOL0     H 5803   4.917   7.086   4.035  0.6390  1.2074  0.4947
   43MOL0     H 5804   4.969   7.224   3.932  0.4279  0.3412 -1.7704
   43MOL0     H 5805   4.821   7.222   4.015 -2.0052 -1.0277 -1.0457
   44MOL0     O 5806   2.278   9.881   4.700 -0.2366 -0.0536 -0.0178
   44MOL0     C 5807   2.255   9.915   4.819 -0.6538 -0.8302 -0.5861
   44MOL0     O 5808   2.274   9.830   4.926 -0.2301  0.2457 -0.1399
   44MOL0     C 5809   2.300   9.686   4.906 -0.8445 -0.2593 -0.1629
   44MOL0     C 5810   2.265   9.607   4.793  0.5293 -0.6018 -0.0479
   44MOL0     C 5811   2.291   9.471   4.793  0.3335  0.8460 -0.0405
   44MOL0     C 5812   2.347   9.404   4.908  0.6959  0.0429  1.0026
   44MOL0     O 5813   2.384   9.274   4.892  0.8381 -0.4031 -0.4345
   44MOL0     C 5814   2.410   9.195   5.010  0.2012 -0.1242  0.0111
   44MOL0     C 5815   2.343   9.055   4.987 -0.2495  0.2429 -0.4597
   44MOL0     C 5816   2.219   9.009   5.077  0.1364 -0.6407  0.7413
   44MOL0     C 5817   2.103   9.114   5.067  0.6283 -0.7154  0.7046
   44MOL0     C 5818   1.979   9.071   5.151  0.7410 -0.4212 -0.4931
   44MOL0     C 5819   1.914   8.945   5.096  0.3596  0.4593  0.2633
   44MOL0     C 5820   1.780   8.935   5.169  0.1447 -0.5117 -0.1974
   44MOL0     C 5821   1.793   8.904   5.312  0.3768 -0.1270 -0.0422
   44MOL0     N 5822   1.671   8.841   5.363  0.3855 -1.4109  0.4248
   44MOL0     C 5823   1.561   8.913   5.399 -0.8142 -1.0904 -1.0709
   44MOL0     C 5824   1.481   8.823   5.445 -0.5445  1.4147  0.3417
   44MOL0     C 5825   1.361   8.846   5.520  0.4281 -0.0729 -0.3365
   44MOL0     C 5826   1.282   8.716   5.522  0.2511 -0.6137  1.2564
   44MOL0     C 5827   1.128   8.744   5.547 -0.4473  0.2052 -0.3876
   44MOL0     C 5828   1.046   8.633   5.475  0.0645  0.0152 -0.3518
   44MOL0     O 5829   0.906   8.646   5.489 -0.4735 -0.0335  0.3565
   44MOL0     C 5830   0.844   8.618   5.605 -0.1120  1.0099 -0.7688
   44MOL0     C 5831   0.773   8.714   5.676 -0.0899 -0.4753  0.3329
   44MOL0     C 5832   0.704   8.675   5.792 -0.2246  0.2426  0.2120
   44MOL0     C 5833   0.705   8.539   5.834  0.6361 -0.7871 -0.0329
   44MOL0     C 5834   0.622   8.509   5.960 -0.5178  0.1906 -0.1491
   44MOL0     O 5835   0.528   8.599   6.015 -0.2684 -0.4221 -0.7734
   44MOL0     C 5836   0.450   8.546   6.115  0.2701 -0.0634 -0.9241
   44MOL0     C 5837   0.493   8.534   6.240  0.4169  0.1466  0.0455
   44MOL0     C 5838   0.408   8.471   6.330  0.4761  0.3345 -0.2842
   44MOL0     C 5839   0.278   8.426   6.299  0.1852 -0.2813  0.3919
   44MOL0     O 5840   0.176   8.362   6.379  0.2367  0.0216 -0.0202
   44MOL0     C 5841   0.226   8.300   6.496 -1.1301 -0.3959 -0.6860
   44MOL0     C 5842   0.125   8.235   6.584  0.0266 -0.4922  0.4523
   44MOL0     C 5843   0.065   8.111   6.511 -0.4672 -0.5368 -0.2631
   44MOL0     C 5844  -0.054   8.044   6.585  0.3913  0.5196  0.1867
   44MOL0     C 5845  -0.123   7.940   6.487  0.1723 -0.0170  0.4021
   44MOL0     C 5846  -0.226   7.831   6.543  0.0194 -0.4041  0.4735
   44MOL0     C 5847  -0.306   7.741   6.442  1.1844 -0.0446  0.4375
   44MOL0     C 5848  -0.241   7.684   6.315  0.6107  0.2449 -0.8489
   44MOL0    Cl 5849  -0.208   7.512   6.339 -0.0508 -0.1199  0.4071
   44MOL0     C 5850   0.241   8.448   6.167  0.7345 -0.6174  0.3064
   44MOL0     C 5851   0.326   8.513   6.078 -0.3231 -0.1699  0.2326
   44MOL0     O 5852   0.646   8.396   6.008  0.3963 -0.5327  0.2079
   44MOL0     C 5853   0.778   8.447   5.767  0.2764 -0.2520  0.4367
   44MOL0     C 5854   0.856   8.491   5.662  0.1304 -0.0829 -0.2916
   44MOL0     N 5855   1.550   8.695   5.444  0.2954 -0.6936  0.6926
   44MOL0     N 5856   1.651   8.708   5.373  0.1091  0.0201 -0.5716
   44MOL0     C 5857   2.381   9.488   5.017  0.8321 -0.7986 -0.6393
   44MOL0     C 5858   2.372   9.623   5.006 -0.3319 -0.6561  0.2286
   44MOL0     C 5859   2.201  10.055   4.847  0.4462 -0.7599  1.0651
   44MOL0     C 5860   2.074  10.069   4.908 -0.0869  0.5476 -0.2559
   44MOL0     C 5861   2.013  10.193   4.931  0.1872 -0.0304  0.3800
   44MOL0     C 5862   2.073  10.303   4.867 -0.7758  0.0738  0.0870
   44MOL0     O 5863   2.019  10.430   4.861 -0.1106 -0.2003 -0.2560
   44MOL0     C 5864   1.921  10.461   4.951  1.0147 -1.1424  0.1422
   44MOL0     C 5865   1.943  10.611   4.967 -0.6956 -1.0197  1.0051
   44MOL0     C 5866   1.847  10.660   5.075  0.5722  0.4613  0.1565
   44MOL0     C 5867   1.708  10.686   5.010  0.2700  0.0082  1.1724
   44MOL0     C 5868   1.613  10.702   5.124  0.4124 -0.0827 -0.3677
   44MOL0     C 5869   1.533  10.694   5.218  0.2664  0.1489  0.6217
   44MOL0     C 5870   2.199  10.291   4.799 -0.4965  0.8179 -0.6106
   44MOL0     C 5871   2.262  10.168   4.796 -0.3359  0.4444 -0.5523
   44MOL0     C 5872   2.390  10.169   4.724  0.1203 -0.0253  0.1355
   44MOL0     H 5873   2.214   9.642   4.704  0.2934 -3.1495 -1.0077
   44MOL0     H 5874   2.262   9.404   4.714  0.6483 -0.9068  1.2752
   44MOL0     H 5875   2.518   9.180   5.018  0.3582  1.3080  0.8327
   44MOL0     H 5876   2.368   9.241   5.099  1.2059 -0.3406  0.6128
   44MOL0     H 5877   2.425   8.983   5.000 -0.3920  0.0403 -0.6627
   44MOL0     H 5878   2.320   9.043   4.880  0.4661  2.1448 -0.8611
   44MOL0     H 5879   2.245   9.000   5.182  0.0224  3.9302  1.3370
   44MOL0     H 5880   2.190   8.909   5.042  1.2885 -0.7779  0.1077
   44MOL0     H 5881   2.133   9.214   5.101  0.7181 -0.9287  1.2739
   44MOL0     H 5882   2.080   9.122   4.961  1.0256  1.0559  0.7292
   44MOL0     H 5883   1.997   9.076   5.258 -0.5844  1.3509 -0.3172
   44MOL0     H 5884   1.905   9.149   5.130  0.5501 -0.3753  0.3359
   44MOL0     H 5885   1.894   8.968   4.991  1.1046  2.0728  0.4541
   44MOL0     H 5886   1.965   8.849   5.106 -1.9926 -0.6940  2.3341
   44MOL0     H 5887   1.710   8.865   5.122  0.7778 -0.8306 -0.6861
   44MOL0     H 5888   1.731   9.033   5.171 -0.0927 -0.6038  2.6048
   44MOL0     H 5889   1.879   8.837   5.318  0.1527 -0.6794 -2.1228
   44MOL0     H 5890   1.813   8.998   5.365 -0.0091 -0.0014 -0.1184
   44MOL0     H 5891   1.555   9.021   5.397 -1.5421 -1.1257 -1.3569
   44MOL0     H 5892   1.379   8.887   5.620 -2.1905 -1.2055  0.7174
   44MOL0     H 5893   1.303   8.921   5.466 -0.4157 -0.6616 -0.2739
   44MOL0     H 5894   1.292   8.654   5.433  0.5843 -0.8505  1.4561
   44MOL0     H 5895   1.309   8.652   5.606 -1.6869  0.9513  3.1909
   44MOL0     H 5896   1.096   8.840   5.505  1.0129  0.7403 -0.3381
   44MOL0     H 5897   1.106   8.753   5.654  1.5728  2.0468 -0.0549
   44MOL0     H 5898   1.070   8.535   5.519 -2.1542 -1.4956 -2.2074
   44MOL0     H 5899   1.067   8.619   5.368 -2.1191  1.2859 -1.0245
   44MOL0     H 5900   0.772   8.809   5.624  0.1867 -1.6896 -2.0264
   44MOL0     H 5901   0.643   8.748   5.844 -2.0285  1.1006 -2.8507
   44MOL0     H 5902   0.594   8.556   6.272  0.6653 -0.5961 -0.1907
   44MOL0     H 5903   0.444   8.454   6.431 -1.8837 -2.1832  0.2345
   44MOL0     H 5904   0.303   8.225   6.478 -0.4281 -0.1228  0.9868
   44MOL0     H 5905   0.264   8.372   6.570  0.6002 -2.0105  0.0610
   44MOL0     H 5906   0.168   8.204   6.680  0.4715 -0.8943  0.1346
   44MOL0     H 5907   0.053   8.309   6.619 -1.3678 -1.2012 -0.7939
   44MOL0     H 5908   0.023   8.149   6.417  3.2126  2.1448 -1.0849
   44MOL0     H 5909   0.152   8.047   6.491  1.5180  0.0668  4.9664
   44MOL0     H 5910  -0.127   8.114   6.626  1.4251  2.3585 -0.9760
   44MOL0     H 5911  -0.008   7.988   6.667  1.2008  2.4505  1.0921
   44MOL0     H 5912  -0.043   7.895   6.428 -0.9689  1.3356 -2.3645
   44MOL0     H 5913  -0.175   8.008   6.418 -0.4993  1.0052  1.8390
   44MOL0     H 5914  -0.160   7.761   6.594  2.0556  0.6920 -0.5322
   44MOL0     H 5915  -0.303   7.874   6.608  1.0963  3.1513 -0.3972
   44MOL0     H 5916  -0.378   7.813   6.402  4.3041  0.7512 -4.7221
   44MOL0     H 5917  -0.350   7.655   6.493  3.1483 -1.2595  0.1906
   44MOL0     H 5918  -0.318   7.682   6.237 -3.7019 -4.2978  2.8074
   44MOL0     H 5919  -0.141   7.726   6.305  0.4606  1.8336  2.8979
   44MOL0     H 5920   0.139   8.432   6.135  1.1773  0.5914 -1.9163
   44MOL0     H 5921   0.300   8.557   5.982 -1.0964  1.0389  0.9817
   44MOL0     H 5922   0.781   8.339   5.779 -0.6724 -0.5797 -1.6957
   44MOL0     H 5923   0.932   8.429   5.617  0.3305  0.2942 -0.4759
   44MOL0     H 5924   2.426   9.447   5.107 -1.2132 -1.9460 -0.0903
   44MOL0     H 5925   2.409   9.684   5.088 -0.4232  0.8090 -0.7806
   44MOL0     H 5926   2.030   9.977   4.948  0.1467  0.5463  0.0034
   44MOL0     H 5927   1.916  10.204   4.977 -0.4074  1.2426 -1.0684
   44MOL0     H 5928   1.918  10.406   5.045 -0.0112 -2.1937 -0.4903
   44MOL0     H 5929   1.820  10.444   4.915 -0.2059  0.8035  2.3656
   44MOL0     H 5930   1.923  10.666   4.875 -0.9812 -0.1496  1.5728
   44MOL0     H 5931   2.046  10.643   4.986 -1.1294 -0.4929  2.7182
   44MOL0     H 5932   1.884  10.757   5.112 -0.3698 -0.0356  2.5794
   44MOL0     H 5933   1.849  10.599   5.165  2.7844  1.1950  0.6776
   44MOL0     H 5934   1.695  10.777   4.951 -3.9668 -1.5265 -0.6606
   44MOL0     H 5935   1.676  10.600   4.951 -1.1207  2.7304 -2.3769
   44MOL0     H 5936   1.466  10.706   5.301  2.7996  3.4948  2.4650
   44MOL0     H 5937   2.243  10.379   4.752  4.5524 -1.6205 -1.0645
   44MOL0     H 5938   2.448  10.253   4.763  1.4489  0.6643 -3.0191
   44MOL0     H 5939   2.446  10.081   4.759 -0.8968  0.5225  3.5189
   44MOL0     H 5940   2.383  10.161   4.615  1.1783  5.8721 -0.7139
   45MOL0     O 5941   5.875   3.406   2.865  0.7918 -0.2746  0.7269
   45MOL0     C 5942   5.770   3.369   2.911  0.2616 -0.2218 -0.6676
   45MOL0     O 5943   5.673   3.455   2.962 -0.6099 -0.3887  0.2887
   45MOL0     C 5944   5.697   3.585   2.935 -0.9696  0.3223  0.4381
   45MOL0     C 5945   5.752   3.637   2.818  0.5553 -0.5357 -0.3474
   45MOL0     C 5946   5.766   3.767   2.797  0.5096 -0.5178 -0.0905
   45MOL0     C 5947   5.752   3.858   2.915 -0.9386 -0.0487  1.1805
   45MOL0     O 5948   5.781   3.994   2.887 -0.1709 -0.2079  0.6433
   45MOL0     C 5949   5.914   4.022   2.932 -0.0543  0.2117  0.5855
   45MOL0     C 5950   5.933   4.163   2.961  0.4509 -0.1182  0.7350
   45MOL0     C 5951   5.872   4.214   3.095 -0.2932  0.6507  0.3090
   45MOL0     C 5952   5.845   4.354   3.080  0.2826  0.0925  0.1131
   45MOL0     C 5953   5.763   4.413   3.197 -0.7209 -0.1492  0.5910
   45MOL0     C 5954   5.756   4.567   3.177 -0.4458 -0.9595 -0.0293
   45MOL0     C 5955   5.684   4.627   3.291  0.3039  0.0287  0.2117
   45MOL0     C 5956   5.524   4.611   3.277 -0.5022  0.7139 -0.1017
   45MOL0     N 5957   5.461   4.723   3.204  0.2797 -0.0956  0.0584
   45MOL0     C 5958   5.461   4.838   3.273  0.5198  0.7714 -0.4335
   45MOL0     C 5959   5.471   4.931   3.180  0.0272  1.5749 -0.2828
   45MOL0     C 5960   5.469   5.075   3.222 -0.0607  0.7829  0.5343
   45MOL0     C 5961   5.598   5.141   3.197  0.3480  0.4858  0.6618
   45MOL0     C 5962   5.643   5.166   3.052 -0.8320  0.0857  0.3127
   45MOL0     C 5963   5.541   5.244   2.973 -0.2490 -0.3435  0.2468
   45MOL0     O 5964   5.608   5.347   2.884 -0.2730 -0.6863 -0.5538
   45MOL0     C 5965   5.635   5.474   2.940  0.6982  0.3469 -0.9196
   45MOL0     C 5966   5.698   5.567   2.861  0.5230 -0.0589  0.0022
   45MOL0     C 5967   5.757   5.686   2.907 -0.2085  0.6163 -0.0447
   45MOL0     C 5968   5.728   5.730   3.038 -0.1371 -0.0038  0.5332
   45MOL0     C 5969   5.775   5.861   3.092  0.1682  0.2107  0.2325
   45MOL0     O 5970   5.712   5.898   3.211  0.9918 -0.5893  0.4682
   45MOL0     C 5971   5.723   6.026   3.264  0.0430  0.7068  0.6516
   45MOL0     C 5972   5.687   6.142   3.187 -0.4724  1.2540 -0.0470
   45MOL0     C 5973   5.724   6.270   3.227 -0.7300 -0.4115 -0.7400
   45MOL0     C 5974   5.752   6.287   3.368 -0.1567  0.0896 -0.6523
   45MOL0     O 5975   5.780   6.405   3.415  0.5469  0.0441 -0.4448
   45MOL0     C 5976   5.673   6.502   3.411 -0.7687  0.3102 -0.5260
   45MOL0     C 5977   5.743   6.631   3.365  0.6850 -0.6313  1.1327
   45MOL0     C 5978   5.678   6.758   3.400 -0.6910 -0.5449  0.2434
   45MOL0     C 5979   5.785   6.858   3.362  0.5674  0.0115 -0.6139
   45MOL0     C 5980   5.736   7.006   3.387  0.4153 -1.5044  0.0234
   45MOL0     C 5981   5.828   7.106   3.321 -0.2533 -0.6068 -0.1842
   45MOL0     C 5982   5.787   7.248   3.369 -1.0440  0.6713 -0.4674
   45MOL0     C 5983   5.854   7.371   3.296 -0.8105  0.2441 -0.3966
   45MOL0    Cl 5984   5.771   7.523   3.334 -0.2055  0.3071 -0.4493
   45MOL0     C 5985   5.760   6.177   3.458 -0.3391 -0.5405  0.3177
   45MOL0     C 5986   5.759   6.048   3.402  0.4717  0.0262 -0.3242
   45MOL0     O 5987   5.865   5.927   3.040 -0.6981  1.0991  0.3845
   45MOL0     C 5988   5.639   5.648   3.114 -0.3245  0.3669 -0.0882
   45MOL0     C 5989   5.594   5.533   3.065  0.8255 -0.3720 -0.0234
   45MOL0     N 5990   5.472   4.877   3.050  0.3049  0.0876 -0.0609
   45MOL0     N 5991   5.479   4.752   3.070  0.4719 -0.2719 -1.4868
   45MOL0     C 5992   5.733   3.805   3.038  0.2045 -1.9243  0.7342
   45MOL0     C 5993   5.696   3.672   3.048 -0.6172 -0.3712  0.5223
   45MOL0     C 5994   5.747   3.221   2.936 -0.4415  0.1071  0.3558
   45MOL0     C 5995   5.649   3.188   3.029 -0.3144  0.6912 -0.0565
   45MOL0     C 5996   5.631   3.060   3.078  0.0762  0.2610 -0.2577
   45MOL0     C 5997   5.703   2.951   3.028  0.2804  0.2855  1.3249
   45MOL0     O 5998   5.679   2.832   3.092 -0.1649  0.8641  0.2288
   45MOL0     C 5999   5.742   2.727   3.024  0.1958 -0.3759 -0.1469
   45MOL0     C 6000   5.751   2.601   3.118  0.5118  0.2980  0.8091
   45MOL0     C 6001   5.801   2.637   3.259  0.1366 -0.6163  0.5552
   45MOL0     C 6002   5.932   2.715   3.258 -0.5786  0.1060  0.0843
   45MOL0     C 6003   6.033   2.624   3.194  0.0546 -1.3647  0.0226
   45MOL0     C 6004   6.139   2.563   3.183  0.3780 -0.6168 -0.5257
   45MOL0     C 6005   5.791   2.974   2.923  0.0290 -0.4071  0.8441
   45MOL0     C 6006   5.812   3.108   2.880 -0.8955 -0.3247  0.4733
   45MOL0     C 6007   5.903   3.126   2.764 -0.4497  0.0374 -1.1870
   45MOL0     H 6008   5.779   3.566   2.741  0.7019 -3.2297  2.0172
   45MOL0     H 6009   5.813   3.800   2.704 -1.6509  0.0890 -1.0256
   45MOL0     H 6010   5.936   3.969   3.025 -0.6176  0.1399  0.6804
   45MOL0     H 6011   5.970   3.992   2.843  0.1180 -2.9511  1.6331
   45MOL0     H 6012   5.898   4.227   2.879  1.8555 -0.9261 -0.5453
   45MOL0     H 6013   6.041   4.182   2.962 -0.0016  3.1066  2.2555
   45MOL0     H 6014   5.934   4.198   3.184 -0.3641  3.9146  1.0565
   45MOL0     H 6015   5.784   4.158   3.128  1.1756  0.0349  3.4963
   45MOL0     H 6016   5.934   4.418   3.081  0.3305  0.0646 -0.9468
   45MOL0     H 6017   5.781   4.367   2.992  0.1927 -2.0546 -0.1922
   45MOL0     H 6018   5.666   4.364   3.206 -0.8418  0.1269  0.8064
   45MOL0     H 6019   5.820   4.395   3.288  0.1960 -0.2769  0.0151
   45MOL0     H 6020   5.863   4.592   3.174 -0.7357  0.2656 -1.6568
   45MOL0     H 6021   5.696   4.593   3.090 -0.4756 -1.0123 -0.0236
   45MOL0     H 6022   5.688   4.736   3.298  2.1234  0.4449 -4.1611
   45MOL0     H 6023   5.716   4.576   3.382 -1.0476 -1.0756  0.1007
   45MOL0     H 6024   5.488   4.514   3.240  0.1024 -0.5071  2.3346
   45MOL0     H 6025   5.489   4.611   3.380  2.1976  2.1053  0.8933
   45MOL0     H 6026   5.464   4.846   3.381  0.2197 -0.8897 -0.2829
   45MOL0     H 6027   5.386   5.125   3.172 -2.0317 -1.5749  1.2758
   45MOL0     H 6028   5.454   5.092   3.329  0.7753 -2.2682  1.2348
   45MOL0     H 6029   5.605   5.231   3.260  1.4794  0.1538  1.0376
   45MOL0     H 6030   5.686   5.090   3.237  3.4213  2.1091 -3.3304
   45MOL0     H 6031   5.663   5.076   2.994 -1.0615  0.8764 -1.0394
   45MOL0     H 6032   5.732   5.228   3.040 -0.0872 -1.3829 -2.5269
   45MOL0     H 6033   5.460   5.286   3.033  0.3065  0.6506  0.3239
   45MOL0     H 6034   5.488   5.175   2.907  1.0467 -3.0248  1.8482
   45MOL0     H 6035   5.724   5.542   2.758 -0.5531  1.9246 -0.8003
   45MOL0     H 6036   5.822   5.744   2.842 -3.2055  2.7027 -1.4144
   45MOL0     H 6037   5.656   6.125   3.084  0.4655  1.7706 -0.4299
   45MOL0     H 6038   5.712   6.361   3.169  2.3344  2.4055  2.5365
   45MOL0     H 6039   5.593   6.484   3.338 -0.7744 -1.4749 -0.1143
   45MOL0     H 6040   5.640   6.501   3.515  2.1370 -1.2877  0.4871
   45MOL0     H 6041   5.843   6.643   3.406  0.8615  0.3448  0.4537
   45MOL0     H 6042   5.758   6.622   3.257  0.0885  2.9466  0.6369
   45MOL0     H 6043   5.591   6.771   3.336 -1.3233  0.3855  1.2664
   45MOL0     H 6044   5.666   6.765   3.509  2.6889  1.0148  0.6702
   45MOL0     H 6045   5.827   6.838   3.263 -0.4397  0.1450 -1.0759
   45MOL0     H 6046   5.876   6.856   3.423  0.3813 -0.9662 -0.3632
   45MOL0     H 6047   5.724   7.041   3.490 -0.4656  1.9786 -1.1245
   45MOL0     H 6048   5.642   7.012   3.331 -0.9214  1.0911  2.2640
   45MOL0     H 6049   5.932   7.100   3.355 -1.1971  0.2019  3.1441
   45MOL0     H 6050   5.805   7.105   3.214  2.3631 -0.2590 -0.8081
   45MOL0     H 6051   5.821   7.252   3.473 -1.5325  2.4446 -0.3554
   45MOL0     H 6052   5.678   7.259   3.369 -1.2220 -0.8141  0.1484
   45MOL0     H 6053   5.961   7.380   3.316 -0.1820 -0.9621 -2.8343
   45MOL0     H 6054   5.852   7.349   3.189  0.6236  0.7539 -0.5497
   45MOL0     H 6055   5.785   6.203   3.560 -0.5271  0.6129  0.0818
   45MOL0     H 6056   5.761   5.954   3.457 -1.2914  0.7098  0.9948
   45MOL0     H 6057   5.593   5.692   3.202 -1.0821  1.8490 -1.1822
   45MOL0     H 6058   5.507   5.490   3.114  0.3128  0.3518 -0.2745
   45MOL0     H 6059   5.729   3.874   3.122  1.4884  0.9706 -1.3974
   45MOL0     H 6060   5.670   3.624   3.142  1.4282  0.1871  1.4299
   45MOL0     H 6061   5.593   3.269   3.074  0.1025  0.3217  1.1713
   45MOL0     H 6062   5.556   3.033   3.151  0.4157 -1.0408 -0.3584
   45MOL0     H 6063   5.848   2.742   3.005  0.3682 -1.5476 -0.1886
   45MOL0     H 6064   5.688   2.697   2.933  2.2651 -0.7586 -1.3108
   45MOL0     H 6065   5.825   2.537   3.069  2.3818  3.0288 -0.1656
   45MOL0     H 6066   5.656   2.548   3.113  0.4335  0.4620 -3.5703
   45MOL0     H 6067   5.806   2.546   3.319 -0.9961  0.5236  2.5062
   45MOL0     H 6068   5.727   2.699   3.311  2.8965  0.3902  3.6079
   45MOL0     H 6069   5.931   2.808   3.201  1.1546 -0.3097 -0.6787
   45MOL0     H 6070   5.954   2.733   3.364 -1.7262 -2.2285  0.7834
   45MOL0     H 6071   6.229   2.507   3.195 -0.4274 -1.6824  0.8765
   45MOL0     H 6072   5.858   2.904   2.875  1.5200  0.4477  1.6072
   45MOL0     H 6073   5.990   3.063   2.785 -0.4946  0.6586  1.1350
   45MOL0     H 6074   5.858   3.089   2.672  0.4191 -0.9955 -1.2190
   45MOL0     H 6075   5.945   3.226   2.747  1.2932 -0.7237 -1.6051
   46MOL0     O 6076   4.534   6.333   1.096  0.2858  0.6906  0.7979
   46MOL0     C 6077   4.572   6.418   1.011 -0.5867 -0.5112  0.1042
   46MOL0     O 6078   4.497   6.469   0.902  0.2836  0.0323 -0.6273
   46MOL0     C 6079   4.370   6.418   0.884  0.5753  0.4538 -0.8338
   46MOL0     C 6080   4.269   6.510   0.863  0.1332  0.4150 -0.6869
   46MOL0     C 6081   4.133   6.467   0.858 -0.2827  0.0255  0.0032
   46MOL0     C 6082   4.091   6.337   0.890  0.5690  0.0898  0.6278
   46MOL0     O 6083   3.955   6.309   0.890  0.2676  0.6047  0.3390
   46MOL0     C 6084   3.905   6.181   0.920  0.2543  0.8738 -0.2947
   46MOL0     C 6085   3.754   6.152   0.902  0.4955 -0.7512  0.3088
   46MOL0     C 6086   3.715   6.130   0.755 -0.3922  1.0256 -0.1878
   46MOL0     C 6087   3.709   6.253   0.664  0.2639 -0.3409  0.0446
   46MOL0     C 6088   3.634   6.226   0.530  0.0870  0.2984 -0.2061
   46MOL0     C 6089   3.703   6.115   0.459  0.7662 -0.9673 -0.4385
   46MOL0     C 6090   3.655   6.116   0.311 -0.4458  0.5913 -0.6151
   46MOL0     C 6091   3.752   6.045   0.223 -0.6993 -0.7660 -0.5911
   46MOL0     N 6092   3.689   6.024   0.086  0.1457  0.3321 -0.5553
   46MOL0     C 6093   3.577   5.947   0.070  0.0313  0.2205  0.0353
   46MOL0     C 6094   3.558   5.961  -0.071 -0.0441 -0.6612  0.5621
   46MOL0     C 6095   3.442   5.906  -0.144  0.8606  0.3961  0.2690
   46MOL0     C 6096   3.490   5.781  -0.221 -0.1129 -0.6002 -0.0484
   46MOL0     C 6097   3.545   5.672  -0.127 -0.3072  0.1378 -0.7003
   46MOL0     C 6098   3.585   5.534  -0.187 -0.3585  0.4571  0.0065
   46MOL0     O 6099   3.626   5.439  -0.081 -0.3925 -0.1524 -0.1338
   46MOL0     C 6100   3.756   5.464  -0.039  1.3630  0.8373 -0.2733
   46MOL0     C 6101   3.783   5.550   0.070 -1.0592  1.0598  0.1148
   46MOL0     C 6102   3.911   5.558   0.124  0.0761 -0.7105  0.2856
   46MOL0     C 6103   4.013   5.480   0.064 -0.3685 -1.2677 -0.3677
   46MOL0     C 6104   4.151   5.496   0.111  0.3755 -0.0784  0.5859
   46MOL0     O 6105   4.181   5.571   0.224  0.3975 -0.2406  0.5788
   46MOL0     C 6106   4.299   5.635   0.239 -0.1887  0.2226  0.6246
   46MOL0     C 6107   4.403   5.640   0.144  0.5115  0.6055 -0.9300
   46MOL0     C 6108   4.532   5.693   0.170 -1.2427 -1.5592 -0.3515
   46MOL0     C 6109   4.545   5.769   0.282  0.3427  0.0163 -0.6908
   46MOL0     O 6110   4.670   5.815   0.315 -0.3049  0.1618 -1.1956
   46MOL0     C 6111   4.711   5.941   0.279 -1.1480 -0.7388 -1.0790
   46MOL0     C 6112   4.810   6.008   0.386  0.0056  1.2520  0.4082
   46MOL0     C 6113   4.879   6.134   0.331 -0.5748  1.0117 -0.5240
   46MOL0     C 6114   5.012   6.098   0.294 -0.3433  0.5243  0.1455
   46MOL0     C 6115   5.091   6.197   0.226 -0.2662  0.1740 -0.6550
   46MOL0     C 6116   5.034   6.272   0.103 -0.8156  0.9845 -0.1276
   46MOL0     C 6117   5.001   6.195  -0.013  0.3784  0.0733  1.1964
   46MOL0     C 6118   5.123   6.120  -0.078  0.4494 -0.0623 -0.1366
   46MOL0    Cl 6119   5.255   6.224  -0.125  0.1346 -0.3423  0.2805
   46MOL0     C 6120   4.445   5.767   0.382 -0.2452  0.8759 -0.4235
   46MOL0     C 6121   4.327   5.694   0.365  0.0158  0.3967  0.2654
   46MOL0     O 6122   4.233   5.427   0.047  0.0775  0.2803  0.6365
   46MOL0     C 6123   3.981   5.410  -0.054 -0.0815 -0.7417 -0.0892
   46MOL0     C 6124   3.853   5.401  -0.099  0.1858 -0.6970  0.5036
   46MOL0     N 6125   3.659   6.032  -0.132 -0.2675  0.7144 -0.6654
   46MOL0     N 6126   3.746   6.065  -0.032  0.0531  0.2360  0.2927
   46MOL0     C 6127   4.194   6.241   0.904 -0.0109 -0.3287 -0.5658
   46MOL0     C 6128   4.330   6.286   0.902  0.6067 -0.1508 -0.6996
   46MOL0     C 6129   4.710   6.466   1.028 -0.3170 -1.4805  0.1427
   46MOL0     C 6130   4.765   6.556   0.930 -0.1325 -0.3473  0.1104
   46MOL0     C 6131   4.888   6.608   0.946  0.5777 -0.2175  0.5193
   46MOL0     C 6132   4.967   6.590   1.064  0.6810  0.4575 -0.7299
   46MOL0     O 6133   5.077   6.675   1.096 -0.1035  0.5343 -0.3662
   46MOL0     C 6134   5.060   6.775   1.198 -0.1210  0.2706 -0.7452
   46MOL0     C 6135   5.185   6.860   1.206 -1.2384  0.1519 -0.2984
   46MOL0     C 6136   5.314   6.786   1.256  1.1076  0.4588  0.2011
   46MOL0     C 6137   5.426   6.877   1.296  0.2195 -0.6454  0.0419
   46MOL0     C 6138   5.546   6.811   1.266 -0.8520 -0.1665 -0.8184
   46MOL0     C 6139   5.651   6.756   1.247 -0.7536 -0.6832  0.0016
   46MOL0     C 6140   4.918   6.490   1.147 -0.4121  0.0266 -0.8877
   46MOL0     C 6141   4.799   6.425   1.127  0.1895 -0.3708 -0.1893
   46MOL0     C 6142   4.789   6.304   1.224  0.7487 -0.7263  0.6582
   46MOL0     H 6143   4.303   6.611   0.843 -0.0469  0.4155 -1.0044
   46MOL0     H 6144   4.056   6.543   0.847 -0.1680  0.4532  1.8379
   46MOL0     H 6145   3.965   6.105   0.869  0.4162  1.4348 -0.9697
   46MOL0     H 6146   3.940   6.164   1.022  0.8938  1.7133 -0.3693
   46MOL0     H 6147   3.691   6.234   0.938  1.1828 -0.0779  0.0147
   46MOL0     H 6148   3.724   6.057   0.946 -1.5576 -0.7711 -1.0395
   46MOL0     H 6149   3.620   6.078   0.739  0.1246  0.0462 -0.1273
   46MOL0     H 6150   3.802   6.081   0.712 -0.1959  3.4434 -2.8349
   46MOL0     H 6151   3.637   6.327   0.703  0.0914 -0.1893 -0.5584
   46MOL0     H 6152   3.810   6.293   0.659 -0.8926  3.1194  1.2455
   46MOL0     H 6153   3.529   6.203   0.551  1.0965 -2.7295  2.2909
   46MOL0     H 6154   3.638   6.323   0.480 -0.8416  1.0842  1.1631
   46MOL0     H 6155   3.812   6.125   0.460  0.6639  0.3591  1.1970
   46MOL0     H 6156   3.673   6.019   0.503  0.3563 -0.3834  0.5983
   46MOL0     H 6157   3.648   6.221   0.284 -0.9192  1.7242  3.2348
   46MOL0     H 6158   3.555   6.072   0.306 -0.3484  0.3467 -0.4713
   46MOL0     H 6159   3.846   6.100   0.211  1.3252 -2.6902  3.8539
   46MOL0     H 6160   3.772   5.948   0.270 -2.2779  0.1405  2.2253
   46MOL0     H 6161   3.518   5.901   0.149  4.5195 -1.0307  2.9743
   46MOL0     H 6162   3.381   5.875  -0.058  0.8122  2.0905  0.8816
   46MOL0     H 6163   3.386   5.974  -0.209 -0.0941  1.1305  1.7884
   46MOL0     H 6164   3.411   5.737  -0.281 -1.7782 -0.8689  2.2320
   46MOL0     H 6165   3.575   5.812  -0.284  0.2478  0.6868  1.0251
   46MOL0     H 6166   3.468   5.638  -0.058 -0.0014  0.6011 -0.1309
   46MOL0     H 6167   3.632   5.705  -0.070 -0.4704 -1.9356  0.8227
   46MOL0     H 6168   3.668   5.551  -0.257 -0.1120 -0.4922  0.0581
   46MOL0     H 6169   3.488   5.504  -0.227 -1.8317  2.8102  1.5902
   46MOL0     H 6170   3.693   5.587   0.117 -2.2635  1.0204 -2.0204
   46MOL0     H 6171   3.933   5.636   0.197  1.3801  0.0892 -0.9118
   46MOL0     H 6172   4.388   5.589   0.050 -2.3174  0.1948 -0.3488
   46MOL0     H 6173   4.619   5.671   0.109 -2.0244  0.0544 -2.1481
   46MOL0     H 6174   4.761   5.948   0.182  4.8615 -6.2775  0.9000
   46MOL0     H 6175   4.633   6.016   0.293 -2.1745 -1.6141 -1.9539
   46MOL0     H 6176   4.752   6.046   0.470 -0.6904 -0.7010  0.8735
   46MOL0     H 6177   4.878   5.933   0.428 -1.3262 -1.6958 -2.2963
   46MOL0     H 6178   4.815   6.176   0.253  0.2510  1.8004 -0.7985
   46MOL0     H 6179   4.895   6.205   0.412  0.0844  1.1215 -0.7396
   46MOL0     H 6180   5.014   6.003   0.240  5.0279 -1.3273  2.8956
   46MOL0     H 6181   5.073   6.078   0.382  1.7828  1.4714 -1.0388
   46MOL0     H 6182   5.177   6.148   0.178 -2.2473  0.3513 -4.8712
   46MOL0     H 6183   5.121   6.279   0.292  0.7990 -0.9511  0.3190
   46MOL0     H 6184   4.950   6.335   0.135 -1.1592  0.6358 -0.3348
   46MOL0     H 6185   5.108   6.337   0.056  1.0197 -1.5448 -0.9244
   46MOL0     H 6186   4.959   6.257  -0.092 -0.6017 -0.0837  1.5791
   46MOL0     H 6187   4.924   6.120   0.011 -0.5165  1.4288  2.8193
   46MOL0     H 6188   5.162   6.047  -0.007  2.0928  1.7387  0.9356
   46MOL0     H 6189   5.084   6.068  -0.165 -0.4470 -0.4201  0.4614
   46MOL0     H 6190   4.465   5.832   0.467  1.5122  1.9255 -1.5931
   46MOL0     H 6191   4.249   5.692   0.440 -1.4322 -0.6511 -1.1771
   46MOL0     H 6192   4.055   5.358  -0.115 -2.5071 -0.8129 -3.2651
   46MOL0     H 6193   3.828   5.340  -0.185  1.1388  1.0770 -1.0968
   46MOL0     H 6194   4.165   6.138   0.924 -1.7531  0.1667 -0.3829
   46MOL0     H 6195   4.404   6.211   0.929  1.2007  0.6971  0.0775
   46MOL0     H 6196   4.712   6.600   0.846 -2.0667  1.6581  2.2502
   46MOL0     H 6197   4.905   6.686   0.873  0.4138 -1.8811 -1.3799
   46MOL0     H 6198   5.059   6.714   1.289  2.3796 -2.5266 -2.4113
   46MOL0     H 6199   4.978   6.847   1.186  0.8136  1.3758 -0.7034
   46MOL0     H 6200   5.175   6.943   1.276  0.8023  0.1717  0.0257
   46MOL0     H 6201   5.194   6.897   1.103  0.4502  0.0900 -0.2097
   46MOL0     H 6202   5.349   6.718   1.177 -1.6849 -1.0253  0.1277
   46MOL0     H 6203   5.283   6.730   1.345  3.1781 -1.3175 -0.1095
   46MOL0     H 6204   5.423   6.972   1.243 -0.9981 -0.3308  0.6458
   46MOL0     H 6205   5.405   6.903   1.401  0.3382  0.5247 -0.2138
   46MOL0     H 6206   5.745   6.706   1.236  0.1206  1.0462 -0.7882
   46MOL0     H 6207   4.994   6.466   1.220 -1.3312  0.8167  0.3643
   46MOL0     H 6208   4.845   6.319   1.317  0.1172 -1.2337  1.1318
   46MOL0     H 6209   4.689   6.308   1.267  0.6020  2.1568  0.2276
   46MOL0     H 6210   4.809   6.216   1.162 -1.9426  1.2887 -3.5141
   47MOL0     O 6211   5.612   8.202  11.376 -0.6561 -0.1695 -0.2808
   47MOL0     C 6212   5.572   8.172  11.487 -0.4735 -0.0946  0.0613
   47MOL0     O 6213   5.611   8.217  11.610  0.0146 -0.2016  0.6261
   47MOL0     C 6214   5.719   8.295  11.626  0.0280 -0.7323  0.3483
   47MOL0     C 6215   5.798   8.283  11.738  0.7438  0.2892 -0.5375
   47MOL0     C 6216   5.896   8.382  11.766  0.4657  0.0281 -0.5242
   47MOL0     C 6217   5.917   8.488  11.677 -0.4199 -1.0367  0.1527
   47MOL0     O 6218   6.003   8.589  11.702  0.2234  0.5342  0.5431
   47MOL0     C 6219   6.081   8.588  11.821  0.5914  0.2300  0.4082
   47MOL0     C 6220   6.153   8.716  11.833 -0.8078 -0.1507  0.6610
   47MOL0     C 6221   6.066   8.839  11.880  0.6509 -1.0835  0.0451
   47MOL0     C 6222   6.153   8.915  11.970 -0.2087 -0.4671 -1.2890
   47MOL0     C 6223   6.082   9.043  12.010  0.9937  0.0360  0.9516
   47MOL0     C 6224   5.967   9.052  12.112  0.2208  0.4737 -0.6911
   47MOL0     C 6225   6.017   9.014  12.253  0.1899 -0.4483 -1.1696
   47MOL0     C 6226   6.147   9.076  12.303  0.2269 -0.4502 -1.1630
   47MOL0     N 6227   6.172   9.064  12.449 -0.4909  0.1019 -0.4056
   47MOL0     C 6228   6.132   9.147  12.556  0.1393 -0.3006  0.2703
   47MOL0     C 6229   6.162   9.082  12.670 -0.5144 -0.3601  0.3817
   47MOL0     C 6230   6.145   9.128  12.810  0.1833  0.4292 -0.7767
   47MOL0     C 6231   6.044   9.244  12.834 -0.6302 -0.1424  0.4349
   47MOL0     C 6232   6.070   9.307  12.971 -1.0705 -0.6334  1.4470
   47MOL0     C 6233   6.074   9.210  13.081  0.6679 -0.0754  1.0146
   47MOL0     O 6234   6.037   9.271  13.215  0.3788  0.4607 -0.2544
   47MOL0     C 6235   6.137   9.340  13.275 -0.3062  0.0153  0.7029
   47MOL0     C 6236   6.093   9.413  13.386 -0.1317  0.9891 -0.4604
   47MOL0     C 6237   6.176   9.483  13.466  0.0096 -0.0605 -0.4574
   47MOL0     C 6238   6.316   9.487  13.436 -0.3252  1.0250 -1.0375
   47MOL0     C 6239   6.408   9.557  13.527 -0.0604  1.1386  0.2741
   47MOL0     O 6240   6.352   9.666  13.576  0.5087  0.2268  0.9489
   47MOL0     C 6241   6.441   9.752  13.649 -0.3476 -0.1438  1.2230
   47MOL0     C 6242   6.486   9.873  13.602  0.4202  0.4571  0.0416
   47MOL0     C 6243   6.545   9.963  13.684  0.1237 -0.5618 -0.0637
   47MOL0     C 6244   6.587   9.936  13.812  0.3844  1.1863 -0.1936
   47MOL0     O 6245   6.668  10.027  13.883  0.6945 -0.3675 -0.4019
   47MOL0     C 6246   6.760   9.977  13.981 -0.3727  0.7500  0.5475
   47MOL0     C 6247   6.892   9.924  13.925  0.3306 -0.0271  0.9719
   47MOL0     C 6248   6.987   9.863  14.028 -0.1168  1.1104 -0.3401
   47MOL0     C 6249   7.023   9.948  14.158 -0.5826  0.5712 -0.8756
   47MOL0     C 6250   7.084  10.084  14.119  0.7725 -0.4715  0.5729
   47MOL0     C 6251   7.158  10.147  14.238  0.4757  0.0998  0.3374
   47MOL0     C 6252   7.186  10.301  14.201 -0.1951  0.3007 -0.3680
   47MOL0     C 6253   7.280  10.358  14.311 -0.2326  0.9641  0.2387
   47MOL0    Cl 6254   7.278  10.534  14.261 -0.2980 -0.3332 -0.1313
   47MOL0     C 6255   6.554   9.805  13.858  1.3129  0.6951  0.2362
   47MOL0     C 6256   6.469   9.717  13.779 -0.1208 -1.1239 -0.4971
   47MOL0     O 6257   6.518   9.515  13.557 -0.2650  0.0701 -0.1980
   47MOL0     C 6258   6.363   9.426  13.323 -0.0184 -0.2066  0.4743
   47MOL0     C 6259   6.275   9.354  13.241  0.0112 -0.1585  0.0406
   47MOL0     N 6260   6.213   8.958  12.627  0.2432 -0.0262  1.1428
   47MOL0     N 6261   6.212   8.941  12.498 -1.5876 -0.5197  0.6849
   47MOL0     C 6262   5.837   8.502  11.569 -0.2776 -0.0952 -0.8070
   47MOL0     C 6263   5.729   8.414  11.545  0.5241  0.8355  0.4116
   47MOL0     C 6264   5.458   8.072  11.499 -1.1695  0.0068  0.5020
   47MOL0     C 6265   5.375   8.091  11.603  0.1778  0.7866 -0.3255
   47MOL0     C 6266   5.276   8.008  11.630  0.9385  0.2429  0.8182
   47MOL0     C 6267   5.233   7.912  11.534 -0.3592  0.0487 -1.1421
   47MOL0     O 6268   5.121   7.835  11.553  0.9804  0.8046 -0.1260
   47MOL0     C 6269   5.043   7.798  11.441  0.6804 -0.2006  0.1946
   47MOL0     C 6270   5.048   7.648  11.407  0.8231  1.0870  0.4942
   47MOL0     C 6271   4.973   7.547  11.502 -1.1809 -0.5007 -1.0014
   47MOL0     C 6272   5.007   7.396  11.472  0.7313 -0.5627 -0.4223
   47MOL0     C 6273   4.962   7.344  11.344 -1.3970 -0.4525  0.9844
   47MOL0     C 6274   4.929   7.309  11.233  0.4386 -0.0132 -1.1416
   47MOL0     C 6275   5.319   7.891  11.425  0.6159  0.1846  0.2850
   47MOL0     C 6276   5.432   7.965  11.409 -1.0166 -0.5167 -0.0514
   47MOL0     C 6277   5.534   7.916  11.309  0.4799 -0.7226 -0.3494
   47MOL0     H 6278   5.776   8.201  11.805 -1.6581  1.7043  0.5193
   47MOL0     H 6279   5.951   8.361  11.857 -1.1261  2.1229  1.0208
   47MOL0     H 6280   6.017   8.584  11.910  3.7050  3.3047  3.0603
   47MOL0     H 6281   6.151   8.504  11.824  1.1536  0.5882 -1.4752
   47MOL0     H 6282   6.170   8.761  11.735 -4.3369  2.6967  1.1256
   47MOL0     H 6283   6.244   8.705  11.893 -0.9151 -2.1037  0.5361
   47MOL0     H 6284   5.972   8.811  11.929 -1.2031 -1.0219 -3.2105
   47MOL0     H 6285   6.028   8.905  11.801  1.3804 -1.9494 -1.0529
   47MOL0     H 6286   6.173   8.854  12.059  3.4333  1.7602 -0.3586
   47MOL0     H 6287   6.246   8.934  11.916 -0.8319 -2.4232 -3.2182
   47MOL0     H 6288   6.156   9.107  12.060  1.9665 -1.6949  1.8134
   47MOL0     H 6289   6.038   9.090  11.922  1.0738  0.4011  1.1015
   47MOL0     H 6290   5.934   9.154  12.134  2.1914  0.9641  0.3137
   47MOL0     H 6291   5.891   8.989  12.066  1.4145 -0.7088 -1.1258
   47MOL0     H 6292   6.032   8.907  12.266  0.1057 -0.2566  0.7287
   47MOL0     H 6293   5.945   9.048  12.328  1.6942  4.6651 -1.6160
   47MOL0     H 6294   6.233   9.025  12.259  0.1156 -1.6420 -0.0407
   47MOL0     H 6295   6.157   9.182  12.277  0.8972 -0.3396 -0.4992
   47MOL0     H 6296   6.095   9.249  12.554 -1.7948 -0.8877  2.3228
   47MOL0     H 6297   6.104   9.041  12.863  0.1662  0.9173  0.0299
   47MOL0     H 6298   6.245   9.145  12.851 -1.7578  3.9317  3.2713
   47MOL0     H 6299   6.058   9.319  12.756  2.6806 -0.4479  0.5948
   47MOL0     H 6300   5.943   9.203  12.840 -1.3196  1.5747  0.8237
   47MOL0     H 6301   5.990   9.379  12.992  0.3199  0.7724  2.1161
   47MOL0     H 6302   6.162   9.366  12.965 -0.2917 -1.9289 -0.2432
   47MOL0     H 6303   6.172   9.162  13.085  1.0988  0.7563  0.6257
   47MOL0     H 6304   5.999   9.134  13.060  0.6945 -0.4040  2.0285
   47MOL0     H 6305   5.986   9.402  13.402 -0.3292  0.1288 -2.1967
   47MOL0     H 6306   6.134   9.526  13.557  2.5693  1.6523  0.0034
   47MOL0     H 6307   6.454   9.902  13.502 -1.3100 -1.3469  0.0086
   47MOL0     H 6308   6.566  10.059  13.638  0.8005 -1.0485 -0.8002
   47MOL0     H 6309   6.790  10.057  14.049  3.2908 -1.1292  1.3988
   47MOL0     H 6310   6.732   9.890  14.040  0.9844 -0.6660 -0.7988
   47MOL0     H 6311   6.877   9.842  13.854 -1.0662  1.2963 -0.3130
   47MOL0     H 6312   6.936  10.014  13.881  1.0716  0.1187  1.9828
   47MOL0     H 6313   6.945   9.763  14.045 -0.9358  0.6223 -4.2645
   47MOL0     H 6314   7.075   9.829  13.972 -0.0830  2.3853 -1.0983
   47MOL0     H 6315   7.106   9.909  14.217  3.3129  4.4946 -3.1436
   47MOL0     H 6316   6.937   9.958  14.224  0.0605 -0.0016  0.0670
   47MOL0     H 6317   7.000  10.147  14.087  0.3814 -1.0071  0.5243
   47MOL0     H 6318   7.160  10.066  14.042  1.3881 -2.2087  1.5543
   47MOL0     H 6319   7.093  10.146  14.326 -1.5621  2.4214 -1.0273
   47MOL0     H 6320   7.246  10.084  14.258  0.2132 -0.7598 -1.0427
   47MOL0     H 6321   7.089  10.350  14.186 -0.4681  0.1153  0.6949
   47MOL0     H 6322   7.232  10.307  14.102 -4.5284  0.7250 -2.5791
   47MOL0     H 6323   7.245  10.342  14.414  2.8830 -0.7475  1.1572
   47MOL0     H 6324   7.381  10.320  14.294 -1.1413 -0.4077 -2.6639
   47MOL0     H 6325   6.611   9.763  13.940  3.6046  1.9537 -0.6512
   47MOL0     H 6326   6.430   9.623  13.818  0.5927 -1.4976 -0.6625
   47MOL0     H 6327   6.467   9.443  13.297 -0.2646 -0.2327 -0.5871
   47MOL0     H 6328   6.314   9.310  13.150 -0.1873 -2.4649  1.0037
   47MOL0     H 6329   5.845   8.583  11.497 -1.6046  0.8085  0.0261
   47MOL0     H 6330   5.651   8.433  11.473  0.8713  3.8590  0.6937
   47MOL0     H 6331   5.396   8.174  11.670 -1.6843  0.3554  0.8879
   47MOL0     H 6332   5.218   8.032  11.718 -0.4922 -1.9166  0.5405
   47MOL0     H 6333   5.067   7.859  11.353 -0.1153 -2.3711 -1.6278
   47MOL0     H 6334   4.937   7.825  11.450  0.5165  0.7879 -3.1565
   47MOL0     H 6335   5.153   7.620  11.399  1.1809  2.4887 -0.0458
   47MOL0     H 6336   5.001   7.636  11.309 -0.7890  4.9132  0.6340
   47MOL0     H 6337   4.868   7.574  11.492 -0.2277  3.1654 -3.5299
   47MOL0     H 6338   4.996   7.566  11.607 -1.2896 -1.3584 -0.8204
   47MOL0     H 6339   5.114   7.381  11.487  1.0700 -0.5354 -2.5429
   47MOL0     H 6340   4.950   7.351  11.555  0.0763  2.3573  0.8381
   47MOL0     H 6341   4.886   7.269  11.143 -1.4468 -0.2100 -0.1901
   47MOL0     H 6342   5.298   7.810  11.356 -0.4805  0.9709 -0.3387
   47MOL0     H 6343   5.634   7.948  11.339 -0.6198  3.9392 -0.8690
   47MOL0     H 6344   5.529   7.806  11.303  0.6392 -0.7522  0.0320
   47MOL0     H 6345   5.517   7.952  11.207 -0.2808  0.9406  0.3347
   48MOL0     O 6346   7.540   0.619   0.678  0.6449 -0.3175  0.3867
   48MOL0     C 6347   7.526   0.528   0.595 -0.7459 -1.3582 -0.1399
   48MOL0     O 6348   7.569   0.541   0.462 -0.1905 -0.2802 -0.6144
   48MOL0     C 6349   7.597   0.668   0.413 -0.1336 -0.2823  1.1888
   48MOL0     C 6350   7.726   0.731   0.382  0.1588  0.6899 -0.2770
   48MOL0     C 6351   7.733   0.861   0.327  0.3287 -0.9977  0.6716
   48MOL0     C 6352   7.609   0.935   0.300 -0.1062 -0.8053  0.7201
   48MOL0     O 6353   7.606   1.070   0.258 -0.3185  0.5266  0.2417
   48MOL0     C 6354   7.719   1.116   0.178 -0.6095 -0.0142 -0.2207
   48MOL0     C 6355   7.813   1.212   0.255 -0.3302  0.7218 -0.2181
   48MOL0     C 6356   7.742   1.343   0.274  0.6175 -0.1054  0.0149
   48MOL0     C 6357   7.757   1.421   0.142  0.1608  0.4711 -0.0616
   48MOL0     C 6358   7.734   1.576   0.154  0.5980  0.1085  0.0112
   48MOL0     C 6359   7.581   1.605   0.149 -0.5603 -0.7240  0.3622
   48MOL0     C 6360   7.552   1.750   0.189 -0.0480  0.3203 -0.3354
   48MOL0     C 6361   7.496   1.842   0.082  0.2640 -0.2897 -0.0664
   48MOL0     N 6362   7.341   1.824   0.058 -0.9313  0.0279  0.8443
   48MOL0     C 6363   7.233   1.836   0.145 -0.4201  0.3775  1.0530
   48MOL0     C 6364   7.131   1.815   0.062  0.4490  0.8352  0.8366
   48MOL0     C 6365   6.986   1.820   0.105 -0.7517  0.1665  0.3838
   48MOL0     C 6366   6.968   1.765   0.249  0.1489  0.7440  1.0262
   48MOL0     C 6367   6.822   1.733   0.284 -0.2634  1.7873 -0.3030
   48MOL0     C 6368   6.743   1.852   0.339 -0.6567 -0.8117  0.8330
   48MOL0     O 6369   6.795   1.889   0.463  0.2315 -0.2205  0.1059
   48MOL0     C 6370   6.750   2.002   0.522  0.5269 -0.1870  0.5072
   48MOL0     C 6371   6.835   2.110   0.552 -0.5714 -0.3143  0.2555
   48MOL0     C 6372   6.792   2.226   0.611 -0.9652  0.6700 -0.6474
   48MOL0     C 6373   6.658   2.237   0.659 -0.3186  0.2214 -0.4417
   48MOL0     C 6374   6.608   2.373   0.710 -0.5650  0.9074  0.2294
   48MOL0     O 6375   6.699   2.469   0.722  0.4540 -0.3139 -0.2245
   48MOL0     C 6376   6.655   2.594   0.772 -0.9252  1.3773  0.4205
   48MOL0     C 6377   6.571   2.672   0.700  0.5389  0.8354  0.7285
   48MOL0     C 6378   6.509   2.785   0.765  0.3826  0.5683  1.2004
   48MOL0     C 6379   6.532   2.811   0.895 -0.7183  0.4862 -0.0194
   48MOL0     O 6380   6.457   2.919   0.936 -0.1569 -1.1725 -0.4499
   48MOL0     C 6381   6.451   2.953   1.074 -0.4205  0.3974  1.7616
   48MOL0     C 6382   6.315   3.030   1.099  0.9741  0.0853  0.6037
   48MOL0     C 6383   6.298   3.170   1.029  0.3322  0.1856  0.3983
   48MOL0     C 6384   6.159   3.232   1.090 -0.1337 -0.1008 -0.2356
   48MOL0     C 6385   6.143   3.374   1.023 -0.1786  0.8213 -0.0782
   48MOL0     C 6386   5.995   3.418   1.012  0.5098  0.6539 -0.4155
   48MOL0     C 6387   5.983   3.558   0.948 -0.3748  0.0973  0.5166
   48MOL0     C 6388   6.021   3.558   0.796 -0.4268  0.2677 -1.0980
   48MOL0    Cl 6389   5.906   3.654   0.701 -0.2834  0.7156 -0.5041
   48MOL0     C 6390   6.616   2.725   0.969 -0.7730 -0.2496 -0.1484
   48MOL0     C 6391   6.691   2.621   0.903  0.4235  0.1019 -0.5357
   48MOL0     O 6392   6.489   2.382   0.727  0.4075  0.2074  0.6260
   48MOL0     C 6393   6.581   2.126   0.640 -0.0796 -0.0446  0.2073
   48MOL0     C 6394   6.619   2.009   0.574 -0.4875 -0.2962 -0.1212
   48MOL0     N 6395   7.174   1.813  -0.067  0.7595 -0.6874  0.2437
   48MOL0     N 6396   7.298   1.812  -0.074  1.2731 -1.2264 -0.8211
   48MOL0     C 6397   7.487   0.871   0.324 -0.0493 -0.0900  1.3623
   48MOL0     C 6398   7.483   0.743   0.373  0.4406  0.7656 -0.6955
   48MOL0     C 6399   7.460   0.409   0.646  0.0302 -0.0110 -0.4240
   48MOL0     C 6400   7.513   0.349   0.760 -0.8912  0.0380  0.1163
   48MOL0     C 6401   7.456   0.238   0.817 -0.9093  0.4311 -0.8363
   48MOL0     C 6402   7.344   0.180   0.772  0.5125  0.9181 -0.0644
   48MOL0     O 6403   7.276   0.068   0.824 -0.3371  0.1133 -0.5158
   48MOL0     C 6404   7.330  -0.004   0.936  0.4844 -0.2771 -0.7132
   48MOL0     C 6405   7.419  -0.105   0.882 -0.6388  0.0732  0.9651
   48MOL0     C 6406   7.454  -0.217   0.986  0.8943  0.6308 -0.0063
   48MOL0     C 6407   7.509  -0.162   1.130 -0.8762 -0.4926  0.3982
   48MOL0     C 6408   7.528  -0.275   1.212  0.8254  0.1209  0.1496
   48MOL0     C 6409   7.529  -0.374   1.287  0.4765 -0.4892  0.7393
   48MOL0     C 6410   7.300   0.220   0.648 -0.6994 -0.1874 -0.3906
   48MOL0     C 6411   7.358   0.332   0.586  1.6536 -0.9361 -0.3452
   48MOL0     C 6412   7.296   0.378   0.460 -0.5961  0.7837 -1.5198
   48MOL0     H 6413   7.802   0.660   0.414  1.1190  1.4206 -0.8863
   48MOL0     H 6414   7.830   0.907   0.318 -0.4042  0.2554 -1.4210
   48MOL0     H 6415   7.776   1.042   0.121 -0.2151  1.1733 -1.4119
   48MOL0     H 6416   7.671   1.179   0.103 -1.7115  0.7608  1.0885
   48MOL0     H 6417   7.913   1.220   0.211 -0.4671 -0.8977 -0.8910
   48MOL0     H 6418   7.834   1.164   0.351 -1.8081 -2.9922 -1.5565
   48MOL0     H 6419   7.811   1.390   0.344  0.9498 -0.3967 -0.1132
   48MOL0     H 6420   7.640   1.335   0.313  0.1375 -1.3970 -1.4173
   48MOL0     H 6421   7.853   1.397   0.097 -0.3803 -2.9101  0.3409
   48MOL0     H 6422   7.685   1.379   0.071 -1.0544 -3.2649  3.0690
   48MOL0     H 6423   7.776   1.609   0.250  0.7597 -0.3013  0.0850
   48MOL0     H 6424   7.797   1.634   0.086  1.2374  0.7631  1.1298
   48MOL0     H 6425   7.554   1.587   0.045  0.6066  0.2406 -0.1336
   48MOL0     H 6426   7.529   1.541   0.220  1.9535 -1.7660  1.4054
   48MOL0     H 6427   7.632   1.799   0.247  0.7082 -2.7743  1.4728
   48MOL0     H 6428   7.478   1.735   0.268 -0.0243 -2.0074 -0.6978
   48MOL0     H 6429   7.514   1.941   0.125 -2.6409  1.2345 -1.9457
   48MOL0     H 6430   7.556   1.832  -0.009 -1.6515  1.4425 -1.6289
   48MOL0     H 6431   7.236   1.857   0.252 -0.7287  1.3641  0.8731
   48MOL0     H 6432   6.931   1.914   0.098  2.0314  1.8214 -0.7346
   48MOL0     H 6433   6.932   1.748   0.042 -1.8399  1.8282 -0.6649
   48MOL0     H 6434   7.017   1.668   0.241 -3.0562 -0.8632 -1.2389
   48MOL0     H 6435   6.999   1.849   0.313 -0.0313  1.2872  0.4121
   48MOL0     H 6436   6.834   1.666   0.370  6.1450 -0.6779 -2.6027
   48MOL0     H 6437   6.775   1.683   0.199  0.0963 -0.2258  0.6279
   48MOL0     H 6438   6.637   1.827   0.346 -0.6974 -0.9905 -0.2097
   48MOL0     H 6439   6.746   1.940   0.273  2.2239  0.3052  2.2821
   48MOL0     H 6440   6.940   2.092   0.532 -0.6021 -2.3892  1.6416
   48MOL0     H 6441   6.867   2.304   0.610  0.7317 -0.7894  1.5883
   48MOL0     H 6442   6.556   2.641   0.597  0.1153  0.6740  0.8368
   48MOL0     H 6443   6.446   2.854   0.709  0.0887 -0.6409 -0.0132
   48MOL0     H 6444   6.457   2.864   1.136 -0.1968  0.5865  2.0153
   48MOL0     H 6445   6.534   3.020   1.097 -1.9951  1.9488  3.2744
   48MOL0     H 6446   6.232   2.963   1.078 -0.0852  1.5106  0.1354
   48MOL0     H 6447   6.316   3.052   1.206  0.5560  0.8282  0.4639
   48MOL0     H 6448   6.382   3.238   1.051 -0.9563  0.8836  3.7238
   48MOL0     H 6449   6.298   3.139   0.924  1.0261 -0.2548  0.5240
   48MOL0     H 6450   6.169   3.257   1.196 -2.0988 -0.5591  0.0956
   48MOL0     H 6451   6.075   3.162   1.082 -0.2822 -0.0956  1.1365
   48MOL0     H 6452   6.187   3.365   0.923 -0.4434  3.0264 -0.4509
   48MOL0     H 6453   6.208   3.451   1.064  2.2561  0.3727 -2.7610
   48MOL0     H 6454   5.937   3.347   0.953 -2.1258  0.7687  1.8275
   48MOL0     H 6455   5.958   3.413   1.115  1.5095 -0.6126 -0.0900
   48MOL0     H 6456   6.049   3.615   1.014 -0.5937 -1.2665  1.9863
   48MOL0     H 6457   5.880   3.594   0.944  0.0187  1.1860 -2.9313
   48MOL0     H 6458   6.124   3.588   0.774  0.6899 -1.1812  1.6735
   48MOL0     H 6459   6.017   3.453   0.767 -0.8216  0.0039 -0.0937
   48MOL0     H 6460   6.638   2.749   1.073  1.1052 -0.2179 -0.5154
   48MOL0     H 6461   6.755   2.555   0.961  0.7764  0.9638  0.0734
   48MOL0     H 6462   6.480   2.133   0.679  0.6697  1.3200  2.0960
   48MOL0     H 6463   6.544   1.932   0.559 -0.3799 -0.4269  0.0021
   48MOL0     H 6464   7.392   0.921   0.307 -0.9159 -1.4219  2.1097
   48MOL0     H 6465   7.398   0.688   0.412  0.7054  2.4812  2.7424
   48MOL0     H 6466   7.600   0.394   0.807 -2.3824  2.1467  1.0079
   48MOL0     H 6467   7.503   0.192   0.903  3.1048  2.4631 -1.6642
   48MOL0     H 6468   7.251  -0.046   1.000  1.3049 -0.0199  0.5139
   48MOL0     H 6469   7.382   0.056   1.012 -2.0811 -0.2746  1.1990
   48MOL0     H 6470   7.505  -0.065   0.828 -0.3775 -1.5462  0.1175
   48MOL0     H 6471   7.368  -0.166   0.806  2.0269  0.4389 -1.2706
   48MOL0     H 6472   7.525  -0.294   0.954 -1.7598 -1.3589 -1.5402
   48MOL0     H 6473   7.360  -0.269   1.004 -0.4767  2.2611 -1.9487
   48MOL0     H 6474   7.609  -0.122   1.110 -2.2628  1.5459 -3.9032
   48MOL0     H 6475   7.438  -0.096   1.180 -1.8639 -3.2060  2.8579
   48MOL0     H 6476   7.533  -0.458   1.353 -2.0823 -1.0027  0.3398
   48MOL0     H 6477   7.218   0.170   0.598 -1.1023  0.7368 -0.6869
   48MOL0     H 6478   7.291   0.487   0.466 -1.7447  0.7702 -2.0307
   48MOL0     H 6479   7.362   0.359   0.375  4.2529 -1.6927  2.2740
   48MOL0     H 6480   7.196   0.337   0.442 -0.2369 -0.1446 -1.4513
   49MOL0     O 6481   6.904   6.773   7.541  0.0857 -0.2373 -0.4505
   49MOL0     C 6482   6.971   6.724   7.628  0.0942  0.2542 -0.0691
   49MOL0     O 6483   6.939   6.708   7.765 -0.0855  0.1787 -0.2225
   49MOL0     C 6484   6.832   6.786   7.812  0.0162 -0.1866  1.2456
   49MOL0     C 6485   6.825   6.922   7.788  0.2380  0.0075 -0.2702
   49MOL0     C 6486   6.724   6.991   7.858  0.8650 -0.2999 -0.5849
   49MOL0     C 6487   6.636   6.931   7.948 -0.0047  0.2412 -0.3777
   49MOL0     O 6488   6.533   6.993   8.013  0.1157  0.4247  0.3340
   49MOL0     C 6489   6.509   7.133   8.009  0.0031 -0.1335  0.3265
   49MOL0     C 6490   6.567   7.200   8.138  0.7836 -0.1607 -0.6284
   49MOL0     C 6491   6.476   7.176   8.255  0.7337  0.6383  0.5920
   49MOL0     C 6492   6.525   7.262   8.381 -0.3850  0.7849  0.1070
   49MOL0     C 6493   6.437   7.222   8.493 -0.6475 -0.9680 -0.0446
   49MOL0     C 6494   6.504   7.251   8.624  0.3355 -0.2043  0.2378
   49MOL0     C 6495   6.398   7.247   8.734  0.7570  0.7493 -0.4102
   49MOL0     C 6496   6.443   7.324   8.861 -0.6768  0.8909 -0.1082
   49MOL0     N 6497   6.315   7.338   8.944 -1.2139  0.6260 -0.9217
   49MOL0     C 6498   6.266   7.241   9.031 -0.0586 -0.5279  0.8033
   49MOL0     C 6499   6.176   7.316   9.100  0.2596  0.9204  0.2470
   49MOL0     C 6500   6.111   7.279   9.233 -0.4426 -0.2874  1.1578
   49MOL0     C 6501   5.961   7.251   9.222  0.1912 -0.3586  0.4796
   49MOL0     C 6502   5.901   7.225   9.357  0.6578 -1.1689 -0.0427
   49MOL0     C 6503   5.748   7.199   9.327 -0.7448  0.2632 -0.5591
   49MOL0     O 6504   5.700   7.181   9.463  0.9011  0.4010 -0.1192
   49MOL0     C 6505   5.615   7.280   9.524  1.6579 -0.3444  0.7025
   49MOL0     C 6506   5.582   7.405   9.464  1.0905 -0.4588  0.0539
   49MOL0     C 6507   5.511   7.506   9.531  1.2027 -0.0740 -0.7995
   49MOL0     C 6508   5.463   7.472   9.659  0.4403 -0.4123  0.0026
   49MOL0     C 6509   5.377   7.564   9.726  0.6163  0.4527 -0.4325
   49MOL0     O 6510   5.320   7.530   9.851  0.0252 -0.7767  0.0848
   49MOL0     C 6511   5.277   7.635   9.929 -0.0050  0.7805  0.0415
   49MOL0     C 6512   5.154   7.624   9.994 -0.2088  0.1649 -0.0775
   49MOL0     C 6513   5.104   7.726  10.076  0.4711  0.0327 -0.2788
   49MOL0     C 6514   5.166   7.851  10.075 -0.4702  0.7910 -0.4098
   49MOL0     O 6515   5.111   7.941  10.161  0.5983  0.5789 -0.0906
   49MOL0     C 6516   5.165   8.078  10.167  0.2948 -0.2643  0.0277
   49MOL0     C 6517   5.260   8.109  10.275  0.2606  0.1993  0.3339
   49MOL0     C 6518   5.355   8.225  10.240  0.1073 -0.0431  0.2222
   49MOL0     C 6519   5.279   8.357  10.230  0.2516 -0.4830  0.2805
   49MOL0     C 6520   5.357   8.485  10.217  0.2189 -0.7849 -0.3014
   49MOL0     C 6521   5.426   8.483  10.075  0.2731 -0.0195 -0.9166
   49MOL0     C 6522   5.470   8.630  10.040 -0.4091  0.0962  0.5927
   49MOL0     C 6523   5.508   8.649   9.891  1.1471  0.0531  0.8164
   49MOL0    Cl 6524   5.646   8.552   9.817  1.0696  0.2583 -0.0098
   49MOL0     C 6525   5.295   7.865  10.019  0.2911  0.2014  0.4709
   49MOL0     C 6526   5.346   7.753   9.949  0.7144  0.9873 -0.9021
   49MOL0     O 6527   5.393   7.681   9.686 -0.2018  0.2089  0.8782
   49MOL0     C 6528   5.482   7.347   9.718  0.0706  0.1811  0.1024
   49MOL0     C 6529   5.550   7.252   9.643 -0.2193  0.0502 -0.4651
   49MOL0     N 6530   6.157   7.439   9.047 -0.3694 -0.2509  0.1845
   49MOL0     N 6531   6.240   7.449   8.954 -0.2039  0.2880  0.1004
   49MOL0     C 6532   6.644   6.797   7.978 -0.9856  0.0682 -0.4950
   49MOL0     C 6533   6.748   6.723   7.914  0.0614  0.6917  0.5352
   49MOL0     C 6534   7.107   6.684   7.591 -0.7810  0.6695  0.6419
   49MOL0     C 6535   7.202   6.704   7.697  0.0925 -0.2393 -0.4289
   49MOL0     C 6536   7.339   6.664   7.685  0.4079 -0.5199  0.2065
   49MOL0     C 6537   7.382   6.618   7.566  0.3537  0.2802  0.2304
   49MOL0     O 6538   7.517   6.579   7.564  1.0387  0.2603 -0.0394
   49MOL0     C 6539   7.603   6.627   7.455 -0.3843 -0.7745 -0.0063
   49MOL0     C 6540   7.637   6.781   7.477  0.8130  1.8937  0.7648
   49MOL0     C 6541   7.759   6.811   7.386  0.3455 -0.3882 -0.0001
   49MOL0     C 6542   7.878   6.877   7.456  0.1932  0.5894 -0.0184
   49MOL0     C 6543   7.848   7.012   7.522  0.5373  0.8796 -0.8181
   49MOL0     C 6544   7.815   7.107   7.585  1.0579 -0.5746  0.5999
   49MOL0     C 6545   7.292   6.611   7.453 -0.8018  0.4042 -0.3479
   49MOL0     C 6546   7.160   6.644   7.465  0.1417 -0.4944  0.2226
   49MOL0     C 6547   7.069   6.622   7.346 -0.5493 -0.0818  0.4625
   49MOL0     H 6548   6.890   6.973   7.717  0.5497 -2.9715 -2.3228
   49MOL0     H 6549   6.720   7.096   7.833  0.5334 -0.5580 -1.6686
   49MOL0     H 6550   6.565   7.174   7.925 -0.7262 -1.5732 -0.8969
   49MOL0     H 6551   6.401   7.145   8.000 -0.1934 -2.4356 -1.3399
   49MOL0     H 6552   6.578   7.307   8.117 -2.8819  0.2659 -1.0003
   49MOL0     H 6553   6.665   7.153   8.151 -0.0711 -3.7397 -4.6054
   49MOL0     H 6554   6.469   7.069   8.279 -0.7020  0.8557  1.2423
   49MOL0     H 6555   6.376   7.214   8.233  1.4107  2.8066  1.0254
   49MOL0     H 6556   6.629   7.242   8.409 -0.6386  0.2573  0.6921
   49MOL0     H 6557   6.512   7.371   8.372  0.0809  0.8550  0.2360
   49MOL0     H 6558   6.348   7.284   8.479  1.2174  1.7595 -0.6275
   49MOL0     H 6559   6.416   7.116   8.480 -0.9993 -0.5453 -4.2344
   49MOL0     H 6560   6.584   7.179   8.642 -0.0412 -1.4720 -2.5040
   49MOL0     H 6561   6.550   7.350   8.625 -1.9321  0.9586 -1.1363
   49MOL0     H 6562   6.370   7.143   8.754  4.8924 -0.1057  1.9984
   49MOL0     H 6563   6.305   7.295   8.702 -0.8795 -1.2818  0.9682
   49MOL0     H 6564   6.523   7.274   8.917 -1.9407 -2.5082 -1.1269
   49MOL0     H 6565   6.484   7.421   8.831  1.7089 -0.1973 -0.6071
   49MOL0     H 6566   6.288   7.134   9.031  0.6096 -0.6667 -4.4218
   49MOL0     H 6567   6.168   7.195   9.275  1.1086 -0.1272 -0.4809
   49MOL0     H 6568   6.129   7.361   9.303  0.2007  1.8986 -1.3942
   49MOL0     H 6569   5.918   7.340   9.174 -1.7287 -0.1409  2.4185
   49MOL0     H 6570   5.953   7.163   9.157 -0.8605 -1.0427  1.5033
   49MOL0     H 6571   5.915   7.317   9.414  1.3555 -0.8191 -0.7723
   49MOL0     H 6572   5.952   7.147   9.414  1.0723 -0.3153  0.7749
   49MOL0     H 6573   5.744   7.105   9.272 -0.8558 -0.7846  1.1788
   49MOL0     H 6574   5.693   7.274   9.268 -0.6168  1.0742  0.3143
   49MOL0     H 6575   5.603   7.438   9.362 -0.5913  2.4460  0.5240
   49MOL0     H 6576   5.493   7.598   9.478  4.2124  0.5291 -0.9489
   49MOL0     H 6577   5.099   7.530   9.994 -2.0557  1.1477 -2.4149
   49MOL0     H 6578   5.011   7.693  10.121  0.4655 -0.4258 -0.6084
   49MOL0     H 6579   5.204   8.104  10.068 -2.3834  0.3537 -0.9711
   49MOL0     H 6580   5.071   8.133  10.176 -0.9634 -2.4247  1.2181
   49MOL0     H 6581   5.209   8.112  10.372  0.8034  0.5777  0.6067
   49MOL0     H 6582   5.330   8.025  10.283  1.2621  1.2289  3.9846
   49MOL0     H 6583   5.438   8.242  10.309 -0.0403  0.6237  0.2379
   49MOL0     H 6584   5.404   8.196  10.146  0.3658  1.1309 -0.0193
   49MOL0     H 6585   5.227   8.359  10.326  2.1568 -0.9253  1.3851
   49MOL0     H 6586   5.202   8.349  10.152  0.7001 -2.7874 -0.0113
   49MOL0     H 6587   5.429   8.492  10.299  0.1822 -0.1333 -0.3202
   49MOL0     H 6588   5.292   8.573  10.217  0.7046 -0.3916 -1.9767
   49MOL0     H 6589   5.513   8.416  10.080 -0.5414 -1.0188  2.3036
   49MOL0     H 6590   5.363   8.454   9.991  0.0652 -0.1473 -0.7177
   49MOL0     H 6591   5.558   8.659  10.099  1.4770 -1.2049 -1.4256
   49MOL0     H 6592   5.392   8.701  10.068 -0.7995  0.1872 -0.6659
   49MOL0     H 6593   5.411   8.624   9.846 -0.6780 -3.7761  5.8523
   49MOL0     H 6594   5.529   8.752   9.863 -3.0379  1.3672  1.6740
   49MOL0     H 6595   5.352   7.957  10.024 -0.5043  0.8846 -1.8258
   49MOL0     H 6596   5.450   7.760   9.918  1.8852 -0.0148  2.3761
   49MOL0     H 6597   5.440   7.319   9.814  0.0396 -2.7959 -0.6870
   49MOL0     H 6598   5.567   7.160   9.698 -2.1840  2.2243  4.3131
   49MOL0     H 6599   6.584   6.751   8.055  0.8072 -1.4273  0.1098
   49MOL0     H 6600   6.770   6.622   7.947 -2.4430 -0.0005  0.3220
   49MOL0     H 6601   7.172   6.757   7.787  4.4766  2.4303 -0.2792
   49MOL0     H 6602   7.410   6.676   7.767  3.1497 -2.2573 -1.7579
   49MOL0     H 6603   7.562   6.614   7.354  2.6731 -1.1211 -1.3382
   49MOL0     H 6604   7.688   6.557   7.449 -2.4245 -3.4802  0.6901
   49MOL0     H 6605   7.662   6.799   7.581 -0.5999 -0.2378  1.5454
   49MOL0     H 6606   7.548   6.838   7.449 -0.8836 -0.4280  1.0936
   49MOL0     H 6607   7.727   6.882   7.310 -2.3735  1.1467  2.3945
   49MOL0     H 6608   7.795   6.727   7.326  4.2936  0.1577  1.2947
   49MOL0     H 6609   7.922   6.809   7.529 -1.6073 -2.4364 -1.5737
   49MOL0     H 6610   7.941   6.909   7.373  0.2092 -1.4557 -0.8475
   49MOL0     H 6611   7.791   7.203   7.626 -0.8992 -0.8054  0.0597
   49MOL0     H 6612   7.325   6.563   7.361  1.0831  1.2756 -0.1678
   49MOL0     H 6613   7.052   6.719   7.298 -2.6949 -0.4182  0.4577
   49MOL0     H 6614   7.103   6.551   7.270 -0.5434  2.1220 -1.7081
   49MOL0     H 6615   6.969   6.590   7.376 -2.7267  1.9267 -3.8171
   50MOL0     O 6616   7.651   5.250  10.938  0.0027  1.1199 -0.8966
   50MOL0     C 6617   7.604   5.138  10.923 -0.3498 -0.8671  0.3235
   50MOL0     O 6618   7.494   5.121  10.849  0.3788  0.4224  0.4365
   50MOL0     C 6619   7.437   5.227  10.784  0.1511  0.2910 -0.1932
   50MOL0     C 6620   7.412   5.356  10.839  0.2769 -0.0195 -0.4778
   50MOL0     C 6621   7.346   5.454  10.767  0.1321 -0.4485 -0.1870
   50MOL0     C 6622   7.283   5.418  10.638 -0.3032  0.4934 -1.0792
   50MOL0     O 6623   7.213   5.520  10.572 -0.9386  0.1218 -0.2244
   50MOL0     C 6624   7.168   5.505  10.440 -0.4001  0.2262  0.5158
   50MOL0     C 6625   7.271   5.535  10.321  0.9142 -0.3598  0.8520
   50MOL0     C 6626   7.186   5.593  10.207 -0.0221 -0.0203  0.0073
   50MOL0     C 6627   7.291   5.618  10.091 -0.4714 -0.3199  0.7208
   50MOL0     C 6628   7.239   5.694   9.966  0.0442  0.9826 -0.5559
   50MOL0     C 6629   7.206   5.833   9.991 -0.2112  1.1958 -0.6901
   50MOL0     C 6630   7.111   5.862   9.878  0.0061 -0.5235 -0.4360
   50MOL0     C 6631   7.088   6.018   9.875  0.5249  0.0367 -1.4710
   50MOL0     N 6632   7.213   6.080   9.833  0.4515 -0.1673 -0.0832
   50MOL0     C 6633   7.224   6.145   9.714 -0.6056  0.7235  0.5284
   50MOL0     C 6634   7.295   6.257   9.733  0.4649  0.5013 -0.7343
   50MOL0     C 6635   7.325   6.371   9.645  1.1836 -0.5994 -0.2498
   50MOL0     C 6636   7.230   6.496   9.676  0.0707  0.0124  0.8565
   50MOL0     C 6637   7.281   6.613   9.593  0.3665 -0.5806 -0.3256
   50MOL0     C 6638   7.203   6.744   9.634  0.0819 -0.6264  0.7384
   50MOL0     O 6639   7.092   6.738   9.545  0.2615 -0.3611  0.5689
   50MOL0     C 6640   7.010   6.851   9.531  0.3411  0.4738 -0.3700
   50MOL0     C 6641   7.029   6.965   9.603  0.7312  0.6523 -0.7684
   50MOL0     C 6642   6.944   7.079   9.605 -0.2309 -0.1448 -0.0810
   50MOL0     C 6643   6.838   7.080   9.514 -0.5724  0.4052  0.6198
   50MOL0     C 6644   6.744   7.192   9.507  0.2437 -0.4005 -0.3131
   50MOL0     O 6645   6.611   7.171   9.464  0.1812 -0.0757  0.6471
   50MOL0     C 6646   6.528   7.284   9.461 -0.4337 -0.6340 -0.0129
   50MOL0     C 6647   6.486   7.341   9.575  0.0318  0.8665 -0.3073
   50MOL0     C 6648   6.398   7.456   9.571 -0.0604 -0.3114 -0.6740
   50MOL0     C 6649   6.349   7.507   9.453 -0.2915 -0.1519  1.0703
   50MOL0     O 6650   6.261   7.607   9.476  0.8656 -0.6087 -0.7828
   50MOL0     C 6651   6.145   7.645   9.388  0.0728  0.3830  0.2109
   50MOL0     C 6652   6.032   7.714   9.478  0.3359  0.3067 -0.6194
   50MOL0     C 6653   5.943   7.617   9.559 -1.3883 -0.4274  0.4494
   50MOL0     C 6654   6.025   7.517   9.643  0.1736 -0.0970  0.6792
   50MOL0     C 6655   5.954   7.471   9.765  0.2918  0.4298 -0.5642
   50MOL0     C 6656   5.803   7.436   9.762  0.1066  0.3091  0.5499
   50MOL0     C 6657   5.747   7.436   9.908  0.3689 -0.4303 -0.7642
   50MOL0     C 6658   5.721   7.577   9.970 -0.9488  0.3984 -0.6520
   50MOL0    Cl 6659   5.569   7.556  10.054  0.0908 -0.5043  0.1841
   50MOL0     C 6660   6.389   7.446   9.334 -1.4723 -0.5947  0.8014
   50MOL0     C 6661   6.486   7.338   9.338  0.3675 -0.5361 -0.3031
   50MOL0     O 6662   6.787   7.300   9.549  0.1681  1.0133  0.4917
   50MOL0     C 6663   6.815   6.960   9.434  0.3303 -0.5764  0.0535
   50MOL0     C 6664   6.897   6.844   9.448 -0.2285  0.2370  0.0753
   50MOL0     N 6665   7.337   6.250   9.865 -0.3189  0.1535  0.0410
   50MOL0     N 6666   7.283   6.142   9.924  0.3295 -0.6109 -0.0088
   50MOL0     C 6667   7.297   5.285  10.588 -0.2967  0.4531 -0.4595
   50MOL0     C 6668   7.374   5.193  10.660  0.5789  0.1827  0.1805
   50MOL0     C 6669   7.677   5.020  10.987  0.2663  0.3757  0.0721
   50MOL0     C 6670   7.808   5.033  11.001 -0.0071 -0.4323  0.4265
   50MOL0     C 6671   7.891   4.939  11.058 -0.1303 -0.1860 -1.1434
   50MOL0     C 6672   7.835   4.813  11.094 -0.3228 -0.8911  0.4268
   50MOL0     O 6673   7.910   4.696  11.116 -0.1179  0.0788  0.0507
   50MOL0     C 6674   8.038   4.725  11.175 -0.6995  0.4730 -0.3028
   50MOL0     C 6675   8.104   4.596  11.223  0.8633 -0.5710  0.0951
   50MOL0     C 6676   8.023   4.507  11.331 -0.2585  0.1017  0.5819
   50MOL0     C 6677   8.116   4.395  11.376  0.6145 -0.1430 -0.5211
   50MOL0     C 6678   8.108   4.289  11.279 -0.1218  0.2341 -0.2344
   50MOL0     C 6679   8.094   4.203  11.196  0.3775 -0.0260 -0.4365
   50MOL0     C 6680   7.700   4.797  11.060  0.0602  0.0394 -0.1548
   50MOL0     C 6681   7.614   4.899  11.020  0.0713  0.8214 -0.4763
   50MOL0     C 6682   7.463   4.872  11.012 -0.7846 -0.7746  0.2188
   50MOL0     H 6683   7.455   5.384  10.935  1.1778 -2.3371 -0.1586
   50MOL0     H 6684   7.337   5.556  10.804 -1.4031 -1.0722  1.2831
   50MOL0     H 6685   7.134   5.402  10.426 -1.6763  0.6675  0.2689
   50MOL0     H 6686   7.082   5.572  10.434 -1.3024 -0.8005  1.5637
   50MOL0     H 6687   7.322   5.441  10.299 -0.4864 -0.7292 -1.1672
   50MOL0     H 6688   7.353   5.602  10.350  1.9449 -0.6179 -1.2888
   50MOL0     H 6689   7.154   5.694  10.234  0.3915  0.6456 -1.8728
   50MOL0     H 6690   7.103   5.528  10.179 -0.3988 -0.1855  1.4050
   50MOL0     H 6691   7.381   5.672  10.122  0.9764 -1.7994 -0.6963
   50MOL0     H 6692   7.329   5.520  10.062  0.0021 -0.2342  1.0341
   50MOL0     H 6693   7.313   5.678   9.887  0.0849 -2.2919  0.0214
   50MOL0     H 6694   7.155   5.639   9.924 -0.0791  0.9438 -0.2653
   50MOL0     H 6695   7.151   5.837  10.085  1.8700 -0.5607  0.6965
   50MOL0     H 6696   7.301   5.887   9.991  2.1395 -2.5437  0.3872
   50MOL0     H 6697   7.018   5.806   9.889  0.6490 -1.2643  1.7284
   50MOL0     H 6698   7.157   5.837   9.783  2.9564 -0.2822  0.8307
   50MOL0     H 6699   7.007   6.051   9.810 -0.5422  1.2952  0.3912
   50MOL0     H 6700   7.056   6.039   9.978 -3.4972 -0.7696 -2.3693
   50MOL0     H 6701   7.158   6.127   9.630  0.1686 -3.7437  0.6531
   50MOL0     H 6702   7.428   6.406   9.644  1.1389 -0.4443 -1.5098
   50MOL0     H 6703   7.315   6.352   9.538 -0.0929 -0.1976 -0.2268
   50MOL0     H 6704   7.124   6.478   9.653 -0.4591  1.9612  1.5618
   50MOL0     H 6705   7.240   6.516   9.783  1.2682  0.0224  0.7510
   50MOL0     H 6706   7.279   6.596   9.485  4.4094  0.7523 -0.7867
   50MOL0     H 6707   7.389   6.628   9.606  1.1212 -3.0587 -2.7809
   50MOL0     H 6708   7.271   6.826   9.610  2.5171 -2.0531  2.2934
   50MOL0     H 6709   7.182   6.754   9.741  1.7327 -2.3696  1.2924
   50MOL0     H 6710   7.111   6.964   9.673  2.3680  2.3936 -2.5478
   50MOL0     H 6711   6.971   7.153   9.679 -0.3248  2.0191 -2.0899
   50MOL0     H 6712   6.527   7.308   9.670  0.5761 -1.2145 -1.2043
   50MOL0     H 6713   6.375   7.516   9.659  4.7410  0.0742  0.6035
   50MOL0     H 6714   6.166   7.724   9.315 -1.1458 -0.3696 -1.0027
   50MOL0     H 6715   6.112   7.560   9.328 -1.2582 -1.0117  2.7430
   50MOL0     H 6716   6.083   7.779   9.549 -0.9149 -1.6206  2.2766
   50MOL0     H 6717   5.978   7.783   9.412  1.8925  2.3847  0.2031
   50MOL0     H 6718   5.863   7.668   9.614  0.9448  2.1554  1.6666
   50MOL0     H 6719   5.890   7.574   9.473  0.5391  3.4837 -3.0921
   50MOL0     H 6720   6.126   7.553   9.662  1.4166 -1.8429 -2.0079
   50MOL0     H 6721   6.057   7.434   9.579 -0.4674  1.0432 -1.2055
   50MOL0     H 6722   5.965   7.543   9.846 -2.3654 -0.7377  0.9427
   50MOL0     H 6723   5.988   7.373   9.801 -0.4444 -0.1393 -1.3794
   50MOL0     H 6724   5.748   7.517   9.714 -1.7968 -0.6168  1.0747
   50MOL0     H 6725   5.792   7.342   9.706  0.3942  0.2973  0.5111
   50MOL0     H 6726   5.824   7.390   9.970  0.4103  0.8267  0.1448
   50MOL0     H 6727   5.656   7.374   9.907 -1.3603  1.2010  5.9005
   50MOL0     H 6728   5.811   7.614  10.020  0.1586  1.1771 -3.0790
   50MOL0     H 6729   5.702   7.643   9.885  0.3622  0.8178 -0.6402
   50MOL0     H 6730   6.357   7.484   9.238 -0.7120 -1.3274  0.2310
   50MOL0     H 6731   6.530   7.291   9.251 -0.8668 -0.6153 -0.9098
   50MOL0     H 6732   6.727   6.967   9.371 -0.7753  2.1812  1.6997
   50MOL0     H 6733   6.863   6.753   9.402  0.3631 -0.7994  1.6033
   50MOL0     H 6734   7.245   5.236  10.506  0.9095 -1.7434  0.0233
   50MOL0     H 6735   7.369   5.085  10.644 -0.8811  0.4801 -1.7220
   50MOL0     H 6736   7.857   5.123  10.965 -0.2819 -0.6322 -0.4548
   50MOL0     H 6737   7.996   4.963  11.064 -0.8107  4.2265 -3.1070
   50MOL0     H 6738   8.013   4.793  11.256 -0.7151 -2.2137  2.1132
   50MOL0     H 6739   8.094   4.770  11.092 -0.3962 -3.7041 -2.7008
   50MOL0     H 6740   8.191   4.637  11.275 -0.7816  3.1983  0.2397
   50MOL0     H 6741   8.137   4.540  11.135  1.8089  1.7660 -1.1292
   50MOL0     H 6742   7.932   4.473  11.279  0.4797 -0.2815 -0.4918
   50MOL0     H 6743   7.990   4.577  11.409 -0.5331 -0.5062  1.0207
   50MOL0     H 6744   8.214   4.433  11.405  0.3487 -0.0852  0.3525
   50MOL0     H 6745   8.086   4.360  11.476 -1.1685  1.6920 -0.3479
   50MOL0     H 6746   8.087   4.124  11.125 -1.9842 -1.4626  1.2509
   50MOL0     H 6747   7.656   4.699  11.077  0.1530 -0.2246 -1.3829
   50MOL0     H 6748   7.432   4.781  11.064 -0.2617  0.2564  2.4555
   50MOL0     H 6749   7.407   4.958  11.049  1.1466  0.5375  0.2549
   50MOL0     H 6750   7.426   4.872  10.909 -1.6290  2.1357  0.4487
   51MOL0     O 6751   9.027   4.066   0.802 -0.4361 -0.0295 -0.3678
   51MOL0     C 6752   9.139   4.048   0.745 -0.6479 -0.7229 -0.7620
   51MOL0     O 6753   9.187   3.930   0.703  0.2571 -0.8930 -0.4471
   51MOL0     C 6754   9.124   3.809   0.725  0.1769  0.1033 -0.1179
   51MOL0     C 6755   8.991   3.776   0.678  0.3603 -0.4266 -0.0214
   51MOL0     C 6756   8.923   3.662   0.712  0.4298 -1.1613  0.0997
   51MOL0     C 6757   8.994   3.568   0.784  0.3984 -0.7169 -0.3770
   51MOL0     O 6758   8.957   3.439   0.809  0.6023 -0.3895  0.0366
   51MOL0     C 6759   8.835   3.380   0.754  1.4710  0.3257  0.6896
   51MOL0     C 6760   8.709   3.409   0.842  0.2644  0.5685  0.8745
   51MOL0     C 6761   8.746   3.379   0.987 -0.7176  0.5475 -0.3036
   51MOL0     C 6762   8.650   3.453   1.078 -0.0355  0.6210  0.3200
   51MOL0     C 6763   8.684   3.583   1.143 -0.8366  0.2883  1.2243
   51MOL0     C 6764   8.797   3.656   1.076 -0.0470  0.3955  0.1342
   51MOL0     C 6765   8.801   3.792   1.123  0.1021 -0.0755  0.4744
   51MOL0     C 6766   8.913   3.883   1.060  0.3543  0.0053 -0.1889
   51MOL0     N 6767   8.933   4.014   1.120 -0.1624  0.2223  0.2445
   51MOL0     C 6768   9.046   4.088   1.113 -0.4513  1.5382  0.7064
   51MOL0     C 6769   9.006   4.208   1.151 -1.1230 -0.5334 -1.3357
   51MOL0     C 6770   9.103   4.326   1.163 -0.0846 -1.3818  0.5680
   51MOL0     C 6771   9.206   4.310   1.286  0.3345  0.2480  0.0015
   51MOL0     C 6772   9.271   4.440   1.304 -1.4684 -0.5323  0.1899
   51MOL0     C 6773   9.415   4.435   1.336 -0.1593  0.5844  0.2918
   51MOL0     O 6774   9.443   4.565   1.379 -0.4942  0.0203  0.0287
   51MOL0     C 6775   9.578   4.593   1.397  0.3465 -0.1095  0.2007
   51MOL0     C 6776   9.675   4.498   1.438  0.6872 -0.3297 -0.6576
   51MOL0     C 6777   9.794   4.547   1.474 -0.7291 -0.7985  0.4468
   51MOL0     C 6778   9.826   4.678   1.456 -1.2145 -0.5485 -0.2822
   51MOL0     C 6779   9.972   4.713   1.458 -0.7820  0.6587  1.4097
   51MOL0     O 6780  10.018   4.830   1.400 -0.5458  0.1572  0.0005
   51MOL0     C 6781  10.130   4.876   1.459  0.1899 -1.0121  0.0146
   51MOL0     C 6782  10.125   4.912   1.594 -0.8003 -0.2754  0.3048
   51MOL0     C 6783  10.224   4.984   1.645 -0.9327  0.7840 -0.9942
   51MOL0     C 6784  10.343   5.001   1.574  0.1203 -0.7856 -0.0675
   51MOL0     O 6785  10.436   5.085   1.624  0.8113  0.6046 -0.2184
   51MOL0     C 6786  10.567   5.044   1.583 -0.2519 -0.6509 -0.5414
   51MOL0     C 6787  10.665   5.083   1.689 -0.4060  0.2014 -0.8307
   51MOL0     C 6788  10.639   5.007   1.823 -0.4260  0.6401  0.8552
   51MOL0     C 6789  10.730   4.885   1.837  0.0954  0.3618  0.5277
   51MOL0     C 6790  10.660   4.783   1.928  0.1085  0.1253  0.1036
   51MOL0     C 6791  10.738   4.643   1.932 -0.6789 -0.4781 -0.3430
   51MOL0     C 6792  10.879   4.675   1.974  0.0217  0.9910 -0.3178
   51MOL0     C 6793  10.964   4.546   1.991 -0.3463 -2.0052  0.2417
   51MOL0    Cl 6794  10.980   4.431   1.845  0.5832 -0.1981 -0.1537
   51MOL0     C 6795  10.355   4.962   1.443 -0.1044  0.2713 -0.2611
   51MOL0     C 6796  10.246   4.907   1.382  1.2923  0.2266 -0.3193
   51MOL0     O 6797  10.042   4.630   1.517 -0.4697  0.7503  0.8415
   51MOL0     C 6798   9.745   4.769   1.398 -0.3580 -0.6117  0.9317
   51MOL0     C 6799   9.605   4.728   1.383  0.3697  0.7232  0.2041
   51MOL0     N 6800   8.871   4.213   1.187 -0.0334  0.1417 -0.2464
   51MOL0     N 6801   8.829   4.084   1.170 -0.0199 -0.3824  0.4817
   51MOL0     C 6802   9.120   3.601   0.827  0.0997  0.0508  0.2469
   51MOL0     C 6803   9.187   3.719   0.804  0.4777  0.3188  0.1329
   51MOL0     C 6804   9.227   4.168   0.718  0.6183  0.7305 -0.1303
   51MOL0     C 6805   9.165   4.294   0.724 -0.3655 -0.2056 -0.5490
   51MOL0     C 6806   9.215   4.417   0.696 -0.0774 -0.7110  0.3703
   51MOL0     C 6807   9.353   4.418   0.662  0.1494 -0.1680 -0.7791
   51MOL0     O 6808   9.429   4.530   0.640  0.0185 -0.1352  0.0378
   51MOL0     C 6809   9.363   4.647   0.589 -0.7433  0.1022  0.0162
   51MOL0     C 6810   9.463   4.751   0.530 -0.1627 -0.3204 -0.1898
   51MOL0     C 6811   9.536   4.702   0.409  0.6675 -0.2920 -0.3488
   51MOL0     C 6812   9.656   4.782   0.372 -1.8578 -1.0682 -0.1034
   51MOL0     C 6813   9.719   4.728   0.247  0.1731 -0.9798 -0.8017
   51MOL0     C 6814   9.771   4.680   0.152 -0.4937  0.3797  0.8745
   51MOL0     C 6815   9.422   4.296   0.642  0.9350 -0.0254 -0.3602
   51MOL0     C 6816   9.356   4.173   0.669 -0.4883 -0.8755  0.2279
   51MOL0     C 6817   9.441   4.054   0.644 -0.6408  0.2535 -0.5716
   51MOL0     H 6818   8.939   3.838   0.605 -0.4671  0.3974  1.2272
   51MOL0     H 6819   8.820   3.657   0.678  0.4840  2.0711 -0.8445
   51MOL0     H 6820   8.831   3.416   0.651  0.6067  3.2854  1.6561
   51MOL0     H 6821   8.848   3.275   0.729  0.8781  1.0829 -3.6925
   51MOL0     H 6822   8.628   3.345   0.804  0.3983  0.7457  0.2710
   51MOL0     H 6823   8.681   3.514   0.827  4.1249  1.4661 -1.5048
   51MOL0     H 6824   8.851   3.396   1.015 -0.5209  0.8644 -1.1903
   51MOL0     H 6825   8.738   3.271   1.000 -2.0798  0.5225 -1.1103
   51MOL0     H 6826   8.553   3.466   1.029 -0.5997  1.3857  1.5821
   51MOL0     H 6827   8.622   3.385   1.160 -0.7065  1.9537  1.2294
   51MOL0     H 6828   8.600   3.651   1.127  1.4652  2.4758 -3.6119
   51MOL0     H 6829   8.692   3.556   1.249 -2.2020 -3.5043  0.5257
   51MOL0     H 6830   8.885   3.599   1.110 -1.2968 -0.4428  2.2111
   51MOL0     H 6831   8.783   3.650   0.968  0.2812 -0.0044  0.1079
   51MOL0     H 6832   8.814   3.786   1.231  1.9273 -0.5299  0.2728
   51MOL0     H 6833   8.703   3.832   1.095  0.8389  2.5860  1.4087
   51MOL0     H 6834   9.007   3.830   1.078 -0.3024 -1.5705 -1.1773
   51MOL0     H 6835   8.909   3.897   0.952 -0.1438 -2.2646 -0.5167
   51MOL0     H 6836   9.144   4.063   1.072 -1.5367  0.3286 -1.3270
   51MOL0     H 6837   9.161   4.315   1.071  3.0361 -2.1715  2.4600
   51MOL0     H 6838   9.055   4.423   1.173  4.0444  1.0781 -0.8569
   51MOL0     H 6839   9.146   4.273   1.370 -1.0717  1.4485 -0.4160
   51MOL0     H 6840   9.274   4.228   1.264  0.2417 -0.3089  1.6481
   51MOL0     H 6841   9.228   4.497   1.387  1.4520 -0.8804  2.0803
   51MOL0     H 6842   9.257   4.493   1.209 -5.3256 -0.7115  0.4875
   51MOL0     H 6843   9.465   4.405   1.243 -2.6176  0.3693 -1.0593
   51MOL0     H 6844   9.433   4.360   1.414  2.9709  0.8931 -0.0053
   51MOL0     H 6845   9.648   4.394   1.451 -1.3802  0.4025  1.7772
   51MOL0     H 6846   9.870   4.476   1.507  0.8963  0.1766 -1.0379
   51MOL0     H 6847  10.041   4.873   1.649 -0.5633 -0.7229  0.3557
   51MOL0     H 6848  10.237   5.015   1.749 -1.1236 -0.9539 -0.4288
   51MOL0     H 6849  10.580   4.935   1.575  0.5514 -0.5000 -1.5113
   51MOL0     H 6850  10.592   5.095   1.490  1.3434 -1.1199 -0.3975
   51MOL0     H 6851  10.764   5.051   1.654  1.2923  2.7331  1.3048
   51MOL0     H 6852  10.663   5.192   1.692 -3.8984  0.2309  0.2275
   51MOL0     H 6853  10.651   5.083   1.901 -0.3084  1.1303  0.3616
   51MOL0     H 6854  10.536   4.972   1.825 -0.7600  1.5916  2.4424
   51MOL0     H 6855  10.826   4.925   1.872 -1.1326  2.5574  1.5665
   51MOL0     H 6856  10.759   4.858   1.735 -0.4845 -1.7449  0.8677
   51MOL0     H 6857  10.558   4.765   1.891 -0.4921 -1.6314  2.3506
   51MOL0     H 6858  10.654   4.828   2.027 -0.1525 -0.3532  0.3095
   51MOL0     H 6859  10.699   4.571   2.004 -1.4183 -0.5955 -0.8565
   51MOL0     H 6860  10.734   4.597   1.832 -0.0074 -1.7028  0.1725
   51MOL0     H 6861  10.882   4.734   2.066  0.6932  0.4714  0.0064
   51MOL0     H 6862  10.920   4.734   1.891  0.2508  1.3016  0.0125
   51MOL0     H 6863  11.063   4.588   2.016 -0.7868 -0.4644 -0.4695
   51MOL0     H 6864  10.937   4.488   2.080  5.8040 -3.4236  1.6657
   51MOL0     H 6865  10.439   4.975   1.377  0.9619 -0.6442  0.8541
   51MOL0     H 6866  10.243   4.875   1.279  2.4558  0.3952 -0.4220
   51MOL0     H 6867   9.779   4.863   1.355  2.4829 -1.4965  1.0535
   51MOL0     H 6868   9.520   4.777   1.336 -0.1511 -0.2275  0.1145
   51MOL0     H 6869   9.171   3.531   0.893  1.9600  1.8811  0.8767
   51MOL0     H 6870   9.279   3.756   0.848 -0.1943  0.4135  1.5167
   51MOL0     H 6871   9.060   4.310   0.749  0.5383  2.5997  2.1345
   51MOL0     H 6872   9.154   4.506   0.707  0.4287 -0.5812  2.7587
   51MOL0     H 6873   9.303   4.687   0.672 -1.0047 -0.4400  0.0912
   51MOL0     H 6874   9.307   4.612   0.502  1.7027 -5.8487  0.3370
   51MOL0     H 6875   9.539   4.773   0.605  1.4650 -0.9686 -1.5977
   51MOL0     H 6876   9.392   4.833   0.516 -1.3304 -1.6094 -2.4357
   51MOL0     H 6877   9.462   4.712   0.328 -1.8683  0.6901  1.9484
   51MOL0     H 6878   9.565   4.597   0.409  2.5327  0.1761  0.9883
   51MOL0     H 6879   9.615   4.882   0.364 -0.7921 -0.6794 -0.9567
   51MOL0     H 6880   9.728   4.756   0.451 -1.0133 -3.2227 -1.4824
   51MOL0     H 6881   9.811   4.637   0.062 -1.7462 -3.2437  1.8446
   51MOL0     H 6882   9.523   4.291   0.605 -0.2641 -0.6250 -3.8738
   51MOL0     H 6883   9.546   4.079   0.631 -0.6951  1.1373  0.5576
   51MOL0     H 6884   9.436   3.969   0.713 -0.4901 -0.6470 -1.6407
   51MOL0     H 6885   9.400   4.018   0.549 -4.9570  0.3347  1.0275
   52MOL0     O 6886   5.221   0.717   1.503  0.2515  0.2548  0.3812
   52MOL0     C 6887   5.340   0.702   1.531  0.4802  0.5445  0.5461
   52MOL0     O 6888   5.404   0.781   1.630 -0.4170  0.1247  0.3270
   52MOL0     C 6889   5.345   0.900   1.660  0.5935 -0.0891  0.2696
   52MOL0     C 6890   5.254   0.889   1.768  0.2081 -0.2921 -0.6588
   52MOL0     C 6891   5.176   1.004   1.807 -0.4734 -0.0574  0.0136
   52MOL0     C 6892   5.186   1.127   1.747  0.3385 -1.0059  0.3549
   52MOL0     O 6893   5.125   1.248   1.782  0.1752  0.5593  0.8806
   52MOL0     C 6894   5.020   1.262   1.879 -0.0515 -0.7470 -1.3215
   52MOL0     C 6895   5.023   1.408   1.919  0.0258  0.4021  0.4261
   52MOL0     C 6896   4.909   1.440   2.014  0.5569 -1.0186 -0.1244
   52MOL0     C 6897   4.929   1.591   2.053  0.6516 -0.1402  0.0253
   52MOL0     C 6898   4.815   1.620   2.149  0.3161 -0.1963 -0.4695
   52MOL0     C 6899   4.829   1.759   2.222  0.6104  0.6835  0.8357
   52MOL0     C 6900   4.944   1.757   2.308 -0.1335 -0.4543  0.4419
   52MOL0     C 6901   4.942   1.889   2.388 -0.0753 -0.0914 -0.3174
   52MOL0     N 6902   5.069   1.898   2.471 -0.4565  0.7324 -0.0143
   52MOL0     C 6903   5.197   1.911   2.429 -0.6931  0.2286 -0.2609
   52MOL0     C 6904   5.268   1.925   2.545 -0.3130 -0.7175  0.7628
   52MOL0     C 6905   5.422   1.916   2.551 -0.9237  0.0884 -0.1020
   52MOL0     C 6906   5.480   2.048   2.546 -0.0563  1.0861  0.0532
   52MOL0     C 6907   5.424   2.137   2.657  0.0175  0.7674 -0.2246
   52MOL0     C 6908   5.490   2.278   2.670  0.6397  0.0734  1.2346
   52MOL0     O 6909   5.479   2.347   2.538 -0.7130 -0.4831  0.3115
   52MOL0     C 6910   5.509   2.485   2.521 -0.5560  0.7479  0.4581
   52MOL0     C 6911   5.477   2.535   2.397 -0.1196 -0.2159 -0.0574
   52MOL0     C 6912   5.504   2.665   2.355 -0.0010 -0.2538  0.1345
   52MOL0     C 6913   5.581   2.739   2.442  0.8977 -0.5756 -0.5434
   52MOL0     C 6914   5.604   2.883   2.405  0.0449 -0.2477 -0.2438
   52MOL0     O 6915   5.684   2.956   2.492  1.2207  0.5386 -1.0674
   52MOL0     C 6916   5.671   3.092   2.487  0.2942 -0.2636  0.4028
   52MOL0     C 6917   5.726   3.151   2.373  0.2399 -0.4603 -0.0789
   52MOL0     C 6918   5.725   3.286   2.354  0.9353 -1.0125 -0.9433
   52MOL0     C 6919   5.659   3.371   2.443  0.0572 -1.1117  1.1411
   52MOL0     O 6920   5.636   3.499   2.389 -0.2282  0.3381 -0.3069
   52MOL0     C 6921   5.573   3.608   2.469 -0.4083  0.8307  1.3085
   52MOL0     C 6922   5.468   3.675   2.382  0.2592  0.2957 -0.1853
   52MOL0     C 6923   5.529   3.749   2.259  0.0187  0.5847  0.5835
   52MOL0     C 6924   5.436   3.873   2.218 -0.3672 -0.4186  0.8821
   52MOL0     C 6925   5.505   3.923   2.091  0.2970 -0.6334 -1.0697
   52MOL0     C 6926   5.414   4.034   2.047  0.7096  0.4767  0.2797
   52MOL0     C 6927   5.467   4.131   1.939  0.2012 -0.1700 -0.0426
   52MOL0     C 6928   5.508   4.067   1.804 -0.5465 -0.7859 -0.0182
   52MOL0    Cl 6929   5.377   4.018   1.706  0.3938  0.2487 -0.1830
   52MOL0     C 6930   5.617   3.318   2.570 -0.3348 -0.8523 -0.3221
   52MOL0     C 6931   5.625   3.178   2.589  0.3097 -0.5352  0.2551
   52MOL0     O 6932   5.526   2.935   2.325 -0.8201  0.3438 -0.2570
   52MOL0     C 6933   5.617   2.698   2.574  0.2818  0.2151  0.1141
   52MOL0     C 6934   5.582   2.566   2.610 -0.1764 -0.8583  0.2564
   52MOL0     N 6935   5.181   1.929   2.649  0.3628 -0.2053  0.0572
   52MOL0     N 6936   5.061   1.922   2.610 -0.4017 -0.0861 -0.1397
   52MOL0     C 6937   5.275   1.139   1.634 -1.3466  0.2317 -0.1117
   52MOL0     C 6938   5.355   1.027   1.596 -1.7202 -1.3186  0.6329
   52MOL0     C 6939   5.420   0.593   1.454 -0.6716 -0.7716  0.6976
   52MOL0     C 6940   5.542   0.567   1.515 -0.4455  0.3437 -0.5887
   52MOL0     C 6941   5.641   0.482   1.465  0.1248  0.2183 -1.0642
   52MOL0     C 6942   5.610   0.410   1.349 -0.1141 -0.0920 -0.5017
   52MOL0     O 6943   5.694   0.314   1.303 -0.5038 -0.3016 -0.3615
   52MOL0     C 6944   5.832   0.305   1.322  0.1277 -0.6472 -0.4104
   52MOL0     C 6945   5.890   0.187   1.265 -0.0419  1.0867  0.3413
   52MOL0     C 6946   5.896   0.200   1.106  0.6169  0.0058 -0.4241
   52MOL0     C 6947   5.969   0.083   1.053  1.0890  0.0563 -0.2639
   52MOL0     C 6948   6.115   0.100   1.034  0.2599 -0.6172  0.3001
   52MOL0     C 6949   6.236   0.131   1.024  0.8460 -0.3312 -0.1910
   52MOL0     C 6950   5.489   0.426   1.291 -0.3683 -0.1789  0.2328
   52MOL0     C 6951   5.390   0.516   1.337 -0.0906 -0.7530  0.0060
   52MOL0     C 6952   5.253   0.542   1.277 -0.0006 -0.1285 -0.1571
   52MOL0     H 6953   5.233   0.792   1.814 -4.7560  0.0545 -1.6553
   52MOL0     H 6954   5.107   0.984   1.888 -0.4335  0.8259  0.2751
   52MOL0     H 6955   4.922   1.240   1.836 -0.2033 -4.3213  0.4791
   52MOL0     H 6956   5.045   1.197   1.964  0.5223  0.0835 -0.8378
   52MOL0     H 6957   5.005   1.467   1.829  1.9591 -1.0470 -0.9923
   52MOL0     H 6958   5.121   1.437   1.958 -0.3378 -0.6305  2.2290
   52MOL0     H 6959   4.907   1.381   2.106 -3.5274 -0.3985  0.3889
   52MOL0     H 6960   4.809   1.434   1.969 -0.2603  0.3826  1.3783
   52MOL0     H 6961   5.022   1.604   2.109  0.2368  0.6198  0.5516
   52MOL0     H 6962   4.935   1.651   1.961  2.8861  1.5078  1.1594
   52MOL0     H 6963   4.717   1.619   2.101 -1.0316  0.1315  2.0660
   52MOL0     H 6964   4.810   1.547   2.231  1.8353  0.9804  0.7374
   52MOL0     H 6965   4.842   1.854   2.170  1.7984 -0.0832 -0.3183
   52MOL0     H 6966   4.735   1.768   2.278  0.3826 -0.8166  0.7406
   52MOL0     H 6967   5.037   1.754   2.251  0.3882 -0.8856  1.2891
   52MOL0     H 6968   4.942   1.674   2.379 -0.6041 -1.9649 -1.2832
   52MOL0     H 6969   4.935   1.973   2.318 -1.7287 -1.2275 -1.5867
   52MOL0     H 6970   4.856   1.889   2.456 -1.6598 -1.4344 -2.2097
   52MOL0     H 6971   5.238   1.921   2.329  1.9872  0.7304  0.7975
   52MOL0     H 6972   5.443   1.878   2.651  0.5341  0.8486 -0.0880
   52MOL0     H 6973   5.465   1.845   2.479  2.5737  1.9790 -0.0902
   52MOL0     H 6974   5.589   2.051   2.560 -0.2783  2.0578  1.8287
   52MOL0     H 6975   5.457   2.089   2.447  0.0059 -0.3232 -0.5841
   52MOL0     H 6976   5.421   2.092   2.757  0.3455 -1.1585 -1.0481
   52MOL0     H 6977   5.323   2.164   2.625 -0.3849 -0.3522  0.0559
   52MOL0     H 6978   5.594   2.273   2.701  1.2274 -0.5539 -0.7161
   52MOL0     H 6979   5.438   2.335   2.748 -2.8126 -0.9830 -0.0877
   52MOL0     H 6980   5.432   2.468   2.325  1.7690 -2.1017  0.4272
   52MOL0     H 6981   5.484   2.716   2.261  1.8323 -0.7656 -0.5803
   52MOL0     H 6982   5.761   3.091   2.289  1.7405 -1.4947  1.2409
   52MOL0     H 6983   5.760   3.333   2.263 -0.4956  0.8388 -0.5809
   52MOL0     H 6984   5.517   3.566   2.553 -2.4503  1.6846  0.4375
   52MOL0     H 6985   5.652   3.668   2.515 -0.7159  3.1124 -0.9185
   52MOL0     H 6986   5.392   3.601   2.355 -0.2077  1.7873 -3.4310
   52MOL0     H 6987   5.411   3.748   2.439 -1.7371 -1.7053  0.4926
   52MOL0     H 6988   5.634   3.775   2.276  0.0054  0.7845  0.3685
   52MOL0     H 6989   5.544   3.680   2.176  1.7188  1.0565  0.4522
   52MOL0     H 6990   5.433   3.946   2.300  1.4232 -0.0979  0.7233
   52MOL0     H 6991   5.338   3.827   2.206 -1.4050  1.7525  0.5584
   52MOL0     H 6992   5.527   3.844   2.018 -3.1376 -1.0347 -1.8864
   52MOL0     H 6993   5.599   3.967   2.125 -1.2694  1.6631  0.5942
   52MOL0     H 6994   5.320   4.000   2.003 -0.7830  2.0982  2.0069
   52MOL0     H 6995   5.397   4.105   2.129  0.9240  0.5141  0.2910
   52MOL0     H 6996   5.551   4.185   1.984 -0.1037 -2.1632  3.2041
   52MOL0     H 6997   5.390   4.202   1.908  1.1699  0.3241 -1.4096
   52MOL0     H 6998   5.565   4.144   1.752  0.1644 -0.4993  1.1522
   52MOL0     H 6999   5.569   3.981   1.835 -1.8622 -1.1800  1.6381
   52MOL0     H 7000   5.572   3.385   2.642 -2.4355 -1.5661 -0.8975
   52MOL0     H 7001   5.590   3.129   2.680 -1.2636  1.2734  0.6811
   52MOL0     H 7002   5.667   2.769   2.638  0.5936  1.2692 -1.2691
   52MOL0     H 7003   5.616   2.537   2.709 -0.8814  1.4086  1.2337
   52MOL0     H 7004   5.283   1.239   1.595  4.3978  1.1884  2.4035
   52MOL0     H 7005   5.425   1.024   1.513 -0.9141  2.3760  0.9748
   52MOL0     H 7006   5.557   0.613   1.612 -0.5437  0.4807 -0.6388
   52MOL0     H 7007   5.734   0.477   1.520 -0.1215  0.6618 -0.5948
   52MOL0     H 7008   5.855   0.309   1.429  3.6506 -1.1120 -1.0433
   52MOL0     H 7009   5.882   0.397   1.290  1.2390 -1.2307 -0.4043
   52MOL0     H 7010   5.840   0.096   1.297  1.2314  0.9847  2.2313
   52MOL0     H 7011   5.991   0.175   1.305  0.5497  0.1939 -1.3308
   52MOL0     H 7012   5.947   0.293   1.080  2.3381 -0.8478 -0.1767
   52MOL0     H 7013   5.791   0.185   1.077 -0.7359  1.6493  2.9471
   52MOL0     H 7014   5.953  -0.008   1.113  2.1212  0.4037  0.5805
   52MOL0     H 7015   5.929   0.071   0.952  1.3756  0.5796 -0.4462
   52MOL0     H 7016   6.342   0.139   1.008  0.8935  1.3514  0.7548
   52MOL0     H 7017   5.479   0.367   1.200  0.6741 -1.9335  1.1909
   52MOL0     H 7018   5.243   0.501   1.176 -3.1075 -0.4955  0.1901
   52MOL0     H 7019   5.179   0.494   1.341 -1.6302  1.6368 -0.5960
   52MOL0     H 7020   5.219   0.645   1.258  0.9895  0.5817  1.7029
   53MOL0     O 7021   4.215   8.542  11.527  0.2823  0.1974 -0.1832
   53MOL0     C 7022   4.147   8.600  11.613  0.7718  0.8716  0.8477
   53MOL0     O 7023   4.188   8.702  11.692 -0.4619  1.1291  0.6839
   53MOL0     C 7024   4.319   8.736  11.679 -0.6879 -1.0097  0.3610
   53MOL0     C 7025   4.402   8.725  11.790 -0.2441  1.1551 -0.2815
   53MOL0     C 7026   4.531   8.769  11.783  1.0002  0.2560  0.2698
   53MOL0     C 7027   4.583   8.825  11.664 -0.9495 -0.1758  0.6641
   53MOL0     O 7028   4.710   8.871  11.684  0.5494 -0.1977  0.2574
   53MOL0     C 7029   4.734   8.997  11.618  1.3499  1.3314 -0.2064
   53MOL0     C 7030   4.873   9.053  11.635  0.0231  0.6904 -0.0641
   53MOL0     C 7031   4.983   8.946  11.625 -0.0236 -0.9432  0.1689
   53MOL0     C 7032   5.113   8.994  11.564  0.3076  0.0860 -0.5062
   53MOL0     C 7033   5.120   9.043  11.417  0.3296 -0.2551 -0.0136
   53MOL0     C 7034   5.034   8.950  11.332  1.2283 -0.6697  0.2061
   53MOL0     C 7035   5.105   8.822  11.304 -0.4037  0.1452 -0.3429
   53MOL0     C 7036   5.012   8.703  11.305 -0.4178 -0.5449 -0.3147
   53MOL0     N 7037   4.917   8.709  11.199  0.4958 -0.5959  0.6581
   53MOL0     C 7038   4.942   8.688  11.065 -0.4684  0.7290 -0.0960
   53MOL0     C 7039   4.822   8.701  11.002 -0.6540 -0.8549  0.1501
   53MOL0     C 7040   4.800   8.683  10.852  0.3256 -0.0231  0.3843
   53MOL0     C 7041   4.756   8.536  10.813 -0.1952  0.5852 -0.1119
   53MOL0     C 7042   4.620   8.501  10.854  1.0289 -0.0306 -0.6235
   53MOL0     C 7043   4.574   8.357  10.830  0.1175 -0.6622  0.2314
   53MOL0     O 7044   4.579   8.344  10.687  0.1137 -0.0237 -0.3464
   53MOL0     C 7045   4.602   8.222  10.627 -0.1431  0.4580 -0.0995
   53MOL0     C 7046   4.578   8.098  10.684 -0.3812 -1.3256 -0.1086
   53MOL0     C 7047   4.588   7.983  10.597 -0.0305  0.8079 -0.8416
   53MOL0     C 7048   4.643   7.991  10.468  0.5075 -0.1626  0.2485
   53MOL0     C 7049   4.648   7.872  10.381 -0.3480  0.2769 -0.2002
   53MOL0     O 7050   4.628   7.756  10.441  0.2257  0.3841  0.0823
   53MOL0     C 7051   4.610   7.637  10.370  0.3293 -0.3752  0.7138
   53MOL0     C 7052   4.675   7.522  10.420 -0.3214 -0.5055  0.6113
   53MOL0     C 7053   4.653   7.396  10.366  0.5608 -0.5123  1.1664
   53MOL0     C 7054   4.568   7.387  10.253  0.4710  0.4570 -0.2069
   53MOL0     O 7055   4.545   7.274  10.186 -1.2952  0.0956 -0.7063
   53MOL0     C 7056   4.621   7.261  10.063 -0.1124  0.7651  0.5434
   53MOL0     C 7057   4.538   7.228   9.941  0.4166  0.5904 -0.4589
   53MOL0     C 7058   4.462   7.100   9.944  0.2988 -0.3693 -0.0579
   53MOL0     C 7059   4.550   6.982   9.907  0.9367 -0.3667  0.2153
   53MOL0     C 7060   4.448   6.873   9.872  0.6388 -0.6811 -0.1914
   53MOL0     C 7061   4.524   6.754   9.802 -0.6754 -0.0389  1.0629
   53MOL0     C 7062   4.440   6.632   9.766  0.0845 -0.2883 -0.2198
   53MOL0     C 7063   4.339   6.651   9.652  0.5177 -0.2904  0.6498
   53MOL0    Cl 7064   4.420   6.696   9.492 -0.0366 -0.0169  0.3191
   53MOL0     C 7065   4.511   7.503  10.197  0.4612  0.0928 -0.2034
   53MOL0     C 7066   4.534   7.623  10.254  0.6088  0.3780  0.3396
   53MOL0     O 7067   4.670   7.895  10.261 -0.1942  0.7156 -0.8182
   53MOL0     C 7068   4.684   8.115  10.421 -0.5575 -0.0404  0.2247
   53MOL0     C 7069   4.666   8.224  10.501 -0.2277 -1.0005  0.5312
   53MOL0     N 7070   4.732   8.747  11.098  0.3254 -0.1836  0.2691
   53MOL0     N 7071   4.790   8.759  11.208  0.0686 -0.2957 -0.1949
   53MOL0     C 7072   4.502   8.837  11.546 -0.6449 -0.3541 -0.3987
   53MOL0     C 7073   4.368   8.791  11.557 -1.2544 -0.2099 -0.4302
   53MOL0     C 7074   4.009   8.566  11.613 -0.7833 -0.1731 -0.4336
   53MOL0     C 7075   3.919   8.669  11.662  0.1089  0.8219 -0.3154
   53MOL0     C 7076   3.784   8.643  11.678 -0.4951 -0.3401 -0.3499
   53MOL0     C 7077   3.724   8.531  11.629  0.6240  1.2862 -0.2276
   53MOL0     O 7078   3.586   8.516  11.641 -0.4005 -0.0010  0.5068
   53MOL0     C 7079   3.518   8.393  11.630 -0.8161 -0.5281  0.4770
   53MOL0     C 7080   3.528   8.299  11.747  0.7698  0.7723 -0.5209
   53MOL0     C 7081   3.423   8.192  11.726  0.2221 -0.3818  0.5940
   53MOL0     C 7082   3.310   8.206  11.828  0.1393 -0.1909 -0.1700
   53MOL0     C 7083   3.355   8.154  11.970  0.0138  0.1255  0.2070
   53MOL0     C 7084   3.405   8.137  12.079 -0.1146  0.5127 -0.2397
   53MOL0     C 7085   3.807   8.429  11.585  0.3164 -0.7020  0.1007
   53MOL0     C 7086   3.940   8.447  11.570  0.5958  1.0704  0.3849
   53MOL0     C 7087   4.026   8.328  11.530 -0.1703  0.2422 -0.1811
   53MOL0     H 7088   4.359   8.701  11.887 -1.2200 -0.1875 -1.0161
   53MOL0     H 7089   4.600   8.763  11.866  3.2956 -2.8930 -1.6287
   53MOL0     H 7090   4.717   8.987  11.510 -3.0053  0.4135  0.3770
   53MOL0     H 7091   4.653   9.063  11.649  0.1405  0.3513 -1.1586
   53MOL0     H 7092   4.893   9.091  11.736  4.7112 -2.2159  0.3866
   53MOL0     H 7093   4.888   9.129  11.558 -0.3746  0.6959 -0.1397
   53MOL0     H 7094   4.940   8.854  11.583 -2.2397  0.1121  0.0063
   53MOL0     H 7095   5.013   8.919  11.727 -0.5722  0.3000  0.6690
   53MOL0     H 7096   5.144   9.080  11.624 -1.5543  1.7571 -1.8135
   53MOL0     H 7097   5.182   8.909  11.573 -0.2915 -0.6566 -2.4068
   53MOL0     H 7098   5.100   9.150  11.423  1.5024  0.0479 -1.1062
   53MOL0     H 7099   5.221   9.034  11.378  1.7242 -1.7095  3.4928
   53MOL0     H 7100   4.931   8.935  11.364 -0.3399  2.5036 -2.7794
   53MOL0     H 7101   5.036   9.011  11.242  2.3092 -1.7477 -0.5348
   53MOL0     H 7102   5.176   8.822  11.388 -2.2078 -1.1427  1.2893
   53MOL0     H 7103   5.161   8.828  11.210 -1.5960  0.2299 -1.0619
   53MOL0     H 7104   5.082   8.618  11.298  0.6121  0.2107  0.4464
   53MOL0     H 7105   4.966   8.705  11.405  0.9108 -0.6426  0.3298
   53MOL0     H 7106   5.042   8.667  11.027  0.5748  0.6207  2.4990
   53MOL0     H 7107   4.712   8.746  10.836  0.4538 -0.1150 -0.7434
   53MOL0     H 7108   4.883   8.718  10.789  1.4140  0.1478  1.8584
   53MOL0     H 7109   4.768   8.525  10.705  2.1674 -0.1320  0.1740
   53MOL0     H 7110   4.831   8.472  10.859 -3.3967 -1.1626  3.1839
   53MOL0     H 7111   4.540   8.566  10.817 -1.9924 -2.8218  0.4899
   53MOL0     H 7112   4.627   8.515  10.962  1.4140  1.9414 -0.8782
   53MOL0     H 7113   4.473   8.336  10.866 -1.9209  0.7800 -3.9677
   53MOL0     H 7114   4.632   8.284  10.886 -0.0908  0.3436  1.8066
   53MOL0     H 7115   4.524   8.082  10.777 -0.8757 -2.1892 -0.5253
   53MOL0     H 7116   4.550   7.895  10.648 -1.6766  1.2729 -1.1924
   53MOL0     H 7117   4.743   7.537  10.503  0.6473  2.2411 -0.5670
   53MOL0     H 7118   4.700   7.311  10.416 -1.3480 -0.2260  3.5925
   53MOL0     H 7119   4.691   7.343  10.043  2.1196 -0.9985  0.7496
   53MOL0     H 7120   4.670   7.167  10.088  0.0491 -0.1096 -2.6393
   53MOL0     H 7121   4.462   7.306   9.931 -2.2066 -1.7388  0.0982
   53MOL0     H 7122   4.614   7.231   9.862 -1.5416  3.2740 -2.4010
   53MOL0     H 7123   4.418   7.093  10.043  1.2424  2.8666  0.7161
   53MOL0     H 7124   4.383   7.099   9.868  0.0742 -5.8132 -0.1596
   53MOL0     H 7125   4.621   6.953   9.984  0.6778 -0.1082  0.5556
   53MOL0     H 7126   4.611   7.009   9.820  1.0058  1.5865  0.8246
   53MOL0     H 7127   4.374   6.918   9.806 -1.0029  3.3265  3.9060
   53MOL0     H 7128   4.381   6.847   9.954  0.4214  0.6339  0.0625
   53MOL0     H 7129   4.563   6.785   9.704 -3.3283  1.0844  0.2773
   53MOL0     H 7130   4.609   6.725   9.865  0.5116  2.1956  0.6195
   53MOL0     H 7131   4.385   6.601   9.855 -2.0203  0.3020 -1.2472
   53MOL0     H 7132   4.503   6.549   9.732 -2.1719 -1.5212 -1.6146
   53MOL0     H 7133   4.287   6.556   9.638  3.7534 -2.1707  0.5452
   53MOL0     H 7134   4.263   6.730   9.663 -0.8336 -1.0895 -2.0002
   53MOL0     H 7135   4.437   7.491  10.119  1.5729 -0.7913 -1.1610
   53MOL0     H 7136   4.482   7.703  10.202 -0.9286  0.4363  1.9054
   53MOL0     H 7137   4.717   8.144  10.322  2.2947  2.5850  1.7880
   53MOL0     H 7138   4.696   8.315  10.449  2.1505 -1.8895  0.2299
   53MOL0     H 7139   4.524   8.875  11.447 -2.4089  0.2991 -0.5930
   53MOL0     H 7140   4.316   8.784  11.462  3.8887 -3.1326 -3.5078
   53MOL0     H 7141   3.955   8.753  11.720  2.1279 -0.5431  0.5190
   53MOL0     H 7142   3.716   8.710  11.730  0.0380  0.3530 -0.5226
   53MOL0     H 7143   3.559   8.331  11.549 -1.1583 -0.6305  0.3800
   53MOL0     H 7144   3.414   8.414  11.602 -0.5350 -1.4551 -1.4310
   53MOL0     H 7145   3.503   8.352  11.840  1.3888 -0.9186  0.6549
   53MOL0     H 7146   3.625   8.255  11.774 -0.1555  0.5179  2.9087
   53MOL0     H 7147   3.464   8.091  11.717  2.9099  0.0989  4.7058
   53MOL0     H 7148   3.375   8.203  11.628  0.6330  1.8483  0.5981
   53MOL0     H 7149   3.278   8.311  11.833  1.2256  0.1707 -0.5903
   53MOL0     H 7150   3.225   8.144  11.799 -2.1785  3.2084 -1.4075
   53MOL0     H 7151   3.454   8.126  12.173  0.0148  2.4594 -0.0327
   53MOL0     H 7152   3.773   8.330  11.559  0.6924 -1.1806  1.3738
   53MOL0     H 7153   4.086   8.300  11.617  0.0069  1.1383  0.0020
   53MOL0     H 7154   3.973   8.236  11.505  2.8873 -1.0698 -2.4119
   53MOL0     H 7155   4.082   8.356  11.440 -0.8426 -2.5320 -1.5478
   54MOL0     O 7156   0.524   2.105   8.701  0.2948 -0.0762  0.1974
   54MOL0     C 7157   0.422   2.110   8.765  0.5083  0.6815  0.3659
   54MOL0     O 7158   0.371   2.210   8.839 -0.2665 -0.3137  0.5608
   54MOL0     C 7159   0.446   2.326   8.856 -0.6371 -0.0408  0.2700
   54MOL0     C 7160   0.378   2.442   8.826  0.8724 -1.0284  0.6105
   54MOL0     C 7161   0.452   2.567   8.835  1.1025 -0.9201  0.6218
   54MOL0     C 7162   0.582   2.579   8.868 -0.5293  0.0470 -0.0008
   54MOL0     O 7163   0.651   2.706   8.878  1.0205 -0.1002 -0.5244
   54MOL0     C 7164   0.781   2.730   8.926 -0.4888 -0.0655  1.0128
   54MOL0     C 7165   0.788   2.724   9.073 -0.9004 -0.1796 -0.1580
   54MOL0     C 7166   0.845   2.858   9.129  0.6399 -0.4559 -0.6508
   54MOL0     C 7167   0.836   2.863   9.289  0.6747 -0.3202  0.3922
   54MOL0     C 7168   0.913   2.757   9.364 -0.6395  0.4006 -0.3424
   54MOL0     C 7169   0.929   2.811   9.512  1.0113 -0.2841 -0.4084
   54MOL0     C 7170   0.966   2.684   9.598  0.0922 -0.4473  0.2842
   54MOL0     C 7171   1.051   2.717   9.719 -0.6451 -0.6198 -0.2694
   54MOL0     N 7172   1.088   2.585   9.782 -0.0724 -0.2058  0.1400
   54MOL0     C 7173   0.997   2.499   9.840 -0.6302  0.1712 -0.9548
   54MOL0     C 7174   1.082   2.415   9.901 -0.2792  0.6534  0.0795
   54MOL0     C 7175   1.036   2.309  10.000  0.7691  0.2708 -0.3021
   54MOL0     C 7176   1.003   2.376  10.135  0.1608  0.2850 -0.7575
   54MOL0     C 7177   0.946   2.286  10.249  0.2939  0.2293 -0.4413
   54MOL0     C 7178   0.793   2.258  10.216 -0.1773  0.6968 -0.3704
   54MOL0     O 7179   0.715   2.197  10.320  0.0745  0.4426  0.2729
   54MOL0     C 7180   0.741   2.067  10.353  0.1361  0.7891 -0.3097
   54MOL0     C 7181   0.818   1.982  10.279 -0.2574  0.4279  0.6116
   54MOL0     C 7182   0.841   1.847  10.329  0.1483 -0.6753  0.2157
   54MOL0     C 7183   0.771   1.808  10.444  0.8743  0.2473  0.1802
   54MOL0     C 7184   0.802   1.679  10.505 -0.0637  0.0888 -0.2997
   54MOL0     O 7185   0.733   1.643  10.616  1.0614  0.1702 -0.3014
   54MOL0     C 7186   0.775   1.543  10.697 -0.5078 -0.6004  0.6353
   54MOL0     C 7187   0.896   1.520  10.744 -0.0084  0.6638 -0.7542
   54MOL0     C 7188   0.929   1.412  10.835  0.7976 -0.5278  0.5693
   54MOL0     C 7189   0.834   1.318  10.860  1.0367  0.5598  0.0318
   54MOL0     O 7190   0.862   1.193  10.918  0.5434 -0.0298  0.3316
   54MOL0     C 7191   0.971   1.191  11.008 -0.9294 -0.4105 -0.1855
   54MOL0     C 7192   1.095   1.125  10.949 -0.5011 -0.2179 -0.2107
   54MOL0     C 7193   1.231   1.182  10.982  0.5306  0.1064 -0.1105
   54MOL0     C 7194   1.265   1.193  11.133 -0.1996  0.5453  0.5440
   54MOL0     C 7195   1.366   1.084  11.182 -0.8088  0.0486  0.2180
   54MOL0     C 7196   1.498   1.138  11.242  0.2694 -0.7352 -0.6127
   54MOL0     C 7197   1.616   1.042  11.240 -0.0735 -0.6101  0.1672
   54MOL0     C 7198   1.706   1.059  11.363 -0.2719  0.4644 -0.0384
   54MOL0    Cl 7199   1.843   0.942  11.327  0.5507 -0.0138 -0.0474
   54MOL0     C 7200   0.708   1.333  10.810 -0.1232  0.1028  0.5912
   54MOL0     C 7201   0.669   1.451  10.741  0.9904 -0.0178  1.1063
   54MOL0     O 7202   0.899   1.614  10.466  0.3201 -0.2929  0.6407
   54MOL0     C 7203   0.693   1.897  10.518  0.0245  0.1436 -0.2684
   54MOL0     C 7204   0.675   2.027  10.468 -0.1402  0.2682 -0.1737
   54MOL0     N 7205   1.217   2.430   9.868  0.6010  1.0184 -1.0883
   54MOL0     N 7206   1.213   2.541   9.808 -0.1900 -0.2571  1.0438
   54MOL0     C 7207   0.646   2.459   8.892 -0.0513 -0.3664  0.2533
   54MOL0     C 7208   0.585   2.328   8.892 -1.1437 -0.4574 -0.1687
   54MOL0     C 7209   0.368   1.984   8.811 -0.2958  0.9502 -0.5895
   54MOL0     C 7210   0.315   1.974   8.945 -0.4482 -0.0786 -0.4738
   54MOL0     C 7211   0.249   1.867   8.996  0.6688  0.2488  0.6600
   54MOL0     C 7212   0.249   1.746   8.914  0.2684  0.3978  0.4355
   54MOL0     O 7213   0.185   1.639   8.981  0.0382  0.2133 -0.1316
   54MOL0     C 7214   0.186   1.500   8.913  1.1044 -0.0787  0.9811
   54MOL0     C 7215   0.168   1.384   9.006 -0.1979 -0.2551  0.3557
   54MOL0     C 7216   0.253   1.390   9.135  0.6286 -0.6099 -1.2291
   54MOL0     C 7217   0.402   1.341   9.132  0.5633  0.5536  0.2473
   54MOL0     C 7218   0.488   1.397   9.020  0.0805  0.5211 -0.7100
   54MOL0     C 7219   0.559   1.424   8.934  0.1079  0.4213  0.1589
   54MOL0     C 7220   0.309   1.747   8.791  0.6659 -0.1206 -0.3936
   54MOL0     C 7221   0.361   1.869   8.733  1.0788  0.2075 -0.3675
   54MOL0     C 7222   0.418   1.853   8.600  0.0935 -0.9972 -0.7121
   54MOL0     H 7223   0.279   2.436   8.782  0.4375 -0.1020  1.4477
   54MOL0     H 7224   0.415   2.665   8.809  0.8256 -1.4236 -0.9661
   54MOL0     H 7225   0.849   2.651   8.892  1.0964  1.4133  0.6084
   54MOL0     H 7226   0.816   2.822   8.880 -0.7289  0.2089  1.3761
   54MOL0     H 7227   0.860   2.648   9.102 -2.1175 -1.8541 -1.3803
   54MOL0     H 7228   0.688   2.704   9.112 -0.3303  1.4939  2.4282
   54MOL0     H 7229   0.791   2.941   9.082  1.4303 -0.6745 -1.9997
   54MOL0     H 7230   0.950   2.872   9.102  0.7823 -0.5197 -0.1469
   54MOL0     H 7231   0.875   2.960   9.322  0.2933 -0.5780  1.6794
   54MOL0     H 7232   0.730   2.853   9.315  0.8328  0.7468  1.5833
   54MOL0     H 7233   0.846   2.671   9.370  1.2303 -1.0902  0.1754
   54MOL0     H 7234   1.004   2.717   9.319 -0.6696  1.7628 -1.7115
   54MOL0     H 7235   1.006   2.888   9.504  0.6138 -0.0602 -4.1078
   54MOL0     H 7236   0.836   2.855   9.549  0.8051  0.8985 -2.1811
   54MOL0     H 7237   1.026   2.618   9.534  1.7311  2.4504 -1.3895
   54MOL0     H 7238   0.871   2.635   9.622 -1.3839  1.9616 -0.2914
   54MOL0     H 7239   1.147   2.764   9.695 -0.9119  0.6312  0.9911
   54MOL0     H 7240   1.005   2.789   9.788  0.9799 -0.4671  0.7318
   54MOL0     H 7241   0.890   2.484   9.843 -0.3986 -2.1229 -1.9985
   54MOL0     H 7242   0.954   2.247   9.963 -0.9020  1.0831  1.7919
   54MOL0     H 7243   1.123   2.246  10.018  1.8221  0.8662 -2.9361
   54MOL0     H 7244   1.101   2.404  10.174 -0.6346  1.3658  0.5709
   54MOL0     H 7245   0.930   2.458  10.134 -0.8377 -0.5233  1.1631
   54MOL0     H 7246   0.949   2.336  10.347 -2.3606  0.5905 -0.4456
   54MOL0     H 7247   0.996   2.190  10.262 -1.1368 -0.3325  1.5104
   54MOL0     H 7248   0.787   2.204  10.121  0.3532 -0.6302  0.3249
   54MOL0     H 7249   0.744   2.352  10.190  1.4359  1.2088 -1.7708
   54MOL0     H 7250   0.874   2.006  10.190  1.2872  0.6096  1.5909
   54MOL0     H 7251   0.914   1.773  10.294  0.8888  0.2159 -0.1716
   54MOL0     H 7252   0.968   1.592  10.708  1.2809 -0.4408 -0.4893
   54MOL0     H 7253   1.032   1.390  10.861  0.4207 -1.1636  1.6157
   54MOL0     H 7254   0.991   1.293  11.042 -0.6784 -0.5325  0.0272
   54MOL0     H 7255   0.938   1.145  11.101  1.4873  0.6095  1.2508
   54MOL0     H 7256   1.097   1.020  10.978 -1.8517  0.4278  2.4955
   54MOL0     H 7257   1.078   1.131  10.841 -0.4415 -0.2979 -0.2240
   54MOL0     H 7258   1.301   1.126  10.919 -0.5892 -0.1391 -1.1660
   54MOL0     H 7259   1.231   1.284  10.941  2.7058 -0.1300 -0.8504
   54MOL0     H 7260   1.173   1.167  11.185  1.5137 -1.9037  2.6370
   54MOL0     H 7261   1.295   1.293  11.165 -0.2209  0.2210  1.6133
   54MOL0     H 7262   1.395   1.029  11.093 -1.8962 -1.9198  1.0155
   54MOL0     H 7263   1.329   1.010  11.254 -0.2815 -1.1843 -0.7377
   54MOL0     H 7264   1.522   1.221  11.175  0.5319 -2.1695 -2.3724
   54MOL0     H 7265   1.478   1.188  11.337 -0.3570 -0.8859 -0.6596
   54MOL0     H 7266   1.677   1.053  11.150 -0.7812  2.1347 -0.0567
   54MOL0     H 7267   1.583   0.938  11.244 -0.1557 -0.9096 -4.2390
   54MOL0     H 7268   1.744   1.160  11.376 -0.8163  0.3980  2.6779
   54MOL0     H 7269   1.659   1.032  11.459  0.4168  0.8078  0.4013
   54MOL0     H 7270   0.631   1.259  10.828 -0.1658 -0.0377 -0.1492
   54MOL0     H 7271   0.568   1.444  10.702  1.4595 -1.9193  0.1488
   54MOL0     H 7272   0.639   1.857  10.604 -0.5512 -4.5908 -2.4960
   54MOL0     H 7273   0.617   2.093  10.531 -0.8731  0.4840 -1.0446
   54MOL0     H 7274   0.753   2.459   8.913 -0.3038  0.0707  1.6307
   54MOL0     H 7275   0.647   2.242   8.914 -0.8370  0.3384  2.4340
   54MOL0     H 7276   0.322   2.055   9.017 -3.4904 -0.2604  0.1443
   54MOL0     H 7277   0.202   1.864   9.094  2.6417 -0.8729  1.6272
   54MOL0     H 7278   0.282   1.490   8.862 -1.6527  1.0390 -5.3793
   54MOL0     H 7279   0.109   1.478   8.838  2.1096 -3.0081  0.6474
   54MOL0     H 7280   0.217   1.301   8.956  0.7527  0.6738 -0.3097
   54MOL0     H 7281   0.061   1.375   9.022 -0.1780  0.3317  0.8623
   54MOL0     H 7282   0.204   1.336   9.217  0.8156 -1.2180 -1.5076
   54MOL0     H 7283   0.258   1.495   9.163 -3.5297 -0.6625  0.5643
   54MOL0     H 7284   0.437   1.381   9.228 -0.0388 -0.3953  0.8820
   54MOL0     H 7285   0.412   1.233   9.121 -0.6817  0.5312 -0.9777
   54MOL0     H 7286   0.609   1.459   8.846  0.3668  1.4467  0.6883
   54MOL0     H 7287   0.315   1.651   8.739  0.3404  0.0148 -0.6872
   54MOL0     H 7288   0.392   1.931   8.528  2.2336 -1.3810 -1.9971
   54MOL0     H 7289   0.523   1.823   8.604 -0.2146 -1.9605  0.8424
   54MOL0     H 7290   0.366   1.771   8.549 -1.0973 -0.8196  0.1751
   55MOL0     O 7291   1.399  10.747   6.314  0.1417  0.4355 -0.1360
   55MOL0     C 7292   1.476  10.686   6.390  0.2241 -0.5740  0.0242
   55MOL0     O 7293   1.440  10.630   6.509 -0.3661  0.0171  0.7923
   55MOL0     C 7294   1.313  10.654   6.556  0.0556  0.0117  0.0588
   55MOL0     C 7295   1.270  10.784   6.581  0.5890 -0.7491  0.5633
   55MOL0     C 7296   1.142  10.801   6.603  0.5937  0.0308  0.9109
   55MOL0     C 7297   1.041  10.702   6.605  0.2053  0.1547  0.1520
   55MOL0     O 7298   0.914  10.733   6.652  0.0003  0.6266  0.4160
   55MOL0     C 7299   0.803  10.639   6.661 -0.3669 -0.4823 -1.1753
   55MOL0     C 7300   0.686  10.708   6.739  0.4811 -0.5870 -0.1067
   55MOL0     C 7301   0.549  10.637   6.743 -0.1351  1.0815 -0.7564
   55MOL0     C 7302   0.577  10.494   6.792 -0.4464 -0.5011 -0.4119
   55MOL0     C 7303   0.443  10.423   6.820  0.5454 -0.4821 -1.1232
   55MOL0     C 7304   0.469  10.288   6.891 -0.4067  0.1982  0.0056
   55MOL0     C 7305   0.513  10.178   6.794 -1.1768  0.3518  0.6673
   55MOL0     C 7306   0.397  10.133   6.705 -0.2903  0.6037 -0.1362
   55MOL0     N 7307   0.424  10.130   6.562  0.1884  0.7641 -0.2256
   55MOL0     C 7308   0.489  10.215   6.480 -0.9210 -0.0663 -0.1078
   55MOL0     C 7309   0.475  10.148   6.357 -0.8036  0.0294  0.7079
   55MOL0     C 7310   0.523  10.206   6.232 -0.9709 -0.3645  0.1663
   55MOL0     C 7311   0.656  10.272   6.249  0.4917 -0.2552 -0.6937
   55MOL0     C 7312   0.764  10.172   6.286  0.3433  0.9930  0.2877
   55MOL0     C 7313   0.867  10.236   6.373 -0.2875 -0.2174 -0.3549
   55MOL0     O 7314   0.906  10.362   6.311 -0.4984  0.4428 -0.5070
   55MOL0     C 7315   1.028  10.378   6.250 -0.7265 -0.1759  0.2283
   55MOL0     C 7316   1.111  10.280   6.197  0.5829  0.5776  0.1270
   55MOL0     C 7317   1.241  10.304   6.149  0.1603 -0.4103 -0.3993
   55MOL0     C 7318   1.283  10.438   6.140  0.0852  0.3628 -0.8059
   55MOL0     C 7319   1.416  10.457   6.080  0.5429 -0.0164  0.1149
   55MOL0     O 7320   1.506  10.357   6.095  0.0354  0.0676  0.6493
   55MOL0     C 7321   1.597  10.349   5.990  0.0123  0.5180 -0.9957
   55MOL0     C 7322   1.581  10.234   5.908 -0.8854  0.9711 -0.4278
   55MOL0     C 7323   1.666  10.216   5.800  0.5472  0.1816  0.4531
   55MOL0     C 7324   1.760  10.311   5.763 -1.1404  0.7081 -1.0065
   55MOL0     O 7325   1.841  10.285   5.653  0.9473 -0.3279 -0.0275
   55MOL0     C 7326   1.946  10.370   5.618 -0.6875 -0.5019  0.4503
   55MOL0     C 7327   2.045  10.299   5.528 -1.0696  0.7886  0.1587
   55MOL0     C 7328   1.999  10.277   5.380  0.9332  0.5650  0.9409
   55MOL0     C 7329   2.066  10.149   5.331  1.3447 -0.4535 -0.0274
   55MOL0     C 7330   2.213  10.165   5.282 -0.9505  0.6399  0.1602
   55MOL0     C 7331   2.260  10.025   5.236  0.7332  0.4534 -0.6755
   55MOL0     C 7332   2.383   9.981   5.312 -0.8380 -0.2119  0.5435
   55MOL0     C 7333   2.347   9.855   5.376 -0.2825 -0.3813  0.4790
   55MOL0    Cl 7334   2.200   9.863   5.492 -0.0629  0.1229  0.1216
   55MOL0     C 7335   1.768  10.424   5.839 -0.0993  0.1302  0.7948
   55MOL0     C 7336   1.685  10.444   5.950 -0.4382  0.1499  0.1724
   55MOL0     O 7337   1.433  10.561   6.013  0.0657  0.8032 -0.1718
   55MOL0     C 7338   1.202  10.545   6.180  0.7236  0.2457  0.0688
   55MOL0     C 7339   1.077  10.512   6.233  1.2001 -0.3537 -0.3283
   55MOL0     N 7340   0.426  10.023   6.374  1.0635  1.6800  0.0812
   55MOL0     N 7341   0.387  10.018   6.491 -0.2799  0.3155 -1.2534
   55MOL0     C 7342   1.085  10.572   6.583  0.7303 -0.9313  0.0323
   55MOL0     C 7343   1.220  10.547   6.558 -0.8756  0.5714  0.6304
   55MOL0     C 7344   1.620  10.684   6.345 -0.1299 -0.3432 -0.0680
   55MOL0     C 7345   1.717  10.604   6.415  1.6725  0.3114 -0.0737
   55MOL0     C 7346   1.843  10.591   6.368  0.1853  0.2831 -0.2022
   55MOL0     C 7347   1.889  10.657   6.256  0.2008  0.0976  0.5590
   55MOL0     O 7348   2.018  10.656   6.230  0.0087 -1.0795 -0.2838
   55MOL0     C 7349   2.070  10.727   6.112  0.8382  0.3571  0.9442
   55MOL0     C 7350   2.174  10.821   6.166  0.2623 -0.0310 -0.3149
   55MOL0     C 7351   2.286  10.757   6.254  0.8261  0.9265  0.4999
   55MOL0     C 7352   2.342  10.630   6.207  0.9443  0.3516 -0.4494
   55MOL0     C 7353   2.468  10.592   6.282  0.0259  0.2344  0.4236
   55MOL0     C 7354   2.569  10.547   6.328 -0.0658  0.4685  0.5256
   55MOL0     C 7355   1.798  10.739   6.187  0.5386 -0.2994  0.5620
   55MOL0     C 7356   1.669  10.757   6.227 -0.3892 -0.1772 -0.1509
   55MOL0     C 7357   1.590  10.857   6.142  0.4978 -0.5498 -0.1893
   55MOL0     H 7358   1.320  10.880   6.585  2.5445 -1.5122 -2.2299
   55MOL0     H 7359   1.103  10.896   6.639  1.6867  0.6098  0.6210
   55MOL0     H 7360   0.777  10.596   6.564 -0.8681 -0.7560 -0.9233
   55MOL0     H 7361   0.831  10.555   6.726  1.2149 -1.0242 -2.4617
   55MOL0     H 7362   0.671  10.811   6.706 -0.2341  0.2700  2.6298
   55MOL0     H 7363   0.727  10.722   6.840  1.6003 -0.0292 -0.6206
   55MOL0     H 7364   0.489  10.642   6.651 -1.3620  0.0339 -0.0519
   55MOL0     H 7365   0.481  10.684   6.815 -0.9041 -0.6823 -0.2797
   55MOL0     H 7366   0.629  10.443   6.711  1.9565  0.1507  0.6227
   55MOL0     H 7367   0.640  10.490   6.882  0.4663 -2.1398 -1.0857
   55MOL0     H 7368   0.373  10.485   6.877 -2.0432 -0.9827 -3.5237
   55MOL0     H 7369   0.390  10.413   6.725  0.4465  3.8340 -1.6837
   55MOL0     H 7370   0.543  10.301   6.970  0.0459 -1.1941 -0.1643
   55MOL0     H 7371   0.378  10.253   6.941  1.0591 -0.1410  2.5724
   55MOL0     H 7372   0.558  10.096   6.850 -0.1321  0.3586 -0.1418
   55MOL0     H 7373   0.599  10.205   6.732 -1.8232  3.0595  0.8188
   55MOL0     H 7374   0.360  10.038   6.745  2.9244 -0.7928 -0.1386
   55MOL0     H 7375   0.317  10.207   6.717  0.1112  0.9077  0.8031
   55MOL0     H 7376   0.522  10.318   6.492 -0.8072  0.0180 -1.1181
   55MOL0     H 7377   0.522  10.111   6.177 -1.8785 -0.8685  1.0327
   55MOL0     H 7378   0.452  10.277   6.189 -0.8990  1.0696  2.2694
   55MOL0     H 7379   0.690  10.335   6.167  1.1055  5.5730  3.3980
   55MOL0     H 7380   0.637  10.344   6.329  0.1311 -1.2014  0.0894
   55MOL0     H 7381   0.824  10.129   6.205  1.2839 -2.7169  2.7295
   55MOL0     H 7382   0.725  10.086   6.341  1.5658  1.0102  1.2404
   55MOL0     H 7383   0.947  10.161   6.372 -0.4961 -0.4411 -0.3677
   55MOL0     H 7384   0.825  10.249   6.474 -0.8740 -2.2071 -0.2945
   55MOL0     H 7385   1.092  10.175   6.218  0.8311  0.6923  0.9710
   55MOL0     H 7386   1.295  10.220   6.105 -2.9993 -2.2278 -1.1378
   55MOL0     H 7387   1.492  10.173   5.922  0.3790 -0.7752  0.3014
   55MOL0     H 7388   1.641  10.130   5.739  1.0575  1.0604 -1.0479
   55MOL0     H 7389   1.918  10.466   5.573 -1.6372 -0.7219  0.5594
   55MOL0     H 7390   1.996  10.396   5.712 -0.0672  0.6786 -0.1811
   55MOL0     H 7391   2.137  10.358   5.537  0.5872 -1.5065 -0.7158
   55MOL0     H 7392   2.064  10.204   5.581 -0.3487  0.3085 -0.9141
   55MOL0     H 7393   1.891  10.259   5.375  1.2029 -0.9112 -0.9234
   55MOL0     H 7394   2.019  10.360   5.312  1.7107  0.7686  1.4112
   55MOL0     H 7395   2.012  10.106   5.246  0.6731 -0.3154  0.3246
   55MOL0     H 7396   2.073  10.070   5.407 -0.3893 -1.2532 -0.6427
   55MOL0     H 7397   2.274  10.210   5.361  2.2650 -0.0106 -1.7678
   55MOL0     H 7398   2.219  10.230   5.194 -2.9911 -0.6601 -1.0204
   55MOL0     H 7399   2.178   9.954   5.249  0.7007  0.8140  1.5223
   55MOL0     H 7400   2.278  10.029   5.129  1.1117 -2.1532 -0.7542
   55MOL0     H 7401   2.407  10.051   5.392  0.0733  1.6553 -1.2703
   55MOL0     H 7402   2.466   9.955   5.245 -1.0331  0.4936  0.0136
   55MOL0     H 7403   2.309   9.791   5.296 -0.4213  0.2136  0.0638
   55MOL0     H 7404   2.441   9.815   5.415  0.7856  1.6880  0.1405
   55MOL0     H 7405   1.830  10.511   5.822  0.1247 -0.2063 -0.1887
   55MOL0     H 7406   1.705  10.529   6.014 -1.9521  0.1025  0.7461
   55MOL0     H 7407   1.240  10.647   6.175 -0.6555  0.8250  0.6725
   55MOL0     H 7408   1.015  10.591   6.272  0.1521 -1.8449  1.1655
   55MOL0     H 7409   1.014  10.489   6.591  1.1629 -1.1764  1.5780
   55MOL0     H 7410   1.261  10.450   6.535  1.1766  2.2103 -3.7033
   55MOL0     H 7411   1.682  10.538   6.494 -1.5753  0.8494 -0.9473
   55MOL0     H 7412   1.910  10.521   6.417 -0.6621 -1.6158 -1.6507
   55MOL0     H 7413   1.998  10.752   6.034  1.2485  1.9060  1.0330
   55MOL0     H 7414   2.121  10.644   6.062 -3.5047 -2.0799  0.1345
   55MOL0     H 7415   2.111  10.885   6.228 -0.6603 -1.1284 -0.0951
   55MOL0     H 7416   2.213  10.879   6.082 -1.6113 -0.8821 -1.8231
   55MOL0     H 7417   2.247  10.738   6.354  0.9987 -1.7032  0.1443
   55MOL0     H 7418   2.374  10.823   6.262  1.1441  0.4127  1.4509
   55MOL0     H 7419   2.264  10.554   6.213 -0.1133  1.2877 -1.7077
   55MOL0     H 7420   2.370  10.640   6.102 -0.5972  2.4817 -0.7420
   55MOL0     H 7421   2.651  10.491   6.368 -1.1982 -1.1835  0.6364
   55MOL0     H 7422   1.841  10.809   6.116  3.4208 -0.9284  1.5597
   55MOL0     H 7423   1.546  10.932   6.208  3.6412 -0.1151  1.5955
   55MOL0     H 7424   1.649  10.915   6.071  1.0963  0.4819  1.1060
   55MOL0     H 7425   1.501  10.809   6.099 -0.0014  0.4479 -0.2844
   56MOL0     O 7426   7.676  10.106   5.597 -0.8051  0.1887 -0.2678
   56MOL0     C 7427   7.716  10.189   5.672 -1.1434  0.6695  0.2840
   56MOL0     O 7428   7.835  10.250   5.662 -0.2517  0.1605 -0.0824
   56MOL0     C 7429   7.934  10.199   5.591  0.1244  0.7284 -0.3667
   56MOL0     C 7430   8.001  10.084   5.650  0.0262 -0.0802 -0.7881
   56MOL0     C 7431   8.101  10.018   5.585 -0.0177 -0.1072  0.2648
   56MOL0     C 7432   8.135  10.053   5.452 -0.0416 -0.7248 -0.2627
   56MOL0     O 7433   8.232  10.002   5.386 -0.5260  0.4967 -0.2414
   56MOL0     C 7434   8.323   9.906   5.444 -0.0458 -0.8957 -0.2848
   56MOL0     C 7435   8.452   9.887   5.360 -0.4346 -0.2678  0.2296
   56MOL0     C 7436   8.514  10.022   5.316 -0.8128  0.6046  0.3630
   56MOL0     C 7437   8.543  10.125   5.425  0.7900 -0.1132 -0.1654
   56MOL0     C 7438   8.646  10.058   5.515 -0.4300  0.6658  0.6409
   56MOL0     C 7439   8.701  10.171   5.610 -0.7336 -0.7747  0.6964
   56MOL0     C 7440   8.586  10.209   5.703  0.0111  0.3866  0.4679
   56MOL0     C 7441   8.526  10.350   5.669 -0.7316 -0.5028  0.3174
   56MOL0     N 7442   8.418  10.413   5.744  0.2350 -0.4422 -0.4882
   56MOL0     C 7443   8.291  10.365   5.740 -0.8607 -0.2368  0.5343
   56MOL0     C 7444   8.222  10.447   5.831 -1.0796  0.2323  0.2231
   56MOL0     C 7445   8.081  10.439   5.889  0.2451  0.3237 -1.0473
   56MOL0     C 7446   8.000  10.568   5.853  0.3224  0.7066  0.0049
   56MOL0     C 7447   7.955  10.581   5.704 -0.8910  0.4448  0.1323
   56MOL0     C 7448   7.896  10.722   5.674 -1.1759  0.0192 -0.2486
   56MOL0     O 7449   7.832  10.787   5.785  0.0925  0.0228 -0.1758
   56MOL0     C 7450   7.695  10.777   5.805  0.3934  0.7732 -0.0048
   56MOL0     C 7451   7.623  10.678   5.750 -1.5242  0.2543  0.6614
   56MOL0     C 7452   7.487  10.680   5.764  0.2293 -0.4476  0.2245
   56MOL0     C 7453   7.413  10.770   5.847 -0.2090  0.1426 -1.4677
   56MOL0     C 7454   7.266  10.767   5.864  0.4201  0.0049  0.4316
   56MOL0     O 7455   7.217  10.840   5.970  0.0337 -0.3237 -0.1631
   56MOL0     C 7456   7.088  10.863   5.998 -0.1402 -0.2991  0.2372
   56MOL0     C 7457   7.050  10.877   6.129  0.6981 -0.7046 -0.2526
   56MOL0     C 7458   6.915  10.879   6.157  0.0816 -0.3104  0.8684
   56MOL0     C 7459   6.813  10.884   6.068  0.3929  0.1783 -0.0215
   56MOL0     O 7460   6.682  10.893   6.097  0.0873 -0.6559 -0.4564
   56MOL0     C 7461   6.642  11.030   6.131  0.8307  0.6714  0.4794
   56MOL0     C 7462   6.521  11.004   6.226 -0.2846 -1.0188  0.0401
   56MOL0     C 7463   6.559  10.947   6.368 -0.1387  0.3788  0.0654
   56MOL0     C 7464   6.456  10.982   6.474  1.0101 -0.7594  0.5650
   56MOL0     C 7465   6.473  10.890   6.600  1.2145 -0.6964 -1.6947
   56MOL0     C 7466   6.601  10.909   6.690  1.1775 -1.0324  0.2997
   56MOL0     C 7467   6.633  11.048   6.742 -0.8977  0.0453  0.3492
   56MOL0     C 7468   6.715  11.040   6.875  0.5922  1.5352  0.2672
   56MOL0    Cl 7469   6.707  11.193   6.969 -0.5192 -0.1624 -0.0579
   56MOL0     C 7470   6.852  10.884   5.935 -0.4294  0.7193  0.2287
   56MOL0     C 7471   6.991  10.871   5.898  0.6578  0.2800 -0.4825
   56MOL0     O 7472   7.203  10.703   5.781  0.2402  0.1399 -0.3511
   56MOL0     C 7473   7.500  10.862   5.913  0.9099  0.4380 -0.0799
   56MOL0     C 7474   7.633  10.868   5.888 -0.8565 -0.2420  0.1963
   56MOL0     N 7475   8.315  10.535   5.877 -0.9939 -1.4767 -0.7761
   56MOL0     N 7476   8.430  10.520   5.831 -0.5279 -0.0838 -0.4202
   56MOL0     C 7477   8.068  10.163   5.392  0.0090 -0.6775  0.2573
   56MOL0     C 7478   7.966  10.228   5.457  0.2064  0.4814  0.3470
   56MOL0     C 7479   7.640  10.251   5.781 -0.1945 -0.1977 -0.6279
   56MOL0     C 7480   7.706  10.335   5.869 -0.2266 -1.2819 -1.6490
   56MOL0     C 7481   7.629  10.417   5.957  0.4843  0.4238 -0.3730
   56MOL0     C 7482   7.495  10.385   5.969 -0.0724 -0.1426  1.0878
   56MOL0     O 7483   7.411  10.459   6.040  0.3483 -0.6929  0.4044
   56MOL0     C 7484   7.340  10.417   6.163 -0.4778  0.4567 -0.0276
   56MOL0     C 7485   7.439  10.426   6.278  0.6914 -0.8925 -0.6819
   56MOL0     C 7486   7.506  10.569   6.291  1.7674 -0.6174 -0.3893
   56MOL0     C 7487   7.413  10.687   6.284  0.2317  0.2634  0.2909
   56MOL0     C 7488   7.307  10.665   6.384 -0.6301  0.5395 -1.3185
   56MOL0     C 7489   7.211  10.648   6.452 -0.3232  0.0877 -0.5381
   56MOL0     C 7490   7.425  10.301   5.882 -0.8727  0.0743  0.6187
   56MOL0     C 7491   7.499  10.224   5.788 -0.3860  1.1937 -0.3784
   56MOL0     C 7492   7.413  10.137   5.708 -0.4231 -0.5838 -0.2094
   56MOL0     H 7493   7.992  10.074   5.757  2.8043  1.5941 -0.3091
   56MOL0     H 7494   8.156   9.942   5.639  0.9488 -0.9507 -1.8336
   56MOL0     H 7495   8.356   9.951   5.538  1.9339 -0.5868 -1.0857
   56MOL0     H 7496   8.273   9.812   5.470  0.0075 -1.6964 -2.8444
   56MOL0     H 7497   8.424   9.851   5.261 -1.1849 -1.2818  0.8032
   56MOL0     H 7498   8.522   9.823   5.415 -0.8367  1.8769  3.5645
   56MOL0     H 7499   8.455  10.071   5.238  2.3581  0.7161 -2.1512
   56MOL0     H 7500   8.606   9.995   5.264 -1.9507  1.0836 -2.0668
   56MOL0     H 7501   8.580  10.221   5.389  2.3889 -0.5674  0.1860
   56MOL0     H 7502   8.455  10.153   5.483  0.1758 -1.8430 -0.2097
   56MOL0     H 7503   8.617   9.971   5.575 -1.8651  0.7505  0.1188
   56MOL0     H 7504   8.721  10.036   5.439  0.4297  2.1997  0.9916
   56MOL0     H 7505   8.785  10.130   5.667 -0.1122  1.0276  1.1469
   56MOL0     H 7506   8.739  10.261   5.562 -1.6591 -0.4821  0.4953
   56MOL0     H 7507   8.633  10.229   5.800  2.3988  2.0572 -0.9258
   56MOL0     H 7508   8.512  10.131   5.723  3.1819 -1.9185  4.9741
   56MOL0     H 7509   8.611  10.418   5.675 -0.6256  0.0576 -4.0185
   56MOL0     H 7510   8.503  10.351   5.562 -1.1519  0.3037  0.4006
   56MOL0     H 7511   8.257  10.276   5.689 -3.2225 -0.4030  2.2365
   56MOL0     H 7512   8.025  10.353   5.850  0.1136 -0.5918  1.0009
   56MOL0     H 7513   8.092  10.428   5.997 -1.2893  2.0474 -0.6545
   56MOL0     H 7514   7.912  10.552   5.915 -1.4683 -0.2425 -2.5991
   56MOL0     H 7515   8.039  10.667   5.877 -4.5540  3.2597 -1.2870
   56MOL0     H 7516   7.883  10.502   5.680  0.3332 -0.7620  0.3207
   56MOL0     H 7517   8.037  10.566   5.634 -0.3575 -2.0798  1.1955
   56MOL0     H 7518   7.832  10.714   5.586  2.7627 -1.8509 -3.2797
   56MOL0     H 7519   7.974  10.793   5.647  0.0994 -1.2138  0.0438
   56MOL0     H 7520   7.668  10.597   5.694  1.8892 -0.1045  3.5500
   56MOL0     H 7521   7.425  10.598   5.730  1.2685 -1.9209  1.7023
   56MOL0     H 7522   7.129  10.878   6.203  0.9599  1.0855 -0.5151
   56MOL0     H 7523   6.883  10.870   6.260  0.9806 -1.2731  1.0862
   56MOL0     H 7524   6.716  11.094   6.178 -0.8826  1.4729  2.2088
   56MOL0     H 7525   6.607  11.070   6.035  0.2370  0.4200  0.5874
   56MOL0     H 7526   6.467  11.097   6.248  0.2324 -1.3521  3.2657
   56MOL0     H 7527   6.460  10.927   6.179 -1.2668 -1.0267  1.2582
   56MOL0     H 7528   6.553  10.838   6.367  3.6818  0.0430  0.7117
   56MOL0     H 7529   6.667  10.960   6.379  0.1466 -0.8018 -1.0490
   56MOL0     H 7530   6.359  10.960   6.427  2.3032  1.1548 -3.4314
   56MOL0     H 7531   6.462  11.089   6.494 -0.9576 -0.7046  1.1216
   56MOL0     H 7532   6.470  10.787   6.566 -0.4087 -0.5385 -2.1117
   56MOL0     H 7533   6.385  10.904   6.664  1.8387 -2.0264 -0.5008
   56MOL0     H 7534   6.592  10.832   6.767 -0.6068  0.6748  1.9052
   56MOL0     H 7535   6.694  10.893   6.634  2.3981  0.8334  1.6529
   56MOL0     H 7536   6.541  11.103   6.764 -0.2522  1.2917  0.0088
   56MOL0     H 7537   6.688  11.110   6.672  0.0799 -0.6566  0.4627
   56MOL0     H 7538   6.659  10.972   6.941  0.0988 -1.5570 -2.9973
   56MOL0     H 7539   6.815  10.998   6.865 -0.6374 -1.0851 -3.2532
   56MOL0     H 7540   6.792  10.910   5.848  1.6584 -1.8788 -2.1649
   56MOL0     H 7541   7.026  10.851   5.798  0.4841 -0.8226 -0.3298
   56MOL0     H 7542   7.447  10.939   5.968 -3.5488 -1.8509 -0.6904
   56MOL0     H 7543   7.685  10.952   5.934 -0.7949  0.6184 -1.3599
   56MOL0     H 7544   8.096  10.197   5.293  0.6100 -3.0983 -0.4699
   56MOL0     H 7545   7.917  10.318   5.421 -0.8422  0.4272  1.5648
   56MOL0     H 7546   7.813  10.347   5.882 -0.7351  1.4199  1.4862
   56MOL0     H 7547   7.660  10.507   6.010  0.4586 -0.7023  1.6747
   56MOL0     H 7548   7.311  10.312   6.158  0.4371 -0.0524  3.2862
   56MOL0     H 7549   7.255  10.484   6.179 -3.0684 -2.5992 -0.1879
   56MOL0     H 7550   7.514  10.346   6.269  0.1437 -1.4727 -0.1484
   56MOL0     H 7551   7.388  10.403   6.371  3.8127  1.8494  1.9714
   56MOL0     H 7552   7.566  10.578   6.200  0.1098 -0.2621 -1.4957
   56MOL0     H 7553   7.568  10.570   6.381  1.2086 -1.0796  0.0086
   56MOL0     H 7554   7.466  10.780   6.304 -1.0257  1.3213 -1.0540
   56MOL0     H 7555   7.359  10.701   6.189 -0.6925  3.2118  1.1481
   56MOL0     H 7556   7.124  10.632   6.511 -1.7944  0.9290 -2.3745
   56MOL0     H 7557   7.318  10.300   5.865 -0.7237  0.9364 -0.4560
   56MOL0     H 7558   7.426  10.156   5.601  0.3535 -0.6127 -0.1240
   56MOL0     H 7559   7.445  10.033   5.720 -0.3162 -0.5759 -0.4277
   56MOL0     H 7560   7.305  10.151   5.721 -0.2686  1.4875 -0.8314
   57MOL0     O 7561   0.898  10.928   2.454 -0.4757 -0.0558 -0.2497
   57MOL0     C 7562   0.891  11.029   2.395 -0.0198  0.3671 -0.2740
   57MOL0     O 7563   0.842  11.038   2.265 -0.1096 -0.7315 -0.0712
   57MOL0     C 7564   0.770  10.937   2.218  0.2256  0.5449  0.6971
   57MOL0     C 7565   0.822  10.865   2.113 -0.6314 -0.0082  0.5107
   57MOL0     C 7566   0.749  10.768   2.041 -1.1633  1.1499 -0.2497
   57MOL0     C 7567   0.620  10.730   2.082  0.3790 -0.0573 -0.0860
   57MOL0     O 7568   0.547  10.627   2.025 -0.1553 -0.0501  0.5201
   57MOL0     C 7569   0.587  10.586   1.891  0.0293 -0.1281  0.2040
   57MOL0     C 7570   0.455  10.520   1.833 -0.9645 -0.0402  0.5775
   57MOL0     C 7571   0.502  10.459   1.699 -0.8487 -0.1893 -0.6866
   57MOL0     C 7572   0.384  10.394   1.632 -0.5497  0.0614 -0.3424
   57MOL0     C 7573   0.420  10.345   1.494  0.5842 -0.8219  0.0195
   57MOL0     C 7574   0.341  10.221   1.456 -0.1971 -0.2663 -0.1334
   57MOL0     C 7575   0.374  10.162   1.322 -0.1179 -0.4292  0.1157
   57MOL0     C 7576   0.311  10.032   1.285  0.7752 -0.8797  0.2114
   57MOL0     N 7577   0.160  10.021   1.326  0.2997 -0.6685 -0.5799
   57MOL0     C 7578   0.061  10.083   1.263 -0.8332  0.5378  1.1846
   57MOL0     C 7579  -0.052  10.063   1.335  0.3959 -0.4999  0.7018
   57MOL0     C 7580  -0.185  10.116   1.298  0.3368 -1.0710  0.1946
   57MOL0     C 7581  -0.209  10.261   1.341 -0.0865 -0.6735  0.0219
   57MOL0     C 7582  -0.342  10.321   1.352  0.6210  0.9846  0.6516
   57MOL0     C 7583  -0.336  10.472   1.381 -0.2700  0.4716 -0.2427
   57MOL0     O 7584  -0.470  10.517   1.388 -0.0197  0.1985  0.3305
   57MOL0     C 7585  -0.501  10.596   1.281  0.2357  0.8109  0.1593
   57MOL0     C 7586  -0.592  10.546   1.191  0.4015  0.0867  0.2840
   57MOL0     C 7587  -0.650  10.626   1.100 -0.1926  0.0165 -0.0631
   57MOL0     C 7588  -0.611  10.760   1.084  0.3125 -0.2385 -0.3000
   57MOL0     C 7589  -0.693  10.844   1.003 -0.0585 -0.8154 -0.7930
   57MOL0     O 7590  -0.630  10.956   0.958 -0.1079 -0.5163 -0.5603
   57MOL0     C 7591  -0.703  11.058   0.906  0.3824 -1.5668  0.2563
   57MOL0     C 7592  -0.732  11.079   0.768  0.1892 -0.0577 -1.0280
   57MOL0     C 7593  -0.805  11.180   0.718 -0.1946  0.7276 -0.4061
   57MOL0     C 7594  -0.876  11.268   0.798  0.1515 -0.1297 -0.1798
   57MOL0     O 7595  -0.950  11.363   0.738  0.1660  0.2250 -0.3217
   57MOL0     C 7596  -1.064  11.429   0.805 -1.1604 -1.0667  0.5082
   57MOL0     C 7597  -1.168  11.336   0.866 -0.1146  0.9642  0.9319
   57MOL0     C 7598  -1.229  11.215   0.796 -0.4208  0.8999 -0.4514
   57MOL0     C 7599  -1.280  11.099   0.880 -0.0544 -0.6189  0.2838
   57MOL0     C 7600  -1.398  11.026   0.806 -0.3699  0.5004 -0.4237
   57MOL0     C 7601  -1.426  10.897   0.886 -0.5154 -0.5628  0.6486
   57MOL0     C 7602  -1.552  10.838   0.825  0.5926 -0.3410 -0.5491
   57MOL0     C 7603  -1.610  10.730   0.913 -0.5635 -0.2150 -0.2686
   57MOL0    Cl 7604  -1.651  10.787   1.076 -0.4867 -0.5053 -0.1328
   57MOL0     C 7605  -0.850  11.253   0.937 -0.8460  0.7437  0.6040
   57MOL0     C 7606  -0.758  11.155   0.984  0.4971 -0.0301  0.5277
   57MOL0     O 7607  -0.812  10.816   0.985  0.7328  0.0291 -0.2155
   57MOL0     C 7608  -0.493  10.803   1.154  0.5338 -0.2592 -0.3310
   57MOL0     C 7609  -0.445  10.727   1.259 -0.1445  0.1096  0.6939
   57MOL0     N 7610  -0.013   9.990   1.446  0.5633  0.3649 -0.3853
   57MOL0     N 7611   0.115   9.957   1.435  0.1211  0.2002 -0.0565
   57MOL0     C 7612   0.572  10.789   2.205 -0.4502  0.3829  0.2279
   57MOL0     C 7613   0.644  10.894   2.260  0.7260 -0.0328 -1.5941
   57MOL0     C 7614   0.955  11.158   2.439  0.4055 -0.0249  0.1945
   57MOL0     C 7615   0.971  11.264   2.344  0.4907 -0.1869 -0.6347
   57MOL0     C 7616   1.037  11.377   2.376 -0.1742  0.3141 -0.4814
   57MOL0     C 7617   1.098  11.396   2.498  0.8259 -1.1361 -0.0901
   57MOL0     O 7618   1.166  11.512   2.524 -0.1509  0.1579  0.4644
   57MOL0     C 7619   1.264  11.518   2.631 -0.4385  0.1899 -0.6779
   57MOL0     C 7620   1.313  11.666   2.665 -0.4557 -0.2538 -0.1205
   57MOL0     C 7621   1.420  11.706   2.559 -0.0376  0.0406  0.0965
   57MOL0     C 7622   1.444  11.855   2.566  0.1328  0.9185 -0.4703
   57MOL0     C 7623   1.453  11.908   2.703 -0.2983  0.0117  0.1104
   57MOL0     C 7624   1.446  11.969   2.811 -1.5254 -0.1005 -0.3377
   57MOL0     C 7625   1.086  11.289   2.590  0.9865 -0.0792 -0.2585
   57MOL0     C 7626   1.006  11.173   2.571  0.0498  0.4654  0.6276
   57MOL0     C 7627   0.982  11.073   2.682  0.3660  1.0370  1.0491
   57MOL0     H 7628   0.919  10.896   2.075 -0.5431 -0.9382 -0.0434
   57MOL0     H 7629   0.791  10.708   1.961  0.1152 -0.2156  1.3573
   57MOL0     H 7630   0.616  10.674   1.832 -1.8307  0.5767  0.2613
   57MOL0     H 7631   0.673  10.518   1.890 -0.9482 -1.4017 -0.4626
   57MOL0     H 7632   0.381  10.599   1.819  0.0777  1.4996  3.1247
   57MOL0     H 7633   0.409  10.440   1.892 -0.1939 -1.6105 -0.8613
   57MOL0     H 7634   0.568  10.378   1.731 -3.4041 -2.2876 -0.3750
   57MOL0     H 7635   0.540  10.535   1.630  0.8594  1.8435  2.2679
   57MOL0     H 7636   0.367  10.310   1.699  5.8854 -1.6788 -0.3086
   57MOL0     H 7637   0.292  10.454   1.632 -1.7815 -1.7368 -0.0714
   57MOL0     H 7638   0.391  10.426   1.425 -2.9817 -1.5338  0.4964
   57MOL0     H 7639   0.525  10.318   1.479 -0.1121 -3.4790 -0.5859
   57MOL0     H 7640   0.346  10.158   1.546 -0.1090  2.2038  1.6881
   57MOL0     H 7641   0.234  10.244   1.451 -0.2718 -0.3124  0.8856
   57MOL0     H 7642   0.483  10.149   1.319 -0.3607 -2.8812 -2.1805
   57MOL0     H 7643   0.348  10.243   1.253  1.1405 -1.5741 -1.8266
   57MOL0     H 7644   0.317  10.031   1.176 -2.4163 -0.0054 -0.0654
   57MOL0     H 7645   0.365   9.950   1.334  3.0324  0.7411  0.5632
   57MOL0     H 7646   0.076  10.145   1.174  1.3568 -1.7176 -0.1142
   57MOL0     H 7647  -0.185  10.098   1.190 -2.4699 -2.0224  0.2769
   57MOL0     H 7648  -0.262  10.050   1.340 -0.8114  0.5282  0.7005
   57MOL0     H 7649  -0.172  10.273   1.443  1.8066  3.7680 -0.9447
   57MOL0     H 7650  -0.145  10.324   1.277  3.1680 -0.9546  2.7525
   57MOL0     H 7651  -0.401  10.283   1.436 -1.8835 -2.0400 -2.2253
   57MOL0     H 7652  -0.394  10.305   1.257  0.7114 -3.6024  1.1643
   57MOL0     H 7653  -0.272  10.531   1.315 -0.0672 -0.8297 -1.2459
   57MOL0     H 7654  -0.298  10.475   1.484  1.8705  0.3898 -0.9888
   57MOL0     H 7655  -0.637  10.448   1.205  1.5336 -0.3997  0.6094
   57MOL0     H 7656  -0.733  10.595   1.037 -0.2592  1.5401 -0.7765
   57MOL0     H 7657  -0.686  11.009   0.699  0.4560 -1.0614  0.1462
   57MOL0     H 7658  -0.808  11.180   0.609 -0.8060  0.6806 -0.3946
   57MOL0     H 7659  -1.025  11.495   0.883 -0.9542  0.1405 -0.5880
   57MOL0     H 7660  -1.117  11.495   0.737 -0.3810 -1.3637 -0.4104
   57MOL0     H 7661  -1.129  11.308   0.965  1.9881  3.6048  0.9696
   57MOL0     H 7662  -1.253  11.401   0.890  2.3195  4.1315  1.6795
   57MOL0     H 7663  -1.313  11.233   0.728 -1.6096  0.0098  0.7114
   57MOL0     H 7664  -1.150  11.174   0.732  0.1036 -0.8323  1.2190
   57MOL0     H 7665  -1.310  11.122   0.983  2.3831 -0.5120  1.0380
   57MOL0     H 7666  -1.188  11.041   0.890  0.8187  0.4171 -1.2651
   57MOL0     H 7667  -1.372  10.989   0.706 -1.1267  1.8161 -1.1266
   57MOL0     H 7668  -1.481  11.095   0.789  0.8369  2.0602 -0.2016
   57MOL0     H 7669  -1.339  10.831   0.874 -1.1036 -0.8344 -3.8662
   57MOL0     H 7670  -1.435  10.934   0.989 -2.0054  1.9749 -0.3057
   57MOL0     H 7671  -1.518  10.779   0.739 -2.0833  0.8468 -2.5519
   57MOL0     H 7672  -1.631  10.906   0.793 -0.7266  0.3104  3.5349
   57MOL0     H 7673  -1.695  10.679   0.868  0.1200 -0.0718 -1.7876
   57MOL0     H 7674  -1.522  10.665   0.918  2.4205  3.5763  2.6380
   57MOL0     H 7675  -0.897  11.313   1.014 -0.6072  0.7557  0.7410
   57MOL0     H 7676  -0.735  11.147   1.090  0.2315  1.0958  0.6840
   57MOL0     H 7677  -0.455  10.903   1.134  2.5180 -1.2532 -1.9367
   57MOL0     H 7678  -0.376  10.755   1.338  0.5357 -1.2979  0.6266
   57MOL0     H 7679   0.478  10.765   2.254 -1.2477 -0.1111 -1.4614
   57MOL0     H 7680   0.607  10.945   2.348  2.3022  1.1368 -1.5640
   57MOL0     H 7681   0.947  11.259   2.238  3.0729 -0.3951 -1.2805
   57MOL0     H 7682   1.062  11.456   2.305 -0.5644  2.2837  1.4622
   57MOL0     H 7683   1.357  11.463   2.616 -0.0515  1.1831 -2.0794
   57MOL0     H 7684   1.224  11.473   2.723  2.4122 -1.6689 -0.2349
   57MOL0     H 7685   1.380  11.658   2.751  0.2995 -0.9395 -0.7667
   57MOL0     H 7686   1.237  11.744   2.676  0.4639  0.9706 -1.9028
   57MOL0     H 7687   1.386  11.688   2.457  0.6108  3.0654 -0.7627
   57MOL0     H 7688   1.515  11.654   2.576  1.6359  3.2224  1.5054
   57MOL0     H 7689   1.538  11.881   2.517  0.1217 -1.8005 -2.1313
   57MOL0     H 7690   1.364  11.921   2.532  1.9412  3.4551 -0.0939
   57MOL0     H 7691   1.436  12.024   2.903 -0.8153 -2.2596  1.1190
   57MOL0     H 7692   1.118  11.301   2.693 -1.3710  1.1942  0.3990
   57MOL0     H 7693   1.015  10.972   2.657 -0.7691 -0.0685  3.6193
   57MOL0     H 7694   1.022  11.102   2.780  2.6723 -1.5830  1.0029
   57MOL0     H 7695   0.873  11.067   2.693  0.6303 -0.6365  3.6850
   58MOL0     O 7696  10.013   9.737   9.944 -1.0958  0.3970  0.9560
   58MOL0     C 7697  10.098   9.773  10.029  0.7160  0.4487  0.1539
   58MOL0     O 7698  10.059   9.811  10.156 -0.7484  0.7708  0.4887
   58MOL0     C 7699   9.930   9.790  10.178  0.3808  0.4640  0.0740
   58MOL0     C 7700   9.874   9.672  10.228  0.0683  0.6888 -1.3201
   58MOL0     C 7701   9.740   9.667  10.274  0.2230 -0.0886  0.3735
   58MOL0     C 7702   9.662   9.783  10.248  0.1710 -0.6891 -0.2758
   58MOL0     O 7703   9.533   9.791  10.297 -0.0952  0.4237 -0.0629
   58MOL0     C 7704   9.440   9.686  10.269  0.0393  0.0686 -0.4916
   58MOL0     C 7705   9.406   9.655  10.121  0.1455 -0.1260 -0.4484
   58MOL0     C 7706   9.353   9.773  10.033  0.3089  0.1265  0.4771
   58MOL0     C 7707   9.354   9.717   9.887  0.0061 -0.2059 -0.4365
   58MOL0     C 7708   9.231   9.769   9.795  0.9360 -0.1714 -0.8779
   58MOL0     C 7709   9.236   9.912   9.737 -0.5324  0.0113 -0.1048
   58MOL0     C 7710   9.279  10.007   9.845 -0.0321  0.4589  0.9808
   58MOL0     C 7711   9.258  10.144   9.788  0.5810  0.4258 -0.3348
   58MOL0     N 7712   9.119  10.197   9.776  0.2452  0.5166 -0.8261
   58MOL0     C 7713   9.018  10.213   9.869  0.7839 -0.7957 -0.0493
   58MOL0     C 7714   8.914  10.265   9.802  0.2087  0.8046 -0.8470
   58MOL0     C 7715   8.779  10.304   9.864  0.3474  0.1250  0.5436
   58MOL0     C 7716   8.711  10.199   9.943  0.6102  0.9820  0.0682
   58MOL0     C 7717   8.590  10.245  10.033  0.6202 -0.4308  0.5088
   58MOL0     C 7718   8.591  10.388  10.089 -0.1253  0.2067  0.4876
   58MOL0     O 7719   8.717  10.417  10.160  0.5272 -0.1119  0.0359
   58MOL0     C 7720   8.737  10.407  10.293 -0.7252  0.1448 -0.8942
   58MOL0     C 7721   8.823  10.487  10.359 -0.4114 -0.8159  0.1399
   58MOL0     C 7722   8.833  10.503  10.494 -0.3756 -0.0967  0.6624
   58MOL0     C 7723   8.747  10.428  10.577  0.6197 -0.4710 -0.1744
   58MOL0     C 7724   8.758  10.437  10.725  0.7750  0.4024  0.6763
   58MOL0     O 7725   8.655  10.375  10.797  0.0441 -1.2407 -0.7478
   58MOL0     C 7726   8.650  10.425  10.930  0.1865  0.0792  0.4636
   58MOL0     C 7727   8.638  10.329  11.019 -0.3840  0.9149 -0.3024
   58MOL0     C 7728   8.658  10.366  11.155  0.4136  0.2386  0.5762
   58MOL0     C 7729   8.660  10.502  11.192  0.7195  0.7478  0.3201
   58MOL0     O 7730   8.662  10.550  11.323 -0.0376  0.5382 -0.0929
   58MOL0     C 7731   8.709  10.461  11.425 -0.2273  0.6617  0.9232
   58MOL0     C 7732   8.751  10.542  11.559 -0.4191  0.2243  0.5701
   58MOL0     C 7733   8.870  10.647  11.540  0.8708 -0.2234 -0.3679
   58MOL0     C 7734   8.914  10.691  11.682  0.3242 -0.2483 -0.1050
   58MOL0     C 7735   9.029  10.795  11.671  0.8965 -0.3724 -0.1851
   58MOL0     C 7736   8.975  10.933  11.678 -1.2968 -0.9773  0.0727
   58MOL0     C 7737   9.088  11.032  11.681 -0.0658  1.3669  0.3612
   58MOL0     C 7738   9.040  11.174  11.664 -0.6423  0.2424 -1.0218
   58MOL0    Cl 7739   8.962  11.224  11.819 -0.6739  0.5010  0.0918
   58MOL0     C 7740   8.650  10.597  11.094 -0.4356 -0.3091  0.7754
   58MOL0     C 7741   8.650  10.559  10.961 -0.0687 -1.0927  0.0149
   58MOL0     O 7742   8.857  10.488  10.771  0.1667 -0.5210  0.3822
   58MOL0     C 7743   8.659  10.337  10.517 -0.1234 -0.1893  0.3451
   58MOL0     C 7744   8.658  10.326  10.377  1.2654 -0.2414  0.1739
   58MOL0     N 7745   8.946  10.276   9.672  0.0892 -0.1221  0.8126
   58MOL0     N 7746   9.067  10.224   9.657  0.2244  0.2855 -0.2299
   58MOL0     C 7747   9.717   9.895  10.195 -0.1798  0.0195 -0.1613
   58MOL0     C 7748   9.855   9.902  10.150  0.3854  0.1815 -0.3350
   58MOL0     C 7749  10.231   9.801   9.973  0.7611  0.0391  0.2987
   58MOL0     C 7750  10.266   9.933   9.965 -0.1106  0.5874 -0.1396
   58MOL0     C 7751  10.387   9.979   9.927 -0.0681 -0.2501  0.5492
   58MOL0     C 7752  10.481   9.879   9.913  0.2728  1.2413 -0.1112
   58MOL0     O 7753  10.599   9.927   9.866  0.4000 -0.0044  0.5736
   58MOL0     C 7754  10.713   9.857   9.919  0.0197  0.3169  0.3344
   58MOL0     C 7755  10.828   9.966   9.939  1.2673  0.8548 -0.5804
   58MOL0     C 7756  10.886   9.940  10.077 -0.4450 -0.8473 -0.2419
   58MOL0     C 7757  10.836  10.050  10.171  0.3355 -0.4459  0.2981
   58MOL0     C 7758  10.891  10.182  10.169 -0.4018 -0.0939  0.2887
   58MOL0     C 7759  10.947  10.284  10.158 -0.5692  0.6505  0.3293
   58MOL0     C 7760  10.451   9.745   9.930 -0.1585 -0.0235 -0.5528
   58MOL0     C 7761  10.324   9.699   9.951 -0.4417  0.5028 -0.9352
   58MOL0     C 7762  10.306   9.553   9.969  0.1051 -0.2367 -0.0025
   58MOL0     H 7763   9.939   9.588  10.250 -0.4505  1.5176  4.9773
   58MOL0     H 7764   9.701   9.583  10.330 -0.0827  0.0773  0.4112
   58MOL0     H 7765   9.473   9.593  10.316 -1.8242 -0.3227  0.1178
   58MOL0     H 7766   9.347   9.708  10.322 -3.0353 -0.9163 -4.9346
   58MOL0     H 7767   9.323   9.583  10.112 -0.6332  1.0124 -3.8213
   58MOL0     H 7768   9.478   9.595  10.065 -1.7582 -1.5361 -1.5099
   58MOL0     H 7769   9.427   9.854  10.038 -1.0949  2.0237 -4.1392
   58MOL0     H 7770   9.258   9.806  10.074 -0.0549  0.6604 -0.7623
   58MOL0     H 7771   9.454   9.727   9.845  1.0563 -2.2789  1.3450
   58MOL0     H 7772   9.331   9.610   9.888 -5.7216  0.6909  0.9598
   58MOL0     H 7773   9.216   9.693   9.718 -0.0463  0.3676 -1.2281
   58MOL0     H 7774   9.136   9.776   9.848  1.3408 -0.9506 -0.0147
   58MOL0     H 7775   9.310   9.902   9.657 -1.8253  2.5929 -1.7253
   58MOL0     H 7776   9.145   9.945   9.687 -0.2484  1.0992  0.0659
   58MOL0     H 7777   9.384   9.987   9.870  0.2444 -0.8768 -1.0100
   58MOL0     H 7778   9.231   9.999   9.943 -1.0394 -3.0898  0.3576
   58MOL0     H 7779   9.316  10.219   9.842 -1.8628  4.7816 -3.1913
   58MOL0     H 7780   9.295  10.149   9.686 -4.0891  1.3745 -2.2442
   58MOL0     H 7781   9.019  10.189   9.975  0.2434 -4.1236 -0.6896
   58MOL0     H 7782   8.809  10.384   9.933 -1.0703 -0.3044  1.7004
   58MOL0     H 7783   8.726  10.344   9.777  1.3969  1.2243  0.3726
   58MOL0     H 7784   8.668  10.140   9.862 -2.4064  3.9734 -0.7736
   58MOL0     H 7785   8.777  10.141  10.007  1.8961  0.5310 -1.5939
   58MOL0     H 7786   8.587  10.175  10.117  1.6793 -1.4943 -0.2971
   58MOL0     H 7787   8.494  10.244   9.981  1.5006  4.9821 -1.9394
   58MOL0     H 7788   8.496  10.404  10.140 -0.3196 -1.0044  0.5266
   58MOL0     H 7789   8.580  10.447   9.997 -1.0469 -1.5703 -0.5893
   58MOL0     H 7790   8.899  10.535  10.298 -3.7135  2.1755 -2.0511
   58MOL0     H 7791   8.902  10.580  10.525  0.3758 -0.8854  0.9802
   58MOL0     H 7792   8.643  10.227  10.985  1.2681  0.9055 -0.1170
   58MOL0     H 7793   8.667  10.282  11.224 -2.2285 -0.5767  0.0595
   58MOL0     H 7794   8.647  10.376  11.454  2.0594 -1.1221  0.9099
   58MOL0     H 7795   8.801  10.425  11.378  0.0160  1.1338  1.0317
   58MOL0     H 7796   8.663  10.595  11.596 -0.6944  0.4671 -0.4103
   58MOL0     H 7797   8.782  10.472  11.638 -2.7198  1.3279  2.5977
   58MOL0     H 7798   8.942  10.593  11.478 -2.2448 -0.0320 -4.6190
   58MOL0     H 7799   8.834  10.734  11.483 -0.3967 -1.4683 -1.5386
   58MOL0     H 7800   8.934  10.607  11.749 -0.9340 -0.6043 -0.1605
   58MOL0     H 7801   8.832  10.742  11.733  0.4373 -0.8230  0.6746
   58MOL0     H 7802   9.083  10.787  11.577  0.8908 -0.2628 -0.1979
   58MOL0     H 7803   9.102  10.796  11.753  0.3123  0.6815  0.3512
   58MOL0     H 7804   8.910  10.968  11.597  1.8094  1.7259 -1.4725
   58MOL0     H 7805   8.925  10.953  11.774 -3.6499  4.2882 -1.8801
   58MOL0     H 7806   9.147  11.001  11.594 -1.3799 -0.3151  0.0213
   58MOL0     H 7807   9.135  11.019  11.779 -0.9118 -1.2163  0.5107
   58MOL0     H 7808   9.139  11.221  11.669  0.1025 -1.3644  2.9036
   58MOL0     H 7809   8.973  11.200  11.582  0.4132 -0.8205 -2.2630
   58MOL0     H 7810   8.637  10.702  11.119 -1.7958  0.6263 -3.1871
   58MOL0     H 7811   8.656  10.643  10.893  2.2933  1.3139  2.9075
   58MOL0     H 7812   8.592  10.289  10.588  2.3093 -1.0865  2.2013
   58MOL0     H 7813   8.586  10.254  10.338  0.5015 -0.4172  1.8071
   58MOL0     H 7814   9.654   9.983  10.187  0.7796  0.5489 -3.8181
   58MOL0     H 7815   9.904   9.991  10.112  0.0539 -0.4760 -2.4197
   58MOL0     H 7816  10.184  10.002   9.983  2.0148  3.7078 -1.5848
   58MOL0     H 7817  10.400  10.086   9.913 -0.1195 -0.1959  0.9159
   58MOL0     H 7818  10.747   9.787   9.842  1.1709  2.4053 -1.1375
   58MOL0     H 7819  10.691   9.797  10.008  1.2882 -0.7573 -0.0421
   58MOL0     H 7820  10.780  10.065   9.930  2.0338  1.0609 -3.1900
   58MOL0     H 7821  10.900   9.954   9.858  0.4114 -2.5993 -1.0034
   58MOL0     H 7822  10.993   9.956  10.066 -0.4093 -1.7294 -1.3341
   58MOL0     H 7823  10.858   9.849  10.131 -3.3906 -0.1239 -0.3867
   58MOL0     H 7824  10.729  10.061  10.157 -0.2659  0.7316  4.4092
   58MOL0     H 7825  10.851  10.012  10.273 -0.3565 -2.5154 -0.3229
   58MOL0     H 7826  10.988  10.382  10.143  1.4044 -0.3647 -1.3153
   58MOL0     H 7827  10.537   9.684   9.905 -0.4508 -0.3414 -0.7824
   58MOL0     H 7828  10.337   9.494   9.882 -1.4126  0.0320 -0.7623
   58MOL0     H 7829  10.376   9.524  10.048 -0.9352 -1.3158  0.5614
   58MOL0     H 7830  10.203   9.520   9.985 -0.8396  1.8162 -1.4437
   59MOL0     O 7831   3.969   3.514  10.489 -0.0594  0.0359  0.1535
   59MOL0     C 7832   4.025   3.618  10.512 -0.3459  0.2953 -0.1049
   59MOL0     O 7833   4.082   3.694  10.411 -0.1902 -0.9353 -0.0577
   59MOL0     C 7834   4.045   3.677  10.280 -0.0568 -0.2670  1.2291
   59MOL0     C 7835   4.065   3.552  10.211 -0.3018  0.5465  0.1680
   59MOL0     C 7836   4.038   3.548  10.072 -0.2550  0.3192 -0.5434
   59MOL0     C 7837   3.984   3.654  10.007  0.3326 -0.1433 -0.2119
   59MOL0     O 7838   3.923   3.650   9.886 -0.2694  0.3460 -0.1408
   59MOL0     C 7839   4.009   3.605   9.774 -0.2882 -0.4626 -0.5060
   59MOL0     C 7840   4.072   3.730   9.718 -0.1470 -0.0460  0.4843
   59MOL0     C 7841   4.221   3.716   9.706  0.0145  0.8220 -0.4914
   59MOL0     C 7842   4.295   3.818   9.638 -1.2147 -0.0002  1.0347
   59MOL0     C 7843   4.446   3.784   9.633 -0.5883  1.8562 -0.2939
   59MOL0     C 7844   4.522   3.882   9.539  0.1273  0.3079 -0.0201
   59MOL0     C 7845   4.655   3.846   9.479 -0.1539 -0.0665 -0.5447
   59MOL0     C 7846   4.739   3.966   9.427 -1.0864  0.0977  0.4751
   59MOL0     N 7847   4.723   3.982   9.279  0.1297  1.0210  0.3539
   59MOL0     C 7848   4.809   3.933   9.190  0.8988  0.4984 -0.0817
   59MOL0     C 7849   4.762   3.961   9.062  0.1027 -0.4724 -0.3105
   59MOL0     C 7850   4.820   3.919   8.934 -0.4468  0.3494  0.0584
   59MOL0     C 7851   4.881   4.030   8.849  0.6174  0.1741  1.2708
   59MOL0     C 7852   4.977   4.124   8.919 -0.1121 -0.2957  0.4885
   59MOL0     C 7853   5.109   4.047   8.945 -0.1398  0.8160  0.4023
   59MOL0     O 7854   5.224   4.130   8.957 -0.2381  0.0920  0.0986
   59MOL0     C 7855   5.285   4.189   8.855  0.0673 -0.4398 -0.0841
   59MOL0     C 7856   5.387   4.278   8.889  0.0657  0.0217  0.3326
   59MOL0     C 7857   5.448   4.358   8.782 -0.0037 -0.2007  0.5815
   59MOL0     C 7858   5.413   4.353   8.651  0.0521  0.9361 -0.8411
   59MOL0     C 7859   5.467   4.435   8.546  0.2556 -0.4147  0.0314
   59MOL0     O 7860   5.404   4.435   8.425 -0.1551  0.4926  1.4817
   59MOL0     C 7861   5.462   4.512   8.317 -0.1737  1.1101 -0.2310
   59MOL0     C 7862   5.576   4.460   8.250 -0.1463 -0.0803 -0.3639
   59MOL0     C 7863   5.640   4.527   8.146 -0.0159 -0.0250  0.1180
   59MOL0     C 7864   5.584   4.649   8.101  0.7261 -0.7426 -0.4480
   59MOL0     O 7865   5.620   4.717   7.991  0.4804  0.3634 -0.6891
   59MOL0     C 7866   5.760   4.750   7.984  0.3526  0.5545 -0.2390
   59MOL0     C 7867   5.784   4.839   7.855  0.7152  0.3451  1.2988
   59MOL0     C 7868   5.700   4.967   7.858 -0.3267 -0.8396  0.9115
   59MOL0     C 7869   5.737   5.054   7.974 -0.0943 -0.7213 -0.6265
   59MOL0     C 7870   5.649   5.184   7.987  0.3804  0.2803  0.4286
   59MOL0     C 7871   5.501   5.160   8.020  0.4860  0.1816 -0.3279
   59MOL0     C 7872   5.411   5.284   8.025  0.1052 -0.0075  0.1641
   59MOL0     C 7873   5.452   5.381   8.129  0.5199  0.1262  0.1523
   59MOL0    Cl 7874   5.314   5.494   8.161  0.4065 -0.4893  0.5517
   59MOL0     C 7875   5.472   4.703   8.174  0.5611  0.2940  0.4966
   59MOL0     C 7876   5.406   4.632   8.282  0.4351 -0.8668  0.4847
   59MOL0     O 7877   5.563   4.508   8.582  0.0320  0.7619  0.3398
   59MOL0     C 7878   5.297   4.263   8.623 -1.1236 -0.9773  1.1607
   59MOL0     C 7879   5.242   4.183   8.721  0.2488 -0.3914  0.8020
   59MOL0     N 7880   4.658   4.041   9.082 -0.2772 -0.0893 -0.5705
   59MOL0     N 7881   4.638   4.061   9.208  0.3656 -0.0012 -0.0664
   59MOL0     C 7882   3.967   3.773  10.079  0.3463  0.7259 -0.5786
   59MOL0     C 7883   3.993   3.783  10.211  0.0040 -0.1310 -0.3958
   59MOL0     C 7884   4.062   3.653  10.654 -0.7972  0.7718  0.8890
   59MOL0     C 7885   4.169   3.729  10.669 -1.1220 -0.0469  0.3812
   59MOL0     C 7886   4.212   3.783  10.792 -0.1060 -0.6612  0.3449
   59MOL0     C 7887   4.134   3.760  10.906  0.0402 -0.2437  0.1709
   59MOL0     O 7888   4.164   3.821  11.022  0.1940  0.3035 -0.5694
   59MOL0     C 7889   4.190   3.717  11.125 -0.2386  0.9529 -0.4802
   59MOL0     C 7890   4.123   3.746  11.252  0.0941 -1.5402 -0.0488
   59MOL0     C 7891   4.161   3.887  11.316  0.4646 -0.0517 -0.6973
   59MOL0     C 7892   4.159   3.884  11.476 -0.4752 -1.3103  1.3491
   59MOL0     C 7893   4.019   3.839  11.508 -0.3542 -1.1481  0.3935
   59MOL0     C 7894   3.908   3.810  11.551  0.5934 -0.1095 -0.7001
   59MOL0     C 7895   4.027   3.677  10.892 -0.0123  0.5434  0.0452
   59MOL0     C 7896   3.990   3.626  10.766  0.5107  0.3449  0.3603
   59MOL0     C 7897   3.853   3.554  10.755 -0.0023  0.6100 -0.8121
   59MOL0     H 7898   4.094   3.466  10.270  2.9642  0.3297 -1.5192
   59MOL0     H 7899   4.047   3.449  10.028 -1.1151 -1.0230  2.0974
   59MOL0     H 7900   4.082   3.532   9.810 -0.7001 -0.5356  0.2062
   59MOL0     H 7901   3.960   3.551   9.693 -1.1960 -2.5609  1.3353
   59MOL0     H 7902   4.059   3.811   9.792  0.4745  1.9874 -1.5111
   59MOL0     H 7903   4.018   3.759   9.627 -0.3056 -0.4309  0.4557
   59MOL0     H 7904   4.234   3.619   9.656 -3.3829  0.2230 -0.4822
   59MOL0     H 7905   4.278   3.703   9.798 -0.4841 -1.0852 -0.3925
   59MOL0     H 7906   4.269   3.844   9.535  1.1277  0.5762  0.5312
   59MOL0     H 7907   4.289   3.913   9.691  1.4048  0.3642  0.8201
   59MOL0     H 7908   4.493   3.772   9.731 -2.3819 -0.1061  0.3936
   59MOL0     H 7909   4.457   3.686   9.586 -2.8300  1.5843 -0.3185
   59MOL0     H 7910   4.451   3.891   9.456 -2.0939 -2.0490  1.4978
   59MOL0     H 7911   4.532   3.980   9.587 -2.3810 -0.3618  2.1528
   59MOL0     H 7912   4.637   3.772   9.400  1.0523  0.9727 -1.8563
   59MOL0     H 7913   4.715   3.790   9.552 -2.4747  0.2302  1.7457
   59MOL0     H 7914   4.705   4.057   9.477 -0.2717  0.9234 -0.4351
   59MOL0     H 7915   4.845   3.951   9.450 -1.0308 -1.7167 -0.7269
   59MOL0     H 7916   4.896   3.874   9.216  2.4382  3.1668  1.3036
   59MOL0     H 7917   4.887   3.836   8.959  1.6955  2.0761  0.4188
   59MOL0     H 7918   4.727   3.898   8.881 -0.8473  0.5922  0.6539
   59MOL0     H 7919   4.926   3.986   8.759  4.6502  1.6371  2.3775
   59MOL0     H 7920   4.805   4.103   8.820 -0.2342 -0.3019  2.2599
   59MOL0     H 7921   4.924   4.147   9.012 -0.3326  0.8835  0.0923
   59MOL0     H 7922   4.996   4.225   8.880 -1.6396 -0.6801 -1.4440
   59MOL0     H 7923   5.131   3.952   8.895  0.6856 -0.6669  3.3323
   59MOL0     H 7924   5.083   4.016   9.047 -0.8127 -0.6419 -0.1792
   59MOL0     H 7925   5.420   4.301   8.990 -0.4800  1.8429  0.1420
   59MOL0     H 7926   5.536   4.413   8.815  1.4998 -1.9958 -0.2257
   59MOL0     H 7927   5.619   4.368   8.290  2.3291  1.6369  1.2657
   59MOL0     H 7928   5.715   4.474   8.087  0.3703  0.5029  0.1328
   59MOL0     H 7929   5.784   4.801   8.078 -2.2881 -5.1380  4.1425
   59MOL0     H 7930   5.819   4.660   7.966 -0.8901  0.2277 -3.2457
   59MOL0     H 7931   5.890   4.859   7.843  1.0740 -2.2735 -0.9820
   59MOL0     H 7932   5.745   4.772   7.777  0.8803 -2.0430  3.1533
   59MOL0     H 7933   5.727   5.018   7.766  2.5654 -1.7420  1.1571
   59MOL0     H 7934   5.594   4.939   7.862 -0.4649 -0.8229  6.6716
   59MOL0     H 7935   5.841   5.087   7.967 -0.0411 -0.9726 -1.0745
   59MOL0     H 7936   5.740   4.994   8.066  0.2948  1.3963  0.8131
   59MOL0     H 7937   5.672   5.244   7.898  2.7123  0.0724  0.8194
   59MOL0     H 7938   5.689   5.254   8.062 -0.3696  0.2611  0.8478
   59MOL0     H 7939   5.461   5.084   7.951  1.4328 -0.4972 -0.1432
   59MOL0     H 7940   5.478   5.107   8.113 -1.7325  2.0804  0.3142
   59MOL0     H 7941   5.309   5.246   8.040  0.3077 -0.4668  0.4085
   59MOL0     H 7942   5.403   5.339   7.931  1.3420  0.6043  0.3995
   59MOL0     H 7943   5.462   5.345   8.232 -0.5381  0.8159  0.5121
   59MOL0     H 7944   5.547   5.431   8.108  0.5837  0.4484  1.1215
   59MOL0     H 7945   5.442   4.798   8.130  3.8374  1.2106 -0.0366
   59MOL0     H 7946   5.318   4.679   8.324  0.9917  0.6575  0.0019
   59MOL0     H 7947   5.258   4.273   8.522  1.4049  0.0478  0.2156
   59MOL0     H 7948   5.152   4.129   8.695 -0.0270  1.0366 -1.5413
   59MOL0     H 7949   3.933   3.857  10.020 -0.4760 -1.6571 -3.7736
   59MOL0     H 7950   3.992   3.882  10.258 -0.3325 -0.0586 -0.5571
   59MOL0     H 7951   4.229   3.743  10.580  1.1819 -0.3823  1.7748
   59MOL0     H 7952   4.293   3.855  10.780 -1.5181  0.5573 -3.0875
   59MOL0     H 7953   4.298   3.726  11.140 -0.1959  1.4149 -1.0592
   59MOL0     H 7954   4.168   3.617  11.086  1.6471  0.7966 -1.2637
   59MOL0     H 7955   4.156   3.668  11.322 -0.5269 -0.9520  0.9332
   59MOL0     H 7956   4.015   3.734  11.247  0.0176 -0.7922 -0.3524
   59MOL0     H 7957   4.084   3.963  11.295 -1.1143 -1.7301 -1.2168
   59MOL0     H 7958   4.256   3.924  11.276  2.5750 -1.1374  2.8587
   59MOL0     H 7959   4.243   3.820  11.506  0.4786  1.5186  5.4516
   59MOL0     H 7960   4.184   3.979  11.522  3.5796 -0.7474 -1.4271
   59MOL0     H 7961   3.813   3.773  11.583 -0.6666  2.0162 -1.7599
   59MOL0     H 7962   3.966   3.670  10.981  3.4161 -2.7478  2.4807
   59MOL0     H 7963   3.838   3.495  10.846 -0.1704 -1.1691 -1.9358
   59MOL0     H 7964   3.779   3.625  10.718  0.6534  0.3560 -2.7339
   59MOL0     H 7965   3.857   3.474  10.681  1.6130  0.7725 -0.9450
   60MOL0     O 7966   7.899   7.873   9.125  0.7722 -0.0111  0.4310
   60MOL0     C 7967   7.941   7.984   9.150  0.4087  0.4918  0.7201
   60MOL0     O 7968   7.994   8.074   9.058 -0.4345  0.1108 -0.0768
   60MOL0     C 7969   8.035   8.050   8.927 -0.6002  0.7197 -0.4115
   60MOL0     C 7970   8.034   7.926   8.865  0.5550  0.2245  0.1794
   60MOL0     C 7971   8.077   7.918   8.727  0.3338  0.1577  0.1455
   60MOL0     C 7972   8.076   8.034   8.652 -0.4168  0.2849  0.7595
   60MOL0     O 7973   8.089   8.008   8.514 -0.2613  0.8710  0.8606
   60MOL0     C 7974   7.990   8.056   8.422  0.4309  0.5874 -0.1715
   60MOL0     C 7975   7.984   7.970   8.297 -0.2327  0.2902 -0.1902
   60MOL0     C 7976   7.991   7.821   8.328  0.4118 -0.5277  0.1131
   60MOL0     C 7977   7.991   7.756   8.187 -0.0627  0.0181 -0.1097
   60MOL0     C 7978   8.016   7.614   8.222  0.1356  0.0174 -0.1854
   60MOL0     C 7979   8.019   7.520   8.101 -0.8272 -0.1915  0.2148
   60MOL0     C 7980   7.876   7.468   8.065  0.0721  0.0809 -0.8391
   60MOL0     C 7981   7.894   7.388   7.935  1.1289  0.0680  1.0671
   60MOL0     N 7982   7.901   7.484   7.822  0.4734 -0.4480  0.3133
   60MOL0     C 7983   7.999   7.516   7.736  0.0078 -0.2628  0.2961
   60MOL0     C 7984   7.959   7.615   7.657 -0.7278 -0.3222  0.0454
   60MOL0     C 7985   8.055   7.660   7.552 -0.2012 -0.6606  1.2649
   60MOL0     C 7986   8.033   7.615   7.408 -1.1242  0.9065 -0.2140
   60MOL0     C 7987   8.040   7.461   7.405  0.0195 -0.4510  0.0392
   60MOL0     C 7988   8.033   7.409   7.263  0.8139 -0.2073  0.9633
   60MOL0     O 7989   8.012   7.283   7.232 -0.2359 -0.1476  0.7774
   60MOL0     C 7990   8.010   7.253   7.093  0.4987  0.2553  0.3950
   60MOL0     C 7991   8.027   7.334   6.976  0.2322  0.4901 -0.6137
   60MOL0     C 7992   8.012   7.296   6.853 -0.4911 -0.5149  0.0519
   60MOL0     C 7993   7.982   7.162   6.826  0.7620 -0.5955  0.0145
   60MOL0     C 7994   7.962   7.102   6.694 -0.5550  0.2736  0.3404
   60MOL0     O 7995   7.886   6.984   6.682 -0.2908  1.0587 -0.2530
   60MOL0     C 7996   7.870   6.942   6.551  0.0076 -0.4408  0.7336
   60MOL0     C 7997   7.737   6.891   6.516  0.0722  0.4390  0.9611
   60MOL0     C 7998   7.704   6.821   6.393  0.1619 -0.7506 -1.0380
   60MOL0     C 7999   7.803   6.811   6.298  0.5591 -0.3492  0.2798
   60MOL0     O 8000   7.787   6.753   6.180 -0.0094 -1.1005  0.8649
   60MOL0     C 8001   7.722   6.621   6.206  0.4654 -0.1215  0.4091
   60MOL0     C 8002   7.709   6.548   6.082  0.5898 -1.3921  0.7403
   60MOL0     C 8003   7.690   6.401   6.087 -0.4604  0.3600 -0.6744
   60MOL0     C 8004   7.680   6.356   5.935 -0.2461 -0.3646 -0.8890
   60MOL0     C 8005   7.694   6.196   5.927 -0.0298 -0.2401 -0.2619
   60MOL0     C 8006   7.830   6.146   5.897  0.5843  0.1474 -0.3788
   60MOL0     C 8007   7.874   6.164   5.752 -0.9137  0.0734 -0.3345
   60MOL0     C 8008   7.784   6.101   5.653 -0.3205 -0.3315  0.2169
   60MOL0    Cl 8009   7.883   6.080   5.505 -0.1718  0.4710 -0.1381
   60MOL0     C 8010   7.936   6.855   6.327 -1.1170 -0.9071  0.1891
   60MOL0     C 8011   7.970   6.916   6.454  0.8999 -0.0384 -0.3476
   60MOL0     O 8012   8.019   7.151   6.595  0.3527  0.1529 -0.4822
   60MOL0     C 8013   7.959   7.081   6.930 -0.4416  0.5042  0.4706
   60MOL0     C 8014   7.983   7.120   7.061  0.2695  0.3271 -0.0277
   60MOL0     N 8015   7.826   7.647   7.688  0.8774 -0.2984 -0.4193
   60MOL0     N 8016   7.797   7.574   7.792 -0.1580  0.6048 -0.8395
   60MOL0     C 8017   8.065   8.158   8.699 -0.0407 -0.3651 -0.0155
   60MOL0     C 8018   8.041   8.164   8.841  0.8553  0.4548  0.4548
   60MOL0     C 8019   7.915   8.029   9.288  0.0267 -0.6327  0.7871
   60MOL0     C 8020   7.798   8.107   9.320  0.2116  0.1268 -0.4541
   60MOL0     C 8021   7.761   8.146   9.450  0.4086 -0.6331  0.2770
   60MOL0     C 8022   7.844   8.113   9.556  0.5331 -1.0099 -0.0641
   60MOL0     O 8023   7.825   8.149   9.684  0.8690  0.8161 -0.7772
   60MOL0     C 8024   7.710   8.219   9.731 -0.9737 -0.4033 -0.4031
   60MOL0     C 8025   7.709   8.174   9.883  0.1354 -0.1838 -0.4005
   60MOL0     C 8026   7.825   8.225   9.967 -0.7345  0.8307  0.1025
   60MOL0     C 8027   7.795   8.191  10.109  0.1121  0.0202 -0.2160
   60MOL0     C 8028   7.899   8.221  10.206 -0.5189 -0.1942  1.0513
   60MOL0     C 8029   7.992   8.250  10.280 -0.3809  0.6440  0.2259
   60MOL0     C 8030   7.968   8.043   9.531 -0.6248  0.1545 -0.0757
   60MOL0     C 8031   8.004   8.000   9.402 -0.4561  0.4346  0.8646
   60MOL0     C 8032   8.127   7.916   9.370  0.7833 -0.1212 -0.1646
   60MOL0     H 8033   8.015   7.834   8.918 -2.4703  0.5875 -0.1396
   60MOL0     H 8034   8.096   7.820   8.684 -2.3003  0.1588 -1.2763
   60MOL0     H 8035   7.894   8.055   8.475  1.2377 -1.1565  1.3681
   60MOL0     H 8036   7.992   8.162   8.393  0.2674  0.5861 -0.1890
   60MOL0     H 8037   8.072   7.996   8.237  1.3262 -2.7725  0.5646
   60MOL0     H 8038   7.895   7.970   8.235  1.0677 -1.1750 -2.1799
   60MOL0     H 8039   7.905   7.800   8.393  1.7000  0.1338  2.1210
   60MOL0     H 8040   8.080   7.796   8.386  0.2224 -1.7309 -0.0835
   60MOL0     H 8041   7.891   7.767   8.144 -0.8783  2.3831  2.1202
   60MOL0     H 8042   8.065   7.807   8.125 -1.4293  2.8168  0.3984
   60MOL0     H 8043   8.113   7.612   8.272  0.7159  1.9514 -1.1380
   60MOL0     H 8044   7.945   7.582   8.300 -0.5448 -0.0357 -0.8082
   60MOL0     H 8045   8.054   7.570   8.010 -2.2785 -0.2961 -0.4311
   60MOL0     H 8046   8.080   7.430   8.105 -1.4799 -0.7714 -1.6146
   60MOL0     H 8047   7.816   7.557   8.044 -0.9396  0.1564  1.8857
   60MOL0     H 8048   7.819   7.418   8.144  1.1746  2.0218  1.3182
   60MOL0     H 8049   7.984   7.325   7.930 -0.2230 -1.9457 -3.1891
   60MOL0     H 8050   7.804   7.327   7.918  0.3539  1.6846 -1.0276
   60MOL0     H 8051   8.090   7.457   7.730  0.1694 -0.2252  1.8749
   60MOL0     H 8052   8.053   7.769   7.553  2.3974 -0.5232 -0.3984
   60MOL0     H 8053   8.156   7.629   7.580 -0.2699 -2.8379 -0.5947
   60MOL0     H 8054   7.937   7.652   7.370 -1.3818  0.3593 -0.0988
   60MOL0     H 8055   8.121   7.650   7.353  0.1923  1.4909  2.0928
   60MOL0     H 8056   7.955   7.434   7.468  0.0423  1.8354  1.1436
   60MOL0     H 8057   8.119   7.412   7.462 -0.2436  3.0645  3.8666
   60MOL0     H 8058   8.127   7.439   7.214 -0.7875 -1.3606 -3.2883
   60MOL0     H 8059   7.958   7.472   7.215  0.0710 -0.4320  1.8047
   60MOL0     H 8060   8.052   7.438   6.995 -0.6546  0.9374 -1.7793
   60MOL0     H 8061   8.021   7.372   6.775 -1.3571  0.6378  1.0369
   60MOL0     H 8062   7.666   6.896   6.597 -1.6895  2.5549 -0.5847
   60MOL0     H 8063   7.603   6.789   6.372 -1.4563  1.2422  2.7938
   60MOL0     H 8064   7.776   6.569   6.284  1.7603  0.2161 -0.2388
   60MOL0     H 8065   7.620   6.627   6.245  0.4903 -0.4058  0.5173
   60MOL0     H 8066   7.637   6.589   6.011  1.0719 -3.9510 -1.3884
   60MOL0     H 8067   7.803   6.562   6.028  0.8963 -0.7031  1.4197
   60MOL0     H 8068   7.771   6.349   6.139 -0.0623  1.1324 -0.4917
   60MOL0     H 8069   7.596   6.368   6.132 -1.1644  0.1659 -2.2127
   60MOL0     H 8070   7.766   6.401   5.884  0.4292 -3.0424 -2.2658
   60MOL0     H 8071   7.582   6.379   5.892 -2.0668 -2.9842  1.4855
   60MOL0     H 8072   7.625   6.164   5.848  2.1060 -2.3638 -1.3993
   60MOL0     H 8073   7.666   6.152   6.023 -1.0126  2.5426  0.8459
   60MOL0     H 8074   7.909   6.193   5.958  0.1137  0.3128  0.1166
   60MOL0     H 8075   7.835   6.040   5.923  1.6444  0.1197 -0.6647
   60MOL0     H 8076   7.971   6.115   5.741 -0.2070  1.1588  0.7486
   60MOL0     H 8077   7.889   6.271   5.731 -3.0643  0.1487 -1.8171
   60MOL0     H 8078   7.760   6.001   5.690  0.6398 -1.3649 -1.7482
   60MOL0     H 8079   7.687   6.150   5.642 -0.2020 -0.2133 -0.3251
   60MOL0     H 8080   8.003   6.851   6.242 -1.6211 -3.7306 -0.1768
   60MOL0     H 8081   8.064   6.966   6.474  0.3823  0.3622  1.2825
   60MOL0     H 8082   7.934   6.976   6.916 -0.8147  0.8848 -2.5998
   60MOL0     H 8083   7.979   7.054   7.147 -0.4035  0.5385  0.1114
   60MOL0     H 8084   8.049   8.246   8.637 -0.5965  0.1981  0.8984
   60MOL0     H 8085   8.006   8.263   8.870  1.4185 -0.0391  3.0642
   60MOL0     H 8086   7.725   8.151   9.252  0.9045  0.5816 -0.9150
   60MOL0     H 8087   7.675   8.209   9.466  1.4051  0.7539  0.3977
   60MOL0     H 8088   7.616   8.189   9.684 -0.1153 -2.4946 -0.8771
   60MOL0     H 8089   7.725   8.327   9.719  2.0121 -0.6933  0.0967
   60MOL0     H 8090   7.707   8.065   9.884 -5.7053 -0.3652  1.3934
   60MOL0     H 8091   7.615   8.205   9.928  0.9082  4.0199 -1.2535
   60MOL0     H 8092   7.844   8.333   9.960 -0.1890  0.7110 -0.3223
   60MOL0     H 8093   7.920   8.184   9.933  0.5877  4.0594 -0.4766
   60MOL0     H 8094   7.710   8.257  10.129 -0.1613  0.0022 -1.2763
   60MOL0     H 8095   7.772   8.086  10.126 -1.3206  0.8053  4.0083
   60MOL0     H 8096   8.071   8.277  10.347 -1.5232  0.5677  1.6200
   60MOL0     H 8097   8.052   8.052   9.600  0.9466  1.1442 -2.0008
   60MOL0     H 8098   8.185   7.939   9.280  2.5888  1.0322  1.2352
   60MOL0     H 8099   8.201   7.920   9.450  1.1771 -0.9357 -0.4729
   60MOL0     H 8100   8.076   7.818   9.367 -3.4066  1.8279 -0.2830
   61MOL0     O 8101   5.349   9.269   4.280 -0.2046 -0.2797  0.3670
   61MOL0     C 8102   5.370   9.316   4.390 -1.5147 -0.2857 -0.3560
   61MOL0     O 8103   5.451   9.433   4.407  0.4519 -0.1839 -0.1750
   61MOL0     C 8104   5.541   9.454   4.309 -0.5321  0.2557 -0.3951
   61MOL0     C 8105   5.611   9.353   4.233  0.1432 -0.1089  0.8892
   61MOL0     C 8106   5.723   9.388   4.156 -0.3125 -1.2928 -0.1848
   61MOL0     C 8107   5.737   9.526   4.133  0.3375  0.0472 -0.1210
   61MOL0     O 8108   5.837   9.582   4.052 -0.2502  0.9339 -0.7558
   61MOL0     C 8109   5.975   9.558   4.105 -0.6655 -0.0045  0.1309
   61MOL0     C 8110   6.076   9.653   4.039 -0.2542 -0.8302 -0.2945
   61MOL0     C 8111   6.046   9.796   4.096  0.5602 -0.0895 -0.0640
   61MOL0     C 8112   6.101   9.904   4.006 -0.4430  1.0229  0.9252
   61MOL0     C 8113   6.085  10.045   4.073 -0.4337 -0.0175  0.1039
   61MOL0     C 8114   6.092  10.165   3.969 -0.4229 -0.2125 -0.7390
   61MOL0     C 8115   6.075  10.309   4.018 -0.6484  0.5282  0.0644
   61MOL0     C 8116   6.181  10.373   4.111 -0.6703  0.4906  0.7274
   61MOL0     N 8117   6.310  10.392   4.057  0.2480 -0.0946 -0.1457
   61MOL0     C 8118   6.350  10.413   3.933 -0.0820  0.6364 -0.2870
   61MOL0     C 8119   6.478  10.467   3.930 -0.7561  1.0887 -0.7352
   61MOL0     C 8120   6.557  10.501   3.803 -0.2767  0.1505 -0.4220
   61MOL0     C 8121   6.651  10.388   3.748  0.0303  0.3464  0.1148
   61MOL0     C 8122   6.725  10.447   3.622  0.4310 -0.8680 -0.9750
   61MOL0     C 8123   6.815  10.339   3.558  0.8191  0.1720 -0.1158
   61MOL0     O 8124   6.747  10.214   3.554  0.5909  0.5496 -0.5186
   61MOL0     C 8125   6.645  10.185   3.461 -0.1298 -0.7629 -0.2671
   61MOL0     C 8126   6.593  10.063   3.469 -0.1303  0.2842  0.0623
   61MOL0     C 8127   6.501  10.019   3.378 -1.1064  0.1827  0.3479
   61MOL0     C 8128   6.443  10.108   3.283  0.8851  1.3023 -1.6008
   61MOL0     C 8129   6.336  10.068   3.188  0.1850  0.0402 -0.2901
   61MOL0     O 8130   6.277   9.950   3.215 -0.1032 -0.1752 -0.1652
   61MOL0     C 8131   6.186   9.895   3.123  0.2932 -0.6117  0.7199
   61MOL0     C 8132   6.077   9.826   3.184 -0.8762 -1.2938  0.1460
   61MOL0     C 8133   5.973   9.786   3.104  0.1891 -0.0981  0.3308
   61MOL0     C 8134   5.956   9.820   2.971 -0.5595 -0.1605  1.0880
   61MOL0     O 8135   5.858   9.756   2.896  0.2202 -0.1917 -0.3797
   61MOL0     C 8136   5.842   9.801   2.759  0.4369  0.1420  0.6903
   61MOL0     C 8137   5.704   9.747   2.700 -0.4558  0.3068  0.2314
   61MOL0     C 8138   5.592   9.847   2.737  0.2959  0.7008  0.2974
   61MOL0     C 8139   5.453   9.800   2.689 -0.1349  0.2125 -0.7035
   61MOL0     C 8140   5.336   9.893   2.713 -0.1297  0.1093 -0.4994
   61MOL0     C 8141   5.198   9.813   2.697 -0.5550 -0.4300  0.3687
   61MOL0     C 8142   5.074   9.883   2.731 -0.3709  0.0132 -0.6640
   61MOL0     C 8143   4.948   9.815   2.667  0.2788 -0.5781  1.1023
   61MOL0    Cl 8144   4.799   9.905   2.709  0.1980  0.1759  0.0702
   61MOL0     C 8145   6.065   9.880   2.910 -0.3054  0.0608 -0.5395
   61MOL0     C 8146   6.178   9.921   2.986 -1.2103 -0.1149  0.8245
   61MOL0     O 8147   6.305  10.140   3.092 -0.6249 -0.1320  0.3589
   61MOL0     C 8148   6.489  10.242   3.280  0.1534  0.1755  0.1789
   61MOL0     C 8149   6.600  10.274   3.365  0.3336 -0.6720  0.4732
   61MOL0     N 8150   6.520  10.473   4.068  1.3789 -0.6139 -0.1422
   61MOL0     N 8151   6.420  10.431   4.139  0.3138  0.1810 -0.1144
   61MOL0     C 8152   5.651   9.623   4.185  0.0780 -0.4056 -0.6145
   61MOL0     C 8153   5.568   9.589   4.288  0.4883  0.7021  0.7048
   61MOL0     C 8154   5.292   9.264   4.509 -0.2530  0.9593 -0.4604
   61MOL0     C 8155   5.315   9.336   4.628 -0.4305 -0.6859 -0.3730
   61MOL0     C 8156   5.245   9.303   4.748  0.5973 -0.5836  0.0444
   61MOL0     C 8157   5.163   9.189   4.747 -0.4025 -0.6821 -0.2474
   61MOL0     O 8158   5.082   9.180   4.852 -0.8261 -0.3570 -0.5601
   61MOL0     C 8159   4.943   9.226   4.834 -0.5716  0.5836  0.8502
   61MOL0     C 8160   4.872   9.248   4.973  0.3692  0.1056  0.0731
   61MOL0     C 8161   4.971   9.304   5.078  0.7922  0.1684 -0.6651
   61MOL0     C 8162   4.904   9.310   5.218 -0.1434 -1.1211 -0.8032
   61MOL0     C 8163   4.899   9.443   5.282 -0.6160  0.1670 -0.4975
   61MOL0     C 8164   4.901   9.560   5.326 -0.0187 -0.6139 -0.0480
   61MOL0     C 8165   5.144   9.108   4.636 -0.2545  0.1177 -0.4909
   61MOL0     C 8166   5.206   9.145   4.517  0.0922 -0.0987 -0.3193
   61MOL0     C 8167   5.195   9.050   4.409  0.5114 -0.3760  0.2424
   61MOL0     H 8168   5.594   9.246   4.241 -0.5988 -0.5056 -3.6114
   61MOL0     H 8169   5.790   9.315   4.113  1.0996 -1.2785  1.8815
   61MOL0     H 8170   5.972   9.590   4.209  0.7700  2.8102 -0.5927
   61MOL0     H 8171   5.999   9.452   4.104 -0.2267  0.0948 -0.3520
   61MOL0     H 8172   6.064   9.647   3.931  1.4215  0.6996 -0.5962
   61MOL0     H 8173   6.181   9.633   4.059 -0.7481 -1.4585  1.9320
   61MOL0     H 8174   6.088   9.810   4.196 -3.1799  0.9675  1.5234
   61MOL0     H 8175   5.936   9.802   4.098  0.3853 -2.4084  1.6310
   61MOL0     H 8176   6.205   9.876   3.989 -1.0544 -0.6732 -0.2637
   61MOL0     H 8177   6.058   9.909   3.905  1.7547 -1.4714 -0.2516
   61MOL0     H 8178   5.990  10.045   4.127  0.0233 -2.6392  1.0422
   61MOL0     H 8179   6.162  10.063   4.148  2.3281 -0.4235 -2.4505
   61MOL0     H 8180   6.187  10.157   3.916  0.5619  3.0931  0.3351
   61MOL0     H 8181   6.010  10.143   3.899 -0.2738 -1.1431 -0.6329
   61MOL0     H 8182   5.977  10.316   4.067  0.7754  0.8510  3.1283
   61MOL0     H 8183   6.063  10.370   3.928 -3.6328  1.7595  1.1657
   61MOL0     H 8184   6.159  10.472   4.151  1.4494  1.3830 -0.1741
   61MOL0     H 8185   6.199  10.304   4.193  1.0890 -1.7362 -1.3713
   61MOL0     H 8186   6.288  10.401   3.845 -2.8166  0.1145  1.5873
   61MOL0     H 8187   6.499  10.542   3.720 -1.0053  1.4435  0.6703
   61MOL0     H 8188   6.618  10.583   3.843  0.0633 -0.5006  0.4020
   61MOL0     H 8189   6.718  10.343   3.822 -1.7916 -0.3174  1.4127
   61MOL0     H 8190   6.593  10.301   3.716  1.0695  0.6930 -3.1560
   61MOL0     H 8191   6.780  10.538   3.649 -2.5659  0.7414  0.2058
   61MOL0     H 8192   6.651  10.461   3.544 -2.4076 -1.1982  1.4879
   61MOL0     H 8193   6.910  10.316   3.606 -0.6466 -2.2440  1.8560
   61MOL0     H 8194   6.847  10.369   3.458 -0.9967 -0.4188 -0.9079
   61MOL0     H 8195   6.624   9.983   3.536  0.6719 -2.2380 -3.0608
   61MOL0     H 8196   6.490   9.912   3.364  3.6874 -0.4226 -0.5250
   61MOL0     H 8197   6.089   9.815   3.291 -0.3746  2.1460  0.5429
   61MOL0     H 8198   5.893   9.733   3.155 -1.8432  2.5366  0.0937
   61MOL0     H 8199   5.853   9.910   2.761 -0.9007  0.2822  1.1396
   61MOL0     H 8200   5.928   9.765   2.702  2.3231 -0.3583  3.6088
   61MOL0     H 8201   5.703   9.735   2.591  1.6064  1.4494  0.0489
   61MOL0     H 8202   5.694   9.648   2.745  1.1338  0.3116  0.6316
   61MOL0     H 8203   5.600   9.864   2.845  0.7386  0.2536  0.3373
   61MOL0     H 8204   5.624   9.940   2.690 -0.0756  0.8015  0.2416
   61MOL0     H 8205   5.442   9.707   2.746  0.7223  1.5149  1.7205
   61MOL0     H 8206   5.450   9.770   2.584 -2.6790 -0.4361 -0.5047
   61MOL0     H 8207   5.345   9.985   2.656  0.3066  1.3435  1.4717
   61MOL0     H 8208   5.341   9.918   2.820  2.7673  0.8782 -0.7444
   61MOL0     H 8209   5.201   9.791   2.590  2.1850  0.6272  0.1615
   61MOL0     H 8210   5.214   9.729   2.765 -4.2854 -0.2509  1.7009
   61MOL0     H 8211   5.094   9.979   2.681  1.4471 -1.5430 -3.1288
   61MOL0     H 8212   5.066   9.894   2.840 -2.6303  2.0358 -0.9352
   61MOL0     H 8213   4.944   9.803   2.558 -2.4397  2.9504  0.6575
   61MOL0     H 8214   4.949   9.710   2.699 -0.0720 -0.1620  2.5508
   61MOL0     H 8215   6.066   9.916   2.808 -3.8426 -1.2794 -1.1738
   61MOL0     H 8216   6.247   9.986   2.933  1.2079 -0.4174  3.4048
   61MOL0     H 8217   6.459  10.315   3.205  3.3846  0.0212 -1.4335
   61MOL0     H 8218   6.645  10.371   3.352  2.2974 -0.9989  3.8508
   61MOL0     H 8219   5.675   9.724   4.154 -0.2315  0.4537  1.7489
   61MOL0     H 8220   5.502   9.663   4.330  1.1008  1.8282 -0.2700
   61MOL0     H 8221   5.383   9.418   4.650 -1.0314 -0.1763 -0.3787
   61MOL0     H 8222   5.259   9.356   4.841  1.8366 -0.3780 -0.2369
   61MOL0     H 8223   4.896   9.152   4.769 -0.9172 -0.1709  1.9304
   61MOL0     H 8224   4.948   9.325   4.788 -2.7444  0.1886 -0.3978
   61MOL0     H 8225   4.825   9.155   5.006  0.5719  0.0950  0.3353
   61MOL0     H 8226   4.776   9.294   4.949  0.2212  0.3548  1.1005
   61MOL0     H 8227   5.017   9.401   5.055  1.2446  0.6421  1.9024
   61MOL0     H 8228   5.063   9.246   5.086  0.5839 -0.7106 -3.4498
   61MOL0     H 8229   4.800   9.275   5.221 -0.8119  0.6240 -1.8528
   61MOL0     H 8230   4.971   9.253   5.283  1.7388  3.7110  1.9847
   61MOL0     H 8231   4.914   9.650   5.381 -2.4885 -1.8864  2.8929
   61MOL0     H 8232   5.063   9.038   4.654  0.8298 -0.4980  2.6075
   61MOL0     H 8233   5.184   9.091   4.308  1.1156  1.4999  0.8968
   61MOL0     H 8234   5.289   8.995   4.415  0.5897 -0.2660  0.0324
   61MOL0     H 8235   5.116   8.979   4.436  0.3951  0.7055  3.0075
   62MOL0     O 8236  10.670   2.820   9.170 -0.7133  0.2229 -0.3241
   62MOL0     C 8237  10.749   2.852   9.081 -1.2175 -0.6965 -0.8491
   62MOL0     O 8238  10.881   2.819   9.065  0.0731  0.8483 -0.8335
   62MOL0     C 8239  10.937   2.710   9.126 -1.1078  0.0691 -0.0022
   62MOL0     C 8240  10.899   2.648   9.246  0.4607  0.4035 -0.4174
   62MOL0     C 8241  10.976   2.537   9.292  0.1812 -0.5678 -0.8340
   62MOL0     C 8242  11.089   2.490   9.219  0.6482 -0.1956  0.8000
   62MOL0     O 8243  11.158   2.380   9.256  0.7517  0.7188 -0.3295
   62MOL0     C 8244  11.226   2.390   9.390  0.5523  0.2158 -0.1553
   62MOL0     C 8245  11.333   2.289   9.412  0.1975  0.2512  1.0540
   62MOL0     C 8246  11.412   2.247   9.288 -0.4288  0.3811  0.0405
   62MOL0     C 8247  11.363   2.120   9.225  0.0061  0.2855  0.1778
   62MOL0     C 8248  11.447   2.073   9.106 -0.2051 -0.8029 -0.5435
   62MOL0     C 8249  11.383   1.953   9.037  0.7239  0.4296 -0.4808
   62MOL0     C 8250  11.440   1.929   8.898 -0.6550 -0.2863 -0.3828
   62MOL0     C 8251  11.418   2.040   8.794  0.6042 -0.2358  0.3691
   62MOL0     N 8252  11.275   2.071   8.789 -0.4790  0.1596 -0.7707
   62MOL0     C 8253  11.218   2.176   8.864  0.0756 -0.3861  0.5926
   62MOL0     C 8254  11.087   2.183   8.825 -0.7816  0.0219  0.0672
   62MOL0     C 8255  10.988   2.275   8.890 -0.6798  0.4295  1.0410
   62MOL0     C 8256  10.932   2.376   8.787 -0.1016  0.9603 -0.2023
   62MOL0     C 8257  11.040   2.432   8.701  0.1029  0.1508  0.3194
   62MOL0     C 8258  10.980   2.543   8.614 -0.7577 -0.6442  0.2974
   62MOL0     O 8259  11.076   2.604   8.518 -0.1180  0.6851 -0.3866
   62MOL0     C 8260  11.173   2.690   8.564  0.4977  0.3345  0.8568
   62MOL0     C 8261  11.175   2.754   8.686 -0.6235 -0.1060 -0.6869
   62MOL0     C 8262  11.274   2.846   8.725  0.5273 -0.1094  0.5654
   62MOL0     C 8263  11.384   2.871   8.647  0.8927 -0.1567 -0.6070
   62MOL0     C 8264  11.478   2.981   8.672 -0.5240  0.3841  0.3644
   62MOL0     O 8265  11.455   3.028   8.791 -0.6324 -1.6548  0.0055
   62MOL0     C 8266  11.512   3.152   8.822  0.2804  0.3017 -0.8728
   62MOL0     C 8267  11.636   3.168   8.895  0.8032  0.5926 -0.6822
   62MOL0     C 8268  11.695   3.296   8.901  0.0981  0.0304 -0.1989
   62MOL0     C 8269  11.641   3.415   8.849  0.7722  0.3249 -0.2276
   62MOL0     O 8270  11.702   3.537   8.830 -0.0366  0.2813 -0.1265
   62MOL0     C 8271  11.835   3.560   8.878  0.2798 -0.2132 -0.1806
   62MOL0     C 8272  11.889   3.698   8.839 -0.3036  0.6721  0.0035
   62MOL0     C 8273  11.811   3.820   8.875  0.6103  0.7677 -0.4578
   62MOL0     C 8274  11.837   3.869   9.011 -0.6486 -1.1110 -0.1734
   62MOL0     C 8275  11.793   4.018   9.042 -0.3247  0.3708 -0.5635
   62MOL0     C 8276  11.824   4.061   9.193 -0.6362  0.1460 -0.3809
   62MOL0     C 8277  11.970   4.073   9.214 -0.4867 -0.0032  0.2365
   62MOL0     C 8278  12.007   4.149   9.347 -0.8145  1.3136  0.3766
   62MOL0    Cl 8279  11.975   4.331   9.343  0.3972  0.1903  0.0617
   62MOL0     C 8280  11.516   3.397   8.785  0.1174  0.0831  1.0309
   62MOL0     C 8281  11.447   3.276   8.792  0.3952  0.4241  0.1439
   62MOL0     O 8282  11.553   3.032   8.584  0.1790  0.6491  0.1329
   62MOL0     C 8283  11.377   2.812   8.516  0.4017  0.5184 -0.6972
   62MOL0     C 8284  11.272   2.727   8.475  0.3935  0.0715 -0.4733
   62MOL0     N 8285  11.058   2.078   8.740 -0.1745 -0.4042 -0.2713
   62MOL0     N 8286  11.168   2.011   8.731 -0.5618  0.6631 -0.2321
   62MOL0     C 8287  11.131   2.560   9.110  0.8028 -0.5482  0.4285
   62MOL0     C 8288  11.053   2.666   9.055  0.2899  0.5252  0.3292
   62MOL0     C 8289  10.704   2.969   9.003  0.0460 -0.2110 -0.7279
   62MOL0     C 8290  10.584   2.951   8.934 -0.3776 -0.6849  0.1452
   62MOL0     C 8291  10.525   3.065   8.869  0.1370 -0.3780 -0.2394
   62MOL0     C 8292  10.608   3.172   8.853 -0.0694 -0.2651  0.2590
   62MOL0     O 8293  10.551   3.277   8.779  0.7412  0.0940 -0.2260
   62MOL0     C 8294  10.420   3.319   8.827 -0.7451  0.0638  0.6070
   62MOL0     C 8295  10.399   3.463   8.790 -0.2562 -0.5458 -0.2064
   62MOL0     C 8296  10.331   3.469   8.654 -0.3924  0.0391  0.2745
   62MOL0     C 8297  10.410   3.389   8.539  0.2006 -0.5784  0.1560
   62MOL0     C 8298  10.370   3.437   8.407 -0.4395 -0.0263  0.5437
   62MOL0     C 8299  10.334   3.486   8.304  0.6560 -0.1607 -0.0201
   62MOL0     C 8300  10.733   3.176   8.906 -0.0466 -0.4460  0.1181
   62MOL0     C 8301  10.785   3.077   8.984 -0.2716 -0.0805 -0.3738
   62MOL0     C 8302  10.921   3.106   9.043  1.2222 -0.0571 -1.4593
   62MOL0     H 8303  10.824   2.685   9.315  1.6892  0.0994  1.1277
   62MOL0     H 8304  10.948   2.483   9.382 -0.8819  1.1490 -0.0746
   62MOL0     H 8305  11.266   2.492   9.388  0.8693  0.1002 -2.5873
   62MOL0     H 8306  11.157   2.382   9.475  4.6095 -0.5135  3.4171
   62MOL0     H 8307  11.288   2.194   9.444 -0.3479 -0.7323 -2.2125
   62MOL0     H 8308  11.401   2.325   9.490  3.0117  3.0609 -2.3431
   62MOL0     H 8309  11.514   2.223   9.316 -0.5328 -0.2789 -0.1396
   62MOL0     H 8310  11.411   2.329   9.215  2.2155  2.6781  2.3641
   62MOL0     H 8311  11.372   2.042   9.301 -1.4235  0.5178  0.6043
   62MOL0     H 8312  11.260   2.130   9.191 -1.0989  2.6774  3.6933
   62MOL0     H 8313  11.441   2.159   9.039  4.8414  0.6014  0.3850
   62MOL0     H 8314  11.552   2.063   9.135 -0.5855 -3.2344  0.2039
   62MOL0     H 8315  11.400   1.866   9.100  3.1642  0.3676 -1.1563
   62MOL0     H 8316  11.274   1.960   9.031  0.7359 -0.4577 -2.1879
   62MOL0     H 8317  11.403   1.836   8.854  2.2492 -1.5459 -0.3669
   62MOL0     H 8318  11.549   1.922   8.901 -0.7354 -1.2976  0.6449
   62MOL0     H 8319  11.473   2.132   8.815 -0.4839  0.9216 -1.6054
   62MOL0     H 8320  11.453   2.006   8.696  2.0700 -1.7330  1.3520
   62MOL0     H 8321  11.269   2.251   8.924 -0.1909 -0.7578  1.2896
   62MOL0     H 8322  10.911   2.222   8.947  0.3990 -3.7158 -1.0004
   62MOL0     H 8323  11.043   2.335   8.963 -2.0917 -0.1183  2.6170
   62MOL0     H 8324  10.862   2.325   8.720  0.2666  0.1109  0.0547
   62MOL0     H 8325  10.875   2.450   8.844  0.0665 -0.9439  2.6092
   62MOL0     H 8326  11.070   2.354   8.630 -0.9195  0.8850 -0.9524
   62MOL0     H 8327  11.125   2.464   8.762  2.4590 -0.8849 -2.1891
   62MOL0     H 8328  10.952   2.627   8.677  0.4243 -0.8494  1.1327
   62MOL0     H 8329  10.887   2.515   8.563 -1.3957  2.3758 -0.3447
   62MOL0     H 8330  11.086   2.753   8.748  0.0722 -0.5021  0.3187
   62MOL0     H 8331  11.258   2.904   8.816 -2.0559 -0.1242  0.1811
   62MOL0     H 8332  11.684   3.076   8.926  1.7052  1.0822 -0.5742
   62MOL0     H 8333  11.788   3.291   8.958 -0.5863 -3.1308  0.8604
   62MOL0     H 8334  11.842   3.562   8.987 -0.5594 -0.1534 -0.1208
   62MOL0     H 8335  11.895   3.478   8.838  1.2044  0.3807 -0.0547
   62MOL0     H 8336  11.996   3.705   8.862  0.2406  0.6613 -2.2574
   62MOL0     H 8337  11.878   3.688   8.730 -1.9837  0.1339  0.2064
   62MOL0     H 8338  11.832   3.899   8.801 -0.9215  0.8567 -0.8330
   62MOL0     H 8339  11.705   3.803   8.851  0.0918  1.4414  1.2108
   62MOL0     H 8340  11.943   3.861   9.036 -0.0398  0.7331 -1.9231
   62MOL0     H 8341  11.778   3.807   9.080 -1.8652  1.2679  1.0552
   62MOL0     H 8342  11.687   4.030   9.021 -0.2927  1.2640 -0.2469
   62MOL0     H 8343  11.846   4.086   8.975  1.0810  1.6866  1.7312
   62MOL0     H 8344  11.767   4.153   9.213  0.0915  0.3987  0.5769
   62MOL0     H 8345  11.783   3.977   9.250 -2.7071  1.1250 -0.3286
   62MOL0     H 8346  12.010   4.137   9.134  2.7036 -1.3744  0.5506
   62MOL0     H 8347  12.035   3.984   9.212  3.7469  2.7822 -1.7091
   62MOL0     H 8348  11.952   4.114   9.434 -3.7851  0.9466 -1.4949
   62MOL0     H 8349  12.111   4.116   9.353 -1.1496 -0.5137 -2.0991
   62MOL0     H 8350  11.481   3.487   8.734 -1.2863  0.3260  2.3329
   62MOL0     H 8351  11.345   3.276   8.754 -0.4932  4.5158  1.9912
   62MOL0     H 8352  11.461   2.834   8.451  1.6688 -0.1071  0.6614
   62MOL0     H 8353  11.281   2.683   8.376  0.6275  2.8858 -1.7956
   62MOL0     H 8354  11.218   2.530   9.053  1.6830  4.6591 -1.5279
   62MOL0     H 8355  11.105   2.720   8.976  2.4735  0.8557  1.8738
   62MOL0     H 8356  10.528   2.859   8.948 -0.9142 -0.6135 -1.4261
   62MOL0     H 8357  10.429   3.056   8.819 -0.5554  1.0695  0.7511
   62MOL0     H 8358  10.416   3.308   8.936 -0.1907 -0.5909  0.5681
   62MOL0     H 8359  10.338   3.264   8.780  0.2586  0.7763 -2.2215
   62MOL0     H 8360  10.481   3.535   8.784 -1.9414  1.3553 -1.4925
   62MOL0     H 8361  10.327   3.512   8.856  0.0464  0.0489 -0.3160
   62MOL0     H 8362  10.317   3.573   8.624  0.7699  0.4003  0.9286
   62MOL0     H 8363  10.231   3.425   8.662 -0.5888  0.6074  1.0215
   62MOL0     H 8364  10.519   3.396   8.548  0.5573 -0.4898 -2.9844
   62MOL0     H 8365  10.382   3.285   8.556 -2.8944  0.4047  1.8771
   62MOL0     H 8366  10.305   3.537   8.214  2.7368  3.0799  0.9428
   62MOL0     H 8367  10.796   3.263   8.885 -1.1876  0.1985 -0.7711
   62MOL0     H 8368  10.930   3.212   9.065 -0.7779 -0.1062 -0.1078
   62MOL0     H 8369  10.945   3.054   9.136 -0.0626 -0.8741 -1.5525
   62MOL0     H 8370  10.999   3.071   8.975  3.3145 -2.0427  1.7252
   63MOL0     O 8371   5.402  10.488   2.685 -0.0192  0.7864 -0.5560
   63MOL0     C 8372   5.461  10.433   2.589  0.0845 -0.4387 -1.1098
   63MOL0     O 8373   5.551  10.328   2.599  0.9569  0.1746 -0.0017
   63MOL0     C 8374   5.572  10.255   2.718 -1.1267  0.3314  0.4302
   63MOL0     C 8375   5.469  10.201   2.798 -0.0064  0.4715 -0.3982
   63MOL0     C 8376   5.497  10.150   2.929 -0.5094  1.2197  0.3265
   63MOL0     C 8377   5.627  10.135   2.970  1.1593 -0.4717 -0.7919
   63MOL0     O 8378   5.647  10.096   3.102  0.1037 -0.3953 -0.1154
   63MOL0     C 8379   5.630   9.949   3.125  0.5380 -0.3465 -0.3220
   63MOL0     C 8380   5.624   9.933   3.281  0.4775 -0.4602 -0.0816
   63MOL0     C 8381   5.766   9.956   3.351  0.8101  0.4263 -0.5933
   63MOL0     C 8382   5.776   9.894   3.498  0.6596  0.0857  0.1289
   63MOL0     C 8383   5.679   9.943   3.601 -0.9727  0.4187  0.2637
   63MOL0     C 8384   5.725   9.944   3.744  1.0809  0.9104  1.2863
   63MOL0     C 8385   5.626  10.015   3.835 -0.0681 -0.0288  0.5025
   63MOL0     C 8386   5.648   9.969   3.982 -0.0668 -0.7088  0.4991
   63MOL0     N 8387   5.537  10.011   4.074 -0.7142  0.1278  0.0480
   63MOL0     C 8388   5.401  10.004   4.038 -0.6671  0.6818  0.3575
   63MOL0     C 8389   5.327  10.011   4.144  0.2266 -0.3653  0.2377
   63MOL0     C 8390   5.172  10.009   4.134 -0.1433 -0.3411 -0.4853
   63MOL0     C 8391   5.108  10.134   4.086  0.7709 -0.3703 -1.1042
   63MOL0     C 8392   5.168  10.264   4.141 -0.3200 -0.4458 -0.0533
   63MOL0     C 8393   5.168  10.257   4.295 -0.0454 -1.4660  1.1510
   63MOL0     O 8394   5.206  10.389   4.344 -0.3710 -0.5887  0.2995
   63MOL0     C 8395   5.336  10.437   4.342 -0.4857  0.7568  0.1320
   63MOL0     C 8396   5.458  10.362   4.317 -0.0633 -0.5041 -0.3025
   63MOL0     C 8397   5.585  10.423   4.315  0.6942 -0.2716  0.0953
   63MOL0     C 8398   5.591  10.554   4.360  0.2522 -0.0011  0.1098
   63MOL0     C 8399   5.721  10.623   4.368 -0.4661  0.7075 -0.7358
   63MOL0     O 8400   5.840  10.547   4.348 -0.4975 -0.9392  0.0967
   63MOL0     C 8401   5.955  10.616   4.316 -0.6253  0.4332  0.4562
   63MOL0     C 8402   5.966  10.704   4.208 -0.4416  0.1492  0.3282
   63MOL0     C 8403   6.081  10.779   4.170 -0.4292  0.2065 -0.6767
   63MOL0     C 8404   6.200  10.746   4.245 -0.6337 -0.1732 -0.2422
   63MOL0     O 8405   6.315  10.821   4.241  0.2499 -0.3275  0.8485
   63MOL0     C 8406   6.442  10.753   4.203 -0.1733 -0.5647  0.4772
   63MOL0     C 8407   6.545  10.870   4.232 -0.0569 -0.2411 -0.5251
   63MOL0     C 8408   6.673  10.854   4.175 -0.1693  0.0513  0.2594
   63MOL0     C 8409   6.758  10.987   4.179  0.3440  0.7982  1.1807
   63MOL0     C 8410   6.910  10.977   4.190  0.4902 -0.4527 -0.5253
   63MOL0     C 8411   6.989  11.071   4.104 -0.1274 -0.1022 -0.8906
   63MOL0     C 8412   7.112  11.122   4.180  0.3661 -0.1981  0.0061
   63MOL0     C 8413   7.224  11.011   4.201  0.6140 -0.6839  0.0361
   63MOL0    Cl 8414   7.308  10.986   4.042 -0.4046  0.5735 -0.2198
   63MOL0     C 8415   6.192  10.657   4.343 -0.7999  0.5388  0.2689
   63MOL0     C 8416   6.075  10.595   4.381 -0.5554 -0.9204 -0.0731
   63MOL0     O 8417   5.719  10.744   4.391  0.3070  0.2959  0.7772
   63MOL0     C 8418   5.475  10.625   4.388  0.5207  0.0291 -0.1765
   63MOL0     C 8419   5.348  10.570   4.380 -0.6262 -0.6577 -0.3840
   63MOL0     N 8420   5.418  10.002   4.252  0.3290  1.2922 -0.0533
   63MOL0     N 8421   5.540  10.008   4.209 -0.0645 -0.6760 -0.4878
   63MOL0     C 8422   5.737  10.165   2.880  0.1042 -0.8909 -0.0716
   63MOL0     C 8423   5.703  10.227   2.759 -0.4425  0.1685 -0.1277
   63MOL0     C 8424   5.443  10.503   2.461 -0.5101  0.2152  0.0239
   63MOL0     C 8425   5.465  10.437   2.344 -0.2887 -0.8879 -0.0831
   63MOL0     C 8426   5.432  10.492   2.215 -1.1057  0.6760 -0.7970
   63MOL0     C 8427   5.383  10.624   2.207  0.4435  0.1135 -0.4160
   63MOL0     O 8428   5.333  10.686   2.100  0.4445  0.5094  0.4031
   63MOL0     C 8429   5.397  10.806   2.042  0.6465 -1.2177 -0.0709
   63MOL0     C 8430   5.293  10.875   1.955 -0.3904 -0.2869 -0.3439
   63MOL0     C 8431   5.332  10.996   1.866 -0.1080  0.0206  0.3162
   63MOL0     C 8432   5.242  11.017   1.741 -0.4851 -0.0355  0.0381
   63MOL0     C 8433   5.104  11.045   1.785  0.3390 -0.0687 -0.6650
   63MOL0     C 8434   4.988  11.049   1.815 -0.6529  0.4136 -0.0260
   63MOL0     C 8435   5.353  10.693   2.323 -0.7357  0.8849  0.6939
   63MOL0     C 8436   5.389  10.636   2.448  0.7327  1.0579  0.7784
   63MOL0     C 8437   5.336  10.731   2.564 -0.1043  0.6568 -0.8152
   63MOL0     H 8438   5.367  10.212   2.763 -0.5545 -0.6987  0.7327
   63MOL0     H 8439   5.413  10.111   2.985  0.5505  0.8790  1.7426
   63MOL0     H 8440   5.539   9.908   3.082  0.6624 -1.6030  0.5599
   63MOL0     H 8441   5.708   9.884   3.084 -0.1643 -2.7463  1.8611
   63MOL0     H 8442   5.580   9.838   3.311 -0.1081  0.4045  1.9931
   63MOL0     H 8443   5.548  10.007   3.309  1.4472  0.4944  0.1009
   63MOL0     H 8444   5.789  10.062   3.359  2.1320  0.1450 -0.4632
   63MOL0     H 8445   5.839   9.905   3.288  0.6032  0.1581 -0.6164
   63MOL0     H 8446   5.767   9.787   3.479  0.0364  0.1042  0.2766
   63MOL0     H 8447   5.877   9.911   3.535  1.5547 -1.5672 -1.4171
   63MOL0     H 8448   5.664  10.050   3.584 -0.0800  0.8293  1.8832
   63MOL0     H 8449   5.586   9.884   3.602  0.1845 -1.4968  2.0710
   63MOL0     H 8450   5.730   9.839   3.774  2.3108  0.8074  0.7996
   63MOL0     H 8451   5.829   9.979   3.743  1.7637 -0.9344 -1.0079
   63MOL0     H 8452   5.531   9.981   3.793  1.4508 -3.3964 -0.5266
   63MOL0     H 8453   5.651  10.122   3.838 -0.7059  0.1110  1.1080
   63MOL0     H 8454   5.646   9.860   3.986 -1.2404 -0.6781  1.0543
   63MOL0     H 8455   5.742   9.994   4.032 -0.1231  1.9995 -0.6035
   63MOL0     H 8456   5.361  10.002   3.937  1.2096 -1.3468 -0.4076
   63MOL0     H 8457   5.143   9.926   4.069  2.3079 -1.7571  0.0912
   63MOL0     H 8458   5.126   9.989   4.232 -4.3145 -0.6480 -2.2772
   63MOL0     H 8459   5.113  10.144   3.977 -0.4402 -1.7213 -1.3197
   63MOL0     H 8460   5.002  10.140   4.112  0.8031  2.7020 -1.2660
   63MOL0     H 8461   5.096  10.339   4.108  0.3248 -0.8422 -2.6054
   63MOL0     H 8462   5.265  10.285   4.095 -0.7944 -0.2746 -0.9835
   63MOL0     H 8463   5.245  10.188   4.330  0.4846 -0.2276  2.4916
   63MOL0     H 8464   5.067  10.228   4.327 -0.3284 -0.5146  1.1665
   63MOL0     H 8465   5.448  10.260   4.280  0.6339  0.2032 -2.5799
   63MOL0     H 8466   5.667  10.360   4.281  0.5084  0.3530 -1.6461
   63MOL0     H 8467   5.873  10.717   4.153  0.4161  0.0499 -1.2085
   63MOL0     H 8468   6.066  10.854   4.093 -1.7579 -1.7459 -2.4394
   63MOL0     H 8469   6.477  10.671   4.266 -2.7704 -0.7136  1.8801
   63MOL0     H 8470   6.435  10.718   4.099  1.8731 -2.1836  0.8260
   63MOL0     H 8471   6.514  10.963   4.184  1.9366 -0.1793 -1.7962
   63MOL0     H 8472   6.563  10.880   4.340  4.2928 -2.2095 -0.8525
   63MOL0     H 8473   6.716  10.773   4.234 -2.4951 -1.9785 -0.6720
   63MOL0     H 8474   6.669  10.813   4.073 -1.7288  1.9570 -0.5256
   63MOL0     H 8475   6.721  11.038   4.268  1.4964 -0.4713  2.4299
   63MOL0     H 8476   6.736  11.046   4.089  3.0363 -0.7551 -0.6520
   63MOL0     H 8477   6.948  10.876   4.172 -0.5294 -0.7566 -1.0671
   63MOL0     H 8478   6.919  10.990   4.298 -1.2358  1.1641 -0.5212
   63MOL0     H 8479   7.017  11.022   4.010  1.1992  1.8619 -1.5815
   63MOL0     H 8480   6.925  11.158   4.085 -0.6943 -0.1769  0.5784
   63MOL0     H 8481   7.084  11.177   4.270  0.4967 -0.8371  0.4468
   63MOL0     H 8482   7.169  11.200   4.130  3.5720  1.4375  5.4288
   63MOL0     H 8483   7.301  11.056   4.265 -1.1456  0.5221  1.3874
   63MOL0     H 8484   7.182  10.926   4.255  0.3962  0.1167  1.1600
   63MOL0     H 8485   6.279  10.642   4.406  0.0176 -2.7967 -1.4567
   63MOL0     H 8486   6.083  10.535   4.471 -0.5349 -1.1706 -0.2389
   63MOL0     H 8487   5.480  10.731   4.412 -1.5067  1.2809 -4.4118
   63MOL0     H 8488   5.256  10.622   4.402  0.6684  2.7509 -2.2677
   63MOL0     H 8489   5.840  10.159   2.916  0.4406  1.5665 -0.4441
   63MOL0     H 8490   5.792  10.263   2.709  1.5171 -1.7943  1.6913
   63MOL0     H 8491   5.505  10.336   2.336  0.1317 -0.6117 -2.0212
   63MOL0     H 8492   5.460  10.423   2.136 -1.5017 -1.1567  0.6027
   63MOL0     H 8493   5.492  10.786   1.991  0.5428 -3.1841  0.4293
   63MOL0     H 8494   5.431  10.868   2.125 -1.1801 -0.3019  0.0346
   63MOL0     H 8495   5.208  10.901   2.019  0.7721  4.1766 -0.2273
   63MOL0     H 8496   5.265  10.799   1.882  0.9632  0.1236 -1.3228
   63MOL0     H 8497   5.427  10.956   1.827 -0.1159 -0.2260  0.5483
   63MOL0     H 8498   5.348  11.091   1.918 -1.0660  1.6469 -2.1334
   63MOL0     H 8499   5.286  11.097   1.681 -0.1707  0.4428  0.8889
   63MOL0     H 8500   5.231  10.927   1.680 -1.2192 -0.3893  0.6814
   63MOL0     H 8501   4.882  11.044   1.833 -1.8237  3.1166 -4.4767
   63MOL0     H 8502   5.315  10.793   2.309  0.8545  1.2458 -1.7087
   63MOL0     H 8503   5.422  10.749   2.630 -0.4247  0.2005 -0.2666
   63MOL0     H 8504   5.312  10.831   2.526  0.7892  0.6225 -1.5034
   63MOL0     H 8505   5.248  10.709   2.624  1.9330  0.5413  2.4156
   64MOL0     O 8506   4.295   1.973   2.988 -0.5798 -0.4262 -0.0587
   64MOL0     C 8507   4.416   1.957   3.011  0.0416  0.5781 -0.5598
   64MOL0     O 8508   4.476   1.902   3.126 -0.0078 -0.5792  0.8023
   64MOL0     C 8509   4.410   1.818   3.213 -0.6862 -0.1204 -0.1113
   64MOL0     C 8510   4.461   1.786   3.336 -0.4928 -0.0890  0.8674
   64MOL0     C 8511   4.396   1.696   3.418  1.4284  0.2932 -0.3757
   64MOL0     C 8512   4.283   1.622   3.376 -0.1837  0.0260  0.8200
   64MOL0     O 8513   4.237   1.521   3.457 -0.0586  0.1512 -0.3245
   64MOL0     C 8514   4.124   1.440   3.421 -0.0469  0.5394 -0.4846
   64MOL0     C 8515   4.149   1.294   3.457 -1.0091  0.0544 -0.3779
   64MOL0     C 8516   4.267   1.237   3.370 -0.3480 -0.8225 -0.7083
   64MOL0     C 8517   4.323   1.102   3.425  0.0142 -0.8651 -0.3129
   64MOL0     C 8518   4.427   1.039   3.327 -0.2979 -0.6950  1.3354
   64MOL0     C 8519   4.525   0.922   3.370 -0.5701 -0.3776  0.6515
   64MOL0     C 8520   4.644   0.902   3.280  0.0337  0.5429  0.5070
   64MOL0     C 8521   4.734   0.775   3.307 -0.4172  0.1492  0.2344
   64MOL0     N 8522   4.692   0.651   3.248 -0.3649 -0.8278  0.8737
   64MOL0     C 8523   4.773   0.564   3.193 -0.2107  0.0001  0.1449
   64MOL0     C 8524   4.693   0.463   3.153  0.5903  0.3918 -0.0307
   64MOL0     C 8525   4.760   0.340   3.093  1.2515 -0.5653  0.1651
   64MOL0     C 8526   4.690   0.204   3.126 -0.0622  0.1284 -0.0995
   64MOL0     C 8527   4.757   0.129   3.242  0.3176 -0.2352  0.3936
   64MOL0     C 8528   4.746  -0.024   3.223  0.8502 -0.7845  0.3345
   64MOL0     O 8529   4.771  -0.084   3.347  0.6991 -0.0180 -0.2225
   64MOL0     C 8530   4.729  -0.216   3.355 -0.4741 -0.0975  0.1942
   64MOL0     C 8531   4.701  -0.272   3.481 -0.0449  0.6124  0.3337
   64MOL0     C 8532   4.655  -0.411   3.487  0.2163 -0.9340  0.0848
   64MOL0     C 8533   4.648  -0.490   3.375 -1.0683 -0.1732 -0.0598
   64MOL0     C 8534   4.594  -0.621   3.377  0.8171  1.4692  0.0292
   64MOL0     O 8535   4.534  -0.654   3.501  0.3174  0.4585  0.3780
   64MOL0     C 8536   4.505  -0.786   3.508 -0.5145 -0.5911 -0.2847
   64MOL0     C 8537   4.386  -0.836   3.458  0.0828  0.0102  1.6504
   64MOL0     C 8538   4.368  -0.968   3.425  0.1911 -0.2729  1.0882
   64MOL0     C 8539   4.451  -1.067   3.482 -0.3046  0.2867  0.1000
   64MOL0     O 8540   4.427  -1.202   3.476 -0.5488  0.3158  0.2074
   64MOL0     C 8541   4.361  -1.233   3.360  0.4424  0.1073  0.1427
   64MOL0     C 8542   4.390  -1.379   3.321  1.0199 -0.8341  0.3582
   64MOL0     C 8543   4.290  -1.435   3.213  0.1559 -0.6609 -0.2594
   64MOL0     C 8544   4.139  -1.443   3.273  0.5028 -0.2762  0.6603
   64MOL0     C 8545   4.051  -1.495   3.157 -0.0215 -0.5708  0.3036
   64MOL0     C 8546   3.901  -1.483   3.175 -0.6230 -0.3010 -0.1686
   64MOL0     C 8547   3.832  -1.607   3.121 -0.2673 -0.8996 -0.2406
   64MOL0     C 8548   3.677  -1.606   3.149 -0.9082 -0.2113 -0.0079
   64MOL0    Cl 8549   3.581  -1.668   3.009  0.0562 -0.1269  0.0986
   64MOL0     C 8550   4.566  -1.021   3.545 -1.1677 -0.3328  0.0130
   64MOL0     C 8551   4.593  -0.881   3.561 -0.3146 -0.0309 -0.9732
   64MOL0     O 8552   4.617  -0.698   3.284  0.2322  0.7692 -0.2334
   64MOL0     C 8553   4.672  -0.433   3.251 -0.5627 -0.6864  0.5060
   64MOL0     C 8554   4.714  -0.297   3.242  0.3849  0.0952  0.6433
   64MOL0     N 8555   4.559   0.496   3.163 -0.3844 -0.3407  0.4741
   64MOL0     N 8556   4.563   0.620   3.219 -0.8429 -0.2157  0.2467
   64MOL0     C 8557   4.241   1.646   3.235 -0.7822  0.1061 -0.2367
   64MOL0     C 8558   4.302   1.748   3.171  0.2217  0.5156  0.3732
   64MOL0     C 8559   4.503   2.006   2.899 -0.4588  0.8149  1.0663
   64MOL0     C 8560   4.620   1.935   2.880  0.9141 -0.7093  0.8545
   64MOL0     C 8561   4.704   1.985   2.779  0.2517  0.4215  0.1367
   64MOL0     C 8562   4.677   2.093   2.700 -0.3255 -0.9556 -0.4921
   64MOL0     O 8563   4.778   2.125   2.615 -0.1799  0.1909  0.3829
   64MOL0     C 8564   4.775   2.253   2.553  0.0820  1.1909  0.0250
   64MOL0     C 8565   4.891   2.285   2.462  0.8512 -0.3741 -0.0596
   64MOL0     C 8566   5.017   2.307   2.545  1.2837 -0.1076  0.5239
   64MOL0     C 8567   5.138   2.289   2.453 -0.3707  0.6086 -0.6145
   64MOL0     C 8568   5.145   2.388   2.351 -0.1663 -0.7682 -0.1570
   64MOL0     C 8569   5.153   2.465   2.262  0.1939  0.3570  0.1688
   64MOL0     C 8570   4.557   2.157   2.716 -0.3006 -0.4810 -0.0580
   64MOL0     C 8571   4.471   2.116   2.812 -0.3312 -0.0040 -0.3972
   64MOL0     C 8572   4.355   2.207   2.843 -0.6857  0.0184  0.2330
   64MOL0     H 8573   4.556   1.831   3.362 -1.3139  0.1275  3.8495
   64MOL0     H 8574   4.441   1.663   3.511 -3.3168  1.7655  2.8728
   64MOL0     H 8575   4.044   1.475   3.488  0.5993 -2.7618  2.2607
   64MOL0     H 8576   4.092   1.450   3.317 -0.6510  1.2060 -0.2422
   64MOL0     H 8577   4.060   1.235   3.436 -1.1562 -0.4304  1.4548
   64MOL0     H 8578   4.174   1.296   3.563 -3.6886 -2.3956  0.4160
   64MOL0     H 8579   4.348   1.303   3.339  0.6072 -1.0704  1.1086
   64MOL0     H 8580   4.210   1.208   3.281 -1.0798  1.1494 -0.9260
   64MOL0     H 8581   4.369   1.122   3.522  0.8191  0.9199 -1.0152
   64MOL0     H 8582   4.249   1.028   3.456 -0.3715 -0.2292  0.3091
   64MOL0     H 8583   4.375   1.003   3.238  2.7826 -1.3477 -0.3719
   64MOL0     H 8584   4.488   1.121   3.288  0.7268 -2.4835 -1.0757
   64MOL0     H 8585   4.562   0.934   3.472 -0.5216 -1.5387  0.7886
   64MOL0     H 8586   4.460   0.834   3.372  0.6406 -1.3119  0.5634
   64MOL0     H 8587   4.718   0.982   3.290 -0.9378  1.2223  2.9162
   64MOL0     H 8588   4.611   0.896   3.176  0.6085 -3.3815  0.3982
   64MOL0     H 8589   4.839   0.803   3.295 -1.0630  3.0966  0.6078
   64MOL0     H 8590   4.719   0.754   3.414  2.9344  0.8041  0.9665
   64MOL0     H 8591   4.881   0.569   3.177 -0.7650  1.9322 -4.8040
   64MOL0     H 8592   4.762   0.351   2.984 -2.7244  2.0104  0.1549
   64MOL0     H 8593   4.866   0.331   3.118  1.5065 -3.2964 -1.4533
   64MOL0     H 8594   4.586   0.234   3.135  1.2144  4.3120  3.7009
   64MOL0     H 8595   4.707   0.132   3.044 -1.1788 -0.0238 -0.2027
   64MOL0     H 8596   4.706   0.155   3.335  3.6021  0.3926  2.1569
   64MOL0     H 8597   4.862   0.156   3.256 -0.8838  3.3681  4.9292
   64MOL0     H 8598   4.831  -0.057   3.163  0.9240 -4.0860  2.0667
   64MOL0     H 8599   4.656  -0.056   3.169  0.4000  1.3628 -0.3132
   64MOL0     H 8600   4.701  -0.216   3.574 -1.6011  0.8278  0.2225
   64MOL0     H 8601   4.643  -0.462   3.583  0.9825 -0.5618  0.3867
   64MOL0     H 8602   4.307  -0.770   3.423 -1.5490 -1.2987  2.7221
   64MOL0     H 8603   4.277  -0.993   3.369  0.9264  0.1428 -0.3504
   64MOL0     H 8604   4.255  -1.215   3.378  0.9196  4.3130 -0.3362
   64MOL0     H 8605   4.383  -1.176   3.270  1.4890 -3.2828 -1.9373
   64MOL0     H 8606   4.489  -1.371   3.273  1.9255 -1.4396  2.0510
   64MOL0     H 8607   4.405  -1.442   3.409  3.4357  0.8228  1.2647
   64MOL0     H 8608   4.292  -1.371   3.124 -0.0776 -0.9448 -0.4686
   64MOL0     H 8609   4.325  -1.534   3.182 -2.5934 -0.7404 -3.5626
   64MOL0     H 8610   4.103  -1.344   3.301  2.2913  0.2144  1.4118
   64MOL0     H 8611   4.144  -1.513   3.357  1.7791  0.1495  0.9603
   64MOL0     H 8612   4.076  -1.601   3.142  0.2985 -0.4783  0.1751
   64MOL0     H 8613   4.092  -1.445   3.069  2.3581  1.8723  2.6207
   64MOL0     H 8614   3.877  -1.462   3.280  0.5451  4.1391 -0.5577
   64MOL0     H 8615   3.864  -1.401   3.112  0.7202  0.1905 -0.3343
   64MOL0     H 8616   3.879  -1.698   3.159  0.8641 -0.5402 -0.7548
   64MOL0     H 8617   3.850  -1.597   3.013 -4.9573  1.1122 -1.0756
   64MOL0     H 8618   3.641  -1.659   3.238 -0.7576 -2.4178 -1.1779
   64MOL0     H 8619   3.647  -1.502   3.162 -2.3173 -0.3807 -1.6290
   64MOL0     H 8620   4.637  -1.098   3.574  0.6298  1.0319 -0.5867
   64MOL0     H 8621   4.683  -0.845   3.611 -1.3415 -0.4139  1.2588
   64MOL0     H 8622   4.664  -0.492   3.161 -1.6029  0.2460 -0.0401
   64MOL0     H 8623   4.736  -0.260   3.142  6.2423 -3.1081  0.2964
   64MOL0     H 8624   4.154   1.597   3.191 -0.0853 -0.4499 -1.0485
   64MOL0     H 8625   4.260   1.747   3.070 -2.1157 -3.0421  1.2125
   64MOL0     H 8626   4.637   1.842   2.934  0.6577 -2.0404 -1.2301
   64MOL0     H 8627   4.796   1.938   2.747  0.5376  1.8787 -1.3413
   64MOL0     H 8628   4.780   2.333   2.628  1.0750  0.3105  0.9436
   64MOL0     H 8629   4.678   2.253   2.504  0.7070 -0.4041 -1.3172
   64MOL0     H 8630   4.862   2.377   2.411 -0.1322 -1.6393 -1.9134
   64MOL0     H 8631   4.909   2.200   2.396 -0.1239 -0.8171  0.2254
   64MOL0     H 8632   5.018   2.231   2.623  0.6121 -1.8072 -1.0519
   64MOL0     H 8633   5.027   2.405   2.593  0.6202 -0.1882  0.8419
   64MOL0     H 8634   5.228   2.289   2.516 -2.0130 -1.4808  1.9629
   64MOL0     H 8635   5.136   2.187   2.414 -0.3377  1.1653 -2.1126
   64MOL0     H 8636   5.178   2.521   2.174  1.7612 -2.7488 -1.5604
   64MOL0     H 8637   4.531   2.239   2.650 -2.5945 -1.4800 -0.4708
   64MOL0     H 8638   4.268   2.163   2.794  0.1811 -0.2293 -1.1434
   64MOL0     H 8639   4.346   2.208   2.952  0.0197 -1.3533  0.3196
   64MOL0     H 8640   4.370   2.309   2.804 -0.7733  0.8963  2.3630
   65MOL0     O 8641  10.959  11.239   1.984  0.2318  0.6253 -0.7616
   65MOL0     C 8642  11.039  11.317   1.941 -0.0774 -0.0002 -0.4881
   65MOL0     O 8643  11.142  11.362   2.011  0.4523 -0.4884 -0.3336
   65MOL0     C 8644  11.130  11.355   2.153 -0.7857  0.3265  0.2945
   65MOL0     C 8645  11.196  11.249   2.218 -0.3961 -0.6314  1.1799
   65MOL0     C 8646  11.186  11.239   2.360  0.1282 -0.9049  0.4087
   65MOL0     C 8647  11.123  11.347   2.426 -0.9277  0.2295 -0.1848
   65MOL0     O 8648  11.121  11.335   2.564 -0.1052  0.0106  0.6808
   65MOL0     C 8649  11.163  11.442   2.645  0.2693 -0.7869  0.2759
   65MOL0     C 8650  11.236  11.373   2.766 -0.5147  0.4363 -1.0530
   65MOL0     C 8651  11.296  11.481   2.864 -0.2165  1.0316  0.0268
   65MOL0     C 8652  11.412  11.423   2.956  0.6483  0.4492  0.4935
   65MOL0     C 8653  11.508  11.504   3.036 -0.0901  0.4258  0.4525
   65MOL0     C 8654  11.446  11.628   3.101 -0.4348 -0.0047 -0.6069
   65MOL0     C 8655  11.446  11.746   3.000  0.7535 -0.4366  0.3725
   65MOL0     C 8656  11.329  11.847   3.034 -0.3990  0.2046  0.3235
   65MOL0     N 8657  11.359  11.909   3.168 -0.1213 -0.2634  0.5740
   65MOL0     C 8658  11.470  11.976   3.226 -0.2279 -0.3507  0.5921
   65MOL0     C 8659  11.425  12.048   3.331  0.6065 -0.0981 -0.1785
   65MOL0     C 8660  11.509  12.125   3.428 -0.2510  0.5857  0.4259
   65MOL0     C 8661  11.503  12.057   3.568 -0.6740  0.7030 -0.0569
   65MOL0     C 8662  11.568  12.155   3.680 -0.2202 -0.2166  0.1351
   65MOL0     C 8663  11.722  12.168   3.659  0.9900  0.3314 -1.0295
   65MOL0     O 8664  11.767  12.043   3.705 -0.4591 -0.6302 -0.0461
   65MOL0     C 8665  11.900  12.015   3.693 -0.3630 -0.8593  0.3555
   65MOL0     C 8666  11.931  11.881   3.694 -0.1846  0.0691 -0.3619
   65MOL0     C 8667  12.059  11.822   3.668  0.2973  0.9012  0.3229
   65MOL0     C 8668  12.162  11.912   3.628  0.2119 -1.1164 -0.3222
   65MOL0     C 8669  12.301  11.877   3.599  0.3058  1.2041 -0.1166
   65MOL0     O 8670  12.375  11.957   3.527  0.1317 -0.1258 -0.7088
   65MOL0     C 8671  12.519  11.958   3.532  1.1584  0.0800 -0.3856
   65MOL0     C 8672  12.568  12.088   3.522  0.1523 -0.3032  0.9229
   65MOL0     C 8673  12.705  12.111   3.518 -0.2341 -0.8003 -0.0774
   65MOL0     C 8674  12.800  12.005   3.525  0.2870 -0.5889  0.2673
   65MOL0     O 8675  12.936  12.018   3.510 -0.9677  0.8286 -0.3296
   65MOL0     C 8676  13.006  12.141   3.487 -0.4693  0.6516 -0.8846
   65MOL0     C 8677  13.157  12.128   3.496 -0.6201 -0.2833 -0.9621
   65MOL0     C 8678  13.210  12.075   3.631 -0.4543  0.5827 -0.5416
   65MOL0     C 8679  13.362  12.057   3.624 -0.0950 -0.4393  0.3980
   65MOL0     C 8680  13.420  11.995   3.757 -0.1346  0.9268  1.0535
   65MOL0     C 8681  13.570  11.979   3.748  0.3349 -0.3658  0.7312
   65MOL0     C 8682  13.635  11.963   3.876 -0.8357 -0.9189 -0.4989
   65MOL0     C 8683  13.612  11.822   3.947 -0.0916 -1.2334 -1.4249
   65MOL0    Cl 8684  13.666  11.679   3.858  0.0217  0.0739 -0.1312
   65MOL0     C 8685  12.741  11.877   3.532 -0.5399  0.4981 -0.4705
   65MOL0     C 8686  12.611  11.852   3.525  0.2554  0.3654  0.3227
   65MOL0     O 8687  12.339  11.779   3.671  0.1800 -0.6329 -1.4515
   65MOL0     C 8688  12.124  12.057   3.628 -0.3339  0.0884 -0.3088
   65MOL0     C 8689  12.003  12.106   3.660  0.5774 -1.5955 -0.3678
   65MOL0     N 8690  11.286  12.031   3.336 -0.9929 -0.2630  0.2083
   65MOL0     N 8691  11.256  11.958   3.244  0.7069 -0.5149 -0.7179
   65MOL0     C 8692  11.065  11.448   2.361  0.2604  0.0629 -0.8994
   65MOL0     C 8693  11.074  11.460   2.227 -0.8475 -0.3340  0.6305
   65MOL0     C 8694  11.028  11.342   1.784  0.9737  0.7717 -0.4469
   65MOL0     C 8695  11.146  11.361   1.719  0.5018  0.7484  0.1044
   65MOL0     C 8696  11.152  11.406   1.590  1.0086 -0.3547  1.2165
   65MOL0     C 8697  11.034  11.429   1.525  1.2533 -0.8152 -0.4344
   65MOL0     O 8698  11.031  11.484   1.393 -0.6590 -0.6522 -0.2479
   65MOL0     C 8699  10.906  11.505   1.324  0.4938 -0.4683  0.3743
   65MOL0     C 8700  10.930  11.539   1.174  0.2048 -0.4791  0.3185
   65MOL0     C 8701  11.018  11.660   1.133  0.6051  0.0101  0.6019
   65MOL0     C 8702  11.037  11.693   0.985  0.7110  0.0801 -0.1285
   65MOL0     C 8703  10.908  11.692   0.915  0.5732  0.1464  0.0859
   65MOL0     C 8704  10.792  11.697   0.873 -0.0291 -0.0735 -0.4864
   65MOL0     C 8705  10.912  11.402   1.583 -0.2395  0.3580 -0.5828
   65MOL0     C 8706  10.904  11.351   1.707 -0.7525  0.2092 -0.7647
   65MOL0     C 8707  10.772  11.320   1.774 -0.6351 -0.6475  0.3717
   65MOL0     H 8708  11.245  11.176   2.153 -1.6916  0.0348 -0.6427
   65MOL0     H 8709  11.200  11.153   2.424 -1.8758 -2.7169 -1.4275
   65MOL0     H 8710  11.230  11.518   2.602 -0.3142  0.1397  0.9620
   65MOL0     H 8711  11.075  11.502   2.670  0.6801  0.1271 -0.4011
   65MOL0     H 8712  11.311  11.299   2.735 -3.4969 -3.1474 -0.3670
   65MOL0     H 8713  11.173  11.315   2.834 -0.3955  2.6528  1.0565
   65MOL0     H 8714  11.215  11.526   2.923  0.1007  0.9247  0.5473
   65MOL0     H 8715  11.354  11.550   2.802  2.6518  0.8730  2.2947
   65MOL0     H 8716  11.360  11.366   3.033  0.5525  0.1103  0.1825
   65MOL0     H 8717  11.468  11.346   2.902 -0.7010 -0.7881  0.7890
   65MOL0     H 8718  11.553  11.450   3.120 -2.5593 -0.1043  1.5086
   65MOL0     H 8719  11.584  11.540   2.966 -0.4584  0.1219 -0.1056
   65MOL0     H 8720  11.342  11.604   3.127 -1.0815  0.7706 -2.3465
   65MOL0     H 8721  11.489  11.659   3.197 -0.8055 -1.4079  0.0444
   65MOL0     H 8722  11.438  11.705   2.898 -0.5184 -4.5556  1.9301
   65MOL0     H 8723  11.537  11.807   3.006  0.1625  0.6026 -0.9100
   65MOL0     H 8724  11.324  11.927   2.959 -1.9021 -0.8352 -0.7577
   65MOL0     H 8725  11.239  11.785   3.031  0.8583 -1.6914 -1.5342
   65MOL0     H 8726  11.575  11.971   3.200 -0.7887  1.9775 -2.7460
   65MOL0     H 8727  11.613  12.108   3.398 -0.5883 -0.0320 -0.4536
   65MOL0     H 8728  11.495  12.233   3.427  3.2618  1.4258 -5.3901
   65MOL0     H 8729  11.400  12.036   3.600 -0.9314  2.5190  0.4219
   65MOL0     H 8730  11.560  11.965   3.581  0.5587  1.5674  0.9050
   65MOL0     H 8731  11.539  12.115   3.777 -0.1379 -0.0539  0.2268
   65MOL0     H 8732  11.536  12.259   3.671 -0.9217 -0.4275  0.1965
   65MOL0     H 8733  11.773  12.242   3.721 -1.0897  1.8102 -0.9821
   65MOL0     H 8734  11.748  12.185   3.554 -1.2971  4.6395 -1.0976
   65MOL0     H 8735  11.841  11.821   3.706  1.9656 -3.3637  0.1032
   65MOL0     H 8736  12.078  11.716   3.680  1.1597  1.1844  1.6863
   65MOL0     H 8737  12.495  12.168   3.515  1.5245  1.1124  2.0701
   65MOL0     H 8738  12.736  12.214   3.511  3.7683 -1.8071  0.3942
   65MOL0     H 8739  12.982  12.186   3.390 -0.9233  3.0232  0.2412
   65MOL0     H 8740  12.965  12.221   3.549  0.5371  0.7071 -0.2730
   65MOL0     H 8741  13.194  12.066   3.413  1.0861  0.0797 -0.5165
   65MOL0     H 8742  13.194  12.229   3.477 -3.6944  1.4225  1.2724
   65MOL0     H 8743  13.173  12.130   3.718 -2.4978 -2.6440  0.8084
   65MOL0     H 8744  13.167  11.975   3.637  2.4821 -0.6983  1.5371
   65MOL0     H 8745  13.411  12.154   3.615  1.3373 -0.9005  2.5061
   65MOL0     H 8746  13.394  11.997   3.538 -1.2307  1.1867 -1.2214
   65MOL0     H 8747  13.376  11.896   3.773 -0.1990  0.4400 -1.7668
   65MOL0     H 8748  13.395  12.068   3.835 -2.6794  1.8011 -0.4603
   65MOL0     H 8749  13.588  11.896   3.679  0.3892  1.1378 -1.1499
   65MOL0     H 8750  13.607  12.077   3.716  0.6321 -1.0244 -1.0463
   65MOL0     H 8751  13.613  12.053   3.934 -0.1131 -0.7719 -0.4439
   65MOL0     H 8752  13.744  11.964   3.862 -0.2975  2.6594  2.4175
   65MOL0     H 8753  13.653  11.823   4.048 -1.1797  1.5451 -0.9097
   65MOL0     H 8754  13.507  11.822   3.977  0.8348  0.1846  2.3276
   65MOL0     H 8755  12.821  11.804   3.539  0.8163  1.4762 -3.8087
   65MOL0     H 8756  12.576  11.750   3.539 -1.8722  0.7253 -1.6259
   65MOL0     H 8757  12.202  12.128   3.601 -0.6006 -0.1628 -1.8401
   65MOL0     H 8758  11.993  12.214   3.657 -0.3005 -1.6694 -0.3506
   65MOL0     H 8759  11.018  11.523   2.423 -1.2606 -0.8942 -0.8498
   65MOL0     H 8760  11.017  11.532   2.170  1.2944 -1.3942 -3.2346
   65MOL0     H 8761  11.239  11.350   1.773  0.4767 -3.0036 -0.3763
   65MOL0     H 8762  11.245  11.440   1.544 -0.8027  0.4934 -2.2035
   65MOL0     H 8763  10.849  11.585   1.373 -0.4377 -1.5843  1.1702
   65MOL0     H 8764  10.843  11.415   1.325  0.0732 -0.1806 -0.0653
   65MOL0     H 8765  10.831  11.557   1.131 -0.7583 -0.3447  2.4393
   65MOL0     H 8766  10.972  11.452   1.122 -3.9695 -2.6681  0.1579
   65MOL0     H 8767  11.122  11.635   1.156  2.2225  2.1642 -3.4931
   65MOL0     H 8768  10.986  11.746   1.194  0.3670  0.5981 -0.3383
   65MOL0     H 8769  11.089  11.789   0.987 -0.7994  0.9659 -1.3271
   65MOL0     H 8770  11.107  11.619   0.946 -0.3707  0.4137 -2.8736
   65MOL0     H 8771  10.689  11.695   0.841 -0.9293  1.2814  2.0719
   65MOL0     H 8772  10.821  11.429   1.531 -0.7311 -0.3627 -0.1063
   65MOL0     H 8773  10.761  11.216   1.806 -1.7654 -1.0448 -1.1628
   65MOL0     H 8774  10.760  11.371   1.870  0.0834 -4.9180  2.9723
   65MOL0     H 8775  10.688  11.354   1.712  0.0789  1.3631  0.4354
   66MOL0     O 8776   2.614   3.141   5.460  0.7706 -0.2640  0.7443
   66MOL0     C 8777   2.690   3.043   5.453 -0.3122 -0.1668  0.4949
   66MOL0     O 8778   2.754   3.003   5.343 -0.0831 -0.3783 -0.5951
   66MOL0     C 8779   2.750   3.075   5.230  0.3198  1.1305 -0.5811
   66MOL0     C 8780   2.874   3.113   5.179 -0.2107  0.4596 -0.0035
   66MOL0     C 8781   2.874   3.190   5.058  0.7244 -0.8273 -0.8684
   66MOL0     C 8782   2.758   3.237   4.998 -0.3204 -0.3177 -0.1058
   66MOL0     O 8783   2.769   3.329   4.899 -0.2132 -0.0799  0.2599
   66MOL0     C 8784   2.686   3.304   4.786  0.8118  0.3391  0.2982
   66MOL0     C 8785   2.612   3.433   4.730  0.6191  0.9934 -0.3428
   66MOL0     C 8786   2.705   3.512   4.640 -0.4870  0.0368 -0.4073
   66MOL0     C 8787   2.832   3.593   4.707  0.2603  0.5678  0.2331
   66MOL0     C 8788   2.903   3.680   4.602  0.3756 -0.8088 -0.8123
   66MOL0     C 8789   2.951   3.597   4.479  0.2644 -0.1033  1.0872
   66MOL0     C 8790   3.053   3.665   4.387  0.0521 -0.6567 -0.4600
   66MOL0     C 8791   3.013   3.799   4.325 -0.2562 -0.7037  0.5696
   66MOL0     N 8792   2.911   3.765   4.229 -0.4246 -0.5522 -0.2428
   66MOL0     C 8793   2.944   3.736   4.097 -0.1489  0.2685  0.3396
   66MOL0     C 8794   2.824   3.707   4.031 -0.3204 -0.0354 -0.0586
   66MOL0     C 8795   2.810   3.658   3.894 -0.1509  0.8557 -0.1374
   66MOL0     C 8796   2.762   3.755   3.790 -0.5844 -1.2751 -0.1095
   66MOL0     C 8797   2.648   3.855   3.840 -0.2794 -0.2968 -0.0330
   66MOL0     C 8798   2.523   3.791   3.896  0.0463  0.6097 -0.3147
   66MOL0     O 8799   2.439   3.753   3.783  0.9988 -0.0273  0.6360
   66MOL0     C 8800   2.325   3.688   3.835 -0.3343 -0.1645 -0.5598
   66MOL0     C 8801   2.340   3.561   3.891  0.2990  0.2461  1.1013
   66MOL0     C 8802   2.234   3.498   3.957  1.4747  0.3948  0.5001
   66MOL0     C 8803   2.098   3.560   3.956 -0.1726  1.0741  0.0912
   66MOL0     C 8804   1.985   3.486   4.019  0.6522  0.0556 -0.1088
   66MOL0     O 8805   2.006   3.393   4.111 -0.1106  0.6587 -0.0064
   66MOL0     C 8806   1.929   3.307   4.174  0.9705 -0.0269 -0.1408
   66MOL0     C 8807   1.794   3.341   4.197  0.0198  0.0582 -0.1760
   66MOL0     C 8808   1.709   3.254   4.258  0.3308  0.7090  0.5031
   66MOL0     C 8809   1.757   3.130   4.306 -1.0578  0.3172  0.4230
   66MOL0     O 8810   1.675   3.042   4.370  0.3432  0.7986  0.7146
   66MOL0     C 8811   1.543   3.081   4.398  0.6367 -0.1523  0.2112
   66MOL0     C 8812   1.490   2.968   4.490 -0.6264 -0.2065 -0.4105
   66MOL0     C 8813   1.458   2.838   4.418  0.9768  0.4495  0.1237
   66MOL0     C 8814   1.334   2.821   4.336 -0.8455 -0.8800  0.4625
   66MOL0     C 8815   1.332   2.683   4.277 -0.4374 -0.6945 -0.0432
   66MOL0     C 8816   1.224   2.684   4.165 -0.8796 -1.1464  0.7401
   66MOL0     C 8817   1.239   2.545   4.097 -0.7648 -0.1244 -0.6722
   66MOL0     C 8818   1.151   2.569   3.973 -0.6520  0.5482 -0.0250
   66MOL0    Cl 8819   1.115   2.418   3.889 -0.1430  0.1362  0.7365
   66MOL0     C 8820   1.894   3.104   4.288 -0.5384  0.3131 -0.1670
   66MOL0     C 8821   1.981   3.193   4.219 -0.0414 -0.0755 -1.0423
   66MOL0     O 8822   1.871   3.520   3.974 -0.2330  0.1645 -1.0416
   66MOL0     C 8823   2.089   3.680   3.895  0.3985 -0.1204  0.0698
   66MOL0     C 8824   2.195   3.741   3.843 -0.7305  0.2872  1.1898
   66MOL0     N 8825   2.727   3.723   4.125 -0.3349 -0.1023 -0.0258
   66MOL0     N 8826   2.775   3.769   4.239 -0.0114  1.4027 -0.1027
   66MOL0     C 8827   2.636   3.190   5.044  0.0008 -1.3907 -0.3941
   66MOL0     C 8828   2.632   3.109   5.158 -0.3249  0.2182  0.5721
   66MOL0     C 8829   2.690   2.962   5.579 -0.2739 -0.5472  0.2249
   66MOL0     C 8830   2.620   3.010   5.692 -0.1325  1.0692 -0.7381
   66MOL0     C 8831   2.630   2.940   5.813  0.0474  1.2554 -0.2284
   66MOL0     C 8832   2.701   2.809   5.813  0.0963  0.3323 -0.1329
   66MOL0     O 8833   2.720   2.731   5.924  0.5000 -0.2660 -0.2238
   66MOL0     C 8834   2.697   2.779   6.062  0.9813 -0.7471  0.5956
   66MOL0     C 8835   2.810   2.874   6.105 -0.0034  0.0547  0.2791
   66MOL0     C 8836   2.867   2.845   6.249 -0.2365 -0.7603 -0.2684
   66MOL0     C 8837   2.978   2.937   6.285  0.5643  0.0148  0.1196
   66MOL0     C 8838   3.101   2.918   6.213  0.4100 -0.3915 -0.6982
   66MOL0     C 8839   3.209   2.906   6.157  0.8548  0.0699  0.3948
   66MOL0     C 8840   2.764   2.763   5.705  0.1896 -0.4648  0.7173
   66MOL0     C 8841   2.763   2.841   5.589 -0.2004  0.3022 -0.3459
   66MOL0     C 8842   2.869   2.807   5.484  0.0224  0.3323  0.7010
   66MOL0     H 8843   2.959   3.068   5.229 -0.1818  1.3987  0.8222
   66MOL0     H 8844   2.970   3.231   5.025  0.9250  0.7499  1.4343
   66MOL0     H 8845   2.736   3.253   4.702  2.8862 -1.8958  2.7194
   66MOL0     H 8846   2.598   3.246   4.815  0.9841 -0.2038 -0.2346
   66MOL0     H 8847   2.578   3.496   4.813  0.7267  2.6249 -1.4883
   66MOL0     H 8848   2.519   3.415   4.676 -0.2303 -0.7194  1.5504
   66MOL0     H 8849   2.646   3.575   4.573 -1.7694 -2.2098 -1.5058
   66MOL0     H 8850   2.756   3.435   4.582  3.3019  3.2400 -1.8176
   66MOL0     H 8851   2.801   3.655   4.792 -3.1056  1.3198 -1.3780
   66MOL0     H 8852   2.908   3.521   4.738  2.4415  1.8831 -1.7658
   66MOL0     H 8853   2.834   3.757   4.567  2.3626  0.9748 -0.9523
   66MOL0     H 8854   2.992   3.716   4.655 -0.8500 -0.8534  1.4307
   66MOL0     H 8855   2.975   3.492   4.501 -1.4062 -0.9258 -0.7290
   66MOL0     H 8856   2.863   3.587   4.414  1.2770 -4.8968  0.0452
   66MOL0     H 8857   3.089   3.606   4.302 -0.8720 -1.0203 -0.6070
   66MOL0     H 8858   3.145   3.697   4.438 -0.1310  2.1625 -1.7077
   66MOL0     H 8859   2.993   3.876   4.401 -0.8782  1.3676 -1.5864
   66MOL0     H 8860   3.101   3.831   4.269  0.5996 -0.7664  1.8261
   66MOL0     H 8861   3.041   3.740   4.050 -1.5186 -2.1243 -3.0714
   66MOL0     H 8862   2.905   3.613   3.864 -0.4946 -0.6247  0.8664
   66MOL0     H 8863   2.754   3.564   3.894  1.6508 -0.3372 -2.7592
   66MOL0     H 8864   2.846   3.823   3.774  1.4626 -3.4820  0.6791
   66MOL0     H 8865   2.744   3.687   3.706 -0.0766 -4.9311  2.4881
   66MOL0     H 8866   2.628   3.915   3.751  0.7180  1.4800  0.8754
   66MOL0     H 8867   2.684   3.924   3.917  0.1839 -0.3504 -0.1939
   66MOL0     H 8868   2.473   3.863   3.961 -1.5943 -0.8880  0.1845
   66MOL0     H 8869   2.544   3.702   3.957  0.2935 -0.7946 -2.3338
   66MOL0     H 8870   2.436   3.511   3.892 -0.2005 -0.8591 -0.9960
   66MOL0     H 8871   2.248   3.404   4.010  0.4841 -0.3192 -0.4658
   66MOL0     H 8872   1.761   3.439   4.165  0.6830  0.4679  0.3591
   66MOL0     H 8873   1.601   3.267   4.248  0.1018 -1.0607  0.4022
   66MOL0     H 8874   1.544   3.169   4.464 -1.9899 -1.4598  2.1665
   66MOL0     H 8875   1.481   3.109   4.313  1.0280  0.0782 -0.0014
   66MOL0     H 8876   1.569   2.942   4.560 -1.6234 -2.2901  0.0213
   66MOL0     H 8877   1.392   2.995   4.531 -0.6095  0.8609 -1.0464
   66MOL0     H 8878   1.543   2.817   4.354  0.4172  2.3605 -1.3440
   66MOL0     H 8879   1.462   2.753   4.487 -1.9513 -0.6303 -0.8470
   66MOL0     H 8880   1.337   2.904   4.266 -0.9268 -0.1286  1.3261
   66MOL0     H 8881   1.247   2.841   4.399 -2.8737  0.2843 -2.5408
   66MOL0     H 8882   1.325   2.603   4.352  1.5347 -1.4293 -0.5770
   66MOL0     H 8883   1.428   2.664   4.228 -1.1240  1.4771 -2.4508
   66MOL0     H 8884   1.126   2.689   4.214 -2.6378 -0.2785 -2.4893
   66MOL0     H 8885   1.229   2.776   4.106 -2.8350 -0.3319  1.7475
   66MOL0     H 8886   1.188   2.476   4.166 -0.9620 -0.1007 -0.7913
   66MOL0     H 8887   1.341   2.514   4.073 -1.5482 -1.4937 -2.4882
   66MOL0     H 8888   1.051   2.607   3.995 -1.7189 -1.2845 -1.4169
   66MOL0     H 8889   1.202   2.642   3.910 -1.1676  0.9045 -0.0362
   66MOL0     H 8890   1.913   3.002   4.322 -0.5466 -0.2494 -1.7742
   66MOL0     H 8891   2.082   3.164   4.193 -0.0567 -0.0085 -1.1719
   66MOL0     H 8892   1.990   3.724   3.900  0.7080  0.5947  0.0180
   66MOL0     H 8893   2.195   3.845   3.811 -0.8887 -0.2145 -0.5382
   66MOL0     H 8894   2.540   3.226   5.008  1.0884  1.9360 -0.3004
   66MOL0     H 8895   2.529   3.086   5.181 -0.8460 -0.8364 -2.3569
   66MOL0     H 8896   2.549   3.092   5.696 -2.0274 -0.5427  0.1765
   66MOL0     H 8897   2.595   2.969   5.912 -4.4702 -0.7628 -0.9580
   66MOL0     H 8898   2.693   2.688   6.124  1.3385 -0.4476  1.0660
   66MOL0     H 8899   2.595   2.813   6.082  0.5223 -2.8043  2.1730
   66MOL0     H 8900   2.779   2.979   6.101  0.0549  0.0801  0.4867
   66MOL0     H 8901   2.894   2.863   6.036  0.3391 -1.1100  0.8680
   66MOL0     H 8902   2.902   2.741   6.251 -1.2355 -1.2153  3.7151
   66MOL0     H 8903   2.776   2.863   6.308 -0.3565 -1.6892 -0.1518
   66MOL0     H 8904   2.940   3.036   6.256 -2.5492 -0.9321  0.5417
   66MOL0     H 8905   3.000   2.915   6.390  2.4666 -3.0743 -0.7775
   66MOL0     H 8906   3.306   2.913   6.111 -0.5162  2.5317 -2.5163
   66MOL0     H 8907   2.810   2.665   5.708 -1.4734 -1.2668  1.6346
   66MOL0     H 8908   2.929   2.719   5.512  0.3975 -0.1430 -1.4439
   66MOL0     H 8909   2.812   2.770   5.399 -0.7160  1.6425  0.6170
   66MOL0     H 8910   2.939   2.889   5.465 -2.0522  1.6801 -1.5611
   67MOL0     O 8911   6.028   3.987   1.543 -0.7875  0.2236 -0.5262
   67MOL0     C 8912   5.941   4.074   1.552  0.2995 -0.2796  0.3299
   67MOL0     O 8913   5.830   4.068   1.638 -0.6675  0.7461  0.0665
   67MOL0     C 8914   5.841   3.983   1.741 -0.4340 -0.6705  0.1498
   67MOL0     C 8915   5.787   3.855   1.725  0.5314 -0.4011 -0.1564
   67MOL0     C 8916   5.775   3.770   1.831 -0.1503  0.9632 -0.0600
   67MOL0     C 8917   5.835   3.806   1.949  1.0479  0.4349  0.8004
   67MOL0     O 8918   5.847   3.729   2.057  0.7759 -0.3758  1.3082
   67MOL0     C 8919   5.847   3.590   2.056  0.4167  0.3849 -0.3964
   67MOL0     C 8920   5.979   3.553   2.010 -0.7647  0.7465  0.9191
   67MOL0     C 8921   5.999   3.416   1.939 -0.0067 -0.3712  0.5017
   67MOL0     C 8922   5.947   3.310   2.028  0.5937  0.8967  0.0430
   67MOL0     C 8923   5.998   3.174   2.002 -0.7743 -0.1055  0.2082
   67MOL0     C 8924   5.977   3.122   1.857  0.3674  0.6735  0.2265
   67MOL0     C 8925   5.978   2.971   1.846 -0.2248 -0.6229  0.1197
   67MOL0     C 8926   6.122   2.900   1.876  1.4638 -0.4120 -0.9416
   67MOL0     N 8927   6.143   2.847   2.011 -0.6184  0.4116 -0.2759
   67MOL0     C 8928   6.198   2.922   2.114 -0.8310  0.2232  0.1650
   67MOL0     C 8929   6.199   2.860   2.230  0.3737 -0.4811 -0.0135
   67MOL0     C 8930   6.252   2.913   2.358  0.0677 -0.1202  0.0171
   67MOL0     C 8931   6.400   2.878   2.359 -0.2502 -0.8164 -0.4435
   67MOL0     C 8932   6.418   2.733   2.310 -0.4326  0.7092  0.5274
   67MOL0     C 8933   6.562   2.695   2.335  1.1806 -0.5266  0.0613
   67MOL0     O 8934   6.567   2.556   2.306 -0.0561 -0.3515 -0.7666
   67MOL0     C 8935   6.521   2.468   2.395  1.1507 -0.5728  0.5332
   67MOL0     C 8936   6.398   2.395   2.361 -0.0733  0.0099  0.2394
   67MOL0     C 8937   6.350   2.292   2.444  0.0837  0.4209  0.2673
   67MOL0     C 8938   6.422   2.263   2.568  0.7697  0.9315 -0.3203
   67MOL0     C 8939   6.374   2.161   2.661 -0.5051  0.0318 -0.4193
   67MOL0     O 8940   6.390   2.185   2.794 -0.2602 -0.2792  0.4046
   67MOL0     C 8941   6.363   2.079   2.875  0.3749 -1.5139 -0.2277
   67MOL0     C 8942   6.438   1.954   2.881 -0.3620 -0.7149  0.2423
   67MOL0     C 8943   6.423   1.867   2.977  0.7326 -0.0220  0.4511
   67MOL0     C 8944   6.333   1.880   3.084 -0.1674 -0.0900  0.1675
   67MOL0     O 8945   6.305   1.781   3.176  0.0570 -0.3212 -0.0250
   67MOL0     C 8946   6.408   1.763   3.276 -0.5856  0.0630  0.8886
   67MOL0     C 8947   6.390   1.631   3.330 -0.1497  0.3158  0.8724
   67MOL0     C 8948   6.402   1.513   3.220 -0.4449 -0.2233  0.0879
   67MOL0     C 8949   6.335   1.385   3.268  0.0613 -0.1913 -0.6160
   67MOL0     C 8950   6.320   1.283   3.162 -0.8914  0.3804 -0.0751
   67MOL0     C 8951   6.436   1.260   3.059 -0.2673  0.3173  0.1963
   67MOL0     C 8952   6.391   1.138   2.970  0.0649 -0.6789  0.8420
   67MOL0     C 8953   6.430   1.007   3.024  0.7293  0.4210  0.4231
   67MOL0    Cl 8954   6.320   0.897   2.929  0.0025 -0.2159  0.2528
   67MOL0     C 8955   6.256   1.989   3.074 -0.5841 -0.1484 -0.7230
   67MOL0     C 8956   6.272   2.094   2.982  0.9183  0.7580  0.6753
   67MOL0     O 8957   6.326   2.056   2.614  0.2396  0.3478  0.7472
   67MOL0     C 8958   6.534   2.340   2.601  0.0271 -0.0525 -0.7242
   67MOL0     C 8959   6.594   2.430   2.506  1.0120 -0.1956 -0.4330
   67MOL0     N 8960   6.134   2.737   2.202  0.3927 -0.4174 -0.5567
   67MOL0     N 8961   6.103   2.727   2.076 -0.6513 -0.5893  0.7270
   67MOL0     C 8962   5.897   3.925   1.968 -0.4808 -0.2552  0.8993
   67MOL0     C 8963   5.892   4.024   1.865 -0.0880  0.5761 -0.2096
   67MOL0     C 8964   5.962   4.194   1.456 -0.0793 -1.0190 -0.7262
   67MOL0     C 8965   6.053   4.187   1.345 -0.4854 -0.7283 -0.0231
   67MOL0     C 8966   6.066   4.295   1.259  0.6395 -0.0999  0.1870
   67MOL0     C 8967   6.001   4.417   1.279 -0.7273 -0.0586 -0.2620
   67MOL0     O 8968   6.029   4.514   1.183  0.3943 -0.4735  0.4922
   67MOL0     C 8969   5.915   4.572   1.126 -0.3166  0.0967  0.1222
   67MOL0     C 8970   5.912   4.574   0.973  0.1598 -0.4438  1.2704
   67MOL0     C 8971   6.028   4.672   0.905 -0.1056 -0.0560 -0.2921
   67MOL0     C 8972   6.168   4.596   0.896 -0.5437 -0.6699  0.5905
   67MOL0     C 8973   6.160   4.513   0.777  0.6681 -0.2343 -0.8414
   67MOL0     C 8974   6.160   4.443   0.677 -0.1289  0.3440 -0.5214
   67MOL0     C 8975   5.913   4.426   1.380  0.7197  0.4016  0.0730
   67MOL0     C 8976   5.896   4.320   1.474  0.9910  0.3977  0.0911
   67MOL0     C 8977   5.814   4.346   1.588  0.3558 -1.6380 -0.8736
   67MOL0     H 8978   5.747   3.832   1.627 -2.8858 -0.5426  1.1412
   67MOL0     H 8979   5.724   3.674   1.830 -1.0868  1.3514  2.9822
   67MOL0     H 8980   5.840   3.549   2.157  3.0169 -1.3304 -0.7864
   67MOL0     H 8981   5.767   3.547   1.995  1.6966  1.1718 -2.7837
   67MOL0     H 8982   6.043   3.557   2.099 -1.7060  1.0629  1.5922
   67MOL0     H 8983   6.026   3.626   1.943 -3.3814  1.8830  0.2134
   67MOL0     H 8984   6.102   3.399   1.906  0.5514  0.8236  1.5949
   67MOL0     H 8985   5.934   3.413   1.850 -2.3367 -0.8298  2.1116
   67MOL0     H 8986   5.992   3.323   2.127  2.6992  1.6128 -0.9507
   67MOL0     H 8987   5.838   3.311   2.021  0.5797  3.8912 -0.6486
   67MOL0     H 8988   6.098   3.173   2.046 -1.3039 -0.3748  1.4502
   67MOL0     H 8989   5.936   3.108   2.064 -1.7681 -1.1197 -1.7804
   67MOL0     H 8990   5.878   3.155   1.827 -0.2170 -2.0727 -1.2427
   67MOL0     H 8991   6.055   3.161   1.791  2.3694 -2.2661  0.6204
   67MOL0     H 8992   5.933   2.940   1.751 -1.0122  0.1433  0.2313
   67MOL0     H 8993   5.905   2.940   1.922  1.1014  0.8584  2.0841
   67MOL0     H 8994   6.142   2.825   1.799 -0.5380  1.7947 -3.8381
   67MOL0     H 8995   6.197   2.975   1.848 -1.3388  2.9445 -0.1734
   67MOL0     H 8996   6.230   3.020   2.080 -0.4929 -0.2435 -0.8958
   67MOL0     H 8997   6.235   3.021   2.353 -3.4433 -0.5620 -0.1057
   67MOL0     H 8998   6.200   2.871   2.445  0.1837 -0.0778  0.1068
   67MOL0     H 8999   6.457   2.947   2.296 -0.0664 -0.8079 -0.2708
   67MOL0     H 9000   6.435   2.880   2.463  0.0411 -0.3166 -0.5458
   67MOL0     H 9001   6.398   2.715   2.204 -0.5391 -0.5357  0.7371
   67MOL0     H 9002   6.348   2.671   2.367 -0.9050  2.5735  2.0725
   67MOL0     H 9003   6.597   2.723   2.435 -0.3240 -0.6032  0.6289
   67MOL0     H 9004   6.626   2.752   2.267  1.1302  1.4725  1.5917
   67MOL0     H 9005   6.354   2.425   2.267  2.0794 -0.6818 -1.0485
   67MOL0     H 9006   6.270   2.220   2.428 -0.3119  1.0900 -0.8447
   67MOL0     H 9007   6.521   1.949   2.811  0.1430  0.9983  0.6823
   67MOL0     H 9008   6.485   1.779   2.993 -1.0569 -1.2460  0.9267
   67MOL0     H 9009   6.505   1.760   3.226 -0.8623 -3.1637  0.3276
   67MOL0     H 9010   6.403   1.843   3.351 -0.5593  1.2147 -0.2926
   67MOL0     H 9011   6.459   1.607   3.412  0.4913  0.1053  0.2808
   67MOL0     H 9012   6.287   1.623   3.367 -1.3570 -2.6005 -2.5276
   67MOL0     H 9013   6.367   1.546   3.122 -0.4783 -0.1429  0.1267
   67MOL0     H 9014   6.506   1.487   3.199 -1.2474 -0.5841 -4.4314
   67MOL0     H 9015   6.232   1.410   3.295 -0.9068 -2.5856 -1.7922
   67MOL0     H 9016   6.383   1.367   3.364 -0.9746  1.6154  0.3034
   67MOL0     H 9017   6.226   1.295   3.107 -1.8209 -0.8832  1.1561
   67MOL0     H 9018   6.300   1.189   3.215  1.2552  0.4055  0.8543
   67MOL0     H 9019   6.454   1.344   2.992  1.1805 -1.4449 -1.7852
   67MOL0     H 9020   6.531   1.239   3.109 -1.6229 -1.4398  2.2020
   67MOL0     H 9021   6.437   1.160   2.873 -1.9714 -0.0265 -0.0254
   67MOL0     H 9022   6.283   1.131   2.954  0.1863 -2.1620  0.5500
   67MOL0     H 9023   6.535   0.993   2.995  0.1914 -1.6224 -0.7129
   67MOL0     H 9024   6.410   1.008   3.131  0.0733 -0.2218  0.3096
   67MOL0     H 9025   6.178   2.003   3.148  0.6631 -1.9115  1.0365
   67MOL0     H 9026   6.205   2.178   2.996 -0.1024 -0.4411  3.7580
   67MOL0     H 9027   6.580   2.325   2.699  0.5142  2.7429 -0.4538
   67MOL0     H 9028   6.684   2.488   2.524  0.1456  0.4342  2.3018
   67MOL0     H 9029   5.939   3.951   2.065  2.3300  2.1788 -0.7686
   67MOL0     H 9030   5.928   4.123   1.890  0.7960  0.0278  0.7862
   67MOL0     H 9031   6.098   4.091   1.320  2.9735  0.6033  0.5221
   67MOL0     H 9032   6.125   4.276   1.170  2.5301  0.4703  1.2674
   67MOL0     H 9033   5.915   4.676   1.161  1.6759 -0.1263  0.9043
   67MOL0     H 9034   5.826   4.525   1.170 -1.4710  2.2295  0.2243
   67MOL0     H 9035   5.819   4.605   0.924  1.3563  0.4864 -0.5443
   67MOL0     H 9036   5.921   4.466   0.956 -4.6913 -1.0099  1.0946
   67MOL0     H 9037   6.034   4.763   0.966 -0.4150 -3.4052  5.5607
   67MOL0     H 9038   5.985   4.702   0.809  3.1469  2.7112 -1.0490
   67MOL0     H 9039   6.256   4.660   0.884 -1.0238 -0.5620 -4.8388
   67MOL0     H 9040   6.195   4.544   0.988  2.6887  2.3146  1.5209
   67MOL0     H 9041   6.165   4.361   0.608 -0.6151 -0.2756  0.1665
   67MOL0     H 9042   5.870   4.521   1.409 -0.4793 -1.1854  4.1607
   67MOL0     H 9043   5.762   4.440   1.568  1.1793 -0.9090  0.2543
   67MOL0     H 9044   5.733   4.274   1.599 -0.8982 -0.0696  1.0498
   67MOL0     H 9045   5.878   4.370   1.674  0.7823  6.3060 -2.6339
   68MOL0     O 9046   3.952   9.813   6.265 -0.6164  0.4815  0.8371
   68MOL0     C 9047   3.924   9.917   6.202 -0.2797  1.0328  0.1553
   68MOL0     O 9048   3.975   9.947   6.074  0.2263  0.1460  0.9119
   68MOL0     C 9049   4.065   9.887   5.992 -0.2826  1.3803  0.5406
   68MOL0     C 9050   4.088   9.946   5.870  0.5794  0.0761 -0.7895
   68MOL0     C 9051   4.186   9.890   5.781 -0.2078 -0.7079 -0.8315
   68MOL0     C 9052   4.258   9.773   5.821  0.1072 -0.7285 -0.1895
   68MOL0     O 9053   4.356   9.712   5.743 -0.4313 -0.1178  0.1408
   68MOL0     C 9054   4.412   9.763   5.624 -0.2054  1.2404 -0.0366
   68MOL0     C 9055   4.525   9.672   5.572 -0.0816 -0.0008 -0.9539
   68MOL0     C 9056   4.472   9.538   5.526  0.1750 -0.3004 -0.2795
   68MOL0     C 9057   4.570   9.425   5.528 -0.6479 -0.1060  0.1218
   68MOL0     C 9058   4.583   9.368   5.673  0.3675  0.0795 -0.7449
   68MOL0     C 9059   4.650   9.236   5.674 -0.1331  0.3745 -0.0858
   68MOL0     C 9060   4.792   9.222   5.619 -0.2652  0.3181  0.4496
   68MOL0     C 9061   4.859   9.085   5.630 -0.4021 -0.2378  0.3556
   68MOL0     N 9062   4.821   8.986   5.525  0.0092  0.4794  0.8019
   68MOL0     C 9063   4.867   8.961   5.395 -0.0271 -0.0262 -0.1186
   68MOL0     C 9064   4.812   8.840   5.362 -0.6889 -0.3789  0.0786
   68MOL0     C 9065   4.848   8.764   5.231  0.3275 -0.1745 -1.1516
   68MOL0     C 9066   4.966   8.667   5.259  0.8447 -0.5334 -0.6674
   68MOL0     C 9067   5.109   8.733   5.273 -0.2306 -0.5380 -0.2194
   68MOL0     C 9068   5.224   8.630   5.265  0.2952  0.5622 -0.8202
   68MOL0     O 9069   5.227   8.544   5.380 -0.4005  0.2367  0.5758
   68MOL0     C 9070   5.317   8.449   5.386 -0.0585  0.8195 -0.0233
   68MOL0     C 9071   5.446   8.449   5.316  1.0228  0.5421 -0.2165
   68MOL0     C 9072   5.536   8.350   5.331  0.3511  0.4698 -0.0863
   68MOL0     C 9073   5.496   8.227   5.399 -0.8805  0.4321 -0.8688
   68MOL0     C 9074   5.577   8.113   5.381  0.4044  0.3732  0.2688
   68MOL0     O 9075   5.677   8.128   5.302 -0.6120  0.2567  0.3822
   68MOL0     C 9076   5.738   8.024   5.238  0.2268 -0.7791 -0.1813
   68MOL0     C 9077   5.878   8.036   5.230  0.3674  0.5503  0.0197
   68MOL0     C 9078   5.956   7.941   5.158 -0.4480  0.7819 -0.4836
   68MOL0     C 9079   5.889   7.837   5.084 -0.2160  0.4048 -0.3872
   68MOL0     O 9080   5.965   7.746   5.012  0.1976  0.3977 -0.0794
   68MOL0     C 9081   5.949   7.752   4.869  0.6095  0.5487  0.4661
   68MOL0     C 9082   5.873   7.628   4.818 -0.8710 -0.1175  0.0665
   68MOL0     C 9083   5.896   7.566   4.680  0.1031  0.1823 -0.4992
   68MOL0     C 9084   5.829   7.434   4.671 -0.3014  0.9753  0.0657
   68MOL0     C 9085   5.837   7.381   4.529  0.1931  0.4136  0.1624
   68MOL0     C 9086   5.754   7.259   4.497 -0.0639 -0.6179 -0.4193
   68MOL0     C 9087   5.768   7.132   4.593  0.1299 -0.2391  0.2317
   68MOL0     C 9088   5.697   7.012   4.530 -0.2765  0.3325 -0.1290
   68MOL0    Cl 9089   5.662   6.883   4.662 -0.4262 -0.0686  0.0928
   68MOL0     C 9090   5.746   7.830   5.087 -0.6120  0.9346 -0.3120
   68MOL0     C 9091   5.680   7.926   5.159 -0.7679  0.4438 -0.7556
   68MOL0     O 9092   5.529   8.007   5.415 -0.4525 -0.0387  0.3855
   68MOL0     C 9093   5.376   8.225   5.472  0.0399 -0.2051 -0.4966
   68MOL0     C 9094   5.286   8.340   5.461 -0.1607  0.2929 -0.8554
   68MOL0     N 9095   4.731   8.798   5.465 -0.3740  0.3045  0.1185
   68MOL0     N 9096   4.738   8.886   5.556  0.5673  0.7733 -0.3770
   68MOL0     C 9097   4.228   9.709   5.938 -0.9369 -0.3090 -0.1438
   68MOL0     C 9098   4.136   9.766   6.026  0.3039  0.3565  0.1596
   68MOL0     C 9099   3.787   9.984   6.225 -0.6499  2.0615 -0.2124
   68MOL0     C 9100   3.734  10.059   6.122  0.4420  0.6898 -0.8917
   68MOL0     C 9101   3.609  10.125   6.146 -0.2297  0.4621  0.3665
   68MOL0     C 9102   3.538  10.121   6.266 -0.2515 -0.9321 -0.5091
   68MOL0     O 9103   3.419  10.184   6.285  1.0408  0.4685 -0.9042
   68MOL0     C 9104   3.398  10.299   6.217  0.1262  0.1384  0.1619
   68MOL0     C 9105   3.284  10.382   6.273 -0.1210 -0.1449  1.3217
   68MOL0     C 9106   3.158  10.317   6.250  0.3891 -0.1016  0.8642
   68MOL0     C 9107   3.052  10.395   6.312 -0.3306 -0.7362  0.4095
   68MOL0     C 9108   2.919  10.348   6.264  0.0063  0.0568  1.1457
   68MOL0     C 9109   2.822  10.324   6.203  0.2334 -0.4212  0.8390
   68MOL0     C 9110   3.589  10.034   6.363 -0.1071  0.3876  1.5231
   68MOL0     C 9111   3.711   9.964   6.349  0.1937 -0.1164 -0.9122
   68MOL0     C 9112   3.735   9.851   6.446  0.4231  0.4108 -0.1246
   68MOL0     H 9113   4.053  10.046   5.843  2.1362  0.3861 -1.7988
   68MOL0     H 9114   4.203   9.968   5.707 -0.5041  2.4032  2.1172
   68MOL0     H 9115   4.334   9.746   5.549 -0.5123 -0.3306  0.5990
   68MOL0     H 9116   4.439   9.869   5.629 -0.1339  1.2123  0.1832
   68MOL0     H 9117   4.612   9.673   5.639  0.0031 -2.1710 -0.9610
   68MOL0     H 9118   4.571   9.708   5.479  1.2913 -3.4681 -1.7982
   68MOL0     H 9119   4.429   9.543   5.425 -2.2032 -1.0788  0.6210
   68MOL0     H 9120   4.382   9.504   5.578 -1.8019  0.7486 -2.7617
   68MOL0     H 9121   4.526   9.348   5.465 -0.2428  0.1373 -0.4587
   68MOL0     H 9122   4.674   9.446   5.503 -0.4430  1.7365  2.1919
   68MOL0     H 9123   4.646   9.438   5.730 -1.6645 -1.1023  3.3325
   68MOL0     H 9124   4.483   9.366   5.716  1.3598  2.5313  2.0374
   68MOL0     H 9125   4.643   9.198   5.777 -0.8486 -0.8158 -0.5492
   68MOL0     H 9126   4.590   9.172   5.609  2.1011  1.0927 -3.0672
   68MOL0     H 9127   4.853   9.305   5.655 -2.8980  1.2684  3.0618
   68MOL0     H 9128   4.785   9.235   5.510  1.4646 -3.7330 -0.3482
   68MOL0     H 9129   4.967   9.105   5.627 -0.5073  0.9376  2.3570
   68MOL0     H 9130   4.832   9.033   5.722  1.8680 -0.5712  0.8867
   68MOL0     H 9131   4.936   9.023   5.340  1.4663  2.7978  4.3627
   68MOL0     H 9132   4.764   8.701   5.200  1.1448 -0.5620 -2.6871
   68MOL0     H 9133   4.868   8.841   5.155  2.2505 -2.2376 -2.8748
   68MOL0     H 9134   4.930   8.614   5.347 -2.1327 -0.5171 -1.7563
   68MOL0     H 9135   4.969   8.588   5.182  1.9266 -2.7353  1.5044
   68MOL0     H 9136   5.117   8.793   5.364 -0.9281 -3.3626  1.8685
   68MOL0     H 9137   5.131   8.796   5.187 -0.4136 -0.9578 -0.5803
   68MOL0     H 9138   5.308   8.700   5.259  1.5412 -0.7948  0.1696
   68MOL0     H 9139   5.226   8.575   5.171  1.7578 -0.8867 -0.0052
   68MOL0     H 9140   5.476   8.530   5.251  1.4332 -1.5341 -2.7838
   68MOL0     H 9141   5.636   8.358   5.289  1.1433 -2.4231  1.0144
   68MOL0     H 9142   5.913   8.121   5.289 -1.4768  0.6483  1.0567
   68MOL0     H 9143   6.063   7.946   5.139 -0.1362 -1.0109  0.5775
   68MOL0     H 9144   5.908   7.849   4.837 -1.8703 -0.2640  1.0092
   68MOL0     H 9145   6.052   7.749   4.834  0.6201 -0.4022  0.5786
   68MOL0     H 9146   5.896   7.542   4.882  1.6337 -0.1704 -0.7842
   68MOL0     H 9147   5.765   7.644   4.816 -1.0467 -1.2737 -1.9118
   68MOL0     H 9148   5.847   7.637   4.613 -1.3105  1.3612  1.6482
   68MOL0     H 9149   6.001   7.543   4.661  0.2661  0.3903  0.1287
   68MOL0     H 9150   5.725   7.439   4.705 -0.5541 -0.1935 -0.4981
   68MOL0     H 9151   5.865   7.353   4.735 -4.4769 -1.2026  0.0132
   68MOL0     H 9152   5.939   7.363   4.494  0.1172  3.0813 -1.7907
   68MOL0     H 9153   5.800   7.459   4.463  1.9913 -0.4811 -2.0321
   68MOL0     H 9154   5.654   7.304   4.494  1.1899  2.3895 -3.1241
   68MOL0     H 9155   5.765   7.238   4.390 -1.1158  2.0761 -1.1324
   68MOL0     H 9156   5.732   7.163   4.692  0.0923 -1.0915  0.4924
   68MOL0     H 9157   5.874   7.111   4.608  0.4611  0.2702 -1.2138
   68MOL0     H 9158   5.604   7.040   4.480 -0.3076  0.3891 -0.0392
   68MOL0     H 9159   5.761   6.963   4.455 -0.3591  2.2775 -1.5409
   68MOL0     H 9160   5.697   7.740   5.050  1.0082 -0.1525  0.0718
   68MOL0     H 9161   5.571   7.927   5.163 -0.7406  1.4356  1.2384
   68MOL0     H 9162   5.340   8.143   5.532 -1.2414  1.2103  0.7526
   68MOL0     H 9163   5.200   8.341   5.527  0.6260  1.0381  0.1849
   68MOL0     H 9164   4.296   9.628   5.965 -0.2685 -0.4621 -2.1576
   68MOL0     H 9165   4.108   9.717   6.119 -0.6898  3.3855  1.5860
   68MOL0     H 9166   3.781  10.094   6.031 -3.4187  0.1221 -3.3614
   68MOL0     H 9167   3.577  10.175   6.055 -1.2213 -4.3412 -2.2825
   68MOL0     H 9168   3.358  10.259   6.123  0.6995  0.2174 -0.1172
   68MOL0     H 9169   3.487  10.361   6.205  0.7079 -1.1443 -3.7518
   68MOL0     H 9170   3.296  10.480   6.225 -0.4995  0.0753  1.6779
   68MOL0     H 9171   3.297  10.390   6.381 -0.3398  1.6500  1.2404
   68MOL0     H 9172   3.154  10.223   6.305  4.2913 -0.3908  0.9580
   68MOL0     H 9173   3.135  10.302   6.144  0.1671 -0.1182  0.9161
   68MOL0     H 9174   3.058  10.401   6.421  0.1436  2.0167  0.2912
   68MOL0     H 9175   3.063  10.497   6.274  0.4855 -1.0802 -0.3096
   68MOL0     H 9176   2.731  10.306   6.149 -0.6747  1.8725  1.4994
   68MOL0     H 9177   3.515  10.022   6.442  0.2039  2.2005  2.1288
   68MOL0     H 9178   3.685   9.875   6.540  4.7587  3.7047  1.7112
   68MOL0     H 9179   3.704   9.754   6.407 -1.2025  0.3096  1.2779
   68MOL0     H 9180   3.840   9.844   6.476  0.0079 -0.9686  1.0796
   69MOL0     O 9181   6.083   6.733   1.829 -0.2343 -0.2068 -0.1744
   69MOL0     C 9182   6.188   6.682   1.866  0.7406  0.0249  1.0275
   69MOL0     O 9183   6.251   6.585   1.799  0.3167 -0.4275  0.6604
   69MOL0     C 9184   6.172   6.507   1.714 -0.1788  0.1330 -0.7944
   69MOL0     C 9185   6.174   6.535   1.580  0.5332  0.4725  0.0912
   69MOL0     C 9186   6.074   6.475   1.492  1.3032  0.2111 -0.2292
   69MOL0     C 9187   5.964   6.402   1.543  0.1651  1.0225 -0.2081
   69MOL0     O 9188   5.863   6.358   1.467 -0.2641 -0.0225  0.3245
   69MOL0     C 9189   5.855   6.399   1.331  0.8702 -0.1082 -0.5330
   69MOL0     C 9190   5.723   6.355   1.267 -0.3366 -0.2023  0.1036
   69MOL0     C 9191   5.706   6.408   1.124 -1.0536  0.3363  0.6513
   69MOL0     C 9192   5.570   6.483   1.103  0.5525 -0.4006 -0.2713
   69MOL0     C 9193   5.561   6.554   0.967 -0.2499 -0.4788  0.3100
   69MOL0     C 9194   5.415   6.589   0.921 -0.4726  1.0462 -0.2583
   69MOL0     C 9195   5.397   6.621   0.777  0.1941  0.4994 -0.0451
   69MOL0     C 9196   5.384   6.501   0.683 -0.6743  0.6279  1.5908
   69MOL0     N 9197   5.495   6.417   0.689  0.1485 -0.1975  0.0580
   69MOL0     C 9198   5.617   6.438   0.624  0.6116 -0.3025  0.1858
   69MOL0     C 9199   5.693   6.327   0.648  0.4409 -0.4079  1.4412
   69MOL0     C 9200   5.833   6.288   0.625 -0.4259 -0.4093  0.3275
   69MOL0     C 9201   5.925   6.390   0.693  0.2827  0.3300  0.7229
   69MOL0     C 9202   5.927   6.377   0.844 -0.4640  0.4707  0.6874
   69MOL0     C 9203   6.037   6.468   0.891  0.7759  1.1372 -0.7088
   69MOL0     O 9204   6.062   6.447   1.026  0.1615 -0.8270 -0.2202
   69MOL0     C 9205   6.174   6.491   1.086  0.0135  0.5165  0.3575
   69MOL0     C 9206   6.255   6.601   1.064  0.0724  0.5246 -0.0899
   69MOL0     C 9207   6.359   6.643   1.154  0.6405 -0.4558 -1.0109
   69MOL0     C 9208   6.391   6.567   1.266  0.5933  0.5675 -1.2454
   69MOL0     C 9209   6.494   6.606   1.354 -0.3756 -0.1623 -0.6240
   69MOL0     O 9210   6.506   6.530   1.468 -0.4410 -0.3542 -0.0936
   69MOL0     C 9211   6.607   6.540   1.565 -0.8447 -0.1876  0.5988
   69MOL0     C 9212   6.586   6.507   1.697  0.6192  0.4290 -0.0287
   69MOL0     C 9213   6.692   6.531   1.797  0.7577 -0.7028 -0.1101
   69MOL0     C 9214   6.819   6.574   1.756 -0.9629  0.5609  0.0101
   69MOL0     O 9215   6.924   6.596   1.839  0.2568 -0.0346  0.1007
   69MOL0     C 9216   6.921   6.719   1.901 -0.3447 -0.4026 -0.7049
   69MOL0     C 9217   6.949   6.849   1.816  0.6674  0.2960  0.5813
   69MOL0     C 9218   6.983   6.963   1.908  0.1697 -0.2308 -0.1552
   69MOL0     C 9219   7.036   7.093   1.844 -0.1080  0.9897  0.1390
   69MOL0     C 9220   7.098   7.198   1.936 -0.4879 -0.1103 -0.0367
   69MOL0     C 9221   7.173   7.299   1.863 -0.0902 -0.7949  0.8547
   69MOL0     C 9222   7.221   7.400   1.968 -0.1071  0.1486  0.3391
   69MOL0     C 9223   7.311   7.508   1.897 -0.4711 -0.0873  0.4347
   69MOL0    Cl 9224   7.416   7.603   2.015 -0.2277  0.4912 -0.0162
   69MOL0     C 9225   6.839   6.604   1.623 -0.1644 -0.0254 -0.2633
   69MOL0     C 9226   6.739   6.583   1.534  0.8571 -0.6537  0.0659
   69MOL0     O 9227   6.566   6.701   1.329 -0.0200  0.4760 -0.0520
   69MOL0     C 9228   6.317   6.448   1.286  0.0274  0.2192  0.5609
   69MOL0     C 9229   6.224   6.409   1.187  0.2340  0.6853 -0.6805
   69MOL0     N 9230   5.612   6.247   0.736 -1.2288 -0.6611 -0.1186
   69MOL0     N 9231   5.505   6.301   0.761  0.0860 -0.0783  0.4143
   69MOL0     C 9232   5.963   6.385   1.677  0.0354 -0.0299 -0.1116
   69MOL0     C 9233   6.066   6.433   1.762 -0.3595 -0.1205  0.6260
   69MOL0     C 9234   6.255   6.735   1.979 -0.5370  0.2674  0.0968
   69MOL0     C 9235   6.402   6.712   1.989  1.4065  0.9255  0.6886
   69MOL0     C 9236   6.476   6.751   2.103 -0.0339  0.4938  0.1417
   69MOL0     C 9237   6.419   6.838   2.201 -0.8890  0.4386  0.3925
   69MOL0     O 9238   6.491   6.910   2.296 -0.3430 -0.1404  0.6388
   69MOL0     C 9239   6.544   6.832   2.408  0.4193 -0.1230  0.3550
   69MOL0     C 9240   6.694   6.797   2.378 -0.2939 -0.3676 -0.2489
   69MOL0     C 9241   6.777   6.769   2.496  0.0195 -0.0129  0.3230
   69MOL0     C 9242   6.727   6.661   2.588  1.6005  0.0984  0.7683
   69MOL0     C 9243   6.807   6.642   2.709 -0.3946 -0.5171  1.8960
   69MOL0     C 9244   6.881   6.637   2.804  0.3798  0.4632  0.6002
   69MOL0     C 9245   6.281   6.862   2.190 -0.4064  0.0889 -0.3639
   69MOL0     C 9246   6.196   6.814   2.091  0.1316 -1.0957  0.2996
   69MOL0     C 9247   6.050   6.854   2.098 -0.2036 -0.5003 -0.2327
   69MOL0     H 9248   6.242   6.608   1.536 -0.7110  0.9600 -1.0859
   69MOL0     H 9249   6.084   6.513   1.391 -1.6712 -0.0907 -0.7238
   69MOL0     H 9250   5.865   6.508   1.325 -3.0387  0.4233  0.0364
   69MOL0     H 9251   5.940   6.349   1.283  1.1018  1.8115 -2.2726
   69MOL0     H 9252   5.647   6.388   1.338  0.6307  0.9131  0.6434
   69MOL0     H 9253   5.698   6.249   1.278 -2.7931 -0.3036 -4.2125
   69MOL0     H 9254   5.707   6.330   1.047  1.0081  0.8820  0.0614
   69MOL0     H 9255   5.786   6.479   1.101  1.1339 -1.9636  0.6935
   69MOL0     H 9256   5.487   6.412   1.105 -3.4631  3.8588 -0.9036
   69MOL0     H 9257   5.542   6.548   1.185 -0.2241  0.4382 -1.1875
   69MOL0     H 9258   5.595   6.657   0.977 -2.4526  0.5907 -2.1770
   69MOL0     H 9259   5.620   6.503   0.890 -2.0224 -2.0524 -0.0955
   69MOL0     H 9260   5.363   6.494   0.940  0.4957  0.2941 -1.2026
   69MOL0     H 9261   5.381   6.665   0.991 -1.8727 -0.3550  0.6338
   69MOL0     H 9262   5.486   6.678   0.748  1.7005 -0.4960  2.2849
   69MOL0     H 9263   5.309   6.686   0.768 -1.1575 -0.9884  1.6567
   69MOL0     H 9264   5.286   6.457   0.704 -0.6355  1.1540  2.9490
   69MOL0     H 9265   5.359   6.531   0.580  2.8199 -0.9833  0.1096
   69MOL0     H 9266   5.643   6.531   0.576 -2.6643 -0.0257 -1.3217
   69MOL0     H 9267   5.841   6.193   0.680 -2.9562 -0.2134  1.1855
   69MOL0     H 9268   5.859   6.274   0.520  1.5701  0.6305  0.6459
   69MOL0     H 9269   6.026   6.371   0.657 -0.0002  0.4931 -0.1917
   69MOL0     H 9270   5.904   6.493   0.663  4.3288  0.9587 -0.4754
   69MOL0     H 9271   5.951   6.274   0.875  3.1557  0.5169 -1.3925
   69MOL0     H 9272   5.830   6.405   0.886 -0.1193  0.8320  1.2561
   69MOL0     H 9273   6.026   6.577   0.886  0.9269  1.3821  2.5463
   69MOL0     H 9274   6.126   6.437   0.835  1.7678  2.5714 -0.0106
   69MOL0     H 9275   6.225   6.665   0.981  0.4512  0.9228  0.0753
   69MOL0     H 9276   6.401   6.741   1.133  0.7677  0.4250  2.6736
   69MOL0     H 9277   6.497   6.456   1.730  1.1934 -1.3901 -1.1659
   69MOL0     H 9278   6.673   6.504   1.901 -0.0575 -1.9123 -0.5552
   69MOL0     H 9279   6.822   6.716   1.947 -1.3905 -0.8918 -2.8595
   69MOL0     H 9280   6.986   6.722   1.988 -1.3358  0.6391  0.0355
   69MOL0     H 9281   7.027   6.818   1.746 -1.6215 -1.4620 -1.4105
   69MOL0     H 9282   6.864   6.879   1.753  1.0574 -1.4289 -0.8834
   69MOL0     H 9283   6.895   6.980   1.970 -2.3922 -0.8681 -3.3133
   69MOL0     H 9284   7.063   6.931   1.976 -0.7130 -0.4308  0.8119
   69MOL0     H 9285   6.948   7.149   1.809 -0.8242  1.7078  2.8651
   69MOL0     H 9286   7.102   7.077   1.758 -0.6046  0.6584 -0.1907
   69MOL0     H 9287   7.163   7.159   2.014 -2.0756  1.0977  1.9872
   69MOL0     H 9288   7.017   7.242   1.995 -2.7550 -1.9164 -1.5853
   69MOL0     H 9289   7.261   7.260   1.812  1.0981  2.4132  0.1946
   69MOL0     H 9290   7.117   7.355   1.788  0.9427 -2.2360 -1.0749
   69MOL0     H 9291   7.279   7.353   2.049 -0.7095  1.6112  1.6680
   69MOL0     H 9292   7.134   7.453   2.006  1.1276  3.3763 -0.9763
   69MOL0     H 9293   7.377   7.477   1.815 -0.6149  0.8033 -0.0261
   69MOL0     H 9294   7.240   7.575   1.847 -1.0066  0.9816  2.5339
   69MOL0     H 9295   6.936   6.633   1.583 -0.7526  1.0318 -0.9914
   69MOL0     H 9296   6.768   6.620   1.436  0.0080  2.8927  0.9956
   69MOL0     H 9297   6.341   6.376   1.363  0.9584 -2.0350 -1.6984
   69MOL0     H 9298   6.172   6.316   1.210  0.9644 -0.4255 -3.1327
   69MOL0     H 9299   5.882   6.332   1.726  1.3929 -0.9821  1.1831
   69MOL0     H 9300   6.045   6.433   1.869  0.6561 -1.8096  0.8673
   69MOL0     H 9301   6.452   6.640   1.926  0.0081  0.1574  0.4219
   69MOL0     H 9302   6.579   6.718   2.110 -0.1559 -0.0443 -0.5577
   69MOL0     H 9303   6.478   6.745   2.420 -0.0729  0.0080 -1.2137
   69MOL0     H 9304   6.540   6.888   2.502  3.2958 -0.5074  0.8045
   69MOL0     H 9305   6.738   6.889   2.337 -1.1163 -0.4317 -1.3037
   69MOL0     H 9306   6.701   6.726   2.295 -1.2110 -1.5696  0.6604
   69MOL0     H 9307   6.780   6.866   2.547  2.5874 -0.4650  1.1858
   69MOL0     H 9308   6.879   6.743   2.467 -0.1569 -0.5117  0.1343
   69MOL0     H 9309   6.622   6.680   2.613  1.6871  0.8975  0.5589
   69MOL0     H 9310   6.733   6.570   2.528  2.5730 -0.3139  1.4818
   69MOL0     H 9311   6.966   6.612   2.864  1.1793  0.7919 -0.3848
   69MOL0     H 9312   6.231   6.924   2.265 -0.7013 -0.2380 -0.2899
   69MOL0     H 9313   6.030   6.942   2.036  3.1707  0.7892  0.2886
   69MOL0     H 9314   5.982   6.773   2.071 -0.1167 -1.0633  1.1693
   69MOL0     H 9315   6.031   6.888   2.200 -5.1582  0.0908 -1.0816
   70MOL0     O 9316   9.418   1.755   0.214  0.1415 -0.0938 -0.0084
   70MOL0     C 9317   9.332   1.680   0.273  0.2204 -0.7322  0.0201
   70MOL0     O 9318   9.202   1.672   0.232  0.8129  0.8908  0.0979
   70MOL0     C 9319   9.161   1.741   0.117  0.0623  0.0669 -0.5282
   70MOL0     C 9320   9.051   1.823   0.125 -0.1753 -0.7830  0.0364
   70MOL0     C 9321   9.008   1.891   0.004 -0.3585  0.0893 -0.2254
   70MOL0     C 9322   9.077   1.874  -0.117  0.1018  0.3074 -0.4032
   70MOL0     O 9323   9.005   1.933  -0.228  0.4045  0.6349  0.0843
   70MOL0     C 9324   9.062   1.941  -0.360  0.1389  0.0165  0.1646
   70MOL0     C 9325   8.966   1.995  -0.467 -0.5812  1.0728  0.2055
   70MOL0     C 9326   8.836   1.925  -0.489  0.6751  0.5133 -0.4172
   70MOL0     C 9327   8.767   1.987  -0.613 -0.0751  0.9390 -0.2274
   70MOL0     C 9328   8.625   1.931  -0.614 -0.2737 -0.7026  0.1188
   70MOL0     C 9329   8.573   1.912  -0.763  0.0615  0.1439 -0.2540
   70MOL0     C 9330   8.461   1.805  -0.760  0.6315  0.4775  0.2252
   70MOL0     C 9331   8.320   1.860  -0.803  0.6286  0.2530 -0.0336
   70MOL0     N 9332   8.333   1.943  -0.925 -0.0541 -0.2988 -0.0085
   70MOL0     C 9333   8.358   1.885  -1.049  0.2111  0.4535 -0.4896
   70MOL0     C 9334   8.371   1.992  -1.125  0.0060 -0.1305 -0.4581
   70MOL0     C 9335   8.408   2.001  -1.268 -0.6310 -0.3528  0.7924
   70MOL0     C 9336   8.277   2.048  -1.331 -0.0533  0.1886 -0.3600
   70MOL0     C 9337   8.160   1.950  -1.310 -0.2276 -0.2161 -0.0218
   70MOL0     C 9338   8.034   1.964  -1.387  0.4589 -0.8592 -0.1685
   70MOL0     O 9339   8.059   1.984  -1.524 -0.1547 -0.1529 -0.2594
   70MOL0     C 9340   7.968   2.059  -1.587  0.8591 -0.2666  0.4276
   70MOL0     C 9341   7.831   2.072  -1.555  0.2436  0.6903  0.1596
   70MOL0     C 9342   7.746   2.151  -1.637  0.1452  0.4390  0.4088
   70MOL0     C 9343   7.796   2.214  -1.752  0.3037  1.0479 -0.7700
   70MOL0     C 9344   7.707   2.289  -1.840 -0.2333 -0.7948  0.6111
   70MOL0     O 9345   7.599   2.355  -1.777 -0.5508  0.3028  0.2751
   70MOL0     C 9346   7.560   2.476  -1.833  0.9625 -0.1737  0.8073
   70MOL0     C 9347   7.426   2.479  -1.897 -0.7711 -0.1304 -0.9638
   70MOL0     C 9348   7.380   2.603  -1.943  0.1418 -0.4067  0.2046
   70MOL0     C 9349   7.470   2.715  -1.937  0.4204 -0.3372 -0.2130
   70MOL0     O 9350   7.426   2.842  -1.972  0.6947  1.0734  0.1457
   70MOL0     C 9351   7.446   2.877  -2.109 -0.1801  0.5787  0.3048
   70MOL0     C 9352   7.331   2.822  -2.200 -0.7296 -0.5499 -0.0482
   70MOL0     C 9353   7.394   2.827  -2.344  0.5976 -0.0691  0.1112
   70MOL0     C 9354   7.278   2.840  -2.447  0.1471 -1.8102  0.3221
   70MOL0     C 9355   7.339   2.838  -2.587  0.0123  0.8880  0.0355
   70MOL0     C 9356   7.230   2.837  -2.700  0.9193 -1.1134  0.9861
   70MOL0     C 9357   7.155   2.708  -2.725  0.2058  0.4771  0.4525
   70MOL0     C 9358   7.073   2.699  -2.854  0.4144 -0.9054  1.4310
   70MOL0    Cl 9359   7.179   2.742  -2.999 -0.0327  0.3444  0.3298
   70MOL0     C 9360   7.598   2.703  -1.890  0.2978  0.1973  0.0698
   70MOL0     C 9361   7.648   2.584  -1.833 -0.1640 -0.3792  0.1730
   70MOL0     O 9362   7.757   2.325  -1.950  0.4781  0.6592  0.8760
   70MOL0     C 9363   7.928   2.206  -1.787 -0.1994  0.0192 -0.0418
   70MOL0     C 9364   8.013   2.128  -1.703 -0.3683 -0.3437  0.2755
   70MOL0     N 9365   8.332   2.113  -1.053  1.0475  0.7416 -0.2962
   70MOL0     N 9366   8.304   2.077  -0.935 -1.0988  0.3976 -0.1338
   70MOL0     C 9367   9.190   1.793  -0.120 -0.6700  0.3759  0.3660
   70MOL0     C 9368   9.240   1.731  -0.007 -0.7297  0.4276 -1.0558
   70MOL0     C 9369   9.372   1.612   0.398  0.0420  0.7436 -0.1823
   70MOL0     C 9370   9.440   1.484   0.389 -0.0015  0.4636 -0.1514
   70MOL0     C 9371   9.470   1.417   0.506 -0.3366  0.2008  0.6233
   70MOL0     C 9372   9.439   1.464   0.631  0.3229 -0.8657  0.2137
   70MOL0     O 9373   9.480   1.410   0.755  0.2383  0.2145 -1.2147
   70MOL0     C 9374   9.585   1.304   0.748 -0.3621 -0.0100  0.0695
   70MOL0     C 9375   9.616   1.249   0.890 -0.9181 -0.7664 -0.1265
   70MOL0     C 9376   9.729   1.138   0.887 -0.2136  0.6933  0.5112
   70MOL0     C 9377   9.791   1.094   1.027  0.0325 -0.8431  0.9793
   70MOL0     C 9378   9.685   1.051   1.114  0.1558  0.0084 -0.3621
   70MOL0     C 9379   9.604   1.039   1.201 -0.7798  0.9735  0.3522
   70MOL0     C 9380   9.374   1.585   0.637 -0.2495  0.1228  0.5940
   70MOL0     C 9381   9.342   1.662   0.527 -0.9971  0.3499 -0.1935
   70MOL0     C 9382   9.291   1.804   0.540  0.0752 -0.2837 -0.0143
   70MOL0     H 9383   9.006   1.823   0.224  2.7636 -0.3757  1.4714
   70MOL0     H 9384   8.928   1.965   0.002  0.4358  0.9545 -1.7783
   70MOL0     H 9385   9.154   2.000  -0.352  0.5673 -0.4500 -1.1032
   70MOL0     H 9386   9.080   1.838  -0.394 -2.3752 -0.8567  1.2064
   70MOL0     H 9387   9.029   1.994  -0.556  1.1142  0.7957  1.3750
   70MOL0     H 9388   8.949   2.100  -0.441  2.4576  1.6170  0.2564
   70MOL0     H 9389   8.785   1.938  -0.393  2.3101 -3.6035  1.2360
   70MOL0     H 9390   8.861   1.819  -0.496 -0.0464  0.0865  2.3666
   70MOL0     H 9391   8.761   2.097  -0.614 -1.8644  0.8656 -0.1414
   70MOL0     H 9392   8.830   1.964  -0.700  0.2050  0.6177  0.0585
   70MOL0     H 9393   8.631   1.836  -0.562  2.9608 -0.0039  1.2366
   70MOL0     H 9394   8.554   1.996  -0.561  1.3824  0.1301  1.3853
   70MOL0     H 9395   8.547   2.010  -0.802  3.0441  0.5256 -1.5299
   70MOL0     H 9396   8.652   1.886  -0.834  0.2051 -1.2419  0.3670
   70MOL0     H 9397   8.440   1.758  -0.663 -2.4733  0.2305 -0.4893
   70MOL0     H 9398   8.494   1.732  -0.834  0.3200  1.7374 -1.2080
   70MOL0     H 9399   8.255   1.774  -0.821 -0.8213  0.5228  3.2600
   70MOL0     H 9400   8.276   1.916  -0.721 -1.5533 -0.6980 -0.4717
   70MOL0     H 9401   8.378   1.782  -1.074 -1.6296  0.7032 -3.4399
   70MOL0     H 9402   8.497   2.061  -1.289 -1.8639  1.2300 -0.1763
   70MOL0     H 9403   8.439   1.905  -1.311 -1.1301  0.2672 -1.0457
   70MOL0     H 9404   8.252   2.143  -1.283 -0.9076  0.1959 -0.8081
   70MOL0     H 9405   8.284   2.072  -1.438  0.8264  2.3502  0.1249
   70MOL0     H 9406   8.134   1.946  -1.203 -3.0049 -0.6414 -0.6463
   70MOL0     H 9407   8.203   1.852  -1.332  0.6900  0.1820 -0.0647
   70MOL0     H 9408   7.992   2.056  -1.345 -0.1568  0.1354 -2.7729
   70MOL0     H 9409   7.969   1.877  -1.373 -0.3929 -0.5115 -1.7589
   70MOL0     H 9410   7.795   2.006  -1.477 -0.8472 -1.0415 -1.7202
   70MOL0     H 9411   7.645   2.148  -1.596  0.9586 -2.6798  2.5680
   70MOL0     H 9412   7.368   2.387  -1.894 -0.3055 -0.4173  1.6615
   70MOL0     H 9413   7.277   2.600  -1.977  0.0359 -0.6397  0.5316
   70MOL0     H 9414   7.471   2.982  -2.124 -0.0629  0.6950  1.2322
   70MOL0     H 9415   7.531   2.817  -2.145 -1.7783 -1.8947  0.3629
   70MOL0     H 9416   7.277   2.730  -2.175 -2.0808  0.2254 -0.0150
   70MOL0     H 9417   7.248   2.892  -2.187  1.5015  1.7094  4.1237
   70MOL0     H 9418   7.465   2.910  -2.356  1.3390 -0.8028 -0.6933
   70MOL0     H 9419   7.457   2.739  -2.361 -0.8266 -0.5478 -3.5073
   70MOL0     H 9420   7.212   2.925  -2.428  1.4873 -0.2057 -1.8127
   70MOL0     H 9421   7.213   2.752  -2.439  0.0885 -1.9567 -1.4681
   70MOL0     H 9422   7.413   2.760  -2.603 -0.5461  0.0159  1.4848
   70MOL0     H 9423   7.389   2.933  -2.602 -0.7974  1.5590  1.3511
   70MOL0     H 9424   7.165   2.922  -2.676 -2.0911 -4.0567  4.5977
   70MOL0     H 9425   7.273   2.853  -2.799  0.8141 -1.7771  0.8273
   70MOL0     H 9426   7.084   2.685  -2.645 -2.0503  2.4050 -0.8529
   70MOL0     H 9427   7.231   2.630  -2.718 -0.2107  0.0362  0.0965
   70MOL0     H 9428   7.015   2.607  -2.867 -3.2973  1.2832  1.1133
   70MOL0     H 9429   6.999   2.779  -2.855 -0.6546 -1.8510 -0.3316
   70MOL0     H 9430   7.651   2.797  -1.880  2.3832 -1.0956  2.4646
   70MOL0     H 9431   7.742   2.579  -1.778 -0.5225  2.6410  1.2461
   70MOL0     H 9432   7.973   2.262  -1.868  1.6054  0.5200  1.2316
   70MOL0     H 9433   8.117   2.116  -1.732  0.8498  4.3602  1.7391
   70MOL0     H 9434   9.228   1.770  -0.219 -0.2690 -1.9772  0.9972
   70MOL0     H 9435   9.322   1.663  -0.025 -1.6683 -0.7949 -0.8593
   70MOL0     H 9436   9.463   1.432   0.296 -1.4523  1.3012 -1.0141
   70MOL0     H 9437   9.532   1.328   0.501  2.1857  1.8790 -0.3212
   70MOL0     H 9438   9.675   1.354   0.713 -0.3112 -1.1305 -1.5098
   70MOL0     H 9439   9.559   1.229   0.673 -0.0744  1.6043 -1.7237
   70MOL0     H 9440   9.528   1.223   0.950 -2.1008  0.2173 -1.3783
   70MOL0     H 9441   9.669   1.331   0.940  1.2720 -1.9253 -0.4038
   70MOL0     H 9442   9.808   1.170   0.818 -0.5538  1.3434  0.4216
   70MOL0     H 9443   9.683   1.051   0.838 -0.5068 -0.0153  1.9811
   70MOL0     H 9444   9.857   1.008   1.011  0.7104 -0.1404 -0.1457
   70MOL0     H 9445   9.831   1.185   1.071 -3.4284  0.6154  1.4638
   70MOL0     H 9446   9.541   1.006   1.282 -1.1219 -3.1942 -1.3571
   70MOL0     H 9447   9.341   1.629   0.730 -3.9411 -1.0132 -0.0339
   70MOL0     H 9448   9.226   1.829   0.456  3.5538 -2.0715 -3.5785
   70MOL0     H 9449   9.237   1.810   0.635 -0.5308  0.0773 -0.3764
   70MOL0     H 9450   9.381   1.866   0.539 -0.5153  0.6925  2.1138
   71MOL0     O 9451  10.048   1.721   5.573 -0.4669  0.1476 -1.1563
   71MOL0     C 9452  10.038   1.848   5.577  0.1260  1.5079 -0.8890
   71MOL0     O 9453  10.139   1.936   5.553 -0.8556  0.4501  0.0863
   71MOL0     C 9454  10.268   1.893   5.502 -0.4199 -1.2661 -0.5403
   71MOL0     C 9455  10.378   1.970   5.534  0.0414  0.6195 -0.5428
   71MOL0     C 9456  10.509   1.917   5.508  0.1422 -0.0525  0.0576
   71MOL0     C 9457  10.528   1.796   5.432 -0.1876  0.8528 -0.3881
   71MOL0     O 9458  10.642   1.732   5.413 -0.2015  0.1266 -0.4345
   71MOL0     C 9459  10.741   1.755   5.515  0.3464 -0.9970  0.9791
   71MOL0     C 9460  10.866   1.667   5.482 -0.3829 -0.0975  0.0102
   71MOL0     C 9461  10.974   1.729   5.393  1.0403  0.0213  0.5861
   71MOL0     C 9462  10.931   1.770   5.246  0.3377  0.0829  0.5061
   71MOL0     C 9463  10.903   1.643   5.169 -0.7995  0.4324  0.5591
   71MOL0     C 9464  10.894   1.694   5.030 -0.1481  0.3833 -0.5824
   71MOL0     C 9465  10.834   1.599   4.933 -0.5306  0.2831 -0.2461
   71MOL0     C 9466  10.948   1.506   4.897  0.0341  1.6775  0.1785
   71MOL0     N 9467  10.890   1.374   4.863 -0.4462 -0.3148 -0.6388
   71MOL0     C 9468  10.827   1.339   4.744  0.4417  0.0662 -0.3986
   71MOL0     C 9469  10.789   1.211   4.768 -0.0666  0.8010 -0.8768
   71MOL0     C 9470  10.738   1.096   4.681  0.0591 -0.1057 -0.3607
   71MOL0     C 9471  10.604   1.141   4.628 -0.1606  0.5110 -0.4253
   71MOL0     C 9472  10.550   1.019   4.551 -0.1216  1.0341  0.9222
   71MOL0     C 9473  10.431   1.065   4.463  0.3358  0.6661 -0.9009
   71MOL0     O 9474  10.341   0.954   4.454  0.3785 -0.0099  0.1899
   71MOL0     C 9475  10.342   0.863   4.350  0.5927 -0.1379  1.3976
   71MOL0     C 9476  10.340   0.720   4.385 -0.0884  0.0129  0.0641
   71MOL0     C 9477  10.340   0.623   4.286 -0.1856 -0.2540  0.0705
   71MOL0     C 9478  10.342   0.662   4.150 -0.0735  0.3134  0.3628
   71MOL0     C 9479  10.339   0.553   4.036  0.1877  0.3170 -0.0455
   71MOL0     O 9480  10.335   0.605   3.904 -0.8228  0.7164 -0.8306
   71MOL0     C 9481  10.323   0.519   3.805  0.0653  0.9060  0.5491
   71MOL0     C 9482  10.191   0.504   3.751 -1.1015  0.7072 -0.8932
   71MOL0     C 9483  10.158   0.410   3.648  0.1300 -0.2818  0.6089
   71MOL0     C 9484  10.259   0.339   3.588  0.4699  0.3670 -0.8145
   71MOL0     O 9485  10.238   0.252   3.487 -0.2449  0.2182 -0.4594
   71MOL0     C 9486  10.117   0.271   3.407 -0.5641 -0.5247 -0.1534
   71MOL0     C 9487  10.119   0.174   3.293 -0.2534  0.3320  1.3326
   71MOL0     C 9488  10.021   0.194   3.176 -0.1919  0.2980 -0.6227
   71MOL0     C 9489  10.024   0.082   3.079 -0.9311 -0.4888 -0.9579
   71MOL0     C 9490   9.958   0.128   2.945 -0.5125 -0.8933  0.0047
   71MOL0     C 9491   9.970   0.009   2.848 -0.0799  0.2781 -0.0345
   71MOL0     C 9492   9.925   0.051   2.707 -0.6689 -0.6080 -0.0542
   71MOL0     C 9493   9.924  -0.058   2.616 -0.3609  0.4383 -0.0378
   71MOL0    Cl 9494  10.069  -0.157   2.622 -0.7688  0.2127 -0.0326
   71MOL0     C 9495  10.383   0.350   3.639  0.5642  0.0417  0.3713
   71MOL0     C 9496  10.423   0.445   3.736 -0.1448 -0.8065 -0.5975
   71MOL0     O 9497  10.314   0.437   4.063 -0.6477  0.5301 -1.3283
   71MOL0     C 9498  10.353   0.799   4.117 -0.7395  0.2037 -0.4795
   71MOL0     C 9499  10.360   0.888   4.215 -0.1867 -0.3944 -0.1037
   71MOL0     N 9500  10.816   1.173   4.905 -0.1210 -0.2825 -0.2941
   71MOL0     N 9501  10.884   1.273   4.957  0.8761  0.0415 -0.2293
   71MOL0     C 9502  10.416   1.735   5.379  0.7582 -0.1935 -0.7113
   71MOL0     C 9503  10.288   1.782   5.424 -0.3811  0.7506  0.6480
   71MOL0     C 9504   9.904   1.910   5.588  0.9271 -0.2299  0.4350
   71MOL0     C 9505   9.883   2.037   5.540  0.6493 -0.3965 -0.9023
   71MOL0     C 9506   9.768   2.117   5.556 -0.4643  0.7022  0.2006
   71MOL0     C 9507   9.656   2.057   5.603  0.3036  0.7166  0.5026
   71MOL0     O 9508   9.536   2.122   5.639  0.9916  0.5854 -0.1711
   71MOL0     C 9509   9.497   2.223   5.550 -0.2933  0.3731 -0.0345
   71MOL0     C 9510   9.489   2.169   5.409 -0.7559  0.6781  0.3552
   71MOL0     C 9511   9.371   2.070   5.374  0.2925 -0.0058  0.3973
   71MOL0     C 9512   9.347   1.937   5.470 -0.4202 -1.3910 -1.3439
   71MOL0     C 9513   9.234   1.857   5.417 -0.5262 -0.6392 -0.6176
   71MOL0     C 9514   9.149   1.779   5.382 -0.1624 -0.5428  0.0702
   71MOL0     C 9515   9.664   1.923   5.640 -0.1532 -0.1507 -0.2192
   71MOL0     C 9516   9.783   1.848   5.640 -0.2476  0.4623  0.0992
   71MOL0     C 9517   9.781   1.708   5.686  0.2145  0.3299  0.3650
   71MOL0     H 9518  10.378   2.065   5.587  2.1683 -1.2812  3.3621
   71MOL0     H 9519  10.596   1.971   5.545  1.3159 -0.8750 -1.3969
   71MOL0     H 9520  10.778   1.857   5.524 -1.9767  0.2995 -2.3352
   71MOL0     H 9521  10.695   1.719   5.607  0.6162 -2.5671  0.5246
   71MOL0     H 9522  10.837   1.564   5.458  1.0934 -0.3475 -0.8505
   71MOL0     H 9523  10.910   1.656   5.582  0.2122 -1.7038 -0.3925
   71MOL0     H 9524  11.066   1.669   5.395  1.4819  0.6621  3.5604
   71MOL0     H 9525  10.992   1.825   5.441 -1.0659  0.5484  0.4215
   71MOL0     H 9526  10.841   1.831   5.261  0.6797 -0.0060  3.7744
   71MOL0     H 9527  11.013   1.826   5.201 -0.5733  0.7721 -0.3345
   71MOL0     H 9528  10.992   1.581   5.184 -2.3732 -2.1381 -0.0926
   71MOL0     H 9529  10.810   1.589   5.190  0.8608 -2.5859  0.7598
   71MOL0     H 9530  10.839   1.789   5.031 -1.5680 -0.2256  4.0932
   71MOL0     H 9531  10.997   1.719   5.006  0.0191 -2.2060 -2.9581
   71MOL0     H 9532  10.798   1.655   4.846  1.6842  1.7800 -0.2610
   71MOL0     H 9533  10.752   1.539   4.975  0.1007  0.2198  0.9402
   71MOL0     H 9534  11.010   1.533   4.811  0.2547  0.1690 -0.1767
   71MOL0     H 9535  11.017   1.489   4.980  0.1383 -2.0991 -0.5034
   71MOL0     H 9536  10.814   1.391   4.650 -0.3963 -0.1199 -0.3955
   71MOL0     H 9537  10.811   1.080   4.601 -0.4070 -3.3666 -0.2514
   71MOL0     H 9538  10.739   0.997   4.728  0.0130 -1.1846 -2.5232
   71MOL0     H 9539  10.533   1.158   4.709  0.2750  4.1104 -0.6044
   71MOL0     H 9540  10.618   1.236   4.575  2.4786  1.3233  1.4910
   71MOL0     H 9541  10.524   0.935   4.615 -0.0594 -1.0611 -1.6553
   71MOL0     H 9542  10.619   0.981   4.476  0.4620  0.6343  1.6540
   71MOL0     H 9543  10.467   1.105   4.367  1.7891  2.7190  0.4117
   71MOL0     H 9544  10.381   1.147   4.516  0.6652 -1.2770  2.7585
   71MOL0     H 9545  10.335   0.700   4.492  0.5601  0.0515  0.1052
   71MOL0     H 9546  10.342   0.516   4.306  0.7279  0.1169  2.2237
   71MOL0     H 9547  10.105   0.550   3.799 -2.3343 -2.2031 -0.0470
   71MOL0     H 9548  10.052   0.402   3.626 -0.1506 -0.8598  2.0540
   71MOL0     H 9549  10.029   0.239   3.464  0.5472 -1.3665  1.1571
   71MOL0     H 9550  10.114   0.377   3.381  0.8594  0.4332  3.0956
   71MOL0     H 9551  10.217   0.191   3.249  0.1338 -0.2333  1.9514
   71MOL0     H 9552  10.120   0.077   3.345  0.7901 -0.1858  0.4041
   71MOL0     H 9553   9.922   0.199   3.222 -0.0709 -2.0267 -0.0006
   71MOL0     H 9554  10.045   0.286   3.121 -0.2950  0.5078 -0.3176
   71MOL0     H 9555   9.963  -0.004   3.109  0.9127 -1.3989  0.4021
   71MOL0     H 9556  10.128   0.052   3.058 -0.8154 -2.1591  1.5361
   71MOL0     H 9557  10.016   0.212   2.906 -1.9828  1.1945  2.0842
   71MOL0     H 9558   9.854   0.159   2.958  0.2394  2.0937 -0.4472
   71MOL0     H 9559  10.076  -0.016   2.831 -0.9188 -1.6624 -3.2829
   71MOL0     H 9560   9.910  -0.074   2.886 -0.1666  0.8152  1.0563
   71MOL0     H 9561  10.004   0.121   2.679  1.2660 -1.1997  3.3385
   71MOL0     H 9562   9.830   0.106   2.713 -0.1130  0.4137 -0.2825
   71MOL0     H 9563   9.846  -0.130   2.642 -0.3348  0.2596 -0.4414
   71MOL0     H 9564   9.913  -0.023   2.512  2.1373 -0.9281 -0.8359
   71MOL0     H 9565  10.457   0.290   3.586  0.3039 -1.1897  1.3702
   71MOL0     H 9566  10.527   0.460   3.763 -1.4553  4.7439  2.9693
   71MOL0     H 9567  10.360   0.835   4.014  2.1611 -2.7248 -1.5027
   71MOL0     H 9568  10.367   0.993   4.191  2.6844  0.1002  2.2524
   71MOL0     H 9569  10.412   1.640   5.327  0.9768 -0.2400 -0.6401
   71MOL0     H 9570  10.195   1.738   5.391  0.7805  0.2353 -2.1741
   71MOL0     H 9571   9.965   2.094   5.498 -0.0367  0.9160 -0.5532
   71MOL0     H 9572   9.780   2.223   5.535  0.6325  0.4425 -0.5410
   71MOL0     H 9573   9.572   2.302   5.552  2.5696 -2.0347  4.3250
   71MOL0     H 9574   9.399   2.257   5.586 -0.2802 -0.2766  0.6651
   71MOL0     H 9575   9.581   2.117   5.382 -1.2039  0.4614 -0.8414
   71MOL0     H 9576   9.477   2.251   5.338  0.5388  0.5884  0.0034
   71MOL0     H 9577   9.376   2.037   5.270 -3.3311  1.7323 -0.4980
   71MOL0     H 9578   9.273   2.116   5.392  0.0579 -0.6802  0.9104
   71MOL0     H 9579   9.441   1.881   5.470  0.4571  0.0098 -2.1757
   71MOL0     H 9580   9.318   1.965   5.571 -1.5648 -1.8190 -1.5378
   71MOL0     H 9581   9.087   1.705   5.336 -0.5638  0.1204 -0.4804
   71MOL0     H 9582   9.567   1.886   5.669 -0.9532  1.8884 -0.1525
   71MOL0     H 9583   9.820   1.647   5.605  0.9655 -0.9853  1.6557
   71MOL0     H 9584   9.851   1.696   5.769  0.9939  7.5315  1.3883
   71MOL0     H 9585   9.679   1.684   5.717  0.4684  0.6900  1.5302
   72MOL0     O 9586   1.719   3.662   1.213 -0.2151 -0.5225  0.7538
   72MOL0     C 9587   1.749   3.685   1.098 -0.6910 -0.6416  0.0152
   72MOL0     O 9588   1.877   3.694   1.057  0.2626 -0.6054  0.0294
   72MOL0     C 9589   1.978   3.660   1.143 -0.6145 -0.2403  0.3674
   72MOL0     C 9590   2.051   3.760   1.218  1.0098  0.4641  0.3373
   72MOL0     C 9591   2.165   3.719   1.299 -0.2923  0.3540 -0.5762
   72MOL0     C 9592   2.212   3.587   1.293  0.1108  0.0589 -0.1200
   72MOL0     O 9593   2.319   3.558   1.363 -0.2016 -0.4067  0.9287
   72MOL0     C 9594   2.450   3.562   1.290  0.3541  0.0587 -0.7800
   72MOL0     C 9595   2.565   3.604   1.380  0.6192  0.2810 -0.4021
   72MOL0     C 9596   2.683   3.650   1.293 -1.1252 -0.1125  0.2506
   72MOL0     C 9597   2.811   3.689   1.370 -0.2811  0.0320 -0.0535
   72MOL0     C 9598   2.943   3.679   1.297 -0.3276 -0.3344  0.1033
   72MOL0     C 9599   3.067   3.730   1.394  0.3966 -0.2349 -0.2505
   72MOL0     C 9600   3.205   3.706   1.336 -0.4606  0.5141  0.3359
   72MOL0     C 9601   3.316   3.800   1.373 -0.7194 -0.4569  0.7374
   72MOL0     N 9602   3.272   3.933   1.351  0.4157 -0.8890  0.2454
   72MOL0     C 9603   3.231   4.030   1.439  0.5833  0.4284  0.6543
   72MOL0     C 9604   3.176   4.132   1.364  0.9132  0.2683 -0.6512
   72MOL0     C 9605   3.115   4.255   1.413 -0.2159  0.4943 -1.0839
   72MOL0     C 9606   3.188   4.380   1.363  0.3468 -0.3396  0.5029
   72MOL0     C 9607   3.300   4.425   1.448 -0.1398 -0.1653 -0.6997
   72MOL0     C 9608   3.433   4.362   1.397  0.1840 -1.4217  0.5828
   72MOL0     O 9609   3.529   4.392   1.503 -0.4985  0.0605  0.7034
   72MOL0     C 9610   3.664   4.386   1.472 -0.9821  0.6443 -0.8961
   72MOL0     C 9611   3.749   4.427   1.579  0.4277 -0.5231  0.2660
   72MOL0     C 9612   3.880   4.437   1.555  0.1292  0.5093  0.3340
   72MOL0     C 9613   3.932   4.369   1.446 -1.5791 -0.0525  0.0616
   72MOL0     C 9614   4.077   4.365   1.437 -0.4989 -0.4475  0.6609
   72MOL0     O 9615   4.122   4.286   1.330  0.0923 -0.3168 -0.1265
   72MOL0     C 9616   4.255   4.284   1.299 -0.4188  0.2615  1.0886
   72MOL0     C 9617   4.351   4.211   1.362 -0.8357  0.2969 -0.4697
   72MOL0     C 9618   4.480   4.207   1.312  0.4026  0.3072 -0.4031
   72MOL0     C 9619   4.505   4.255   1.178  0.3732 -0.1788 -0.5157
   72MOL0     O 9620   4.630   4.231   1.132 -0.1548  0.3788  0.1753
   72MOL0     C 9621   4.649   4.230   0.989 -0.2608 -0.3077 -0.1909
   72MOL0     C 9622   4.754   4.117   0.962 -0.1298  0.0483 -0.2712
   72MOL0     C 9623   4.833   4.136   0.833  0.8118  0.9247 -0.6323
   72MOL0     C 9624   4.948   4.043   0.826 -0.8902  0.1800 -0.1262
   72MOL0     C 9625   5.074   4.087   0.909  0.7256  0.6179  0.1050
   72MOL0     C 9626   5.192   3.998   0.900 -0.4588  0.4954 -0.9556
   72MOL0     C 9627   5.172   3.874   0.990 -0.3210  0.6198 -0.3237
   72MOL0     C 9628   5.308   3.801   0.998  0.5608 -0.1486 -0.5366
   72MOL0    Cl 9629   5.322   3.717   0.853 -0.4826  0.9536  0.3346
   72MOL0     C 9630   4.408   4.325   1.114  0.7411 -1.3282  0.9116
   72MOL0     C 9631   4.286   4.339   1.174 -0.4162 -0.5702  0.2017
   72MOL0     O 9632   4.153   4.431   1.511  0.1949 -0.1567 -0.4344
   72MOL0     C 9633   3.854   4.311   1.345 -0.2942 -0.1383 -0.4497
   72MOL0     C 9634   3.725   4.319   1.359  0.5925  0.7546  0.8915
   72MOL0     N 9635   3.170   4.088   1.230  0.1767  0.8659  0.2544
   72MOL0     N 9636   3.230   3.973   1.225 -0.2304  0.6320  0.4976
   72MOL0     C 9637   2.147   3.498   1.211  0.1829 -0.1625 -0.5014
   72MOL0     C 9638   2.028   3.527   1.142 -0.3238 -0.1100  0.4461
   72MOL0     C 9639   1.641   3.718   1.005  0.7257 -0.2553 -1.0348
   72MOL0     C 9640   1.515   3.752   1.055  0.5712  0.8033  0.0770
   72MOL0     C 9641   1.420   3.807   0.971  0.3975  0.9496  0.6090
   72MOL0     C 9642   1.442   3.819   0.837 -0.4734  0.0812  1.0761
   72MOL0     O 9643   1.342   3.871   0.756 -0.1127  0.3116 -0.3844
   72MOL0     C 9644   1.357   3.892   0.617  0.5105  0.0088 -0.3074
   72MOL0     C 9645   1.236   3.917   0.541 -0.2270 -0.0273 -0.1688
   72MOL0     C 9646   1.168   3.780   0.495 -0.2495 -0.8480  0.1272
   72MOL0     C 9647   1.143   3.678   0.613 -0.1496 -0.0212  0.3266
   72MOL0     C 9648   1.056   3.571   0.562 -0.6215  0.0714  0.0919
   72MOL0     C 9649   0.996   3.482   0.510  0.3574 -0.6622  1.0278
   72MOL0     C 9650   1.568   3.780   0.784 -0.8445  0.2491 -0.5013
   72MOL0     C 9651   1.660   3.720   0.865 -0.6712  0.3080 -1.1266
   72MOL0     C 9652   1.788   3.679   0.800  0.3149 -0.5394 -0.3826
   72MOL0     H 9653   2.025   3.865   1.228  0.9098  0.4735  0.0013
   72MOL0     H 9654   2.223   3.789   1.358 -4.0899  0.8269  3.0956
   72MOL0     H 9655   2.481   3.462   1.258  1.8970  0.0939  0.4419
   72MOL0     H 9656   2.449   3.623   1.199 -0.5399  1.0454 -0.1315
   72MOL0     H 9657   2.592   3.518   1.441  1.8560  1.1627  0.3500
   72MOL0     H 9658   2.537   3.688   1.445 -2.3019 -2.0678  1.6680
   72MOL0     H 9659   2.652   3.740   1.240 -1.2843 -0.2644  0.0818
   72MOL0     H 9660   2.715   3.570   1.226 -0.1845  0.6371 -0.2188
   72MOL0     H 9661   2.790   3.789   1.408 -0.7221 -0.7977  1.9692
   72MOL0     H 9662   2.816   3.630   1.462  1.5572  1.0780  0.5698
   72MOL0     H 9663   2.951   3.575   1.266 -1.7981 -0.5880  0.4914
   72MOL0     H 9664   2.947   3.743   1.208  3.6202 -0.7468 -0.2103
   72MOL0     H 9665   3.051   3.838   1.405 -1.3566 -0.6262  1.5907
   72MOL0     H 9666   3.061   3.681   1.491 -3.1930 -1.1657 -0.8057
   72MOL0     H 9667   3.201   3.707   1.227  1.1164 -3.3327  0.1168
   72MOL0     H 9668   3.218   3.600   1.359 -3.4421 -0.4401 -1.7667
   72MOL0     H 9669   3.335   3.793   1.480  2.7355 -2.4135  0.1306
   72MOL0     H 9670   3.407   3.782   1.315 -0.1153  2.2381  0.7250
   72MOL0     H 9671   3.231   4.008   1.546  1.0524 -2.0058  0.2160
   72MOL0     H 9672   3.012   4.271   1.381  0.0433 -0.3087 -2.4006
   72MOL0     H 9673   3.122   4.246   1.522  3.0494 -2.5005 -1.3854
   72MOL0     H 9674   3.218   4.378   1.258 -3.1365  0.8089 -0.6793
   72MOL0     H 9675   3.125   4.469   1.374  1.6909  0.6348  0.5320
   72MOL0     H 9676   3.287   4.399   1.554 -1.3165 -2.0369 -1.2732
   72MOL0     H 9677   3.310   4.532   1.428 -1.4460 -0.4191 -2.9792
   72MOL0     H 9678   3.473   4.408   1.306 -1.7323  2.7217  1.6130
   72MOL0     H 9679   3.413   4.255   1.382  0.5723 -1.2943 -1.0291
   72MOL0     H 9680   3.715   4.472   1.672 -2.1937 -0.7914 -0.4769
   72MOL0     H 9681   3.948   4.490   1.621 -0.4953  0.8782  0.6977
   72MOL0     H 9682   4.344   4.173   1.464 -0.1498  0.6117 -0.3028
   72MOL0     H 9683   4.558   4.153   1.363  0.5945  1.2797  0.3833
   72MOL0     H 9684   4.555   4.212   0.936 -0.6839  1.4020 -0.0898
   72MOL0     H 9685   4.684   4.321   0.940  3.2429 -2.6411 -2.4531
   72MOL0     H 9686   4.818   4.108   1.050  2.5703 -2.9029 -2.2983
   72MOL0     H 9687   4.702   4.021   0.955 -0.4586 -0.0544  2.4953
   72MOL0     H 9688   4.764   4.121   0.749  1.5515  2.5384 -1.5675
   72MOL0     H 9689   4.870   4.239   0.830  1.0148  1.0136  2.2032
   72MOL0     H 9690   4.981   4.050   0.722 -3.1458  0.5506 -0.8547
   72MOL0     H 9691   4.913   3.943   0.853 -1.0958  0.8124  2.2122
   72MOL0     H 9692   5.048   4.116   1.011 -0.5745  1.7159 -0.5145
   72MOL0     H 9693   5.108   4.169   0.845  1.7373 -0.0508 -0.2296
   72MOL0     H 9694   5.210   3.968   0.796 -3.5949  2.1534 -2.0873
   72MOL0     H 9695   5.283   4.048   0.934 -1.2561  1.6992 -0.5490
   72MOL0     H 9696   5.083   3.823   0.954 -0.3441  0.3433  0.1243
   72MOL0     H 9697   5.134   3.903   1.088  1.4165  5.2761 -0.7364
   72MOL0     H 9698   5.383   3.879   1.010 -2.0148  2.1244  3.1476
   72MOL0     H 9699   5.307   3.737   1.086  3.8842  0.1014 -0.1909
   72MOL0     H 9700   4.412   4.375   1.018  3.4760  0.7613  1.9963
   72MOL0     H 9701   4.213   4.398   1.120  0.7263  1.4856  0.8222
   72MOL0     H 9702   3.885   4.233   1.276 -0.9699  0.6613 -1.6818
   72MOL0     H 9703   3.656   4.275   1.288 -1.0828  1.1288  2.2318
   72MOL0     H 9704   2.181   3.396   1.196  0.9292 -0.1934  1.1713
   72MOL0     H 9705   1.996   3.446   1.078  1.4100 -0.8007  0.4152
   72MOL0     H 9706   1.493   3.756   1.161 -1.5997  4.0901 -0.3719
   72MOL0     H 9707   1.328   3.834   1.020  1.6413  2.0471  2.4857
   72MOL0     H 9708   1.410   3.806   0.574  2.2913 -0.8982  3.3294
   72MOL0     H 9709   1.406   3.989   0.624 -1.7423  1.0715  2.5646
   72MOL0     H 9710   1.259   3.980   0.454 -1.5320  0.8425  0.0850
   72MOL0     H 9711   1.159   3.966   0.602  0.6877  2.8040 -1.1248
   72MOL0     H 9712   1.231   3.724   0.426 -2.8518 -2.9929 -0.7005
   72MOL0     H 9713   1.075   3.794   0.438  0.7001 -2.7928 -2.0471
   72MOL0     H 9714   1.238   3.638   0.647  1.1979  1.3494 -1.5557
   72MOL0     H 9715   1.090   3.726   0.696 -4.3948  0.5420 -2.4123
   72MOL0     H 9716   0.939   3.395   0.484  2.5415 -2.3997  1.7181
   72MOL0     H 9717   1.586   3.801   0.679 -3.7801  1.6321 -0.8293
   72MOL0     H 9718   1.836   3.771   0.765 -1.2281  0.9696  1.2436
   72MOL0     H 9719   1.860   3.614   0.850  0.2437 -1.4913 -1.4921
   72MOL0     H 9720   1.752   3.625   0.712 -1.9954  0.0169  0.1488
   73MOL0     O 9721   3.090   7.666   3.615  0.8193  0.0112 -0.6371
   73MOL0     C 9722   3.057   7.737   3.711 -0.9509  0.1254  0.9446
   73MOL0     O 9723   2.995   7.846   3.699 -0.3458 -0.0329  0.0742
   73MOL0     C 9724   2.992   7.903   3.577 -0.7006  0.2404 -0.4267
   73MOL0     C 9725   3.017   8.034   3.582  0.1607  0.4561 -0.4793
   73MOL0     C 9726   3.025   8.120   3.463  1.0951  0.2128 -1.1231
   73MOL0     C 9727   3.006   8.055   3.338 -0.0607  0.2312 -0.5046
   73MOL0     O 9728   3.011   8.114   3.211 -0.1700 -0.6336 -0.5903
   73MOL0     C 9729   2.966   8.253   3.214  0.8495  0.8381  0.3433
   73MOL0     C 9730   2.931   8.301   3.078 -0.8860 -0.1817  0.1785
   73MOL0     C 9731   3.054   8.325   2.986 -0.5146 -0.4691  0.7467
   73MOL0     C 9732   3.002   8.369   2.844 -0.5510 -0.8218  0.2203
   73MOL0     C 9733   3.067   8.505   2.818  0.1260  0.5064  0.1847
   73MOL0     C 9734   3.050   8.556   2.672 -0.1489 -0.1112 -0.1737
   73MOL0     C 9735   2.898   8.591   2.653 -0.2845 -0.8482  0.1453
   73MOL0     C 9736   2.890   8.662   2.510  0.5740  0.3881  0.1549
   73MOL0     N 9737   2.974   8.783   2.493  0.2269  0.1617 -0.3934
   73MOL0     C 9738   2.973   8.901   2.561  0.9343  0.1547  0.2484
   73MOL0     C 9739   3.064   8.982   2.497  0.1218  0.4836 -0.6315
   73MOL0     C 9740   3.102   9.123   2.524 -0.1996 -0.6596  0.3136
   73MOL0     C 9741   3.234   9.189   2.460  0.6122 -0.0559  0.1335
   73MOL0     C 9742   3.290   9.302   2.542 -0.3513 -0.6875  0.7988
   73MOL0     C 9743   3.405   9.368   2.461 -0.2455  0.2295 -0.6094
   73MOL0     O 9744   3.510   9.276   2.461 -0.1365  0.6433 -0.2992
   73MOL0     C 9745   3.606   9.287   2.356 -0.1516 -0.8580 -0.2847
   73MOL0     C 9746   3.638   9.408   2.293  0.4207 -0.2680  0.0294
   73MOL0     C 9747   3.715   9.417   2.174 -0.4013 -0.4525  0.1372
   73MOL0     C 9748   3.776   9.294   2.140  0.1165 -0.3957 -0.4530
   73MOL0     C 9749   3.882   9.288   2.043  0.5234 -0.7678  0.0649
   73MOL0     O 9750   3.915   9.410   2.002 -1.4865 -0.4478 -0.1524
   73MOL0     C 9751   4.001   9.435   1.906  0.8635  0.1542 -0.6683
   73MOL0     C 9752   4.066   9.555   1.904 -0.1649  0.3261  0.0796
   73MOL0     C 9753   4.144   9.602   1.800 -0.4325 -0.1671 -0.4451
   73MOL0     C 9754   4.168   9.519   1.697  0.4228  0.1907  0.0229
   73MOL0     O 9755   4.234   9.570   1.588  0.4600  0.2716  0.0589
   73MOL0     C 9756   4.274   9.473   1.484  0.5122  0.0035 -0.4937
   73MOL0     C 9757   4.157   9.457   1.383  1.1478  0.1589 -0.3118
   73MOL0     C 9758   4.112   9.592   1.304  0.0810 -0.7450 -0.6294
   73MOL0     C 9759   3.974   9.574   1.251  0.1276  0.2757  0.3391
   73MOL0     C 9760   3.872   9.594   1.365  0.2011 -0.6760 -0.1880
   73MOL0     C 9761   3.721   9.578   1.316 -0.1612 -0.0743  0.3225
   73MOL0     C 9762   3.616   9.568   1.425  1.3151 -0.8661  0.0206
   73MOL0     C 9763   3.465   9.581   1.377 -0.8321 -0.6386  0.0961
   73MOL0    Cl 9764   3.407   9.453   1.271 -0.3371 -0.0802  0.0131
   73MOL0     C 9765   4.121   9.382   1.708  0.9157  0.2742  0.1304
   73MOL0     C 9766   4.040   9.344   1.812  0.0103  0.1438 -0.2460
   73MOL0     O 9767   3.935   9.185   2.016  0.3006 -0.3581  0.9160
   73MOL0     C 9768   3.749   9.174   2.213  0.4743 -0.4815 -1.5926
   73MOL0     C 9769   3.657   9.166   2.317 -0.3896 -0.3727 -0.5348
   73MOL0     N 9770   3.107   8.908   2.385 -0.3790  0.0842  0.0255
   73MOL0     N 9771   3.050   8.795   2.387 -1.0874 -1.0658  0.2811
   73MOL0     C 9772   2.964   7.919   3.347  0.5669 -0.3784  0.1149
   73MOL0     C 9773   2.957   7.845   3.459  0.1204  1.1120  0.8224
   73MOL0     C 9774   3.064   7.680   3.850  0.5255  0.3783 -0.8446
   73MOL0     C 9775   3.064   7.777   3.951 -0.3056  0.1965  0.2331
   73MOL0     C 9776   3.049   7.747   4.083  1.2272 -0.1222 -0.0273
   73MOL0     C 9777   3.047   7.616   4.123 -0.1297  0.2994 -0.5659
   73MOL0     O 9778   3.030   7.578   4.252 -0.1201 -0.5895 -0.0795
   73MOL0     C 9779   2.947   7.466   4.284  0.2222 -0.1867  0.2725
   73MOL0     C 9780   2.855   7.507   4.395 -0.6441  1.0478 -0.2531
   73MOL0     C 9781   2.788   7.391   4.479 -0.1954  0.4215  0.5209
   73MOL0     C 9782   2.641   7.353   4.447  0.6746  0.2912  0.0975
   73MOL0     C 9783   2.607   7.235   4.525 -0.6103 -0.4936 -0.3424
   73MOL0     C 9784   2.582   7.135   4.588  0.1674 -0.6108 -0.2943
   73MOL0     C 9785   3.048   7.517   4.023  0.6607 -0.1132  0.6293
   73MOL0     C 9786   3.054   7.541   3.893 -0.3642  0.1229  0.5507
   73MOL0     C 9787   3.062   7.411   3.807  0.5297  0.0033 -0.0224
   73MOL0     H 9788   3.024   8.079   3.680 -1.0657 -0.0512 -0.1430
   73MOL0     H 9789   3.034   8.227   3.477 -0.9317  0.4250 -1.0658
   73MOL0     H 9790   2.873   8.259   3.271  1.8792 -1.6622  2.5323
   73MOL0     H 9791   3.037   8.318   3.265  2.1766 -1.8611  2.1942
   73MOL0     H 9792   2.879   8.396   3.091 -0.0573  0.2203  0.6101
   73MOL0     H 9793   2.865   8.230   3.027  2.0805 -0.1848 -4.2531
   73MOL0     H 9794   3.124   8.242   2.977  1.2725  0.2709  5.0060
   73MOL0     H 9795   3.105   8.411   3.032  0.5107 -0.0838 -1.0436
   73MOL0     H 9796   3.030   8.294   2.769 -1.6040 -1.1796  0.1693
   73MOL0     H 9797   2.893   8.381   2.850 -0.8107 -2.8573  0.2085
   73MOL0     H 9798   3.028   8.594   2.867 -1.3044 -0.0010 -0.0006
   73MOL0     H 9799   3.176   8.501   2.828  0.0166  0.3761  1.4077
   73MOL0     H 9800   3.110   8.645   2.651 -0.4172 -0.2547 -1.7170
   73MOL0     H 9801   3.084   8.484   2.597  0.5896  3.1925 -3.3127
   73MOL0     H 9802   2.846   8.647   2.731  0.3010  2.4957 -1.6495
   73MOL0     H 9803   2.840   8.498   2.652 -0.6030 -0.7530 -3.5933
   73MOL0     H 9804   2.906   8.587   2.432 -1.8396  0.3771 -0.4086
   73MOL0     H 9805   2.784   8.688   2.505  0.7097  0.7574 -1.2650
   73MOL0     H 9806   2.910   8.917   2.648 -4.7014 -0.7424 -3.1804
   73MOL0     H 9807   3.016   9.185   2.496  1.8149  2.4477  0.5520
   73MOL0     H 9808   3.104   9.128   2.633 -2.3580 -0.5081  0.3953
   73MOL0     H 9809   3.299   9.102   2.446 -1.6093 -1.4035 -3.3235
   73MOL0     H 9810   3.212   9.233   2.362 -0.8789 -0.7507  0.1267
   73MOL0     H 9811   3.310   9.266   2.643  2.2450  0.7543  0.8955
   73MOL0     H 9812   3.213   9.379   2.553 -0.3945 -0.5206 -0.5123
   73MOL0     H 9813   3.430   9.466   2.504 -1.7803 -0.2827  1.6012
   73MOL0     H 9814   3.368   9.376   2.359 -1.5352 -1.0427 -0.2775
   73MOL0     H 9815   3.589   9.498   2.329  0.1474 -0.8669  1.1868
   73MOL0     H 9816   3.737   9.505   2.114  0.6169 -0.9223 -0.2014
   73MOL0     H 9817   4.056   9.622   1.989 -0.6381 -0.0386  0.3103
   73MOL0     H 9818   4.177   9.705   1.799 -3.1521  0.7949 -0.2547
   73MOL0     H 9819   4.358   9.516   1.428 -0.1704 -1.3711 -2.7021
   73MOL0     H 9820   4.302   9.377   1.528 -3.6388 -0.1482  2.3371
   73MOL0     H 9821   4.181   9.398   1.294  0.7185  1.8052 -1.5775
   73MOL0     H 9822   4.073   9.404   1.429 -1.5458  2.5717 -2.0619
   73MOL0     H 9823   4.117   9.680   1.369  2.2560 -0.0682 -1.5978
   73MOL0     H 9824   4.180   9.605   1.219  0.8068 -2.5122 -0.3631
   73MOL0     H 9825   3.968   9.474   1.206  0.0884  1.0375 -1.4200
   73MOL0     H 9826   3.948   9.657   1.185 -0.0891 -1.8967 -2.4801
   73MOL0     H 9827   3.893   9.688   1.417  0.5154  0.1038 -1.6741
   73MOL0     H 9828   3.888   9.511   1.435  1.6570  0.1959  0.5710
   73MOL0     H 9829   3.699   9.656   1.243 -0.6482 -3.3978 -3.4368
   73MOL0     H 9830   3.727   9.481   1.265  0.7081 -1.2377  2.4844
   73MOL0     H 9831   3.631   9.657   1.487  2.7605  0.4722 -2.1298
   73MOL0     H 9832   3.636   9.475   1.479  0.7502 -0.6528  0.6140
   73MOL0     H 9833   3.398   9.569   1.463  1.2514 -2.6804  1.5474
   73MOL0     H 9834   3.452   9.678   1.327  0.6597 -1.0648 -1.1901
   73MOL0     H 9835   4.150   9.307   1.636  1.4871  0.4977  0.1195
   73MOL0     H 9836   4.003   9.242   1.805 -0.1155  0.0632  1.4103
   73MOL0     H 9837   3.796   9.078   2.191 -0.1765 -1.4372  0.8744
   73MOL0     H 9838   3.634   9.079   2.378  0.5007  1.4318  2.5632
   73MOL0     H 9839   2.941   7.865   3.256  0.7691 -0.4555  0.1093
   73MOL0     H 9840   2.928   7.741   3.458  0.8805  0.8253  2.9110
   73MOL0     H 9841   3.069   7.882   3.924  0.7413  0.4702  1.4210
   73MOL0     H 9842   3.040   7.828   4.155 -0.0517  1.1814 -1.5582
   73MOL0     H 9843   3.009   7.380   4.309  0.6770 -0.4489 -1.6400
   73MOL0     H 9844   2.881   7.427   4.207 -0.4042 -0.6339  1.0220
   73MOL0     H 9845   2.778   7.575   4.358  0.1664  1.5102 -1.1361
   73MOL0     H 9846   2.910   7.573   4.463  2.0116 -0.3375 -0.9088
   73MOL0     H 9847   2.789   7.423   4.584  1.1421 -0.9980  0.9946
   73MOL0     H 9848   2.847   7.298   4.473 -2.2995 -1.0445  1.3964
   73MOL0     H 9849   2.577   7.437   4.474  2.1116  0.3767  3.7983
   73MOL0     H 9850   2.629   7.323   4.342  1.3382 -3.5788  0.9636
   73MOL0     H 9851   2.555   7.053   4.652 -0.2655 -0.7779 -0.6915
   73MOL0     H 9852   3.057   7.416   4.063  2.0098  1.5839  5.4514
   73MOL0     H 9853   3.138   7.345   3.852  0.2687 -0.7430 -0.6424
   73MOL0     H 9854   2.962   7.368   3.801  0.3288  0.6898 -3.0740
   73MOL0     H 9855   3.091   7.418   3.702 -2.8342 -0.0722 -1.0673
   74MOL0     O 9856   3.053   4.075   2.444 -0.3316  0.6592  0.0509
   74MOL0     C 9857   3.031   3.996   2.350  0.1079  0.0630 -0.5997
   74MOL0     O 9858   2.935   3.899   2.347 -0.3029  0.8954  0.8106
   74MOL0     C 9859   2.885   3.845   2.455 -0.1887 -1.1105  0.1337
   74MOL0     C 9860   2.746   3.818   2.440 -0.3573 -0.4731  0.1862
   74MOL0     C 9861   2.677   3.753   2.541 -0.0481  1.0735 -0.0686
   74MOL0     C 9862   2.746   3.722   2.661  0.5621  0.4629  0.3272
   74MOL0     O 9863   2.687   3.669   2.779 -0.7436 -0.1828 -0.1157
   74MOL0     C 9864   2.562   3.713   2.827 -0.3638  0.8250  0.2740
   74MOL0     C 9865   2.546   3.700   2.981 -0.5663  0.0940 -0.0346
   74MOL0     C 9866   2.653   3.787   3.057  0.7464  0.1333  0.8126
   74MOL0     C 9867   2.646   3.781   3.212  0.2482  0.3565  0.9013
   74MOL0     C 9868   2.535   3.874   3.259  0.3012 -0.3051  0.7909
   74MOL0     C 9869   2.512   3.855   3.405 -0.5693 -0.3288 -0.3903
   74MOL0     C 9870   2.389   3.941   3.435 -0.7784  0.4785 -0.9247
   74MOL0     C 9871   2.263   3.864   3.377  0.1195 -0.4309  0.2373
   74MOL0     N 9872   2.140   3.923   3.440 -0.8498  0.3128 -0.2046
   74MOL0     C 9873   2.038   3.850   3.499  0.4482  0.8282  0.2325
   74MOL0     C 9874   1.968   3.936   3.580  0.2325  0.3874 -0.9439
   74MOL0     C 9875   1.862   3.907   3.682 -0.2152 -0.4825  0.3192
   74MOL0     C 9876   1.773   4.027   3.707 -0.1951 -1.1099  0.1109
   74MOL0     C 9877   1.621   4.003   3.723 -0.1330  0.5194 -0.5393
   74MOL0     C 9878   1.586   3.900   3.826  0.1775 -0.3498 -0.6164
   74MOL0     O 9879   1.453   3.849   3.805 -0.1729  0.2463  0.1753
   74MOL0     C 9880   1.432   3.722   3.852  0.1024  0.5048 -0.0866
   74MOL0     C 9881   1.307   3.663   3.835 -0.0439 -0.4017  0.0654
   74MOL0     C 9882   1.264   3.549   3.892  0.2179  0.2463  0.5600
   74MOL0     C 9883   1.351   3.469   3.959  0.3995 -0.5270 -1.0162
   74MOL0     C 9884   1.299   3.347   4.016  0.9346  0.6584  0.0611
   74MOL0     O 9885   1.168   3.311   3.989  0.7054  0.4696 -0.7962
   74MOL0     C 9886   1.108   3.206   4.049 -0.4526  0.4916 -0.9784
   74MOL0     C 9887   1.098   3.187   4.187  0.6661  0.2485 -0.5044
   74MOL0     C 9888   1.027   3.076   4.235  0.3164 -0.3651  0.1968
   74MOL0     C 9889   0.974   2.984   4.150  0.1900 -0.2603 -0.1091
   74MOL0     O 9890   0.909   2.878   4.210 -0.3383  0.1344  0.7341
   74MOL0     C 9891   0.808   2.806   4.136 -0.2666 -0.8506 -0.8902
   74MOL0     C 9892   0.729   2.726   4.237  0.8236  0.7239 -0.5150
   74MOL0     C 9893   0.675   2.819   4.347  0.6193 -0.7062  0.3756
   74MOL0     C 9894   0.593   2.725   4.448 -0.2914 -0.6755  0.4326
   74MOL0     C 9895   0.540   2.809   4.562  0.0377 -0.6735  0.4433
   74MOL0     C 9896   0.587   2.756   4.698 -0.1830 -1.1619  0.1110
   74MOL0     C 9897   0.734   2.749   4.724 -0.2837  0.0108 -0.9650
   74MOL0     C 9898   0.754   2.728   4.880 -0.4675 -0.9480 -0.0944
   74MOL0    Cl 9899   0.650   2.609   4.955 -0.0613 -0.6016 -0.3631
   74MOL0     C 9900   0.994   2.994   4.017  0.1779  0.3349 -0.0737
   74MOL0     C 9901   1.065   3.101   3.968  0.0119 -0.0402  0.1042
   74MOL0     O 9902   1.373   3.273   4.085 -0.1721 -0.6573  0.5592
   74MOL0     C 9903   1.483   3.507   3.978  1.3794  0.2844  0.5537
   74MOL0     C 9904   1.520   3.634   3.930 -0.2225 -0.4706 -0.0476
   74MOL0     N 9905   2.020   4.063   3.565 -0.8676 -0.4830  0.7270
   74MOL0     N 9906   2.114   4.054   3.480 -0.1855  0.0317  0.6129
   74MOL0     C 9907   2.876   3.750   2.674  0.0642 -0.3104  0.5211
   74MOL0     C 9908   2.954   3.802   2.568 -0.6318  0.2254  0.7554
   74MOL0     C 9909   3.119   4.029   2.227 -0.3761 -0.1352  0.0817
   74MOL0     C 9910   3.234   4.101   2.235 -1.2537 -0.8233 -0.3248
   74MOL0     C 9911   3.322   4.118   2.129 -0.1298  0.5096 -0.5898
   74MOL0     C 9912   3.297   4.070   2.002  0.0080  0.6713 -0.8438
   74MOL0     O 9913   3.389   4.084   1.897  1.0375 -0.0047  0.7014
   74MOL0     C 9914   3.500   4.184   1.903  0.4283  0.4282 -0.5051
   74MOL0     C 9915   3.630   4.102   1.934 -0.2091  0.2346  0.0708
   74MOL0     C 9916   3.665   3.993   1.836 -0.3089  0.9791  0.9692
   74MOL0     C 9917   3.811   3.947   1.851 -0.4827  0.1421 -0.4548
   74MOL0     C 9918   3.839   3.895   1.986  0.1929 -0.3045 -0.1437
   74MOL0     C 9919   3.875   3.873   2.099  0.2337 -0.3213 -0.7272
   74MOL0     C 9920   3.180   4.001   1.992  0.5849 -0.0114 -0.4502
   74MOL0     C 9921   3.090   3.975   2.101 -1.0501  0.5934 -0.7106
   74MOL0     C 9922   2.965   3.910   2.063  0.7578 -0.2637 -0.6100
   74MOL0     H 9923   2.692   3.847   2.350  0.1679 -1.3848 -0.4402
   74MOL0     H 9924   2.572   3.729   2.530 -0.2824  1.6709  0.7572
   74MOL0     H 9925   2.530   3.812   2.792  2.1034  0.7795 -2.4590
   74MOL0     H 9926   2.493   3.636   2.789 -0.4519 -0.0287  2.0874
   74MOL0     H 9927   2.573   3.598   3.008 -3.3243 -0.6972  0.0537
   74MOL0     H 9928   2.439   3.716   2.997 -0.7915  0.4776 -1.7699
   74MOL0     H 9929   2.632   3.891   3.034  2.3881  0.1252 -1.0061
   74MOL0     H 9930   2.750   3.764   3.012 -0.4026 -0.8410 -1.2676
   74MOL0     H 9931   2.624   3.675   3.232  0.0316  0.0284 -0.9383
   74MOL0     H 9932   2.745   3.791   3.259  1.1876 -1.2389 -0.6123
   74MOL0     H 9933   2.561   3.976   3.229 -3.8961  0.1937 -1.9301
   74MOL0     H 9934   2.454   3.851   3.189  1.2644  0.5288 -0.6568
   74MOL0     H 9935   2.487   3.753   3.437  0.0520 -0.4158 -0.1750
   74MOL0     H 9936   2.599   3.887   3.463 -1.0183  1.4016 -0.5957
   74MOL0     H 9937   2.413   4.038   3.390 -0.7125  0.6528 -0.5176
   74MOL0     H 9938   2.391   3.950   3.544  1.6700  4.5936 -1.1007
   74MOL0     H 9939   2.266   3.882   3.269  0.5742  0.2013  0.3441
   74MOL0     H 9940   2.273   3.756   3.387  3.2712 -0.0621  2.6280
   74MOL0     H 9941   2.024   3.742   3.489  0.5795  0.6408  1.7547
   74MOL0     H 9942   1.804   3.830   3.630 -0.4258  1.0921 -1.8942
   74MOL0     H 9943   1.901   3.876   3.780 -2.7157  0.4730  1.7016
   74MOL0     H 9944   1.813   4.077   3.796 -2.5552  1.2516 -0.0384
   74MOL0     H 9945   1.782   4.100   3.626 -0.6361 -2.9365 -1.6776
   74MOL0     H 9946   1.579   3.973   3.627  1.7593  0.3449 -1.3518
   74MOL0     H 9947   1.568   4.096   3.744  0.5768  1.0078 -0.9153
   74MOL0     H 9948   1.596   3.957   3.919 -1.9032 -0.0070 -0.5510
   74MOL0     H 9949   1.663   3.823   3.832 -0.2286 -0.7520 -0.4664
   74MOL0     H 9950   1.245   3.729   3.775  1.9818  1.2294 -0.3356
   74MOL0     H 9951   1.156   3.536   3.881 -0.2054  1.2790  2.9707
   74MOL0     H 9952   1.151   3.261   4.245  1.2037 -2.3806  2.6055
   74MOL0     H 9953   1.013   3.054   4.341  1.0670 -3.1919 -0.2116
   74MOL0     H 9954   0.736   2.876   4.091 -1.0155  0.3671  1.9900
   74MOL0     H 9955   0.838   2.739   4.054  0.0006 -1.0375 -0.6406
   74MOL0     H 9956   0.646   2.678   4.184  1.9007 -2.5598  0.5276
   74MOL0     H 9957   0.785   2.643   4.283 -1.3636  0.4385  1.7970
   74MOL0     H 9958   0.746   2.879   4.404 -1.8753  1.0364  1.8327
   74MOL0     H 9959   0.607   2.894   4.304  5.0123  2.7056 -1.4131
   74MOL0     H 9960   0.670   2.656   4.483  2.9198  2.4289 -0.0094
   74MOL0     H 9961   0.513   2.667   4.401 -0.5174 -0.4352  0.5179
   74MOL0     H 9962   0.435   2.838   4.556  0.1988  0.7687  2.9966
   74MOL0     H 9963   0.587   2.906   4.544  1.5191 -1.5032 -0.3815
   74MOL0     H 9964   0.547   2.835   4.762 -0.1173 -0.8937 -0.1832
   74MOL0     H 9965   0.536   2.661   4.717 -0.1482 -1.1639  0.1956
   74MOL0     H 9966   0.786   2.842   4.696  1.4261 -1.0915 -1.6635
   74MOL0     H 9967   0.791   2.675   4.667  2.4485  1.2579 -0.0419
   74MOL0     H 9968   0.858   2.698   4.894  0.2743  0.2622 -2.4719
   74MOL0     H 9969   0.743   2.825   4.930  3.1760  0.1437 -1.1002
   74MOL0     H 9970   0.947   2.924   3.950 -0.8075  2.2467 -1.4951
   74MOL0     H 9971   1.098   3.114   3.866  1.1059 -2.7370  0.0387
   74MOL0     H 9972   1.555   3.448   4.033  0.8708  0.6478  1.6442
   74MOL0     H 9973   1.626   3.656   3.929 -0.0686 -1.0878 -2.6928
   74MOL0     H 9974   2.919   3.722   2.769 -1.5338  0.0067  1.3603
   74MOL0     H 9975   3.062   3.806   2.579  0.0584 -4.3181 -2.0789
   74MOL0     H 9976   3.272   4.149   2.325  2.4549 -0.3673 -1.9342
   74MOL0     H 9977   3.409   4.178   2.154 -0.9521  1.8508 -0.8735
   74MOL0     H 9978   3.475   4.248   1.988 -3.8091 -2.1210  0.4600
   74MOL0     H 9979   3.518   4.246   1.814 -2.1645  1.5736 -0.3339
   74MOL0     H 9980   3.623   4.059   2.034  0.8054  1.0292  0.4947
   74MOL0     H 9981   3.719   4.165   1.939  0.5488 -0.9009  1.6577
   74MOL0     H 9982   3.644   4.032   1.736  1.0909  1.2152  0.7384
   74MOL0     H 9983   3.597   3.908   1.836  1.1966 -0.4146 -2.4296
   74MOL0     H 9984   3.835   3.859   1.790  1.7013  0.7345 -0.5347
   74MOL0     H 9985   3.889   4.020   1.827  2.3839 -2.4896  0.1956
   74MOL0     H 9986   3.899   3.876   2.203  3.5508  1.1159 -1.3903
   74MOL0     H 9987   3.166   3.950   1.897  0.4837  0.4317 -0.6747
   74MOL0     H 9988   2.965   3.813   2.114  3.3689 -1.4494 -2.6098
   74MOL0     H 9989   2.897   3.984   2.106  2.3754  0.0128  1.6182
   74MOL0     H 9990   2.948   3.898   1.955  0.6765  1.3563 -0.7992
   75MOL0     O 9991   7.402   7.249   5.120  0.3610 -0.2937  0.6004
   75MOL0     C 9992   7.475   7.190   5.199 -0.3615 -0.2328 -0.1755
   75MOL0     O 9993   7.577   7.098   5.167  0.7580 -0.2394 -0.1019
   75MOL0     C 9994   7.595   7.067   5.033  0.0735  0.2077 -0.1845
   75MOL0     C 9995   7.636   7.164   4.936 -0.2222 -0.4338  0.2511
   75MOL0     C 9996   7.664   7.122   4.803  0.3584 -0.1026  0.4076
   75MOL0     C 9997   7.642   6.989   4.759  0.3773  0.8348 -0.4212
   75MOL0     O 9998   7.679   6.962   4.625  0.7398  0.3110 -0.0780
   75MOL0     C 9999   7.619   6.845   4.552  0.0824  0.3183 -0.3315
   75MOL0     C10000   7.712   6.776   4.452 -0.0541  1.0283 -0.1204
   75MOL0     C10001   7.851   6.745   4.520 -0.5619  1.1247  0.6017
   75MOL0     C10002   7.838   6.611   4.595 -0.0612 -0.5558  0.7356
   75MOL0     C10003   7.928   6.608   4.715  0.1103 -1.1549 -0.4405
   75MOL0     C10004   8.080   6.602   4.679  0.0776  0.8173 -0.6898
   75MOL0     C10005   8.157   6.640   4.812 -0.4930 -0.0108 -0.2620
   75MOL0     C10006   8.153   6.786   4.850 -0.0215 -0.1416  1.1624
   75MOL0     N10007   8.283   6.861   4.808 -0.2526  0.4638  0.3818
   75MOL0     C10008   8.389   6.866   4.896  0.5453  0.0876 -0.1120
   75MOL0     C10009   8.448   6.986   4.865 -0.4704 -0.7275 -0.4740
   75MOL0     C10010   8.582   7.037   4.930 -0.1902 -0.0872 -0.1556
   75MOL0     C10011   8.555   7.113   5.059  0.2099 -0.9107 -0.5439
   75MOL0     C10012   8.693   7.187   5.113  0.1195 -0.0895  1.1589
   75MOL0     C10013   8.778   7.127   5.224 -0.2488  0.3296  0.2016
   75MOL0     O10014   8.918   7.130   5.213 -0.9618  0.3385  0.5912
   75MOL0     C10015   8.991   7.220   5.285  0.5188  0.2389 -0.0165
   75MOL0     C10016   8.992   7.357   5.255  0.1174  0.3616 -0.1805
   75MOL0     C10017   9.075   7.443   5.322  0.9789  0.1182 -0.9894
   75MOL0     C10018   9.156   7.405   5.423 -0.5416  0.3859  0.3306
   75MOL0     C10019   9.240   7.499   5.493  0.4941 -0.6131  0.7960
   75MOL0     O10020   9.247   7.624   5.427 -0.4019  0.0377  0.0596
   75MOL0     C10021   9.326   7.718   5.487 -0.9557  0.2548 -0.3959
   75MOL0     C10022   9.463   7.706   5.491 -0.7515 -0.1681  0.1097
   75MOL0     C10023   9.534   7.810   5.559 -0.5317 -0.1708 -0.8331
   75MOL0     C10024   9.472   7.918   5.614 -0.5280 -0.1029 -0.2278
   75MOL0     O10025   9.533   8.023   5.683 -0.3557 -0.1832 -0.0187
   75MOL0     C10026   9.512   8.154   5.628 -0.1688  0.8024  0.1293
   75MOL0     C10027   9.642   8.238   5.646 -0.0833 -0.5122  0.2648
   75MOL0     C10028   9.700   8.251   5.790  0.1434 -0.4722 -0.8308
   75MOL0     C10029   9.610   8.349   5.884  0.8001  0.3163  0.0467
   75MOL0     C10030   9.678   8.381   6.018  0.2687  0.2362  0.2966
   75MOL0     C10031   9.581   8.410   6.131 -0.1218  0.1960 -0.2155
   75MOL0     C10032   9.649   8.427   6.266 -0.0403 -0.7265  0.1478
   75MOL0     C10033   9.723   8.559   6.271  0.9055  0.6676 -0.7329
   75MOL0    Cl10034   9.832   8.558   6.403 -0.2492 -0.3755 -0.3840
   75MOL0     C10035   9.333   7.925   5.602  0.4633 -0.1748 -1.4003
   75MOL0     C10036   9.256   7.828   5.537 -0.5526 -1.3642  0.2373
   75MOL0     O10037   9.302   7.465   5.587 -0.3913 -0.7894 -0.0907
   75MOL0     C10038   9.162   7.260   5.452  0.4048 -0.2465 -0.4525
   75MOL0     C10039   9.087   7.176   5.372  0.6737 -0.3144  0.2196
   75MOL0     N10040   8.390   7.044   4.749 -0.3469 -0.6421  0.1475
   75MOL0     N10041   8.299   6.965   4.715  0.3051 -0.3042 -0.2148
   75MOL0     C10042   7.605   6.895   4.859 -0.1889 -0.3066 -0.3524
   75MOL0     C10043   7.582   6.936   4.988  0.8667  0.3707  0.4666
   75MOL0     C10044   7.456   7.224   5.343 -0.1863  0.8143  0.2241
   75MOL0     C10045   7.399   7.352   5.369 -0.3799  0.2216 -0.2178
   75MOL0     C10046   7.374   7.385   5.501  0.5926  0.5923  0.7504
   75MOL0     C10047   7.380   7.286   5.608  0.9202 -0.2379  0.1647
   75MOL0     O10048   7.350   7.303   5.741  0.2821 -0.2350  0.6390
   75MOL0     C10049   7.317   7.437   5.784 -0.4479 -1.2298  0.2595
   75MOL0     C10050   7.169   7.448   5.800  0.9203 -0.0310 -0.3766
   75MOL0     C10051   7.112   7.569   5.869  0.2882  0.0078  0.2985
   75MOL0     C10052   6.958   7.547   5.906  0.1779  0.1708 -0.3142
   75MOL0     C10053   6.937   7.450   6.015 -0.7728 -0.6239  0.5036
   75MOL0     C10054   6.935   7.374   6.110 -0.2785 -0.0722 -0.1415
   75MOL0     C10055   7.443   7.163   5.580 -0.0630  0.1551 -0.3759
   75MOL0     C10056   7.474   7.133   5.449 -0.0433  0.1011 -0.4283
   75MOL0     C10057   7.541   6.994   5.436 -0.2416  0.1573 -0.1292
   75MOL0     H10058   7.648   7.261   4.983 -3.1253  0.6321 -0.9825
   75MOL0     H10059   7.708   7.193   4.733 -0.0182 -0.2801 -0.0169
   75MOL0     H10060   7.596   6.774   4.631  1.3763  2.6046  2.2694
   75MOL0     H10061   7.530   6.876   4.497  0.0982  0.2658 -0.3869
   75MOL0     H10062   7.725   6.850   4.373 -0.4523  2.8782  1.4660
   75MOL0     H10063   7.659   6.681   4.438 -0.3937  0.7120  2.7303
   75MOL0     H10064   7.885   6.831   4.578  0.5871  1.6386 -0.7732
   75MOL0     H10065   7.922   6.728   4.439 -0.2598 -1.2399  1.2991
   75MOL0     H10066   7.740   6.617   4.643  0.0471 -0.4597  0.9476
   75MOL0     H10067   7.848   6.526   4.527 -1.4560 -2.1691  2.4454
   75MOL0     H10068   7.905   6.694   4.779  1.7428 -1.7815  1.0486
   75MOL0     H10069   7.894   6.523   4.775 -1.9912  0.6960  1.1669
   75MOL0     H10070   8.100   6.502   4.641 -0.2450 -2.4197  6.1963
   75MOL0     H10071   8.083   6.677   4.599  0.4244  2.5046  0.8300
   75MOL0     H10072   8.264   6.619   4.798 -0.4353 -0.4337  0.7587
   75MOL0     H10073   8.119   6.570   4.887 -1.6954 -0.3595 -1.1593
   75MOL0     H10074   8.065   6.841   4.813 -0.4244  0.2358  2.5978
   75MOL0     H10075   8.156   6.789   4.959  0.9048  2.2818  1.1460
   75MOL0     H10076   8.412   6.805   4.983  0.7265  1.5153  0.8807
   75MOL0     H10077   8.654   6.955   4.942 -0.0330  0.2138  1.0534
   75MOL0     H10078   8.615   7.115   4.860  0.6694 -0.6781 -0.4233
   75MOL0     H10079   8.482   7.190   5.033  2.3726  0.8426 -1.8053
   75MOL0     H10080   8.511   7.058   5.142  1.8709  0.9688  1.7159
   75MOL0     H10081   8.655   7.285   5.140  2.5509  2.1818 -2.6464
   75MOL0     H10082   8.750   7.224   5.027 -2.5134 -0.6783 -0.9988
   75MOL0     H10083   8.750   7.022   5.238  0.4548  0.0253 -0.5908
   75MOL0     H10084   8.750   7.182   5.315 -1.3761 -0.5110  0.3927
   75MOL0     H10085   8.918   7.387   5.182  0.9001  0.6219 -0.8714
   75MOL0     H10086   9.078   7.544   5.281 -1.0724  0.8036  0.3840
   75MOL0     H10087   9.514   7.614   5.461 -0.2625 -1.0260  3.2260
   75MOL0     H10088   9.640   7.803   5.581 -0.5339  1.0743 -0.3713
   75MOL0     H10089   9.491   8.145   5.522  0.2177  2.8435 -0.1675
   75MOL0     H10090   9.421   8.192   5.676 -0.4017 -2.6548  2.8628
   75MOL0     H10091   9.721   8.202   5.578 -0.1179 -0.6750  0.3107
   75MOL0     H10092   9.622   8.340   5.611  2.2513 -0.2152 -0.4246
   75MOL0     H10093   9.722   8.161   5.848  1.9114  0.0113 -0.6796
   75MOL0     H10094   9.794   8.306   5.777  0.1826  0.0274  1.2294
   75MOL0     H10095   9.509   8.307   5.892  0.4060  0.9782 -1.1098
   75MOL0     H10096   9.600   8.442   5.827  1.3994 -0.4782 -1.4031
   75MOL0     H10097   9.746   8.462   5.992  0.6860 -1.6050 -5.7390
   75MOL0     H10098   9.740   8.299   6.055  0.4649  0.6072  0.8065
   75MOL0     H10099   9.517   8.495   6.106  2.3725  1.5298 -2.7011
   75MOL0     H10100   9.531   8.313   6.131  3.6965 -1.9823 -0.7527
   75MOL0     H10101   9.706   8.336   6.289 -1.0005 -0.7530  2.7867
   75MOL0     H10102   9.574   8.423   6.346  1.0811 -0.5957  1.2386
   75MOL0     H10103   9.784   8.563   6.180  1.0436 -1.8226 -0.8035
   75MOL0     H10104   9.654   8.644   6.268 -2.0498 -1.5509 -0.3583
   75MOL0     H10105   9.280   8.009   5.646  0.0738  0.6658 -3.3669
   75MOL0     H10106   9.149   7.847   5.544 -0.3073 -0.3300  2.1522
   75MOL0     H10107   9.224   7.225   5.535 -3.4668  0.8428  3.2805
   75MOL0     H10108   9.087   7.075   5.410 -2.4816  0.4401  2.6547
   75MOL0     H10109   7.599   6.790   4.831  1.5518 -1.8160  4.0798
   75MOL0     H10110   7.556   6.857   5.058 -0.4864 -0.4303 -0.8746
   75MOL0     H10111   7.388   7.427   5.291 -1.3938  1.8426  1.3988
   75MOL0     H10112   7.323   7.480   5.511  1.5531  1.1169  0.7932
   75MOL0     H10113   7.371   7.519   5.736 -0.0464 -0.3460  2.1415
   75MOL0     H10114   7.353   7.431   5.887 -0.6364  2.1066  0.6057
   75MOL0     H10115   7.136   7.361   5.858 -1.6949  1.7813  1.1088
   75MOL0     H10116   7.129   7.450   5.698  0.5146 -1.1533 -0.2525
   75MOL0     H10117   7.096   7.655   5.803 -1.3926  2.1975  3.3194
   75MOL0     H10118   7.166   7.599   5.958 -2.3175 -1.0328  2.3556
   75MOL0     H10119   6.916   7.647   5.924 -1.4453 -0.8520  2.0711
   75MOL0     H10120   6.913   7.513   5.813  2.0253  0.0869 -1.2094
   75MOL0     H10121   6.932   7.307   6.194 -3.0506  2.1412  1.7180
   75MOL0     H10122   7.464   7.101   5.667 -2.3129 -0.7255 -0.3893
   75MOL0     H10123   7.566   6.936   5.525  1.9284 -1.4853 -1.6912
   75MOL0     H10124   7.482   6.930   5.370  1.5578 -0.3098 -1.3563
   75MOL0     H10125   7.638   7.014   5.389  1.0446 -3.6472  0.5759
   76MOL0     O10126  11.075   9.275   9.323  0.2300  0.1096 -0.1751
   76MOL0     C10127  11.125   9.171   9.283 -0.4139  0.3722 -0.9431
   76MOL0     O10128  11.098   9.109   9.166 -0.0172 -0.8843 -0.0078
   76MOL0     C10129  11.006   9.159   9.080 -0.7012  0.1629  0.0900
   76MOL0     C10130  11.057   9.167   8.949  0.6027 -0.0631  0.4844
   76MOL0     C10131  10.979   9.211   8.842 -0.1951 -0.9248 -0.3196
   76MOL0     C10132  10.840   9.243   8.871 -0.7394 -0.1057 -0.1582
   76MOL0     O10133  10.771   9.298   8.765  0.4058  0.4212 -0.3692
   76MOL0     C10134  10.662   9.390   8.785  0.6013  0.2383  0.3181
   76MOL0     C10135  10.715   9.516   8.866  0.0236  0.4130  0.2685
   76MOL0     C10136  10.621   9.617   8.886  0.0147  0.1986  0.4843
   76MOL0     C10137  10.618   9.710   8.760  0.1646  0.0346 -0.1587
   76MOL0     C10138  10.700   9.835   8.746  0.3086 -0.1891 -0.4071
   76MOL0     C10139  10.652   9.950   8.831  0.3936  0.1225 -0.4884
   76MOL0     C10140  10.748  10.069   8.812 -1.2496  0.6656 -0.7023
   76MOL0     C10141  10.700  10.159   8.692 -0.7877  0.6463 -0.7565
   76MOL0     N10142  10.573  10.229   8.723 -0.6101  0.1014 -0.1711
   76MOL0     C10143  10.497  10.268   8.617 -0.6900  0.2893  0.4487
   76MOL0     C10144  10.398  10.328   8.684 -0.8962  0.3317  0.2838
   76MOL0     C10145  10.292  10.409   8.608 -0.3521  0.5152 -0.2298
   76MOL0     C10146  10.156  10.406   8.680  0.9657  0.8912  0.5584
   76MOL0     C10147  10.062  10.522   8.625  0.6767  0.1864 -0.2314
   76MOL0     C10148   9.999  10.497   8.477 -0.5710 -0.3066 -1.1384
   76MOL0     O10149   9.947  10.362   8.471  0.1889 -1.1665  0.2486
   76MOL0     C10150   9.936  10.324   8.343 -0.6556  0.2122  0.2625
   76MOL0     C10151  10.032  10.240   8.276  0.8770 -1.0829  0.5587
   76MOL0     C10152  10.013  10.215   8.136  0.8733 -0.3892 -0.5618
   76MOL0     C10153   9.894  10.250   8.077  0.5835 -0.6710 -0.3286
   76MOL0     C10154   9.867  10.221   7.936  0.1630 -0.0577  0.7148
   76MOL0     O10155   9.977  10.161   7.873  0.9340  0.0547  0.9104
   76MOL0     C10156   9.978  10.125   7.740  0.0117 -0.4264  0.5567
   76MOL0     C10157  10.092  10.037   7.715 -0.4189  0.0697 -0.0611
   76MOL0     C10158  10.086   9.968   7.586 -0.1883 -0.4580  0.9274
   76MOL0     C10159  10.008  10.000   7.484  0.9206 -0.4594 -0.9233
   76MOL0     O10160  10.011   9.951   7.361 -0.8183 -0.8939  0.2480
   76MOL0     C10161  10.111   9.855   7.317  0.8433 -0.5579  0.2608
   76MOL0     C10162  10.128   9.855   7.162  0.1906 -0.0769  0.1773
   76MOL0     C10163  10.173   9.724   7.097  0.5539 -0.9379 -0.8874
   76MOL0     C10164  10.308   9.677   7.150 -0.3971 -0.2451 -0.2584
   76MOL0     C10165  10.363   9.549   7.098  0.7955  0.6057 -0.8924
   76MOL0     C10166  10.492   9.509   7.166  0.9949 -0.1570 -0.0282
   76MOL0     C10167  10.513   9.352   7.161 -0.5619 -0.2846 -0.3118
   76MOL0     C10168  10.501   9.284   7.026  0.2329 -0.4095 -0.5003
   76MOL0    Cl10169  10.646   9.302   6.921 -0.4747  0.3217 -0.3327
   76MOL0     C10170   9.913  10.097   7.507  0.3472 -0.7208  0.2296
   76MOL0     C10171   9.897  10.159   7.637 -0.1419  0.1106  0.4989
   76MOL0     O10172   9.757  10.239   7.887 -0.2384 -0.3172  0.5716
   76MOL0     C10173   9.799  10.317   8.151  0.4779 -0.8423 -1.1135
   76MOL0     C10174   9.823  10.362   8.280  0.0215 -0.3776  0.6354
   76MOL0     N10175  10.411  10.317   8.827 -0.5377  0.2064  0.4994
   76MOL0     N10176  10.521  10.257   8.846 -0.3789  0.5850  0.0446
   76MOL0     C10177  10.796   9.242   9.003  1.0162  0.5371 -0.8371
   76MOL0     C10178  10.881   9.209   9.110 -0.4301 -0.2021  0.1143
   76MOL0     C10179  11.212   9.099   9.387 -0.1472 -0.5046  1.0616
   76MOL0     C10180  11.240   8.967   9.358 -1.1080  0.5254  0.4847
   76MOL0     C10181  11.297   8.874   9.441 -0.2420 -0.0164 -0.2700
   76MOL0     C10182  11.344   8.922   9.575  0.4317 -0.4390 -0.0714
   76MOL0     O10183  11.422   8.851   9.666 -0.4918 -0.0786 -0.2039
   76MOL0     C10184  11.428   8.709   9.646 -0.9282  0.1007  0.3108
   76MOL0     C10185  11.421   8.626   9.776 -0.0248  0.6834 -0.3231
   76MOL0     C10186  11.552   8.635   9.854 -0.2614  0.3571  0.4151
   76MOL0     C10187  11.527   8.700   9.986  0.2207  0.3190 -0.5096
   76MOL0     C10188  11.509   8.851   9.975  0.2258  0.3969  0.1370
   76MOL0     C10189  11.511   8.967   9.938  0.2561  0.0577 -0.7557
   76MOL0     C10190  11.326   9.058   9.605  0.5801  0.5203  0.0284
   76MOL0     C10191  11.255   9.141   9.515  1.1830 -0.2903  0.1783
   76MOL0     C10192  11.225   9.281   9.570  0.7220  0.2212 -1.0734
   76MOL0     H10193  11.157   9.135   8.921 -0.7534 -1.8889 -2.9345
   76MOL0     H10194  11.034   9.239   8.753  0.3420  4.2428  1.3515
   76MOL0     H10195  10.633   9.417   8.683  0.5057  0.3353  0.3701
   76MOL0     H10196  10.575   9.335   8.822  0.0930  1.1543  0.5031
   76MOL0     H10197  10.804   9.559   8.819 -0.6037 -0.8141 -2.2372
   76MOL0     H10198  10.726   9.473   8.966 -2.1277  0.6157  0.6356
   76MOL0     H10199  10.650   9.694   8.959  1.5234  1.5254 -1.4064
   76MOL0     H10200  10.520   9.579   8.902  0.0249 -2.0094 -3.5462
   76MOL0     H10201  10.637   9.643   8.675 -2.9400 -0.3337 -0.6913
   76MOL0     H10202  10.514   9.745   8.756 -0.6137 -1.8817  1.3895
   76MOL0     H10203  10.804   9.812   8.771  0.7926  1.7892 -0.3745
   76MOL0     H10204  10.701   9.865   8.641  0.6882  0.1651 -0.3080
   76MOL0     H10205  10.549   9.978   8.809  0.3920  0.9018  0.4530
   76MOL0     H10206  10.669   9.923   8.936 -2.0726  0.5276  0.0719
   76MOL0     H10207  10.849  10.026   8.811 -0.7140  1.7497  1.2527
   76MOL0     H10208  10.755  10.137   8.898 -0.2686 -0.9445  0.5430
   76MOL0     H10209  10.777  10.224   8.649  0.6410 -0.2937  0.2934
   76MOL0     H10210  10.691  10.093   8.606  1.6477 -2.7010  1.3229
   76MOL0     H10211  10.514  10.276   8.510 -2.5007 -0.3627  0.0818
   76MOL0     H10212  10.309  10.517   8.614 -0.3750  0.7925 -3.4539
   76MOL0     H10213  10.285  10.385   8.501  0.1974  1.0174 -0.3845
   76MOL0     H10214  10.098  10.314   8.669  0.7060  1.3065 -2.3524
   76MOL0     H10215  10.167  10.421   8.788 -0.0272 -2.2622  1.1884
   76MOL0     H10216  10.123  10.612   8.613  0.9676  0.0686  0.3164
   76MOL0     H10217   9.982  10.545   8.696  0.6366  2.8379 -1.0417
   76MOL0     H10218  10.080  10.514   8.405  0.3404  0.5337  0.0481
   76MOL0     H10219   9.915  10.559   8.448 -1.3592  1.2917  3.6414
   76MOL0     H10220  10.134  10.228   8.312  1.8389  0.8196 -1.3422
   76MOL0     H10221  10.083  10.159   8.075 -1.8697 -1.9089 -2.5213
   76MOL0     H10222  10.139  10.011   7.809 -3.0382 -1.3956  0.9587
   76MOL0     H10223  10.158   9.886   7.592  1.0464  0.5717  0.6121
   76MOL0     H10224  10.207   9.874   7.367  0.5017  0.9296  0.3975
   76MOL0     H10225  10.073   9.759   7.353 -0.4337  0.0099  0.4731
   76MOL0     H10226  10.032   9.888   7.122 -1.2702 -2.4108  1.5411
   76MOL0     H10227  10.201   9.935   7.147 -0.6155  0.8906  1.1895
   76MOL0     H10228  10.094   9.653   7.122  0.8937 -0.2226  2.8997
   76MOL0     H10229  10.191   9.722   6.990  3.3203 -2.4835 -0.4759
   76MOL0     H10230  10.298   9.665   7.258 -0.8140  2.8491  0.1553
   76MOL0     H10231  10.380   9.759   7.138  0.5442 -0.8154  1.2517
   76MOL0     H10232  10.367   9.562   6.989 -0.9827 -0.4977 -1.1241
   76MOL0     H10233  10.296   9.464   7.114  0.3606  0.7127 -2.0096
   76MOL0     H10234  10.575   9.570   7.131  2.2496 -1.2154  0.9833
   76MOL0     H10235  10.479   9.527   7.273  1.7775 -1.7858  0.3691
   76MOL0     H10236  10.450   9.298   7.232  2.6596 -1.6883  1.7476
   76MOL0     H10237  10.615   9.339   7.199 -1.1393 -0.3487  1.2921
   76MOL0     H10238  10.495   9.176   7.038 -1.1539 -0.6405 -2.7412
   76MOL0     H10239  10.419   9.315   6.961 -0.9778  3.0375  2.3660
   76MOL0     H10240   9.850  10.139   7.428 -0.4652 -1.5836  0.4054
   76MOL0     H10241   9.821  10.234   7.654  0.9462  1.7982 -1.6363
   76MOL0     H10242   9.699  10.330   8.111  0.7637  1.0964 -1.2710
   76MOL0     H10243   9.760  10.444   8.315  0.1974 -0.9960  2.5341
   76MOL0     H10244  10.695   9.266   9.036  0.3836 -0.1817 -2.1682
   76MOL0     H10245  10.841   9.208   9.210  1.2089  3.2601  0.9698
   76MOL0     H10246  11.214   8.917   9.265  0.9911 -0.1639  0.2197
   76MOL0     H10247  11.283   8.773   9.404  0.0885 -0.6640  1.2907
   76MOL0     H10248  11.517   8.678   9.590  0.1311  1.4767  1.1570
   76MOL0     H10249  11.350   8.669   9.580 -0.2498  2.0260 -1.7892
   76MOL0     H10250  11.414   8.520   9.747  2.5701  0.3043  0.2067
   76MOL0     H10251  11.335   8.646   9.840 -0.6191 -0.3715 -0.7599
   76MOL0     H10252  11.613   8.697   9.788 -3.0360  3.6202  0.5759
   76MOL0     H10253  11.588   8.534   9.872  1.4000  1.1263  1.7905
   76MOL0     H10254  11.437   8.651  10.026 -1.4180  2.1169 -1.7888
   76MOL0     H10255  11.612   8.676  10.049 -0.1266 -0.5803 -0.3715
   76MOL0     H10256  11.510   9.064   9.890  0.7639  0.2003 -0.4848
   76MOL0     H10257  11.366   9.084   9.703 -1.0747 -1.8782  1.4500
   76MOL0     H10258  11.263   9.343   9.488  4.0678  0.9183  0.8200
   76MOL0     H10259  11.120   9.312   9.572  1.0037  1.1857  0.0749
   76MOL0     H10260  11.269   9.305   9.667  0.4141  0.6376 -1.0324
   77MOL0     O10261   1.597   3.044   9.856  0.0307 -0.3799  0.1796
   77MOL0     C10262   1.609   2.975   9.957 -0.1726  0.2006  0.2483
   77MOL0     O10263   1.640   2.840   9.957 -0.1335 -1.1170 -0.0318
   77MOL0     C10264   1.661   2.774   9.836 -0.4227  0.4039 -1.0902
   77MOL0     C10265   1.552   2.741   9.762 -0.0092  0.2392  1.1993
   77MOL0     C10266   1.565   2.663   9.641  0.3864 -0.0620 -0.4107
   77MOL0     C10267   1.688   2.624   9.595 -0.4972  0.0791 -0.2772
   77MOL0     O10268   1.698   2.554   9.478 -0.7436  0.1805 -0.2878
   77MOL0     C10269   1.814   2.567   9.395 -0.3126 -0.5857  0.5082
   77MOL0     C10270   1.839   2.706   9.322 -1.1912 -0.7205  0.1562
   77MOL0     C10271   1.708   2.772   9.271 -0.1749 -0.2483  0.0561
   77MOL0     C10272   1.738   2.874   9.171 -1.2226  0.2157 -0.4170
   77MOL0     C10273   1.626   2.975   9.142  1.0388 -1.1293 -0.9898
   77MOL0     C10274   1.657   3.078   9.032 -0.6641 -0.0398  0.3444
   77MOL0     C10275   1.562   3.200   9.033 -0.2291  0.2809  0.5450
   77MOL0     C10276   1.417   3.173   8.992  0.5715  1.4805  0.1496
   77MOL0     N10277   1.399   3.101   8.858 -0.4715 -0.5476 -0.5789
   77MOL0     C10278   1.388   2.961   8.831  0.0472  0.0715 -1.1579
   77MOL0     C10279   1.361   2.955   8.697 -0.1513 -0.4067 -0.0822
   77MOL0     C10280   1.340   2.833   8.617  0.5030  0.0126 -0.2672
   77MOL0     C10281   1.298   2.709   8.703 -0.8887  0.7814 -0.0975
   77MOL0     C10282   1.250   2.594   8.610  0.6495 -0.1018 -0.5572
   77MOL0     C10283   1.338   2.551   8.495 -1.0206  0.5067 -0.4466
   77MOL0     O10284   1.460   2.483   8.538 -0.3272  0.3244  0.2980
   77MOL0     C10285   1.500   2.380   8.445  0.2748  0.5407 -0.1609
   77MOL0     C10286   1.516   2.391   8.309 -0.7462  0.3210 -0.1377
   77MOL0     C10287   1.559   2.276   8.233  0.5507 -0.3611  0.4001
   77MOL0     C10288   1.562   2.145   8.294  0.2829  0.0908  0.1996
   77MOL0     C10289   1.600   2.032   8.205 -0.3528 -0.6374  0.4138
   77MOL0     O10290   1.622   2.067   8.073 -0.0766 -0.2443 -0.4730
   77MOL0     C10291   1.659   1.972   7.979 -0.2997  0.1477 -0.8600
   77MOL0     C10292   1.609   1.991   7.853  0.0160  0.1792  0.6573
   77MOL0     C10293   1.658   1.924   7.749 -0.8624  0.6550  0.7983
   77MOL0     C10294   1.766   1.828   7.761 -0.1961  0.2337 -0.2995
   77MOL0     O10295   1.803   1.760   7.650 -0.7175  0.0661 -0.5003
   77MOL0     C10296   1.942   1.748   7.616  0.6119 -0.2228  0.3863
   77MOL0     C10297   1.968   1.779   7.465  0.1943  0.3809 -1.3120
   77MOL0     C10298   1.873   1.712   7.366  0.1669  0.2775  0.2343
   77MOL0     C10299   1.891   1.552   7.360  0.1017 -0.3061  0.2597
   77MOL0     C10300   1.797   1.493   7.260 -0.6400  0.1117 -0.2215
   77MOL0     C10301   1.823   1.341   7.263  0.1425  0.8710  0.1597
   77MOL0     C10302   1.727   1.260   7.168  0.4616  0.8510 -0.4582
   77MOL0     C10303   1.716   1.113   7.199 -0.1237  0.0391  0.5289
   77MOL0    Cl10304   1.660   1.078   7.369  0.3483 -0.6325 -0.0982
   77MOL0     C10305   1.813   1.804   7.885  0.2958 -0.1413 -0.9526
   77MOL0     C10306   1.773   1.884   7.997  1.1690  1.0716  0.2731
   77MOL0     O10307   1.616   1.916   8.248  0.3978 -1.1779  0.0424
   77MOL0     C10308   1.540   2.140   8.432 -0.0709 -0.6216 -0.6412
   77MOL0     C10309   1.518   2.258   8.506 -0.1851 -0.1232 -0.5428
   77MOL0     N10310   1.369   3.082   8.639 -0.4970  0.8360  0.3433
   77MOL0     N10311   1.384   3.157   8.734  0.0989 -0.6991 -0.1175
   77MOL0     C10312   1.802   2.664   9.664 -0.1416  0.3734 -0.2188
   77MOL0     C10313   1.787   2.743   9.782 -0.4648  0.0131 -1.2400
   77MOL0     C10314   1.613   3.041  10.098 -1.2601 -0.7560  1.1006
   77MOL0     C10315   1.600   2.968  10.216  0.5721 -0.0070 -0.3752
   77MOL0     C10316   1.591   3.023  10.344 -0.1382  0.6545 -0.7389
   77MOL0     C10317   1.602   3.164  10.366  0.1007 -0.6849 -0.1047
   77MOL0     O10318   1.585   3.229  10.489 -0.3032 -1.0598  0.2737
   77MOL0     C10319   1.525   3.153  10.596 -0.5634 -0.7961  0.1145
   77MOL0     C10320   1.384   3.117  10.551  0.5965  0.4291  0.1294
   77MOL0     C10321   1.263   3.181  10.624 -0.2161  0.7047  1.3804
   77MOL0     C10322   1.194   3.084  10.713 -0.2234  0.4557  0.7121
   77MOL0     C10323   1.145   2.959  10.661 -0.1994 -0.2334 -0.2124
   77MOL0     C10324   1.081   2.859  10.627  0.1395 -0.5315 -0.3735
   77MOL0     C10325   1.620   3.240  10.261 -0.0712  0.7886 -0.1615
   77MOL0     C10326   1.640   3.184  10.124 -0.1344 -0.0206 -0.2871
   77MOL0     C10327   1.662   3.282  10.011  0.0143 -0.8635 -0.0363
   77MOL0     H10328   1.451   2.769   9.792 -0.6702  3.1423 -2.7921
   77MOL0     H10329   1.477   2.642   9.580 -0.6941  1.2862  0.6236
   77MOL0     H10330   1.904   2.529   9.444 -0.0501  1.2769  1.5680
   77MOL0     H10331   1.782   2.496   9.318 -1.1421  1.2963 -0.9672
   77MOL0     H10332   1.918   2.700   9.246  1.1426  0.0326  2.3849
   77MOL0     H10333   1.887   2.778   9.389 -0.9322  0.4397 -1.2295
   77MOL0     H10334   1.669   2.811   9.365  1.0534  0.9640  0.0869
   77MOL0     H10335   1.642   2.696   9.228  0.0151  0.5876 -1.8211
   77MOL0     H10336   1.817   2.936   9.213  2.8753 -3.5869 -1.7894
   77MOL0     H10337   1.777   2.835   9.077  0.2023  1.9310 -0.5864
   77MOL0     H10338   1.537   2.919   9.113 -0.2534  1.1705 -1.7261
   77MOL0     H10339   1.601   3.029   9.234 -6.6026  0.7337 -3.4317
   77MOL0     H10340   1.755   3.118   9.059 -0.0730 -1.2961  0.1362
   77MOL0     H10341   1.678   3.033   8.935  1.2323 -2.1431  1.6359
   77MOL0     H10342   1.614   3.260   8.959  2.1937  0.0857  1.9584
   77MOL0     H10343   1.564   3.239   9.135 -3.2711 -2.3427  1.7863
   77MOL0     H10344   1.358   3.110   9.058  2.2697 -0.9250 -0.4897
   77MOL0     H10345   1.377   3.274   8.986  1.5171  1.8557 -0.0387
   77MOL0     H10346   1.389   2.881   8.904 -2.8426  1.7627  0.9525
   77MOL0     H10347   1.265   2.854   8.541  0.6478  2.1094  0.1192
   77MOL0     H10348   1.435   2.821   8.564 -0.4648  1.3564 -2.4197
   77MOL0     H10349   1.383   2.672   8.760 -1.4276  1.7476  1.3944
   77MOL0     H10350   1.223   2.730   8.780 -0.7262 -2.0176  0.9554
   77MOL0     H10351   1.163   2.635   8.558  3.4101  2.4190 -3.5654
   77MOL0     H10352   1.216   2.508   8.669  0.1231 -0.3150 -1.1624
   77MOL0     H10353   1.362   2.638   8.432 -1.0105 -1.5952 -3.5526
   77MOL0     H10354   1.278   2.480   8.436  0.0364 -4.1218  3.4445
   77MOL0     H10355   1.515   2.487   8.258  1.3821 -0.6276 -2.1126
   77MOL0     H10356   1.573   2.280   8.125  2.8834 -0.2971  0.6552
   77MOL0     H10357   1.525   2.059   7.848 -0.7500 -0.8156 -0.3656
   77MOL0     H10358   1.625   1.951   7.649  2.2807 -1.1536 -0.9002
   77MOL0     H10359   2.010   1.807   7.677  0.4244  1.2711 -0.7827
   77MOL0     H10360   1.962   1.642   7.635 -2.1584 -2.0710 -4.8562
   77MOL0     H10361   1.964   1.887   7.448  1.0552  0.5584 -0.4596
   77MOL0     H10362   2.072   1.749   7.451  1.8824  3.5715  2.4761
   77MOL0     H10363   1.773   1.732   7.405  0.4459 -0.1266  1.1887
   77MOL0     H10364   1.882   1.759   7.267 -1.6115  0.5103  0.1632
   77MOL0     H10365   1.869   1.498   7.452 -0.9368 -2.9552 -1.4437
   77MOL0     H10366   1.994   1.537   7.325  1.0989  4.8532  0.1638
   77MOL0     H10367   1.813   1.529   7.158  1.5748 -1.8282 -0.6494
   77MOL0     H10368   1.695   1.517   7.289 -1.0444  3.0576 -3.4169
   77MOL0     H10369   1.925   1.304   7.250 -0.6243 -1.8802  1.1496
   77MOL0     H10370   1.803   1.318   7.368 -2.1051  3.1736  0.3146
   77MOL0     H10371   1.756   1.284   7.065  2.5207 -2.5223 -0.8489
   77MOL0     H10372   1.625   1.299   7.167 -0.2365 -0.7461 -3.1606
   77MOL0     H10373   1.637   1.071   7.137 -0.8915  1.2489  0.6379
   77MOL0     H10374   1.805   1.054   7.177 -0.3381 -0.2342  0.3838
   77MOL0     H10375   1.897   1.735   7.887  0.3395 -0.0771 -0.1912
   77MOL0     H10376   1.807   1.845   8.092  0.2576  2.3892  1.1734
   77MOL0     H10377   1.563   2.044   8.478 -0.6166 -1.1167 -1.3784
   77MOL0     H10378   1.509   2.264   8.614  0.9855 -3.4904 -0.1571
   77MOL0     H10379   1.903   2.632   9.640 -1.6330 -2.5686 -3.5052
   77MOL0     H10380   1.870   2.767   9.847  0.1179 -3.7167 -0.3763
   77MOL0     H10381   1.598   2.860  10.203  0.3392 -0.2828  1.6754
   77MOL0     H10382   1.587   2.956  10.430  1.8113 -2.1927 -2.6905
   77MOL0     H10383   1.523   3.221  10.681  3.1244  2.7949 -2.3065
   77MOL0     H10384   1.584   3.064  10.623 -0.6550 -1.2656 -1.1518
   77MOL0     H10385   1.387   3.008  10.557 -1.0337  0.2596 -1.3986
   77MOL0     H10386   1.376   3.143  10.445  1.7422  0.6046  0.0827
   77MOL0     H10387   1.204   3.232  10.547  2.3657 -0.4559 -1.5757
   77MOL0     H10388   1.289   3.260  10.695  3.1765  2.2354 -1.2837
   77MOL0     H10389   1.261   3.064  10.797 -0.2110  1.5478  0.9895
   77MOL0     H10390   1.105   3.133  10.754 -0.0853  0.7699  0.6457
   77MOL0     H10391   1.020   2.773  10.609 -1.5166  0.6337 -0.4785
   77MOL0     H10392   1.621   3.347  10.275  0.8444  0.9479 -1.2334
   77MOL0     H10393   1.654   3.385  10.047  0.7300 -0.7697 -0.1268
   77MOL0     H10394   1.763   3.263   9.974 -0.3793 -0.2084 -1.5241
   77MOL0     H10395   1.590   3.270   9.930  1.0625  1.7952 -1.4882
   78MOL0     O10396   5.565  10.267   7.003  0.0987 -0.5617 -0.8850
   78MOL0     C10397   5.645  10.260   7.095  1.2965 -0.0524 -0.2836
   78MOL0     O10398   5.757  10.187   7.090 -0.0212 -0.6614 -0.1688
   78MOL0     C10399   5.769  10.073   7.019 -1.0760 -0.0587 -0.5653
   78MOL0     C10400   5.890  10.038   6.958  0.2157  0.5503  0.4067
   78MOL0     C10401   5.910   9.899   6.922 -0.3517 -0.0526  0.4098
   78MOL0     C10402   5.802   9.804   6.907  0.3817  0.1542 -0.0859
   78MOL0     O10403   5.839   9.673   6.884  0.1132  0.3911  0.4295
   78MOL0     C10404   5.731   9.593   6.833  0.7858 -0.5302 -0.6213
   78MOL0     C10405   5.795   9.462   6.793 -0.3671 -0.3576  0.3092
   78MOL0     C10406   5.689   9.362   6.750  0.1144  0.5768  0.3164
   78MOL0     C10407   5.738   9.216   6.727  0.5626 -0.3519 -0.5892
   78MOL0     C10408   5.661   9.149   6.611 -0.0326  0.9155  0.0602
   78MOL0     C10409   5.717   9.009   6.569  0.6742  1.3392 -0.7888
   78MOL0     C10410   5.859   8.987   6.571 -0.5439  0.7059 -0.2832
   78MOL0     C10411   5.896   8.853   6.518 -0.0698  0.2058  0.3802
   78MOL0     N10412   6.039   8.816   6.534 -0.5679 -0.2698 -0.8289
   78MOL0     C10413   6.154   8.884   6.486 -0.6990  0.1155 -0.5598
   78MOL0     C10414   6.257   8.817   6.544 -0.4327  0.9448  0.6857
   78MOL0     C10415   6.409   8.828   6.517  0.4943  1.2105 -0.0170
   78MOL0     C10416   6.457   8.779   6.384 -0.5406 -0.2561  0.1181
   78MOL0     C10417   6.465   8.623   6.377 -0.0999 -0.1855 -0.0829
   78MOL0     C10418   6.329   8.555   6.365 -1.0329 -0.3111  0.7642
   78MOL0     O10419   6.343   8.421   6.314  0.0534 -0.2077 -0.4130
   78MOL0     C10420   6.345   8.400   6.179 -0.7338 -0.8238  0.6020
   78MOL0     C10421   6.334   8.265   6.143  0.4054 -1.2797 -0.8225
   78MOL0     C10422   6.339   8.227   6.005  0.7526 -0.7126 -0.4685
   78MOL0     C10423   6.364   8.315   5.898 -0.3768 -0.5296 -0.7593
   78MOL0     C10424   6.367   8.263   5.759  0.4540  0.7045 -0.3997
   78MOL0     O10425   6.372   8.355   5.663 -0.2194  0.3089 -0.3132
   78MOL0     C10426   6.386   8.315   5.536 -0.8025 -0.7582  0.3295
   78MOL0     C10427   6.498   8.336   5.461 -0.8758 -0.3253  0.2220
   78MOL0     C10428   6.518   8.267   5.339 -0.7722 -0.3669 -0.3270
   78MOL0     C10429   6.431   8.183   5.292  0.0623 -0.1369  0.0989
   78MOL0     O10430   6.449   8.121   5.170  0.6469 -0.2321  0.2896
   78MOL0     C10431   6.345   8.046   5.098  0.3546 -0.2044  0.6426
   78MOL0     C10432   6.407   7.950   5.001 -0.1893 -0.1564 -0.6058
   78MOL0     C10433   6.303   7.893   4.904 -0.5507 -0.1979  0.1989
   78MOL0     C10434   6.372   7.799   4.800 -0.7447  0.1938 -0.1119
   78MOL0     C10435   6.436   7.882   4.679 -0.3953 -0.0451  0.6144
   78MOL0     C10436   6.561   7.799   4.618  0.7055 -0.4831  0.1089
   78MOL0     C10437   6.687   7.799   4.703 -0.3475 -0.5596 -0.4880
   78MOL0     C10438   6.760   7.667   4.718 -0.0640  0.0157  0.5513
   78MOL0    Cl10439   6.688   7.565   4.838 -0.4549 -0.0428 -0.3436
   78MOL0     C10440   6.312   8.169   5.364 -0.1206 -0.4495 -0.0984
   78MOL0     C10441   6.284   8.234   5.482  0.6386  0.7304 -0.6967
   78MOL0     O10442   6.366   8.137   5.748 -0.0692 -0.1775  0.3971
   78MOL0     C10443   6.368   8.452   5.934  1.0510 -0.5430 -0.2750
   78MOL0     C10444   6.363   8.491   6.070  0.3725 -0.3370 -0.4142
   78MOL0     N10445   6.201   8.726   6.624  0.4062  0.4222 -0.4091
   78MOL0     N10446   6.077   8.730   6.624 -0.1325  0.3504 -0.2167
   78MOL0     C10447   5.683   9.854   6.949  0.3740  1.2209 -0.1706
   78MOL0     C10448   5.670   9.977   7.013  0.5211  0.1363 -0.4108
   78MOL0     C10449   5.608  10.334   7.225  0.1952  0.2013  0.7111
   78MOL0     C10450   5.681  10.296   7.341  0.6769 -0.3525  0.4103
   78MOL0     C10451   5.640  10.331   7.469 -0.8230 -0.4319  1.0212
   78MOL0     C10452   5.535  10.417   7.498 -0.2672  0.5792  0.5458
   78MOL0     O10453   5.493  10.446   7.624 -0.2892  0.2542 -1.3647
   78MOL0     C10454   5.360  10.498   7.644 -0.3922 -0.5819 -0.3862
   78MOL0     C10455   5.330  10.499   7.796  0.4564 -0.2173 -0.2932
   78MOL0     C10456   5.370  10.374   7.874  0.3772  0.1109 -0.5343
   78MOL0     C10457   5.452  10.404   8.004  0.7466  0.1569  0.1697
   78MOL0     C10458   5.473  10.268   8.072  0.2280 -0.3491  0.2056
   78MOL0     C10459   5.508  10.162   8.123  0.2717 -0.3037  0.2103
   78MOL0     C10460   5.476  10.472   7.384 -0.0052  0.6514 -0.6799
   78MOL0     C10461   5.510  10.435   7.248 -0.0362 -0.6188 -0.8915
   78MOL0     C10462   5.431  10.493   7.134  0.1545  0.2629  0.2048
   78MOL0     H10463   5.979  10.099   6.950  1.2757 -1.0378 -0.5878
   78MOL0     H10464   6.011   9.865   6.902 -0.6751 -1.5959  1.2432
   78MOL0     H10465   5.659   9.588   6.916 -1.7014 -1.0156 -2.6731
   78MOL0     H10466   5.679   9.639   6.748  1.7746  0.0028 -0.9583
   78MOL0     H10467   5.857   9.422   6.874  1.3787  0.7609 -0.4009
   78MOL0     H10468   5.858   9.471   6.704  0.7597  2.6760  1.2662
   78MOL0     H10469   5.639   9.406   6.663 -0.0407  0.7774  0.5042
   78MOL0     H10470   5.613   9.362   6.829  0.9302  3.6591  1.2475
   78MOL0     H10471   5.845   9.204   6.708  1.1835  0.4775  1.9107
   78MOL0     H10472   5.726   9.165   6.823  0.4879  1.0929  0.1996
   78MOL0     H10473   5.554   9.147   6.633 -0.0110 -1.4269  0.2573
   78MOL0     H10474   5.654   9.211   6.521 -0.5840 -2.2225 -2.2400
   78MOL0     H10475   5.673   8.939   6.641 -1.6648  3.6384  0.1563
   78MOL0     H10476   5.677   8.993   6.468 -0.1717  0.9757 -0.4064
   78MOL0     H10477   5.890   8.981   6.676 -3.5368 -1.8454  0.5971
   78MOL0     H10478   5.919   9.065   6.524  3.7121 -1.9569  0.1182
   78MOL0     H10479   5.846   8.772   6.572  0.4582 -0.9160 -0.7458
   78MOL0     H10480   5.866   8.839   6.414 -1.6248 -0.3563  0.8841
   78MOL0     H10481   6.157   8.977   6.430 -0.5951 -1.4777 -3.3993
   78MOL0     H10482   6.433   8.935   6.520  0.8058  1.1347  0.3033
   78MOL0     H10483   6.466   8.781   6.599  0.4369 -1.0641 -1.2123
   78MOL0     H10484   6.382   8.808   6.309  0.1594 -2.8280 -1.7065
   78MOL0     H10485   6.553   8.827   6.365  0.0458 -1.1672  0.6959
   78MOL0     H10486   6.516   8.574   6.460 -0.6102 -3.6535 -1.6572
   78MOL0     H10487   6.530   8.602   6.291 -1.1924  3.3628 -2.0131
   78MOL0     H10488   6.260   8.598   6.292 -0.8178 -2.9766 -1.1436
   78MOL0     H10489   6.272   8.561   6.458 -0.5425 -1.3417  1.1414
   78MOL0     H10490   6.311   8.196   6.224  1.2772  2.0645  2.5873
   78MOL0     H10491   6.327   8.122   5.980  1.1538 -0.4243 -1.9955
   78MOL0     H10492   6.582   8.398   5.491 -1.2583 -0.8111  2.4549
   78MOL0     H10493   6.610   8.266   5.281  0.6802 -2.7146  1.8236
   78MOL0     H10494   6.278   7.990   5.164  0.0365  0.9882  1.3770
   78MOL0     H10495   6.287   8.119   5.040  0.8574 -1.6786 -1.8383
   78MOL0     H10496   6.493   7.990   4.947 -0.4753  1.9104  0.3971
   78MOL0     H10497   6.455   7.872   5.060 -2.6773 -2.9653 -1.9884
   78MOL0     H10498   6.239   7.825   4.962 -0.6695 -0.6790 -0.4964
   78MOL0     H10499   6.235   7.968   4.862 -0.0666 -0.3127 -0.7965
   78MOL0     H10500   6.294   7.733   4.759  2.3162 -3.1819 -1.0373
   78MOL0     H10501   6.455   7.750   4.852  0.0047  2.1441  0.6092
   78MOL0     H10502   6.464   7.983   4.708  1.7348 -0.3906 -0.0440
   78MOL0     H10503   6.356   7.898   4.606  0.9605 -0.3129 -1.0039
   78MOL0     H10504   6.524   7.698   4.599  0.9800 -0.3726 -1.0416
   78MOL0     H10505   6.598   7.833   4.521  4.0142 -2.1955  0.6359
   78MOL0     H10506   6.671   7.836   4.804  1.3420  1.5362 -0.8999
   78MOL0     H10507   6.750   7.870   4.647 -1.3809 -1.1021 -2.4432
   78MOL0     H10508   6.752   7.614   4.623  0.1177  0.3173  0.3658
   78MOL0     H10509   6.868   7.674   4.735 -0.1361  0.4807  0.8434
   78MOL0     H10510   6.231   8.105   5.330 -2.1961  0.4804  2.7540
   78MOL0     H10511   6.196   8.210   5.541  2.2506  0.6801  1.8442
   78MOL0     H10512   6.394   8.523   5.855  2.2045 -2.1580 -1.4028
   78MOL0     H10513   6.379   8.596   6.091 -0.2061 -0.1422 -0.9121
   78MOL0     H10514   5.595   9.790   6.944  0.2596  0.9997  2.7219
   78MOL0     H10515   5.573   9.994   7.059  1.5882 -1.3864  2.7185
   78MOL0     H10516   5.768  10.232   7.328  1.3278  0.1171  2.1997
   78MOL0     H10517   5.708  10.296   7.546  2.0385 -0.4135 -1.3228
   78MOL0     H10518   5.290  10.439   7.584 -2.5813  0.6171  0.8694
   78MOL0     H10519   5.352  10.601   7.609 -3.5447 -0.3526  0.7141
   78MOL0     H10520   5.222  10.507   7.807  0.3058  0.5770 -2.0202
   78MOL0     H10521   5.371  10.586   7.848 -0.1470  1.8507 -3.0534
   78MOL0     H10522   5.421  10.302   7.811 -0.9060  0.1985 -1.7208
   78MOL0     H10523   5.282  10.319   7.909 -0.3219  0.3685 -1.8309
   78MOL0     H10524   5.550  10.453   7.998 -1.0876  4.7543  2.6435
   78MOL0     H10525   5.394  10.467   8.071 -0.5757  0.3252 -1.0881
   78MOL0     H10526   5.539  10.080   8.184  0.7984 -0.4805 -0.2884
   78MOL0     H10527   5.402  10.548   7.406 -0.7243 -0.5081  1.2266
   78MOL0     H10528   5.494  10.555   7.069  1.2478  1.1235  2.0096
   78MOL0     H10529   5.380  10.414   7.078 -0.1212 -1.7355  3.0554
   78MOL0     H10530   5.359  10.563   7.177 -0.4744 -0.6010  0.5854
   79MOL0     O10531   2.244   7.684   8.159 -0.0781  1.7091 -0.3483
   79MOL0     C10532   2.190   7.772   8.228  0.4294  0.4277 -0.5122
   79MOL0     O10533   2.226   7.906   8.234 -0.1055 -0.2054  0.2437
   79MOL0     C10534   2.317   7.971   8.153  0.6247  0.7921  0.1053
   79MOL0     C10535   2.362   8.093   8.206  0.1774  0.1307  0.0939
   79MOL0     C10536   2.474   8.161   8.148 -0.3092 -0.7952 -0.3761
   79MOL0     C10537   2.539   8.111   8.041 -0.0587 -0.6318 -1.1853
   79MOL0     O10538   2.645   8.192   7.990  0.1295 -0.6281 -0.0515
   79MOL0     C10539   2.670   8.168   7.848 -0.6167  0.0082 -0.1849
   79MOL0     C10540   2.775   8.266   7.795 -0.1245 -0.3037  0.1593
   79MOL0     C10541   2.899   8.280   7.884 -0.2076 -1.0153 -0.4663
   79MOL0     C10542   2.978   8.403   7.832 -0.5762  0.8316  0.1578
   79MOL0     C10543   3.126   8.372   7.797 -0.0519 -0.3590  0.5035
   79MOL0     C10544   3.211   8.348   7.921  0.5762  0.4534  0.0637
   79MOL0     C10545   3.349   8.296   7.910 -0.3697  0.5048 -0.1767
   79MOL0     C10546   3.460   8.389   7.863  0.1169  0.6210  1.0123
   79MOL0     N10547   3.470   8.420   7.719 -0.0075 -0.4774  0.1427
   79MOL0     C10548   3.581   8.484   7.681  0.2499 -0.6083 -0.5722
   79MOL0     C10549   3.575   8.486   7.552 -0.3227  0.3697 -0.1363
   79MOL0     C10550   3.693   8.544   7.464 -0.3626  0.6108  0.6571
   79MOL0     C10551   3.823   8.460   7.471  0.4918 -0.5888  0.4924
   79MOL0     C10552   3.792   8.321   7.435 -0.4709  0.9358  0.4581
   79MOL0     C10553   3.921   8.231   7.411  0.6574  0.1306 -0.0869
   79MOL0     O10554   3.865   8.104   7.358 -0.3599 -0.0663  0.3230
   79MOL0     C10555   3.920   8.070   7.239 -0.9374 -0.5006 -0.1007
   79MOL0     C10556   3.885   8.135   7.123 -1.5626  0.1596  0.4628
   79MOL0     C10557   3.964   8.120   7.003 -0.0140  0.4907 -0.6524
   79MOL0     C10558   4.064   8.033   7.003 -0.5661  0.2825  0.3427
   79MOL0     C10559   4.154   8.014   6.883 -0.3693 -0.5816 -0.6670
   79MOL0     O10560   4.097   8.046   6.762 -0.3241 -0.3714 -0.3507
   79MOL0     C10561   4.175   8.061   6.653 -0.2021 -0.7465 -0.4993
   79MOL0     C10562   4.108   8.044   6.530  0.1409  0.3744  0.4090
   79MOL0     C10563   4.184   8.058   6.422  1.1908  0.3939 -0.2484
   79MOL0     C10564   4.312   8.102   6.414  0.0725 -1.5400  0.2768
   79MOL0     O10565   4.395   8.119   6.307  0.1259  0.0590 -0.6313
   79MOL0     C10566   4.335   8.195   6.195 -0.2761 -0.0591 -0.3015
   79MOL0     C10567   4.422   8.185   6.073 -0.2196 -0.4228 -0.5300
   79MOL0     C10568   4.421   8.053   6.000  0.2442  0.3201 -0.0703
   79MOL0     C10569   4.503   8.051   5.878 -1.0946 -0.9352 -0.4705
   79MOL0     C10570   4.455   8.152   5.771 -0.2071  1.1344  0.1175
   79MOL0     C10571   4.541   8.151   5.638 -0.2772 -0.5516  0.2249
   79MOL0     C10572   4.496   8.247   5.520 -0.1942 -0.4175 -0.3142
   79MOL0     C10573   4.388   8.188   5.430  0.3810  0.0996 -0.8139
   79MOL0    Cl10574   4.327   8.270   5.282 -0.2905 -0.2305 -0.2066
   79MOL0     C10575   4.375   8.136   6.532  0.0839 -0.3317  0.5973
   79MOL0     C10576   4.306   8.112   6.654 -0.5569 -0.0190  0.6195
   79MOL0     O10577   4.267   7.958   6.905 -1.4688 -0.1056  0.9750
   79MOL0     C10578   4.093   7.957   7.114 -0.8231  0.8240 -0.4381
   79MOL0     C10579   4.025   7.976   7.236 -0.8117  0.9085 -0.7062
   79MOL0     N10580   3.449   8.450   7.508 -0.1763  0.6323 -0.1236
   79MOL0     N10581   3.395   8.399   7.608  0.5741 -0.2534 -0.3458
   79MOL0     C10582   2.488   7.994   7.976  0.3140 -0.0671  0.6372
   79MOL0     C10583   2.376   7.920   8.031 -0.8229 -0.6303  1.5788
   79MOL0     C10584   2.068   7.722   8.305  0.4564  0.8915  0.0749
   79MOL0     C10585   2.044   7.584   8.330  0.3501 -0.5251 -0.0748
   79MOL0     C10586   1.925   7.535   8.383  0.6435  0.1151  0.6084
   79MOL0     C10587   1.825   7.615   8.436  0.5276 -0.0663 -1.0214
   79MOL0     O10588   1.708   7.554   8.485  0.9318  0.2497 -0.4898
   79MOL0     C10589   1.598   7.635   8.536 -1.1258  0.6883 -0.8867
   79MOL0     C10590   1.555   7.565   8.664  0.8532 -1.4730 -0.5746
   79MOL0     C10591   1.596   7.644   8.799  0.1569  0.6276  0.0863
   79MOL0     C10592   1.499   7.745   8.854 -0.2743  0.0389 -0.1644
   79MOL0     C10593   1.461   7.708   8.988 -0.6892 -0.3349  0.5527
   79MOL0     C10594   1.418   7.691   9.097 -0.3596 -0.8017  0.5808
   79MOL0     C10595   1.850   7.749   8.433 -0.3172 -0.6209  0.2677
   79MOL0     C10596   1.958   7.804   8.358  0.5776 -1.1923  0.1053
   79MOL0     C10597   1.953   7.955   8.334 -1.0888 -0.1295 -0.6590
   79MOL0     H10598   2.309   8.134   8.291 -2.0866 -1.8493 -0.2452
   79MOL0     H10599   2.504   8.256   8.189  0.6748 -1.7933  1.3324
   79MOL0     H10600   2.711   8.068   7.831  0.1477  0.4925 -1.3914
   79MOL0     H10601   2.577   8.185   7.793 -0.1990  3.7318  0.0122
   79MOL0     H10602   2.729   8.365   7.797  0.9058  0.1823  0.4243
   79MOL0     H10603   2.796   8.238   7.692  0.9627 -0.3301  0.3793
   79MOL0     H10604   2.959   8.189   7.885  0.9097 -0.4282 -3.4199
   79MOL0     H10605   2.864   8.327   7.977 -0.2803  0.1429 -1.0584
   79MOL0     H10606   2.934   8.449   7.743  0.0131  0.1464 -0.5101
   79MOL0     H10607   2.971   8.483   7.905 -1.8699 -0.8052  1.9318
   79MOL0     H10608   3.142   8.281   7.738  1.3797  1.0251 -1.3416
   79MOL0     H10609   3.179   8.453   7.748  1.8675 -1.6525  0.3307
   79MOL0     H10610   3.214   8.439   7.981  0.4133  0.4159  0.1290
   79MOL0     H10611   3.162   8.271   7.982  1.1371  1.2782  1.5991
   79MOL0     H10612   3.345   8.204   7.852 -0.8721  1.1873 -1.2569
   79MOL0     H10613   3.383   8.273   8.011 -0.0061 -1.7067 -0.7559
   79MOL0     H10614   3.463   8.481   7.921  0.1245 -0.0810  2.1665
   79MOL0     H10615   3.553   8.335   7.882  0.4371  0.1530 -1.4949
   79MOL0     H10616   3.654   8.535   7.742 -0.8586  0.1532  0.1500
   79MOL0     H10617   3.656   8.567   7.364 -0.7014  0.7794  0.8210
   79MOL0     H10618   3.716   8.641   7.508 -0.4885  0.3620  1.2877
   79MOL0     H10619   3.902   8.498   7.406  1.8743 -2.2312  1.1220
   79MOL0     H10620   3.867   8.469   7.571 -3.3641  0.3943  2.2943
   79MOL0     H10621   3.748   8.309   7.335  1.7749 -0.7703 -0.4172
   79MOL0     H10622   3.728   8.268   7.506  1.2604  1.3450  2.4411
   79MOL0     H10623   3.962   8.211   7.510  0.0388 -2.0495 -0.2303
   79MOL0     H10624   3.994   8.284   7.349  0.5518 -0.3682 -0.6468
   79MOL0     H10625   3.808   8.212   7.125 -0.0625  1.9269 -2.2680
   79MOL0     H10626   3.933   8.186   6.923 -0.5875 -0.2614 -1.0682
   79MOL0     H10627   4.001   8.026   6.525 -0.7208  4.6881 -0.1082
   79MOL0     H10628   4.152   8.049   6.318  2.7098  0.1467 -0.7185
   79MOL0     H10629   4.237   8.163   6.159  0.1119  1.0461 -2.5115
   79MOL0     H10630   4.335   8.298   6.230 -0.3224 -0.2029  0.1430
   79MOL0     H10631   4.403   8.276   6.016 -1.0441 -0.2990 -0.0842
   79MOL0     H10632   4.527   8.199   6.099 -0.0983  1.0572 -1.7230
   79MOL0     H10633   4.456   7.987   6.081 -0.1713 -0.4999 -0.5511
   79MOL0     H10634   4.314   8.043   5.980  0.0369  0.3606  0.9663
   79MOL0     H10635   4.507   7.949   5.841 -3.3022 -0.4216 -2.3330
   79MOL0     H10636   4.602   8.090   5.906 -0.1684 -2.6504 -1.2453
   79MOL0     H10637   4.456   8.255   5.806 -2.5103  1.1606  0.2668
   79MOL0     H10638   4.348   8.151   5.748 -0.0462  4.5680 -1.4103
   79MOL0     H10639   4.643   8.175   5.672 -0.0552 -0.7884 -0.2733
   79MOL0     H10640   4.545   8.053   5.591  1.4416 -2.0001  3.0741
   79MOL0     H10641   4.589   8.273   5.468  0.5026 -0.8538  0.6724
   79MOL0     H10642   4.473   8.344   5.564  1.6545 -0.8855  1.8409
   79MOL0     H10643   4.440   8.100   5.392 -0.1768 -0.4561 -0.3197
   79MOL0     H10644   4.315   8.142   5.498  3.6590 -1.0423  2.2493
   79MOL0     H10645   4.472   8.184   6.542 -0.5499  0.4722  4.9138
   79MOL0     H10646   4.342   8.139   6.753 -2.2294 -3.0770  2.2013
   79MOL0     H10647   4.171   7.881   7.117 -0.3240  1.3470  0.7033
   79MOL0     H10648   4.052   7.930   7.331  0.6513 -1.8742 -2.3197
   79MOL0     H10649   2.530   7.960   7.882 -1.0571  1.9199 -0.7649
   79MOL0     H10650   2.361   7.821   7.991  4.0035 -0.7725 -0.5915
   79MOL0     H10651   2.122   7.518   8.294 -2.7125 -3.5279 -1.8709
   79MOL0     H10652   1.910   7.428   8.392  0.3503 -0.5364 -4.5420
   79MOL0     H10653   1.515   7.655   8.468 -2.0491 -1.3271 -0.4130
   79MOL0     H10654   1.649   7.726   8.569 -0.5603  0.0314  0.1036
   79MOL0     H10655   1.599   7.465   8.672  3.3684 -0.5212 -1.4600
   79MOL0     H10656   1.447   7.558   8.652  0.5028 -1.1754  1.8864
   79MOL0     H10657   1.679   7.709   8.768  0.1276 -0.3762 -2.3182
   79MOL0     H10658   1.624   7.565   8.868 -0.8170  0.7483  0.6322
   79MOL0     H10659   1.540   7.846   8.844  1.3189 -0.4944  0.6193
   79MOL0     H10660   1.408   7.736   8.793  1.2026  0.2046 -2.5111
   79MOL0     H10661   1.381   7.663   9.193  1.9607 -0.4468  1.6333
   79MOL0     H10662   1.784   7.825   8.473 -0.7487 -2.1356  2.6174
   79MOL0     H10663   2.022   7.999   8.407 -0.5515 -0.1008 -1.1772
   79MOL0     H10664   1.993   7.970   8.233 -1.1055 -0.2731 -0.6878
   79MOL0     H10665   1.854   8.000   8.343 -1.0007  0.3327 -1.8268
   80MOL0     O10666  10.259   9.890   1.606 -0.2238 -0.1963  0.1701
   80MOL0     C10667  10.229   9.837   1.500 -0.1434 -0.5374  0.3762
   80MOL0     O10668  10.229   9.704   1.479  0.3028  0.0129  0.0836
   80MOL0     C10669  10.229   9.609   1.583  0.4949  0.1076 -0.0654
   80MOL0     C10670  10.167   9.631   1.704 -0.6307 -0.3290 -0.9476
   80MOL0     C10671  10.180   9.532   1.800 -0.0983 -0.1305  0.4529
   80MOL0     C10672  10.256   9.414   1.784 -0.5909 -0.7475 -0.8049
   80MOL0     O10673  10.265   9.324   1.889  0.5581 -0.5521  0.4586
   80MOL0     C10674  10.381   9.239   1.904  0.0894 -0.9843 -0.1452
   80MOL0     C10675  10.393   9.193   2.053  0.1509 -0.5668  0.6693
   80MOL0     C10676  10.272   9.114   2.099 -0.0223  0.1403 -0.9191
   80MOL0     C10677  10.233   8.983   2.022  0.8258 -0.6883  0.1979
   80MOL0     C10678  10.115   8.910   2.101 -0.2610  0.8781  0.8769
   80MOL0     C10679  10.031   8.840   1.993 -0.0252  0.0111  0.4025
   80MOL0     C10680   9.912   8.743   2.042 -0.8696 -0.2291 -0.0630
   80MOL0     C10681   9.817   8.699   1.930 -0.0597 -1.0875  0.1095
   80MOL0     N10682   9.730   8.583   1.956 -0.1142  0.0539  0.5712
   80MOL0     C10683   9.640   8.583   2.058 -0.1332 -0.6181  0.1233
   80MOL0     C10684   9.610   8.452   2.081  0.1533 -0.0661  0.7861
   80MOL0     C10685   9.500   8.400   2.165 -0.3986  0.3532 -0.4397
   80MOL0     C10686   9.377   8.353   2.091 -0.4745  0.0711  0.7637
   80MOL0     C10687   9.307   8.460   2.005  0.2874 -0.7531  1.0379
   80MOL0     C10688   9.251   8.578   2.090 -0.5672 -0.5866  0.7121
   80MOL0     O10689   9.178   8.516   2.190 -0.4165 -0.6395 -0.1567
   80MOL0     C10690   9.055   8.556   2.214 -0.4068 -0.3168 -0.5359
   80MOL0     C10691   8.968   8.639   2.151  1.2719 -1.0658 -0.3071
   80MOL0     C10692   8.833   8.668   2.194 -0.6318 -0.3567 -0.3310
   80MOL0     C10693   8.784   8.613   2.304 -0.1595 -0.0853  0.7171
   80MOL0     C10694   8.644   8.644   2.355  0.4336  0.5440 -1.2432
   80MOL0     O10695   8.592   8.574   2.459  1.1846  0.0930  1.0527
   80MOL0     C10696   8.515   8.461   2.429 -0.4471 -0.7043  0.2877
   80MOL0     C10697   8.440   8.410   2.536 -0.3480 -0.0206  0.5448
   80MOL0     C10698   8.363   8.301   2.516  0.0648  0.7403  0.2919
   80MOL0     C10699   8.357   8.232   2.392 -0.0461  0.3435  0.5068
   80MOL0     O10700   8.276   8.120   2.382  0.2344  0.2993 -0.4727
   80MOL0     C10701   8.341   8.001   2.353 -0.2396 -0.0394  0.6049
   80MOL0     C10702   8.333   7.923   2.487 -0.3095  0.0745 -0.1920
   80MOL0     C10703   8.439   7.977   2.588 -0.2421  0.1468 -0.7029
   80MOL0     C10704   8.514   7.864   2.670  0.2951  0.4452 -1.0074
   80MOL0     C10705   8.534   7.908   2.815 -0.2681  0.4130 -0.1259
   80MOL0     C10706   8.606   7.809   2.908 -0.3814  0.8620  0.6296
   80MOL0     C10707   8.654   7.856   3.040 -0.7682 -1.2192  0.1644
   80MOL0     C10708   8.708   7.756   3.127 -0.1293  1.0609  0.4397
   80MOL0    Cl10709   8.693   7.788   3.298 -0.0727 -0.1846 -0.0317
   80MOL0     C10710   8.440   8.278   2.289 -0.2351 -0.2660 -0.8165
   80MOL0     C10711   8.522   8.388   2.309  0.7230  0.5167 -0.2015
   80MOL0     O10712   8.592   8.722   2.281  0.2397 -0.9010 -1.0344
   80MOL0     C10713   8.865   8.509   2.370  0.5682 -1.6543 -0.4839
   80MOL0     C10714   9.001   8.498   2.327  0.4082 -1.0976  0.0793
   80MOL0     N10715   9.693   8.374   2.001 -0.1566  0.5677 -0.0861
   80MOL0     N10716   9.757   8.455   1.921  0.0107  0.6447  0.3425
   80MOL0     C10717  10.328   9.401   1.666 -0.9004  0.4071  0.6243
   80MOL0     C10718  10.309   9.500   1.559  0.9497 -0.2736 -0.5498
   80MOL0     C10719  10.188   9.924   1.380 -0.0974 -0.6567 -0.3427
   80MOL0     C10720  10.180   9.861   1.256  0.7573 -0.2289 -0.2703
   80MOL0     C10721  10.131   9.928   1.139  0.3473 -0.7465  0.1526
   80MOL0     C10722  10.098  10.069   1.145 -0.7409 -0.2163  0.1254
   80MOL0     O10723  10.085  10.122   1.015 -0.7059 -0.9072 -0.8437
   80MOL0     C10724  10.093  10.268   0.994  0.7699  0.3803 -0.6309
   80MOL0     C10725  10.141  10.307   0.855 -0.1930 -0.0465 -0.3231
   80MOL0     C10726  10.277  10.250   0.821 -0.9106  0.7283 -0.0546
   80MOL0     C10727  10.349  10.298   0.695 -0.2196 -0.2094 -0.1974
   80MOL0     C10728  10.264  10.300   0.576 -1.3954  0.0360 -0.0580
   80MOL0     C10729  10.198  10.302   0.475 -0.4165  0.5180  0.6657
   80MOL0     C10730  10.128  10.135   1.268 -0.7309 -0.2852 -0.8998
   80MOL0     C10731  10.161  10.068   1.384 -0.1746  0.5782 -0.4418
   80MOL0     C10732  10.136  10.144   1.512 -0.4004  0.2188  0.8641
   80MOL0     H10733  10.119   9.726   1.722  2.0511  0.7929  0.8060
   80MOL0     H10734  10.142   9.543   1.902 -0.2993 -2.5260  0.6922
   80MOL0     H10735  10.383   9.148   1.844  0.3713 -0.3264 -1.1447
   80MOL0     H10736  10.472   9.298   1.889  0.1092 -0.8984  0.2784
   80MOL0     H10737  10.392   9.278   2.121  0.8520  0.7175 -0.8513
   80MOL0     H10738  10.489   9.141   2.065  1.2134  1.4857  1.5137
   80MOL0     H10739  10.186   9.180   2.109  1.8837  2.3697  2.3427
   80MOL0     H10740  10.296   9.080   2.200  2.4313 -1.5633 -1.9652
   80MOL0     H10741  10.193   9.026   1.929 -2.8589  2.6291  2.9372
   80MOL0     H10742  10.312   8.916   1.988  0.9109 -0.0126 -1.0041
   80MOL0     H10743  10.157   8.853   2.184  2.6745  1.2001 -0.2686
   80MOL0     H10744  10.044   8.979   2.148 -1.2029 -1.3604  2.9971
   80MOL0     H10745   9.983   8.918   1.934 -1.5805  0.1647  1.8161
   80MOL0     H10746  10.101   8.784   1.930 -1.7858  0.2726 -1.9562
   80MOL0     H10747   9.861   8.791   2.127  1.0114 -0.9433  1.5522
   80MOL0     H10748   9.960   8.651   2.076 -2.3732 -1.9659 -2.3376
   80MOL0     H10749   9.754   8.784   1.905 -1.4821 -1.7751  1.1530
   80MOL0     H10750   9.870   8.661   1.843 -4.0611 -2.5221 -1.9872
   80MOL0     H10751   9.596   8.671   2.104 -2.2890 -2.8476  2.6465
   80MOL0     H10752   9.537   8.316   2.225  0.4708  0.5641 -0.6659
   80MOL0     H10753   9.476   8.488   2.225 -1.6954  1.7915 -2.8955
   80MOL0     H10754   9.414   8.269   2.031 -1.7379  0.2012 -0.2391
   80MOL0     H10755   9.303   8.310   2.159 -0.8618  0.7997  0.8114
   80MOL0     H10756   9.216   8.415   1.965  0.2442  0.1020  0.1280
   80MOL0     H10757   9.376   8.493   1.926  1.3308  1.5373  2.7858
   80MOL0     H10758   9.197   8.645   2.023  0.1799  1.4016  2.0062
   80MOL0     H10759   9.329   8.640   2.134  0.2090  0.3547 -1.8759
   80MOL0     H10760   9.003   8.690   2.062 -3.7377  5.7380  0.8537
   80MOL0     H10761   8.780   8.749   2.146 -0.6000  1.2144  2.1420
   80MOL0     H10762   8.450   8.452   2.636  1.5123 -0.8368  0.7545
   80MOL0     H10763   8.311   8.247   2.595  1.7357  1.2928  1.8120
   80MOL0     H10764   8.285   7.953   2.273 -1.3945 -1.4559  2.2044
   80MOL0     H10765   8.444   8.012   2.317  0.1745 -1.5169  1.2780
   80MOL0     H10766   8.235   7.940   2.534 -1.3205  1.3575 -2.5612
   80MOL0     H10767   8.350   7.816   2.479 -0.8456 -0.3473  2.9251
   80MOL0     H10768   8.519   8.029   2.535  3.1371 -4.6059 -0.9216
   80MOL0     H10769   8.386   8.053   2.647  1.1566  1.8283 -1.5066
   80MOL0     H10770   8.609   7.847   2.620  0.8725  1.0667 -0.1673
   80MOL0     H10771   8.465   7.767   2.666  1.1723 -0.1426  1.0044
   80MOL0     H10772   8.440   7.945   2.857 -1.1857 -0.8854 -0.9543
   80MOL0     H10773   8.590   8.001   2.808 -0.9070  0.6547 -3.7454
   80MOL0     H10774   8.524   7.738   2.926 -1.5732  2.2493  0.7908
   80MOL0     H10775   8.686   7.762   2.850 -1.1214  1.3087 -0.8049
   80MOL0     H10776   8.567   7.901   3.089 -2.4162 -1.1677 -2.5943
   80MOL0     H10777   8.720   7.941   3.025 -0.0741 -1.7350  0.2478
   80MOL0     H10778   8.657   7.661   3.110  2.8933 -0.4352 -1.1671
   80MOL0     H10779   8.815   7.739   3.109 -0.4958 -2.0582  0.7461
   80MOL0     H10780   8.458   8.221   2.198 -1.7513 -0.8504 -0.7806
   80MOL0     H10781   8.589   8.427   2.233  0.2503 -0.2171 -1.0168
   80MOL0     H10782   8.833   8.476   2.468  2.9789  0.9320  1.3347
   80MOL0     H10783   9.057   8.420   2.378  1.7279  0.1084  0.5402
   80MOL0     H10784  10.407   9.328   1.648  1.0637  3.0606 -2.6121
   80MOL0     H10785  10.359   9.489   1.464  2.3539  0.6635  0.0520
   80MOL0     H10786  10.211   9.758   1.244 -2.1884 -1.1946 -0.4253
   80MOL0     H10787  10.114   9.880   1.043  0.8497  3.5425 -2.3028
   80MOL0     H10788  10.158  10.311   1.071  0.7207  0.5685 -0.6929
   80MOL0     H10789   9.993  10.311   1.004  0.8339  0.4060 -0.0511
   80MOL0     H10790  10.162  10.415   0.857  1.6823 -0.3877  0.1748
   80MOL0     H10791  10.060  10.300   0.782 -1.4486 -1.9445  1.1588
   80MOL0     H10792  10.270  10.141   0.812  1.0524  0.1387  3.5505
   80MOL0     H10793  10.359  10.274   0.889  1.6322  1.7870 -3.1792
   80MOL0     H10794  10.391  10.397   0.714  1.6149 -0.4871 -2.3637
   80MOL0     H10795  10.439  10.240   0.672  0.6565  0.3435  1.6392
   80MOL0     H10796  10.119  10.311   0.404  0.0363  0.4918  0.1518
   80MOL0     H10797  10.113  10.242   1.281  2.0042 -0.1819  3.9430
   80MOL0     H10798  10.232  10.158   1.563 -0.2554 -1.4134  1.0790
   80MOL0     H10799  10.102  10.247   1.493  1.1695  0.5253 -0.5120
   80MOL0     H10800  10.075  10.089   1.584  0.0898 -2.3975 -0.5861
   81MOL0     O10801   7.942   5.708   9.506 -0.0430 -0.9599 -0.4115
   81MOL0     C10802   8.015   5.645   9.431  0.2638 -0.9990  0.7656
   81MOL0     O10803   8.149   5.667   9.414  0.3386  0.4756  0.4947
   81MOL0     C10804   8.213   5.777   9.468  0.0436 -0.4394  0.4614
   81MOL0     C10805   8.282   5.773   9.592 -0.5534 -0.3595  0.4009
   81MOL0     C10806   8.343   5.886   9.647 -0.0001  0.6005 -0.3196
   81MOL0     C10807   8.346   5.996   9.571 -0.0265  0.1120  0.2708
   81MOL0     O10808   8.420   6.105   9.601 -0.5571  0.8393 -0.7292
   81MOL0     C10809   8.393   6.162   9.733 -0.4912  0.0439  1.3014
   81MOL0     C10810   8.474   6.295   9.741 -0.5194  0.0011 -0.4398
   81MOL0     C10811   8.618   6.273   9.760  0.4781  0.6670 -0.3320
   81MOL0     C10812   8.705   6.389   9.799  1.0621 -0.2658  0.3464
   81MOL0     C10813   8.803   6.345   9.919 -0.4192 -0.3158  0.8202
   81MOL0     C10814   8.873   6.473   9.956 -0.6742 -0.7619 -0.7331
   81MOL0     C10815   8.990   6.444  10.048 -0.7300  0.4505 -1.1582
   81MOL0     C10816   9.048   6.566  10.123  0.7593  0.6087 -0.6387
   81MOL0     N10817   9.132   6.524  10.237  0.6488 -0.7258  0.0678
   81MOL0     C10818   9.254   6.469  10.228 -0.8214 -0.2919  0.5713
   81MOL0     C10819   9.277   6.405  10.349  2.0437  0.1379 -0.2411
   81MOL0     C10820   9.387   6.315  10.364 -0.1757 -0.5084 -0.1131
   81MOL0     C10821   9.504   6.400  10.413 -0.2478  0.2664 -0.5078
   81MOL0     C10822   9.624   6.305  10.417  0.4043 -0.6590  0.3215
   81MOL0     C10823   9.741   6.373  10.478  0.0908  0.6259 -0.2836
   81MOL0     O10824   9.736   6.384  10.624 -0.1459 -0.2689 -0.3059
   81MOL0     C10825   9.771   6.268  10.700 -0.8947  1.1891  0.2306
   81MOL0     C10826   9.915   6.254  10.726 -0.1863 -0.7806  0.8876
   81MOL0     C10827   9.952   6.154  10.803 -0.9091 -0.2447 -0.6363
   81MOL0     C10828   9.870   6.061  10.859  0.2595  0.5828 -0.4230
   81MOL0     C10829   9.929   5.965  10.955 -0.2433  0.2965 -0.1375
   81MOL0     O10830  10.067   5.953  10.973  0.0659 -0.1111 -0.1470
   81MOL0     C10831  10.102   5.896  11.090  0.3921 -0.4867  0.5365
   81MOL0     C10832  10.227   5.835  11.087 -0.5257 -1.0449 -0.6110
   81MOL0     C10833  10.277   5.766  11.204  0.0679  0.9682  0.9594
   81MOL0     C10834  10.195   5.758  11.319  0.0803 -0.0756 -0.9632
   81MOL0     O10835  10.245   5.679  11.410 -0.1197 -0.3872  0.2480
   81MOL0     C10836  10.178   5.660  11.534 -0.4550  0.3980 -0.0652
   81MOL0     C10837  10.262   5.561  11.622  0.6080 -0.5385 -1.6126
   81MOL0     C10838  10.174   5.528  11.743 -0.1000 -0.4506 -0.1984
   81MOL0     C10839  10.218   5.426  11.852 -0.2588  0.5591 -0.1624
   81MOL0     C10840  10.241   5.281  11.804 -0.5393  0.3707 -0.0172
   81MOL0     C10841  10.388   5.272  11.769  0.3194  1.0493 -0.6550
   81MOL0     C10842  10.432   5.147  11.700  0.0140  0.5941  0.0568
   81MOL0     C10843  10.482   5.169  11.561 -0.3905 -0.1345  1.0147
   81MOL0    Cl10844  10.576   5.041  11.494 -0.2138  0.1837  0.1857
   81MOL0     C10845  10.065   5.819  11.317  0.6103  1.3538 -0.3155
   81MOL0     C10846  10.027   5.887  11.207 -0.2050 -0.0567  1.3844
   81MOL0     O10847   9.853   5.877  10.990 -0.3616 -0.0737 -1.1367
   81MOL0     C10848   9.732   6.079  10.837 -0.3352  0.8691  0.8092
   81MOL0     C10849   9.682   6.175  10.751 -0.5188 -0.4479  0.1756
   81MOL0     N10850   9.166   6.435  10.431 -0.6514 -0.6099 -0.4235
   81MOL0     N10851   9.080   6.505  10.363 -0.7762 -0.6708 -1.0268
   81MOL0     C10852   8.262   6.016   9.460 -0.7750  1.0177  0.8469
   81MOL0     C10853   8.201   5.904   9.408  0.5699 -0.3674 -0.7213
   81MOL0     C10854   7.945   5.523   9.358  0.3666  0.2757 -0.2074
   81MOL0     C10855   7.823   5.491   9.418 -0.0936 -0.5035 -0.1356
   81MOL0     C10856   7.747   5.378   9.378 -1.4409  0.5413  0.0107
   81MOL0     C10857   7.798   5.293   9.270 -0.6924 -0.3724 -0.8487
   81MOL0     O10858   7.734   5.181   9.232  0.5291 -0.0450  1.2154
   81MOL0     C10859   7.606   5.215   9.168  0.8007  0.1983  0.3078
   81MOL0     C10860   7.601   5.139   9.037  0.4368  0.1527 -0.3460
   81MOL0     C10861   7.731   5.136   8.953  0.4186  0.1443 -0.3185
   81MOL0     C10862   7.764   5.282   8.900 -0.1947 -0.6692 -0.6422
   81MOL0     C10863   7.893   5.286   8.824 -0.7876  0.5837 -0.0360
   81MOL0     C10864   7.993   5.284   8.754 -0.8798  0.1430 -0.0656
   81MOL0     C10865   7.919   5.329   9.217  0.4791 -0.0341 -0.4886
   81MOL0     C10866   7.987   5.444   9.251  0.3414  0.0037  1.0545
   81MOL0     C10867   8.107   5.472   9.166 -0.2590  0.1904  0.1867
   81MOL0     H10868   8.286   5.680   9.648 -2.0609 -2.6463 -2.9432
   81MOL0     H10869   8.397   5.889   9.741  0.3683 -0.3565 -0.4895
   81MOL0     H10870   8.286   6.182   9.743 -0.2648  1.8380  0.4923
   81MOL0     H10871   8.430   6.092   9.809 -0.1372 -1.5359 -0.2795
   81MOL0     H10872   8.438   6.344   9.832  0.6027  2.0031 -1.0129
   81MOL0     H10873   8.458   6.358   9.653  0.8617  0.5043 -0.3455
   81MOL0     H10874   8.661   6.215   9.678  0.1242  0.7477 -0.5797
   81MOL0     H10875   8.630   6.208   9.846  3.9013  2.0288  0.3929
   81MOL0     H10876   8.751   6.430   9.709  1.3873  0.4496  0.8336
   81MOL0     H10877   8.631   6.461   9.835 -0.2640 -1.4999  0.1768
   81MOL0     H10878   8.763   6.302  10.012 -0.5378  0.6446  1.2253
   81MOL0     H10879   8.882   6.283   9.875  0.1860  1.9009 -1.3948
   81MOL0     H10880   8.911   6.531   9.871 -1.3427  0.5531 -0.1731
   81MOL0     H10881   8.800   6.538  10.007  0.3387  0.0563 -0.2863
   81MOL0     H10882   9.068   6.393   9.991  0.7441 -0.8336  1.8512
   81MOL0     H10883   8.960   6.372  10.124  1.7357 -1.7949 -2.1555
   81MOL0     H10884   9.108   6.625  10.054  0.6781  0.7469 -0.5906
   81MOL0     H10885   8.963   6.622  10.164 -0.6169 -0.7242 -1.5673
   81MOL0     H10886   9.323   6.482  10.145 -1.3355  0.6142  0.2841
   81MOL0     H10887   9.360   6.252  10.449 -0.1218  0.3254  0.5330
   81MOL0     H10888   9.415   6.251  10.280  3.6718 -2.3213  2.2769
   81MOL0     H10889   9.533   6.480  10.343 -1.1364  0.6500 -0.4529
   81MOL0     H10890   9.490   6.436  10.515  2.2862 -1.0928  0.4058
   81MOL0     H10891   9.649   6.296  10.311 -0.1820  0.9985  0.0158
   81MOL0     H10892   9.604   6.212  10.470 -1.8088 -0.3087  0.1818
   81MOL0     H10893   9.744   6.470  10.429  0.1568 -0.2348 -2.0631
   81MOL0     H10894   9.830   6.309  10.479 -0.4435 -0.3079  3.0508
   81MOL0     H10895   9.987   6.321  10.682  1.7749 -4.2128 -1.6638
   81MOL0     H10896  10.059   6.135  10.807 -0.1912  3.3658  0.2403
   81MOL0     H10897  10.281   5.841  10.993 -1.2454  2.4741 -0.9463
   81MOL0     H10898  10.369   5.709  11.208  0.1814  1.0407 -0.2216
   81MOL0     H10899  10.173   5.752  11.593  1.5749  0.1043  0.6444
   81MOL0     H10900  10.087   5.603  11.516  1.4494 -3.0175  0.2042
   81MOL0     H10901  10.281   5.470  11.563  1.3663 -1.7480  0.4183
   81MOL0     H10902  10.357   5.611  11.642 -0.0648  1.8700 -3.8496
   81MOL0     H10903  10.159   5.623  11.795 -2.0401 -0.2140 -1.1084
   81MOL0     H10904  10.077   5.489  11.713  0.0208 -3.4026  2.7064
   81MOL0     H10905  10.152   5.423  11.939  0.5936  1.4610  0.5354
   81MOL0     H10906  10.309   5.466  11.896  2.6269 -1.7901 -3.4452
   81MOL0     H10907  10.188   5.259  11.710  0.9535 -1.0635 -0.5698
   81MOL0     H10908  10.210   5.223  11.891  1.0642  0.5017  0.6723
   81MOL0     H10909  10.417   5.354  11.702  4.0852 -1.5297 -2.5538
   81MOL0     H10910  10.449   5.291  11.857 -0.4898 -2.6777  0.9054
   81MOL0     H10911  10.349   5.076  11.692 -0.1623  0.9582 -1.8734
   81MOL0     H10912  10.509   5.092  11.754  1.5179 -1.3100 -3.6972
   81MOL0     H10913  10.392   5.176  11.499  1.1618 -1.8378 -1.5801
   81MOL0     H10914  10.534   5.265  11.551 -0.5865  0.6708  5.5271
   81MOL0     H10915   9.978   5.813  11.382 -2.7291 -0.2049 -4.4745
   81MOL0     H10916   9.931   5.935  11.221  0.0181  0.0365  2.7402
   81MOL0     H10917   9.668   6.002  10.878 -0.7322  0.3935 -0.6715
   81MOL0     H10918   9.579   6.166  10.719  0.6084 -4.2255 -3.3019
   81MOL0     H10919   8.242   6.119   9.432 -0.8803  0.7972  0.0931
   81MOL0     H10920   8.119   5.919   9.338  0.9390  1.5192 -0.8090
   81MOL0     H10921   7.783   5.549   9.500  3.0007  1.0729  0.3790
   81MOL0     H10922   7.654   5.346   9.423 -1.5837 -4.3833 -3.0128
   81MOL0     H10923   7.592   5.322   9.156  2.8129  0.7183  1.9214
   81MOL0     H10924   7.525   5.173   9.229  0.5331 -0.9525 -0.7960
   81MOL0     H10925   7.521   5.177   8.973  0.3788  1.0673  0.2487
   81MOL0     H10926   7.579   5.036   9.066  3.6045 -0.4806  0.1709
   81MOL0     H10927   7.709   5.073   8.866  0.9132  0.8229 -0.9400
   81MOL0     H10928   7.817   5.099   9.009  1.8103  2.3232 -0.9071
   81MOL0     H10929   7.683   5.329   8.843  0.9856 -1.0261 -2.7269
   81MOL0     H10930   7.774   5.345   8.988 -0.1519 -2.0612  0.3786
   81MOL0     H10931   8.081   5.268   8.695  0.3781 -0.4831  1.8635
   81MOL0     H10932   7.949   5.282   9.124 -0.3751 -0.5977 -0.4884
   81MOL0     H10933   8.170   5.384   9.148  0.2456 -0.0214  2.6600
   81MOL0     H10934   8.084   5.521   9.071  1.1033  3.6400  1.4474
   81MOL0     H10935   8.175   5.536   9.223 -0.8854 -1.7493  3.3805
   82MOL0     O10936   6.521  10.323   0.782 -0.3333 -0.2651  0.0797
   82MOL0     C10937   6.542  10.294   0.901  0.0190 -0.8602 -0.4232
   82MOL0     O10938   6.543  10.167   0.945  0.2137 -0.0980 -0.6378
   82MOL0     C10939   6.519  10.063   0.859 -0.2863 -0.1329 -0.6024
   82MOL0     C10940   6.467   9.956   0.930 -0.5045 -0.6371  0.1248
   82MOL0     C10941   6.428   9.835   0.866  0.9578 -1.0280 -0.0009
   82MOL0     C10942   6.449   9.819   0.735  0.9469 -0.3337  0.9217
   82MOL0     O10943   6.405   9.712   0.676  0.2871  0.9836  0.3138
   82MOL0     C10944   6.286   9.731   0.600  0.8925  0.4698 -0.4638
   82MOL0     C10945   6.237   9.595   0.524 -0.0415 -0.3796 -0.3738
   82MOL0     C10946   6.357   9.515   0.477  0.1055 -0.0715 -0.2042
   82MOL0     C10947   6.395   9.405   0.579 -0.8961 -0.6878  0.2074
   82MOL0     C10948   6.527   9.347   0.535 -0.1827 -0.2575  0.1611
   82MOL0     C10949   6.636   9.458   0.514 -1.3314  0.6673 -0.4940
   82MOL0     C10950   6.673   9.485   0.365 -1.1331 -0.4320  0.6530
   82MOL0     C10951   6.751   9.613   0.335  0.1887 -0.5437 -0.2205
   82MOL0     N10952   6.851   9.637   0.434 -0.0571  0.3193 -1.5456
   82MOL0     C10953   6.849   9.758   0.501  0.6013  0.8761  0.6728
   82MOL0     C10954   6.967   9.762   0.564 -0.1099 -0.8511 -0.5024
   82MOL0     C10955   7.036   9.865   0.646  0.5532 -1.1470  0.4004
   82MOL0     C10956   7.124   9.948   0.552 -0.1066  0.4275  1.1137
   82MOL0     C10957   7.058  10.078   0.512 -0.0749  1.1706  0.3919
   82MOL0     C10958   7.085  10.209   0.593 -0.3520 -0.1027  1.2175
   82MOL0     O10959   7.209  10.246   0.547  0.2658  0.3127 -0.2511
   82MOL0     C10960   7.230  10.377   0.546 -1.1481 -0.2461 -0.6100
   82MOL0     C10961   7.235  10.450   0.430  0.0894 -0.9743  0.1485
   82MOL0     C10962   7.245  10.587   0.433  0.1513 -0.5900  0.5408
   82MOL0     C10963   7.265  10.657   0.557 -0.6264 -0.4938  0.3893
   82MOL0     C10964   7.294  10.801   0.578 -0.3811  0.2866  0.6910
   82MOL0     O10965   7.383  10.852   0.491  0.1688 -0.2071  0.9621
   82MOL0     C10966   7.372  10.994   0.465  0.1014  0.2691 -0.2171
   82MOL0     C10967   7.483  11.041   0.387  0.7017 -0.4404 -0.0615
   82MOL0     C10968   7.500  11.176   0.361  0.4760  0.0183 -0.0153
   82MOL0     C10969   7.404  11.272   0.396 -0.1354 -0.2335 -0.2640
   82MOL0     O10970   7.422  11.399   0.353  0.7845 -0.3225  0.9425
   82MOL0     C10971   7.546  11.477   0.363 -0.8705  0.3225  0.9815
   82MOL0     C10972   7.563  11.526   0.510 -0.5095  0.7705 -0.6884
   82MOL0     C10973   7.693  11.617   0.531 -0.4721 -0.0216  0.0857
   82MOL0     C10974   7.681  11.752   0.442 -0.6987  0.8799 -0.0803
   82MOL0     C10975   7.805  11.846   0.455 -0.5893  0.0383  0.2214
   82MOL0     C10976   7.938  11.810   0.383  0.7101 -0.6444 -0.0032
   82MOL0     C10977   8.039  11.925   0.395  0.2566  0.9318 -0.1428
   82MOL0     C10978   8.170  11.872   0.337  0.2858  0.5345  0.2725
   82MOL0    Cl10979   8.289  11.997   0.345 -0.4189  0.1791  0.0253
   82MOL0     C10980   7.290  11.225   0.455  0.7491  0.7794 -0.4970
   82MOL0     C10981   7.277  11.089   0.494 -0.4555  0.8556  0.1446
   82MOL0     O10982   7.224  10.855   0.659 -0.2204 -0.1519 -0.1899
   82MOL0     C10983   7.266  10.574   0.668 -0.5753  0.4005 -0.8446
   82MOL0     C10984   7.251  10.434   0.666 -0.0966 -0.7248 -0.3485
   82MOL0     N10985   7.039   9.651   0.534  0.5167  0.1134 -0.4652
   82MOL0     N10986   6.975   9.589   0.446 -0.8869 -0.3085  0.3062
   82MOL0     C10987   6.513   9.917   0.664 -0.2151 -0.6221 -0.1511
   82MOL0     C10988   6.538  10.045   0.720  0.2626 -0.2136 -0.0223
   82MOL0     C10989   6.568  10.411   0.997 -0.5627 -0.1692  0.5964
   82MOL0     C10990   6.646  10.381   1.105 -0.0792 -0.2029  0.2598
   82MOL0     C10991   6.692  10.489   1.189  1.0503  0.2595  0.3830
   82MOL0     C10992   6.647  10.612   1.174  1.1913  0.1991  0.4946
   82MOL0     O10993   6.683  10.719   1.255  0.3743 -0.5217  0.4080
   82MOL0     C10994   6.816  10.729   1.309  0.6064  0.2796  0.1320
   82MOL0     C10995   6.812  10.711   1.454  0.0175  0.7212 -0.4412
   82MOL0     C10996   6.720  10.821   1.521  0.0156 -0.1077 -0.3659
   82MOL0     C10997   6.737  10.968   1.495  1.0260  0.0092  0.3551
   82MOL0     C10998   6.878  11.009   1.493 -0.8398  1.2882  1.0445
   82MOL0     C10999   6.991  11.035   1.489 -0.8552  0.8945  0.1657
   82MOL0     C11000   6.545  10.636   1.086  1.0408 -0.6926 -0.0078
   82MOL0     C11001   6.506  10.544   0.981 -0.7246 -0.0075 -0.2381
   82MOL0     C11002   6.408  10.582   0.878  0.4960 -1.1478  1.0452
   82MOL0     H11003   6.455   9.973   1.036 -1.2344 -0.3614  0.0025
   82MOL0     H11004   6.384   9.762   0.933  1.5669 -0.8318  0.6187
   82MOL0     H11005   6.198   9.772   0.651 -0.7486 -1.7770 -1.2877
   82MOL0     H11006   6.308   9.804   0.522  0.4749  0.0660 -0.9663
   82MOL0     H11007   6.169   9.638   0.450  0.5637  4.6739  1.5771
   82MOL0     H11008   6.182   9.530   0.593 -2.5833  2.9975  1.1102
   82MOL0     H11009   6.437   9.585   0.453  1.5348 -1.7024 -0.3380
   82MOL0     H11010   6.336   9.480   0.375 -1.3587  0.3128 -0.0639
   82MOL0     H11011   6.391   9.444   0.681  2.7999 -0.4335  0.4087
   82MOL0     H11012   6.324   9.322   0.578 -3.3465  1.2813  0.2507
   82MOL0     H11013   6.566   9.284   0.615 -0.9634 -1.3702 -0.3084
   82MOL0     H11014   6.530   9.290   0.442  2.0066  1.8985 -1.2146
   82MOL0     H11015   6.612   9.552   0.565 -2.3231 -0.7480  1.8008
   82MOL0     H11016   6.722   9.417   0.567 -1.6645  0.4603 -0.1075
   82MOL0     H11017   6.577   9.488   0.312 -0.5151  0.5043 -0.4643
   82MOL0     H11018   6.727   9.402   0.318  2.7470 -0.2207  4.1230
   82MOL0     H11019   6.800   9.602   0.238 -1.9365  1.9910 -1.6940
   82MOL0     H11020   6.670   9.686   0.342 -1.4050 -2.2817  0.5255
   82MOL0     H11021   6.773   9.835   0.507 -1.4356 -0.5851 -3.1751
   82MOL0     H11022   6.963   9.939   0.680  0.9762  0.3251 -1.6824
   82MOL0     H11023   7.097   9.816   0.722  0.7882 -0.5980  0.5704
   82MOL0     H11024   7.213   9.972   0.610  1.0130 -1.0591  0.0876
   82MOL0     H11025   7.161   9.894   0.464  1.8588  3.2793  0.0721
   82MOL0     H11026   6.952  10.051   0.518  0.5487 -1.7443 -0.0892
   82MOL0     H11027   7.076  10.091   0.405 -1.9485  0.3383 -0.0708
   82MOL0     H11028   7.087  10.187   0.700  1.3042 -4.8153  0.4386
   82MOL0     H11029   7.011  10.289   0.575 -1.1202 -1.3417 -1.8604
   82MOL0     H11030   7.206  10.401   0.337 -0.0199  0.4597 -0.5945
   82MOL0     H11031   7.251  10.641   0.338 -1.9330  0.8682  1.1565
   82MOL0     H11032   7.553  10.961   0.366  0.9639 -0.9064  2.2776
   82MOL0     H11033   7.585  11.201   0.298  0.5280 -2.9738 -1.3105
   82MOL0     H11034   7.633  11.438   0.308 -2.6344  2.5775 -4.0920
   82MOL0     H11035   7.521  11.560   0.297  1.9726  0.4138 -0.1240
   82MOL0     H11036   7.472  11.577   0.544 -0.7402 -2.0488  3.7420
   82MOL0     H11037   7.573  11.436   0.571  0.2063  0.4237 -1.3075
   82MOL0     H11038   7.708  11.648   0.635  2.1911  1.4896 -0.6574
   82MOL0     H11039   7.784  11.569   0.496 -2.5315 -2.0977 -2.9575
   82MOL0     H11040   7.595  11.804   0.484 -1.9599 -2.1256  1.4197
   82MOL0     H11041   7.665  11.733   0.335  2.5863  1.6011 -0.7992
   82MOL0     H11042   7.823  11.876   0.558  4.0731 -1.6433  0.1540
   82MOL0     H11043   7.767  11.937   0.408 -1.9846 -0.5645  0.1153
   82MOL0     H11044   7.986  11.728   0.438  0.0685 -0.7706  0.3778
   82MOL0     H11045   7.909  11.782   0.281  1.6911  1.7791 -1.0132
   82MOL0     H11046   8.045  11.957   0.499 -2.3126 -3.0342  1.4637
   82MOL0     H11047   8.009  12.011   0.333  0.3986  0.0229 -1.5334
   82MOL0     H11048   8.216  11.786   0.387  0.6691 -0.7435 -2.1380
   82MOL0     H11049   8.150  11.840   0.234 -1.1207  1.0007  0.3804
   82MOL0     H11050   7.212  11.298   0.475  0.7177  0.9973 -1.3880
   82MOL0     H11051   7.191  11.057   0.552  1.4746  0.2548  2.8431
   82MOL0     H11052   7.283  10.631   0.759  0.9291  0.7496 -1.3102
   82MOL0     H11053   7.263  10.370   0.753  1.0848 -1.1556 -0.8113
   82MOL0     H11054   6.513   9.897   0.557  0.7551 -1.4412 -0.0072
   82MOL0     H11055   6.584  10.123   0.660 -1.7773  0.1796 -1.1600
   82MOL0     H11056   6.687  10.285   1.134  0.9462 -0.1713 -0.9930
   82MOL0     H11057   6.764  10.454   1.263  1.7279 -0.8933 -0.7831
   82MOL0     H11058   6.855  10.820   1.261 -0.9319  1.5455  1.1888
   82MOL0     H11059   6.876  10.650   1.263 -0.4931 -0.8110  0.5380
   82MOL0     H11060   6.910  10.722   1.500 -0.8280  0.6966  1.4481
   82MOL0     H11061   6.775  10.612   1.483  1.9634  0.0206 -0.2186
   82MOL0     H11062   6.730  10.807   1.629 -0.9816 -1.7063 -0.4568
   82MOL0     H11063   6.618  10.801   1.488  0.2961  0.0485 -1.3662
   82MOL0     H11064   6.688  11.000   1.403 -0.2257  1.2376  1.4166
   82MOL0     H11065   6.691  11.025   1.575  2.2595  1.6355 -0.0210
   82MOL0     H11066   7.094  11.061   1.506 -0.9007 -0.4457  3.3150
   82MOL0     H11067   6.491  10.730   1.096  2.0797 -0.2088  1.3788
   82MOL0     H11068   6.457  10.605   0.783  3.7842  0.7976  3.0194
   82MOL0     H11069   6.335  10.501   0.866 -1.9910  0.8725  1.5308
   82MOL0     H11070   6.356  10.671   0.914 -0.3834 -1.3259  0.2639
   83MOL0     O11071  10.997   2.294   3.064  0.6245  0.8731  0.0012
   83MOL0     C11072  11.010   2.249   3.182  0.1934  1.0179  0.2934
   83MOL0     O11073  11.056   2.121   3.201  0.7772 -0.5506 -0.0942
   83MOL0     C11074  11.103   2.049   3.098 -0.0100 -0.6515  0.3994
   83MOL0     C11075  11.057   1.913   3.079 -0.3610  0.0119 -0.7483
   83MOL0     C11076  11.100   1.827   2.980 -0.1040 -0.6485  0.3902
   83MOL0     C11077  11.194   1.871   2.895 -0.1254  0.6106  0.2217
   83MOL0     O11078  11.260   1.784   2.806 -0.0251 -0.1342 -0.2984
   83MOL0     C11079  11.180   1.669   2.770 -0.0984 -0.3746  0.4613
   83MOL0     C11080  11.094   1.704   2.643  0.0402  0.2829  0.4284
   83MOL0     C11081  11.185   1.720   2.517  0.7871 -0.4339 -0.2299
   83MOL0     C11082  11.094   1.762   2.394 -0.5942  0.9992 -0.8633
   83MOL0     C11083  11.168   1.778   2.257 -0.0479 -0.4649  0.0152
   83MOL0     C11084  11.318   1.825   2.248  0.9490 -0.8264  0.6637
   83MOL0     C11085  11.354   1.893   2.114 -0.3748  0.9274  0.2530
   83MOL0     C11086  11.272   2.018   2.087  1.2409 -0.0793  0.5663
   83MOL0     N11087  11.333   2.115   2.004 -0.0654 -0.8131 -0.2081
   83MOL0     C11088  11.425   2.089   1.902 -1.4407  0.2863 -0.2231
   83MOL0     C11089  11.485   2.208   1.866  0.0123  0.2473  0.8391
   83MOL0     C11090  11.580   2.230   1.752 -0.1165  1.2047 -0.0177
   83MOL0     C11091  11.712   2.143   1.772  0.5068 -0.5556 -0.0131
   83MOL0     C11092  11.794   2.199   1.898 -0.4528  0.2707 -0.0078
   83MOL0     C11093  11.917   2.119   1.916  1.4981 -0.6718 -0.6537
   83MOL0     O11094  11.991   2.072   1.802  0.9585 -0.4997  0.2204
   83MOL0     C11095  12.064   2.182   1.740  0.4705  0.6162 -0.2682
   83MOL0     C11096  12.084   2.309   1.796  0.4313  0.4614 -0.2026
   83MOL0     C11097  12.163   2.400   1.723  0.5333 -0.5361  0.4551
   83MOL0     C11098  12.210   2.380   1.594  0.6657  0.4177  0.6975
   83MOL0     C11099  12.268   2.485   1.521  0.5664 -0.4185 -0.1759
   83MOL0     O11100  12.288   2.461   1.387 -0.2168  0.2862 -0.6597
   83MOL0     C11101  12.337   2.553   1.293 -0.2022  0.5962 -0.3181
   83MOL0     C11102  12.317   2.516   1.157 -1.4708 -0.1802 -0.7102
   83MOL0     C11103  12.366   2.611   1.059 -0.4292 -1.3119 -0.6176
   83MOL0     C11104  12.449   2.722   1.098  0.4882 -0.4435 -0.2486
   83MOL0     O11105  12.480   2.819   1.008  0.1455 -0.4721 -0.9014
   83MOL0     C11106  12.611   2.868   1.023 -0.7719  0.1835  0.3644
   83MOL0     C11107  12.714   2.825   0.906  0.1078  0.8297 -0.1677
   83MOL0     C11108  12.683   2.881   0.766  0.1056  0.1445  1.0175
   83MOL0     C11109  12.559   2.824   0.701 -0.1235  0.4606 -0.6624
   83MOL0     C11110  12.514   2.879   0.567  0.1702  1.3565  1.0090
   83MOL0     C11111  12.623   2.873   0.462 -0.3559  1.4373 -1.3141
   83MOL0     C11112  12.562   2.874   0.318  0.3088  0.2272 -0.4555
   83MOL0     C11113  12.674   2.843   0.214  0.6199  0.2339 -0.7305
   83MOL0    Cl11114  12.814   2.941   0.244 -0.0834  0.1991 -0.0346
   83MOL0     C11115  12.469   2.742   1.240 -0.3794  0.7240  0.2371
   83MOL0     C11116  12.411   2.659   1.331 -0.6632  0.0905  0.1804
   83MOL0     O11117  12.292   2.589   1.587 -0.4336  0.3706 -0.4042
   83MOL0     C11118  12.177   2.258   1.535 -0.3543  0.7121 -0.1477
   83MOL0     C11119  12.109   2.160   1.614 -0.2578 -0.8087 -0.5930
   83MOL0     N11120  11.439   2.308   1.950  0.1259  0.4344  0.7480
   83MOL0     N11121  11.343   2.250   2.024 -0.0721  0.2190 -0.0975
   83MOL0     C11122  11.255   1.999   2.912 -0.7881  0.1503 -0.2981
   83MOL0     C11123  11.212   2.093   3.013  0.3483  1.1372  0.9354
   83MOL0     C11124  10.948   2.316   3.298  0.8038  0.8266 -0.2972
   83MOL0     C11125  10.939   2.251   3.424  0.4800  0.1499 -0.7567
   83MOL0     C11126  10.882   2.314   3.535  0.0759 -0.0034  0.9143
   83MOL0     C11127  10.837   2.443   3.539  0.0082 -0.3675  0.0828
   83MOL0     O11128  10.778   2.478   3.662  0.8673  0.2768  0.5673
   83MOL0     C11129  10.754   2.616   3.704  0.8962 -0.1991 -0.5959
   83MOL0     C11130  10.873   2.705   3.692 -0.5529  0.3207  0.1080
   83MOL0     C11131  11.013   2.634   3.740 -0.0100 -0.2332  0.1325
   83MOL0     C11132  11.096   2.727   3.828 -0.6119 -0.9871  0.9497
   83MOL0     C11133  11.134   2.850   3.755 -0.1582  0.7367  0.3258
   83MOL0     C11134  11.169   2.946   3.687 -0.4069  0.1063  0.3962
   83MOL0     C11135  10.862   2.514   3.417  1.0011  0.7525 -0.5665
   83MOL0     C11136  10.916   2.456   3.299 -0.0754 -0.4618  0.4924
   83MOL0     C11137  10.927   2.555   3.181 -0.3315  0.8981 -0.1407
   83MOL0     H11138  10.985   1.891   3.157 -0.2708 -0.0513 -0.6824
   83MOL0     H11139  11.044   1.736   2.997 -1.1077 -0.9289 -3.3990
   83MOL0     H11140  11.248   1.588   2.743 -0.0838 -0.6499  1.3017
   83MOL0     H11141  11.114   1.623   2.845 -1.6028 -1.2287 -1.2784
   83MOL0     H11142  11.027   1.789   2.659  2.6872  2.0328  2.9197
   83MOL0     H11143  11.030   1.620   2.614  0.2614 -0.2992  1.5787
   83MOL0     H11144  11.248   1.634   2.492  0.7044 -0.7065  0.4962
   83MOL0     H11145  11.258   1.802   2.523  1.3326 -0.8764 -0.6370
   83MOL0     H11146  11.008   1.697   2.383  1.5314 -2.1557 -0.0715
   83MOL0     H11147  11.058   1.862   2.418 -1.1469  0.1582  2.1239
   83MOL0     H11148  11.139   1.684   2.209 -2.7434 -1.2700  2.9058
   83MOL0     H11149  11.112   1.861   2.213 -1.7684 -1.4953  0.1642
   83MOL0     H11150  11.330   1.900   2.327  0.4003  0.1619 -0.1788
   83MOL0     H11151  11.384   1.738   2.253  3.0584  0.5826 -0.8484
   83MOL0     H11152  11.350   1.828   2.026 -1.5793 -0.7962  1.5003
   83MOL0     H11153  11.461   1.911   2.127 -0.5517  0.7146  2.3372
   83MOL0     H11154  11.179   1.988   2.038  1.1836 -1.2525  1.3536
   83MOL0     H11155  11.238   2.060   2.182 -0.6437  0.0532 -0.1278
   83MOL0     H11156  11.429   1.991   1.856 -0.4360  0.2180 -0.0098
   83MOL0     H11157  11.539   2.199   1.656  4.9491 -4.0473 -1.0305
   83MOL0     H11158  11.610   2.335   1.756  0.0259  1.1395  0.8968
   83MOL0     H11159  11.679   2.040   1.790 -1.4293 -0.3901 -2.0663
   83MOL0     H11160  11.772   2.142   1.681  0.0614 -0.1646 -0.3195
   83MOL0     H11161  11.730   2.178   1.984  1.0315  0.6934  1.2436
   83MOL0     H11162  11.806   2.307   1.897  0.7653  0.1541  0.4262
   83MOL0     H11163  11.891   2.024   1.964  0.1653  1.8198  4.1420
   83MOL0     H11164  11.979   2.171   1.990 -2.5933  1.8752  1.3330
   83MOL0     H11165  12.021   2.344   1.878  0.0563  2.7959 -1.4227
   83MOL0     H11166  12.198   2.490   1.773  3.5964  1.0099 -3.8710
   83MOL0     H11167  12.238   2.442   1.146  1.7984 -4.7620  2.8139
   83MOL0     H11168  12.337   2.595   0.956 -1.9201 -3.2313  0.0324
   83MOL0     H11169  12.615   2.978   1.017  2.1874  0.3888  3.2753
   83MOL0     H11170  12.656   2.853   1.121 -1.6197 -0.7470  0.6295
   83MOL0     H11171  12.814   2.853   0.942  0.3428 -3.7593  3.7583
   83MOL0     H11172  12.719   2.716   0.910  0.3826  0.8642  0.5338
   83MOL0     H11173  12.669   2.990   0.767 -3.5036 -0.0921 -2.0591
   83MOL0     H11174  12.768   2.861   0.700 -0.8647  0.8635 -0.4976
   83MOL0     H11175  12.470   2.845   0.762 -0.5106  1.1957 -1.4535
   83MOL0     H11176  12.578   2.716   0.694  1.6072  0.0373  5.0507
   83MOL0     H11177  12.478   2.982   0.566 -2.1686  0.6195  0.9820
   83MOL0     H11178  12.427   2.815   0.548 -0.2085  2.6257 -2.0823
   83MOL0     H11179  12.688   2.960   0.475  1.7518 -0.2326 -0.1779
   83MOL0     H11180  12.682   2.782   0.472 -3.0371 -0.3476 -0.5373
   83MOL0     H11181  12.519   2.973   0.302 -0.0177 -0.1497 -2.0299
   83MOL0     H11182  12.489   2.794   0.302 -0.4696  0.9990 -0.8474
   83MOL0     H11183  12.700   2.736   0.218 -0.2823  0.0352  0.3972
   83MOL0     H11184  12.629   2.860   0.116  1.4852 -0.6653 -1.3081
   83MOL0     H11185  12.515   2.834   1.276  1.1555  0.7786 -1.6831
   83MOL0     H11186  12.426   2.683   1.436  1.3517  3.0459 -0.6611
   83MOL0     H11187  12.203   2.233   1.432  0.1074 -0.0205  0.1378
   83MOL0     H11188  12.082   2.067   1.564  2.8384 -2.2993  0.2720
   83MOL0     H11189  11.350   2.023   2.866 -0.0936  1.2602  1.6130
   83MOL0     H11190  11.277   2.179   3.029  0.5516  1.2082 -0.1739
   83MOL0     H11191  10.995   2.161   3.450 -2.1979 -1.1685  0.9123
   83MOL0     H11192  10.889   2.264   3.631  0.5137  2.9281  2.5516
   83MOL0     H11193  10.712   2.624   3.804  2.5464  1.6868  0.0150
   83MOL0     H11194  10.672   2.661   3.648  1.8240  1.5090 -0.6561
   83MOL0     H11195  10.854   2.792   3.757  1.8253 -1.0422  2.8292
   83MOL0     H11196  10.889   2.732   3.587 -0.6391  0.9888  0.2605
   83MOL0     H11197  11.077   2.604   3.656  0.8248  1.3615  0.1505
   83MOL0     H11198  10.980   2.554   3.806 -1.6818  0.4908  0.2333
   83MOL0     H11199  11.030   2.760   3.908 -3.6022 -0.1974 -1.6331
   83MOL0     H11200  11.181   2.678   3.877  1.1592  0.1410 -0.8391
   83MOL0     H11201  11.193   3.028   3.624 -1.0784 -0.6282 -0.8420
   83MOL0     H11202  10.819   2.614   3.425 -2.9381 -0.8976  2.3419
   83MOL0     H11203  10.878   2.509   3.095 -1.5451 -1.3527  1.6384
   83MOL0     H11204  10.880   2.650   3.205 -2.0792 -0.2326  1.1699
   83MOL0     H11205  11.031   2.563   3.148 -0.3672  0.3197 -0.4055
   84MOL0     O11206   6.845   9.704   7.869 -0.4821 -1.1703  0.3868
   84MOL0     C11207   6.726   9.718   7.826 -0.5051 -0.3667 -0.4019
   84MOL0     O11208   6.610   9.705   7.894  0.8094 -0.0558  0.0011
   84MOL0     C11209   6.614   9.725   8.025  0.2665  0.1049  0.2829
   84MOL0     C11210   6.666   9.842   8.084  0.3429  0.5244  0.5442
   84MOL0     C11211   6.671   9.869   8.221 -0.4109 -0.0129 -0.3123
   84MOL0     C11212   6.628   9.770   8.312 -0.0984  0.0384 -0.3082
   84MOL0     O11213   6.628   9.780   8.448  0.2446 -0.6288  0.5641
   84MOL0     C11214   6.706   9.884   8.514  0.5198  0.3999 -0.6691
   84MOL0     C11215   6.748   9.820   8.642  0.1372  0.4677 -0.7548
   84MOL0     C11216   6.859   9.716   8.614  0.2081  0.8869 -0.1679
   84MOL0     C11217   6.894   9.613   8.735 -0.2138 -0.5495  0.0823
   84MOL0     C11218   7.027   9.534   8.699 -0.2880  0.8887 -0.6128
   84MOL0     C11219   7.150   9.624   8.679 -0.5735  0.3634 -0.3542
   84MOL0     C11220   7.285   9.544   8.665 -0.1684 -0.0065 -0.0775
   84MOL0     C11221   7.311   9.476   8.808  0.4181  0.4793  0.1332
   84MOL0     N11222   7.458   9.438   8.816 -1.2037 -0.1115 -0.1625
   84MOL0     C11223   7.562   9.519   8.823  0.2833 -0.4852 -0.9866
   84MOL0     C11224   7.675   9.454   8.827 -0.6966  0.0377 -0.8815
   84MOL0     C11225   7.816   9.503   8.809 -0.9186 -0.2328  0.1169
   84MOL0     C11226   7.853   9.635   8.880  0.4257  0.5568 -0.2306
   84MOL0     C11227   7.996   9.672   8.880 -0.5058 -1.3403 -1.4143
   84MOL0     C11228   8.040   9.697   8.731 -0.2028  0.0198  0.4136
   84MOL0     O11229   7.961   9.789   8.655  0.2054  0.4568  0.6213
   84MOL0     C11230   7.971   9.927   8.664 -0.9997  0.3968 -0.1328
   84MOL0     C11231   8.063  10.016   8.714 -0.6439  0.0308  0.0474
   84MOL0     C11232   8.038  10.147   8.721  0.0401  0.0913  1.1370
   84MOL0     C11233   7.936  10.196   8.639 -0.2132  0.6975 -0.2082
   84MOL0     C11234   7.926  10.341   8.612 -0.4452  0.1298 -0.4942
   84MOL0     O11235   7.835  10.376   8.519  0.3678  0.4986 -1.0907
   84MOL0     C11236   7.814  10.510   8.498 -0.1049 -0.2454 -1.4015
   84MOL0     C11237   7.813  10.611   8.603 -0.0727 -0.0764  0.0294
   84MOL0     C11238   7.792  10.748   8.581 -0.3222  0.6459 -0.5607
   84MOL0     C11239   7.750  10.781   8.450  0.7645 -0.0162  0.2118
   84MOL0     O11240   7.736  10.917   8.434  0.8294 -0.3958  0.3366
   84MOL0     C11241   7.796  10.988   8.317  0.5489  0.0643  0.8093
   84MOL0     C11242   7.725  11.119   8.272 -0.3740 -0.0071 -0.2640
   84MOL0     C11243   7.610  11.071   8.190 -1.4577 -0.3254  0.4022
   84MOL0     C11244   7.476  11.056   8.268  0.4707 -0.1819  0.6497
   84MOL0     C11245   7.412  10.936   8.202  0.1011  1.3615 -0.1145
   84MOL0     C11246   7.264  10.924   8.221 -0.1484 -0.3398  1.0250
   84MOL0     C11247   7.199  10.803   8.158  0.1525 -0.0763  0.2334
   84MOL0     C11248   7.130  10.715   8.257  0.3470  0.7544 -0.9758
   84MOL0    Cl11249   6.977  10.792   8.294 -0.0939  0.0160 -0.4962
   84MOL0     C11250   7.728  10.679   8.349  0.0173 -0.5736 -0.3556
   84MOL0     C11251   7.776  10.553   8.373  0.8421  0.4966 -0.0992
   84MOL0     O11252   8.004  10.413   8.682  0.1105 -0.2267  0.0829
   84MOL0     C11253   7.852  10.108   8.569  0.1041 -0.4615  0.0126
   84MOL0     C11254   7.867   9.969   8.579 -0.2792  0.1204 -0.1543
   84MOL0     N11255   7.638   9.316   8.815  0.0274 -0.3937  0.4820
   84MOL0     N11256   7.516   9.313   8.823  0.1678 -0.0303  0.0035
   84MOL0     C11257   6.568   9.661   8.257 -1.1621 -0.8995  0.9480
   84MOL0     C11258   6.564   9.637   8.119  0.6424  0.1973  0.4139
   84MOL0     C11259   6.717   9.739   7.683  0.6632  0.1421  0.3473
   84MOL0     C11260   6.637   9.644   7.617 -0.6280  0.5035  0.5341
   84MOL0     C11261   6.635   9.644   7.473  0.2564  0.0799 -0.3293
   84MOL0     C11262   6.705   9.729   7.405  0.2267 -0.4649 -0.5296
   84MOL0     O11263   6.707   9.720   7.270 -0.7548 -0.0571  0.9107
   84MOL0     C11264   6.699   9.834   7.181 -0.1519  1.2422 -0.1315
   84MOL0     C11265   6.569   9.902   7.223 -0.2459 -0.5335  0.2375
   84MOL0     C11266   6.489   9.986   7.113  0.2648  0.4518 -0.3024
   84MOL0     C11267   6.555  10.084   7.011 -0.4736 -0.0021  0.7169
   84MOL0     C11268   6.662  10.023   6.926 -0.7941  0.4301  0.5214
   84MOL0     C11269   6.737   9.952   6.868  0.2292 -0.2850  0.9958
   84MOL0     C11270   6.772   9.830   7.472 -0.5801  0.4988 -0.6924
   84MOL0     C11271   6.785   9.834   7.607 -0.3428 -0.5750 -0.2619
   84MOL0     C11272   6.878   9.936   7.679  0.2230 -0.5055  0.6191
   84MOL0     H11273   6.700   9.917   8.014  0.8755  1.7118  2.0087
   84MOL0     H11274   6.717   9.963   8.249  2.0809 -0.9374 -1.0225
   84MOL0     H11275   6.791   9.918   8.454 -0.7830 -1.4879 -3.8033
   84MOL0     H11276   6.650   9.974   8.540  3.3594  1.6047  1.8617
   84MOL0     H11277   6.657   9.780   8.686  0.1929 -0.0900 -1.1279
   84MOL0     H11278   6.785   9.897   8.710 -0.6972 -1.0481  1.4907
   84MOL0     H11279   6.945   9.769   8.574 -0.3043  1.5922 -0.3663
   84MOL0     H11280   6.813   9.655   8.536 -2.3487  4.8890 -2.1320
   84MOL0     H11281   6.893   9.667   8.830 -2.2812 -0.6757  0.1666
   84MOL0     H11282   6.814   9.541   8.756 -0.7606 -0.2476 -0.9150
   84MOL0     H11283   7.045   9.461   8.778 -1.3429  2.4386  1.1698
   84MOL0     H11284   7.015   9.490   8.600 -1.6408  1.6863 -0.8391
   84MOL0     H11285   7.137   9.678   8.584  2.1715  1.0022 -0.4543
   84MOL0     H11286   7.159   9.696   8.760 -0.4266  0.8643 -0.8052
   84MOL0     H11287   7.355   9.613   8.617  0.7937 -0.1578  1.0497
   84MOL0     H11288   7.276   9.468   8.586 -0.9091 -0.4752  0.4464
   84MOL0     H11289   7.281   9.536   8.894  0.9374  0.8424  0.0693
   84MOL0     H11290   7.257   9.382   8.804  2.1596 -0.5246 -1.9913
   84MOL0     H11291   7.560   9.627   8.830  1.9624 -0.1827 -3.6485
   84MOL0     H11292   7.882   9.425   8.848  0.2879 -0.6696 -2.5360
   84MOL0     H11293   7.839   9.505   8.702  2.6987 -3.9510  0.5405
   84MOL0     H11294   7.796   9.715   8.831  0.9540  1.7148  0.9902
   84MOL0     H11295   7.819   9.627   8.984 -0.5601 -5.6273 -0.6623
   84MOL0     H11296   8.073   9.615   8.933 -0.1249  1.3477  1.1885
   84MOL0     H11297   7.997   9.772   8.924 -1.7104 -0.9952 -2.1198
   84MOL0     H11298   8.029   9.600   8.682 -3.0112 -0.3322  1.5715
   84MOL0     H11299   8.148   9.715   8.727  0.7259 -4.4968  0.4689
   84MOL0     H11300   8.146   9.974   8.770  0.8769  2.8400  0.1174
   84MOL0     H11301   8.114  10.209   8.768 -1.4069  2.4996  0.4808
   84MOL0     H11302   7.848  10.591   8.704 -0.7460 -1.2346  0.0437
   84MOL0     H11303   7.814  10.824   8.655  0.9383  0.4474 -0.7132
   84MOL0     H11304   7.893  11.028   8.350  1.3584  0.0010 -1.3006
   84MOL0     H11305   7.818  10.924   8.231 -0.5028  0.3999  0.2830
   84MOL0     H11306   7.688  11.169   8.362  4.0923  0.3114  1.6672
   84MOL0     H11307   7.778  11.196   8.216 -4.1085  3.3251  0.3878
   84MOL0     H11308   7.587  11.143   8.110 -2.4826  0.4772  1.3794
   84MOL0     H11309   7.653  10.983   8.141  3.6498  1.9141  0.2803
   84MOL0     H11310   7.415  11.146   8.257  0.0112 -0.6065 -0.5235
   84MOL0     H11311   7.483  11.044   8.376 -3.1282 -1.0443  0.9057
   84MOL0     H11312   7.452  10.845   8.246 -0.6696 -1.1316 -4.0550
   84MOL0     H11313   7.442  10.917   8.098 -0.2511  2.7701 -0.5072
   84MOL0     H11314   7.242  10.928   8.328 -2.7341 -4.5832  0.8872
   84MOL0     H11315   7.221  11.016   8.182 -0.3358 -0.6502  0.4877
   84MOL0     H11316   7.277  10.750   8.101 -3.5750 -0.6365 -5.1515
   84MOL0     H11317   7.131  10.831   8.078  0.9888 -0.8921 -0.8010
   84MOL0     H11318   7.115  10.617   8.211 -1.5232  0.8067 -0.5763
   84MOL0     H11319   7.181  10.694   8.352 -1.5689 -0.2050 -0.1106
   84MOL0     H11320   7.696  10.709   8.249 -1.6448 -3.2170 -0.7145
   84MOL0     H11321   7.756  10.479   8.296 -3.6330  1.5017 -0.1518
   84MOL0     H11322   7.759  10.135   8.520 -0.6070 -3.5365 -0.5852
   84MOL0     H11323   7.804   9.897   8.527 -1.2944  0.1038  1.0521
   84MOL0     H11324   6.536   9.587   8.330 -0.3514 -1.9268  0.2796
   84MOL0     H11325   6.554   9.534   8.087 -0.5847  0.0984  1.0387
   84MOL0     H11326   6.560   9.601   7.681  0.6223 -1.5526  0.7280
   84MOL0     H11327   6.578   9.570   7.418 -2.2595  0.2559  1.8254
   84MOL0     H11328   6.712   9.804   7.077  4.5435 -0.4491  0.7031
   84MOL0     H11329   6.784   9.898   7.206  0.6165  0.0131  0.4741
   84MOL0     H11330   6.597   9.971   7.303 -0.3399 -0.8059  0.5085
   84MOL0     H11331   6.501   9.821   7.251  1.4587 -1.6154  1.4529
   84MOL0     H11332   6.406  10.043   7.155  0.1109 -0.0580  0.0961
   84MOL0     H11333   6.447   9.904   7.054 -0.7798  0.6160  0.1840
   84MOL0     H11334   6.489  10.113   6.928  0.7209  0.7772  0.0153
   84MOL0     H11335   6.587  10.179   7.055  0.1513 -1.2056  3.0109
   84MOL0     H11336   6.790   9.886   6.802  0.0303  0.2153  0.3208
   84MOL0     H11337   6.831   9.906   7.420  3.4192  0.1243  2.7313
   84MOL0     H11338   6.815   9.973   7.761  1.4604  1.5989  0.6921
   84MOL0     H11339   6.977   9.898   7.702  1.7144  2.2015 -0.8374
   84MOL0     H11340   6.889  10.026   7.617 -0.2214 -0.6310  0.3507
   85MOL0     O11341   2.110   5.908   1.855 -0.7128 -0.1065  0.3901
   85MOL0     C11342   2.023   5.946   1.926 -0.4920  0.1100 -0.7232
   85MOL0     O11343   1.978   5.880   2.036  0.1320  0.5101  0.4623
   85MOL0     C11344   2.047   5.785   2.106 -0.3803 -0.2665 -0.2080
   85MOL0     C11345   1.965   5.695   2.175 -0.0862 -1.0276 -0.4233
   85MOL0     C11346   2.023   5.609   2.268 -0.9088 -0.0974 -0.0079
   85MOL0     C11347   2.161   5.611   2.289  1.0026  0.5961 -0.2123
   85MOL0     O11348   2.224   5.517   2.371  0.2588 -0.3892  0.0063
   85MOL0     C11349   2.164   5.382   2.387  0.7696  0.3105  0.2486
   85MOL0     C11350   2.199   5.299   2.261  0.1714 -0.6580  0.1764
   85MOL0     C11351   2.169   5.149   2.286  0.0657  1.0501  0.2565
   85MOL0     C11352   2.250   5.093   2.399  0.2501 -0.4120 -0.5897
   85MOL0     C11353   2.211   4.949   2.442 -0.3238  0.1789 -0.3287
   85MOL0     C11354   2.325   4.883   2.526  0.2121 -0.5633 -0.3492
   85MOL0     C11355   2.434   4.830   2.443 -0.5161 -0.2560 -0.2097
   85MOL0     C11356   2.539   4.737   2.508  0.7581  0.6043  0.5312
   85MOL0     N11357   2.632   4.710   2.399 -1.0702  0.5667 -0.5894
   85MOL0     C11358   2.764   4.736   2.387  0.1045  0.1528 -0.1731
   85MOL0     C11359   2.803   4.699   2.266  1.1822 -0.3051 -0.5979
   85MOL0     C11360   2.932   4.722   2.215 -0.6469 -0.2580 -0.1666
   85MOL0     C11361   2.951   4.864   2.170 -0.1349 -0.7340 -1.0298
   85MOL0     C11362   3.089   4.886   2.104  0.0248 -0.6635  0.0084
   85MOL0     C11363   3.211   4.858   2.196  0.5798 -0.1263 -0.2729
   85MOL0     O11364   3.211   4.952   2.300 -0.0484 -0.1551 -0.2247
   85MOL0     C11365   3.253   5.086   2.284 -0.4924  0.5791 -0.1209
   85MOL0     C11366   3.224   5.161   2.387  0.7473  0.2413 -0.5203
   85MOL0     C11367   3.271   5.296   2.394  1.3906 -0.8666  0.3103
   85MOL0     C11368   3.332   5.358   2.295  0.2379  0.3648  0.3652
   85MOL0     C11369   3.354   5.506   2.297 -0.0905 -0.4263  0.0100
   85MOL0     O11370   3.299   5.579   2.393  0.7108  0.0425 -0.6977
   85MOL0     C11371   3.389   5.657   2.464 -1.1889  0.4568 -0.2916
   85MOL0     C11372   3.355   5.788   2.476 -0.7503 -0.3497 -0.1989
   85MOL0     C11373   3.453   5.880   2.529  0.6705  0.2038 -0.5544
   85MOL0     C11374   3.564   5.841   2.599  0.1008  1.2733  0.8452
   85MOL0     O11375   3.653   5.933   2.641 -0.0152 -0.9680 -0.1589
   85MOL0     C11376   3.613   6.004   2.752  0.3866  0.9333 -0.4865
   85MOL0     C11377   3.696   6.134   2.766 -0.0430 -0.0872 -1.5037
   85MOL0     C11378   3.701   6.235   2.655 -0.1755 -1.4115 -0.2466
   85MOL0     C11379   3.564   6.315   2.639  1.4651 -0.5972 -0.0195
   85MOL0     C11380   3.539   6.403   2.517  0.1337 -0.0625  0.4413
   85MOL0     C11381   3.633   6.522   2.519 -0.5952  0.6590  0.2148
   85MOL0     C11382   3.593   6.624   2.411 -0.7054 -0.9512  0.1406
   85MOL0     C11383   3.685   6.744   2.415  0.2611 -0.3100  0.3993
   85MOL0    Cl11384   3.604   6.866   2.305  1.0170  0.3006  0.2761
   85MOL0     C11385   3.590   5.702   2.588 -0.1315  0.1266 -0.4542
   85MOL0     C11386   3.506   5.613   2.524 -0.5324  0.9845 -0.7294
   85MOL0     O11387   3.422   5.557   2.204  0.1575 -0.3704  0.1710
   85MOL0     C11388   3.351   5.280   2.180 -0.0191 -0.0748 -0.1058
   85MOL0     C11389   3.320   5.138   2.175 -0.3274 -0.9211  0.0115
   85MOL0     N11390   2.697   4.635   2.203 -0.3299 -0.7966  0.3081
   85MOL0     N11391   2.591   4.652   2.279 -0.8908 -0.0787 -0.4692
   85MOL0     C11392   2.242   5.712   2.233 -0.6154  1.4627  1.3695
   85MOL0     C11393   2.193   5.797   2.137 -0.5723 -0.3809 -0.4870
   85MOL0     C11394   1.946   6.067   1.912  1.1463 -0.0932 -0.3608
   85MOL0     C11395   1.927   6.148   2.028 -0.1934 -0.1216 -0.4430
   85MOL0     C11396   1.874   6.276   2.028  0.3612 -0.3020  0.3430
   85MOL0     C11397   1.834   6.319   1.901  0.1750  0.1740  0.5589
   85MOL0     O11398   1.771   6.444   1.871  0.2563  0.2757  0.8686
   85MOL0     C11399   1.628   6.425   1.901  0.1801 -0.1933 -0.5133
   85MOL0     C11400   1.562   6.552   1.945  0.3153 -1.6868  0.5119
   85MOL0     C11401   1.627   6.602   2.074  0.7788 -0.4814 -0.2379
   85MOL0     C11402   1.540   6.715   2.139 -1.2816  0.0397 -0.1372
   85MOL0     C11403   1.526   6.831   2.050 -0.4119  0.2908 -0.0638
   85MOL0     C11404   1.512   6.928   1.984 -0.4113 -0.7266 -0.5471
   85MOL0     C11405   1.870   6.251   1.782 -0.5264 -0.2035 -0.3753
   85MOL0     C11406   1.910   6.121   1.789 -0.6688  0.0374  0.0539
   85MOL0     C11407   1.921   6.040   1.658  0.7555  0.3948 -0.0872
   85MOL0     H11408   1.860   5.692   2.151 -0.3738  2.4291 -0.0938
   85MOL0     H11409   1.963   5.535   2.322  1.2671 -1.5498  0.5565
   85MOL0     H11410   2.205   5.346   2.481 -2.9792  2.1506  2.8719
   85MOL0     H11411   2.057   5.376   2.413  1.1521 -1.3290  1.6235
   85MOL0     H11412   2.302   5.314   2.228  0.7770  1.3884  2.7245
   85MOL0     H11413   2.136   5.307   2.171 -0.1342 -1.3080  0.3188
   85MOL0     H11414   2.195   5.091   2.197  2.9328  1.0005  1.0202
   85MOL0     H11415   2.063   5.128   2.303  0.6645 -2.0268  0.8714
   85MOL0     H11416   2.355   5.094   2.368  1.7252  1.5172  3.7125
   85MOL0     H11417   2.248   5.151   2.491  2.1993 -2.7047  1.0052
   85MOL0     H11418   2.123   4.946   2.507 -0.4391  0.9722 -0.4296
   85MOL0     H11419   2.185   4.889   2.354 -3.5266 -1.4442  1.5397
   85MOL0     H11420   2.365   4.947   2.605 -1.2220  1.2926 -1.0657
   85MOL0     H11421   2.266   4.806   2.577 -0.0315  0.4924  1.0066
   85MOL0     H11422   2.497   4.912   2.408 -1.3157 -0.0196 -1.1531
   85MOL0     H11423   2.386   4.793   2.351 -1.5259  2.1208 -0.6994
   85MOL0     H11424   2.584   4.797   2.588  2.5131  2.0602 -1.4528
   85MOL0     H11425   2.486   4.649   2.547  1.5586  0.1486  0.5976
   85MOL0     H11426   2.823   4.780   2.467 -1.4352 -0.5222  1.4138
   85MOL0     H11427   3.005   4.679   2.285 -0.2950  0.6850  0.0556
   85MOL0     H11428   2.933   4.661   2.124  0.4201  0.0647 -0.3783
   85MOL0     H11429   2.875   4.894   2.098  0.1711 -1.8643 -1.8472
   85MOL0     H11430   2.949   4.924   2.261 -1.5115 -0.9821 -0.8822
   85MOL0     H11431   3.092   4.986   2.059  0.3292 -1.4194 -1.7618
   85MOL0     H11432   3.087   4.819   2.017 -5.8775  1.1291 -1.7489
   85MOL0     H11433   3.302   4.859   2.135  0.6591  1.7555 -0.1755
   85MOL0     H11434   3.204   4.757   2.238 -2.2740  0.5573  1.1273
   85MOL0     H11435   3.160   5.112   2.460  4.3256 -3.3523  0.5369
   85MOL0     H11436   3.241   5.354   2.480  1.0742 -2.2376  1.1548
   85MOL0     H11437   3.284   5.835   2.408  0.9896  0.4092 -1.5933
   85MOL0     H11438   3.427   5.984   2.520 -0.9924 -0.2310 -1.0201
   85MOL0     H11439   3.507   6.031   2.762 -0.0881 -1.2343  1.1330
   85MOL0     H11440   3.636   5.944   2.841  3.3524  0.3504 -1.5519
   85MOL0     H11441   3.655   6.184   2.854 -0.1918 -2.0101 -0.4340
   85MOL0     H11442   3.801   6.106   2.780  0.1163  0.7379 -1.0363
   85MOL0     H11443   3.790   6.299   2.656 -1.5695  0.7533 -2.4273
   85MOL0     H11444   3.718   6.185   2.560 -2.2045  0.2002 -1.5576
   85MOL0     H11445   3.554   6.373   2.731 -1.7028 -3.0759  1.3682
   85MOL0     H11446   3.487   6.237   2.639 -0.7134  1.3996  2.0560
   85MOL0     H11447   3.434   6.432   2.508  0.5149  0.7663 -2.2854
   85MOL0     H11448   3.574   6.358   2.424  2.9512  2.0897  0.3337
   85MOL0     H11449   3.611   6.571   2.614 -1.3195 -0.3219  0.5648
   85MOL0     H11450   3.738   6.494   2.503 -0.3162 -0.1943  3.0272
   85MOL0     H11451   3.493   6.650   2.448 -0.2575  1.7529 -0.3508
   85MOL0     H11452   3.597   6.587   2.308  1.1428 -1.6880  0.4460
   85MOL0     H11453   3.693   6.789   2.514  1.1733  0.0217  0.1892
   85MOL0     H11454   3.789   6.720   2.388  0.6661 -0.2874  1.8432
   85MOL0     H11455   3.693   5.683   2.618  0.2884  0.8635 -1.3744
   85MOL0     H11456   3.539   5.509   2.517  3.9360  1.8090  2.7617
   85MOL0     H11457   3.396   5.326   2.093 -0.0213 -1.8318 -1.0862
   85MOL0     H11458   3.352   5.081   2.087  0.4120 -0.6105  0.0666
   85MOL0     H11459   2.341   5.697   2.274 -0.2426 -2.1075 -0.4593
   85MOL0     H11460   2.256   5.870   2.086  1.0069 -2.3240 -1.4352
   85MOL0     H11461   1.969   6.121   2.124  4.6751  2.9103 -1.3559
   85MOL0     H11462   1.836   6.327   2.116  1.3817 -0.2617  0.7803
   85MOL0     H11463   1.609   6.354   1.981 -0.2790 -0.1348 -0.5698
   85MOL0     H11464   1.585   6.368   1.818 -0.1832  0.1725 -0.5777
   85MOL0     H11465   1.454   6.542   1.963  0.2289 -0.2996  0.8910
   85MOL0     H11466   1.576   6.619   1.860  0.6096 -0.4298  1.5268
   85MOL0     H11467   1.729   6.637   2.057  1.2046 -0.0376  2.6944
   85MOL0     H11468   1.626   6.524   2.150  1.3731 -0.0415  0.2250
   85MOL0     H11469   1.435   6.692   2.157 -1.4402 -1.7256 -2.6899
   85MOL0     H11470   1.592   6.744   2.230  1.6262 -1.3671 -1.2004
   85MOL0     H11471   1.509   7.008   1.913  0.4442 -1.1321 -1.0513
   85MOL0     H11472   1.849   6.299   1.687  2.0742  4.7376  1.1839
   85MOL0     H11473   2.020   6.037   1.612  0.1007  1.1112 -1.6101
   85MOL0     H11474   1.877   5.940   1.663 -1.7974  1.5031  2.0222
   85MOL0     H11475   1.866   6.083   1.574 -0.2145 -2.5754 -1.1115
   86MOL0     O11476   2.628   4.106   8.507 -0.1589 -0.6596  0.3709
   86MOL0     C11477   2.638   4.004   8.572  1.3272  0.1062  0.0252
   86MOL0     O11478   2.585   3.884   8.523  0.0237 -0.1443  0.6928
   86MOL0     C11479   2.510   3.869   8.402 -1.3773  0.1043  0.0269
   86MOL0     C11480   2.437   3.957   8.321 -0.9056 -0.1531 -0.1698
   86MOL0     C11481   2.384   3.921   8.196 -0.7316 -0.8203  0.3497
   86MOL0     C11482   2.389   3.788   8.150 -0.4842  0.2433  0.1492
   86MOL0     O11483   2.333   3.753   8.028  0.5058  0.0252 -0.4853
   86MOL0     C11484   2.306   3.611   7.998  1.1476 -0.8044  0.8844
   86MOL0     C11485   2.206   3.591   7.889  0.4525  0.5733  0.2438
   86MOL0     C11486   2.225   3.665   7.761  0.2453  0.7402 -0.6041
   86MOL0     C11487   2.107   3.663   7.668  0.5644  0.3012  1.1036
   86MOL0     C11488   2.141   3.752   7.554  0.7919 -0.0365  0.3028
   86MOL0     C11489   2.016   3.745   7.461  0.4745 -0.6254  1.0960
   86MOL0     C11490   1.947   3.879   7.443  0.1908 -0.3019 -0.5099
   86MOL0     C11491   1.873   3.927   7.563 -0.4073  0.3053 -0.5115
   86MOL0     N11492   1.772   3.842   7.617  0.0358 -0.1559  0.3101
   86MOL0     C11493   1.653   3.802   7.553 -1.0972 -0.3547 -0.8297
   86MOL0     C11494   1.582   3.726   7.640  0.4936  0.1660  0.4201
   86MOL0     C11495   1.447   3.668   7.604 -1.0840  0.2200 -0.4299
   86MOL0     C11496   1.413   3.516   7.620 -0.6680 -1.0318 -0.6346
   86MOL0     C11497   1.402   3.485   7.780 -0.3415  0.0729  0.6365
   86MOL0     C11498   1.452   3.344   7.807 -0.1010 -0.9219  0.2762
   86MOL0     O11499   1.448   3.339   7.949  0.9748 -0.0702 -0.8635
   86MOL0     C11500   1.485   3.232   8.019  0.2800  0.7127  0.1509
   86MOL0     C11501   1.510   3.247   8.164  0.6416  0.1008 -0.8341
   86MOL0     C11502   1.542   3.128   8.233 -0.4909 -1.3330  0.0449
   86MOL0     C11503   1.555   3.003   8.178 -0.2173  0.7940  0.0392
   86MOL0     C11504   1.574   2.887   8.271  0.2256  0.1319 -0.2273
   86MOL0     O11505   1.628   2.922   8.386  0.1761 -0.6326 -0.4573
   86MOL0     C11506   1.668   2.842   8.491  0.5049  0.6810  0.1207
   86MOL0     C11507   1.691   2.699   8.487 -0.2951 -0.0365  1.0491
   86MOL0     C11508   1.739   2.634   8.596 -0.1643 -0.1351  0.3132
   86MOL0     C11509   1.748   2.699   8.719  0.2294 -0.0056  0.5710
   86MOL0     O11510   1.794   2.642   8.830 -0.2282 -0.2462 -0.5578
   86MOL0     C11511   1.792   2.496   8.856  0.4034 -0.0386  0.0881
   86MOL0     C11512   1.650   2.425   8.855 -0.2364  0.4006  1.2015
   86MOL0     C11513   1.573   2.466   8.976 -0.0202 -0.1838 -0.0268
   86MOL0     C11514   1.432   2.413   8.977  0.1005 -0.0964  0.1335
   86MOL0     C11515   1.360   2.486   9.094  0.2038  0.4909  0.2912
   86MOL0     C11516   1.375   2.408   9.229 -0.2037  1.1228 -0.3079
   86MOL0     C11517   1.386   2.517   9.345  0.6050  0.6174  0.9905
   86MOL0     C11518   1.246   2.562   9.388  0.1206  0.6735 -0.6995
   86MOL0    Cl11519   1.176   2.420   9.467 -0.0856  0.1475 -0.3215
   86MOL0     C11520   1.734   2.845   8.724 -0.1615 -0.2486  0.9659
   86MOL0     C11521   1.692   2.907   8.614  0.0983  0.5943  0.0050
   86MOL0     O11522   1.549   2.772   8.238 -0.5742 -0.3632 -0.3717
   86MOL0     C11523   1.545   2.994   8.039 -0.0652 -0.1861 -0.1898
   86MOL0     C11524   1.515   3.110   7.961 -0.7008  0.2288  0.7714
   86MOL0     N11525   1.653   3.730   7.758  0.1457 -0.8656 -0.4621
   86MOL0     N11526   1.764   3.792   7.748  0.0434 -0.2695  0.2077
   86MOL0     C11527   2.448   3.697   8.234  0.5631  0.0185 -0.2757
   86MOL0     C11528   2.516   3.737   8.358 -0.3148  0.9037  1.8707
   86MOL0     C11529   2.704   3.998   8.706 -0.8311 -0.3492 -0.9985
   86MOL0     C11530   2.729   3.874   8.769 -0.0800 -1.1126  0.7184
   86MOL0     C11531   2.784   3.864   8.896  0.1295 -0.6441  0.6478
   86MOL0     C11532   2.815   3.985   8.963 -0.3747  1.0925 -0.9485
   86MOL0     O11533   2.872   3.961   9.084  0.5256 -0.3499 -0.9467
   86MOL0     C11534   2.937   4.064   9.152  0.5963  0.6823 -0.0588
   86MOL0     C11535   3.046   3.993   9.240 -0.5310 -0.1996 -1.2379
   86MOL0     C11536   3.160   4.073   9.321  0.2647 -0.2223 -0.5167
   86MOL0     C11537   3.243   4.160   9.224 -0.1002 -0.0834  1.2387
   86MOL0     C11538   3.328   4.082   9.132  0.7384 -0.6116 -0.4551
   86MOL0     C11539   3.386   4.022   9.049 -0.4126  0.2572 -0.8732
   86MOL0     C11540   2.814   4.105   8.894 -0.8286  1.3566 -0.4431
   86MOL0     C11541   2.754   4.115   8.776 -0.1145 -0.7909 -0.2679
   86MOL0     C11542   2.750   4.258   8.729  0.9525 -0.6020  0.5429
   86MOL0     H11543   2.428   4.060   8.352  3.1931 -0.3458  2.5430
   86MOL0     H11544   2.333   3.990   8.129 -1.0012 -2.6233 -1.3934
   86MOL0     H11545   2.403   3.563   7.982  2.5626  2.6454 -2.3254
   86MOL0     H11546   2.266   3.567   8.090  2.6825  1.7483  2.9232
   86MOL0     H11547   2.107   3.614   7.928 -0.3531 -1.0170 -0.7351
   86MOL0     H11548   2.195   3.484   7.871  0.4915  0.8294 -1.4883
   86MOL0     H11549   2.316   3.626   7.713  0.5753  0.6038  0.1078
   86MOL0     H11550   2.240   3.772   7.776 -1.6361  0.9780 -0.2541
   86MOL0     H11551   2.076   3.563   7.639  1.4051  1.0297 -2.7759
   86MOL0     H11552   2.023   3.691   7.733 -0.1111 -4.9449  2.8964
   86MOL0     H11553   2.154   3.856   7.585 -2.0180  0.1860  1.0156
   86MOL0     H11554   2.231   3.712   7.506  0.9402  0.0042  0.5464
   86MOL0     H11555   2.043   3.720   7.358 -1.5481  1.0384  0.0696
   86MOL0     H11556   1.958   3.657   7.490  0.3423 -1.4492 -1.4049
   86MOL0     H11557   1.881   3.868   7.356  3.4510 -3.0212 -2.9383
   86MOL0     H11558   2.025   3.950   7.413 -1.1414  1.2769 -0.3056
   86MOL0     H11559   1.935   3.968   7.643  1.4939 -1.3550 -1.0579
   86MOL0     H11560   1.832   4.017   7.515  0.6693  0.6492 -0.8146
   86MOL0     H11561   1.651   3.802   7.445  0.1646 -2.8749 -0.9262
   86MOL0     H11562   1.368   3.725   7.654 -1.1732 -0.3057  0.0448
   86MOL0     H11563   1.442   3.688   7.497  3.3959  0.4097 -0.8234
   86MOL0     H11564   1.320   3.494   7.567  1.8800 -3.7841 -4.5519
   86MOL0     H11565   1.476   3.450   7.558 -2.0304 -1.9588 -1.0661
   86MOL0     H11566   1.296   3.502   7.802 -1.6601 -2.5128 -2.7945
   86MOL0     H11567   1.457   3.559   7.838 -0.9582 -1.6621  3.6695
   86MOL0     H11568   1.558   3.338   7.780  0.4916  0.6303  2.0715
   86MOL0     H11569   1.393   3.264   7.761 -0.6203  0.3185 -1.2736
   86MOL0     H11570   1.497   3.337   8.222 -0.3757  0.5543 -1.7421
   86MOL0     H11571   1.547   3.138   8.341 -1.4879  2.7609 -0.1371
   86MOL0     H11572   1.688   2.637   8.398 -0.6025  0.8427  0.4307
   86MOL0     H11573   1.745   2.526   8.598 -2.0633 -0.2608  1.4926
   86MOL0     H11574   1.853   2.442   8.782 -2.1606  0.0647 -2.2893
   86MOL0     H11575   1.838   2.470   8.951 -1.0462 -0.1586  0.7768
   86MOL0     H11576   1.589   2.448   8.768 -1.1884 -1.3632  1.3458
   86MOL0     H11577   1.664   2.316   8.860  3.2036  0.7582  1.6344
   86MOL0     H11578   1.638   2.439   9.059  0.3970  0.0058 -0.2881
   86MOL0     H11579   1.567   2.575   8.980 -2.1874 -0.2327 -0.3850
   86MOL0     H11580   1.426   2.304   8.979  0.0700 -0.2020 -2.7107
   86MOL0     H11581   1.372   2.425   8.887 -2.0612  0.1504  1.5299
   86MOL0     H11582   1.254   2.490   9.067 -0.4246  0.6835  2.6086
   86MOL0     H11583   1.403   2.587   9.095 -2.4420  1.9082 -3.8624
   86MOL0     H11584   1.283   2.349   9.238  0.9402 -0.6290  0.3560
   86MOL0     H11585   1.461   2.342   9.238 -0.4722  0.6768 -0.9243
   86MOL0     H11586   1.458   2.593   9.314  1.9209 -1.8162 -2.7124
   86MOL0     H11587   1.432   2.469   9.432  3.0059 -0.6313 -0.8237
   86MOL0     H11588   1.242   2.639   9.465 -2.3916  1.2092 -1.2935
   86MOL0     H11589   1.177   2.601   9.313 -2.9597  1.0771  2.1273
   86MOL0     H11590   1.758   2.900   8.814  0.8642  0.0460  0.5289
   86MOL0     H11591   1.667   3.011   8.631 -0.3120  0.1858  2.3116
   86MOL0     H11592   1.566   2.900   7.990 -1.7155 -1.9224  2.2251
   86MOL0     H11593   1.512   3.091   7.854  2.9229 -1.9354  0.8411
   86MOL0     H11594   2.463   3.593   8.208  1.0910  0.1834 -0.6377
   86MOL0     H11595   2.575   3.664   8.413  2.0119  1.8152  0.7253
   86MOL0     H11596   2.722   3.781   8.714  1.6288 -0.3583 -0.8651
   86MOL0     H11597   2.817   3.766   8.930  1.9063 -0.1744  0.3753
   86MOL0     H11598   2.863   4.120   9.211 -0.1500 -0.0674 -0.2653
   86MOL0     H11599   2.979   4.142   9.088  3.4394  0.5350  1.4925
   86MOL0     H11600   3.110   3.930   9.177  1.1296 -0.6833  0.8194
   86MOL0     H11601   2.991   3.923   9.304  2.3237 -0.9046  0.6345
   86MOL0     H11602   3.223   3.999   9.372  0.5316 -0.0635 -0.6110
   86MOL0     H11603   3.110   4.133   9.398 -4.4844 -2.5215 -1.4957
   86MOL0     H11604   3.183   4.237   9.174  0.7425  0.6279  1.2843
   86MOL0     H11605   3.313   4.217   9.287  0.5903 -1.0741  1.3880
   86MOL0     H11606   3.445   3.982   8.969  1.8750 -0.3476  1.0134
   86MOL0     H11607   2.844   4.197   8.944 -0.4383 -0.5909  3.1834
   86MOL0     H11608   2.643   4.275   8.717  0.7701 -1.9889  0.0622
   86MOL0     H11609   2.799   4.330   8.796  0.3885 -0.3529  0.6950
   86MOL0     H11610   2.794   4.259   8.628 -0.8855 -0.1506 -0.2826
   87MOL0     O11611   2.571   0.027   9.863 -0.6215 -0.8056  0.9554
   87MOL0     C11612   2.629   0.082   9.949 -0.0625 -0.0966 -0.6139
   87MOL0     O11613   2.661   0.023  10.074 -0.1253  0.3078  0.0138
   87MOL0     C11614   2.639  -0.112  10.083  0.6915  0.0960 -0.5199
   87MOL0     C11615   2.742  -0.198  10.111 -0.3160 -0.1720  0.1231
   87MOL0     C11616   2.720  -0.322  10.162 -0.9998  0.4623 -0.2055
   87MOL0     C11617   2.595  -0.376  10.175  0.6896  0.9411 -0.3275
   87MOL0     O11618   2.594  -0.504  10.205  0.1218  0.5347  0.8245
   87MOL0     C11619   2.466  -0.576  10.218  0.1739  0.7378 -0.0509
   87MOL0     C11620   2.509  -0.718  10.253  0.9648  0.0094 -0.2090
   87MOL0     C11621   2.390  -0.792  10.301 -0.1502 -0.4798  0.0587
   87MOL0     C11622   2.429  -0.931  10.322 -0.3020  0.3288  0.1780
   87MOL0     C11623   2.332  -1.011  10.413 -0.6943 -0.9981 -0.8331
   87MOL0     C11624   2.409  -1.123  10.471 -1.4364  0.4388  0.1307
   87MOL0     C11625   2.331  -1.217  10.565  0.3246 -0.0039 -0.4862
   87MOL0     C11626   2.176  -1.187  10.575  0.3101  0.2626  0.1202
   87MOL0     N11627   2.106  -1.279  10.662 -0.3449  0.1098  0.2836
   87MOL0     C11628   2.088  -1.411  10.634  0.0317  0.3303 -0.0049
   87MOL0     C11629   1.997  -1.447  10.720  1.3027 -0.8857  0.7703
   87MOL0     C11630   1.912  -1.577  10.739 -0.8709 -0.7578  1.6160
   87MOL0     C11631   2.014  -1.694  10.765 -1.4511 -0.0648 -0.2257
   87MOL0     C11632   2.104  -1.660  10.885 -0.4135  0.3518  0.2906
   87MOL0     C11633   2.189  -1.784  10.911  0.5021 -0.2373 -1.2211
   87MOL0     O11634   2.264  -1.760  11.030 -0.6284  0.1642 -0.0604
   87MOL0     C11635   2.379  -1.838  11.060  0.1775 -0.4378 -1.0241
   87MOL0     C11636   2.369  -1.973  11.033  0.1223 -0.2212  0.5901
   87MOL0     C11637   2.480  -2.062  11.067  0.1406 -0.1954 -0.0767
   87MOL0     C11638   2.591  -2.009  11.136  0.0114 -0.4543  0.2711
   87MOL0     C11639   2.700  -2.103  11.172 -0.2633 -0.3738  0.6961
   87MOL0     O11640   2.789  -2.054  11.257  0.2425 -0.4113 -0.3268
   87MOL0     C11641   2.891  -2.134  11.300  0.6322 -2.1020  0.1163
   87MOL0     C11642   2.888  -2.263  11.355  0.5607  0.9434 -0.0006
   87MOL0     C11643   3.007  -2.330  11.397  0.2338 -0.2167 -0.3561
   87MOL0     C11644   3.135  -2.264  11.388  0.9461  0.2618 -0.4869
   87MOL0     O11645   3.248  -2.321  11.439 -0.0282 -0.2222 -0.8411
   87MOL0     C11646   3.352  -2.378  11.352 -0.0079  0.7310  0.1890
   87MOL0     C11647   3.478  -2.415  11.434 -0.8829 -0.2336 -0.1784
   87MOL0     C11648   3.456  -2.536  11.527  0.8300 -0.5339  0.4578
   87MOL0     C11649   3.581  -2.606  11.577 -0.6962  0.1646 -0.4229
   87MOL0     C11650   3.682  -2.518  11.655 -0.3672  1.0541  0.3756
   87MOL0     C11651   3.615  -2.499  11.794  0.5242  0.6816  0.2574
   87MOL0     C11652   3.712  -2.420  11.880  0.1819  0.5822  1.1825
   87MOL0     C11653   3.746  -2.275  11.849  0.3366 -0.3270  0.0201
   87MOL0    Cl11654   3.807  -2.208  12.000  0.4840  0.0530 -1.0538
   87MOL0     C11655   3.137  -2.141  11.323 -1.2706 -0.1082 -0.7453
   87MOL0     C11656   3.022  -2.074  11.296 -0.7946 -0.6746 -0.0229
   87MOL0     O11657   2.689  -2.221  11.127 -0.0207  0.0652  0.0401
   87MOL0     C11658   2.597  -1.872  11.164  0.1944 -0.6773 -0.0079
   87MOL0     C11659   2.501  -1.785  11.113  0.4142  0.3785  0.3235
   87MOL0     N11660   1.969  -1.338  10.800 -0.5811  0.2319 -0.8363
   87MOL0     N11661   2.037  -1.238  10.764  0.5113 -0.0524  0.1117
   87MOL0     C11662   2.489  -0.292  10.146 -0.2532  0.1420  0.3761
   87MOL0     C11663   2.515  -0.158  10.104 -0.5403 -0.5802 -1.0765
   87MOL0     C11664   2.688   0.219   9.941  0.5561  0.3502  1.9227
   87MOL0     C11665   2.740   0.276  10.055  0.4501 -0.6393 -0.8329
   87MOL0     C11666   2.815   0.389  10.060 -0.0531 -0.7851 -0.2363
   87MOL0     C11667   2.812   0.478   9.954 -0.0996 -0.4874  0.0913
   87MOL0     O11668   2.865   0.607   9.946  1.1423 -0.3420 -0.2175
   87MOL0     C11669   2.922   0.674  10.057 -0.2739  0.1410 -0.1519
   87MOL0     C11670   2.833   0.781  10.110  0.8295 -0.0605  0.8355
   87MOL0     C11671   2.776   0.876   9.994 -0.3009  0.3494 -0.4818
   87MOL0     C11672   2.881   0.980   9.957  1.2020 -0.0579  0.6341
   87MOL0     C11673   2.826   1.072   9.855 -0.0445 -0.4933 -1.0357
   87MOL0     C11674   2.794   1.146   9.771 -0.6086 -0.3231  0.5678
   87MOL0     C11675   2.754   0.435   9.839 -0.3308  0.8302 -0.0877
   87MOL0     C11676   2.703   0.300   9.825 -0.1447  1.1804  0.0701
   87MOL0     C11677   2.712   0.252   9.685  0.9051 -0.1377  0.9992
   87MOL0     H11678   2.838  -0.149  10.102 -0.8979  1.1195  0.8066
   87MOL0     H11679   2.810  -0.377  10.185  0.3736  2.8801  0.5245
   87MOL0     H11680   2.413  -0.544  10.307  0.8599 -1.3270  1.1740
   87MOL0     H11681   2.399  -0.578  10.132 -0.9089  0.5730  0.7794
   87MOL0     H11682   2.582  -0.727  10.335  3.6901  1.9365 -2.2638
   87MOL0     H11683   2.553  -0.760  10.162 -0.0295 -0.3102 -0.5513
   87MOL0     H11684   2.309  -0.787  10.228  0.3998  1.4336 -0.4832
   87MOL0     H11685   2.358  -0.744  10.394 -0.5155 -0.6357  0.0141
   87MOL0     H11686   2.450  -0.968  10.221  3.0921  2.4731 -0.0873
   87MOL0     H11687   2.527  -0.928  10.371 -0.1753  3.3353 -0.0366
   87MOL0     H11688   2.306  -0.948  10.499 -2.0467 -1.7487 -0.6621
   87MOL0     H11689   2.237  -1.030  10.362 -1.2842  1.9105 -1.0175
   87MOL0     H11690   2.445  -1.179  10.385 -1.2025 -1.0529  1.1660
   87MOL0     H11691   2.495  -1.097  10.533 -1.0785 -0.4745  0.0330
   87MOL0     H11692   2.374  -1.202  10.664 -2.2838 -0.1217  0.7375
   87MOL0     H11693   2.335  -1.318  10.525 -0.4070 -0.2396  0.0132
   87MOL0     H11694   2.143  -1.087  10.603 -3.7170  0.4055 -4.0514
   87MOL0     H11695   2.139  -1.212  10.475  2.0280  2.3437 -1.1402
   87MOL0     H11696   2.132  -1.466  10.551 -0.9214  0.2321 -0.4685
   87MOL0     H11697   1.846  -1.557  10.823 -1.7193  0.1653  0.7511
   87MOL0     H11698   1.846  -1.586  10.652  1.8414 -3.3579 -0.3927
   87MOL0     H11699   1.960  -1.789  10.769  0.3309 -1.0687  2.7625
   87MOL0     H11700   2.085  -1.699  10.682  1.2589  0.4648  1.9037
   87MOL0     H11701   2.037  -1.640  10.970 -1.2256 -0.5733 -0.1031
   87MOL0     H11702   2.177  -1.581  10.867 -0.6029  0.0164 -2.4298
   87MOL0     H11703   2.253  -1.815  10.827  0.5957  0.9410 -1.6036
   87MOL0     H11704   2.120  -1.867  10.928  0.0666  0.2754 -0.4272
   87MOL0     H11705   2.276  -2.017  10.998 -0.6477  0.6683  1.4426
   87MOL0     H11706   2.466  -2.168  11.052  0.3499 -0.4633  1.4322
   87MOL0     H11707   2.796  -2.318  11.370  2.0373 -0.8485  3.9097
   87MOL0     H11708   2.998  -2.432  11.433 -0.5438  0.9258  3.0851
   87MOL0     H11709   3.317  -2.472  11.309 -2.6031  0.3279  2.8313
   87MOL0     H11710   3.373  -2.302  11.277  0.0623 -1.1933 -1.8409
   87MOL0     H11711   3.556  -2.427  11.358  0.3300  1.6627  0.7036
   87MOL0     H11712   3.510  -2.328  11.491 -2.1796 -0.0180  0.2484
   87MOL0     H11713   3.378  -2.506  11.598  1.1667 -1.3071  1.1717
   87MOL0     H11714   3.404  -2.606  11.462 -0.8489 -0.8397  2.0303
   87MOL0     H11715   3.624  -2.642  11.483 -2.2469 -2.3728 -0.2358
   87MOL0     H11716   3.547  -2.699  11.621 -0.9429 -0.1379 -1.2263
   87MOL0     H11717   3.705  -2.424  11.603  0.8701  0.3660 -0.3771
   87MOL0     H11718   3.772  -2.581  11.660 -0.8773  0.3324  0.5830
   87MOL0     H11719   3.524  -2.443  11.770 -0.5193 -2.0769 -3.1648
   87MOL0     H11720   3.581  -2.593  11.837 -1.9921  0.2280 -2.4002
   87MOL0     H11721   3.807  -2.474  11.872 -0.5076 -0.6225  0.8588
   87MOL0     H11722   3.683  -2.434  11.985 -3.3583  0.0267  0.2582
   87MOL0     H11723   3.816  -2.278  11.765 -0.4627 -4.7966 -0.7697
   87MOL0     H11724   3.654  -2.229  11.812  1.0248  0.8562 -0.2529
   87MOL0     H11725   3.237  -2.111  11.296 -1.7251  1.8723 -0.3957
   87MOL0     H11726   3.018  -1.971  11.263  0.3125 -0.3406  0.8478
   87MOL0     H11727   2.684  -1.840  11.219 -1.0166 -2.4071  3.1789
   87MOL0     H11728   2.510  -1.677  11.117 -4.0818  0.8908  1.9250
   87MOL0     H11729   2.387  -0.314  10.178 -0.1037 -0.4717  0.4380
   87MOL0     H11730   2.428  -0.094  10.109  1.5075  2.3056  0.9836
   87MOL0     H11731   2.735   0.237  10.157  1.8830 -0.7908 -0.8045
   87MOL0     H11732   2.866   0.406  10.154  0.3747 -0.6745 -0.4873
   87MOL0     H11733   3.018   0.714  10.025 -0.6598 -1.1382 -3.1988
   87MOL0     H11734   2.939   0.604  10.140  4.3259 -1.0007 -1.7781
   87MOL0     H11735   2.889   0.836  10.186 -1.3993 -0.3454  2.8279
   87MOL0     H11736   2.744   0.733  10.153  1.1696 -2.4955 -1.0178
   87MOL0     H11737   2.692   0.925  10.044 -1.8112  0.2491 -2.7452
   87MOL0     H11738   2.735   0.811   9.916 -0.2789 -1.4816  0.9572
   87MOL0     H11739   2.907   1.032  10.049  3.2834 -1.9264  1.2211
   87MOL0     H11740   2.971   0.934   9.914  0.7101  0.4350 -0.9737
   87MOL0     H11741   2.767   1.195   9.679 -2.1047 -0.7030  0.7833
   87MOL0     H11742   2.762   0.507   9.759 -0.2184  0.0814 -0.7580
   87MOL0     H11743   2.814   0.239   9.647 -0.2089 -1.5186 -1.8112
   87MOL0     H11744   2.647   0.167   9.664  1.6085 -1.0712  2.4455
   87MOL0     H11745   2.670   0.335   9.628  2.0695  0.3554  0.8185
   88MOL0     O11746   1.919   9.763   8.694 -0.1080  0.4547 -0.6289
   88MOL0     C11747   2.037   9.788   8.673  0.5106 -0.6640  0.1720
   88MOL0     O11748   2.103   9.754   8.560 -0.5680  0.7629 -0.4612
   88MOL0     C11749   2.055   9.662   8.461 -0.2986  0.4599 -0.4357
   88MOL0     C11750   1.947   9.701   8.384  0.3342  0.0247  0.0865
   88MOL0     C11751   1.894   9.601   8.288  0.3153  0.2860  0.1161
   88MOL0     C11752   1.965   9.484   8.263  0.4800 -0.1114  0.8614
   88MOL0     O11753   1.941   9.398   8.155 -0.2372 -0.1674 -1.6636
   88MOL0     C11754   2.009   9.432   8.031  0.6137 -0.7057 -0.2085
   88MOL0     C11755   1.955   9.546   7.944 -0.5580 -0.4524 -0.1994
   88MOL0     C11756   1.821   9.528   7.878 -0.2004  0.2567  0.3937
   88MOL0     C11757   1.828   9.425   7.764 -0.2814 -0.1907  0.4372
   88MOL0     C11758   1.941   9.465   7.665  0.3886 -0.6417  0.3202
   88MOL0     C11759   1.913   9.401   7.540 -0.8061  0.0283 -0.2138
   88MOL0     C11760   2.023   9.388   7.442 -0.3490 -0.0993 -0.5704
   88MOL0     C11761   2.081   9.521   7.392 -1.1502 -0.7249  0.3302
   88MOL0     N11762   2.177   9.485   7.289 -0.7262 -0.0381 -0.2674
   88MOL0     C11763   2.135   9.412   7.173 -0.9697 -1.0645  0.6455
   88MOL0     C11764   2.253   9.386   7.112  0.0253 -0.4585 -0.0018
   88MOL0     C11765   2.269   9.353   6.971 -0.2734  0.7446  0.9539
   88MOL0     C11766   2.391   9.427   6.912 -0.6739  0.0166  0.5536
   88MOL0     C11767   2.532   9.395   6.953 -0.5067 -0.8409 -0.5231
   88MOL0     C11768   2.640   9.500   6.905 -0.7079 -0.5434  0.1029
   88MOL0     O11769   2.618   9.618   6.998  0.5322  0.3351  0.6303
   88MOL0     C11770   2.662   9.749   6.966 -0.3804  0.2984  0.1336
   88MOL0     C11771   2.757   9.776   6.863  0.2526 -0.5447 -0.7072
   88MOL0     C11772   2.815   9.905   6.844 -0.2693 -1.0305 -0.3074
   88MOL0     C11773   2.761  10.013   6.925 -0.8489  0.0964  0.8254
   88MOL0     C11774   2.802  10.158   6.900 -0.3189 -0.0019  0.8185
   88MOL0     O11775   2.921  10.191   6.844 -0.0193 -0.2422 -0.7804
   88MOL0     C11776   2.934  10.316   6.807  0.1028 -0.3569  0.1926
   88MOL0     C11777   2.970  10.418   6.903 -0.1497  0.4625 -0.5608
   88MOL0     C11778   2.966  10.552   6.874 -0.1577 -0.1304  0.5033
   88MOL0     C11779   2.921  10.590   6.746 -0.6708  0.0334  0.3814
   88MOL0     O11780   2.917  10.726   6.716  0.2173 -0.5423  1.3959
   88MOL0     C11781   2.794  10.782   6.752  0.7611 -1.3306 -0.9827
   88MOL0     C11782   2.789  10.932   6.734  0.3402  1.0228 -0.3580
   88MOL0     C11783   2.826  10.989   6.602 -0.2489  0.1844  0.1693
   88MOL0     C11784   2.967  11.026   6.575 -1.0401  1.0612  0.3346
   88MOL0     C11785   2.987  11.019   6.427 -0.0588  0.2851 -0.3628
   88MOL0     C11786   2.905  11.115   6.331  0.2870  0.1733 -0.4800
   88MOL0     C11787   2.992  11.127   6.197  0.8304  0.3673 -0.7767
   88MOL0     C11788   2.961  11.255   6.116 -0.3259  0.1566 -0.1863
   88MOL0    Cl11789   3.033  11.414   6.188  0.3469  0.5448  0.0710
   88MOL0     C11790   2.883  10.497   6.659 -0.3775  0.1204  0.9172
   88MOL0     C11791   2.888  10.360   6.687  0.1832  0.5991  1.0723
   88MOL0     O11792   2.716  10.237   6.939 -0.0423  0.2634  0.1153
   88MOL0     C11793   2.667   9.987   7.027  1.0118  1.1758 -0.6354
   88MOL0     C11794   2.617   9.854   7.050 -0.2197  0.4752  0.2407
   88MOL0     N11795   2.350   9.412   7.201  0.6414  0.7619 -0.4794
   88MOL0     N11796   2.310   9.457   7.313  0.2102 -0.2304 -0.1698
   88MOL0     C11797   2.082   9.450   8.341  0.6538 -0.7235 -0.0956
   88MOL0     C11798   2.113   9.534   8.446 -0.4359 -0.1683 -1.1829
   88MOL0     C11799   2.123   9.858   8.762  0.2551  1.4245  0.6508
   88MOL0     C11800   2.211   9.948   8.703 -0.3096 -0.4304 -0.5442
   88MOL0     C11801   2.299  10.027   8.780 -0.2774 -0.5553  0.5205
   88MOL0     C11802   2.301  10.024   8.916  1.0726 -0.5078 -0.0639
   88MOL0     O11803   2.378  10.109   8.984 -0.0549  0.3249  0.7382
   88MOL0     C11804   2.466  10.047   9.075  0.3457 -0.6111 -0.1616
   88MOL0     C11805   2.560  10.148   9.140 -0.0801 -0.5179 -0.4284
   88MOL0     C11806   2.631  10.088   9.260 -1.0186 -0.7857  0.3560
   88MOL0     C11807   2.631  10.175   9.386  0.2183 -0.2175 -0.0117
   88MOL0     C11808   2.492  10.183   9.441 -0.7083 -0.1222 -0.3904
   88MOL0     C11809   2.388  10.201   9.498 -0.7859 -0.5492 -0.6001
   88MOL0     C11810   2.205   9.940   8.982 -0.2310 -0.6635  0.2591
   88MOL0     C11811   2.124   9.848   8.904 -0.0008  0.0123 -0.2066
   88MOL0     C11812   2.050   9.743   8.980  0.5090  0.3514  0.8763
   88MOL0     H11813   1.894   9.793   8.402 -1.4315 -0.4307 -2.2212
   88MOL0     H11814   1.802   9.633   8.239  0.6599  2.4108  0.7863
   88MOL0     H11815   2.110   9.453   8.068 -0.5384  0.4020  2.5826
   88MOL0     H11816   2.017   9.344   7.967  0.2263 -0.9179  0.0311
   88MOL0     H11817   2.029   9.578   7.871  2.2459 -1.1123  2.1644
   88MOL0     H11818   1.928   9.627   8.013 -3.1031 -1.6347  0.3205
   88MOL0     H11819   1.767   9.620   7.854 -1.6085  0.1150  2.6672
   88MOL0     H11820   1.744   9.496   7.949 -0.3854  0.0246  0.0944
   88MOL0     H11821   1.850   9.325   7.803  0.8924 -1.3084 -2.7076
   88MOL0     H11822   1.736   9.410   7.707 -0.1513 -0.3221  0.2593
   88MOL0     H11823   1.954   9.573   7.654  0.0142 -0.8331 -2.8958
   88MOL0     H11824   2.033   9.410   7.685  2.1042  2.1088  0.4396
   88MOL0     H11825   1.885   9.299   7.565  0.4840 -0.2672  0.1293
   88MOL0     H11826   1.821   9.443   7.500 -0.8584  1.6225  1.4470
   88MOL0     H11827   1.990   9.326   7.359 -2.0468 -1.5392  1.0788
   88MOL0     H11828   2.104   9.334   7.493  0.7013  3.0130  1.3743
   88MOL0     H11829   2.013   9.585   7.336  2.1347  2.4786 -0.4144
   88MOL0     H11830   2.125   9.589   7.467 -1.5615  0.8939 -0.8452
   88MOL0     H11831   2.033   9.405   7.137 -0.3926 -1.7300 -0.9515
   88MOL0     H11832   2.289   9.246   6.977 -1.7977  0.1749 -2.4233
   88MOL0     H11833   2.184   9.378   6.908  0.8254  0.8288 -0.5435
   88MOL0     H11834   2.391   9.397   6.806 -1.3310 -0.9121  0.8051
   88MOL0     H11835   2.393   9.536   6.909  5.2803  0.2731  1.9714
   88MOL0     H11836   2.549   9.301   6.899  0.1868 -1.0964  0.1297
   88MOL0     H11837   2.550   9.381   7.060  0.1378  3.1749  0.0432
   88MOL0     H11838   2.646   9.511   6.797  1.2170 -1.2254  0.0915
   88MOL0     H11839   2.740   9.456   6.919 -1.0664 -0.8329  2.0099
   88MOL0     H11840   2.792   9.696   6.798  1.6626  1.8432 -3.1088
   88MOL0     H11841   2.889   9.928   6.768  0.9627  0.2833  1.2191
   88MOL0     H11842   2.995  10.400   7.007 -4.3843  0.4705  0.6436
   88MOL0     H11843   3.001  10.611   6.958  0.4364 -1.6066  1.3333
   88MOL0     H11844   2.702  10.747   6.705 -1.0262  1.0143  0.5333
   88MOL0     H11845   2.771  10.764   6.857 -1.3926 -0.9116 -1.3286
   88MOL0     H11846   2.682  10.948   6.750  0.2722  1.6761 -1.4107
   88MOL0     H11847   2.825  11.004   6.808  1.8096  1.6126 -1.5831
   88MOL0     H11848   2.782  10.913   6.537 -2.3136  0.6950  0.8866
   88MOL0     H11849   2.771  11.083   6.599 -1.7349 -0.6381  0.3417
   88MOL0     H11850   3.037  10.954   6.619  2.1313  2.7770 -1.4840
   88MOL0     H11851   2.993  11.122   6.620 -0.3318 -0.5124  3.5413
   88MOL0     H11852   2.981  10.916   6.392 -3.3716  0.2963 -0.0876
   88MOL0     H11853   3.094  11.040   6.414  0.6661  0.4009  4.1277
   88MOL0     H11854   2.801  11.085   6.317  0.6578 -0.3845 -2.3709
   88MOL0     H11855   2.913  11.211   6.384 -0.6326 -1.7839  3.6092
   88MOL0     H11856   2.962  11.044   6.132 -1.0242  1.1106 -0.9243
   88MOL0     H11857   3.099  11.120   6.218  1.3470  3.0334 -2.1492
   88MOL0     H11858   3.009  11.230   6.020 -3.0678 -1.2670 -1.2873
   88MOL0     H11859   2.853  11.268   6.116 -0.0832  2.8550  1.2734
   88MOL0     H11860   2.849  10.533   6.562  0.4823 -1.6059 -0.0694
   88MOL0     H11861   2.873  10.284   6.612  0.5503  0.2032  1.3956
   88MOL0     H11862   2.648  10.063   7.102 -1.1840 -0.8237  0.9523
   88MOL0     H11863   2.546   9.838   7.130 -1.1076  1.0021 -0.4315
   88MOL0     H11864   2.139   9.359   8.328 -0.2233 -1.1648 -0.9883
   88MOL0     H11865   2.191   9.495   8.510  1.1896 -0.6621 -3.3372
   88MOL0     H11866   2.208   9.970   8.596 -0.1762 -2.0891 -0.9168
   88MOL0     H11867   2.351  10.113   8.740 -2.9082  1.4232  1.0850
   88MOL0     H11868   2.519   9.972   9.016 -1.1577 -1.5813 -0.3136
   88MOL0     H11869   2.403   9.999   9.150  2.0133 -0.6362  1.2917
   88MOL0     H11870   2.488  10.222   9.177 -0.7059  0.0329 -2.6477
   88MOL0     H11871   2.626  10.191   9.065 -0.5084 -3.0867 -2.4118
   88MOL0     H11872   2.735  10.076   9.229 -1.4053 -2.1719 -0.4951
   88MOL0     H11873   2.583   9.993   9.284  1.9549 -3.3724 -2.8542
   88MOL0     H11874   2.696  10.138   9.466 -0.9116 -0.3314  0.8785
   88MOL0     H11875   2.671  10.273   9.360 -3.8673  1.3721 -1.0594
   88MOL0     H11876   2.298  10.213   9.555 -1.4496  1.6406 -1.9730
   88MOL0     H11877   2.210   9.926   9.089  0.2299 -0.6139  0.2466
   88MOL0     H11878   1.945   9.727   8.954 -0.0662  2.5597  1.5706
   88MOL0     H11879   2.107   9.654   8.954  0.9303  0.9532 -0.3450
   88MOL0     H11880   2.074   9.737   9.086 -2.9392 -1.2350  1.7132
   89MOL0     O11881   1.827  10.215   2.172 -0.0611  0.6314 -0.0716
   89MOL0     C11882   1.847  10.228   2.052  0.6984  0.0873  0.3632
   89MOL0     O11883   1.930  10.330   1.995  0.2387 -0.2078  0.0771
   89MOL0     C11884   2.060  10.316   2.039  0.1279 -0.5013  0.0951
   89MOL0     C11885   2.151  10.230   1.963 -0.7315 -0.5780  0.2559
   89MOL0     C11886   2.285  10.218   1.996  0.8195 -0.3854 -0.2124
   89MOL0     C11887   2.335  10.288   2.110  0.0190  0.4269 -0.2199
   89MOL0     O11888   2.466  10.278   2.146 -0.0199 -0.4443 -0.0850
   89MOL0     C11889   2.564  10.326   2.046  0.2128  0.7958  0.6791
   89MOL0     C11890   2.654  10.202   1.994  0.0626 -0.9840 -0.4723
   89MOL0     C11891   2.740  10.235   1.874  0.3858  0.4702  0.3840
   89MOL0     C11892   2.840  10.337   1.911 -0.1152  0.8005 -0.2911
   89MOL0     C11893   2.955  10.366   1.808  0.3381  0.5234  0.2834
   89MOL0     C11894   3.046  10.245   1.790  0.2384 -0.3855  0.3969
   89MOL0     C11895   3.159  10.240   1.893 -0.6835 -0.5347  0.5324
   89MOL0     C11896   3.190  10.097   1.935 -0.8538 -0.1046  0.2257
   89MOL0     N11897   3.243  10.010   1.828  0.8470  0.2853  0.5075
   89MOL0     C11898   3.364   9.942   1.845 -0.9784 -0.4588  0.6344
   89MOL0     C11899   3.378   9.868   1.738  0.3123  0.3399 -1.0356
   89MOL0     C11900   3.497   9.782   1.720  0.2738  1.4247 -0.6715
   89MOL0     C11901   3.553   9.709   1.837  0.8942 -0.6783  0.2753
   89MOL0     C11902   3.660   9.607   1.808  0.6755  0.9159  0.4227
   89MOL0     C11903   3.787   9.675   1.755  1.1986 -0.6247 -0.9140
   89MOL0     O11904   3.825   9.783   1.836 -0.8455 -0.3555  0.2073
   89MOL0     C11905   3.926   9.864   1.789 -0.5396  0.7863 -1.0666
   89MOL0     C11906   3.981   9.856   1.663 -0.5523  1.2493 -0.1008
   89MOL0     C11907   4.052   9.958   1.615 -0.4037  0.1081 -0.6848
   89MOL0     C11908   4.088  10.074   1.699  0.4445  0.1851  0.1741
   89MOL0     C11909   4.155  10.191   1.641 -0.3068 -0.7680  0.1851
   89MOL0     O11910   4.172  10.307   1.711  0.5905 -0.0155 -0.9593
   89MOL0     C11911   4.232  10.420   1.657  0.1486 -0.2386  0.6819
   89MOL0     C11912   4.209  10.471   1.529 -0.1041 -0.7639  0.1109
   89MOL0     C11913   4.278  10.582   1.479 -0.4038  0.7827  0.3988
   89MOL0     C11914   4.390  10.627   1.556 -0.5332 -0.5522  0.1670
   89MOL0     O11915   4.469  10.733   1.503  0.0831  0.0653  0.0028
   89MOL0     C11916   4.598  10.683   1.465 -0.4091 -0.0625 -0.4531
   89MOL0     C11917   4.582  10.640   1.318  0.4354  0.1510  0.5280
   89MOL0     C11918   4.548  10.752   1.218 -0.7298  0.2319  1.6172
   89MOL0     C11919   4.625  10.720   1.081  0.9712 -0.7543 -0.3239
   89MOL0     C11920   4.595  10.821   0.969  0.7269 -0.1304 -0.2744
   89MOL0     C11921   4.634  10.772   0.829 -0.5804 -0.3093  0.2187
   89MOL0     C11922   4.777  10.794   0.777 -0.5996  0.0683  0.6662
   89MOL0     C11923   4.788  10.767   0.631  0.6504 -0.4223 -0.5375
   89MOL0    Cl11924   4.942  10.833   0.583 -0.3707  0.5033 -0.2547
   89MOL0     C11925   4.415  10.563   1.681  0.2957  0.1609  0.6012
   89MOL0     C11926   4.343  10.460   1.730  1.0381 -0.0771  0.0058
   89MOL0     O11927   4.198  10.170   1.535  0.0001 -0.2568  0.1081
   89MOL0     C11928   4.040  10.072   1.833  0.5691 -0.3554  0.9445
   89MOL0     C11929   3.957   9.968   1.880  0.5057 -0.8378  0.7549
   89MOL0     N11930   3.274   9.891   1.656  0.0854 -0.8902  0.5007
   89MOL0     N11931   3.192   9.980   1.707  0.5188  0.8034 -0.5162
   89MOL0     C11932   2.245  10.358   2.190  0.3969 -0.2006  0.2915
   89MOL0     C11933   2.109  10.385   2.152  0.3813  0.0884 -0.1950
   89MOL0     C11934   1.768  10.148   1.955 -0.9816 -0.8571  0.2458
   89MOL0     C11935   1.743  10.217   1.838  0.5140  1.0024  0.4803
   89MOL0     C11936   1.670  10.149   1.738 -0.0483  0.6147 -0.5142
   89MOL0     C11937   1.623  10.019   1.749 -0.8042 -0.0754 -0.7684
   89MOL0     O11938   1.560   9.947   1.649 -0.1581  0.5082 -0.4573
   89MOL0     C11939   1.508  10.017   1.540 -0.9666  0.5204 -0.2441
   89MOL0     C11940   1.409   9.939   1.446  0.0154 -0.4340  0.7298
   89MOL0     C11941   1.487   9.851   1.339  0.1687 -0.4410 -0.5533
   89MOL0     C11942   1.387   9.761   1.260 -0.3715  0.3074 -0.6778
   89MOL0     C11943   1.324   9.658   1.344  1.1359  0.7127 -0.3559
   89MOL0     C11944   1.252   9.584   1.400  0.2569  0.3849 -0.8848
   89MOL0     C11945   1.646   9.957   1.873  0.3459  0.6547  0.6784
   89MOL0     C11946   1.711  10.023   1.979  0.3683  0.6030  0.1443
   89MOL0     C11947   1.730   9.943   2.108  0.0754 -0.1784 -0.0743
   89MOL0     H11948   2.103  10.176   1.882 -2.9827  0.9792  0.4382
   89MOL0     H11949   2.350  10.165   1.927 -0.8296 -1.6993 -0.8304
   89MOL0     H11950   2.503  10.371   1.967 -0.6510  1.5782  1.7544
   89MOL0     H11951   2.630  10.395   2.100  1.8333 -1.3888  1.6279
   89MOL0     H11952   2.586  10.121   1.965 -1.0417 -1.2887  2.5866
   89MOL0     H11953   2.719  10.181   2.079  1.6747  2.3913 -0.6955
   89MOL0     H11954   2.663  10.259   1.800 -1.7254 -0.8561  2.0165
   89MOL0     H11955   2.787  10.147   1.829 -2.0504  0.2336 -1.9123
   89MOL0     H11956   2.785  10.432   1.919 -3.9399 -1.3096  1.5917
   89MOL0     H11957   2.878  10.307   2.009 -0.0827  0.3737 -0.4310
   89MOL0     H11958   2.903  10.392   1.715 -1.7758  0.8766  1.4963
   89MOL0     H11959   3.013  10.445   1.856 -1.5855 -0.8736  5.7395
   89MOL0     H11960   2.998  10.147   1.786  0.9114 -0.7929  1.6381
   89MOL0     H11961   3.095  10.259   1.693 -1.3115  0.4159 -0.2972
   89MOL0     H11962   3.139  10.297   1.984  0.8853  0.0314  0.5478
   89MOL0     H11963   3.256  10.267   1.851 -0.3685 -2.3137  0.0594
   89MOL0     H11964   3.263  10.092   2.016  0.4886  0.6511 -0.9128
   89MOL0     H11965   3.098  10.046   1.966 -0.5673 -2.4025 -2.2760
   89MOL0     H11966   3.418   9.948   1.938  1.8941 -4.2408 -0.5642
   89MOL0     H11967   3.451   9.709   1.653 -0.0860  1.2043 -0.1903
   89MOL0     H11968   3.570   9.846   1.668  3.3347 -0.0693  1.4515
   89MOL0     H11969   3.587   9.779   1.914  1.9433  0.8311 -1.4853
   89MOL0     H11970   3.474   9.645   1.878  1.3695 -0.3338  1.8115
   89MOL0     H11971   3.641   9.530   1.733  1.3815  0.8310  0.3275
   89MOL0     H11972   3.689   9.549   1.896  1.2123 -0.7931 -0.8317
   89MOL0     H11973   3.768   9.721   1.658  2.9654  1.8567 -0.1917
   89MOL0     H11974   3.869   9.607   1.730  0.2476 -2.5665  0.9096
   89MOL0     H11975   3.962   9.775   1.593 -2.9870  1.3285  0.3897
   89MOL0     H11976   4.086   9.942   1.513  0.9559  1.3710 -0.4748
   89MOL0     H11977   4.126  10.425   1.477 -0.7424  0.8178 -0.3208
   89MOL0     H11978   4.246  10.630   1.387 -3.0553 -0.7470  0.4477
   89MOL0     H11979   4.660  10.772   1.480 -1.1860 -0.0103  3.6620
   89MOL0     H11980   4.640  10.605   1.529  0.8085 -0.2495 -1.4325
   89MOL0     H11981   4.675  10.589   1.290 -0.5180 -1.3172 -0.0926
   89MOL0     H11982   4.517  10.553   1.306  1.5714 -0.9201  1.7860
   89MOL0     H11983   4.441  10.765   1.201 -1.2429  0.7540  4.7170
   89MOL0     H11984   4.592  10.841   1.263  1.5028  0.9849 -1.6532
   89MOL0     H11985   4.592  10.621   1.048 -0.8550 -0.5444  0.7236
   89MOL0     H11986   4.732  10.727   1.102  0.7133 -0.8849  1.2037
   89MOL0     H11987   4.661  10.905   0.993  0.5885  0.9046 -3.1319
   89MOL0     H11988   4.488  10.843   0.978  0.0654 -2.7035 -0.9849
   89MOL0     H11989   4.599  10.670   0.809  1.3445 -0.7580 -1.2041
   89MOL0     H11990   4.573  10.842   0.771 -1.2730 -0.4898  0.7212
   89MOL0     H11991   4.842  10.725   0.832 -0.1668 -0.0281  0.0381
   89MOL0     H11992   4.804  10.898   0.794 -5.1096  1.8859 -1.5880
   89MOL0     H11993   4.793  10.661   0.604 -0.5248 -1.3509  2.5198
   89MOL0     H11994   4.710  10.819   0.575  0.5358 -1.0726 -0.9967
   89MOL0     H11995   4.502  10.603   1.732  0.2417  2.4722 -0.9520
   89MOL0     H11996   4.367  10.427   1.830 -0.0115 -2.3256 -0.4278
   89MOL0     H11997   4.067  10.145   1.908 -1.0859  0.0306  1.1811
   89MOL0     H11998   3.909   9.967   1.978 -1.1090 -0.7035 -0.0006
   89MOL0     H11999   2.295  10.399   2.278  1.7621  1.6821 -1.2850
   89MOL0     H12000   2.042  10.448   2.209 -1.3117 -0.3386 -1.6131
   89MOL0     H12001   1.774  10.318   1.813  1.1690  0.6868 -0.0233
   89MOL0     H12002   1.656  10.195   1.641  0.2920  0.5149 -0.6129
   89MOL0     H12003   1.579  10.069   1.474 -0.0051 -0.1978  0.2029
   89MOL0     H12004   1.430  10.086   1.573 -2.5363  0.1946 -2.9782
   89MOL0     H12005   1.350  10.008   1.385 -0.6028 -0.5714  1.1664
   89MOL0     H12006   1.339   9.885   1.510 -0.2923  4.0585  4.6704
   89MOL0     H12007   1.556   9.784   1.390 -0.4957  0.8604  2.2115
   89MOL0     H12008   1.545   9.906   1.264 -0.3409  1.2161  0.2135
   89MOL0     H12009   1.315   9.822   1.204 -1.8902 -0.6134  0.1884
   89MOL0     H12010   1.442   9.709   1.181 -2.9667 -2.9677 -0.5315
   89MOL0     H12011   1.199   9.512   1.460 -0.2668  1.4049 -0.0895
   89MOL0     H12012   1.623   9.851   1.885  0.7693  0.6523  1.5066
   89MOL0     H12013   1.631   9.911   2.140 -2.1272  3.5839 -2.4025
   89MOL0     H12014   1.801   9.860   2.098  0.0534 -0.9899  4.2918
   89MOL0     H12015   1.762  10.004   2.194 -2.1275  1.0296 -0.0406
   90MOL0     O12016   1.945   2.291   5.901  0.3149 -0.3510 -0.8171
   90MOL0     C12017   1.834   2.340   5.905 -0.3419  0.4405 -0.2536
   90MOL0     O12018   1.777   2.420   5.798 -0.0358 -0.1348 -0.0753
   90MOL0     C12019   1.847   2.445   5.686 -0.3644 -1.2395  0.1931
   90MOL0     C12020   1.892   2.570   5.656 -0.6014 -0.6451  0.1433
   90MOL0     C12021   1.978   2.587   5.544 -0.8400 -0.9377 -0.2974
   90MOL0     C12022   2.018   2.482   5.473  1.2951 -0.4039  0.8801
   90MOL0     O12023   2.091   2.499   5.360  0.8097 -0.5965 -1.1629
   90MOL0     C12024   2.206   2.584   5.375 -0.0198 -0.7949  0.1989
   90MOL0     C12025   2.312   2.548   5.264  0.0580  0.6180  0.2140
   90MOL0     C12026   2.426   2.643   5.282  0.5830  0.8085 -0.2540
   90MOL0     C12027   2.537   2.584   5.182  0.5403  0.0663 -0.8334
   90MOL0     C12028   2.660   2.649   5.194 -1.0688 -1.1857  0.1999
   90MOL0     C12029   2.763   2.615   5.091  0.5589 -0.2528 -0.3631
   90MOL0     C12030   2.735   2.685   4.961  0.1551 -0.2921  0.5113
   90MOL0     C12031   2.752   2.836   4.962  0.0331  0.1639  0.7077
   90MOL0     N12032   2.765   2.885   4.829  0.3347  0.2875  1.0498
   90MOL0     C12033   2.889   2.906   4.778 -0.2268 -0.6537  0.3195
   90MOL0     C12034   2.866   2.969   4.665  0.4540 -0.2929  0.7998
   90MOL0     C12035   2.933   3.046   4.546  0.4247 -0.5509  0.6159
   90MOL0     C12036   3.057   3.116   4.608  0.6755 -0.5969 -0.8945
   90MOL0     C12037   3.042   3.233   4.710  0.5400 -0.1391  0.1363
   90MOL0     C12038   3.166   3.289   4.785  0.2420  0.4173  0.2147
   90MOL0     O12039   3.274   3.326   4.696  0.2666 -0.3967 -0.4440
   90MOL0     C12040   3.365   3.419   4.752 -0.2627  1.0074  0.1040
   90MOL0     C12041   3.355   3.492   4.872  0.3086 -0.1185  0.0001
   90MOL0     C12042   3.452   3.581   4.913  0.0825  0.7129 -0.1313
   90MOL0     C12043   3.563   3.618   4.829  0.9384 -0.0103  0.5851
   90MOL0     C12044   3.658   3.737   4.856  0.1908  0.5944  1.0181
   90MOL0     O12045   3.653   3.810   4.975  0.6043  0.1980  0.1713
   90MOL0     C12046   3.731   3.917   4.999  0.0884 -0.6787  0.2081
   90MOL0     C12047   3.769   3.933   5.126  0.4458 -1.0104 -0.1415
   90MOL0     C12048   3.860   4.034   5.158  0.1421  0.3487 -0.9118
   90MOL0     C12049   3.918   4.119   5.061  0.0745  1.0493  0.5173
   90MOL0     O12050   4.009   4.198   5.102 -0.7641 -0.9700 -0.3868
   90MOL0     C12051   4.043   4.311   5.021 -0.2331  0.2051 -0.4763
   90MOL0     C12052   4.142   4.274   4.910  0.7251 -0.4191 -0.7342
   90MOL0     C12053   4.108   4.351   4.781 -0.2964  0.2961 -0.1040
   90MOL0     C12054   4.218   4.335   4.680  0.3495 -0.1345  0.3955
   90MOL0     C12055   4.213   4.431   4.565  0.3293 -0.1300  0.5951
   90MOL0     C12056   4.348   4.423   4.480 -1.3707 -0.2801 -0.0620
   90MOL0     C12057   4.349   4.522   4.366 -0.1501  0.1898  0.3840
   90MOL0     C12058   4.402   4.661   4.409 -0.3261 -0.4616  0.0181
   90MOL0    Cl12059   4.272   4.760   4.490 -0.5063 -0.3804  0.3533
   90MOL0     C12060   3.876   4.097   4.935  0.3780  0.4538  1.2563
   90MOL0     C12061   3.792   3.997   4.898  0.2853 -0.2108 -0.5161
   90MOL0     O12062   3.733   3.752   4.764 -0.2177  0.0923 -0.3645
   90MOL0     C12063   3.575   3.540   4.713  0.6521  0.3433  0.5898
   90MOL0     C12064   3.479   3.441   4.677  0.5762 -0.2498 -0.3521
   90MOL0     N12065   2.729   2.985   4.649  0.3149  0.6142  0.3493
   90MOL0     N12066   2.670   2.940   4.751  0.2392  0.8186 -0.6047
   90MOL0     C12067   1.975   2.353   5.502  0.5055 -0.4443  0.3787
   90MOL0     C12068   1.887   2.332   5.608 -0.0507  0.7047 -0.5315
   90MOL0     C12069   1.766   2.332   6.045  1.1939  0.1582 -0.8313
   90MOL0     C12070   1.839   2.283   6.157  0.2554 -0.2180  0.2873
   90MOL0     C12071   1.775   2.263   6.284  0.0834 -0.3647 -0.8853
   90MOL0     C12072   1.657   2.302   6.319  0.9836  0.2644  0.1018
   90MOL0     O12073   1.611   2.307   6.451 -0.6111  0.2336 -0.0705
   90MOL0     C12074   1.652   2.195   6.535 -0.3637  0.4207 -0.7170
   90MOL0     C12075   1.563   2.149   6.645  0.0869  0.6326  0.0845
   90MOL0     C12076   1.419   2.130   6.595  0.6710 -0.2425 -0.4336
   90MOL0     C12077   1.331   2.066   6.702  0.4355 -0.2617  0.1222
   90MOL0     C12078   1.279   2.155   6.801 -0.9827 -0.2933 -0.3952
   90MOL0     C12079   1.218   2.228   6.885  0.1436 -0.6581 -0.1188
   90MOL0     C12080   1.589   2.370   6.223  0.3985  0.4764  0.1133
   90MOL0     C12081   1.628   2.375   6.084  0.0853 -0.0050 -0.6936
   90MOL0     C12082   1.534   2.453   5.981 -0.4781 -0.1050  0.8555
   90MOL0     H12083   1.843   2.649   5.712 -0.6912 -0.8541  0.3608
   90MOL0     H12084   2.000   2.692   5.530 -3.0369 -0.2189  1.0517
   90MOL0     H12085   2.177   2.688   5.361  2.1475 -0.4257 -2.4735
   90MOL0     H12086   2.257   2.564   5.469  2.7379  0.2461 -0.9659
   90MOL0     H12087   2.275   2.538   5.162 -1.0409 -5.5988  0.8105
   90MOL0     H12088   2.342   2.445   5.286 -0.4947  0.1365 -1.1880
   90MOL0     H12089   2.466   2.644   5.384 -1.7981  0.7482  0.7350
   90MOL0     H12090   2.382   2.738   5.253 -2.5314  0.1758  1.8961
   90MOL0     H12091   2.543   2.475   5.194 -0.0675  0.0568 -0.5833
   90MOL0     H12092   2.501   2.608   5.081 -3.1636  0.8139  0.5139
   90MOL0     H12093   2.640   2.757   5.191  1.6228 -0.4970  2.6321
   90MOL0     H12094   2.696   2.626   5.294 -1.5873  0.8438  0.8973
   90MOL0     H12095   2.865   2.635   5.124  0.6694  0.7447 -1.2672
   90MOL0     H12096   2.762   2.506   5.083  3.5837 -0.7545  3.3094
   90MOL0     H12097   2.635   2.673   4.919  0.9356  1.2743 -2.0332
   90MOL0     H12098   2.807   2.640   4.891  0.7950 -2.1550  2.2778
   90MOL0     H12099   2.670   2.879   5.020 -1.4021 -3.9061  2.0684
   90MOL0     H12100   2.841   2.860   5.020  1.4624  2.6576 -2.2109
   90MOL0     H12101   2.986   2.885   4.822  1.4565  0.3421 -2.6604
   90MOL0     H12102   2.973   2.976   4.472  2.2693 -0.5812  1.5971
   90MOL0     H12103   2.862   3.112   4.496  1.6934  1.4904  1.4020
   90MOL0     H12104   3.116   3.052   4.674  0.9418  1.3482  0.8846
   90MOL0     H12105   3.122   3.149   4.526  1.4787 -1.5044 -0.6438
   90MOL0     H12106   2.958   3.211   4.777 -1.1633  2.8101 -0.8568
   90MOL0     H12107   3.015   3.324   4.655  0.7374  0.7310  1.4178
   90MOL0     H12108   3.195   3.221   4.865 -0.1279  2.3303  2.0493
   90MOL0     H12109   3.132   3.381   4.834  3.7817  3.1916 -2.0623
   90MOL0     H12110   3.258   3.497   4.919  0.6047  3.4573  0.4800
   90MOL0     H12111   3.436   3.646   4.998  2.9944  2.4373 -0.7512
   90MOL0     H12112   3.715   3.877   5.201 -0.3670 -1.2681 -0.8985
   90MOL0     H12113   3.901   4.029   5.258 -0.5213 -0.8532 -0.6830
   90MOL0     H12114   3.948   4.348   4.982 -0.7159 -0.0513  0.4139
   90MOL0     H12115   4.063   4.387   5.097 -1.5539  2.0892 -1.9010
   90MOL0     H12116   4.242   4.292   4.951  0.2099 -1.4279  1.0670
   90MOL0     H12117   4.149   4.167   4.888  0.5220 -1.1814  2.4710
   90MOL0     H12118   4.020   4.306   4.734  0.2452 -0.2560 -0.6143
   90MOL0     H12119   4.094   4.455   4.812  0.2470  1.0207 -2.1502
   90MOL0     H12120   4.206   4.232   4.646 -0.9027  0.0362  0.2901
   90MOL0     H12121   4.317   4.343   4.726 -0.4777  1.5503  2.0511
   90MOL0     H12122   4.185   4.530   4.602 -2.6273  0.2721 -2.2730
   90MOL0     H12123   4.131   4.394   4.503  0.1157 -0.7379  1.2353
   90MOL0     H12124   4.440   4.435   4.536 -0.9152  1.3582 -1.0804
   90MOL0     H12125   4.358   4.324   4.434 -1.6737  0.0749 -0.9290
   90MOL0     H12126   4.250   4.539   4.322 -0.3229  3.1802  1.6539
   90MOL0     H12127   4.414   4.480   4.289  0.2041  2.1645 -0.4646
   90MOL0     H12128   4.485   4.636   4.476 -0.6801 -1.7044  0.0157
   90MOL0     H12129   4.430   4.710   4.316 -2.0277 -0.0372 -0.3125
   90MOL0     H12130   3.920   4.154   4.853 -1.4235 -0.2369 -0.2726
   90MOL0     H12131   3.763   3.991   4.793 -1.5823  0.1550 -0.0715
   90MOL0     H12132   3.659   3.546   4.644  0.0041  0.9887 -0.1575
   90MOL0     H12133   3.491   3.385   4.584 -2.3770  1.2647 -1.8018
   90MOL0     H12134   2.014   2.284   5.428  1.0900  0.6166 -0.3289
   90MOL0     H12135   1.839   2.240   5.638 -3.0353  2.4035  0.3355
   90MOL0     H12136   1.942   2.259   6.132  0.8131  3.3657 -1.5724
   90MOL0     H12137   1.839   2.211   6.356 -3.2488  0.1166  2.7389
   90MOL0     H12138   1.754   2.220   6.565 -0.9420 -0.0540  1.8910
   90MOL0     H12139   1.667   2.099   6.483 -1.5427 -1.1893  1.7313
   90MOL0     H12140   1.556   2.226   6.722  3.6482  3.3958 -2.0169
   90MOL0     H12141   1.608   2.055   6.679 -4.8021 -1.4379  1.7563
   90MOL0     H12142   1.418   2.064   6.508 -2.2464 -2.4585  1.0985
   90MOL0     H12143   1.387   2.234   6.587 -1.3324 -0.6609  1.3902
   90MOL0     H12144   1.248   2.019   6.649 -0.9785  2.1324  0.0548
   90MOL0     H12145   1.392   1.997   6.761 -1.4963 -0.6253  1.8233
   90MOL0     H12146   1.156   2.287   6.948  2.4938 -0.5720  2.3036
   90MOL0     H12147   1.494   2.416   6.251 -0.2323 -1.0904  0.6177
   90MOL0     H12148   1.429   2.474   6.003 -0.2880  0.7026  1.0612
   90MOL0     H12149   1.579   2.543   5.939 -0.0129 -0.2554  1.0265
   90MOL0     H12150   1.526   2.383   5.898  1.2657  0.9236 -0.2556
   91MOL0     O12151   9.536   8.447   8.775  0.2217  0.3098  0.6709
   91MOL0     C12152   9.621   8.415   8.856  0.2075 -0.2291  0.1018
   91MOL0     O12153   9.746   8.379   8.818  0.7315 -0.3046 -0.4540
   91MOL0     C12154   9.760   8.359   8.679 -0.7088 -0.9542  0.6745
   91MOL0     C12155   9.756   8.471   8.590 -0.4012 -0.1926  0.2954
   91MOL0     C12156   9.784   8.463   8.455 -0.2956  1.2503  1.1644
   91MOL0     C12157   9.811   8.330   8.399 -0.0481 -1.1635 -0.7892
   91MOL0     O12158   9.833   8.303   8.271 -0.1049  0.3417 -0.5906
   91MOL0     C12159   9.902   8.401   8.190  0.1917 -0.9228  0.3664
   91MOL0     C12160   9.869   8.388   8.047 -0.1426 -0.2472  0.1192
   91MOL0     C12161   9.934   8.272   7.986 -0.0097  0.5132 -0.3685
   91MOL0     C12162   9.913   8.272   7.832 -0.4308  0.4614  0.1694
   91MOL0     C12163  10.038   8.309   7.760  0.8675  1.2839  0.7956
   91MOL0     C12164  10.034   8.273   7.610  0.3710  0.0812  0.0646
   91MOL0     C12165  10.148   8.352   7.528 -0.1366 -0.0943  0.2727
   91MOL0     C12166  10.292   8.308   7.572  0.8720 -0.4584 -0.3840
   91MOL0     N12167  10.337   8.168   7.555 -0.3787 -0.5647  0.0245
   91MOL0     C12168  10.354   8.086   7.657 -0.1015 -0.2215  1.5449
   91MOL0     C12169  10.425   7.983   7.603 -0.2731  0.0610 -1.0904
   91MOL0     C12170  10.491   7.864   7.669  0.6672 -0.1686 -0.0205
   91MOL0     C12171  10.382   7.754   7.650 -0.7347 -0.2805 -0.8271
   91MOL0     C12172  10.426   7.615   7.703 -0.0065 -0.9638  0.2633
   91MOL0     C12173  10.307   7.514   7.699  0.1230 -0.7461  0.0766
   91MOL0     O12174  10.351   7.381   7.693 -0.5629  0.0533  0.9932
   91MOL0     C12175  10.364   7.305   7.810  0.6780  0.2175  0.0304
   91MOL0     C12176  10.360   7.354   7.943  1.3419 -0.0478  0.3355
   91MOL0     C12177  10.377   7.274   8.055  0.2721  0.1250 -0.6322
   91MOL0     C12178  10.387   7.135   8.037  0.1944  0.2210 -0.1532
   91MOL0     C12179  10.425   7.054   8.151  0.3020  0.0351 -0.4110
   91MOL0     O12180  10.416   6.916   8.133 -0.3532  0.1690 -0.0978
   91MOL0     C12181  10.404   6.846   8.250  0.8930 -0.8721 -0.0275
   91MOL0     C12182  10.515   6.834   8.335 -0.5971 -0.8309  0.6532
   91MOL0     C12183  10.494   6.758   8.452 -0.8372  0.7821 -0.0227
   91MOL0     C12184  10.383   6.688   8.482 -0.3885 -0.6381 -0.3261
   91MOL0     O12185  10.389   6.619   8.597 -0.7135  0.6549  0.0436
   91MOL0     C12186  10.265   6.571   8.654  0.2281 -0.0065 -0.3087
   91MOL0     C12187  10.299   6.571   8.807 -0.8552 -0.6136  0.5485
   91MOL0     C12188  10.381   6.440   8.848  0.5933 -0.9002  0.3214
   91MOL0     C12189  10.442   6.438   8.990 -0.0878 -0.1113  0.2613
   91MOL0     C12190  10.495   6.292   9.026  0.4222 -0.1685 -0.0782
   91MOL0     C12191  10.542   6.278   9.174 -0.6992  0.4184  0.5591
   91MOL0     C12192  10.674   6.348   9.206 -0.1651  0.0832 -0.1649
   91MOL0     C12193  10.797   6.321   9.124 -0.6043  0.1559  0.3752
   91MOL0    Cl12194  10.935   6.404   9.204  0.1697  0.1476  0.1736
   91MOL0     C12195  10.274   6.690   8.386  0.1207 -0.1633 -0.9748
   91MOL0     C12196  10.281   6.776   8.277 -0.2914  0.0011  0.7809
   91MOL0     O12197  10.455   7.113   8.254  0.1245 -0.2637  0.4208
   91MOL0     C12198  10.392   7.087   7.904 -0.3819 -0.0089 -0.4677
   91MOL0     C12199  10.381   7.165   7.791  0.0667 -0.3019  1.2087
   91MOL0     N12200  10.446   8.009   7.474  0.6060 -0.2438 -0.3312
   91MOL0     N12201  10.393   8.123   7.444 -0.0643 -0.4924  0.5770
   91MOL0     C12202   9.808   8.220   8.491  0.1865  0.4075  1.0496
   91MOL0     C12203   9.783   8.232   8.625  0.8323  0.3115 -0.3161
   91MOL0     C12204   9.575   8.408   8.992  0.0666 -0.6027 -0.3600
   91MOL0     C12205   9.439   8.388   9.020 -0.5713  0.2619 -0.0720
   91MOL0     C12206   9.393   8.395   9.151 -0.4746  0.0748  0.9304
   91MOL0     C12207   9.480   8.388   9.256 -0.6701 -0.1147 -0.0628
   91MOL0     O12208   9.429   8.379   9.382  0.1126 -0.2419  0.2211
   91MOL0     C12209   9.280   8.366   9.404 -1.6955 -0.8165  1.0142
   91MOL0     C12210   9.240   8.365   9.552  0.7385 -0.5676 -0.0659
   91MOL0     C12211   9.087   8.411   9.561 -0.4248  0.7833 -0.3669
   91MOL0     C12212   9.010   8.379   9.696 -0.1901  0.5040 -0.0601
   91MOL0     C12213   9.099   8.371   9.808 -0.3894  0.6844 -0.6523
   91MOL0     C12214   9.183   8.381   9.897  0.5520 -0.8184  0.3982
   91MOL0     C12215   9.618   8.391   9.240 -0.2593  0.7608  0.2434
   91MOL0     C12216   9.663   8.400   9.106 -0.8242  0.0527  0.1087
   91MOL0     C12217   9.815   8.413   9.102 -1.2520  0.1814  1.7097
   91MOL0     H12218   9.726   8.564   8.637  2.0469  1.1114 -0.5599
   91MOL0     H12219   9.781   8.548   8.388 -0.0524  1.2040  1.0921
   91MOL0     H12220   9.876   8.505   8.214  0.4967  0.0292 -2.8425
   91MOL0     H12221  10.009   8.400   8.211 -0.3579  1.5235  4.2144
   91MOL0     H12222   9.900   8.482   8.000  0.2246  0.2255  1.2616
   91MOL0     H12223   9.763   8.384   8.020 -0.6630 -1.8578  2.1440
   91MOL0     H12224   9.890   8.179   8.023  2.4018 -0.6757 -0.2901
   91MOL0     H12225  10.039   8.277   8.017 -0.1387  2.4590 -0.1131
   91MOL0     H12226   9.892   8.169   7.803 -0.8862  0.4681  0.4733
   91MOL0     H12227   9.830   8.330   7.793 -0.8269 -0.1991  0.0201
   91MOL0     H12228  10.058   8.416   7.769  0.2860  1.6008 -1.2314
   91MOL0     H12229  10.110   8.245   7.812 -1.8633 -1.9357  0.9306
   91MOL0     H12230  10.057   8.166   7.604  1.6102 -0.1598  4.7983
   91MOL0     H12231   9.932   8.284   7.570  0.1855 -2.8823 -0.5478
   91MOL0     H12232  10.136   8.454   7.567 -0.1489 -1.2074  3.4496
   91MOL0     H12233  10.146   8.343   7.419  0.5360  1.4076  0.1041
   91MOL0     H12234  10.355   8.361   7.501  1.8004 -1.5611 -0.4125
   91MOL0     H12235  10.311   8.338   7.676 -0.3027  5.1262 -1.4560
   91MOL0     H12236  10.341   8.098   7.764 -1.0947  0.0841  1.3973
   91MOL0     H12237  10.584   7.845   7.614 -0.0276 -0.0909 -1.2467
   91MOL0     H12238  10.509   7.878   7.776 -1.0312  2.5259  0.0158
   91MOL0     H12239  10.294   7.794   7.702 -0.4666 -4.0600  3.0975
   91MOL0     H12240  10.369   7.750   7.542  1.9877  2.4422 -1.4374
   91MOL0     H12241  10.457   7.638   7.806  1.1413  1.1520 -0.4943
   91MOL0     H12242  10.504   7.569   7.643 -0.4503 -1.1357 -0.1887
   91MOL0     H12243  10.254   7.528   7.604  0.4740  0.1491  0.0015
   91MOL0     H12244  10.231   7.522   7.778 -1.5978 -1.5542 -1.4135
   91MOL0     H12245  10.346   7.461   7.955 -3.5877 -0.2831 -0.7784
   91MOL0     H12246  10.376   7.330   8.148 -3.3634  0.7329 -0.9066
   91MOL0     H12247  10.603   6.894   8.314 -1.7846  0.3961 -1.2056
   91MOL0     H12248  10.575   6.740   8.523 -1.1863  1.3043  0.5202
   91MOL0     H12249  10.185   6.642   8.633 -2.0952 -2.5712 -0.6099
   91MOL0     H12250  10.222   6.477   8.620 -1.0653  0.1554  0.7832
   91MOL0     H12251  10.342   6.668   8.833 -3.4617  0.6728  0.3587
   91MOL0     H12252  10.205   6.562   8.863 -1.9553 -2.5078 -1.4479
   91MOL0     H12253  10.339   6.346   8.812 -0.7226  0.4179 -1.8545
   91MOL0     H12254  10.474   6.449   8.790  1.1223  1.2921  1.4125
   91MOL0     H12255  10.355   6.451   9.055 -0.7717 -0.7686 -0.4906
   91MOL0     H12256  10.521   6.514   8.993  1.2434 -1.2285 -2.3575
   91MOL0     H12257  10.576   6.256   8.962 -0.7463 -0.4681 -1.4293
   91MOL0     H12258  10.414   6.224   9.002 -1.0766  1.5230 -0.0520
   91MOL0     H12259  10.468   6.319   9.244 -0.5870 -0.3721  1.1632
   91MOL0     H12260  10.557   6.172   9.200 -0.7058  0.1101 -0.6119
   91MOL0     H12261  10.704   6.330   9.309  0.8731 -0.5514 -0.5643
   91MOL0     H12262  10.665   6.456   9.190 -2.0329 -0.0164 -0.0552
   91MOL0     H12263  10.815   6.213   9.132  0.8381  0.3601  0.1544
   91MOL0     H12264  10.795   6.339   9.016  0.9491 -2.5086 -0.1896
   91MOL0     H12265  10.183   6.633   8.403  2.6345 -3.9976  1.3036
   91MOL0     H12266  10.209   6.771   8.196 -0.6718 -0.5375  1.1383
   91MOL0     H12267  10.414   6.982   7.890 -1.8318 -0.0004 -3.6312
   91MOL0     H12268  10.390   7.133   7.688  4.2001 -2.4322  1.9967
   91MOL0     H12269   9.804   8.124   8.441 -3.9623  2.1053 -2.5682
   91MOL0     H12270   9.792   8.153   8.698  0.3537  0.2136 -0.3644
   91MOL0     H12271   9.357   8.385   8.949 -3.5724  4.5920  2.7163
   91MOL0     H12272   9.285   8.392   9.164 -0.5433 -0.5856  0.3064
   91MOL0     H12273   9.237   8.279   9.353 -1.4111  0.7173 -2.0585
   91MOL0     H12274   9.243   8.458   9.358  3.0418 -0.2919 -2.5017
   91MOL0     H12275   9.316   8.410   9.616  1.2024  1.3573 -1.8549
   91MOL0     H12276   9.237   8.259   9.578  0.3477 -1.0544 -1.9300
   91MOL0     H12277   9.026   8.373   9.479  0.2840  0.9446 -0.9750
   91MOL0     H12278   9.092   8.520   9.550 -2.6489  0.8401 -1.2496
   91MOL0     H12279   8.943   8.465   9.708 -0.3687  0.2781  0.6007
   91MOL0     H12280   8.959   8.285   9.674  2.3499 -0.8182 -0.7364
   91MOL0     H12281   9.233   8.362   9.990  0.1628 -1.4622  0.4844
   91MOL0     H12282   9.682   8.405   9.326  1.4637 -0.7830 -0.7191
   91MOL0     H12283   9.858   8.453   9.194  1.0282 -3.4417  2.4141
   91MOL0     H12284   9.852   8.310   9.101  0.6589  0.7757 -1.4854
   91MOL0     H12285   9.855   8.473   9.020 -2.3391 -1.5756 -0.2328
   92MOL0     O12286  10.539   6.626   7.602 -0.5706  0.1242  0.2620
   92MOL0     C12287  10.532   6.702   7.697 -0.3556  0.2576 -0.5695
   92MOL0     O12288  10.504   6.834   7.696  0.8812  0.4980 -1.0559
   92MOL0     C12289  10.446   6.879   7.584  0.6009 -0.8151 -0.4393
   92MOL0     C12290  10.528   6.969   7.504 -0.2092  0.2043  0.4286
   92MOL0     C12291  10.475   7.036   7.396  0.0731 -0.6056  0.3772
   92MOL0     C12292  10.340   7.032   7.362 -0.1515  0.0836 -0.9247
   92MOL0     O12293  10.284   7.096   7.248 -0.3704 -0.0591  0.6337
   92MOL0     C12294  10.376   7.106   7.137  0.9573 -0.7944 -1.3207
   92MOL0     C12295  10.295   7.102   7.013 -0.0969  0.1290 -0.9294
   92MOL0     C12296  10.212   7.224   6.988 -0.3528 -0.4656  0.1707
   92MOL0     C12297  10.202   7.250   6.840  0.3175  0.1982 -0.2943
   92MOL0     C12298  10.127   7.391   6.823  0.9741  0.0409 -0.0720
   92MOL0     C12299  10.234   7.502   6.815 -0.8087  0.4847 -0.2262
   92MOL0     C12300  10.176   7.649   6.814 -0.3006 -0.1367 -0.4635
   92MOL0     C12301  10.101   7.676   6.955 -0.6195  0.2997  0.7026
   92MOL0     N12302  10.075   7.815   6.981  0.1317 -0.7160  1.0860
   92MOL0     C12303  10.176   7.896   7.028  0.0004  0.5583 -0.4067
   92MOL0     C12304  10.121   8.018   7.020 -0.2659  0.9096 -0.2676
   92MOL0     C12305  10.182   8.160   7.055 -0.1599  0.8283  0.6692
   92MOL0     C12306  10.333   8.152   7.094 -0.4570  0.4098  0.5989
   92MOL0     C12307  10.398   8.293   7.117 -0.8366  0.8726 -0.5325
   92MOL0     C12308  10.545   8.296   7.167  0.0744 -0.0507 -0.5116
   92MOL0     O12309  10.567   8.418   7.236  0.2562  0.1809  0.0826
   92MOL0     C12310  10.702   8.440   7.265  0.8426  0.2855 -0.4828
   92MOL0     C12311  10.801   8.364   7.226 -0.8503 -0.0250  0.0770
   92MOL0     C12312  10.930   8.386   7.274  0.8117  1.0867 -0.2602
   92MOL0     C12313  10.955   8.490   7.370  0.7118 -0.2404  0.6506
   92MOL0     C12314  11.092   8.512   7.430 -0.5971 -0.2902 -0.4719
   92MOL0     O12315  11.185   8.411   7.426 -0.6433 -0.5994  0.2732
   92MOL0     C12316  11.295   8.433   7.499 -0.5718 -0.1236 -0.0314
   92MOL0     C12317  11.396   8.512   7.449 -0.1714 -0.4013 -0.1421
   92MOL0     C12318  11.509   8.523   7.521  0.0829  0.6068 -0.6816
   92MOL0     C12319  11.527   8.449   7.638  0.5684 -0.4433  0.3600
   92MOL0     O12320  11.648   8.460   7.697 -0.7777  1.1011 -0.4424
   92MOL0     C12321  11.671   8.397   7.822 -0.2476  0.4429 -0.1214
   92MOL0     C12322  11.608   8.473   7.944  0.3972  0.3350 -0.2827
   92MOL0     C12323  11.628   8.408   8.087  0.3181 -0.2209  0.3532
   92MOL0     C12324  11.769   8.348   8.101  0.1954  0.6948  0.9755
   92MOL0     C12325  11.783   8.296   8.249  0.0757  0.7470 -0.9178
   92MOL0     C12326  11.840   8.162   8.274 -0.1297 -0.0857  0.8921
   92MOL0     C12327  11.927   8.135   8.399 -0.0239 -0.3476  0.6956
   92MOL0     C12328  11.976   7.987   8.397 -0.0311  0.9113  0.1865
   92MOL0    Cl12329  12.097   7.938   8.278  0.3622  0.0890  0.2023
   92MOL0     C12330  11.420   8.375   7.687 -0.5067 -0.2708  0.5302
   92MOL0     C12331  11.298   8.372   7.619 -0.8364 -0.0797  0.6357
   92MOL0     O12332  11.107   8.617   7.495  0.0374 -0.6692 -0.2867
   92MOL0     C12333  10.846   8.571   7.407 -0.1076  0.1304 -0.0820
   92MOL0     C12334  10.723   8.545   7.355 -0.2746  0.3498 -0.0167
   92MOL0     N12335   9.994   8.013   6.986  1.2002  0.3313  0.3103
   92MOL0     N12336   9.962   7.894   6.953 -1.1666 -0.2910  0.9604
   92MOL0     C12337  10.257   6.949   7.443 -0.1559 -0.3966  0.1300
   92MOL0     C12338  10.309   6.877   7.557 -0.8817  0.1656  0.5106
   92MOL0     C12339  10.531   6.615   7.824 -0.2289  0.2720 -0.0908
   92MOL0     C12340  10.469   6.487   7.820  0.3235 -0.3909 -0.4919
   92MOL0     C12341  10.448   6.407   7.930  0.0456 -0.0192 -0.0881
   92MOL0     C12342  10.494   6.450   8.053  1.0868  0.6383 -0.7650
   92MOL0     O12343  10.490   6.382   8.173  0.0965 -0.1810  0.1949
   92MOL0     C12344  10.433   6.248   8.185  0.0220  0.4603  0.7507
   92MOL0     C12345  10.459   6.184   8.332 -0.6945  0.3323  0.4902
   92MOL0     C12346  10.604   6.137   8.338  0.8894 -0.5070  1.2873
   92MOL0     C12347  10.686   6.233   8.429 -0.0901 -0.3681 -0.7345
   92MOL0     C12348  10.809   6.171   8.477 -0.5754 -0.3473  0.2720
   92MOL0     C12349  10.907   6.138   8.538  0.3929 -0.3247 -0.1973
   92MOL0     C12350  10.567   6.564   8.060 -0.3544  0.0081 -0.3398
   92MOL0     C12351  10.589   6.645   7.951 -0.2933 -0.4164 -0.0788
   92MOL0     C12352  10.672   6.764   7.968 -0.3017 -0.3597 -0.0485
   92MOL0     H12353  10.627   6.993   7.542 -0.3499  2.5463 -0.5505
   92MOL0     H12354  10.524   7.117   7.344  0.4074 -0.7235  0.5013
   92MOL0     H12355  10.438   7.196   7.139 -1.9232  1.3599  0.0967
   92MOL0     H12356  10.439   7.017   7.140 -0.3914 -1.7597  0.7909
   92MOL0     H12357  10.224   7.019   7.018 -0.1711  0.2225 -0.3620
   92MOL0     H12358  10.366   7.088   6.931  2.1591  0.0723  0.9221
   92MOL0     H12359  10.276   7.303   7.028 -1.4351  0.9296 -0.7594
   92MOL0     H12360  10.116   7.218   7.039  0.8215  0.5757  2.6831
   92MOL0     H12361  10.300   7.245   6.793  0.5454 -0.4008  0.2189
   92MOL0     H12362  10.155   7.164   6.790  3.7935 -1.7935 -0.4123
   92MOL0     H12363  10.067   7.396   6.732  2.8851  0.9151 -1.3685
   92MOL0     H12364  10.059   7.424   6.902 -0.4523  1.1420 -1.6936
   92MOL0     H12365  10.298   7.497   6.903  2.1485  3.0847 -2.0174
   92MOL0     H12366  10.302   7.487   6.730  0.1540 -1.0461  0.7676
   92MOL0     H12367  10.118   7.660   6.722  0.3160 -0.6447 -0.9169
   92MOL0     H12368  10.263   7.716   6.820 -0.1843 -0.2869 -0.4856
   92MOL0     H12369  10.010   7.619   6.975 -2.0360  1.6142 -1.5721
   92MOL0     H12370  10.172   7.645   7.032  0.9505  0.9514 -0.4219
   92MOL0     H12371  10.275   7.863   7.056  0.6632  1.4587 -1.5701
   92MOL0     H12372  10.185   8.229   6.971  1.8827  0.7768  0.6368
   92MOL0     H12373  10.130   8.199   7.143  0.4655  1.0904  0.9325
   92MOL0     H12374  10.354   8.102   7.190 -2.0321 -0.1793  0.6744
   92MOL0     H12375  10.391   8.107   7.012 -0.0987  0.9434  0.5580
   92MOL0     H12376  10.335   8.350   7.185 -2.7717 -1.5693 -0.1364
   92MOL0     H12377  10.410   8.350   7.024  3.1250 -0.9015 -1.3621
   92MOL0     H12378  10.596   8.279   7.072 -2.0610 -0.1946 -1.7058
   92MOL0     H12379  10.575   8.211   7.228 -3.4650 -0.5320  0.8458
   92MOL0     H12380  10.782   8.292   7.147 -1.7113 -1.0940  1.2165
   92MOL0     H12381  11.015   8.326   7.241  1.8158  1.6677  1.1674
   92MOL0     H12382  11.375   8.561   7.354  1.1249 -0.0075 -0.2440
   92MOL0     H12383  11.604   8.570   7.495  2.7392 -3.1195  1.3018
   92MOL0     H12384  11.636   8.293   7.827  3.0069 -0.9184 -2.3673
   92MOL0     H12385  11.780   8.401   7.828 -0.1979 -1.6252  1.1193
   92MOL0     H12386  11.650   8.574   7.933 -0.7333  0.6817 -1.8265
   92MOL0     H12387  11.499   8.471   7.931  0.3351 -0.9789  0.2709
   92MOL0     H12388  11.619   8.485   8.164  1.0264  0.3769 -0.1375
   92MOL0     H12389  11.556   8.330   8.113  0.3898 -0.8998 -1.3314
   92MOL0     H12390  11.840   8.429   8.083 -0.4720  1.5283  1.9522
   92MOL0     H12391  11.785   8.257   8.042 -0.7479  0.6232  0.8106
   92MOL0     H12392  11.681   8.291   8.290 -0.1066 -1.1425 -1.5242
   92MOL0     H12393  11.835   8.369   8.312  1.6724 -0.3085 -0.9851
   92MOL0     H12394  11.758   8.091   8.286  1.2780 -1.4191  3.5272
   92MOL0     H12395  11.893   8.129   8.184 -0.7699 -2.6356  1.3596
   92MOL0     H12396  11.875   8.153   8.494  1.2540  1.0804  1.1670
   92MOL0     H12397  12.019   8.193   8.400  0.3585 -0.9483  0.7072
   92MOL0     H12398  12.009   7.951   8.494 -0.8175  1.8161  0.8143
   92MOL0     H12399  11.891   7.925   8.367 -0.7137  1.5373  0.7770
   92MOL0     H12400  11.424   8.314   7.776  0.7237  2.5672  2.5970
   92MOL0     H12401  11.225   8.297   7.648 -2.3469 -0.1939 -2.9496
   92MOL0     H12402  10.861   8.643   7.487 -0.9498  1.1278 -0.7969
   92MOL0     H12403  10.642   8.613   7.380  1.6827  2.5708  0.7353
   92MOL0     H12404  10.149   6.956   7.429 -0.5010 -0.7170  2.3057
   92MOL0     H12405  10.252   6.807   7.617  3.0429 -3.3268  0.6345
   92MOL0     H12406  10.429   6.450   7.726 -0.2002 -0.3533 -0.2866
   92MOL0     H12407  10.384   6.321   7.912 -3.0780  1.4772  2.6835
   92MOL0     H12408  10.481   6.178   8.115 -1.0629 -0.1028  0.5512
   92MOL0     H12409  10.327   6.272   8.172 -0.2718 -1.5046 -0.9394
   92MOL0     H12410  10.398   6.097   8.360  2.3698 -1.4363  2.3433
   92MOL0     H12411  10.428   6.259   8.405 -3.2189  1.5665 -1.6899
   92MOL0     H12412  10.649   6.134   8.238  0.2652  0.9473  0.9435
   92MOL0     H12413  10.601   6.035   8.377 -0.8787 -1.8601 -1.9800
   92MOL0     H12414  10.708   6.315   8.360  2.0640  0.3321  0.6844
   92MOL0     H12415  10.631   6.265   8.517  0.6518  3.4445 -1.4825
   92MOL0     H12416  10.986   6.111   8.605  0.5317 -0.1422 -0.2847
   92MOL0     H12417  10.599   6.580   8.163 -2.1351 -1.1193  0.4311
   92MOL0     H12418  10.774   6.755   7.929  1.3097  1.3353  3.3256
   92MOL0     H12419  10.631   6.851   7.916  0.5912  1.1053  1.5694
   92MOL0     H12420  10.694   6.792   8.072 -0.6248 -1.8165  0.4338
   93MOL0     O12421   6.097   0.028   7.041  0.7157 -0.1278  0.4631
   93MOL0     C12422   6.141   0.017   7.152  0.2059 -0.5604  0.4731
   93MOL0     O12423   6.131   0.112   7.255  0.2543 -0.2064  0.9303
   93MOL0     C12424   6.054   0.228   7.249  0.2911  0.8655 -0.4130
   93MOL0     C12425   6.034   0.300   7.365 -0.1383 -0.9827 -0.1703
   93MOL0     C12426   5.943   0.409   7.383 -0.0618 -0.5899  0.2502
   93MOL0     C12427   5.874   0.450   7.269 -0.1280  0.1665  0.2375
   93MOL0     O12428   5.788   0.559   7.261 -0.4004 -0.0576  0.1692
   93MOL0     C12429   5.693   0.587   7.372 -0.0359 -0.5824 -0.4890
   93MOL0     C12430   5.596   0.699   7.341  0.8063 -1.1326  1.0012
   93MOL0     C12431   5.486   0.709   7.450 -0.1051 -0.3981  0.9743
   93MOL0     C12432   5.509   0.833   7.540 -0.4106 -0.6153 -0.1115
   93MOL0     C12433   5.423   0.828   7.669 -0.0197 -0.7536 -0.0554
   93MOL0     C12434   5.278   0.820   7.632  0.3773  0.9273 -0.7734
   93MOL0     C12435   5.181   0.854   7.740  0.1589  0.6006  0.3044
   93MOL0     C12436   5.145   0.731   7.829 -0.0025 -0.5985  0.6898
   93MOL0     N12437   5.180   0.761   7.966 -0.7552 -0.2203  0.0350
   93MOL0     C12438   5.309   0.759   8.005 -0.3502 -0.5139  0.4180
   93MOL0     C12439   5.299   0.796   8.135  0.4391  0.4675 -0.1389
   93MOL0     C12440   5.424   0.822   8.221 -0.8334  0.4336  0.2122
   93MOL0     C12441   5.495   0.695   8.265 -0.4686 -0.9483 -0.1026
   93MOL0     C12442   5.625   0.709   8.355  0.6235  0.1345  0.2987
   93MOL0     C12443   5.694   0.575   8.368 -0.7677 -0.4359  0.7803
   93MOL0     O12444   5.756   0.522   8.250 -0.4485 -0.4615 -1.1957
   93MOL0     C12445   5.883   0.565   8.222  0.2111  0.5830  0.7124
   93MOL0     C12446   5.964   0.492   8.137 -0.4149 -0.5999 -1.0115
   93MOL0     C12447   6.088   0.533   8.084 -0.1012  0.5088 -0.8899
   93MOL0     C12448   6.145   0.648   8.132 -0.0978 -0.4825  0.3133
   93MOL0     C12449   6.268   0.707   8.075 -0.3223 -0.7039 -1.2625
   93MOL0     O12450   6.356   0.625   8.009 -0.8447 -0.1764 -0.7777
   93MOL0     C12451   6.466   0.688   7.949  0.9663 -0.3350  0.3732
   93MOL0     C12452   6.451   0.774   7.845  0.9774 -1.1199  0.6893
   93MOL0     C12453   6.564   0.839   7.788 -0.5718  0.2973 -0.1377
   93MOL0     C12454   6.687   0.808   7.840  0.5660 -0.7347  0.0167
   93MOL0     O12455   6.809   0.878   7.811  0.3383 -0.1237  0.4490
   93MOL0     C12456   6.816   0.970   7.705  0.6634 -0.0344 -0.4126
   93MOL0     C12457   6.966   0.995   7.654  0.4504 -0.1005 -0.4538
   93MOL0     C12458   7.032   1.085   7.760 -0.0598 -0.3469 -0.3002
   93MOL0     C12459   7.033   1.233   7.719 -0.5898  0.0436  0.1787
   93MOL0     C12460   7.053   1.323   7.844  0.2367 -0.2154 -0.1164
   93MOL0     C12461   7.149   1.444   7.800 -0.7050 -0.3692 -1.0173
   93MOL0     C12462   7.129   1.534   7.929  0.7477  1.2965  0.1221
   93MOL0     C12463   7.201   1.670   7.918  0.5057 -0.3113  0.4023
   93MOL0    Cl12464   7.375   1.641   7.896 -0.0808  0.3840 -0.5118
   93MOL0     C12465   6.704   0.707   7.938 -0.1236  0.0781 -1.0648
   93MOL0     C12466   6.588   0.650   7.993  0.1535  0.5786 -0.4433
   93MOL0     O12467   6.283   0.831   8.097 -0.4696  0.7409 -0.5968
   93MOL0     C12468   6.077   0.720   8.238  0.8871  1.1927 -1.6176
   93MOL0     C12469   5.947   0.672   8.277 -0.4910 -1.2380  0.2326
   93MOL0     N12470   5.166   0.798   8.168 -1.0052  0.1200  0.3622
   93MOL0     N12471   5.090   0.794   8.065  0.1981  0.0411  0.2631
   93MOL0     C12472   5.887   0.381   7.153  0.0170 -0.1860 -0.3921
   93MOL0     C12473   5.971   0.274   7.144 -0.3515 -1.1303  0.8498
   93MOL0     C12474   6.200  -0.108   7.178 -0.1928  0.6392 -0.2192
   93MOL0     C12475   6.177  -0.157   7.309  1.3746  0.2011  0.3705
   93MOL0     C12476   6.249  -0.262   7.351  0.5401  0.4159 -0.2151
   93MOL0     C12477   6.353  -0.321   7.272  0.8114 -0.6632 -1.1399
   93MOL0     O12478   6.418  -0.430   7.313 -0.0975  0.4622 -0.7474
   93MOL0     C12479   6.395  -0.507   7.436 -0.1522  0.2276 -0.1614
   93MOL0     C12480   6.527  -0.585   7.459 -0.0504  0.2722 -0.2381
   93MOL0     C12481   6.570  -0.644   7.327 -0.0772  0.0766 -0.4754
   93MOL0     C12482   6.663  -0.766   7.351  0.0558 -0.2436 -0.2485
   93MOL0     C12483   6.607  -0.874   7.436 -0.6749 -0.4465  0.7289
   93MOL0     C12484   6.561  -0.956   7.517  0.3821 -0.6029  0.3964
   93MOL0     C12485   6.381  -0.273   7.145 -0.5553  0.0094  0.0619
   93MOL0     C12486   6.306  -0.170   7.098 -0.2140 -0.8160 -0.0627
   93MOL0     C12487   6.329  -0.101   6.961  0.2982  0.1048 -0.9142
   93MOL0     H12488   6.102   0.278   7.447 -0.8217  1.0499  1.0327
   93MOL0     H12489   5.953   0.474   7.469  0.1935 -2.3521  1.6180
   93MOL0     H12490   5.637   0.495   7.393  0.9139 -1.1125 -0.2094
   93MOL0     H12491   5.750   0.626   7.456 -3.1900  0.2823  1.4349
   93MOL0     H12492   5.556   0.655   7.249  0.0527  0.0220  0.7544
   93MOL0     H12493   5.641   0.792   7.307  0.5687 -1.2816  0.2670
   93MOL0     H12494   5.489   0.623   7.518  1.0074  0.6431  2.3084
   93MOL0     H12495   5.388   0.713   7.402  0.6548 -0.1530 -0.6166
   93MOL0     H12496   5.612   0.850   7.572 -0.0962  0.9564 -1.7726
   93MOL0     H12497   5.487   0.925   7.485  2.6208  0.3479  0.1451
   93MOL0     H12498   5.455   0.741   7.727 -1.7024 -1.0488  0.4956
   93MOL0     H12499   5.450   0.917   7.726 -0.1994  0.7592 -2.2307
   93MOL0     H12500   5.259   0.894   7.554  2.3238  2.9849  0.5707
   93MOL0     H12501   5.256   0.718   7.599  4.2052 -1.2507  2.4335
   93MOL0     H12502   5.082   0.873   7.698 -0.3657  0.4305  1.4144
   93MOL0     H12503   5.220   0.933   7.804  1.4117 -1.1532  1.7993
   93MOL0     H12504   5.037   0.715   7.824  0.1352 -1.2537 -0.6564
   93MOL0     H12505   5.183   0.634   7.796 -3.4915 -1.2871 -1.8088
   93MOL0     H12506   5.389   0.736   7.936 -0.6220 -1.9291  0.5572
   93MOL0     H12507   5.505   0.872   8.168  1.8351 -2.0624  1.5984
   93MOL0     H12508   5.397   0.883   8.308 -0.2719  0.0777  0.6477
   93MOL0     H12509   5.429   0.633   8.326 -1.6688 -0.3718 -0.7831
   93MOL0     H12510   5.524   0.635   8.178  2.1251 -0.0884  0.0745
   93MOL0     H12511   5.599   0.739   8.457  4.4786  2.0433  0.9020
   93MOL0     H12512   5.694   0.783   8.313 -0.9217 -0.0016 -2.8053
   93MOL0     H12513   5.609   0.509   8.389 -0.3705 -0.8892  0.9873
   93MOL0     H12514   5.756   0.573   8.458 -1.3144  2.3070  1.3172
   93MOL0     H12515   5.929   0.392   8.113  0.6712 -1.2035 -0.1717
   93MOL0     H12516   6.138   0.475   8.007  0.0507 -0.1887 -0.2709
   93MOL0     H12517   6.356   0.798   7.799  2.0397  1.5255 -0.3722
   93MOL0     H12518   6.551   0.896   7.696 -0.4304  2.9851  1.3942
   93MOL0     H12519   6.757   0.935   7.619  1.1909  0.2877 -0.9144
   93MOL0     H12520   6.760   1.060   7.732  0.1031 -0.4532 -0.1582
   93MOL0     H12521   7.004   0.894   7.643 -1.0633 -0.7303 -0.1389
   93MOL0     H12522   6.962   1.042   7.556 -1.8784 -2.3994 -1.5617
   93MOL0     H12523   6.977   1.088   7.854  0.5112  2.3639  0.0326
   93MOL0     H12524   7.130   1.039   7.776  1.3575  2.3728 -0.5990
   93MOL0     H12525   6.942   1.262   7.665  0.1048 -0.4873 -1.3136
   93MOL0     H12526   7.116   1.239   7.649 -1.1480 -2.3138 -0.7695
   93MOL0     H12527   7.091   1.278   7.936  0.9292  0.6485  0.0343
   93MOL0     H12528   6.952   1.359   7.867  0.3289  0.6908 -1.0634
   93MOL0     H12529   7.253   1.412   7.797  0.0663  1.7167  1.1829
   93MOL0     H12530   7.125   1.507   7.714 -1.7493  1.7426  0.7327
   93MOL0     H12531   7.145   1.476   8.020 -2.3500  0.1350  0.0366
   93MOL0     H12532   7.021   1.550   7.934  0.4629 -0.0394 -1.0062
   93MOL0     H12533   7.147   1.727   7.841  0.0902  0.7456  1.4507
   93MOL0     H12534   7.185   1.734   8.005 -0.8128 -0.6871  0.4599
   93MOL0     H12535   6.797   0.679   7.987 -1.2506  1.3951  2.0556
   93MOL0     H12536   6.597   0.568   8.064 -0.9549  0.0559 -0.8752
   93MOL0     H12537   6.113   0.805   8.295  2.5854 -0.7527  0.4197
   93MOL0     H12538   5.887   0.738   8.339 -1.2331 -0.5197 -1.2125
   93MOL0     H12539   5.820   0.413   7.074  0.7579 -0.7693 -1.2688
   93MOL0     H12540   5.957   0.223   7.049 -1.0318 -0.1354  0.4010
   93MOL0     H12541   6.100  -0.123   7.377 -0.9308  0.6292 -2.2941
   93MOL0     H12542   6.222  -0.305   7.447 -4.1286  1.1309 -0.9469
   93MOL0     H12543   6.310  -0.576   7.430 -2.6156  3.1457 -1.8594
   93MOL0     H12544   6.391  -0.434   7.517  2.3136 -0.9175  1.0824
   93MOL0     H12545   6.493  -0.658   7.533  0.6058 -0.2162 -0.4039
   93MOL0     H12546   6.608  -0.526   7.503  1.4437 -0.9955 -1.1795
   93MOL0     H12547   6.621  -0.565   7.272  1.1344  1.2736  2.1974
   93MOL0     H12548   6.478  -0.677   7.278 -0.0384 -0.9872  0.1463
   93MOL0     H12549   6.695  -0.814   7.258  1.8709 -0.8422  0.6374
   93MOL0     H12550   6.760  -0.730   7.388  1.4673  1.2666 -4.6779
   93MOL0     H12551   6.550  -1.035   7.589  1.5536  0.2965  1.6189
   93MOL0     H12552   6.464  -0.306   7.085 -1.1423  1.8902 -1.9159
   93MOL0     H12553   6.245  -0.119   6.893  1.1070 -2.6608 -1.3095
   93MOL0     H12554   6.352   0.006   6.965 -1.6922  0.5383  1.8100
   93MOL0     H12555   6.418  -0.152   6.923  2.1885  0.1124  2.9973
   94MOL0     O12556   3.187   9.790  10.180 -0.3075 -0.5508 -1.3507
   94MOL0     C12557   3.159   9.710  10.093  0.3623  0.4024  0.2292
   94MOL0     O12558   3.184   9.580  10.093  0.0598 -0.5564 -0.2566
   94MOL0     C12559   3.305   9.536  10.152 -0.0058  0.9212 -1.1395
   94MOL0     C12560   3.313   9.395  10.190  0.1906 -0.6105  0.7689
   94MOL0     C12561   3.418   9.340  10.255  0.2184 -0.2315  0.7050
   94MOL0     C12562   3.523   9.416  10.289 -0.3377 -0.3794  0.8975
   94MOL0     O12563   3.608   9.351  10.379  0.3369 -0.2747 -0.3153
   94MOL0     C12564   3.690   9.445  10.459  0.3602 -0.0583  0.4901
   94MOL0     C12565   3.791   9.369  10.540 -1.1422  0.0430 -0.2435
   94MOL0     C12566   3.898   9.467  10.608  0.3853  1.2915 -0.4012
   94MOL0     C12567   4.034   9.387  10.620 -0.0093  0.1840 -0.3779
   94MOL0     C12568   4.141   9.483  10.693 -0.1246 -0.1581  0.1147
   94MOL0     C12569   4.278   9.430  10.709 -0.1744 -0.1050 -0.2453
   94MOL0     C12570   4.377   9.543  10.754 -0.2171 -1.2337  0.7764
   94MOL0     C12571   4.525   9.505  10.763  0.1829  0.1780 -0.4573
   94MOL0     N12572   4.602   9.517  10.645  0.0266 -0.5836  0.0705
   94MOL0     C12573   4.577   9.476  10.514 -0.2277 -0.3111 -0.5138
   94MOL0     C12574   4.687   9.524  10.448 -0.5126 -0.7005 -0.5796
   94MOL0     C12575   4.701   9.503  10.293 -0.8455 -0.2549 -0.0870
   94MOL0     C12576   4.679   9.362  10.258  0.4861 -0.3566 -0.3825
   94MOL0     C12577   4.646   9.335  10.114  0.5395 -0.0725  0.6079
   94MOL0     C12578   4.517   9.397  10.050  0.2628  0.3946  0.5104
   94MOL0     O12579   4.405   9.368  10.132 -0.5528  0.0607 -0.3496
   94MOL0     C12580   4.288   9.445  10.118 -0.2337  0.7309  0.0163
   94MOL0     C12581   4.181   9.418  10.207  0.1925 -0.4394 -0.4051
   94MOL0     C12582   4.065   9.494  10.190 -0.3838  0.3716 -0.9823
   94MOL0     C12583   4.029   9.565  10.077 -0.7175  0.6555  0.3563
   94MOL0     C12584   3.897   9.642  10.062  0.7193 -0.1413  0.7038
   94MOL0     O12585   3.893   9.755   9.979 -0.0239  0.6237  0.7846
   94MOL0     C12586   3.787   9.838   9.974  0.3193  0.1037 -0.6131
   94MOL0     C12587   3.741   9.922  10.086  0.6112 -0.5063  0.4608
   94MOL0     C12588   3.629   9.998  10.075  0.0506  0.2512 -1.7316
   94MOL0     C12589   3.563  10.004   9.950 -0.8459 -0.3021 -0.1461
   94MOL0     O12590   3.459  10.095   9.933  0.2012  0.2607 -0.5275
   94MOL0     C12591   3.370  10.109  10.045 -0.0559  0.8391 -0.8735
   94MOL0     C12592   3.247  10.192  10.013  0.4133 -0.0981 -0.1896
   94MOL0     C12593   3.184  10.152   9.881 -0.0902 -0.4068 -0.3050
   94MOL0     C12594   3.028  10.195   9.872 -0.2535  0.0833  0.0762
   94MOL0     C12595   2.968  10.199   9.731  0.0043 -0.4875  0.4345
   94MOL0     C12596   3.013  10.326   9.638  0.6214  0.8923 -0.1181
   94MOL0     C12597   2.977  10.470   9.692 -0.7683 -0.4775  0.1738
   94MOL0     C12598   2.838  10.505   9.679  0.2142 -0.3146 -0.0694
   94MOL0    Cl12599   2.767  10.494   9.507  0.1139  0.3671 -0.5116
   94MOL0     C12600   3.607   9.928   9.844  0.6458 -0.1153  0.3218
   94MOL0     C12601   3.715   9.850   9.859  0.4368  0.5417 -0.2903
   94MOL0     O12602   3.812   9.612  10.148  0.0491 -0.2403  0.4322
   94MOL0     C12603   4.139   9.592   9.996 -0.7361 -0.0359 -0.0367
   94MOL0     C12604   4.263   9.528  10.015 -0.1533 -0.7970  1.0152
   94MOL0     N12605   4.773   9.598  10.531 -0.1831 -0.3459 -0.2829
   94MOL0     N12606   4.717   9.593  10.647 -0.3994  0.4609  0.1613
   94MOL0     C12607   3.536   9.552  10.243  1.3988 -0.1102  0.9067
   94MOL0     C12608   3.427   9.611  10.168 -0.6298  0.4753 -0.2788
   94MOL0     C12609   3.098   9.748   9.968 -0.2821  0.1509 -0.2505
   94MOL0     C12610   3.166   9.716   9.851 -0.3547 -0.5400  0.0542
   94MOL0     C12611   3.106   9.752   9.730  0.6233 -0.1249 -0.1810
   94MOL0     C12612   2.977   9.810   9.719 -0.5771  0.1014 -0.1527
   94MOL0     O12613   2.924   9.830   9.600 -0.0956  0.4266  0.2804
   94MOL0     C12614   2.790   9.896   9.598  0.0830  0.3016  0.4864
   94MOL0     C12615   2.668   9.811   9.634 -1.0031  0.2475 -0.3131
   94MOL0     C12616   2.527   9.871   9.598 -0.1276 -0.2992 -0.7414
   94MOL0     C12617   2.461   9.947   9.717 -0.3013 -0.5736 -0.0176
   94MOL0     C12618   2.561  10.034   9.788  0.3533 -0.3185 -0.8996
   94MOL0     C12619   2.636  10.120   9.841  0.3639 -0.0619  0.1032
   94MOL0     C12620   2.916   9.841   9.844  0.4225 -0.3638  0.9173
   94MOL0     C12621   2.972   9.810   9.962  1.0405  0.3066 -0.6975
   94MOL0     C12622   2.899   9.846  10.088 -0.2677 -0.4915 -0.5936
   94MOL0     H12623   3.229   9.325  10.183 -1.4879  0.9215  3.4745
   94MOL0     H12624   3.410   9.238  10.290 -5.0359 -0.0542  0.9219
   94MOL0     H12625   3.739   9.509  10.385 -0.9237 -2.8187 -3.0427
   94MOL0     H12626   3.635   9.503  10.533  2.7831  2.0050  0.7975
   94MOL0     H12627   3.839   9.299  10.471 -1.3105  0.9034 -1.2442
   94MOL0     H12628   3.748   9.308  10.621 -0.5852 -0.1873 -0.1166
   94MOL0     H12629   3.872   9.508  10.706  0.5805  0.5146 -0.0178
   94MOL0     H12630   3.905   9.553  10.541  1.0629  0.4231 -1.4887
   94MOL0     H12631   4.033   9.295  10.679  0.0620  0.0939 -0.5194
   94MOL0     H12632   4.055   9.364  10.515 -2.3195  2.5360 -1.4647
   94MOL0     H12633   4.143   9.582  10.646  2.3192 -0.5164 -0.6801
   94MOL0     H12634   4.098   9.508  10.791  1.3888  0.2121  0.7198
   94MOL0     H12635   4.276   9.353  10.787 -1.0830  0.1399 -0.0166
   94MOL0     H12636   4.319   9.391  10.615  0.4456 -2.8504  1.0352
   94MOL0     H12637   4.333   9.568  10.852  1.3400  0.6357  1.0462
   94MOL0     H12638   4.364   9.629  10.687 -0.1235 -1.7873  0.0415
   94MOL0     H12639   4.572   9.579  10.828  2.0985 -0.9155 -0.5231
   94MOL0     H12640   4.533   9.406  10.809 -0.0815  0.9018  1.2234
   94MOL0     H12641   4.500   9.405  10.486  0.5096 -1.2286 -0.2469
   94MOL0     H12642   4.636   9.577  10.245 -0.3376  1.0782  1.2053
   94MOL0     H12643   4.801   9.522  10.255 -0.7104 -0.5381  0.1233
   94MOL0     H12644   4.767   9.298  10.272  1.4494  0.1008 -3.5278
   94MOL0     H12645   4.598   9.327  10.324  2.2521 -0.5383  1.8092
   94MOL0     H12646   4.650   9.227  10.099  0.5799  0.1837 -1.5215
   94MOL0     H12647   4.733   9.375  10.061 -0.2519 -1.0573 -1.5500
   94MOL0     H12648   4.503   9.339   9.958  1.0605 -1.2650  1.3944
   94MOL0     H12649   4.528   9.503  10.027 -0.6308  0.2305 -0.7808
   94MOL0     H12650   4.185   9.344  10.287 -1.3265 -0.6287 -0.4808
   94MOL0     H12651   3.985   9.490  10.263  0.5310 -0.6130  0.0084
   94MOL0     H12652   3.785   9.910  10.185  1.5172 -2.3555 -0.1024
   94MOL0     H12653   3.598  10.055  10.162  2.0725  0.7563 -1.2787
   94MOL0     H12654   3.338  10.015  10.091 -1.5068  2.3980  1.5544
   94MOL0     H12655   3.431  10.159  10.121 -1.9307 -0.0564  1.3434
   94MOL0     H12656   3.167  10.163  10.081 -0.3182 -1.9225 -1.7487
   94MOL0     H12657   3.277  10.297  10.015  0.8394 -0.2191  0.0627
   94MOL0     H12658   3.238  10.211   9.806 -3.8236 -1.4529 -4.2070
   94MOL0     H12659   3.192  10.045   9.862 -0.1871 -0.2013 -1.6210
   94MOL0     H12660   3.006  10.288   9.926  0.0870 -0.0955  0.5222
   94MOL0     H12661   2.977  10.119   9.931 -0.5849 -1.7081 -2.3425
   94MOL0     H12662   2.858  10.203   9.729  0.0236  0.1215 -2.2138
   94MOL0     H12663   2.999  10.107   9.681  2.2871  0.3011  0.3156
   94MOL0     H12664   3.122  10.316   9.628  0.4569 -0.6710 -0.5649
   94MOL0     H12665   2.987  10.314   9.532 -2.9353 -4.6715  0.9751
   94MOL0     H12666   3.030  10.545   9.631 -1.9897 -1.4108 -2.1693
   94MOL0     H12667   3.014  10.478   9.794  0.6439  1.7993 -0.4324
   94MOL0     H12668   2.783  10.442   9.749  0.8653 -0.4168  0.3613
   94MOL0     H12669   2.809  10.603   9.718 -0.1759  0.4542 -2.1285
   94MOL0     H12670   3.564   9.948   9.746  0.4514 -0.3679  0.3545
   94MOL0     H12671   3.741   9.782   9.778  2.6059  0.1561  0.6445
   94MOL0     H12672   4.146   9.665   9.916  5.3665  0.0732  0.1200
   94MOL0     H12673   4.336   9.541   9.936 -1.1633  2.3100  0.4479
   94MOL0     H12674   3.625   9.611  10.263  1.6819 -0.1622 -0.1108
   94MOL0     H12675   3.421   9.712  10.127  0.2105  0.3045 -0.8652
   94MOL0     H12676   3.260   9.662   9.842 -2.7896 -5.1114 -0.5018
   94MOL0     H12677   3.165   9.719   9.645 -1.2314  2.7720 -2.7996
   94MOL0     H12678   2.780   9.928   9.494 -0.0568  1.0792  0.7361
   94MOL0     H12679   2.786   9.991   9.651  1.5271  0.8442 -0.3390
   94MOL0     H12680   2.675   9.774   9.736  2.8849 -0.6531 -0.7486
   94MOL0     H12681   2.679   9.729   9.562  1.6419  0.7881 -0.6521
   94MOL0     H12682   2.468   9.785   9.568 -0.0668 -0.6826  0.2095
   94MOL0     H12683   2.539   9.938   9.512 -0.8645 -0.6440 -1.1201
   94MOL0     H12684   2.389  10.020   9.681 -0.9635  0.1759  2.6058
   94MOL0     H12685   2.413   9.875   9.785 -0.1661 -1.4589 -0.8310
   94MOL0     H12686   2.707  10.180   9.894 -0.0340  2.0116 -1.5615
   94MOL0     H12687   2.825   9.900   9.843 -0.2127 -1.2858  1.7487
   94MOL0     H12688   2.792   9.826  10.079 -0.5523  1.0907 -0.8735
   94MOL0     H12689   2.940   9.805  10.180  1.4053  4.1776  1.0105
   94MOL0     H12690   2.922   9.950  10.109  2.0016 -0.9882 -0.4012
   95MOL0     O12691   8.163   0.005   3.144 -0.3578 -0.1685 -0.1118
   95MOL0     C12692   8.226   0.014   3.244  0.3056  0.6252 -1.4708
   95MOL0     O12693   8.358   0.050   3.256 -0.2218 -0.6573 -0.3973
   95MOL0     C12694   8.418   0.089   3.134 -0.4785 -0.0520 -0.4065
   95MOL0     C12695   8.470   0.213   3.130 -0.4312 -0.6685  0.4733
   95MOL0     C12696   8.547   0.258   3.015 -1.3369 -0.5240  0.6599
   95MOL0     C12697   8.557   0.176   2.896 -0.3427  0.1588  0.5554
   95MOL0     O12698   8.595   0.244   2.782  0.1833  0.1847  0.3364
   95MOL0     C12699   8.609   0.156   2.660  0.5226 -0.9982 -0.1367
   95MOL0     C12700   8.475   0.144   2.594  0.1654  0.6132  0.3746
   95MOL0     C12701   8.491   0.023   2.502 -0.4818 -0.6087 -0.4708
   95MOL0     C12702   8.539   0.058   2.362 -0.5012 -0.2251 -0.2226
   95MOL0     C12703   8.542  -0.069   2.279  0.6566  1.0984 -0.1613
   95MOL0     C12704   8.431  -0.075   2.174  0.1152  0.2254 -1.0091
   95MOL0     C12705   8.450  -0.208   2.107 -0.5097  0.2559 -0.1262
   95MOL0     C12706   8.383  -0.334   2.169 -0.4026 -0.0907  0.3840
   95MOL0     N12707   8.235  -0.331   2.171 -0.3233 -0.4022 -0.4881
   95MOL0     C12708   8.142  -0.377   2.074 -0.6960 -0.3783  0.3992
   95MOL0     C12709   8.023  -0.389   2.145  0.3727 -1.4814  0.0409
   95MOL0     C12710   7.895  -0.423   2.089 -0.6217 -1.6118 -0.0443
   95MOL0     C12711   7.821  -0.299   2.055 -0.0873  0.3303  0.6003
   95MOL0     C12712   7.735  -0.324   1.932 -0.3726 -0.5681 -1.1021
   95MOL0     C12713   7.649  -0.199   1.897 -0.4328 -0.5273  0.5081
   95MOL0     O12714   7.540  -0.171   1.993  0.2522 -0.0165  0.8225
   95MOL0     C12715   7.531  -0.048   2.050 -1.2644 -0.3646  0.1352
   95MOL0     C12716   7.639   0.042   2.084  0.2130 -0.7901  0.3037
   95MOL0     C12717   7.606   0.158   2.155  0.1247 -0.1240  1.0694
   95MOL0     C12718   7.471   0.194   2.191  0.5479 -0.4067  0.8406
   95MOL0     C12719   7.437   0.309   2.276 -0.2544  1.3391 -0.9333
   95MOL0     O12720   7.536   0.372   2.332 -0.1591 -0.8146 -0.2336
   95MOL0     C12721   7.507   0.483   2.414  0.3616  0.4693 -0.0114
   95MOL0     C12722   7.408   0.474   2.515  0.1428 -0.7123 -0.0529
   95MOL0     C12723   7.382   0.590   2.581 -0.2058  0.5260 -0.5431
   95MOL0     C12724   7.448   0.707   2.567 -0.2308 -0.2224 -0.6553
   95MOL0     O12725   7.401   0.824   2.636 -0.0452  0.3072 -0.9396
   95MOL0     C12726   7.260   0.831   2.702 -0.0881 -1.4239  0.6076
   95MOL0     C12727   7.237   0.965   2.770 -0.1697  0.5578  0.0884
   95MOL0     C12728   7.341   0.978   2.879  0.3590  1.0341 -0.2040
   95MOL0     C12729   7.335   1.127   2.924 -0.1249 -0.7869 -1.0816
   95MOL0     C12730   7.458   1.159   3.017 -0.0724  0.7207  0.1531
   95MOL0     C12731   7.474   1.305   3.057  0.3550 -0.3655  0.5167
   95MOL0     C12732   7.582   1.324   3.161  0.5578 -1.4199 -0.2330
   95MOL0     C12733   7.593   1.480   3.188  0.7375  0.8476 -0.4163
   95MOL0    Cl12734   7.702   1.509   3.339  0.0587 -0.1357  0.1219
   95MOL0     C12735   7.551   0.712   2.469  0.5850 -0.1928 -0.1103
   95MOL0     C12736   7.579   0.595   2.396 -0.2223 -0.2412  0.2171
   95MOL0     O12737   7.321   0.341   2.278 -0.0340 -0.4621  0.1425
   95MOL0     C12738   7.368   0.106   2.148  0.6213 -0.7847 -0.8771
   95MOL0     C12739   7.402  -0.015   2.081 -0.3315 -0.3199  0.4298
   95MOL0     N12740   8.043  -0.339   2.271  0.1139  0.0802  0.1778
   95MOL0     N12741   8.174  -0.317   2.292  0.6741 -0.3046  0.8999
   95MOL0     C12742   8.502   0.048   2.908 -0.2055 -0.2882  0.2635
   95MOL0     C12743   8.430   0.009   3.023 -0.0052  0.0520  0.3682
   95MOL0     C12744   8.144  -0.016   3.369 -0.0206 -0.5219 -0.4340
   95MOL0     C12745   8.044  -0.117   3.373  1.0587  0.4937 -0.3269
   95MOL0     C12746   7.968  -0.136   3.480 -0.3618  0.5210 -0.6224
   95MOL0     C12747   7.980  -0.067   3.601  0.3296  0.5197 -0.0936
   95MOL0     O12748   7.892  -0.089   3.697 -0.2135 -0.5439 -0.5536
   95MOL0     C12749   7.940  -0.141   3.820 -0.2386  0.2943 -0.8281
   95MOL0     C12750   7.855  -0.254   3.881 -0.8430 -0.0362 -0.4105
   95MOL0     C12751   7.722  -0.207   3.939 -0.2465 -0.7549  0.0182
   95MOL0     C12752   7.626  -0.328   3.973 -1.8240 -0.5510  1.4276
   95MOL0     C12753   7.682  -0.424   4.067 -1.2674 -0.2902  0.5614
   95MOL0     C12754   7.725  -0.513   4.140  0.4369  0.2024 -0.0993
   95MOL0     C12755   8.092   0.016   3.607 -0.2842  0.0696 -0.0998
   95MOL0     C12756   8.167   0.049   3.492  0.1204 -0.6512 -0.4679
   95MOL0     C12757   8.259   0.171   3.522 -0.2407  1.1000 -0.7289
   95MOL0     H12758   8.458   0.277   3.217  1.5030 -0.0498  0.3449
   95MOL0     H12759   8.588   0.359   3.017  0.2361 -1.1523  0.9170
   95MOL0     H12760   8.677   0.219   2.602 -0.4545 -1.0685 -1.4100
   95MOL0     H12761   8.652   0.061   2.693  1.0012 -1.3223 -1.6011
   95MOL0     H12762   8.451   0.230   2.532  0.6347  0.0572 -0.5992
   95MOL0     H12763   8.391   0.132   2.664  0.5290 -1.4760  0.5369
   95MOL0     H12764   8.390  -0.017   2.500 -1.0454  0.4773  2.3834
   95MOL0     H12765   8.553  -0.057   2.543 -0.6996 -0.7453 -0.4049
   95MOL0     H12766   8.481   0.141   2.321 -1.4433 -1.2106 -0.9165
   95MOL0     H12767   8.642   0.095   2.352 -0.5131 -0.4243 -1.1377
   95MOL0     H12768   8.635  -0.084   2.224  0.3257 -0.6096 -0.3027
   95MOL0     H12769   8.531  -0.159   2.340  4.1146 -0.1299 -1.1392
   95MOL0     H12770   8.335  -0.067   2.226  0.1525  0.3275 -0.9557
   95MOL0     H12771   8.442  -0.007   2.090  0.8326  1.4205  0.0167
   95MOL0     H12772   8.554  -0.229   2.079  0.6961  4.8575  0.0858
   95MOL0     H12773   8.410  -0.200   2.006  0.1799  1.6249 -0.3189
   95MOL0     H12774   8.422  -0.420   2.115  1.3873  0.1765  1.1578
   95MOL0     H12775   8.414  -0.346   2.273 -0.0995 -0.7601  0.2212
   95MOL0     H12776   8.160  -0.402   1.970  1.2815 -0.2891  0.6928
   95MOL0     H12777   7.920  -0.480   1.999 -1.2558  1.4350 -2.3139
   95MOL0     H12778   7.833  -0.485   2.155 -4.0580  1.4436 -0.0839
   95MOL0     H12779   7.765  -0.270   2.144 -0.6780  0.1969  0.2721
   95MOL0     H12780   7.891  -0.215   2.042 -2.7945  3.3144  3.6249
   95MOL0     H12781   7.667  -0.406   1.955 -1.4077  0.6339  0.3059
   95MOL0     H12782   7.797  -0.352   1.846  0.7946 -2.3447  0.2622
   95MOL0     H12783   7.616  -0.218   1.795  1.2710  0.9369 -0.3783
   95MOL0     H12784   7.709  -0.108   1.887  4.0320 -3.3292 -1.1614
   95MOL0     H12785   7.739   0.004   2.064  0.9415  1.5911 -0.9715
   95MOL0     H12786   7.682   0.228   2.190 -0.2705  0.0605  1.5772
   95MOL0     H12787   7.344   0.388   2.535  0.4464 -0.9259  0.0097
   95MOL0     H12788   7.296   0.579   2.647 -1.7173  0.3482 -2.4716
   95MOL0     H12789   7.192   0.803   2.621  2.2228 -2.1175 -1.2155
   95MOL0     H12790   7.252   0.754   2.779  0.5267 -2.0321  0.0785
   95MOL0     H12791   7.249   1.053   2.706 -2.7195  0.1511 -1.0944
   95MOL0     H12792   7.135   0.958   2.809  0.0945 -3.7661  0.4459
   95MOL0     H12793   7.316   0.910   2.961  0.9424  2.7702  1.4775
   95MOL0     H12794   7.444   0.947   2.858  0.2938 -0.2967  1.3182
   95MOL0     H12795   7.239   1.160   2.964  0.5298  1.0608 -0.9497
   95MOL0     H12796   7.348   1.190   2.836  0.9786 -2.3838 -2.1119
   95MOL0     H12797   7.549   1.115   2.976 -1.1358 -2.6695  1.0568
   95MOL0     H12798   7.423   1.107   3.107 -0.7628  0.3567 -0.3151
   95MOL0     H12799   7.523   1.356   2.974  0.9405 -2.4579 -0.4981
   95MOL0     H12800   7.379   1.344   3.097  0.2816  0.9286 -0.8360
   95MOL0     H12801   7.681   1.289   3.131  0.7755 -2.2401  1.3327
   95MOL0     H12802   7.551   1.266   3.248  1.7263 -2.1987 -0.3179
   95MOL0     H12803   7.633   1.528   3.098  0.8128 -1.3676 -1.6238
   95MOL0     H12804   7.494   1.518   3.214  0.0935 -0.6645 -0.5958
   95MOL0     H12805   7.611   0.801   2.452  0.1126 -0.0591 -1.1599
   95MOL0     H12806   7.657   0.588   2.321 -2.8778 -0.3645 -2.6861
   95MOL0     H12807   7.263   0.118   2.171  1.0613 -1.8948  2.1865
   95MOL0     H12808   7.334  -0.091   2.043  1.0720 -0.3680 -2.2499
   95MOL0     H12809   8.498  -0.021   2.824 -1.8469  1.2530 -0.9925
   95MOL0     H12810   8.373  -0.083   3.013 -1.1298  0.7616  0.0265
   95MOL0     H12811   8.030  -0.190   3.293 -2.8033 -2.0207  2.2505
   95MOL0     H12812   7.885  -0.205   3.466  1.5270 -2.2799  1.0625
   95MOL0     H12813   7.956  -0.060   3.892 -2.6972  0.0671  0.0552
   95MOL0     H12814   8.038  -0.188   3.812  1.7587  3.8287  0.6690
   95MOL0     H12815   7.906  -0.291   3.970 -2.0729  3.5093  1.9666
   95MOL0     H12816   7.842  -0.338   3.812  0.2289 -0.5313 -0.0321
   95MOL0     H12817   7.677  -0.138   3.866  0.6851 -0.1199  0.0369
   95MOL0     H12818   7.735  -0.159   4.036  1.2650 -0.0953 -0.4936
   95MOL0     H12819   7.545  -0.284   4.032 -1.3911  1.8533  0.3725
   95MOL0     H12820   7.590  -0.376   3.882  0.7344 -2.5893  1.3734
   95MOL0     H12821   7.761  -0.602   4.189  0.7681 -0.4055 -1.4079
   95MOL0     H12822   8.122   0.038   3.708  1.2162 -1.2545 -0.2046
   95MOL0     H12823   8.335   0.146   3.596  0.1094  0.1251 -1.3895
   95MOL0     H12824   8.326   0.199   3.440  4.6374 -3.0581  1.2237
   95MOL0     H12825   8.198   0.258   3.547 -0.2464  0.8017  0.3246
   96MOL0     O12826   4.240   3.493   9.083  0.1962 -0.1363 -0.0391
   96MOL0     C12827   4.237   3.532   9.199 -0.0598 -0.8369  0.4586
   96MOL0     O12828   4.238   3.456   9.304 -1.2457  0.0409 -0.4682
   96MOL0     C12829   4.268   3.321   9.300 -0.4691 -0.2566 -0.0941
   96MOL0     C12830   4.368   3.275   9.210  0.5455 -0.5995  0.1768
   96MOL0     C12831   4.414   3.145   9.203  0.0171 -0.3599  0.7662
   96MOL0     C12832   4.363   3.056   9.298  0.4133 -0.0175  0.0351
   96MOL0     O12833   4.399   2.924   9.301  0.6445 -0.2695  0.5881
   96MOL0     C12834   4.506   2.901   9.394 -0.4632  0.0191 -0.1709
   96MOL0     C12835   4.606   2.803   9.336 -0.0192 -0.1348  0.6601
   96MOL0     C12836   4.537   2.670   9.333 -0.4184 -0.0678 -0.4668
   96MOL0     C12837   4.596   2.567   9.243  0.2979 -0.3088 -0.4348
   96MOL0     C12838   4.506   2.449   9.286 -0.0315 -0.3975 -0.6372
   96MOL0     C12839   4.544   2.324   9.216  0.6759  0.0284 -0.3519
   96MOL0     C12840   4.453   2.196   9.253 -0.1652 -0.1667 -1.0399
   96MOL0     C12841   4.472   2.156   9.405  0.4616 -0.1567  0.3733
   96MOL0     N12842   4.362   2.071   9.444 -0.8377  0.1229  1.1839
   96MOL0     C12843   4.367   1.956   9.515 -0.3405  0.1977 -0.3904
   96MOL0     C12844   4.234   1.913   9.530  0.5024 -0.1639 -0.3144
   96MOL0     C12845   4.179   1.784   9.585 -0.9417  0.1808 -0.5928
   96MOL0     C12846   4.031   1.754   9.571 -0.4561  0.1225  0.9847
   96MOL0     C12847   3.930   1.835   9.650  0.0717 -0.9940  0.9473
   96MOL0     C12848   3.894   1.780   9.779  0.6524 -0.7704 -0.2791
   96MOL0     O12849   4.017   1.765   9.865  0.2404 -0.1351  0.0701
   96MOL0     C12850   3.989   1.744  10.001  0.4052  0.4037  1.1989
   96MOL0     C12851   4.069   1.644  10.058  0.8865  0.1432 -0.6151
   96MOL0     C12852   4.045   1.585  10.191 -0.0124 -1.2406 -0.4247
   96MOL0     C12853   3.935   1.636  10.264  0.2426 -0.3349  0.6842
   96MOL0     C12854   3.925   1.609  10.413 -1.3177 -0.0629  1.0717
   96MOL0     O12855   4.045   1.588  10.473 -0.0740 -0.1725  0.1955
   96MOL0     C12856   4.048   1.564  10.610  0.3002 -0.9766 -0.2887
   96MOL0     C12857   4.112   1.441  10.658 -0.2332 -0.8077 -0.3929
   96MOL0     C12858   4.160   1.426  10.783 -0.2989 -0.0428  0.0169
   96MOL0     C12859   4.137   1.516  10.885  0.7251  0.1936  0.1901
   96MOL0     O12860   4.165   1.507  11.016 -0.3167  0.2933  0.0078
   96MOL0     C12861   4.277   1.425  11.054 -0.8029  0.4310 -0.0713
   96MOL0     C12862   4.258   1.382  11.204 -0.6212  0.3212 -0.2529
   96MOL0     C12863   4.387   1.318  11.263  0.7573  0.3201  0.1527
   96MOL0     C12864   4.396   1.311  11.418 -0.0514  0.1006 -0.1025
   96MOL0     C12865   4.383   1.436  11.492  0.5640  0.2394 -0.2467
   96MOL0     C12866   4.379   1.408  11.643 -0.6692 -0.4623  0.4595
   96MOL0     C12867   4.402   1.543  11.722 -0.6415 -0.9198 -1.3949
   96MOL0     C12868   4.409   1.534  11.877 -0.9072 -0.3603 -0.2203
   96MOL0    Cl12869   4.463   1.684  11.938 -0.7165 -0.2128 -0.1379
   96MOL0     C12870   4.066   1.635  10.847  0.7735  0.6442 -0.0118
   96MOL0     C12871   4.030   1.665  10.711  0.5173  0.3678  0.7589
   96MOL0     O12872   3.819   1.633  10.467 -0.6617 -0.1602  0.5779
   96MOL0     C12873   3.860   1.738  10.207 -0.0617 -0.7349 -0.9245
   96MOL0     C12874   3.875   1.789  10.073 -0.0692 -0.4660 -1.9518
   96MOL0     N12875   4.148   2.000   9.463  0.1683  0.2106 -0.0486
   96MOL0     N12876   4.230   2.096   9.412 -0.2497 -0.3624 -0.9728
   96MOL0     C12877   4.263   3.099   9.386  0.1777 -0.9084 -0.6192
   96MOL0     C12878   4.223   3.230   9.392  0.3668  0.2117 -0.2471
   96MOL0     C12879   4.227   3.676   9.221  0.2682 -0.7139  0.0831
   96MOL0     C12880   4.122   3.720   9.298  1.0967 -0.6151  0.3676
   96MOL0     C12881   4.093   3.855   9.324  0.0815 -0.1925 -0.2774
   96MOL0     C12882   4.179   3.952   9.268 -0.5203  0.4338 -1.0804
   96MOL0     O12883   4.157   4.084   9.297 -0.2165  0.2038  0.1990
   96MOL0     C12884   4.252   4.183   9.263  0.6550  0.8931 -0.9685
   96MOL0     C12885   4.244   4.302   9.358 -0.5498 -0.5912 -0.9965
   96MOL0     C12886   4.353   4.406   9.355  0.6515  1.2915  0.1951
   96MOL0     C12887   4.492   4.362   9.397  0.8110  0.0146  0.1265
   96MOL0     C12888   4.482   4.281   9.518  1.1495 -0.8042 -0.2418
   96MOL0     C12889   4.455   4.229   9.625  0.6724  0.8267  0.4659
   96MOL0     C12890   4.292   3.906   9.194  0.0028 -0.1187  0.7488
   96MOL0     C12891   4.314   3.774   9.167 -0.1311 -0.2655 -0.8614
   96MOL0     C12892   4.445   3.749   9.087  0.8777 -0.5147 -0.0400
   96MOL0     H12893   4.425   3.347   9.153  1.4265 -1.1077  0.4027
   96MOL0     H12894   4.496   3.122   9.136 -1.6033  0.4066 -1.6093
   96MOL0     H12895   4.564   2.987   9.430  1.8205 -1.9101  1.1665
   96MOL0     H12896   4.463   2.851   9.481 -1.3579 -6.4053 -3.7036
   96MOL0     H12897   4.703   2.810   9.386  0.1437 -0.1488  0.3417
   96MOL0     H12898   4.616   2.837   9.233  1.5407 -0.4438  0.6964
   96MOL0     H12899   4.431   2.679   9.308 -0.1730  2.4947 -0.8365
   96MOL0     H12900   4.534   2.630   9.434  1.2374  0.1836 -0.2922
   96MOL0     H12901   4.592   2.603   9.140  0.2989 -0.9586 -0.6641
   96MOL0     H12902   4.701   2.548   9.270 -0.3455  1.2986  4.1933
   96MOL0     H12903   4.512   2.431   9.394  2.7221 -0.1854 -0.7044
   96MOL0     H12904   4.401   2.474   9.266 -0.7735 -0.8500  2.2369
   96MOL0     H12905   4.542   2.336   9.107  2.3509  1.6913 -0.2468
   96MOL0     H12906   4.643   2.293   9.251  0.7802 -1.6429 -1.9263
   96MOL0     H12907   4.480   2.108   9.195  0.0273 -2.3367  2.0879
   96MOL0     H12908   4.350   2.214   9.223 -1.2431 -1.7487  1.4251
   96MOL0     H12909   4.564   2.101   9.426  0.9713 -0.4452 -2.2673
   96MOL0     H12910   4.465   2.239   9.477  2.2069 -1.8607  2.6520
   96MOL0     H12911   4.453   1.899   9.549  3.5683  3.6482 -3.4509
   96MOL0     H12912   4.246   1.721   9.525 -1.9560 -1.4623 -0.0693
   96MOL0     H12913   4.211   1.765   9.688 -0.6570 -1.0857 -0.8949
   96MOL0     H12914   4.017   1.761   9.463 -1.5360 -2.8007  0.8568
   96MOL0     H12915   4.030   1.649   9.600 -1.4138  0.0131  0.5899
   96MOL0     H12916   3.837   1.837   9.593  0.2917 -4.2138  0.2783
   96MOL0     H12917   3.961   1.939   9.658  1.0951 -1.0228 -1.7731
   96MOL0     H12918   3.856   1.678   9.767  0.1427 -0.6016 -0.1230
   96MOL0     H12919   3.820   1.846   9.826  1.0315  0.0643 -0.8431
   96MOL0     H12920   4.155   1.596  10.013  0.4086 -0.7146 -0.6280
   96MOL0     H12921   4.096   1.507  10.247 -2.7731 -0.4478  3.6265
   96MOL0     H12922   4.130   1.362  10.585  1.7387 -1.7348  1.0154
   96MOL0     H12923   4.188   1.321  10.786 -0.4613 -0.3350 -3.6130
   96MOL0     H12924   4.273   1.344  10.980  0.1189 -0.2795  0.6287
   96MOL0     H12925   4.373   1.474  11.039  0.7232 -2.2861  0.2084
   96MOL0     H12926   4.226   1.470  11.260 -2.5319  0.2327 -1.1053
   96MOL0     H12927   4.174   1.311  11.202  0.0343 -0.5724  1.7373
   96MOL0     H12928   4.401   1.218  11.221  0.5943  1.1419 -2.0067
   96MOL0     H12929   4.469   1.378  11.222  1.1877 -1.7134 -2.1628
   96MOL0     H12930   4.480   1.245  11.442 -2.3113 -3.3414 -0.9970
   96MOL0     H12931   4.303   1.261  11.446  0.6036 -2.1496 -1.6890
   96MOL0     H12932   4.289   1.489  11.476  1.3333  2.3212  1.6106
   96MOL0     H12933   4.462   1.501  11.454 -0.3932  0.1903 -2.4684
   96MOL0     H12934   4.287   1.354  11.663  0.3791 -2.5341  0.0174
   96MOL0     H12935   4.466   1.348  11.671  1.1262  2.4491  1.6740
   96MOL0     H12936   4.321   1.611  11.697  2.4618  3.5293 -0.5048
   96MOL0     H12937   4.503   1.571  11.692 -1.9975  5.0489 -1.5787
   96MOL0     H12938   4.316   1.505  11.926  0.1063 -0.7036  1.5954
   96MOL0     H12939   4.479   1.459  11.914  0.8851  2.4711  2.6897
   96MOL0     H12940   4.044   1.699  10.932  0.6021 -3.4842  3.3961
   96MOL0     H12941   3.986   1.761  10.687 -0.6213 -0.3354 -0.0853
   96MOL0     H12942   3.784   1.784  10.270  1.5475  2.6604 -1.2002
   96MOL0     H12943   3.811   1.865  10.031 -1.2263 -0.9388 -1.0821
   96MOL0     H12944   4.228   3.035   9.466  2.5523 -1.2536  0.1972
   96MOL0     H12945   4.156   3.265   9.470  0.8164 -0.4963  0.4727
   96MOL0     H12946   4.049   3.650   9.337 -2.2348  2.5295  0.2928
   96MOL0     H12947   4.009   3.870   9.392 -0.5533 -3.5206 -0.1664
   96MOL0     H12948   4.232   4.203   9.157 -1.1851  0.3884 -0.7508
   96MOL0     H12949   4.351   4.136   9.274  0.2759 -0.0689 -1.4978
   96MOL0     H12950   4.241   4.254   9.456  1.5741  1.4338  0.1625
   96MOL0     H12951   4.148   4.355   9.349  0.3457  2.2938  3.3434
   96MOL0     H12952   4.317   4.489   9.417 -4.2594 -0.2041 -0.2879
   96MOL0     H12953   4.367   4.455   9.258  0.9223  1.9254  0.5469
   96MOL0     H12954   4.545   4.299   9.323 -0.0439 -0.2441 -0.2780
   96MOL0     H12955   4.549   4.454   9.414 -1.6160  2.2533 -2.7933
   96MOL0     H12956   4.450   4.169   9.714  4.0044 -0.7666 -0.2522
   96MOL0     H12957   4.343   3.990   9.149 -0.0532  0.1276  1.1417
   96MOL0     H12958   4.441   3.810   8.997  0.4596  1.5486  1.3028
   96MOL0     H12959   4.519   3.781   9.162  0.7962 -0.4666  0.0190
   96MOL0     H12960   4.448   3.646   9.052 -2.7847 -0.0333 -2.1980
   97MOL0     O12961  10.597   2.215   7.478 -0.3012  0.0332  0.2113
   97MOL0     C12962  10.548   2.291   7.400 -0.3021 -0.4590 -0.7678
   97MOL0     O12963  10.525   2.277   7.272 -0.1140 -0.0963  0.1359
   97MOL0     C12964  10.557   2.163   7.208 -0.4389  0.5978 -0.4198
   97MOL0     C12965  10.461   2.098   7.140 -0.4870  0.1603 -0.3165
   97MOL0     C12966  10.501   1.976   7.088 -0.0896  0.3731 -0.2883
   97MOL0     C12967  10.631   1.935   7.077 -0.3592  0.4641  0.0223
   97MOL0     O12968  10.662   1.823   7.005  0.0614 -0.4056  0.3927
   97MOL0     C12969  10.799   1.830   6.946 -0.5226  0.6224  0.2907
   97MOL0     C12970  10.801   1.705   6.858 -0.2761  0.4450  0.3331
   97MOL0     C12971  10.916   1.679   6.765 -0.6707  0.6314  0.4439
   97MOL0     C12972  10.922   1.539   6.706 -0.0034 -0.1472  0.3005
   97MOL0     C12973  10.792   1.493   6.634  0.0503 -0.0331 -0.8920
   97MOL0     C12974  10.820   1.370   6.557 -0.6262 -0.3487 -0.3311
   97MOL0     C12975  10.706   1.340   6.461 -0.0147 -0.3345 -0.2862
   97MOL0     C12976  10.565   1.346   6.522 -0.6338  0.3641  0.2448
   97MOL0     N12977  10.467   1.315   6.412  0.1878  0.7861  0.2520
   97MOL0     C12978  10.448   1.394   6.297  0.4215  0.6928 -0.5079
   97MOL0     C12979  10.342   1.329   6.239 -0.4507 -0.0153  0.6177
   97MOL0     C12980  10.266   1.361   6.108 -0.4364 -0.6543  0.0604
   97MOL0     C12981  10.208   1.495   6.118 -0.2360 -0.5316 -0.1616
   97MOL0     C12982  10.153   1.529   5.981  0.9154  0.2155  0.1422
   97MOL0     C12983  10.083   1.675   5.996 -0.4233 -0.1621 -0.2860
   97MOL0     O12984  10.151   1.769   6.083  0.8418  0.1130 -1.1882
   97MOL0     C12985  10.252   1.847   6.029  0.2922 -0.5754  0.0344
   97MOL0     C12986  10.259   1.982   6.075 -0.0879 -0.2449  0.0578
   97MOL0     C12987  10.355   2.067   6.019 -0.3212 -0.2750  0.4966
   97MOL0     C12988  10.443   2.024   5.929 -0.2507 -0.0949 -0.0293
   97MOL0     C12989  10.550   2.112   5.876 -0.2175  0.2425 -0.8318
   97MOL0     O12990  10.642   2.053   5.795 -0.0991 -0.4542 -0.2445
   97MOL0     C12991  10.736   2.128   5.751 -0.0283 -0.0107 -0.2852
   97MOL0     C12992  10.860   2.093   5.804 -0.5390 -0.6808 -0.4663
   97MOL0     C12993  10.973   2.169   5.765 -0.3915  0.7719  0.3429
   97MOL0     C12994  10.950   2.263   5.663 -0.6573  0.5187 -0.5403
   97MOL0     O12995  11.063   2.327   5.614  0.1427  0.5229  0.2526
   97MOL0     C12996  11.062   2.353   5.473 -0.0783 -0.0240 -0.0593
   97MOL0     C12997  11.161   2.259   5.420 -0.7877  0.3915 -0.7036
   97MOL0     C12998  11.196   2.264   5.274  0.0162  0.3714  0.4002
   97MOL0     C12999  11.212   2.404   5.221  0.2698 -0.2334 -0.7727
   97MOL0     C13000  11.230   2.398   5.073  0.1222  0.6152  0.2681
   97MOL0     C13001  11.237   2.537   5.013 -0.8246 -1.0226  0.1573
   97MOL0     C13002  11.264   2.527   4.858 -0.8072  1.0517 -0.1406
   97MOL0     C13003  11.266   2.662   4.787 -0.7065  0.5136 -0.7208
   97MOL0    Cl13004  11.407   2.743   4.854 -0.0177 -0.1463  0.0773
   97MOL0     C13005  10.815   2.291   5.610  0.4010  0.2576 -0.2505
   97MOL0     C13006  10.713   2.222   5.650  0.2309  0.4623 -0.3924
   97MOL0     O13007  10.551   2.231   5.916  0.1922 -0.1577 -0.3321
   97MOL0     C13008  10.433   1.902   5.872 -0.1517  0.0377 -0.5218
   97MOL0     C13009  10.342   1.805   5.931 -1.1577  0.2123 -0.2143
   97MOL0     N13010  10.295   1.222   6.330 -0.0383 -0.2615 -0.2948
   97MOL0     N13011  10.374   1.222   6.427  0.6345 -0.3218 -0.3103
   97MOL0     C13012  10.732   2.006   7.147 -0.2021  0.5891 -0.9184
   97MOL0     C13013  10.695   2.125   7.209  0.6441 -0.0210 -0.3304
   97MOL0     C13014  10.542   2.429   7.447 -0.6457  0.3982 -0.0260
   97MOL0     C13015  10.612   2.527   7.377 -0.4471 -0.1152 -1.2610
   97MOL0     C13016  10.625   2.655   7.440  0.2872  0.4642  0.7126
   97MOL0     C13017  10.547   2.677   7.563 -0.4995  0.2002  0.1925
   97MOL0     O13018  10.532   2.801   7.614  0.0798 -0.2597  0.0647
   97MOL0     C13019  10.577   2.911   7.540 -0.0359 -0.5031  0.0026
   97MOL0     C13020  10.731   2.926   7.567 -0.1011 -0.4318  0.6515
   97MOL0     C13021  10.780   3.042   7.488 -0.0744  0.0559  0.3178
   97MOL0     C13022  10.930   3.090   7.510  0.8821 -0.1997 -0.3921
   97MOL0     C13023  10.952   3.158   7.640  0.2808 -0.5629  0.9604
   97MOL0     C13024  10.987   3.216   7.738  0.3385 -0.3028  0.8087
   97MOL0     C13025  10.476   2.578   7.619 -0.5781 -0.2368 -0.5350
   97MOL0     C13026  10.481   2.449   7.574  0.7112 -0.2221  0.5835
   97MOL0     C13027  10.421   2.350   7.656 -0.4909  0.0007 -0.7412
   97MOL0     H13028  10.357   2.128   7.144 -0.7877 -0.8187 -0.5281
   97MOL0     H13029  10.428   1.901   7.059  0.0637  0.1381 -0.0716
   97MOL0     H13030  10.819   1.927   6.899  2.4191  0.5196  1.1325
   97MOL0     H13031  10.877   1.813   7.020 -1.5947  2.3938  1.9187
   97MOL0     H13032  10.710   1.704   6.797  0.8438  2.9211 -1.5043
   97MOL0     H13033  10.785   1.625   6.932 -1.8647  0.1170 -0.3264
   97MOL0     H13034  11.010   1.694   6.819  0.9123  0.6870 -2.1352
   97MOL0     H13035  10.925   1.749   6.681  0.7823  1.1372  0.9876
   97MOL0     H13036  11.000   1.535   6.629 -1.3078  0.6882 -1.1182
   97MOL0     H13037  10.951   1.469   6.785 -0.4887 -1.6572 -0.8055
   97MOL0     H13038  10.714   1.455   6.700  2.0210 -3.1926 -0.1257
   97MOL0     H13039  10.766   1.582   6.577  3.1564  1.1365 -0.6976
   97MOL0     H13040  10.911   1.387   6.499  1.7535  0.9055  3.4178
   97MOL0     H13041  10.833   1.282   6.621 -1.2889 -0.3518 -0.1890
   97MOL0     H13042  10.722   1.245   6.410 -3.0253 -1.5351  0.7764
   97MOL0     H13043  10.704   1.425   6.392 -1.6717  0.4508  0.6691
   97MOL0     H13044  10.546   1.282   6.608 -0.7586  1.0333  0.7234
   97MOL0     H13045  10.540   1.445   6.561 -0.2035 -0.5366  2.9890
   97MOL0     H13046  10.495   1.484   6.256 -0.0962  0.1729 -2.3413
   97MOL0     H13047  10.336   1.366   6.025 -0.3572  2.4558  0.1732
   97MOL0     H13048  10.196   1.279   6.090  0.2213 -0.6519 -2.9700
   97MOL0     H13049  10.140   1.499   6.204 -0.8884  3.2890 -0.7134
   97MOL0     H13050  10.290   1.567   6.126 -1.9765  1.8164 -2.0616
   97MOL0     H13051  10.075   1.457   5.955  1.5504 -1.1029  1.6841
   97MOL0     H13052  10.228   1.537   5.902  0.9693 -1.1152  0.0412
   97MOL0     H13053   9.984   1.651   6.037 -0.2920 -3.3405 -1.5063
   97MOL0     H13054  10.070   1.714   5.895 -1.0820  1.2417  0.3125
   97MOL0     H13055  10.196   2.022   6.154  1.2787  3.5044 -0.5332
   97MOL0     H13056  10.352   2.171   6.050  0.8621 -0.0783  0.0063
   97MOL0     H13057  10.872   2.008   5.871 -2.7231 -0.1795  0.6226
   97MOL0     H13058  11.077   2.163   5.798  0.3395 -2.2125 -2.0389
   97MOL0     H13059  10.966   2.325   5.430 -0.0761  1.8311 -1.3702
   97MOL0     H13060  11.084   2.459   5.456 -4.3240  1.3568  1.6918
   97MOL0     H13061  11.256   2.284   5.469 -0.1291 -0.0260 -1.7321
   97MOL0     H13062  11.145   2.154   5.446 -1.6318  0.6231 -0.2753
   97MOL0     H13063  11.285   2.201   5.272 -0.9835 -1.1886  2.0655
   97MOL0     H13064  11.113   2.215   5.221 -2.3679  2.7687  1.6584
   97MOL0     H13065  11.291   2.455   5.276 -1.5090 -1.6216  3.4778
   97MOL0     H13066  11.115   2.450   5.241 -1.1147 -3.4352  0.5506
   97MOL0     H13067  11.147   2.346   5.025 -0.4236 -0.3271  2.1348
   97MOL0     H13068  11.318   2.341   5.041 -2.0726 -2.1653 -1.2335
   97MOL0     H13069  11.139   2.583   5.028  0.4932  2.4262 -0.6614
   97MOL0     H13070  11.315   2.603   5.053 -1.0942 -1.3338  1.2166
   97MOL0     H13071  11.199   2.454   4.809  2.3860 -1.0192 -1.6920
   97MOL0     H13072  11.360   2.477   4.841 -0.9656  0.0278  1.7396
   97MOL0     H13073  11.297   2.648   4.683  1.1258  0.8533 -0.2534
   97MOL0     H13074  11.168   2.709   4.794 -1.2129 -0.5971 -0.1091
   97MOL0     H13075  10.781   2.360   5.533  1.5725  0.8232 -0.2886
   97MOL0     H13076  10.617   2.240   5.603 -1.1928 -1.4941  1.6089
   97MOL0     H13077  10.485   1.872   5.781  0.0822 -0.5802 -0.1923
   97MOL0     H13078  10.340   1.706   5.887  0.4798  0.8935 -1.9891
   97MOL0     H13079  10.833   1.971   7.165 -0.1887  1.8349  1.9035
   97MOL0     H13080  10.780   2.181   7.248  0.2840 -0.0203  0.4703
   97MOL0     H13081  10.673   2.502   7.291  2.7011  1.4306  0.3279
   97MOL0     H13082  10.686   2.715   7.373 -0.2291  1.7184  1.3180
   97MOL0     H13083  10.519   3.000   7.568  0.0869  0.6921 -3.1419
   97MOL0     H13084  10.558   2.901   7.433  0.3109 -4.1020  0.1853
   97MOL0     H13085  10.783   2.832   7.548  0.2290 -0.2413  0.5979
   97MOL0     H13086  10.749   2.942   7.674  2.4012  1.0561  0.0805
   97MOL0     H13087  10.726   3.136   7.504 -1.6190 -1.0515  1.9422
   97MOL0     H13088  10.754   3.021   7.383 -0.1883  2.4289 -0.1845
   97MOL0     H13089  11.001   3.007   7.500  1.7581  0.5228 -0.2417
   97MOL0     H13090  10.962   3.151   7.425  1.2991  0.9110  0.5375
   97MOL0     H13091  11.000   3.296   7.808 -1.6534 -0.8737  1.9429
   97MOL0     H13092  10.404   2.597   7.698 -2.4273 -3.3848 -1.2649
   97MOL0     H13093  10.352   2.302   7.586  2.0919  0.8307 -4.1385
   97MOL0     H13094  10.499   2.284   7.694 -2.4420 -0.2078  3.3999
   97MOL0     H13095  10.352   2.382   7.734 -1.2733 -1.4850 -0.7911
   98MOL0     O13096   8.299   5.244   1.480 -0.1496  0.4677 -0.4213
   98MOL0     C13097   8.293   5.300   1.375  0.1795 -0.8929  0.0074
   98MOL0     O13098   8.177   5.360   1.330 -0.0594  0.1313  0.3371
   98MOL0     C13099   8.073   5.375   1.417 -0.5855  0.4414 -0.8125
   98MOL0     C13100   8.085   5.433   1.549  0.3963 -0.2746 -0.0531
   98MOL0     C13101   7.980   5.465   1.632  0.1266 -0.6476 -0.3353
   98MOL0     C13102   7.849   5.439   1.583 -0.2911  0.3860 -0.3082
   98MOL0     O13103   7.735   5.495   1.639  0.2406  0.2277  0.5209
   98MOL0     C13104   7.754   5.640   1.609 -0.4598 -0.7846 -0.2432
   98MOL0     C13105   7.620   5.704   1.621 -1.0598  0.6960  0.5035
   98MOL0     C13106   7.538   5.647   1.502 -0.5732 -0.1192 -0.6370
   98MOL0     C13107   7.400   5.712   1.508  1.0965  0.5244  0.4817
   98MOL0     C13108   7.298   5.648   1.413 -0.4152  0.6970  0.1742
   98MOL0     C13109   7.289   5.729   1.278 -0.1090  0.5880 -0.9669
   98MOL0     C13110   7.236   5.868   1.306 -0.4334 -0.6669  0.6405
   98MOL0     C13111   7.176   5.936   1.177  0.5201 -0.1677 -0.7530
   98MOL0     N13112   7.278   5.960   1.075  0.5805 -0.2804 -0.3860
   98MOL0     C13113   7.283   5.899   0.954 -0.6962  0.1989  0.2060
   98MOL0     C13114   7.395   5.948   0.897 -1.0937 -0.1696 -0.3488
   98MOL0     C13115   7.427   5.913   0.753  0.5589 -0.1861 -0.9063
   98MOL0     C13116   7.364   6.001   0.655  0.0390 -0.0699 -1.4158
   98MOL0     C13117   7.461   6.110   0.613 -0.1316  0.3898  0.5333
   98MOL0     C13118   7.400   6.193   0.496 -0.7460 -1.2967 -1.4421
   98MOL0     O13119   7.451   6.173   0.360  0.1730  0.4170 -0.4136
   98MOL0     C13120   7.549   6.253   0.301  0.1872  0.7013  0.3134
   98MOL0     C13121   7.543   6.253   0.160  0.4323 -0.2917  0.3692
   98MOL0     C13122   7.636   6.321   0.089  0.2878 -0.5033 -0.1981
   98MOL0     C13123   7.736   6.397   0.155  0.2827 -0.6111 -0.1813
   98MOL0     C13124   7.825   6.465   0.075  0.6182  0.7188  0.0378
   98MOL0     O13125   7.921   6.542   0.132  0.5674 -0.3402 -0.3234
   98MOL0     C13126   8.021   6.603   0.054  0.7880  0.6211 -0.1498
   98MOL0     C13127   8.016   6.741   0.022 -0.6216 -0.0103 -0.1275
   98MOL0     C13128   8.095   6.794  -0.073 -0.4360 -0.0090  0.7260
   98MOL0     C13129   8.206   6.724  -0.114  0.4654 -0.1414 -0.1662
   98MOL0     O13130   8.294   6.798  -0.199 -0.3567 -0.7835  0.2777
   98MOL0     C13131   8.435   6.755  -0.202  0.3444 -0.4494 -0.5269
   98MOL0     C13132   8.535   6.841  -0.274  0.8617 -0.3638 -0.7151
   98MOL0     C13133   8.548   6.989  -0.225  0.3571  0.0420 -1.1276
   98MOL0     C13134   8.664   6.999  -0.120  0.6540  0.2764  0.0345
   98MOL0     C13135   8.641   7.142  -0.049 -0.4162 -0.1978 -0.1170
   98MOL0     C13136   8.676   7.253  -0.141  1.5885 -0.0590  0.2906
   98MOL0     C13137   8.814   7.256  -0.189 -0.1802 -0.7562  0.0278
   98MOL0     C13138   8.889   7.394  -0.192  0.1656  0.2679  0.2439
   98MOL0    Cl13139   9.065   7.369  -0.252  0.1990  0.0233 -0.0450
   98MOL0     C13140   8.225   6.590  -0.074 -0.4677 -0.5905  0.9440
   98MOL0     C13141   8.119   6.524  -0.001 -0.3238 -0.3161 -0.1566
   98MOL0     O13142   7.820   6.440  -0.053 -0.6390 -0.4824  0.0838
   98MOL0     C13143   7.732   6.413   0.291  0.0013  0.2426  0.5049
   98MOL0     C13144   7.638   6.340   0.363 -0.4303  0.5867  0.2820
   98MOL0     N13145   7.456   6.042   0.984  0.4733 -0.0423  0.0775
   98MOL0     N13146   7.380   6.051   1.090  0.1719 -0.3706 -0.0991
   98MOL0     C13147   7.830   5.381   1.464 -0.3881  0.5445  0.4716
   98MOL0     C13148   7.936   5.352   1.382  0.2939  0.7991  1.6934
   98MOL0     C13149   8.422   5.310   1.304 -0.7959 -0.0370  0.0979
   98MOL0     C13150   8.545   5.313   1.379  0.2808  0.0200 -1.3578
   98MOL0     C13151   8.667   5.342   1.318  0.8074 -0.1108 -0.0663
   98MOL0     C13152   8.686   5.372   1.180 -0.5728 -1.0794 -0.2428
   98MOL0     O13153   8.813   5.417   1.133  0.4745 -0.2006  0.3582
   98MOL0     C13154   8.837   5.432   0.994 -0.3666 -0.5001  0.0837
   98MOL0     C13155   8.846   5.290   0.923  0.1909 -0.6364  0.2209
   98MOL0     C13156   8.915   5.180   0.995 -1.1610  0.6024 -0.0700
   98MOL0     C13157   9.059   5.174   0.948  0.3985  0.1082 -0.4184
   98MOL0     C13158   9.072   5.114   0.815 -0.5265  0.1037  0.6925
   98MOL0     C13159   9.103   5.072   0.702 -0.2920  1.0625 -0.1306
   98MOL0     C13160   8.566   5.363   1.109 -1.0452 -0.0020  0.2388
   98MOL0     C13161   8.437   5.335   1.167 -0.3020  0.5450 -0.0626
   98MOL0     C13162   8.324   5.333   1.076  0.4505  0.4089  0.1716
   98MOL0     H13163   8.185   5.444   1.590 -0.1515 -2.4442  2.0951
   98MOL0     H13164   8.001   5.521   1.723 -5.0916  3.1410 -0.9898
   98MOL0     H13165   7.816   5.686   1.687 -3.7378 -0.3395  2.3264
   98MOL0     H13166   7.799   5.662   1.512 -2.7713 -0.7144 -1.3657
   98MOL0     H13167   7.625   5.813   1.613  3.8351  0.7089  0.7652
   98MOL0     H13168   7.561   5.669   1.706 -0.6563  1.1395  0.9735
   98MOL0     H13169   7.512   5.543   1.524 -0.9560  0.1689  0.3007
   98MOL0     H13170   7.583   5.653   1.402  0.6591 -6.6142 -0.8826
   98MOL0     H13171   7.358   5.706   1.609 -0.5580 -3.3377 -0.2573
   98MOL0     H13172   7.409   5.820   1.498  1.9495  0.2816 -1.7517
   98MOL0     H13173   7.318   5.541   1.410 -0.6998  0.6458  0.1305
   98MOL0     H13174   7.202   5.656   1.464 -0.8709  2.5422 -0.8763
   98MOL0     H13175   7.390   5.749   1.242  0.8327  2.2258  2.1902
   98MOL0     H13176   7.222   5.683   1.205 -1.4758 -2.3849  1.8905
   98MOL0     H13177   7.313   5.934   1.348  2.1739 -2.6050 -0.7966
   98MOL0     H13178   7.154   5.853   1.376 -0.6285 -0.5477  0.4395
   98MOL0     H13179   7.086   5.888   1.136  0.2891 -0.2359 -0.1762
   98MOL0     H13180   7.135   6.036   1.195 -3.1374 -1.6145 -0.1098
   98MOL0     H13181   7.196   5.846   0.916 -0.6951  0.5751 -0.3342
   98MOL0     H13182   7.532   5.894   0.730  0.5663  0.0513 -1.0683
   98MOL0     H13183   7.382   5.814   0.738  2.5821 -1.4102  0.6180
   98MOL0     H13184   7.341   5.943   0.565 -1.5428  2.3626 -2.6856
   98MOL0     H13185   7.269   6.044   0.690 -0.4492 -0.8140 -1.8111
   98MOL0     H13186   7.560   6.074   0.585  0.3600  2.5578 -0.7301
   98MOL0     H13187   7.465   6.189   0.690 -0.0814  0.3080  0.6141
   98MOL0     H13188   7.408   6.296   0.532  5.0900 -2.0138  0.3882
   98MOL0     H13189   7.292   6.178   0.489 -0.4197 -3.2459 -3.2524
   98MOL0     H13190   7.464   6.198   0.109  1.9932 -2.2838 -0.0368
   98MOL0     H13191   7.620   6.324  -0.018 -1.4203  1.4151  0.0358
   98MOL0     H13192   7.937   6.797   0.071 -1.4181 -2.9223  2.2444
   98MOL0     H13193   8.088   6.899  -0.096 -1.2055 -0.0699  0.6636
   98MOL0     H13194   8.473   6.755  -0.099 -0.9284  1.9439  0.0187
   98MOL0     H13195   8.445   6.651  -0.235  0.1262 -0.2729 -1.1605
   98MOL0     H13196   8.636   6.799  -0.276  2.8275  3.8165 -0.5225
   98MOL0     H13197   8.499   6.839  -0.377 -3.8771 -2.0846  0.7350
   98MOL0     H13198   8.568   7.062  -0.305  2.1457  1.3529  0.4310
   98MOL0     H13199   8.453   7.020  -0.181 -1.6755 -0.5897 -4.6641
   98MOL0     H13200   8.761   6.985  -0.170  2.1965  6.9411  0.2950
   98MOL0     H13201   8.649   6.922  -0.043 -1.2496  0.5975  0.0337
   98MOL0     H13202   8.699   7.158   0.042 -0.0757 -0.7098 -0.2395
   98MOL0     H13203   8.535   7.137  -0.023 -0.5138 -1.6562 -0.6975
   98MOL0     H13204   8.600   7.259  -0.220  0.9846 -1.4416  0.7197
   98MOL0     H13205   8.665   7.345  -0.084  2.5650  0.4108 -0.2630
   98MOL0     H13206   8.810   7.223  -0.293 -0.9725  1.5671 -0.7490
   98MOL0     H13207   8.884   7.188  -0.140  2.4385  0.4160 -1.8033
   98MOL0     H13208   8.825   7.457  -0.255 -2.2462 -3.4767 -1.3787
   98MOL0     H13209   8.902   7.434  -0.091  2.1784 -2.8841  1.3796
   98MOL0     H13210   8.313   6.531  -0.095 -1.0021 -2.1815  2.8984
   98MOL0     H13211   8.138   6.419   0.021  0.0425 -0.5079 -1.3284
   98MOL0     H13212   7.808   6.474   0.341  1.5864 -0.3962 -1.0294
   98MOL0     H13213   7.639   6.338   0.472 -1.7415 -0.1093  0.3050
   98MOL0     H13214   7.726   5.367   1.436 -0.3640  1.0279  0.1328
   98MOL0     H13215   7.921   5.326   1.277 -1.7496  2.5819  1.4838
   98MOL0     H13216   8.553   5.304   1.487 -1.1799  3.0326 -0.8949
   98MOL0     H13217   8.747   5.368   1.386  0.0625  0.5514  0.5792
   98MOL0     H13218   8.940   5.467   0.977 -0.6774 -0.6592 -2.4903
   98MOL0     H13219   8.766   5.505   0.956 -1.1366 -0.7075  1.0892
   98MOL0     H13220   8.881   5.308   0.821 -2.5081  1.3121 -0.4733
   98MOL0     H13221   8.744   5.258   0.900  1.3902 -3.2160 -2.0060
   98MOL0     H13222   8.862   5.086   0.979 -2.6933  1.5646 -0.7775
   98MOL0     H13223   8.922   5.193   1.104  0.0789 -3.7103  0.5792
   98MOL0     H13224   9.098   5.276   0.952 -1.6703  0.9513 -0.2722
   98MOL0     H13225   9.116   5.115   1.020 -0.1942 -0.6946 -0.5917
   98MOL0     H13226   9.148   5.022   0.619 -1.9953 -3.4987  1.3296
   98MOL0     H13227   8.565   5.372   1.001 -1.3701 -1.2885  0.1169
   98MOL0     H13228   8.367   5.362   0.980  3.9381 -1.6422  0.9096
   98MOL0     H13229   8.294   5.228   1.067  1.6453 -0.2011  2.2865
   98MOL0     H13230   8.238   5.393   1.105  1.6346  1.6948  1.1927
   99MOL0     O13231   5.347   6.378   8.734 -0.1145 -0.1843 -0.0733
   99MOL0     C13232   5.442   6.374   8.657  0.1926 -0.8066  0.0166
   99MOL0     O13233   5.499   6.264   8.610  0.1664 -0.2817  0.6951
   99MOL0     C13234   5.475   6.147   8.686 -0.1860  0.3418  0.0510
   99MOL0     C13235   5.587   6.101   8.759  0.3182 -0.2603  0.1854
   99MOL0     C13236   5.585   5.991   8.840  0.1391  0.5360  0.0996
   99MOL0     C13237   5.471   5.919   8.872 -0.1360 -0.3018 -0.7221
   99MOL0     O13238   5.459   5.806   8.950 -0.5398 -0.3911 -0.3474
   99MOL0     C13239   5.577   5.759   9.009 -0.5069  0.4837 -0.1026
   99MOL0     C13240   5.535   5.655   9.102 -0.3119  0.2101  0.6462
   99MOL0     C13241   5.661   5.622   9.184 -0.5873 -0.6995  0.5432
   99MOL0     C13242   5.621   5.505   9.267 -0.2133 -0.7306  0.2829
   99MOL0     C13243   5.712   5.447   9.375  0.3212 -0.5615  0.4902
   99MOL0     C13244   5.638   5.331   9.460 -0.8348 -0.5965  1.1538
   99MOL0     C13245   5.763   5.272   9.529  0.7769  0.4119  0.6320
   99MOL0     C13246   5.721   5.157   9.620 -0.8332 -0.5479 -0.0351
   99MOL0     N13247   5.815   5.158   9.735  0.0628 -1.1391  0.2017
   99MOL0     C13248   5.889   5.050   9.784 -0.2766 -0.8537 -0.1175
   99MOL0     C13249   5.932   5.095   9.911 -0.5887 -0.0219 -0.3871
   99MOL0     C13250   6.023   5.028  10.017  0.5315 -0.2737  0.2890
   99MOL0     C13251   5.935   4.937  10.108  0.0535  0.0647 -0.5606
   99MOL0     C13252   5.839   4.843  10.028  0.4483 -0.2569 -0.4937
   99MOL0     C13253   5.793   4.724  10.096 -0.0430 -0.6783 -1.2283
   99MOL0     O13254   5.718   4.649   9.999 -1.2203 -0.0806 -0.1313
   99MOL0     C13255   5.729   4.512  10.011 -0.2982 -0.0461 -0.3159
   99MOL0     C13256   5.697   4.432   9.894 -0.7987 -0.1865  0.5264
   99MOL0     C13257   5.678   4.291   9.917 -0.0418 -0.4168  1.0101
   99MOL0     C13258   5.699   4.222  10.042  0.1655 -0.2684 -0.8518
   99MOL0     C13259   5.659   4.080  10.059 -0.0367 -0.7082  0.4728
   99MOL0     O13260   5.701   4.012  10.172  0.0676  1.1041 -0.8409
   99MOL0     C13261   5.715   3.875  10.170  0.1568  0.2508  0.1524
   99MOL0     C13262   5.785   3.805  10.076 -1.0353  0.8526  0.1026
   99MOL0     C13263   5.821   3.673  10.103  0.2171 -0.9636 -0.5241
   99MOL0     C13264   5.811   3.617  10.232  0.5841  0.0399 -1.1198
   99MOL0     O13265   5.850   3.486  10.244 -0.3142 -0.1943 -0.3339
   99MOL0     C13266   5.826   3.412  10.363 -0.8957  0.7166 -0.4846
   99MOL0     C13267   5.692   3.348  10.361  0.8893 -0.3657 -0.0685
   99MOL0     C13268   5.652   3.247  10.252 -0.3135 -0.5626 -0.1715
   99MOL0     C13269   5.531   3.163  10.292 -0.0608  0.6020  0.6528
   99MOL0     C13270   5.516   3.034  10.199  1.1236 -1.6827  0.5991
   99MOL0     C13271   5.370   3.036  10.153 -0.0090  0.2489  0.9048
   99MOL0     C13272   5.320   2.915  10.066  0.3642 -0.3162 -0.3320
   99MOL0     C13273   5.181   2.932   9.995 -0.3622  0.0034 -0.2905
   99MOL0    Cl13274   5.200   3.054   9.864 -0.4105  0.0250 -0.6739
   99MOL0     C13275   5.737   3.688  10.331 -0.1714  0.2320  1.7391
   99MOL0     C13276   5.691   3.821  10.293 -0.3189  0.1406  0.8403
   99MOL0     O13277   5.598   4.027   9.963  0.5755 -0.0485 -0.1054
   99MOL0     C13278   5.744   4.306  10.142  0.7494 -0.2458  0.4961
   99MOL0     C13279   5.762   4.450  10.127 -0.7727  0.5554 -0.9925
   99MOL0     N13280   5.877   5.220   9.938 -0.1575 -0.9490  0.0291
   99MOL0     N13281   5.806   5.254   9.833 -0.3578 -0.0873  0.0426
   99MOL0     C13282   5.361   5.961   8.807 -0.1962  0.2292  0.2045
   99MOL0     C13283   5.352   6.075   8.718 -0.7843 -0.1917 -0.3303
   99MOL0     C13284   5.498   6.503   8.606  0.5307  0.1088 -1.0670
   99MOL0     C13285   5.473   6.549   8.472 -0.5381 -0.1143 -0.9992
   99MOL0     C13286   5.492   6.681   8.435  0.3023  0.5086  0.4057
   99MOL0     C13287   5.554   6.760   8.527  0.2201  1.1392  0.1765
   99MOL0     O13288   5.564   6.892   8.483 -0.2550  0.1251 -1.0670
   99MOL0     C13289   5.440   6.955   8.455  0.4314  0.9670 -0.0036
   99MOL0     C13290   5.448   7.099   8.516 -0.3682  0.4384  0.2690
   99MOL0     C13291   5.326   7.177   8.481  0.5791  0.6930  0.3050
   99MOL0     C13292   5.333   7.323   8.530  0.8732  0.1631 -0.3453
   99MOL0     C13293   5.276   7.415   8.426 -0.2464 -1.4174 -0.5174
   99MOL0     C13294   5.228   7.487   8.338 -0.4103  0.1285  0.8138
   99MOL0     C13295   5.601   6.705   8.653  1.0692 -0.5257  1.6078
   99MOL0     C13296   5.571   6.583   8.698  0.4134  0.6181 -0.7270
   99MOL0     C13297   5.617   6.529   8.835 -0.7769  0.2307  0.5089
   99MOL0     H13298   5.675   6.158   8.732  0.9219 -0.7683  1.0194
   99MOL0     H13299   5.678   5.947   8.876  0.3496  1.8321  1.1848
   99MOL0     H13300   5.652   5.716   8.942  1.1361 -0.5731  2.3039
   99MOL0     H13301   5.621   5.842   9.064  1.3000 -0.4918  0.0018
   99MOL0     H13302   5.509   5.574   9.033  1.0464  1.6013 -1.6103
   99MOL0     H13303   5.458   5.680   9.176  2.9141  4.6762  2.9198
   99MOL0     H13304   5.701   5.705   9.243 -0.2657  1.8653 -2.9917
   99MOL0     H13305   5.737   5.578   9.119 -0.6470 -0.5664  0.3833
   99MOL0     H13306   5.531   5.530   9.324 -1.0094  1.2199 -1.6770
   99MOL0     H13307   5.588   5.425   9.201 -1.3109 -1.7629  2.0280
   99MOL0     H13308   5.799   5.406   9.322 -0.1030 -1.6634  0.6041
   99MOL0     H13309   5.755   5.530   9.431 -0.7199  1.4361 -1.5186
   99MOL0     H13310   5.568   5.365   9.537 -0.2292 -3.0241  2.9072
   99MOL0     H13311   5.596   5.259   9.389  2.6155  1.3084 -3.2906
   99MOL0     H13312   5.811   5.349   9.590  0.0864 -1.0442  3.1313
   99MOL0     H13313   5.833   5.227   9.457  1.1017  1.0424  0.5432
   99MOL0     H13314   5.619   5.179   9.653 -0.3402 -0.1127  1.2586
   99MOL0     H13315   5.719   5.058   9.574 -0.7058 -0.7930  0.4827
   99MOL0     H13316   5.908   4.950   9.748 -1.1063  0.7409 -5.9376
   99MOL0     H13317   6.105   4.970   9.975  0.6134 -0.3747  0.5849
   99MOL0     H13318   6.074   5.100  10.081 -0.8107  0.8659  0.1300
   99MOL0     H13319   6.002   4.871  10.165 -2.5058 -1.7077  0.5913
   99MOL0     H13320   5.877   4.996  10.179 -1.5787 -0.2515 -1.5749
   99MOL0     H13321   5.887   4.802   9.939 -0.0993 -3.4263  0.5155
   99MOL0     H13322   5.753   4.906  10.004  3.0355  2.5057 -3.3794
   99MOL0     H13323   5.734   4.752  10.184  1.9079 -2.1656  0.6592
   99MOL0     H13324   5.881   4.676  10.140 -1.4210 -0.7974  1.6702
   99MOL0     H13325   5.683   4.480   9.798  1.5390 -1.1548 -0.3680
   99MOL0     H13326   5.639   4.233   9.834  0.1006 -0.5619  1.0443
   99MOL0     H13327   5.825   3.851   9.986  1.4528 -0.2525  0.5380
   99MOL0     H13328   5.881   3.629  10.024  1.7034  0.8762 -0.4962
   99MOL0     H13329   5.902   3.335  10.349  0.3375  1.9508 -0.8630
   99MOL0     H13330   5.859   3.452  10.459 -0.9148 -1.5602  0.5222
   99MOL0     H13331   5.687   3.301  10.460  0.4045 -0.7019 -0.2523
   99MOL0     H13332   5.609   3.419  10.362 -0.5628 -1.8982  3.2134
   99MOL0     H13333   5.624   3.304  10.162  0.4125  2.4819  1.4111
   99MOL0     H13334   5.739   3.181  10.246  0.1494 -0.1855  1.8160
   99MOL0     H13335   5.438   3.220  10.301 -1.6344 -1.7939  0.3412
   99MOL0     H13336   5.540   3.130  10.396 -0.2867  1.2672  0.8878
   99MOL0     H13337   5.543   2.935  10.237 -0.4481 -2.6745 -0.7396
   99MOL0     H13338   5.582   3.050  10.114  0.0693 -0.5618 -0.0287
   99MOL0     H13339   5.307   3.045  10.242 -0.6810 -3.0987  0.8815
   99MOL0     H13340   5.359   3.125  10.090 -0.0262  0.2230  0.8701
   99MOL0     H13341   5.318   2.824  10.128  2.4664 -2.4629 -3.1211
   99MOL0     H13342   5.394   2.892   9.988  1.5313  1.7462  0.1108
   99MOL0     H13343   5.140   2.840   9.954 -1.7640 -1.3718  3.6852
   99MOL0     H13344   5.096   2.960  10.058 -1.1048  1.1426 -1.7232
   99MOL0     H13345   5.712   3.645  10.427  0.7043 -3.7725  0.3882
   99MOL0     H13346   5.639   3.884  10.364 -3.3255  1.6102 -2.3946
   99MOL0     H13347   5.767   4.275  10.244 -2.1384  1.1761  1.7095
   99MOL0     H13348   5.792   4.502  10.217 -3.5422 -1.3382  1.2010
   99MOL0     H13349   5.267   5.909   8.824 -1.6903  1.2411 -3.7645
   99MOL0     H13350   5.254   6.106   8.683 -0.5906 -0.4733 -1.1425
   99MOL0     H13351   5.429   6.478   8.401 -0.6663 -1.2512  0.1856
   99MOL0     H13352   5.462   6.718   8.337 -0.4667 -2.2175 -0.4800
   99MOL0     H13353   5.361   6.897   8.504  3.0930 -2.2782  0.7710
   99MOL0     H13354   5.403   6.949   8.353 -0.1665 -1.1582  0.2980
   99MOL0     H13355   5.542   7.145   8.482 -0.7449  0.9302 -0.1196
   99MOL0     H13356   5.445   7.081   8.624 -3.2467 -2.8058 -0.1868
   99MOL0     H13357   5.249   7.129   8.542  1.6846 -0.5378  0.7846
   99MOL0     H13358   5.301   7.175   8.374  3.2546  1.7759 -0.4328
   99MOL0     H13359   5.294   7.339   8.631  2.8399  2.3719  0.1556
   99MOL0     H13360   5.437   7.357   8.539  1.3360 -1.3194  0.2149
   99MOL0     H13361   5.194   7.538   8.250  1.6236 -1.6862 -1.1319
   99MOL0     H13362   5.649   6.787   8.706  1.4164  1.4407 -1.5307
   99MOL0     H13363   5.702   6.464   8.814  0.1472  2.0267 -1.7140
   99MOL0     H13364   5.630   6.614   8.902 -2.1018  0.5266  0.4260
   99MOL0     H13365   5.541   6.461   8.876  0.1668 -1.7116 -0.8169
  100MOL0     O13366   8.553   2.889   1.690  0.3011 -0.1935 -0.3061
  100MOL0     C13367   8.647   2.823   1.726 -0.5845  0.1026  0.1102
  100MOL0     O13368   8.644   2.700   1.783  0.5777 -0.6889 -0.6201
  100MOL0     C13369   8.529   2.642   1.832 -0.5915 -1.3021 -0.7589
  100MOL0     C13370   8.446   2.730   1.915  0.0778  1.2636  0.0512
  100MOL0     C13371   8.322   2.679   1.956  0.0666 -0.3591 -0.4444
  100MOL0     C13372   8.282   2.547   1.924  0.2047 -0.3334  0.0370
  100MOL0     O13373   8.170   2.478   1.982  0.3770 -0.3012 -0.0282
  100MOL0     C13374   8.099   2.551   2.084 -0.0368  0.0148  0.2104
  100MOL0     C13375   7.984   2.451   2.144  0.0642 -0.0900  0.7809
  100MOL0     C13376   8.058   2.332   2.206  0.7273 -0.1933  0.7724
  100MOL0     C13377   7.942   2.252   2.278  0.2034  0.1567  0.8961
  100MOL0     C13378   7.856   2.165   2.191 -1.0771  0.3025  0.2083
  100MOL0     C13379   7.739   2.115   2.275  0.3025 -0.0204 -0.4405
  100MOL0     C13380   7.603   2.118   2.206  0.6608 -0.9281  0.0137
  100MOL0     C13381   7.488   2.057   2.288 -0.2857  0.1760 -0.6958
  100MOL0     N13382   7.369   2.093   2.227  0.6538  0.4437 -0.5803
  100MOL0     C13383   7.302   2.213   2.219  0.5338 -0.5121 -0.3447
  100MOL0     C13384   7.187   2.188   2.146  0.6695  0.0587 -0.3951
  100MOL0     C13385   7.073   2.282   2.100  0.5007  0.1596 -0.3775
  100MOL0     C13386   6.935   2.236   2.146 -0.3612  0.1463 -0.4223
  100MOL0     C13387   6.897   2.219   2.299 -1.6191 -1.8251  0.0713
  100MOL0     C13388   6.762   2.162   2.307  0.4802  0.1252 -0.2713
  100MOL0     O13389   6.755   2.020   2.288 -0.3469 -0.8397  0.3147
  100MOL0     C13390   6.782   1.949   2.404 -0.9747  0.1330  0.7453
  100MOL0     C13391   6.905   1.897   2.433 -0.1700  0.3135 -0.0425
  100MOL0     C13392   6.931   1.819   2.544  0.2613  0.0415 -0.5878
  100MOL0     C13393   6.832   1.784   2.641 -0.3305 -0.4256  0.9444
  100MOL0     C13394   6.856   1.717   2.773  0.9050  0.0625  0.3229
  100MOL0     O13395   6.749   1.714   2.860  0.5317 -0.5025 -0.5383
  100MOL0     C13396   6.756   1.635   2.969 -0.4736  0.8379 -0.2544
  100MOL0     C13397   6.730   1.500   2.936 -0.4326  0.0155 -0.4737
  100MOL0     C13398   6.740   1.410   3.038  0.0092 -0.2242 -0.2691
  100MOL0     C13399   6.775   1.441   3.173 -0.2392  0.6151  0.2708
  100MOL0     O13400   6.792   1.336   3.263  0.0143 -0.5931  1.0624
  100MOL0     C13401   6.783   1.353   3.401 -0.2540  1.0316 -0.4341
  100MOL0     C13402   6.732   1.218   3.461 -0.3843  0.5667  0.0501
  100MOL0     C13403   6.815   1.087   3.419  0.4670 -0.4784 -0.8973
  100MOL0     C13404   6.722   0.996   3.331  0.1766 -0.4684  0.0701
  100MOL0     C13405   6.805   0.880   3.276  0.4032 -0.4386  0.5119
  100MOL0     C13406   6.850   0.768   3.381  0.0760  0.1892  0.3321
  100MOL0     C13407   6.933   0.658   3.308 -0.5427 -0.1059 -0.4119
  100MOL0     C13408   7.018   0.577   3.415 -0.4942 -1.0207  0.1606
  100MOL0    Cl13409   6.942   0.437   3.513  0.2140 -0.5220  0.3124
  100MOL0     C13410   6.804   1.574   3.205  0.5246 -1.4653 -0.0097
  100MOL0     C13411   6.796   1.674   3.095 -0.9672  0.8357 -0.7519
  100MOL0     O13412   6.954   1.646   2.769  0.7950  0.8544 -0.3633
  100MOL0     C13413   6.706   1.843   2.604  0.9766 -1.2262  0.4036
  100MOL0     C13414   6.682   1.927   2.496 -0.6078 -0.0173 -0.2305
  100MOL0     N13415   7.187   2.055   2.118 -0.1668  0.8983  0.0349
  100MOL0     N13416   7.294   2.002   2.172  1.3655  0.3563  0.2726
  100MOL0     C13417   8.369   2.466   1.846 -0.0258 -0.1066 -0.6153
  100MOL0     C13418   8.490   2.511   1.800 -0.0619 -0.7182  0.2501
  100MOL0     C13419   8.779   2.891   1.698  0.3983 -0.2468 -1.1790
  100MOL0     C13420   8.779   2.995   1.604 -0.0551 -0.0780 -0.0224
  100MOL0     C13421   8.902   3.051   1.561  0.1559 -0.4086  0.0110
  100MOL0     C13422   9.021   3.028   1.637 -0.0479  0.0902  0.1030
  100MOL0     O13423   9.131   3.089   1.593 -0.1555 -0.2574  0.4192
  100MOL0     C13424   9.130   3.197   1.496 -0.4292  0.1934 -0.3139
  100MOL0     C13425   9.254   3.274   1.460  0.1354 -0.9571  0.0431
  100MOL0     C13426   9.366   3.181   1.389  0.6789 -0.8404  0.3149
  100MOL0     C13427   9.444   3.271   1.300 -0.9828  0.5389  0.7927
  100MOL0     C13428   9.554   3.203   1.230  0.3590  0.2747 -0.1574
  100MOL0     C13429   9.644   3.138   1.186 -0.1662  0.2268  0.4537
  100MOL0     C13430   9.016   2.933   1.739 -0.3860 -0.6012  0.3275
  100MOL0     C13431   8.902   2.866   1.772  0.5360 -0.1896  0.5092
  100MOL0     C13432   8.904   2.791   1.900 -0.2922 -0.1765  0.5416
  100MOL0     H13433   8.468   2.836   1.929  1.6061  1.4661 -2.9083
  100MOL0     H13434   8.249   2.742   2.006  0.0525 -0.7077 -0.0185
  100MOL0     H13435   8.180   2.566   2.156  0.2419 -2.0216  0.3651
  100MOL0     H13436   8.059   2.646   2.047 -1.2720 -1.1607 -1.5807
  100MOL0     H13437   7.901   2.428   2.077 -0.5384 -0.7760  1.7485
  100MOL0     H13438   7.944   2.524   2.214 -0.0610  1.5190 -0.9107
  100MOL0     H13439   8.130   2.373   2.277 -0.7053  5.8681 -0.6932
  100MOL0     H13440   8.109   2.269   2.132  0.0305  2.5133 -2.2204
  100MOL0     H13441   7.985   2.191   2.357 -1.0813 -0.5785  1.0446
  100MOL0     H13442   7.876   2.325   2.326 -0.8056 -0.3392  0.2966
  100MOL0     H13443   7.821   2.223   2.105  1.5103  0.0121 -1.1539
  100MOL0     H13444   7.915   2.078   2.160 -1.7230  0.4557 -1.5723
  100MOL0     H13445   7.757   2.018   2.321 -2.8033 -0.6632 -0.3640
  100MOL0     H13446   7.715   2.189   2.353 -0.5052 -1.1036  0.3651
  100MOL0     H13447   7.608   2.070   2.108  0.0707 -0.2869 -0.3404
  100MOL0     H13448   7.577   2.222   2.186  0.8875 -0.8668  0.0286
  100MOL0     H13449   7.493   1.951   2.315  2.4769  0.6532  1.0615
  100MOL0     H13450   7.499   2.104   2.386 -3.6333 -2.2067  1.0251
  100MOL0     H13451   7.345   2.304   2.261  0.2926 -0.0474 -1.0696
  100MOL0     H13452   7.089   2.386   2.128 -0.5583  0.1825  0.2229
  100MOL0     H13453   7.077   2.274   1.991  1.5087  1.3059 -0.4377
  100MOL0     H13454   6.864   2.309   2.105  0.7191  0.9478 -0.8988
  100MOL0     H13455   6.908   2.140   2.101  1.1578  0.2153 -1.5718
  100MOL0     H13456   6.892   2.318   2.344  1.3357 -0.6690 -1.8712
  100MOL0     H13457   6.972   2.154   2.345 -0.5000 -1.2525 -0.9045
  100MOL0     H13458   6.703   2.216   2.233  0.9729  1.9611  0.6345
  100MOL0     H13459   6.708   2.200   2.394 -3.1881  1.2053 -2.7765
  100MOL0     H13460   6.979   1.914   2.355  0.3559 -2.7582 -0.3526
  100MOL0     H13461   7.030   1.783   2.571  1.3585  1.7035 -2.1540
  100MOL0     H13462   6.700   1.469   2.836 -1.9137  1.5523 -0.5606
  100MOL0     H13463   6.710   1.317   2.991 -1.5237  0.6585 -1.1159
  100MOL0     H13464   6.888   1.371   3.428  0.2395  1.7898 -2.6053
  100MOL0     H13465   6.714   1.432   3.432 -1.3430 -0.3282  0.7300
  100MOL0     H13466   6.728   1.238   3.569 -1.7041  0.1766  0.0902
  100MOL0     H13467   6.628   1.207   3.430 -0.8784  2.9417  0.6895
  100MOL0     H13468   6.901   1.116   3.358  0.0148  0.3634 -1.1557
  100MOL0     H13469   6.856   1.045   3.511 -0.2715 -0.4501 -0.5489
  100MOL0     H13470   6.669   1.056   3.257 -0.5643 -1.7693 -0.4888
  100MOL0     H13471   6.647   0.945   3.392 -0.4172 -0.4970 -0.6745
  100MOL0     H13472   6.899   0.918   3.234 -0.2787  0.7705  0.0091
  100MOL0     H13473   6.744   0.834   3.197  1.6471  3.6558 -3.2633
  100MOL0     H13474   6.918   0.821   3.448  0.2790  0.3042  0.0375
  100MOL0     H13475   6.767   0.729   3.441 -1.9844  0.2200 -2.3152
  100MOL0     H13476   7.003   0.702   3.237 -0.0406  2.9788  1.7836
  100MOL0     H13477   6.866   0.583   3.265 -2.5099 -0.1595  2.4257
  100MOL0     H13478   7.097   0.528   3.357 -0.4667  0.1295 -0.8188
  100MOL0     H13479   7.071   0.639   3.489 -3.3990  0.5967  1.0476
  100MOL0     H13480   6.836   1.600   3.306  1.4987  2.8435 -1.2191
  100MOL0     H13481   6.833   1.774   3.112 -2.0645  0.7656  2.9795
  100MOL0     H13482   6.615   1.835   2.662 -0.6151  0.8862 -1.5924
  100MOL0     H13483   6.590   1.976   2.466 -0.6120  0.0267 -0.1479
  100MOL0     H13484   8.330   2.371   1.812  0.0616 -1.5221  2.8640
  100MOL0     H13485   8.549   2.451   1.732 -0.4154  1.8745 -2.5095
  100MOL0     H13486   8.686   3.018   1.553  0.8533  0.6624 -1.3645
  100MOL0     H13487   8.898   3.140   1.499  0.8028 -1.1295 -1.0839
  100MOL0     H13488   9.061   3.272   1.534  0.8425  1.2602 -0.0144
  100MOL0     H13489   9.086   3.166   1.401 -2.2334  0.3996  0.4224
  100MOL0     H13490   9.302   3.315   1.549 -0.8900  2.2537 -0.7546
  100MOL0     H13491   9.212   3.353   1.397  0.5587  0.4707  1.4967
  100MOL0     H13492   9.307   3.110   1.330 -0.1502  1.5583 -1.9463
  100MOL0     H13493   9.429   3.127   1.459 -0.0579  1.9357  3.3584
  100MOL0     H13494   9.375   3.317   1.230 -1.9575 -0.5056  1.0331
  100MOL0     H13495   9.493   3.349   1.360  0.9623  0.3879 -0.5248
  100MOL0     H13496   9.727   3.081   1.148 -0.2009  0.0324  0.6635
  100MOL0     H13497   9.110   2.915   1.791 -1.1389  0.3545  2.1087
  100MOL0     H13498   8.893   2.850   1.992  1.7117 -0.0178  0.7307
  100MOL0     H13499   8.843   2.701   1.914  0.8023 -0.8086  1.4236
  100MOL0     H13500   9.004   2.749   1.916  0.2570  2.1702  4.7974
  101MOL0     O13501   4.851   6.572   4.979 -0.4872  0.8542 -0.5082
  101MOL0     C13502   4.807   6.605   5.091 -0.4399 -0.9109 -0.9903
  101MOL0     O13503   4.858   6.580   5.215 -0.4623  0.5247 -0.0037
  101MOL0     C13504   4.979   6.516   5.227  0.2731 -0.9442  1.2366
  101MOL0     C13505   5.100   6.594   5.232  0.5282  1.2683  0.3598
  101MOL0     C13506   5.219   6.527   5.254 -0.1868  0.4172 -0.1479
  101MOL0     C13507   5.213   6.380   5.268 -0.3816  0.3894  1.0485
  101MOL0     O13508   5.315   6.295   5.307  0.7295  0.3415  0.1501
  101MOL0     C13509   5.406   6.324   5.400 -0.5360 -0.4658  0.7910
  101MOL0     C13510   5.522   6.220   5.404 -0.5956  0.0290 -0.9844
  101MOL0     C13511   5.623   6.250   5.293  0.4635 -0.1688  0.1034
  101MOL0     C13512   5.730   6.135   5.286 -0.7086 -1.0698 -0.2807
  101MOL0     C13513   5.793   6.112   5.417 -1.8513  0.2687 -0.2027
  101MOL0     C13514   5.920   6.036   5.413 -0.0336  0.1696  0.5320
  101MOL0     C13515   5.983   5.977   5.542 -0.2195 -0.2278 -0.6387
  101MOL0     C13516   6.111   5.905   5.515 -0.2461 -0.6231  0.0004
  101MOL0     N13517   6.196   5.955   5.410  0.1947  0.5491  0.4144
  101MOL0     C13518   6.249   6.082   5.408 -0.3584  0.5010  0.5860
  101MOL0     C13519   6.365   6.076   5.343  0.0824  0.6565 -0.0327
  101MOL0     C13520   6.459   6.189   5.328 -0.1637 -0.5534  0.1758
  101MOL0     C13521   6.604   6.152   5.373 -0.2481 -0.3388 -0.3391
  101MOL0     C13522   6.618   6.116   5.518 -0.6110  0.5799 -1.1029
  101MOL0     C13523   6.557   6.225   5.613 -0.9028 -0.6116 -0.3679
  101MOL0     O13524   6.551   6.185   5.753  0.0471 -0.5107 -0.2884
  101MOL0     C13525   6.549   6.277   5.857  0.3435 -0.6193  0.0419
  101MOL0     C13526   6.617   6.401   5.850 -0.5879 -1.1322  0.5164
  101MOL0     C13527   6.616   6.495   5.951  0.1389 -0.4337  0.2575
  101MOL0     C13528   6.533   6.476   6.061  1.4376  0.7456 -0.3365
  101MOL0     C13529   6.517   6.576   6.167  0.4456 -0.2244  0.1420
  101MOL0     O13530   6.443   6.684   6.133  0.0087 -0.0704  0.3889
  101MOL0     C13531   6.454   6.798   6.210  0.4881 -1.4062 -1.0368
  101MOL0     C13532   6.558   6.891   6.183 -0.7302 -0.1360  0.5350
  101MOL0     C13533   6.557   7.009   6.251  1.3147 -0.5016  1.2590
  101MOL0     C13534   6.461   7.040   6.348 -0.5879  0.1025  0.3264
  101MOL0     O13535   6.448   7.154   6.416  0.7157  0.9775  0.1410
  101MOL0     C13536   6.559   7.243   6.394 -0.1234 -0.5669  0.0344
  101MOL0     C13537   6.542   7.374   6.473  0.1826  0.6988 -0.2991
  101MOL0     C13538   6.402   7.432   6.448 -0.7009 -0.6774 -0.3404
  101MOL0     C13539   6.411   7.578   6.496 -0.4453  0.2055 -0.3404
  101MOL0     C13540   6.284   7.667   6.490  0.5646 -0.7839  1.3642
  101MOL0     C13541   6.188   7.627   6.603 -0.9202  1.1291 -0.1439
  101MOL0     C13542   6.059   7.709   6.604  0.1485  0.0618 -0.3622
  101MOL0     C13543   5.985   7.683   6.738  0.6759  0.3569 -0.5919
  101MOL0    Cl13544   5.838   7.802   6.755  0.2665 -0.4305  0.4256
  101MOL0     C13545   6.370   6.942   6.385 -0.7088  0.6655  0.5328
  101MOL0     C13546   6.371   6.823   6.318 -0.0946  0.0500  0.5475
  101MOL0     O13547   6.572   6.559   6.276  0.1386 -0.7766  0.1650
  101MOL0     C13548   6.465   6.359   6.068 -0.2154  0.3640 -0.1250
  101MOL0     C13549   6.474   6.261   5.969 -0.0969  0.0953 -0.4888
  101MOL0     N13550   6.374   5.947   5.292  0.5385  0.1803 -0.6022
  101MOL0     N13551   6.288   5.873   5.349  1.2459  0.1207  0.8135
  101MOL0     C13552   5.090   6.313   5.260 -0.1483  0.0440 -0.1675
  101MOL0     C13553   4.969   6.382   5.254  0.0823 -0.4653  0.0057
  101MOL0     C13554   4.667   6.660   5.092 -0.5184 -1.0003  0.4082
  101MOL0     C13555   4.582   6.639   4.989  0.2568 -0.0598  0.3512
  101MOL0     C13556   4.458   6.700   4.960  0.9602  0.3993 -0.7493
  101MOL0     C13557   4.420   6.800   5.057 -0.3606 -0.0150  0.2695
  101MOL0     O13558   4.301   6.853   5.043 -0.3137  0.0297 -0.3425
  101MOL0     C13559   4.242   6.870   4.909  0.1809 -0.1937  0.1062
  101MOL0     C13560   4.145   6.985   4.912  0.4060 -0.1098 -0.1554
  101MOL0     C13561   4.050   6.989   4.788  0.6661 -0.0463  0.0984
  101MOL0     C13562   4.005   7.135   4.756 -0.8576  0.9827  0.4827
  101MOL0     C13563   3.944   7.189   4.879 -0.4091 -0.1558  0.0145
  101MOL0     C13564   3.875   7.230   4.973 -0.6858 -0.4041  0.4652
  101MOL0     C13565   4.502   6.834   5.169  0.2441  0.1629 -0.0515
  101MOL0     C13566   4.633   6.761   5.186 -0.0582 -0.3183 -0.6247
  101MOL0     C13567   4.727   6.820   5.294 -0.1158  0.2996  0.2512
  101MOL0     H13568   5.094   6.700   5.210 -0.5498  1.2924  0.7554
  101MOL0     H13569   5.319   6.569   5.259 -0.1930  0.5966 -1.2596
  101MOL0     H13570   5.449   6.423   5.387 -0.8725 -0.2018  1.6582
  101MOL0     H13571   5.367   6.323   5.502 -0.7541 -1.3100  0.7072
  101MOL0     H13572   5.476   6.121   5.398  1.1454 -1.1293  2.3809
  101MOL0     H13573   5.564   6.227   5.505 -0.9878  2.9993 -0.9230
  101MOL0     H13574   5.673   6.343   5.320 -3.3641  2.0040  0.2821
  101MOL0     H13575   5.574   6.268   5.197  0.9761 -0.6940 -0.2674
  101MOL0     H13576   5.681   6.039   5.272 -1.7652 -0.7855  1.2295
  101MOL0     H13577   5.807   6.162   5.214  1.3203  0.1754  2.1707
  101MOL0     H13578   5.826   6.205   5.465  1.5788 -2.2598  2.8653
  101MOL0     H13579   5.730   6.063   5.493 -1.5627 -0.9964 -0.7516
  101MOL0     H13580   5.901   5.947   5.352 -2.9284  0.7803  0.3843
  101MOL0     H13581   5.992   6.103   5.364  0.5658 -1.2223 -0.5554
  101MOL0     H13582   5.915   5.915   5.600  0.3578 -1.3926 -1.1779
  101MOL0     H13583   6.007   6.064   5.604 -0.2385 -0.5435 -0.1837
  101MOL0     H13584   6.170   5.893   5.607 -0.9917  0.4717  0.6426
  101MOL0     H13585   6.075   5.808   5.479 -0.6359 -0.4472 -0.0858
  101MOL0     H13586   6.219   6.174   5.458 -2.6887 -0.3302  0.8534
  101MOL0     H13587   6.456   6.211   5.221 -0.0408 -3.5927 -0.5465
  101MOL0     H13588   6.423   6.276   5.384  2.2915  2.5789 -2.6775
  101MOL0     H13589   6.662   6.076   5.320  3.3570  1.5609  0.5221
  101MOL0     H13590   6.669   6.238   5.357 -0.5577 -0.2417 -1.0988
  101MOL0     H13591   6.721   6.090   5.545 -0.7980  2.1100  1.3488
  101MOL0     H13592   6.563   6.023   5.537 -0.7783  0.9298  0.1693
  101MOL0     H13593   6.454   6.261   5.602 -0.2628  1.7215  0.6766
  101MOL0     H13594   6.622   6.310   5.593  0.1127 -0.5734  2.6769
  101MOL0     H13595   6.687   6.410   5.767  0.8455 -1.3362  1.6733
  101MOL0     H13596   6.673   6.587   5.941  1.1615 -0.8011  2.1945
  101MOL0     H13597   6.626   6.868   6.101 -1.4603 -1.0866  0.1707
  101MOL0     H13598   6.627   7.089   6.232 -0.8789  1.6266  1.6065
  101MOL0     H13599   6.658   7.202   6.417  0.1475 -1.3253 -2.2668
  101MOL0     H13600   6.561   7.281   6.292 -1.2419 -1.3167 -0.2805
  101MOL0     H13601   6.543   7.339   6.577  1.2325 -0.1227 -0.5685
  101MOL0     H13602   6.634   7.429   6.455  1.2962 -1.0365 -0.1608
  101MOL0     H13603   6.375   7.427   6.342  0.7513 -1.6854 -0.7003
  101MOL0     H13604   6.321   7.380   6.500  2.1203 -4.0592  1.0698
  101MOL0     H13605   6.492   7.634   6.449  0.1319  0.2533  0.6882
  101MOL0     H13606   6.435   7.576   6.602  0.2923 -0.3701 -0.5170
  101MOL0     H13607   6.229   7.648   6.397  0.6166 -6.1933  2.1020
  101MOL0     H13608   6.313   7.770   6.514  1.4033 -1.7599  5.1952
  101MOL0     H13609   6.157   7.522   6.594  0.3175  0.8233 -0.9737
  101MOL0     H13610   6.240   7.626   6.699 -2.1265 -0.5500  0.5539
  101MOL0     H13611   5.988   7.674   6.528 -2.2071  1.3224  1.1423
  101MOL0     H13612   6.082   7.815   6.589  2.2721 -0.4848 -1.3968
  101MOL0     H13613   5.944   7.583   6.755  0.9623  0.4402  0.6662
  101MOL0     H13614   6.059   7.713   6.813 -0.8641  2.6081  0.1220
  101MOL0     H13615   6.303   6.969   6.466  0.5245 -1.2624  2.3048
  101MOL0     H13616   6.306   6.739   6.339 -0.4558 -0.1219 -1.0657
  101MOL0     H13617   6.402   6.334   6.154  0.2591 -1.1046 -0.1845
  101MOL0     H13618   6.427   6.164   5.974 -1.1534  0.6581  1.6301
  101MOL0     H13619   5.085   6.205   5.276  1.7977 -0.1209 -0.4994
  101MOL0     H13620   4.873   6.333   5.266 -1.1172  1.8155  0.2810
  101MOL0     H13621   4.609   6.563   4.916  1.9741  0.0895  0.7894
  101MOL0     H13622   4.404   6.662   4.873 -1.5995  2.3275 -0.1542
  101MOL0     H13623   4.192   6.780   4.874  1.0827 -0.5804 -0.1999
  101MOL0     H13624   4.317   6.885   4.831 -3.1485  1.9772 -3.0051
  101MOL0     H13625   4.212   7.071   4.907  0.5569 -0.1971  0.3622
  101MOL0     H13626   4.091   6.979   5.007  2.6324 -0.2370  1.1682
  101MOL0     H13627   3.964   6.931   4.823  3.0665 -1.7237  3.8867
  101MOL0     H13628   4.111   6.940   4.712  3.0357  1.0552  1.2038
  101MOL0     H13629   4.090   7.196   4.725  0.2830  1.2996  3.8159
  101MOL0     H13630   3.918   7.128   4.691  0.5487 -2.8298 -1.2617
  101MOL0     H13631   3.822   7.260   5.061  1.9080  1.7157  1.4559
  101MOL0     H13632   4.465   6.910   5.238  0.9128  1.0832 -0.6765
  101MOL0     H13633   4.831   6.813   5.260 -0.3100  1.7270 -0.7338
  101MOL0     H13634   4.696   6.921   5.325 -0.3958  2.3646 -5.4669
  101MOL0     H13635   4.715   6.753   5.380 -1.3812 -0.0308 -0.1528
  102MOL0     O13636   9.339   0.105   0.758  0.2043 -0.1215 -0.2352
  102MOL0     C13637   9.404   0.164   0.842  0.5768  0.6584  0.2781
  102MOL0     O13638   9.531   0.212   0.810 -0.0982 -0.5027  0.0366
  102MOL0     C13639   9.571   0.215   0.678 -0.0617 -0.3400  0.0353
  102MOL0     C13640   9.626   0.337   0.638  0.0758  0.2421  0.7874
  102MOL0     C13641   9.671   0.358   0.508  0.5001  0.7368 -0.4364
  102MOL0     C13642   9.679   0.250   0.421  0.7340 -0.1770  0.8628
  102MOL0     O13643   9.732   0.247   0.292 -0.1133  0.5112  0.0552
  102MOL0     C13644   9.770   0.378   0.239  0.3361  0.6558  0.2953
  102MOL0     C13645   9.844   0.354   0.109  0.2230  0.1350  0.6594
  102MOL0     C13646   9.758   0.304   0.000  0.6349 -0.0249 -1.4602
  102MOL0     C13647   9.837   0.313  -0.128 -0.4403 -0.0545 -0.3455
  102MOL0     C13648   9.758   0.254  -0.244  1.1363 -0.2554  0.6657
  102MOL0     C13649   9.639   0.338  -0.290  0.2781  0.0169 -0.5042
  102MOL0     C13650   9.572   0.288  -0.412 -0.4318  0.4409 -0.4520
  102MOL0     C13651   9.477   0.394  -0.478  0.3678  0.0377 -0.1380
  102MOL0     N13652   9.393   0.350  -0.597 -0.1405 -0.1031  0.4989
  102MOL0     C13653   9.440   0.279  -0.711  0.4145  0.2212  0.4856
  102MOL0     C13654   9.353   0.288  -0.808 -0.7119  0.3447  0.5641
  102MOL0     C13655   9.360   0.239  -0.946  0.1813  0.1515  0.3408
  102MOL0     C13656   9.297   0.096  -0.963  0.5019  0.5642 -0.0034
  102MOL0     C13657   9.257   0.071  -1.112 -0.7210 -0.6603 -0.2161
  102MOL0     C13658   9.186  -0.057  -1.140 -0.1602 -0.0705  0.6003
  102MOL0     O13659   9.218  -0.109  -1.269 -0.4863 -0.4240  0.6336
  102MOL0     C13660   9.330  -0.186  -1.290 -0.8268 -0.5930 -0.2712
  102MOL0     C13661   9.324  -0.260  -1.400  0.0387  0.5891 -0.0791
  102MOL0     C13662   9.437  -0.317  -1.456  0.5971  0.9682 -0.5044
  102MOL0     C13663   9.564  -0.301  -1.390  0.1252  0.6307  0.1199
  102MOL0     C13664   9.680  -0.366  -1.458  0.6180 -0.4175  0.3866
  102MOL0     O13665   9.810  -0.337  -1.427 -0.4344 -0.2208  0.0267
  102MOL0     C13666   9.920  -0.376  -1.499 -0.9524 -0.1638  0.9094
  102MOL0     C13667  10.046  -0.376  -1.427  0.0989 -0.0667  0.0514
  102MOL0     C13668  10.158  -0.421  -1.491 -0.2530  0.1940 -0.2688
  102MOL0     C13669  10.148  -0.477  -1.623 -0.0770 -0.5620  0.0536
  102MOL0     O13670  10.262  -0.521  -1.681  0.4485 -0.1580 -0.3907
  102MOL0     C13671  10.263  -0.561  -1.812 -0.3144 -0.0527  0.4350
  102MOL0     C13672  10.407  -0.594  -1.844 -0.2750  0.4089  0.5031
  102MOL0     C13673  10.442  -0.632  -1.989  0.6733 -0.5130 -0.1552
  102MOL0     C13674  10.576  -0.702  -1.985 -0.8812 -0.0701 -0.1630
  102MOL0     C13675  10.663  -0.679  -2.109 -0.5044 -0.3055 -0.9034
  102MOL0     C13676  10.729  -0.540  -2.094  0.3814  0.2263  0.0237
  102MOL0     C13677  10.852  -0.514  -2.182  0.6041  0.3510 -1.0564
  102MOL0     C13678  10.832  -0.523  -2.337  0.0109 -0.0716  1.2681
  102MOL0    Cl13679  10.985  -0.513  -2.409 -0.2595  0.0016  0.4788
  102MOL0     C13680  10.025  -0.478  -1.692  0.9845 -0.3072  0.9451
  102MOL0     C13681   9.909  -0.429  -1.631 -0.1774 -0.9535 -0.2594
  102MOL0     O13682   9.638  -0.439  -1.548 -0.9192  0.4054  0.2718
  102MOL0     C13683   9.562  -0.221  -1.270 -0.7595  0.9349  0.5438
  102MOL0     C13684   9.448  -0.168  -1.217  0.7734  0.2776  1.1264
  102MOL0     N13685   9.242   0.355  -0.744  0.4934  0.0124 -0.4548
  102MOL0     N13686   9.265   0.389  -0.620  0.1645 -0.6314 -0.0920
  102MOL0     C13687   9.645   0.124   0.467  0.1363 -0.6449 -0.0117
  102MOL0     C13688   9.591   0.106   0.597  0.7967  1.3981 -0.8178
  102MOL0     C13689   9.364   0.154   0.977  0.4676 -0.2053  0.0123
  102MOL0     C13690   9.376   0.264   1.054 -0.3144 -0.6686 -0.4428
  102MOL0     C13691   9.331   0.260   1.191  0.0871  0.2086 -0.0463
  102MOL0     C13692   9.258   0.147   1.236 -0.0790 -0.7807 -0.2842
  102MOL0     O13693   9.193   0.157   1.364  0.1683 -0.5889  0.2007
  102MOL0     C13694   9.171   0.283   1.435 -0.4103  0.3331 -0.4749
  102MOL0     C13695   9.061   0.257   1.536  0.0930 -1.0554 -0.6904
  102MOL0     C13696   8.918   0.269   1.472 -0.5003 -0.5704 -1.2390
  102MOL0     C13697   8.888   0.150   1.385  0.0857  0.8076 -0.5120
  102MOL0     C13698   8.744   0.106   1.402  0.4932  0.1296  0.2302
  102MOL0     C13699   8.630   0.066   1.394 -0.0614  0.3357  0.2709
  102MOL0     C13700   9.237   0.042   1.154  0.3258 -0.0836  0.1907
  102MOL0     C13701   9.302   0.032   1.033 -0.8120 -0.1791 -0.2901
  102MOL0     C13702   9.290  -0.099   0.961 -0.5844 -0.1102 -0.1987
  102MOL0     H13703   9.614   0.415   0.713 -1.2334  2.1101 -1.2594
  102MOL0     H13704   9.696   0.458   0.477 -2.0186  2.0528  1.3481
  102MOL0     H13705   9.678   0.435   0.223 -1.0393 -1.8334 -1.5536
  102MOL0     H13706   9.835   0.440   0.301 -0.4610  2.0887 -0.2438
  102MOL0     H13707   9.921   0.280   0.130  1.4688 -0.0637 -3.5844
  102MOL0     H13708   9.892   0.448   0.081 -1.9161  0.7371 -1.3282
  102MOL0     H13709   9.666   0.362  -0.003  0.5052 -0.0020  1.1187
  102MOL0     H13710   9.735   0.198   0.019 -3.3676  0.8277 -0.7121
  102MOL0     H13711   9.873   0.414  -0.149  4.8006 -1.8671 -1.7482
  102MOL0     H13712   9.933   0.262  -0.121  0.0594  1.0206  0.9794
  102MOL0     H13713   9.811   0.229  -0.336 -0.6357 -3.2307  0.3100
  102MOL0     H13714   9.718   0.154  -0.225 -1.5500  0.5774 -0.1744
  102MOL0     H13715   9.564   0.351  -0.211  2.4087  2.6193  1.2624
  102MOL0     H13716   9.676   0.439  -0.309 -1.1198  0.2448 -2.2650
  102MOL0     H13717   9.517   0.195  -0.399  0.5549 -0.0462  0.3364
  102MOL0     H13718   9.657   0.277  -0.480 -0.3858  1.5154 -0.5948
  102MOL0     H13719   9.403   0.421  -0.402  1.5949  2.9419  0.1437
  102MOL0     H13720   9.537   0.480  -0.507  0.0796  0.9685  1.8356
  102MOL0     H13721   9.539   0.234  -0.711  0.7249  0.8827  1.4228
  102MOL0     H13722   9.313   0.311  -1.013  2.1528 -0.7889 -2.1894
  102MOL0     H13723   9.465   0.220  -0.969  0.1683  0.1030  0.3176
  102MOL0     H13724   9.360   0.013  -0.932 -5.8019 -3.9744  3.0411
  102MOL0     H13725   9.205   0.073  -0.907  1.0345 -3.3621 -0.4650
  102MOL0     H13726   9.340   0.084  -1.182 -0.7330 -1.4458 -0.3807
  102MOL0     H13727   9.184   0.150  -1.133 -2.0697 -1.7358  0.1890
  102MOL0     H13728   9.088  -0.009  -1.145  1.3578  3.1229 -1.7549
  102MOL0     H13729   9.192  -0.141  -1.070 -0.2223 -0.9469 -0.4039
  102MOL0     H13730   9.234  -0.239  -1.457  0.5604 -1.0202 -1.5917
  102MOL0     H13731   9.427  -0.362  -1.554 -0.6293  0.2718 -0.0790
  102MOL0     H13732  10.045  -0.345  -1.323 -2.7310  1.6678 -0.3701
  102MOL0     H13733  10.254  -0.429  -1.441 -0.4060  1.6459  0.2939
  102MOL0     H13734  10.199  -0.649  -1.824 -0.9518  0.3550  0.7473
  102MOL0     H13735  10.221  -0.487  -1.881  1.8492  0.1416 -0.7555
  102MOL0     H13736  10.465  -0.505  -1.818 -0.6257  1.6152 -2.4466
  102MOL0     H13737  10.435  -0.679  -1.783 -0.7146  0.7735  1.2236
  102MOL0     H13738  10.368  -0.698  -2.037 -1.5367  1.6894  0.0346
  102MOL0     H13739  10.436  -0.541  -2.048 -1.6249  0.7218  1.8087
  102MOL0     H13740  10.545  -0.807  -1.985 -5.1978  1.0101  0.5002
  102MOL0     H13741  10.634  -0.686  -1.894 -0.6949 -0.4304 -0.2155
  102MOL0     H13742  10.590  -0.673  -2.190 -1.0268 -2.8518 -0.7049
  102MOL0     H13743  10.735  -0.756  -2.140  0.4171  0.8495 -1.7036
  102MOL0     H13744  10.652  -0.464  -2.107  1.1393  1.2799  1.3491
  102MOL0     H13745  10.758  -0.530  -1.989 -1.0699 -0.8930  0.5539
  102MOL0     H13746  10.932  -0.585  -2.157  0.9057  0.1978 -2.3941
  102MOL0     H13747  10.897  -0.418  -2.154 -1.5272  1.2848 -0.6790
  102MOL0     H13748  10.785  -0.619  -2.363 -1.6150  0.4784  2.0643
  102MOL0     H13749  10.779  -0.434  -2.371  1.6805  0.4852 -0.0046
  102MOL0     H13750  10.029  -0.532  -1.786  1.3010  1.3890 -0.0691
  102MOL0     H13751   9.817  -0.440  -1.687 -0.0027 -4.2674 -0.0858
  102MOL0     H13752   9.649  -0.199  -1.209 -0.6718 -0.3469  0.9033
  102MOL0     H13753   9.461  -0.098  -1.135  1.8157 -0.5965  1.7376
  102MOL0     H13754   9.645   0.036   0.404 -0.4452 -1.4459  1.0738
  102MOL0     H13755   9.547   0.009   0.621  2.6023  1.0625  1.4338
  102MOL0     H13756   9.416   0.354   1.008  3.6221 -1.2203  1.4171
  102MOL0     H13757   9.354   0.347   1.252 -0.4495 -0.1435  0.6646
  102MOL0     H13758   9.146   0.372   1.375 -1.5627  1.1416  1.1216
  102MOL0     H13759   9.260   0.299   1.496 -0.8354 -3.3654  1.4163
  102MOL0     H13760   9.073   0.342   1.605 -2.3285  1.7556 -3.3882
  102MOL0     H13761   9.082   0.162   1.585  3.9945  0.1210  0.2951
  102MOL0     H13762   8.900   0.366   1.425  0.3121  0.4019  0.3880
  102MOL0     H13763   8.843   0.256   1.551 -2.7448 -0.2403 -3.2008
  102MOL0     H13764   8.927   0.156   1.284 -0.8827  0.6916 -0.9083
  102MOL0     H13765   8.948   0.066   1.418 -2.0318 -1.0195 -1.0686
  102MOL0     H13766   8.533   0.046   1.354  1.1865 -1.4135 -2.1275
  102MOL0     H13767   9.191  -0.045   1.200  1.5330  0.5271  2.7540
  102MOL0     H13768   9.382  -0.143   0.921 -1.2406 -2.0059  0.2825
  102MOL0     H13769   9.244  -0.169   1.032 -2.5712  0.9696 -0.3601
  102MOL0     H13770   9.218  -0.082   0.880 -0.5013 -0.9676 -0.4639
  103MOL0     O13771   7.525   3.738   1.074 -0.6978  0.2282  0.0746
  103MOL0     C13772   7.409   3.699   1.065 -0.5552 -0.1989  1.1563
  103MOL0     O13773   7.308   3.731   1.158  0.5491  0.0372  0.6432
  103MOL0     C13774   7.355   3.780   1.278  0.2232 -0.1219  1.0169
  103MOL0     C13775   7.456   3.714   1.357 -0.1251 -0.0605  0.9546
  103MOL0     C13776   7.501   3.752   1.480  0.2260 -0.5327  0.4532
  103MOL0     C13777   7.428   3.856   1.544 -0.0022 -0.5930  0.3232
  103MOL0     O13778   7.462   3.895   1.672  0.5743  0.8380  0.2003
  103MOL0     C13779   7.426   4.025   1.725 -0.6012  1.1328  0.4801
  103MOL0     C13780   7.491   4.049   1.865 -0.6082 -0.0121  0.3974
  103MOL0     C13781   7.436   4.174   1.928  0.3750 -0.4972  0.7194
  103MOL0     C13782   7.515   4.209   2.064  0.1630 -0.2829 -0.3835
  103MOL0     C13783   7.456   4.145   2.184  0.7849 -0.0363 -0.0926
  103MOL0     C13784   7.534   4.151   2.312 -0.4295 -0.0444 -0.7378
  103MOL0     C13785   7.527   4.297   2.364 -0.0573 -0.2486  0.6513
  103MOL0     C13786   7.590   4.298   2.495  0.0405 -0.6463 -0.8212
  103MOL0     N13787   7.736   4.289   2.501  0.1656  0.2826  0.5886
  103MOL0     C13788   7.833   4.325   2.400  0.1808  0.0308 -0.2015
  103MOL0     C13789   7.951   4.318   2.465  0.6859  0.3423 -0.2944
  103MOL0     C13790   8.091   4.364   2.417  0.0179 -0.1625 -0.4987
  103MOL0     C13791   8.199   4.249   2.454  0.6589  0.2733  0.4217
  103MOL0     C13792   8.331   4.283   2.385  1.4371 -0.8284 -0.2577
  103MOL0     C13793   8.330   4.254   2.237  0.9778  0.4847  0.5751
  103MOL0     O13794   8.312   4.376   2.155  0.2056  0.7262 -0.8724
  103MOL0     C13795   8.338   4.363   2.017 -0.6301  0.3041  1.3436
  103MOL0     C13796   8.394   4.473   1.945  0.7786 -0.5059  0.1082
  103MOL0     C13797   8.400   4.473   1.801 -0.2972 -0.4009 -0.0051
  103MOL0     C13798   8.361   4.355   1.730 -0.1345  0.1944 -0.4588
  103MOL0     C13799   8.370   4.353   1.578  0.0981 -0.3263 -0.5557
  103MOL0     O13800   8.322   4.242   1.516 -0.3817  0.2239 -0.9735
  103MOL0     C13801   8.342   4.233   1.381  0.1875  0.6903  0.2837
  103MOL0     C13802   8.461   4.268   1.319 -0.3291 -0.0096  0.1598
  103MOL0     C13803   8.475   4.235   1.181  0.1242 -1.1694 -0.2993
  103MOL0     C13804   8.365   4.182   1.107  0.1322 -1.2914  1.2514
  103MOL0     O13805   8.375   4.144   0.972 -0.1816 -0.0591 -0.0670
  103MOL0     C13806   8.498   4.080   0.929 -0.4882 -0.0424  0.5534
  103MOL0     C13807   8.466   3.999   0.798  0.3333 -0.2359  1.1624
  103MOL0     C13808   8.449   3.848   0.793  0.8720 -0.4658 -0.3460
  103MOL0     C13809   8.306   3.821   0.789 -0.6319  0.1153 -0.7312
  103MOL0     C13810   8.282   3.671   0.770 -0.2906  0.0586  0.4079
  103MOL0     C13811   8.294   3.603   0.909  0.5619 -0.9595  1.3108
  103MOL0     C13812   8.292   3.451   0.879 -0.2206  0.4210 -0.5146
  103MOL0     C13813   8.287   3.351   1.006 -0.1747 -0.2651  0.1383
  103MOL0    Cl13814   8.308   3.195   0.929 -0.4920  0.1966  0.0413
  103MOL0     C13815   8.242   4.151   1.168  0.3671  0.1556 -0.0055
  103MOL0     C13816   8.239   4.170   1.312  0.4048 -1.3793 -0.6014
  103MOL0     O13817   8.407   4.459   1.519  0.1582 -0.1802 -0.3622
  103MOL0     C13818   8.313   4.247   1.805  0.3564  0.6247  0.2341
  103MOL0     C13819   8.311   4.247   1.940  0.1485  0.3948  0.0355
  103MOL0     N13820   7.926   4.263   2.583 -0.0582 -0.5900 -0.5623
  103MOL0     N13821   7.801   4.241   2.607  0.1418  0.3411 -0.1496
  103MOL0     C13822   7.324   3.925   1.470 -0.2594  0.7147  0.1045
  103MOL0     C13823   7.293   3.884   1.343  0.1656 -0.9302  0.2807
  103MOL0     C13824   7.390   3.608   0.943 -0.2927  0.6401  0.0630
  103MOL0     C13825   7.506   3.561   0.868  0.1219 -1.1084  0.4386
  103MOL0     C13826   7.496   3.472   0.766 -0.5155  0.0720  0.2770
  103MOL0     C13827   7.375   3.411   0.745  0.1712 -0.5652 -0.5270
  103MOL0     O13828   7.360   3.318   0.648 -0.5538  0.0944  0.0032
  103MOL0     C13829   7.332   3.175   0.685  0.1476 -0.6124  0.1717
  103MOL0     C13830   7.182   3.134   0.649 -0.1377  0.6348  0.1902
  103MOL0     C13831   7.149   2.985   0.649  0.4723 -0.0481  1.3578
  103MOL0     C13832   7.007   2.950   0.592  0.6883 -0.3753  0.8936
  103MOL0     C13833   6.974   2.806   0.614 -0.1025  0.6520 -0.0144
  103MOL0     C13834   6.955   2.687   0.652  0.1962  0.8185 -0.9747
  103MOL0     C13835   7.263   3.453   0.819 -0.4440 -0.2737  0.7536
  103MOL0     C13836   7.270   3.550   0.915  0.4308  0.6810  0.6831
  103MOL0     C13837   7.134   3.593   0.969  0.9804  0.6377 -1.3377
  103MOL0     H13838   7.511   3.635   1.308  1.6018 -0.8236  3.8400
  103MOL0     H13839   7.586   3.700   1.524 -0.6769 -2.0807  0.4338
  103MOL0     H13840   7.446   4.103   1.651 -4.0210  1.8728  0.1864
  103MOL0     H13841   7.317   4.029   1.730 -0.6438  1.1252 -0.2682
  103MOL0     H13842   7.597   4.059   1.838 -1.4333  0.2676 -3.3423
  103MOL0     H13843   7.479   3.965   1.933  0.2583 -0.2861  0.2269
  103MOL0     H13844   7.330   4.180   1.954  0.3250  3.0016  0.2095
  103MOL0     H13845   7.454   4.255   1.857  1.5686  0.8031  2.4133
  103MOL0     H13846   7.620   4.178   2.060 -0.0877 -1.1427 -0.3875
  103MOL0     H13847   7.509   4.318   2.071 -1.0906 -0.2010 -2.0461
  103MOL0     H13848   7.366   4.198   2.216  0.7912 -0.9843  1.6320
  103MOL0     H13849   7.426   4.043   2.158  0.9748 -0.1005 -0.0662
  103MOL0     H13850   7.494   4.096   2.397  3.4629 -0.6504  0.9343
  103MOL0     H13851   7.640   4.125   2.297  0.9990  3.9737  0.9454
  103MOL0     H13852   7.423   4.331   2.375  0.1995  0.9361 -0.3662
  103MOL0     H13853   7.575   4.371   2.299 -0.0410 -0.7672  0.0758
  103MOL0     H13854   7.561   4.393   2.540 -3.0788 -1.8991  0.0449
  103MOL0     H13855   7.538   4.222   2.553 -0.2290  0.2392  0.1371
  103MOL0     H13856   7.814   4.369   2.303  2.4772 -0.3403 -0.8648
  103MOL0     H13857   8.095   4.366   2.308 -1.4863  2.2341 -0.5772
  103MOL0     H13858   8.122   4.461   2.457  0.9320  0.0360 -1.6359
  103MOL0     H13859   8.217   4.246   2.562  1.3567  0.9710  0.3347
  103MOL0     H13860   8.160   4.153   2.420  0.0106  0.1632  1.4403
  103MOL0     H13861   8.401   4.216   2.434 -0.2070 -1.6398  1.1024
  103MOL0     H13862   8.367   4.381   2.417  0.8052 -0.3906 -0.8521
  103MOL0     H13863   8.266   4.171   2.205 -0.1840  1.7130 -0.3781
  103MOL0     H13864   8.431   4.224   2.208  1.1971  0.5231  1.2786
  103MOL0     H13865   8.423   4.564   1.998  2.5328 -2.3325  2.5319
  103MOL0     H13866   8.443   4.567   1.769 -1.7020  0.7550  1.4015
  103MOL0     H13867   8.542   4.322   1.367 -0.7764  2.5095 -1.6997
  103MOL0     H13868   8.572   4.246   1.133 -1.0067  2.9438 -1.9770
  103MOL0     H13869   8.577   4.155   0.923  0.3886 -0.9653  0.1655
  103MOL0     H13870   8.532   4.012   1.008  3.3751 -1.9720 -2.3968
  103MOL0     H13871   8.382   4.044   0.745 -0.1028 -0.2123  1.8582
  103MOL0     H13872   8.553   4.009   0.734 -0.7070 -0.1512 -0.2863
  103MOL0     H13873   8.493   3.804   0.703  1.1296  1.9034 -1.4492
  103MOL0     H13874   8.498   3.804   0.880  0.0730  0.8279  0.7978
  103MOL0     H13875   8.261   3.876   0.707  1.0926  4.4907  0.9707
  103MOL0     H13876   8.266   3.861   0.883  2.1391 -1.0824  1.1146
  103MOL0     H13877   8.360   3.622   0.711 -1.3141 -1.0248 -0.0865
  103MOL0     H13878   8.184   3.668   0.721 -0.4143  4.4174 -0.0407
  103MOL0     H13879   8.386   3.635   0.958  0.0753  0.9326  1.0758
  103MOL0     H13880   8.208   3.631   0.970  0.6872  0.6646  0.7950
  103MOL0     H13881   8.383   3.420   0.826  1.7791  3.0909  1.1110
  103MOL0     H13882   8.204   3.428   0.818  0.6000 -1.9727 -0.9261
  103MOL0     H13883   8.355   3.373   1.089 -1.1461  1.4185  0.5224
  103MOL0     H13884   8.188   3.362   1.052 -1.0621  4.5368 -2.3282
  103MOL0     H13885   8.157   4.109   1.115 -0.2807  2.5329 -1.0082
  103MOL0     H13886   8.149   4.147   1.369  1.0484 -2.9318 -0.1689
  103MOL0     H13887   8.285   4.158   1.750 -2.1436  0.2165  2.0057
  103MOL0     H13888   8.278   4.149   1.974  0.0632  0.2338 -0.5047
  103MOL0     H13889   7.278   4.009   1.522 -0.2665  0.4628  0.5109
  103MOL0     H13890   7.214   3.935   1.289  0.1052 -0.5788  0.6916
  103MOL0     H13891   7.607   3.592   0.891 -0.4844  3.1422 -1.5924
  103MOL0     H13892   7.587   3.454   0.710 -0.8351  0.2872 -0.3116
  103MOL0     H13893   7.354   3.167   0.792  1.5233 -0.7976 -0.1034
  103MOL0     H13894   7.403   3.104   0.641 -1.4881 -4.2401  2.8475
  103MOL0     H13895   7.169   3.166   0.545  1.1510 -0.2248 -0.2666
  103MOL0     H13896   7.103   3.191   0.698 -2.7418 -0.4244 -2.4309
  103MOL0     H13897   7.146   2.950   0.753 -1.8669 -3.1009  0.3963
  103MOL0     H13898   7.224   2.938   0.585  0.7177  3.0850 -0.8780
  103MOL0     H13899   6.925   3.012   0.629  0.0000 -0.4161 -0.4847
  103MOL0     H13900   7.004   2.973   0.485  2.2484 -1.2543  0.6416
  103MOL0     H13901   6.947   2.580   0.659  1.0665  0.5218 -3.4267
  103MOL0     H13902   7.175   3.399   0.786  0.0632 -0.0865 -1.0311
  103MOL0     H13903   7.106   3.537   1.058  2.0778  1.4360 -0.4594
  103MOL0     H13904   7.125   3.690   1.018 -2.7524 -0.9373  1.5716
  103MOL0     H13905   7.060   3.599   0.889  0.5375  0.7146 -0.9256
  104MOL0     O13906   9.955   4.902   2.326 -0.1209 -0.1043  0.1728
  104MOL0     C13907   9.856   4.945   2.389 -0.1682  0.8538  0.0571
  104MOL0     O13908   9.794   5.072   2.374 -0.2129  0.4769 -0.3337
  104MOL0     C13909   9.819   5.150   2.263 -0.1970 -0.0413  0.1484
  104MOL0     C13910   9.841   5.296   2.271  1.0970 -0.3941 -0.2368
  104MOL0     C13911   9.872   5.379   2.155  0.8564  0.3387 -0.7100
  104MOL0     C13912   9.880   5.315   2.030 -0.1957 -0.0413 -0.6692
  104MOL0     O13913   9.891   5.383   1.914  0.3344 -0.7471  0.1043
  104MOL0     C13914   9.919   5.526   1.921 -0.4061 -0.5727 -0.1920
  104MOL0     C13915   9.958   5.584   1.784  0.4734  0.9506 -1.3711
  104MOL0     C13916   9.846   5.577   1.678  0.0814  0.0305  0.0223
  104MOL0     C13917   9.754   5.690   1.659  1.2209  1.0675  0.1355
  104MOL0     C13918   9.810   5.794   1.575  0.0740  0.7333  0.2366
  104MOL0     C13919   9.706   5.897   1.523 -0.1010  0.3547 -0.7005
  104MOL0     C13920   9.755   6.024   1.469 -0.2993 -0.4665 -0.4125
  104MOL0     C13921   9.649   6.116   1.410  0.3776 -0.3176 -0.2473
  104MOL0     N13922   9.600   6.072   1.279 -0.1619  0.0450  0.2964
  104MOL0     C13923   9.473   6.051   1.248  1.2304  0.1014  1.0690
  104MOL0     C13924   9.472   6.046   1.111  0.8571  0.4203 -2.0920
  104MOL0     C13925   9.352   6.010   1.042 -0.2282  0.3534 -0.1851
  104MOL0     C13926   9.339   5.856   1.007  0.1711  0.7899 -0.6197
  104MOL0     C13927   9.450   5.805   0.914  0.9085 -0.3679 -0.8591
  104MOL0     C13928   9.441   5.658   0.875 -0.1971  0.7117  0.2689
  104MOL0     O13929   9.563   5.623   0.801 -0.2590  0.0804 -0.4907
  104MOL0     C13930   9.546   5.535   0.708  0.7002  0.2919 -0.0876
  104MOL0     C13931   9.553   5.406   0.749  0.0035  0.0858 -1.3881
  104MOL0     C13932   9.529   5.300   0.658 -0.5602  0.4521  0.3752
  104MOL0     C13933   9.511   5.325   0.519  0.6648  0.2409  0.2662
  104MOL0     C13934   9.485   5.224   0.413  0.0252  0.0234 -0.6748
  104MOL0     O13935   9.431   5.254   0.294 -0.7544 -0.5403  0.0373
  104MOL0     C13936   9.398   5.147   0.214  0.3226 -0.6173 -0.4527
  104MOL0     C13937   9.493   5.085   0.138 -0.0429 -0.3757 -0.2262
  104MOL0     C13938   9.475   4.970   0.054 -0.5132  0.2619 -0.3144
  104MOL0     C13939   9.358   4.903   0.062  0.0200  1.0025 -1.3001
  104MOL0     O13940   9.343   4.789  -0.007  0.4481  0.4623 -0.4088
  104MOL0     C13941   9.268   4.683   0.057 -0.2039  0.1390  0.6901
  104MOL0     C13942   9.307   4.544   0.001  0.5509 -0.4979  0.5879
  104MOL0     C13943   9.442   4.506   0.077  0.0340  1.1745  0.8417
  104MOL0     C13944   9.459   4.355   0.101 -0.5225 -0.1107  0.1227
  104MOL0     C13945   9.576   4.326   0.205  1.0987  0.7049 -0.1740
  104MOL0     C13946   9.554   4.180   0.249 -0.2550  0.3526 -0.2817
  104MOL0     C13947   9.669   4.119   0.310 -0.4110  0.1345  0.2851
  104MOL0     C13948   9.645   3.968   0.336 -0.7009  0.3366 -0.3980
  104MOL0    Cl13949   9.798   3.910   0.396  0.1368 -0.1544 -0.1246
  104MOL0     C13950   9.253   4.952   0.150  0.1360 -0.0310 -0.0872
  104MOL0     C13951   9.281   5.074   0.221  0.5494  0.6556  0.1837
  104MOL0     O13952   9.498   5.110   0.451  0.3279  1.2428  0.0967
  104MOL0     C13953   9.491   5.460   0.487  0.3309 -0.4847  0.3222
  104MOL0     C13954   9.500   5.568   0.580 -0.0710 -0.2900 -0.6062
  104MOL0     N13955   9.599   6.058   1.062  0.1560 -0.5495  0.5209
  104MOL0     N13956   9.676   6.088   1.163  0.5342 -0.1441  0.6834
  104MOL0     C13957   9.848   5.179   2.023 -0.7582 -0.4750  0.0444
  104MOL0     C13958   9.812   5.098   2.131  0.4059 -0.9184 -1.0505
  104MOL0     C13959   9.814   4.870   2.519 -1.2341 -0.9651  0.8006
  104MOL0     C13960   9.737   4.937   2.613 -0.3495  0.6410 -0.7409
  104MOL0     C13961   9.700   4.867   2.732  0.8643 -1.0138 -0.3670
  104MOL0     C13962   9.748   4.742   2.762 -0.3413 -0.5826 -0.3943
  104MOL0     O13963   9.713   4.687   2.881  0.6725 -0.0346 -0.1609
  104MOL0     C13964   9.686   4.546   2.876  0.7513  0.2288  0.2486
  104MOL0     C13965   9.615   4.495   2.997  1.3056 -0.0130  0.0609
  104MOL0     C13966   9.689   4.468   3.126 -0.5239  0.4909 -1.0445
  104MOL0     C13967   9.806   4.370   3.106  1.3897  0.5695  0.0818
  104MOL0     C13968   9.900   4.381   3.218  0.0435  0.7759  0.5534
  104MOL0     C13969   9.965   4.405   3.321  0.2604 -0.0844 -0.9379
  104MOL0     C13970   9.832   4.671   2.666 -0.6304 -0.2786 -0.8798
  104MOL0     C13971   9.857   4.731   2.548  0.0678 -0.9944  1.3244
  104MOL0     C13972   9.938   4.645   2.458  0.8046  0.2556  0.2349
  104MOL0     H13973   9.854   5.331   2.373 -2.9681 -1.7608  0.9449
  104MOL0     H13974   9.894   5.485   2.164  0.1782  0.3893  0.6223
  104MOL0     H13975   9.828   5.576   1.955  0.9776  1.9357  0.0504
  104MOL0     H13976  10.008   5.551   1.980  0.4022  3.4506 -2.7374
  104MOL0     H13977  10.039   5.528   1.737 -0.8863  1.5088 -4.6295
  104MOL0     H13978   9.991   5.686   1.805  0.4580  0.2609  2.9478
  104MOL0     H13979   9.783   5.493   1.708  1.4207 -1.9172 -2.2197
  104MOL0     H13980   9.891   5.556   1.580  2.4808  2.2874  0.5420
  104MOL0     H13981   9.671   5.650   1.601  0.0424 -0.2849  2.6305
  104MOL0     H13982   9.716   5.716   1.758  0.3911 -4.6447  1.6246
  104MOL0     H13983   9.883   5.851   1.633 -0.6229  1.7508  0.1419
  104MOL0     H13984   9.855   5.749   1.486  1.8945  1.5530  0.7134
  104MOL0     H13985   9.651   5.843   1.445  3.3082 -3.1586 -0.9926
  104MOL0     H13986   9.640   5.922   1.606  0.3122 -0.9592  0.0633
  104MOL0     H13987   9.820   5.999   1.385 -1.6641 -1.5584 -1.1986
  104MOL0     H13988   9.797   6.078   1.555 -1.9453  2.0005 -1.0452
  104MOL0     H13989   9.562   6.120   1.475 -0.2889 -2.0152 -0.9743
  104MOL0     H13990   9.685   6.220   1.403 -2.5904  1.0092  2.1113
  104MOL0     H13991   9.374   6.041   1.292  0.0205  2.4679 -0.8299
  104MOL0     H13992   9.266   6.035   1.106 -0.9237 -2.4230  0.0838
  104MOL0     H13993   9.355   6.068   0.950  0.2452  1.4476  0.4988
  104MOL0     H13994   9.366   5.799   1.095  0.8200 -3.2438 -3.1716
  104MOL0     H13995   9.240   5.831   0.966  0.4850 -3.5569  0.7981
  104MOL0     H13996   9.549   5.819   0.957  0.1950  1.3540  0.3432
  104MOL0     H13997   9.447   5.864   0.822 -2.3636  2.3874  0.7783
  104MOL0     H13998   9.357   5.648   0.805  1.0059  0.0546 -1.1561
  104MOL0     H13999   9.410   5.588   0.953  0.3622 -0.6360 -0.6731
  104MOL0     H14000   9.573   5.388   0.854 -2.8617 -0.7040 -0.9000
  104MOL0     H14001   9.530   5.196   0.691 -2.5905  0.7811  1.6304
  104MOL0     H14002   9.587   5.139   0.144 -0.5259  0.5261 -0.6371
  104MOL0     H14003   9.559   4.929  -0.001  0.5414  0.6598  0.9299
  104MOL0     H14004   9.272   4.687   0.166  1.3643 -1.2444  0.7227
  104MOL0     H14005   9.167   4.708   0.025  0.3943 -0.1729 -1.6428
  104MOL0     H14006   9.228   4.472   0.025 -0.2712  0.4695  0.8534
  104MOL0     H14007   9.310   4.553  -0.108  0.0789 -1.7542  0.4581
  104MOL0     H14008   9.533   4.535   0.025 -2.0692  0.1480 -3.9276
  104MOL0     H14009   9.443   4.547   0.179  3.0145  1.1353  0.8950
  104MOL0     H14010   9.482   4.292   0.014  0.8526 -2.0402  1.7931
  104MOL0     H14011   9.369   4.321   0.152 -0.1350 -0.9918  0.2480
  104MOL0     H14012   9.578   4.394   0.291 -0.5531  1.2394 -0.5201
  104MOL0     H14013   9.670   4.324   0.150 -0.2552  0.5088 -2.5795
  104MOL0     H14014   9.469   4.176   0.318 -1.6921 -4.0711 -1.9420
  104MOL0     H14015   9.525   4.132   0.155 -0.2867  0.6912 -0.4444
  104MOL0     H14016   9.681   4.163   0.409  0.5006 -0.2271  0.3463
  104MOL0     H14017   9.763   4.136   0.258 -0.3034  2.5582  1.1811
  104MOL0     H14018   9.579   3.951   0.422  0.5890  1.3074  0.8304
  104MOL0     H14019   9.609   3.911   0.250 -3.4338 -0.2496  1.0346
  104MOL0     H14020   9.157   4.904   0.166  0.4809 -1.3216 -1.6210
  104MOL0     H14021   9.217   5.108   0.301 -0.7030  2.2797 -1.4301
  104MOL0     H14022   9.470   5.490   0.385 -0.4830 -2.7789 -0.2346
  104MOL0     H14023   9.478   5.672   0.555 -2.1354 -0.4573  0.2769
  104MOL0     H14024   9.856   5.125   1.929 -1.6605 -1.8830  0.7347
  104MOL0     H14025   9.788   4.992   2.120  0.7561 -1.1070 -0.1394
  104MOL0     H14026   9.689   5.029   2.582 -1.0832  1.3380  2.0833
  104MOL0     H14027   9.620   4.910   2.792 -1.2299 -1.2925 -2.7557
  104MOL0     H14028   9.780   4.496   2.849  0.7435  0.3512 -0.0027
  104MOL0     H14029   9.614   4.528   2.796  0.5888 -2.1983  0.8642
  104MOL0     H14030   9.534   4.423   2.978 -0.5485  1.6506  1.2219
  104MOL0     H14031   9.543   4.574   3.019  1.2201  0.1082 -0.6280
  104MOL0     H14032   9.628   4.437   3.212  2.8887  2.6674  2.5010
  104MOL0     H14033   9.728   4.567   3.154  0.8988 -0.8061  2.0104
  104MOL0     H14034   9.774   4.266   3.097  1.1367  0.6677 -0.1645
  104MOL0     H14035   9.870   4.400   3.023  0.6099  2.6048  0.1387
  104MOL0     H14036  10.029   4.416   3.406 -0.1533  0.9936 -0.7515
  104MOL0     H14037   9.872   4.572   2.683  0.2733  0.5622  3.1420
  104MOL0     H14038  10.037   4.687   2.435  0.5722  2.0656  2.2624
  104MOL0     H14039   9.951   4.545   2.500 -1.1167 -0.0301  0.2386
  104MOL0     H14040   9.884   4.633   2.363  1.2879  0.9206 -0.1389
  105MOL0     O14041   3.584   0.172   4.106 -0.4201 -0.4396 -0.6907
  105MOL0     C14042   3.671   0.258   4.118 -0.4182 -0.5112 -0.1575
  105MOL0     O14043   3.672   0.382   4.067 -0.9310 -0.5627  1.1646
  105MOL0     C14044   3.580   0.403   3.963  0.0864  0.6205  0.0116
  105MOL0     C14045   3.467   0.485   3.988 -0.3124  0.0458  0.1819
  105MOL0     C14046   3.388   0.517   3.883  0.1598 -0.3928  0.6312
  105MOL0     C14047   3.391   0.445   3.765  0.3871  0.3957 -0.5725
  105MOL0     O14048   3.310   0.481   3.661 -0.3938  0.4861 -0.7404
  105MOL0     C14049   3.294   0.411   3.535 -0.4358  0.2831 -0.0389
  105MOL0     C14050   3.172   0.449   3.459  0.2418  0.6796  0.4939
  105MOL0     C14051   3.196   0.573   3.376  0.0082 -0.2426  0.1086
  105MOL0     C14052   3.248   0.697   3.448 -0.0665 -0.0872  0.1724
  105MOL0     C14053   3.265   0.793   3.332 -0.9685 -0.8030 -0.2611
  105MOL0     C14054   3.256   0.949   3.371  0.1136  0.3243 -0.6481
  105MOL0     C14055   3.395   0.994   3.439  0.0777 -0.8595  0.4176
  105MOL0     C14056   3.519   1.016   3.343  0.2753  0.0439  0.2330
  105MOL0     N14057   3.637   1.067   3.411  0.5797  0.6202  1.0527
  105MOL0     C14058   3.689   1.017   3.518  0.7487 -0.5797 -0.0627
  105MOL0     C14059   3.806   1.088   3.533 -1.1500 -0.2511 -0.5767
  105MOL0     C14060   3.893   1.038   3.648  0.4331 -0.2536  0.3394
  105MOL0     C14061   3.856   1.126   3.768 -0.7557  0.3023  0.3002
  105MOL0     C14062   3.953   1.097   3.892 -0.8132 -0.4517  0.2247
  105MOL0     C14063   4.013   1.233   3.951  0.1530 -0.2400 -0.4102
  105MOL0     O14064   3.941   1.285   4.065  0.2933  0.3563 -1.0212
  105MOL0     C14065   3.950   1.209   4.182  0.2872  0.6637  1.4205
  105MOL0     C14066   3.848   1.224   4.276 -0.1483  0.3066  0.2357
  105MOL0     C14067   3.843   1.164   4.396  0.3942 -0.7952 -0.1861
  105MOL0     C14068   3.944   1.080   4.441  0.5449  0.4562 -0.0700
  105MOL0     C14069   3.953   1.029   4.581  0.0956 -0.2903 -0.5124
  105MOL0     O14070   3.851   1.059   4.670  0.1689  0.3433 -0.1435
  105MOL0     C14071   3.848   1.025   4.805  1.0190 -0.1751  0.0295
  105MOL0     C14072   3.945   0.957   4.876  0.3757 -0.0782 -0.4248
  105MOL0     C14073   3.920   0.930   5.017 -0.8587 -0.3025 -0.4277
  105MOL0     C14074   3.807   0.977   5.092 -0.8845  0.3523  0.7901
  105MOL0     O14075   3.799   0.961   5.225 -0.1373  0.2950  0.2016
  105MOL0     C14076   3.773   1.081   5.301 -0.3565 -0.0357 -0.6611
  105MOL0     C14077   3.826   1.084   5.450 -0.1990  0.2559  0.1863
  105MOL0     C14078   3.981   1.100   5.453  0.7556  0.0446  0.0368
  105MOL0     C14079   4.025   1.150   5.596  0.4277  0.3431 -1.0070
  105MOL0     C14080   4.181   1.185   5.598  0.8281  0.3206 -1.2762
  105MOL0     C14081   4.236   1.149   5.736  0.5262 -1.1151  0.8314
  105MOL0     C14082   4.178   1.246   5.834 -0.8206  1.0727 -0.1150
  105MOL0     C14083   4.244   1.241   5.981  0.1328  0.5421  0.4988
  105MOL0    Cl14084   4.211   1.079   6.055  0.0309 -0.0699 -0.1641
  105MOL0     C14085   3.720   1.048   5.015 -0.7741 -0.4610 -0.1140
  105MOL0     C14086   3.737   1.072   4.878 -0.1585 -0.1722  0.1930
  105MOL0     O14087   4.057   0.969   4.605  0.2301 -0.8015 -0.8453
  105MOL0     C14088   4.046   1.054   4.346 -1.0914  0.1666 -0.4250
  105MOL0     C14089   4.051   1.116   4.217  0.2308  1.0814 -0.4698
  105MOL0     N14090   3.825   1.172   3.425 -0.3216  0.2879 -0.7758
  105MOL0     N14091   3.721   1.153   3.352 -0.0582 -0.1326 -0.5102
  105MOL0     C14092   3.489   0.352   3.735 -0.3309  0.4035 -0.7539
  105MOL0     C14093   3.585   0.330   3.833 -0.1704  0.1643 -0.3543
  105MOL0     C14094   3.775   0.224   4.217  0.1929 -0.3037  0.3648
  105MOL0     C14095   3.834   0.319   4.295  0.2568  0.0963  0.2529
  105MOL0     C14096   3.941   0.286   4.376 -0.1537  0.1938  0.1766
  105MOL0     C14097   3.988   0.156   4.389  0.0270  0.1911  1.0708
  105MOL0     O14098   4.077   0.114   4.488  0.8146 -0.6052 -0.1459
  105MOL0     C14099   4.178   0.199   4.536 -1.0261  0.5373 -0.7664
  105MOL0     C14100   4.128   0.246   4.673 -0.5582 -0.3296 -0.5765
  105MOL0     C14101   4.251   0.272   4.762 -0.0274 -0.0561 -0.3930
  105MOL0     C14102   4.212   0.382   4.862  0.6435 -0.3367  0.4344
  105MOL0     C14103   4.208   0.517   4.798  0.3073 -0.3177 -0.7964
  105MOL0     C14104   4.224   0.628   4.759 -0.7240 -0.9323  0.1156
  105MOL0     C14105   3.933   0.058   4.303 -0.1229  0.1673 -0.0276
  105MOL0     C14106   3.829   0.092   4.219 -0.2663  0.5027  0.4551
  105MOL0     C14107   3.770  -0.019   4.141  0.8767 -0.6538  0.3931
  105MOL0     H14108   3.464   0.529   4.088  0.2580  0.6444 -0.0562
  105MOL0     H14109   3.310   0.589   3.906  2.7976  3.1265 -0.4673
  105MOL0     H14110   3.383   0.421   3.472 -1.3917  2.5510 -1.1607
  105MOL0     H14111   3.272   0.305   3.552 -4.0316  0.8810 -0.2457
  105MOL0     H14112   3.089   0.450   3.530  0.0695  3.5614  0.3453
  105MOL0     H14113   3.153   0.372   3.383 -1.2605  0.8960  0.6205
  105MOL0     H14114   3.096   0.602   3.342 -2.0236 -1.9677  3.9883
  105MOL0     H14115   3.259   0.550   3.289  0.8573 -0.0946  0.6669
  105MOL0     H14116   3.182   0.742   3.522  1.1834  3.4618 -0.6557
  105MOL0     H14117   3.347   0.682   3.493 -0.6448 -1.1152  1.1449
  105MOL0     H14118   3.362   0.790   3.282  1.5101  2.4086  3.6663
  105MOL0     H14119   3.174   0.783   3.273 -1.3489 -0.0940  0.1865
  105MOL0     H14120   3.224   1.021   3.295  0.7887  1.0716 -0.2435
  105MOL0     H14121   3.182   0.951   3.451  1.3549  1.8834  0.5247
  105MOL0     H14122   3.424   0.920   3.514  0.1565 -0.0622  1.1889
  105MOL0     H14123   3.363   1.089   3.481  0.5223  1.1194 -3.2913
  105MOL0     H14124   3.550   0.919   3.303 -0.4827  0.0438 -0.3902
  105MOL0     H14125   3.489   1.079   3.259  1.7958  0.3511 -0.1035
  105MOL0     H14126   3.652   0.933   3.576  1.6780  0.9198  2.9222
  105MOL0     H14127   3.881   0.931   3.670  2.6663 -0.3710  1.2066
  105MOL0     H14128   3.998   1.063   3.635  0.8244 -1.9301 -0.0252
  105MOL0     H14129   3.855   1.232   3.739  1.8282 -0.1135 -1.6910
  105MOL0     H14130   3.754   1.103   3.799  0.2168 -0.7652  2.9180
  105MOL0     H14131   4.031   1.028   3.858 -2.0470 -2.1327  0.6751
  105MOL0     H14132   3.898   1.040   3.968  2.2270 -2.7204  0.8890
  105MOL0     H14133   4.003   1.314   3.878  0.4970 -0.6379 -0.9080
  105MOL0     H14134   4.118   1.223   3.977 -0.3295  0.4086  1.9531
  105MOL0     H14135   3.770   1.296   4.253 -0.4964 -0.1597 -0.0571
  105MOL0     H14136   3.756   1.178   4.459 -1.9474  0.9901 -3.5150
  105MOL0     H14137   4.032   0.922   4.821  0.2953  2.4467 -2.3298
  105MOL0     H14138   3.993   0.861   5.059  0.4180  0.0828 -1.9128
  105MOL0     H14139   3.820   1.165   5.248 -0.6207  1.0233  0.7270
  105MOL0     H14140   3.666   1.104   5.295 -0.1307  0.6885 -3.1142
  105MOL0     H14141   3.789   1.176   5.496 -1.9195 -0.8436  1.1015
  105MOL0     H14142   3.788   0.998   5.506  3.2932 -0.6237  1.5032
  105MOL0     H14143   4.024   1.002   5.433  0.1033  0.0079 -1.2718
  105MOL0     H14144   4.015   1.175   5.380  1.3553 -1.3191 -1.1296
  105MOL0     H14145   4.010   1.072   5.671 -2.0406  2.5528  0.9654
  105MOL0     H14146   3.961   1.229   5.635 -0.2533  0.1302 -1.6763
  105MOL0     H14147   4.201   1.286   5.560  1.0496 -0.1845 -2.5674
  105MOL0     H14148   4.226   1.121   5.521  0.8651 -3.0416  1.2798
  105MOL0     H14149   4.206   1.053   5.779 -0.7234  0.0814  2.7935
  105MOL0     H14150   4.344   1.154   5.722  0.2619  1.3214 -0.9253
  105MOL0     H14151   4.073   1.223   5.854 -0.6662  1.1691  0.8574
  105MOL0     H14152   4.187   1.349   5.800 -0.0061  0.9891 -0.1803
  105MOL0     H14153   4.348   1.272   5.991  0.4061 -0.0009 -0.4747
  105MOL0     H14154   4.193   1.325   6.029  0.3213  0.7963  0.2580
  105MOL0     H14155   3.635   1.101   5.058  1.3084  1.1717  2.2368
  105MOL0     H14156   3.657   1.119   4.822  0.3241 -0.2242 -0.5491
  105MOL0     H14157   4.120   0.984   4.382 -3.0083 -2.1216 -0.6445
  105MOL0     H14158   4.138   1.096   4.156  1.2110  0.6810  1.0022
  105MOL0     H14159   3.500   0.303   3.639 -0.1769 -2.6431  0.7214
  105MOL0     H14160   3.672   0.266   3.823  1.0757  0.9310  3.6257
  105MOL0     H14161   3.794   0.419   4.306 -0.6681 -0.1814 -0.4263
  105MOL0     H14162   3.995   0.365   4.427  3.8198 -0.6805 -2.2442
  105MOL0     H14163   4.207   0.289   4.480 -0.3340  1.8506  1.5695
  105MOL0     H14164   4.271   0.144   4.552  0.5721  3.6998  2.2127
  105MOL0     H14165   4.066   0.178   4.732  2.5960  0.5424  4.3966
  105MOL0     H14166   4.078   0.341   4.651  0.0119  0.0700 -0.1514
  105MOL0     H14167   4.332   0.317   4.705 -0.8550  0.8446 -0.8830
  105MOL0     H14168   4.288   0.184   4.816  0.4613  0.9322  0.9537
  105MOL0     H14169   4.120   0.353   4.915  0.2915  1.7002  1.0470
  105MOL0     H14170   4.297   0.372   4.929  0.3164 -2.7473  0.5601
  105MOL0     H14171   4.224   0.734   4.747 -1.1145 -0.6336  2.3252
  105MOL0     H14172   3.997  -0.029   4.303  1.4314  1.2356  1.4907
  105MOL0     H14173   3.681  -0.051   4.195  0.5953  2.5217  2.0531
  105MOL0     H14174   3.753   0.017   4.039 -2.2923  2.6938  1.8569
  105MOL0     H14175   3.849  -0.095   4.134  1.1209 -0.5124  1.5136
  106MOL0     O14176   1.308   2.954   7.369 -0.2112 -0.3616  0.0577
  106MOL0     C14177   1.344   3.060   7.408  1.3391 -1.2988  0.5122
  106MOL0     O14178   1.455   3.101   7.479 -1.0961  0.1118  0.2772
  106MOL0     C14179   1.545   3.007   7.508  0.3619  0.0132  0.2445
  106MOL0     C14180   1.668   3.029   7.456 -0.6958  0.7738 -0.2169
  106MOL0     C14181   1.775   2.948   7.506 -0.6041  0.6183  0.4175
  106MOL0     C14182   1.760   2.869   7.621 -0.7409 -0.5759 -0.5110
  106MOL0     O14183   1.873   2.799   7.653 -1.1793  0.0359  0.6543
  106MOL0     C14184   1.888   2.758   7.792 -0.3853  0.5501 -0.7329
  106MOL0     C14185   1.906   2.874   7.889 -0.0796 -0.1568 -0.0577
  106MOL0     C14186   1.896   2.829   8.032  0.1786  0.4903  0.0467
  106MOL0     C14187   1.986   2.925   8.119 -0.3586  1.1026  0.0931
  106MOL0     C14188   1.966   2.915   8.269 -0.2784  0.0363  0.8817
  106MOL0     C14189   2.054   2.989   8.354 -0.1486  0.7320 -0.4694
  106MOL0     C14190   2.074   3.139   8.328 -0.1994  0.0662 -0.8880
  106MOL0     C14191   2.132   3.205   8.455  0.0787  0.5032 -0.4499
  106MOL0     N14192   2.031   3.240   8.552 -0.1044 -0.6917  0.1549
  106MOL0     C14193   1.946   3.346   8.532  0.1256 -0.3422 -1.1120
  106MOL0     C14194   1.841   3.317   8.608 -0.1962 -0.1424  0.6070
  106MOL0     C14195   1.737   3.426   8.607 -0.2436  0.2392 -0.4013
  106MOL0     C14196   1.600   3.364   8.570 -0.1575  0.2683 -1.1896
  106MOL0     C14197   1.493   3.473   8.542 -0.2974  0.6723 -0.0586
  106MOL0     C14198   1.406   3.514   8.666  0.2737 -0.6237  0.0107
  106MOL0     O14199   1.279   3.577   8.610 -0.7174 -0.1765  0.2919
  106MOL0     C14200   1.184   3.628   8.698  0.9543 -0.7416  0.9086
  106MOL0     C14201   1.196   3.631   8.840 -0.1168 -0.1138 -0.7644
  106MOL0     C14202   1.089   3.668   8.927 -0.4091  0.9504  0.1146
  106MOL0     C14203   0.969   3.713   8.862  0.0181  0.0706 -0.0808
  106MOL0     C14204   0.838   3.736   8.940 -0.4881 -0.9186 -0.0155
  106MOL0     O14205   0.845   3.708   9.068  0.8140 -0.4853 -1.0563
  106MOL0     C14206   0.732   3.686   9.147  0.0814  0.1998 -0.2432
  106MOL0     C14207   0.603   3.655   9.106 -0.0026 -0.0137  0.3965
  106MOL0     C14208   0.490   3.640   9.182 -0.4467  0.1492 -0.5593
  106MOL0     C14209   0.511   3.656   9.322 -0.7294 -0.6630  0.0945
  106MOL0     O14210   0.419   3.653   9.420 -0.3176  0.2319 -0.8535
  106MOL0     C14211   0.279   3.642   9.399  0.0866  0.2602  0.8294
  106MOL0     C14212   0.208   3.611   9.526 -0.4598  0.2333  0.4298
  106MOL0     C14213   0.233   3.714   9.644  0.4227  0.5036 -0.3486
  106MOL0     C14214   0.131   3.676   9.753  0.3389  0.0012  0.7660
  106MOL0     C14215   0.139   3.769   9.877 -0.0254 -0.4027 -1.3814
  106MOL0     C14216   0.275   3.755   9.964  0.4690 -0.3663  0.1685
  106MOL0     C14217   0.256   3.804  10.104  0.6463 -0.1841 -0.2430
  106MOL0     C14218   0.190   3.701  10.196 -0.5852 -0.0708  0.4109
  106MOL0    Cl14219   0.196   3.784  10.363  0.0718  0.2084  0.6653
  106MOL0     C14220   0.638   3.703   9.375 -0.2736 -0.1341 -0.3661
  106MOL0     C14221   0.742   3.722   9.287  0.6941 -0.1496 -0.1556
  106MOL0     O14222   0.747   3.784   8.876  1.0363  0.5092 -0.3879
  106MOL0     C14223   0.963   3.730   8.725  0.8279  0.6139  0.6976
  106MOL0     C14224   1.065   3.677   8.636  0.9381 -0.0246 -0.9569
  106MOL0     N14225   1.858   3.207   8.686  0.7423  0.2675 -0.0944
  106MOL0     N14226   1.975   3.167   8.657  0.2503 -0.4333 -0.1605
  106MOL0     C14227   1.632   2.866   7.681 -0.1011 -0.6767 -0.2518
  106MOL0     C14228   1.525   2.929   7.622  0.6421  1.0688  0.7520
  106MOL0     C14229   1.257   3.179   7.398 -1.0945 -0.4422  1.4300
  106MOL0     C14230   1.163   3.203   7.503 -0.7932  0.0166 -0.0040
  106MOL0     C14231   1.068   3.308   7.491 -0.1766  0.5115 -0.5894
  106MOL0     C14232   1.060   3.384   7.371  0.2178 -0.1771  0.6074
  106MOL0     O14233   0.968   3.474   7.343  0.2616 -0.1369  1.0560
  106MOL0     C14234   0.995   3.606   7.406 -0.3843  0.0938 -0.4642
  106MOL0     C14235   0.866   3.693   7.392 -1.5298  1.0237  1.1548
  106MOL0     C14236   0.846   3.739   7.247  0.5871  0.2459  0.0625
  106MOL0     C14237   0.813   3.893   7.242 -0.8594  0.4068 -0.3225
  106MOL0     C14238   0.759   3.941   7.116 -0.2567  0.2160 -0.3504
  106MOL0     C14239   0.696   3.975   7.020 -0.6697 -0.4155  0.3010
  106MOL0     C14240   1.155   3.362   7.266 -0.0624  0.0860  0.5616
  106MOL0     C14241   1.263   3.263   7.285  0.6236  0.1713 -0.0056
  106MOL0     C14242   1.370   3.253   7.183 -0.1938  0.4412  0.4868
  106MOL0     H14243   1.692   3.100   7.377  2.0674 -1.0106 -1.1630
  106MOL0     H14244   1.867   2.946   7.448 -0.1228 -2.3346  1.1228
  106MOL0     H14245   1.802   2.696   7.819  0.4884  0.2870  1.6979
  106MOL0     H14246   1.979   2.699   7.809 -1.0351 -0.6286 -1.2878
  106MOL0     H14247   1.831   2.949   7.863  0.6716  1.6193  2.5049
  106MOL0     H14248   2.004   2.915   7.860  0.3710 -1.9523 -1.2869
  106MOL0     H14249   1.920   2.722   8.029 -0.7502  0.2766 -0.1580
  106MOL0     H14250   1.791   2.835   8.062 -0.8204 -0.1664 -2.9879
  106MOL0     H14251   2.088   2.893   8.097 -0.8501 -1.3191  1.0523
  106MOL0     H14252   1.991   3.031   8.093  0.5659  0.6601 -1.6579
  106MOL0     H14253   1.874   2.970   8.290 -0.6368 -1.5330  4.0847
  106MOL0     H14254   1.959   2.811   8.303 -2.5575 -0.7276 -1.5710
  106MOL0     H14255   2.002   2.977   8.450 -1.0987  1.5192 -0.8779
  106MOL0     H14256   2.147   2.935   8.373 -0.6259  0.8894  3.0622
  106MOL0     H14257   1.988   3.196   8.292  0.7007 -0.3378 -3.9888
  106MOL0     H14258   2.133   3.144   8.236 -2.0665 -0.7140 -2.1928
  106MOL0     H14259   2.203   3.136   8.500 -0.8518  0.5907  1.2499
  106MOL0     H14260   2.202   3.284   8.429  3.7282 -1.5661  2.1632
  106MOL0     H14261   1.967   3.430   8.467  0.9948  2.1504  2.1370
  106MOL0     H14262   1.719   3.477   8.702 -1.4320 -0.0359 -0.4649
  106MOL0     H14263   1.763   3.490   8.522  0.9076  0.9126  0.4353
  106MOL0     H14264   1.604   3.284   8.495 -1.4461 -1.1589  0.1917
  106MOL0     H14265   1.576   3.313   8.664  3.5574 -1.1549 -0.8221
  106MOL0     H14266   1.412   3.425   8.485 -0.0074 -2.8945  2.2083
  106MOL0     H14267   1.530   3.562   8.490  2.8890 -0.1580  0.5548
  106MOL0     H14268   1.461   3.579   8.734 -0.5190  0.1618 -0.0836
  106MOL0     H14269   1.375   3.425   8.722 -0.8051 -0.2175  0.0896
  106MOL0     H14270   1.302   3.630   8.866 -0.5536 -1.0813  1.1626
  106MOL0     H14271   1.104   3.658   9.034  0.3691  1.0568  0.0253
  106MOL0     H14272   0.596   3.635   9.000 -1.7260 -1.4664  0.7235
  106MOL0     H14273   0.389   3.629   9.144 -1.5534 -0.0218  2.2031
  106MOL0     H14274   0.252   3.738   9.353 -0.7077 -1.0001 -1.4771
  106MOL0     H14275   0.255   3.564   9.326 -2.8511 -1.1850  3.1465
  106MOL0     H14276   0.102   3.618   9.499 -0.3694  0.3571  0.1071
  106MOL0     H14277   0.233   3.508   9.553  4.4013  0.3061 -2.5554
  106MOL0     H14278   0.337   3.708   9.679  0.2572 -1.5856 -0.0763
  106MOL0     H14279   0.229   3.814   9.602  4.5033  0.2985 -1.6499
  106MOL0     H14280   0.154   3.573   9.782  0.2201 -0.3270 -0.2708
  106MOL0     H14281   0.028   3.673   9.715 -0.0545 -1.5823  1.8248
  106MOL0     H14282   0.057   3.743   9.945  0.5460  0.5433 -0.2805
  106MOL0     H14283   0.126   3.876   9.856  0.9848  0.1709  0.5607
  106MOL0     H14284   0.303   3.650   9.975  1.9210 -0.1085 -0.8034
  106MOL0     H14285   0.351   3.813   9.912  1.5447 -2.2349 -0.4655
  106MOL0     H14286   0.194   3.894  10.110 -3.5666 -2.8846  1.7321
  106MOL0     H14287   0.354   3.824  10.149  0.6199 -3.2220  1.4277
  106MOL0     H14288   0.084   3.680  10.176 -0.6578  2.3188 -2.4139
  106MOL0     H14289   0.228   3.599  10.185  2.1680  0.7323  1.6327
  106MOL0     H14290   0.654   3.717   9.481 -1.7691 -2.4752  0.2471
  106MOL0     H14291   0.836   3.753   9.331  1.4045 -2.9426  0.4906
  106MOL0     H14292   0.873   3.738   8.665  2.6173 -1.9190 -2.7321
  106MOL0     H14293   1.039   3.653   8.534 -0.9984 -0.1496 -0.4848
  106MOL0     H14294   1.602   2.800   7.763  0.2081  1.5402  1.7372
  106MOL0     H14295   1.421   2.911   7.645  0.6081 -0.9764 -0.7145
  106MOL0     H14296   1.160   3.124   7.578 -0.7960 -0.7622 -0.8087
  106MOL0     H14297   0.993   3.324   7.568  3.2791  0.9743  3.0420
  106MOL0     H14298   1.082   3.659   7.366 -1.7007  2.5326 -0.3530
  106MOL0     H14299   1.027   3.594   7.509 -3.9079  2.0213  1.0384
  106MOL0     H14300   0.865   3.776   7.463 -1.1568  1.3746  0.7506
  106MOL0     H14301   0.788   3.622   7.423 -1.7929  1.7651  2.2192
  106MOL0     H14302   0.776   3.671   7.199  2.3225 -0.8379 -1.0350
  106MOL0     H14303   0.941   3.724   7.195 -0.9975 -0.6877 -2.7559
  106MOL0     H14304   0.745   3.919   7.324 -0.4426  0.0366  0.1515
  106MOL0     H14305   0.902   3.956   7.246 -0.8920  0.5238 -1.2897
  106MOL0     H14306   0.640   3.996   6.931 -0.3551 -0.3553  0.1120
  106MOL0     H14307   1.142   3.420   7.176  0.7712 -0.1656  0.2649
  106MOL0     H14308   1.367   3.335   7.111  2.4992  1.4170  1.3531
  106MOL0     H14309   1.471   3.257   7.224  0.6180 -2.2008 -1.0407
  106MOL0     H14310   1.358   3.154   7.138  0.0506 -0.5304  2.4413
  107MOL0     O14311  11.504   7.918   1.545  0.1158  0.2591  0.2013
  107MOL0     C14312  11.430   8.017   1.547  0.0706  0.2278 -0.6136
  107MOL0     O14313  11.377   8.071   1.660 -0.0008 -0.5664 -0.7241
  107MOL0     C14314  11.417   8.029   1.786  0.9649  1.2144  0.1097
  107MOL0     C14315  11.442   8.138   1.878 -0.6255  0.3870  0.1555
  107MOL0     C14316  11.477   8.109   2.012 -0.3072  0.2369 -0.4440
  107MOL0     C14317  11.461   7.977   2.062  0.5752 -0.2950  0.7131
  107MOL0     O14318  11.516   7.967   2.194 -0.0845  0.4733 -0.7112
  107MOL0     C14319  11.516   7.843   2.256 -0.2018 -0.1052  0.3881
  107MOL0     C14320  11.632   7.751   2.236 -0.1519 -0.8652  0.6143
  107MOL0     C14321  11.604   7.613   2.290  0.7208 -0.0022 -0.2547
  107MOL0     C14322  11.601   7.615   2.452  0.2413 -0.6368  0.4426
  107MOL0     C14323  11.630   7.478   2.507  0.6666 -0.1507  0.6262
  107MOL0     C14324  11.586   7.473   2.658 -0.5891  0.8797  0.6835
  107MOL0     C14325  11.600   7.345   2.743 -0.0480 -0.2368  0.7335
  107MOL0     C14326  11.573   7.374   2.887 -0.0616  0.8543  0.1094
  107MOL0     N14327  11.652   7.289   2.976  0.5601 -0.5395 -0.4481
  107MOL0     C14328  11.596   7.206   3.072 -0.2679  0.2840  0.6208
  107MOL0     C14329  11.711   7.154   3.138  0.5176 -0.6485  0.6609
  107MOL0     C14330  11.723   7.062   3.249  0.3599 -0.1148 -0.3570
  107MOL0     C14331  11.621   7.067   3.356 -0.5825 -0.1790 -0.5963
  107MOL0     C14332  11.644   6.985   3.476 -0.0075  0.3408  0.3039
  107MOL0     C14333  11.765   7.043   3.550 -0.2082 -0.5984  0.4623
  107MOL0     O14334  11.797   6.968   3.661 -0.2865  0.1735 -0.0997
  107MOL0     C14335  11.740   6.986   3.790  0.2840 -0.9255  0.0263
  107MOL0     C14336  11.681   7.110   3.825 -0.3003 -0.6030 -0.4881
  107MOL0     C14337  11.652   7.137   3.960 -0.9513 -0.1223  0.2365
  107MOL0     C14338  11.679   7.041   4.061  0.2699 -1.0856  0.2674
  107MOL0     C14339  11.653   7.073   4.205 -0.4679  0.6857  0.7343
  107MOL0     O14340  11.698   6.971   4.296  0.3608 -0.2768  0.8153
  107MOL0     C14341  11.644   6.976   4.424  0.3291  0.8901  0.0581
  107MOL0     C14342  11.710   6.908   4.528  0.9886  0.2475 -0.2526
  107MOL0     C14343  11.654   6.890   4.652  0.4194 -0.5033 -0.2938
  107MOL0     C14344  11.537   6.954   4.685 -0.0862 -0.1189  0.4939
  107MOL0     O14345  11.492   6.934   4.809 -0.4157  0.2088  0.2731
  107MOL0     C14346  11.370   6.998   4.864 -0.7186 -0.3782  0.1669
  107MOL0     C14347  11.246   6.904   4.849 -0.2808 -0.6232  0.6526
  107MOL0     C14348  11.167   6.934   4.972  0.2420  0.6354 -0.2575
  107MOL0     C14349  11.076   6.826   5.003 -0.7700  0.0576 -0.6768
  107MOL0     C14350  10.962   6.876   5.092  0.0179  0.3387  0.3826
  107MOL0     C14351  10.842   6.766   5.084 -0.2181 -0.3680 -1.4562
  107MOL0     C14352  10.763   6.771   5.215 -0.2716 -0.0680  0.3391
  107MOL0     C14353  10.656   6.654   5.219  0.7884  0.5022 -0.4081
  107MOL0    Cl14354  10.737   6.511   5.266 -0.1835 -0.5511 -0.2583
  107MOL0     C14355  11.475   7.032   4.586  0.0997 -1.0159 -0.6113
  107MOL0     C14356  11.528   7.049   4.460 -0.3205  0.2224 -0.4530
  107MOL0     O14357  11.628   7.188   4.232  0.1945  0.0246 -0.7682
  107MOL0     C14358  11.712   6.912   4.015 -0.7024 -0.5089  1.5178
  107MOL0     C14359  11.748   6.891   3.882  1.0446  0.6295  0.4768
  107MOL0     N14360  11.819   7.213   3.079 -0.2844  0.5834  1.2289
  107MOL0     N14361  11.792   7.293   2.982  0.2876  0.0353 -0.7470
  107MOL0     C14362  11.430   7.873   1.972  0.5006 -0.8191 -0.1402
  107MOL0     C14363  11.407   7.898   1.838  0.2127  0.1837  0.2975
  107MOL0     C14364  11.417   8.110   1.429  0.3366  0.3034 -0.3350
  107MOL0     C14365  11.354   8.243   1.439 -0.7388 -0.4123 -0.6709
  107MOL0     C14366  11.325   8.321   1.333 -0.2851  0.0027 -0.2632
  107MOL0     C14367  11.360   8.278   1.205 -1.0287 -0.2322  0.3980
  107MOL0     O14368  11.354   8.344   1.083 -0.3806 -0.1036 -0.3256
  107MOL0     C14369  11.292   8.469   1.068  0.9175  0.9669  0.0419
  107MOL0     C14370  11.253   8.488   0.922 -0.1693  0.3836 -0.2185
  107MOL0     C14371  11.174   8.374   0.855  0.1334 -0.6957  1.2455
  107MOL0     C14372  11.130   8.419   0.710  0.4450  1.2258 -1.0632
  107MOL0     C14373  11.247   8.460   0.633 -0.0237  0.3084 -0.3478
  107MOL0     C14374  11.328   8.516   0.563 -0.2858  0.1740  0.7019
  107MOL0     C14375  11.417   8.155   1.191 -0.9856  0.5064  0.3000
  107MOL0     C14376  11.460   8.080   1.299  0.5704  0.2896 -0.8539
  107MOL0     C14377  11.535   7.949   1.259  0.2644  1.0493  0.2646
  107MOL0     H14378  11.463   8.238   1.842  0.9109 -0.1667 -0.5497
  107MOL0     H14379  11.520   8.186   2.075  0.4482  1.2456 -2.1440
  107MOL0     H14380  11.516   7.861   2.364  0.7670 -0.9090  0.5371
  107MOL0     H14381  11.430   7.783   2.226  1.8428 -5.1578  3.2900
  107MOL0     H14382  11.724   7.783   2.286 -0.2698  0.1509  0.2171
  107MOL0     H14383  11.650   7.742   2.129 -2.6841  1.2653 -0.1068
  107MOL0     H14384  11.679   7.542   2.255 -1.3499 -0.7552 -3.5658
  107MOL0     H14385  11.511   7.565   2.261  2.0243 -2.8366 -0.0820
  107MOL0     H14386  11.672   7.691   2.486  2.3101 -2.0066 -0.5991
  107MOL0     H14387  11.502   7.654   2.481  0.9875  1.1687  0.6738
  107MOL0     H14388  11.555   7.416   2.456  0.3704 -0.2205  1.1442
  107MOL0     H14389  11.734   7.449   2.489  1.4802  0.9455  3.0755
  107MOL0     H14390  11.648   7.547   2.709  2.9418 -2.6594  2.0264
  107MOL0     H14391  11.480   7.500   2.649 -0.9258 -0.8558 -1.6483
  107MOL0     H14392  11.704   7.311   2.732  0.9848  2.9648 -0.8037
  107MOL0     H14393  11.545   7.258   2.707  1.3625 -1.6615  1.8617
  107MOL0     H14394  11.609   7.474   2.910  0.1902  0.9681 -0.7633
  107MOL0     H14395  11.465   7.360   2.891 -0.1854  0.7326 -2.2471
  107MOL0     H14396  11.488   7.196   3.078 -0.5307  1.8508 -0.7831
  107MOL0     H14397  11.725   6.968   3.192 -1.2394 -0.6444  0.4007
  107MOL0     H14398  11.819   7.072   3.300  0.5486 -1.6454 -0.3606
  107MOL0     H14399  11.611   7.172   3.386  3.6501  0.2890 -0.2148
  107MOL0     H14400  11.526   7.031   3.318 -1.5627  2.0065 -0.3774
  107MOL0     H14401  11.656   6.879   3.455 -4.8441 -1.4073  4.3420
  107MOL0     H14402  11.550   6.975   3.532  0.0628  0.3394  0.4248
  107MOL0     H14403  11.737   7.147   3.570 -0.7873 -0.4445 -1.0206
  107MOL0     H14404  11.859   7.056   3.495 -1.9610 -0.6450 -2.8017
  107MOL0     H14405  11.657   7.182   3.747  0.7413 -2.3844 -2.5519
  107MOL0     H14406  11.602   7.227   3.994 -1.6456 -0.7813  1.0262
  107MOL0     H14407  11.803   6.855   4.511 -0.0516 -1.7764  0.0064
  107MOL0     H14408  11.704   6.822   4.720 -0.2778 -4.3378 -3.2928
  107MOL0     H14409  11.393   7.017   4.969 -1.8931 -2.1655  0.7853
  107MOL0     H14410  11.346   7.093   4.816  2.4561 -0.3159 -1.5985
  107MOL0     H14411  11.193   6.937   4.760 -0.3641 -2.6445 -0.0941
  107MOL0     H14412  11.269   6.798   4.830  0.2432 -0.3676 -0.1991
  107MOL0     H14413  11.226   6.939   5.064  3.2965 -3.3669 -1.6915
  107MOL0     H14414  11.115   7.029   4.956 -1.4732 -0.0129  1.0710
  107MOL0     H14415  11.120   6.741   5.056 -0.3334  0.0864 -0.9876
  107MOL0     H14416  11.030   6.786   4.912 -0.0212  1.6518 -1.7942
  107MOL0     H14417  10.918   6.968   5.053 -1.0952 -0.2044  0.3116
  107MOL0     H14418  11.008   6.898   5.188  3.0181  2.5346 -1.3893
  107MOL0     H14419  10.776   6.794   5.002  1.2195 -3.1926 -3.7364
  107MOL0     H14420  10.888   6.668   5.067 -1.1165 -1.5676  2.0483
  107MOL0     H14421  10.721   6.869   5.238 -3.5991 -0.5514 -2.7673
  107MOL0     H14422  10.833   6.744   5.294  1.1419  0.4595 -0.6939
  107MOL0     H14423  10.580   6.677   5.295 -0.6419  0.6728 -1.8560
  107MOL0     H14424  10.597   6.653   5.127 -1.2497  2.1392  0.7811
  107MOL0     H14425  11.388   7.091   4.614 -0.3324 -1.1084 -1.7165
  107MOL0     H14426  11.478   7.118   4.394  0.1917 -1.6857 -2.9802
  107MOL0     H14427  11.718   6.834   4.090  0.1743 -2.1400 -0.1765
  107MOL0     H14428  11.780   6.790   3.858 -0.9935  0.0639 -0.0245
  107MOL0     H14429  11.442   7.771   2.008  1.1250 -0.9568 -0.7271
  107MOL0     H14430  11.378   7.815   1.775 -2.5272 -1.1116  3.0349
  107MOL0     H14431  11.334   8.282   1.538 -1.3904 -1.1569 -0.4978
  107MOL0     H14432  11.275   8.416   1.353  1.3125  0.6391  1.0246
  107MOL0     H14433  11.364   8.548   1.091  0.2249  1.3352  1.0036
  107MOL0     H14434  11.199   8.477   1.125  1.2999  1.2064  0.6450
  107MOL0     H14435  11.343   8.509   0.864  0.1168 -0.1705  0.0223
  107MOL0     H14436  11.191   8.579   0.922  2.3103  2.2650  2.3964
  107MOL0     H14437  11.090   8.332   0.911 -0.9345  0.4372  0.5544
  107MOL0     H14438  11.237   8.285   0.853  0.5232 -0.4177 -0.2908
  107MOL0     H14439  11.088   8.331   0.662 -0.2733  0.0986  1.4623
  107MOL0     H14440  11.056   8.499   0.706 -0.8990  0.0677 -0.2261
  107MOL0     H14441  11.402   8.561   0.500 -0.0493 -0.4785  0.5058
  107MOL0     H14442  11.433   8.129   1.087  0.3898 -3.2529  1.2739
  107MOL0     H14443  11.622   7.939   1.324 -0.5813  0.0879  1.3005
  107MOL0     H14444  11.467   7.865   1.277  1.3538 -0.0389 -0.5818
  107MOL0     H14445  11.552   7.949   1.151 -1.9930 -1.1958 -0.1904
  108MOL0     O14446   9.742   3.005   5.819  1.2075 -0.2326  0.5705
  108MOL0     C14447   9.625   3.034   5.851 -1.3880 -0.6673 -0.8555
  108MOL0     O14448   9.549   2.976   5.948  0.0881 -0.5413  0.6668
  108MOL0     C14449   9.620   2.937   6.056 -0.0774  0.8999  0.5498
  108MOL0     C14450   9.549   2.839   6.130 -0.6648  0.0651  0.1204
  108MOL0     C14451   9.608   2.780   6.248 -0.4408 -0.2028  0.3341
  108MOL0     C14452   9.730   2.822   6.295  0.1877  0.7576  1.1204
  108MOL0     O14453   9.783   2.744   6.397  0.1823 -0.2241  0.3197
  108MOL0     C14454   9.924   2.758   6.439  0.4041  0.2634  0.0538
  108MOL0     C14455   9.966   2.635   6.532 -0.9677 -0.6426 -0.0124
  108MOL0     C14456   9.882   2.623   6.667  0.7594 -0.4724 -0.5505
  108MOL0     C14457   9.911   2.508   6.760 -0.1185  0.1392 -0.6887
  108MOL0     C14458   9.883   2.369   6.704  0.5664 -0.3976  0.7516
  108MOL0     C14459   9.741   2.333   6.715 -0.8441 -0.0190 -0.9282
  108MOL0     C14460   9.723   2.180   6.712  0.0571  0.1517 -0.2983
  108MOL0     C14461   9.580   2.131   6.732  0.1245 -0.6026  0.3929
  108MOL0     N14462   9.526   2.185   6.863  0.3430  0.4064  0.6335
  108MOL0     C14463   9.571   2.145   6.987  0.3375  0.0772 -0.3235
  108MOL0     C14464   9.476   2.191   7.074 -1.3737 -0.8022  0.8796
  108MOL0     C14465   9.469   2.151   7.213  1.5746  1.2398 -0.5007
  108MOL0     C14466   9.587   2.213   7.290  0.4464  0.1596 -0.1861
  108MOL0     C14467   9.548   2.350   7.335 -0.1007 -0.1021  0.3911
  108MOL0     C14468   9.524   2.344   7.489  0.0955 -0.3095 -0.6659
  108MOL0     O14469   9.406   2.257   7.517  0.0518  0.2716  0.1124
  108MOL0     C14470   9.286   2.303   7.572 -0.6557 -0.1624 -0.6599
  108MOL0     C14471   9.245   2.434   7.550 -0.1900  0.2541  0.0904
  108MOL0     C14472   9.149   2.488   7.633 -0.6824 -0.3077 -0.4845
  108MOL0     C14473   9.071   2.411   7.719  0.1339 -0.0681  0.8897
  108MOL0     C14474   8.965   2.469   7.804 -0.6566 -0.4436 -0.4079
  108MOL0     O14475   8.951   2.602   7.799 -0.7100 -0.0093  0.0789
  108MOL0     C14476   8.882   2.662   7.903 -0.3726 -0.3678 -0.3833
  108MOL0     C14477   8.738   2.665   7.917  0.0094 -0.1841  0.7290
  108MOL0     C14478   8.673   2.720   8.026 -0.4819  0.4504 -0.2247
  108MOL0     C14479   8.746   2.781   8.125 -0.6314 -1.2309  0.7739
  108MOL0     O14480   8.680   2.823   8.232  0.0960 -0.6526 -0.6076
  108MOL0     C14481   8.702   2.956   8.279 -0.0017 -0.9389 -1.0576
  108MOL0     C14482   8.600   2.973   8.398  0.1658 -0.0950 -0.1960
  108MOL0     C14483   8.575   3.127   8.430  0.2434  0.8261 -0.7414
  108MOL0     C14484   8.537   3.138   8.576  0.8638 -1.1506 -0.0717
  108MOL0     C14485   8.526   3.289   8.618  0.0818  0.2419 -0.0029
  108MOL0     C14486   8.497   3.305   8.767  0.2822  0.3208  0.1671
  108MOL0     C14487   8.381   3.399   8.817 -0.8551 -0.8594  0.4293
  108MOL0     C14488   8.306   3.360   8.949 -0.3013 -1.1942 -0.0775
  108MOL0    Cl14489   8.411   3.358   9.097 -0.2172 -0.9651 -0.0677
  108MOL0     C14490   8.888   2.812   8.099  0.5124 -0.2256  0.1785
  108MOL0     C14491   8.951   2.748   7.995 -0.3254 -0.5420  1.2087
  108MOL0     O14492   8.916   2.393   7.887 -0.2937 -0.4501 -0.8054
  108MOL0     C14493   9.116   2.277   7.734  0.2350  0.1717 -0.8008
  108MOL0     C14494   9.226   2.227   7.663  0.2108  0.1080  0.2713
  108MOL0     N14495   9.390   2.273   7.003  0.0827  0.0690  0.2080
  108MOL0     N14496   9.423   2.275   6.879 -0.6188 -0.3405 -0.9837
  108MOL0     C14497   9.799   2.922   6.219 -0.6957 -0.3612 -1.4322
  108MOL0     C14498   9.745   2.990   6.109 -0.5389 -0.0950 -0.1740
  108MOL0     C14499   9.549   3.114   5.749 -0.9434  0.3242  0.2045
  108MOL0     C14500   9.486   3.044   5.646 -0.2101 -0.3282 -1.1044
  108MOL0     C14501   9.419   3.125   5.555 -0.0699 -0.0023  0.1982
  108MOL0     C14502   9.424   3.263   5.552 -0.0456  1.0028  0.0333
  108MOL0     O14503   9.373   3.329   5.445  0.0364 -0.2083  0.2600
  108MOL0     C14504   9.384   3.473   5.431 -0.3761 -0.9522 -0.4011
  108MOL0     C14505   9.318   3.510   5.299  0.8205  0.6810  0.4679
  108MOL0     C14506   9.159   3.500   5.295 -0.0903 -0.2063 -0.8294
  108MOL0     C14507   9.089   3.606   5.195 -0.6522  0.2437 -0.6635
  108MOL0     C14508   8.943   3.582   5.195  0.0397  0.0078 -0.4682
  108MOL0     C14509   8.823   3.575   5.202 -0.9352 -0.1253 -0.2468
  108MOL0     C14510   9.477   3.324   5.661  0.4963 -0.4991  0.3499
  108MOL0     C14511   9.549   3.252   5.759  0.5875  0.5819  0.6969
  108MOL0     C14512   9.602   3.317   5.878  0.5316  0.0118 -0.2165
  108MOL0     H14513   9.465   2.792   6.080  1.2265  0.1571 -3.5027
  108MOL0     H14514   9.565   2.696   6.301  0.8941  0.4539  2.6134
  108MOL0     H14515   9.993   2.763   6.354 -4.0131  1.1899 -3.9159
  108MOL0     H14516   9.943   2.849   6.496  2.0567  0.9948 -1.5610
  108MOL0     H14517  10.073   2.648   6.549 -0.9950 -1.6553  1.0455
  108MOL0     H14518   9.949   2.546   6.470  0.6202  1.1122 -3.2607
  108MOL0     H14519   9.776   2.624   6.641  0.7025  1.0147 -0.3669
  108MOL0     H14520   9.908   2.716   6.719 -0.6886  0.4328 -1.3804
  108MOL0     H14521  10.018   2.510   6.782 -0.0814  0.2587 -0.8834
  108MOL0     H14522   9.854   2.514   6.853  0.1190 -0.3884 -0.5027
  108MOL0     H14523   9.923   2.382   6.603  0.1898  2.7025  0.9009
  108MOL0     H14524   9.942   2.288   6.748 -0.4485 -1.8296 -0.4117
  108MOL0     H14525   9.697   2.367   6.809 -3.7836  0.1755 -2.2554
  108MOL0     H14526   9.694   2.367   6.622 -0.2342  0.0530 -1.2191
  108MOL0     H14527   9.779   2.136   6.795 -1.2695 -0.8632  0.0990
  108MOL0     H14528   9.757   2.134   6.619  1.0621 -0.0085  0.1285
  108MOL0     H14529   9.512   2.159   6.652 -4.4028 -3.5108  2.7870
  108MOL0     H14530   9.589   2.022   6.729  1.5823 -0.4959 -2.0667
  108MOL0     H14531   9.650   2.076   7.012  0.1951  0.4636  1.3699
  108MOL0     H14532   9.377   2.192   7.257  0.6369  1.4663 -2.5641
  108MOL0     H14533   9.468   2.042   7.217  0.8746  1.2581  2.5302
  108MOL0     H14534   9.615   2.143   7.369 -2.5592 -1.2994 -0.2473
  108MOL0     H14535   9.674   2.224   7.225  0.8352  2.7270  0.6557
  108MOL0     H14536   9.461   2.391   7.283  1.0778  3.1816  0.7455
  108MOL0     H14537   9.627   2.422   7.310 -1.6429  1.6185  0.2590
  108MOL0     H14538   9.500   2.445   7.524 -1.5947 -0.8604 -0.1645
  108MOL0     H14539   9.605   2.318   7.559  0.8570  3.9630  0.2909
  108MOL0     H14540   9.299   2.508   7.492 -2.5679  1.3902 -0.7655
  108MOL0     H14541   9.133   2.595   7.621  1.6342  0.0183 -1.2237
  108MOL0     H14542   8.681   2.613   7.840 -1.3910  3.7369 -1.1013
  108MOL0     H14543   8.566   2.712   8.043 -0.8478  0.8494 -2.1027
  108MOL0     H14544   8.805   2.976   8.310  0.8103  1.1115 -4.5901
  108MOL0     H14545   8.655   3.030   8.214 -0.9411  0.9803  1.6260
  108MOL0     H14546   8.503   2.934   8.365  1.1462 -0.5183 -2.8770
  108MOL0     H14547   8.638   2.918   8.484  1.3054  1.3900  0.2944
  108MOL0     H14548   8.657   3.191   8.397  0.9306 -1.1336 -3.1838
  108MOL0     H14549   8.488   3.164   8.376  0.4362 -2.1133 -3.3298
  108MOL0     H14550   8.626   3.104   8.630  1.8114 -1.5009 -1.7857
  108MOL0     H14551   8.445   3.091   8.612 -1.5383  2.1910 -1.2963
  108MOL0     H14552   8.449   3.341   8.560 -0.9787  0.8741  1.8922
  108MOL0     H14553   8.622   3.339   8.601  0.9609 -1.9533 -2.0053
  108MOL0     H14554   8.498   3.207   8.817  3.1294  0.0119 -0.3649
  108MOL0     H14555   8.588   3.338   8.817 -0.3279 -0.1863  1.6895
  108MOL0     H14556   8.318   3.404   8.728  1.9647  0.1204 -1.6658
  108MOL0     H14557   8.417   3.500   8.836  2.7714 -1.6286 -1.5127
  108MOL0     H14558   8.230   3.432   8.978  0.5974 -0.9513  1.8318
  108MOL0     H14559   8.268   3.258   8.937 -0.6332 -1.0278 -0.4417
  108MOL0     H14560   8.935   2.873   8.176 -0.8057  1.9762 -0.6569
  108MOL0     H14561   9.056   2.771   7.982 -0.1127  0.2567  3.9266
  108MOL0     H14562   9.074   2.214   7.812  1.2127 -0.0835 -0.4672
  108MOL0     H14563   9.273   2.130   7.677  0.4355 -0.2577 -2.4508
  108MOL0     H14564   9.895   2.949   6.260 -1.0116 -2.7715  1.1760
  108MOL0     H14565   9.803   3.063   6.056 -3.5412  1.9092 -0.9706
  108MOL0     H14566   9.493   2.936   5.649 -0.4362 -0.3324 -0.7516
  108MOL0     H14567   9.361   3.067   5.484 -1.7526 -1.6837  2.8055
  108MOL0     H14568   9.489   3.502   5.423  0.4204 -3.8222 -2.1446
  108MOL0     H14569   9.345   3.525   5.519  1.1606  0.0412 -0.2669
  108MOL0     H14570   9.346   3.435   5.225 -2.6936  2.2521 -2.8209
  108MOL0     H14571   9.364   3.606   5.271  1.4340 -0.4942 -3.0273
  108MOL0     H14572   9.121   3.515   5.396 -0.3806 -0.9411 -0.8204
  108MOL0     H14573   9.126   3.401   5.263 -1.1738  0.3455 -1.4613
  108MOL0     H14574   9.112   3.704   5.237  0.5979 -0.0533 -0.6324
  108MOL0     H14575   9.143   3.599   5.100  2.7298  2.3048  0.9010
  108MOL0     H14576   8.716   3.567   5.195 -1.1033  1.4443  0.1898
  108MOL0     H14577   9.469   3.431   5.676  2.2790 -0.2830  0.0159
  108MOL0     H14578   9.699   3.274   5.905  0.4183 -0.8867 -1.1870
  108MOL0     H14579   9.617   3.422   5.851  4.2967  0.1753  1.7992
  108MOL0     H14580   9.524   3.303   5.953  2.9457 -2.5634  2.0748
  109MOL0     O14581   2.076   4.299   6.173 -0.3012  0.0836  0.4488
  109MOL0     C14582   1.968   4.240   6.181  0.2424  0.0016 -0.1619
  109MOL0     O14583   1.946   4.128   6.253  0.1474  0.0822 -0.2641
  109MOL0     C14584   2.043   4.065   6.332 -0.0900  0.2842  0.4547
  109MOL0     C14585   2.088   4.121   6.455 -0.1379  1.0925 -0.4911
  109MOL0     C14586   2.187   4.044   6.531  0.4581  0.1596 -0.6214
  109MOL0     C14587   2.229   3.924   6.475 -1.0648 -0.2049  0.1093
  109MOL0     O14588   2.314   3.830   6.526 -0.2897 -0.2718 -0.3913
  109MOL0     C14589   2.462   3.840   6.498  0.0285  0.2882 -0.0871
  109MOL0     C14590   2.541   3.727   6.577 -1.0920 -0.0208  0.7937
  109MOL0     C14591   2.560   3.761   6.727 -0.0303  0.0448 -0.1687
  109MOL0     C14592   2.644   3.670   6.816  0.5511 -0.4901 -0.1749
  109MOL0     C14593   2.589   3.658   6.954 -0.1254  0.4551 -0.4851
  109MOL0     C14594   2.678   3.590   7.057  0.4598  0.1437 -0.6773
  109MOL0     C14595   2.644   3.645   7.204 -0.6418  0.7015 -1.0346
  109MOL0     C14596   2.718   3.570   7.313  1.2328 -0.3203  0.3637
  109MOL0     N14597   2.853   3.610   7.321  0.2692 -0.5159 -0.4694
  109MOL0     C14598   2.911   3.631   7.443  0.6231 -1.3090  0.0521
  109MOL0     C14599   3.038   3.684   7.415  0.6168 -0.3978  0.6379
  109MOL0     C14600   3.138   3.731   7.510 -0.3495  0.4479  0.3096
  109MOL0     C14601   3.149   3.652   7.635  0.6309  0.6726 -0.7653
  109MOL0     C14602   3.186   3.506   7.626  0.2998 -1.4292  0.1711
  109MOL0     C14603   3.279   3.471   7.507 -0.0223  0.3690 -0.4792
  109MOL0     O14604   3.335   3.341   7.533  0.2805 -0.2185  0.3229
  109MOL0     C14605   3.445   3.333   7.614 -1.6289  0.2777  1.1217
  109MOL0     C14606   3.501   3.434   7.692  0.1660  0.1311 -0.1951
  109MOL0     C14607   3.590   3.404   7.797 -0.4219  0.3210 -0.5264
  109MOL0     C14608   3.647   3.268   7.812 -0.5359 -0.6975  0.1721
  109MOL0     C14609   3.751   3.230   7.911 -0.9581 -0.4168 -1.0212
  109MOL0     O14610   3.807   3.333   7.975  0.1994  0.5543 -0.5388
  109MOL0     C14611   3.898   3.302   8.074  0.5820  0.9329  0.2712
  109MOL0     C14612   4.016   3.225   8.052  0.1457 -0.0933  0.0445
  109MOL0     C14613   4.110   3.213   8.154  0.9485  0.4364  0.2304
  109MOL0     C14614   4.079   3.254   8.287 -0.2215 -0.0964 -0.1160
  109MOL0     O14615   4.162   3.237   8.402 -0.4628 -0.4599  0.2264
  109MOL0     C14616   4.274   3.153   8.398 -0.2759  0.3121  0.9669
  109MOL0     C14617   4.375   3.178   8.508 -0.1712 -0.0203  0.6531
  109MOL0     C14618   4.492   3.273   8.481  0.4505 -0.1253 -0.7367
  109MOL0     C14619   4.460   3.425   8.479 -0.5060  0.6766 -0.1402
  109MOL0     C14620   4.439   3.503   8.612 -0.1984  0.9500  0.8225
  109MOL0     C14621   4.571   3.489   8.693  0.3568 -1.0479  0.5778
  109MOL0     C14622   4.569   3.585   8.816 -0.1535 -0.6768  0.7571
  109MOL0     C14623   4.696   3.560   8.906  0.5782  0.3520  1.2018
  109MOL0    Cl14624   4.826   3.628   8.795  0.4031  0.2845 -0.1681
  109MOL0     C14625   3.956   3.318   8.314 -0.4120  0.0685 -0.7156
  109MOL0     C14626   3.877   3.356   8.204  0.2834  1.0228  0.1915
  109MOL0     O14627   3.767   3.115   7.933 -0.0161  1.1933 -0.3385
  109MOL0     C14628   3.615   3.178   7.707  0.1449  0.1713 -0.2494
  109MOL0     C14629   3.499   3.206   7.631 -0.9010  0.5426 -0.8878
  109MOL0     N14630   3.052   3.673   7.281  0.3246 -0.7079 -0.1255
  109MOL0     N14631   2.940   3.647   7.220  0.3255 -0.0598 -0.6293
  109MOL0     C14632   2.182   3.875   6.356  0.4991  0.3673 -0.7611
  109MOL0     C14633   2.079   3.942   6.292 -0.6300 -0.4296 -0.3157
  109MOL0     C14634   1.842   4.278   6.120  1.0081  0.3614  0.2226
  109MOL0     C14635   1.755   4.169   6.069  0.7062 -0.3488 -0.9133
  109MOL0     C14636   1.634   4.196   6.010 -0.5531  0.4332 -0.9521
  109MOL0     C14637   1.592   4.325   5.998  0.2012  0.1800  0.1826
  109MOL0     O14638   1.470   4.352   5.941  0.1560  0.3617  0.0809
  109MOL0     C14639   1.411   4.247   5.852 -0.4364 -0.3401  0.5321
  109MOL0     C14640   1.280   4.297   5.796  0.2270  0.2418  0.5711
  109MOL0     C14641   1.165   4.296   5.889 -0.3347 -0.4146  0.0307
  109MOL0     C14642   1.139   4.427   5.971  0.6906 -0.2424  0.1384
  109MOL0     C14643   1.088   4.534   5.877  0.1917  0.3287 -0.9433
  109MOL0     C14644   1.039   4.619   5.814  1.3069 -0.0726 -0.7637
  109MOL0     C14645   1.675   4.434   6.050 -0.3894  0.4451  0.2205
  109MOL0     C14646   1.803   4.412   6.100  0.6388 -0.4354 -0.2038
  109MOL0     C14647   1.899   4.532   6.116  0.0019  0.2213  1.2341
  109MOL0     H14648   2.047   4.215   6.491 -1.1375  1.2786 -2.0174
  109MOL0     H14649   2.215   4.078   6.631 -0.3213  0.3439 -0.4630
  109MOL0     H14650   2.491   3.838   6.393  0.5801  1.2366  0.0358
  109MOL0     H14651   2.510   3.930   6.537  0.9993 -0.1630 -0.2079
  109MOL0     H14652   2.640   3.727   6.531 -0.5716 -1.2742  1.8527
  109MOL0     H14653   2.499   3.627   6.572 -0.9225 -0.2229  2.5347
  109MOL0     H14654   2.461   3.742   6.768  1.4741 -4.3094  2.1195
  109MOL0     H14655   2.595   3.864   6.738 -1.3756  0.3108  2.2514
  109MOL0     H14656   2.647   3.566   6.781 -0.8090 -0.1733 -1.3197
  109MOL0     H14657   2.745   3.707   6.798 -0.0242  0.8778 -0.7361
  109MOL0     H14658   2.580   3.756   7.001  3.0594  0.4893  0.2801
  109MOL0     H14659   2.487   3.620   6.951  0.6646 -1.7319 -2.5971
  109MOL0     H14660   2.646   3.485   7.055  2.7077 -0.6154 -0.5449
  109MOL0     H14661   2.782   3.606   7.026  0.1882 -2.3756 -3.2771
  109MOL0     H14662   2.540   3.626   7.230 -1.1837  0.2346 -3.2847
  109MOL0     H14663   2.660   3.753   7.209 -2.2482  0.9355 -0.5529
  109MOL0     H14664   2.670   3.585   7.410 -0.8011 -1.1833 -0.4449
  109MOL0     H14665   2.713   3.461   7.309 -2.7125 -0.2955  0.0937
  109MOL0     H14666   2.870   3.613   7.542  0.8901 -1.8860  0.0642
  109MOL0     H14667   3.232   3.726   7.454 -0.6396 -1.5966 -0.0969
  109MOL0     H14668   3.112   3.833   7.539 -2.8132  0.3033 -1.1197
  109MOL0     H14669   3.216   3.704   7.704 -0.3100 -2.8304  3.2249
  109MOL0     H14670   3.055   3.659   7.691  2.0929  0.8713  1.8306
  109MOL0     H14671   3.088   3.462   7.607 -1.3202  3.2270 -4.4604
  109MOL0     H14672   3.221   3.482   7.727  0.9818  1.4585  0.6997
  109MOL0     H14673   3.360   3.544   7.509  2.0112 -1.7538  0.0985
  109MOL0     H14674   3.228   3.477   7.411 -2.2384  3.3985  0.7551
  109MOL0     H14675   3.458   3.533   7.695 -2.2171 -0.8161 -0.6314
  109MOL0     H14676   3.609   3.482   7.870  0.4797 -0.0012 -0.4000
  109MOL0     H14677   4.025   3.176   7.955  0.1277 -0.8317  0.4072
  109MOL0     H14678   4.184   3.134   8.141 -2.3492 -2.6373 -1.8216
  109MOL0     H14679   4.246   3.048   8.410  1.5649 -0.5807 -1.6930
  109MOL0     H14680   4.322   3.149   8.300 -2.3142 -0.4972 -0.0592
  109MOL0     H14681   4.318   3.188   8.600  0.2320 -0.9444  1.0127
  109MOL0     H14682   4.431   3.084   8.516  0.3621  0.4027  2.1895
  109MOL0     H14683   4.574   3.266   8.554  0.7254  0.5539 -0.9709
  109MOL0     H14684   4.538   3.253   8.384 -0.6014  1.9883 -1.7484
  109MOL0     H14685   4.364   3.439   8.430 -2.1619 -3.3972  1.4897
  109MOL0     H14686   4.553   3.466   8.440  0.7152 -1.1272  0.7195
  109MOL0     H14687   4.349   3.478   8.668 -1.2878  1.7499 -0.5164
  109MOL0     H14688   4.408   3.606   8.592 -4.1985  0.6924  4.4672
  109MOL0     H14689   4.580   3.384   8.721 -4.7207 -1.1122  3.2085
  109MOL0     H14690   4.649   3.523   8.625 -0.4443 -0.9042 -0.3013
  109MOL0     H14691   4.482   3.562   8.878  0.4704  0.0685  1.9452
  109MOL0     H14692   4.565   3.689   8.784 -1.5331 -1.4730 -1.9201
  109MOL0     H14693   4.679   3.618   8.997 -0.5677 -0.3380  1.4546
  109MOL0     H14694   4.716   3.459   8.943  2.7238  1.2353  2.6163
  109MOL0     H14695   3.930   3.351   8.414  1.8838  0.9816 -0.3556
  109MOL0     H14696   3.801   3.429   8.231  2.5941  3.5999  0.1046
  109MOL0     H14697   3.666   3.082   7.701  2.2591  1.2297 -0.3827
  109MOL0     H14698   3.458   3.127   7.569  0.8608 -0.2378 -1.1072
  109MOL0     H14699   2.230   3.789   6.311  1.1292  0.3219 -0.0218
  109MOL0     H14700   2.049   3.908   6.193  0.7500 -2.0571 -0.2287
  109MOL0     H14701   1.783   4.064   6.071  0.0277 -0.5295 -0.4943
  109MOL0     H14702   1.579   4.110   5.974  1.9264 -1.4860 -0.3933
  109MOL0     H14703   1.402   4.150   5.902  3.7174 -0.4190  1.4881
  109MOL0     H14704   1.476   4.227   5.766 -0.4237 -1.5843  0.8155
  109MOL0     H14705   1.249   4.243   5.706 -4.4531  4.1545 -0.5741
  109MOL0     H14706   1.295   4.398   5.756  2.8140  0.7564  2.5675
  109MOL0     H14707   1.186   4.215   5.959 -1.0973  1.1095  2.1292
  109MOL0     H14708   1.077   4.281   5.826  0.8077  0.0472 -1.7500
  109MOL0     H14709   1.081   4.423   6.063 -0.0237  3.2231 -0.0188
  109MOL0     H14710   1.236   4.472   5.997  0.1751  0.7487  0.4005
  109MOL0     H14711   0.996   4.696   5.752 -1.1843 -2.1501 -1.8127
  109MOL0     H14712   1.636   4.535   6.062  0.3774  0.9512 -1.2978
  109MOL0     H14713   1.979   4.522   6.042  0.6855 -1.9485  2.1923
  109MOL0     H14714   1.835   4.619   6.098 -1.7524 -0.0108  5.2068
  109MOL0     H14715   1.939   4.542   6.218 -1.9589 -1.0496  2.1915
  110MOL0     O14716   3.456   2.104   5.222  0.2346  0.6517  0.0041
  110MOL0     C14717   3.532   2.026   5.286 -0.1707 -0.0370  0.0852
  110MOL0     O14718   3.646   1.977   5.235 -0.2716 -0.6917  0.0265
  110MOL0     C14719   3.677   1.986   5.103  0.1736  0.5054 -0.2806
  110MOL0     C14720   3.703   2.102   5.038  0.8802 -0.9844  0.3382
  110MOL0     C14721   3.727   2.109   4.897 -0.3336 -0.3057  0.6979
  110MOL0     C14722   3.735   1.994   4.825  0.0257  0.1922 -0.0945
  110MOL0     O14723   3.783   1.985   4.691  0.5502 -0.7404 -1.1688
  110MOL0     C14724   3.676   2.005   4.602  1.3651  0.0274  0.4630
  110MOL0     C14725   3.724   2.062   4.471  0.4945 -0.3539 -0.4549
  110MOL0     C14726   3.613   2.060   4.367 -0.0092  0.4270 -0.2045
  110MOL0     C14727   3.642   2.109   4.223  0.3273  0.4682  0.3862
  110MOL0     C14728   3.727   2.019   4.140  0.1747  0.8465 -0.4754
  110MOL0     C14729   3.760   2.093   4.000  0.4691 -0.0782 -0.2898
  110MOL0     C14730   3.640   2.118   3.907 -0.9103  0.2749  0.5699
  110MOL0     C14731   3.682   2.161   3.769  0.0788 -0.6951  0.6766
  110MOL0     N14732   3.773   2.270   3.771  0.6716  0.3199 -1.3711
  110MOL0     C14733   3.752   2.400   3.807  0.3542 -0.7814  0.4490
  110MOL0     C14734   3.875   2.462   3.797 -0.5878  0.2428  0.4418
  110MOL0     C14735   3.886   2.609   3.838 -0.4099 -0.5394  0.0693
  110MOL0     C14736   3.983   2.682   3.749 -0.6328 -0.2860 -0.1726
  110MOL0     C14737   3.907   2.727   3.637  0.8914  0.0340  0.3453
  110MOL0     C14738   3.997   2.771   3.517  0.2365 -0.7146 -1.3488
  110MOL0     O14739   4.075   2.892   3.571  0.2044 -0.1807  0.4648
  110MOL0     C14740   4.165   2.950   3.475 -0.2562 -0.4953 -0.0088
  110MOL0     C14741   4.174   2.932   3.336  0.5577 -0.6275  0.1125
  110MOL0     C14742   4.261   2.998   3.252 -0.8761 -0.8903 -0.1751
  110MOL0     C14743   4.340   3.100   3.305 -0.1052 -0.7209  0.6562
  110MOL0     C14744   4.417   3.190   3.219  0.3880  0.0216 -0.3661
  110MOL0     O14745   4.403   3.168   3.084 -0.8154 -0.0899 -0.0602
  110MOL0     C14746   4.462   3.238   2.973  0.1946  0.0140 -0.8780
  110MOL0     C14747   4.569   3.331   2.962  0.0028  0.3163 -0.4918
  110MOL0     C14748   4.610   3.380   2.839 -0.0276 -0.0457 -0.2436
  110MOL0     C14749   4.545   3.349   2.720 -0.2102  0.0344  0.7955
  110MOL0     O14750   4.569   3.423   2.606  0.5606  0.0560 -0.7232
  110MOL0     C14751   4.593   3.563   2.622 -0.4444  0.5274  0.2785
  110MOL0     C14752   4.588   3.642   2.488  0.3645  0.4959 -0.3247
  110MOL0     C14753   4.448   3.621   2.437  0.4649  0.0199  0.2476
  110MOL0     C14754   4.379   3.751   2.408 -0.0799 -0.9451 -0.5064
  110MOL0     C14755   4.328   3.798   2.557  0.3181  0.1211  0.4905
  110MOL0     C14756   4.295   3.951   2.571  0.4139  0.3907 -0.6715
  110MOL0     C14757   4.246   3.978   2.714 -0.1721  0.8492 -0.0262
  110MOL0     C14758   4.233   4.128   2.725  0.1567  0.1409  0.3012
  110MOL0    Cl14759   4.257   4.166   2.907 -0.1158  0.2373  0.3333
  110MOL0     C14760   4.447   3.249   2.726 -0.0310 -0.1755  0.1765
  110MOL0     C14761   4.400   3.188   2.844 -0.5013  0.3032  0.0625
  110MOL0     O14762   4.473   3.285   3.264 -0.7166  0.9849 -1.0655
  110MOL0     C14763   4.330   3.125   3.448 -0.6783  0.0495  0.0512
  110MOL0     C14764   4.254   3.044   3.532  0.2567  0.1720 -0.7681
  110MOL0     N14765   3.960   2.371   3.746 -0.0833 -0.3475 -0.2253
  110MOL0     N14766   3.909   2.259   3.742  0.2181 -0.1513 -0.4516
  110MOL0     C14767   3.720   1.874   4.896  0.1099  0.0216  0.5805
  110MOL0     C14768   3.681   1.866   5.027 -1.0106  0.5212  0.3102
  110MOL0     C14769   3.502   1.997   5.424 -0.3525  0.3688  0.4897
  110MOL0     C14770   3.583   1.906   5.493  0.1701  0.6315  0.3558
  110MOL0     C14771   3.561   1.850   5.613  0.0807 -0.0848  0.5038
  110MOL0     C14772   3.449   1.898   5.689  0.0093  0.1539  0.0340
  110MOL0     O14773   3.412   1.859   5.814  0.5252 -0.1451  0.0322
  110MOL0     C14774   3.484   1.765   5.892 -1.0826 -0.7787  0.2179
  110MOL0     C14775   3.591   1.836   5.984  0.4498  0.3753 -0.4296
  110MOL0     C14776   3.689   1.730   6.048  0.8664 -0.6567  0.1501
  110MOL0     C14777   3.838   1.766   6.051  1.5384  0.1033  0.0561
  110MOL0     C14778   3.865   1.866   6.146  0.5091  0.1279  0.3709
  110MOL0     C14779   3.902   1.947   6.227 -0.0111  0.0205 -0.5929
  110MOL0     C14780   3.368   1.993   5.628 -0.6491  0.0697  0.7943
  110MOL0     C14781   3.385   2.038   5.496 -0.9350  0.6522  0.4894
  110MOL0     C14782   3.287   2.140   5.445  0.0203 -0.1881  0.3378
  110MOL0     H14783   3.709   2.194   5.097  3.1556  0.0587 -1.3703
  110MOL0     H14784   3.731   2.209   4.856 -2.4018  1.5747  4.5543
  110MOL0     H14785   3.630   1.907   4.582 -1.8390  1.3971  0.5788
  110MOL0     H14786   3.590   2.058   4.643  0.3155 -0.1201 -1.4058
  110MOL0     H14787   3.808   2.000   4.438 -1.8150 -4.9506  1.3604
  110MOL0     H14788   3.760   2.164   4.483  3.7906 -1.7028  5.5762
  110MOL0     H14789   3.528   2.117   4.403  1.6313  1.9133  1.5394
  110MOL0     H14790   3.574   1.958   4.359  0.9586  0.0062  0.2843
  110MOL0     H14791   3.544   2.112   4.173 -0.9837 -1.2521  2.6720
  110MOL0     H14792   3.677   2.213   4.220 -1.5437  1.1413 -0.1257
  110MOL0     H14793   3.817   1.994   4.197 -0.5969 -3.8180 -0.9320
  110MOL0     H14794   3.679   1.926   4.107 -0.1555  0.1658  1.7543
  110MOL0     H14795   3.795   2.196   4.011 -3.2300  1.2866  0.2671
  110MOL0     H14796   3.828   2.024   3.950  1.2392 -0.7642  1.5965
  110MOL0     H14797   3.566   2.190   3.945 -0.4918  0.0892  1.7950
  110MOL0     H14798   3.579   2.029   3.893 -1.3281  0.6150  0.2106
  110MOL0     H14799   3.725   2.079   3.711  0.3957  1.8388 -3.0539
  110MOL0     H14800   3.598   2.196   3.707  1.0668 -1.5177 -1.2258
  110MOL0     H14801   3.674   2.458   3.857  0.8109 -0.7970  1.2065
  110MOL0     H14802   3.796   2.671   3.834 -0.4583 -0.5632  0.7046
  110MOL0     H14803   3.929   2.599   3.938  3.2675  0.2481 -1.2700
  110MOL0     H14804   4.026   2.762   3.809 -1.5426 -0.7081  1.0918
  110MOL0     H14805   4.069   2.620   3.723  0.4827  1.6263 -1.3134
  110MOL0     H14806   3.847   2.815   3.660  2.0291  1.1188 -0.6569
  110MOL0     H14807   3.849   2.641   3.603  2.8691 -1.2688  0.0601
  110MOL0     H14808   3.938   2.793   3.428  1.3380  2.9331 -1.3372
  110MOL0     H14809   4.067   2.688   3.504  2.7363  0.5857  2.2839
  110MOL0     H14810   4.088   2.874   3.304  0.7539 -0.2661 -1.1299
  110MOL0     H14811   4.264   2.981   3.145  1.3549  6.6431 -1.8686
  110MOL0     H14812   4.621   3.365   3.052 -0.8600  0.0877  0.1024
  110MOL0     H14813   4.698   3.443   2.837 -0.0474 -0.0424 -1.3826
  110MOL0     H14814   4.517   3.606   2.688 -3.1285 -1.3832 -1.3730
  110MOL0     H14815   4.699   3.563   2.651 -0.0102 -2.1324 -0.9746
  110MOL0     H14816   4.629   3.743   2.488 -1.4634  1.2697 -0.5768
  110MOL0     H14817   4.657   3.577   2.432 -1.2480 -1.6852  0.1064
  110MOL0     H14818   4.463   3.564   2.345  3.2374  3.0533 -1.4361
  110MOL0     H14819   4.376   3.570   2.500  0.8736 -2.8208 -1.4065
  110MOL0     H14820   4.298   3.754   2.335 -0.0362  1.1605 -0.5213
  110MOL0     H14821   4.450   3.829   2.379  0.0042 -0.4779  0.8522
  110MOL0     H14822   4.414   3.782   2.623  1.9425 -0.0365 -1.5419
  110MOL0     H14823   4.239   3.738   2.578 -0.1016  0.3053 -0.6784
  110MOL0     H14824   4.376   4.014   2.533 -0.8349  0.7211 -2.9878
  110MOL0     H14825   4.204   3.969   2.512  1.0420  2.7217 -1.0284
  110MOL0     H14826   4.309   3.936   2.793  1.9365  0.9586 -1.5525
  110MOL0     H14827   4.150   3.931   2.733 -0.7740  2.1162  0.1880
  110MOL0     H14828   4.318   4.180   2.680  0.2729 -0.0062  0.3487
  110MOL0     H14829   4.139   4.170   2.688  0.8766  1.7084  0.1772
  110MOL0     H14830   4.396   3.219   2.635  1.1462 -0.0901 -0.5447
  110MOL0     H14831   4.317   3.118   2.843  1.8028 -2.6575 -0.5776
  110MOL0     H14832   4.370   3.216   3.490  0.5128 -0.6813  0.5501
  110MOL0     H14833   4.244   3.054   3.639  1.7958  1.2379 -0.6914
  110MOL0     H14834   3.747   1.778   4.854  0.6213  0.9393 -1.2563
  110MOL0     H14835   3.663   1.773   5.081 -2.3991  1.5252  1.6797
  110MOL0     H14836   3.679   1.877   5.451 -0.2216 -4.1561  2.1864
  110MOL0     H14837   3.626   1.775   5.657 -0.3474 -0.1634  1.0179
  110MOL0     H14838   3.536   1.688   5.835  1.3404 -0.0062  1.2379
  110MOL0     H14839   3.415   1.710   5.956 -0.4361  0.6066  2.2343
  110MOL0     H14840   3.553   1.886   6.072 -1.6021 -1.3425 -0.2651
  110MOL0     H14841   3.655   1.897   5.920  1.3906 -0.2928 -0.1552
  110MOL0     H14842   3.680   1.647   5.976 -3.0775 -0.9581  0.7739
  110MOL0     H14843   3.668   1.690   6.147  3.0942 -3.6712 -0.4571
  110MOL0     H14844   3.890   1.683   6.100  0.1796  1.2315  3.7507
  110MOL0     H14845   3.883   1.794   5.955  1.8501  0.5868  0.3405
  110MOL0     H14846   3.936   2.032   6.281  0.1300  1.0095 -2.1755
  110MOL0     H14847   3.283   2.029   5.684 -1.0436 -0.9882  0.8886
  110MOL0     H14848   3.339   2.227   5.403 -1.2485  0.6737  0.5073
  110MOL0     H14849   3.238   2.083   5.366 -1.4664  3.0421 -1.2943
  110MOL0     H14850   3.227   2.165   5.533  2.8589 -2.5158  3.1784
  111MOL0     O14851   4.376   6.262   2.263 -0.6341  0.3147  0.4321
  111MOL0     C14852   4.383   6.146   2.212  0.4336  0.6023 -0.3877
  111MOL0     O14853   4.487   6.055   2.223 -0.2335 -0.6489  0.5540
  111MOL0     C14854   4.549   6.031   2.344 -0.2967 -0.3352 -1.0431
  111MOL0     C14855   4.559   6.123   2.459  0.1771  0.2135  0.1724
  111MOL0     C14856   4.630   6.075   2.568 -0.9683 -0.0557  0.1210
  111MOL0     C14857   4.677   5.949   2.585  0.1498  0.3348 -0.9706
  111MOL0     O14858   4.703   5.904   2.713  0.5722 -0.1900 -0.0720
  111MOL0     C14859   4.757   5.777   2.762 -0.2326 -0.8681  0.0837
  111MOL0     C14860   4.630   5.707   2.814 -0.2582 -0.4842  0.5647
  111MOL0     C14861   4.629   5.557   2.822 -0.2393 -0.4056  0.5788
  111MOL0     C14862   4.501   5.519   2.901  0.7397  0.1382  0.3199
  111MOL0     C14863   4.409   5.457   2.797  1.1308 -0.1683 -0.7990
  111MOL0     C14864   4.285   5.393   2.860  0.3216  0.4599  0.0858
  111MOL0     C14865   4.289   5.276   2.961 -0.0400 -0.2497 -0.6655
  111MOL0     C14866   4.409   5.178   2.929  0.9265 -0.5648 -0.6860
  111MOL0     N14867   4.416   5.063   3.018  0.6088  0.1308  0.8746
  111MOL0     C14868   4.400   4.933   2.975  0.4659 -0.1495 -0.1836
  111MOL0     C14869   4.480   4.854   3.050  0.5931  0.5687  0.3138
  111MOL0     C14870   4.499   4.705   3.015 -0.7902 -1.0116 -0.2098
  111MOL0     C14871   4.371   4.640   2.970  0.0266  0.0669  0.9693
  111MOL0     C14872   4.381   4.487   2.951 -0.4729 -0.0892 -0.0803
  111MOL0     C14873   4.499   4.433   2.857  0.3389 -0.3372 -0.4795
  111MOL0     O14874   4.492   4.497   2.727  0.6818  0.4814  0.5594
  111MOL0     C14875   4.415   4.435   2.629 -0.4304 -0.1923 -0.6471
  111MOL0     C14876   4.277   4.446   2.617 -0.1660  0.9648 -0.5878
  111MOL0     C14877   4.212   4.377   2.514 -0.6033  0.0285  0.2698
  111MOL0     C14878   4.284   4.297   2.421  0.2366  0.3157  0.1816
  111MOL0     C14879   4.218   4.224   2.314 -1.4166 -0.0349 -0.0066
  111MOL0     O14880   4.275   4.241   2.193  0.0454  0.5431  0.8868
  111MOL0     C14881   4.250   4.149   2.095 -0.0604 -0.0354 -0.4277
  111MOL0     C14882   4.280   4.010   2.120  0.1186 -0.2354  0.0695
  111MOL0     C14883   4.247   3.913   2.023  0.9179  0.7804 -0.2573
  111MOL0     C14884   4.192   3.949   1.894  0.6255 -0.2204  0.3795
  111MOL0     O14885   4.154   3.846   1.807 -0.0111 -0.2142  0.4946
  111MOL0     C14886   4.269   3.774   1.748 -0.2125  0.8934 -0.1496
  111MOL0     C14887   4.234   3.722   1.604  0.8114 -0.5008  0.2441
  111MOL0     C14888   4.228   3.832   1.496  0.1652 -0.5273 -0.0465
  111MOL0     C14889   4.109   3.831   1.406  0.3133  0.6288  0.9195
  111MOL0     C14890   4.132   3.905   1.277 -0.3269 -0.2945 -0.2298
  111MOL0     C14891   4.034   3.876   1.168 -0.9544  0.8262  0.3390
  111MOL0     C14892   4.049   3.985   1.054 -0.0553 -0.3134 -0.3908
  111MOL0     C14893   3.924   3.996   0.966 -0.5897 -0.1598 -1.0848
  111MOL0    Cl14894   3.772   4.025   1.066 -0.1091 -0.0533 -0.5761
  111MOL0     C14895   4.166   4.091   1.869  0.5888  0.8753 -0.4680
  111MOL0     C14896   4.192   4.181   1.974  0.3132  0.1703 -1.3642
  111MOL0     O14897   4.123   4.153   2.338 -0.7844  0.2238 -0.9447
  111MOL0     C14898   4.429   4.279   2.439  0.3925  0.1596 -0.0048
  111MOL0     C14899   4.488   4.347   2.552  0.8426  0.8334 -0.1193
  111MOL0     N14900   4.532   4.941   3.153  0.4619  0.4098 -0.6570
  111MOL0     N14901   4.497   5.060   3.125  0.1911  0.3076  0.5800
  111MOL0     C14902   4.683   5.867   2.474 -0.0837  0.2335  0.0017
  111MOL0     C14903   4.621   5.908   2.354 -0.1212  0.5435  0.1392
  111MOL0     C14904   4.285   6.123   2.105 -0.2201 -1.0609  0.4866
  111MOL0     C14905   4.193   6.229   2.064 -1.2514 -1.1092 -0.1369
  111MOL0     C14906   4.116   6.221   1.951  0.8228 -0.3536 -1.0520
  111MOL0     C14907   4.124   6.110   1.870  0.1065  0.2640  0.6071
  111MOL0     O14908   4.032   6.098   1.761 -0.1510 -0.4305 -1.0681
  111MOL0     C14909   3.985   5.975   1.707 -0.4422  0.6483 -0.2686
  111MOL0     C14910   3.881   5.914   1.813  0.5002  0.2808  0.4550
  111MOL0     C14911   3.820   5.798   1.732  0.1747  1.0946  0.5808
  111MOL0     C14912   3.749   5.692   1.817  1.2390 -0.5321  0.1625
  111MOL0     C14913   3.624   5.736   1.872 -0.8642 -0.4237  1.0965
  111MOL0     C14914   3.515   5.740   1.929 -0.7243  0.1572  0.4412
  111MOL0     C14915   4.214   6.012   1.904  0.5088 -0.8652 -0.1922
  111MOL0     C14916   4.293   6.012   2.019  0.1715 -0.3716  0.1951
  111MOL0     C14917   4.380   5.889   2.037 -0.6168  0.9539  0.3471
  111MOL0     H14918   4.507   6.219   2.460  2.3027  1.4378 -0.6157
  111MOL0     H14919   4.638   6.138   2.656  2.5950 -1.8669  1.2833
  111MOL0     H14920   4.812   5.725   2.682  2.8708 -0.4819  1.7757
  111MOL0     H14921   4.826   5.783   2.847  1.5054 -1.3127 -1.2376
  111MOL0     H14922   4.548   5.741   2.751  2.8267 -1.4505 -4.6127
  111MOL0     H14923   4.613   5.744   2.915 -0.4760 -1.0208  0.7315
  111MOL0     H14924   4.711   5.512   2.878 -1.0456 -2.8999 -0.1117
  111MOL0     H14925   4.631   5.534   2.715  1.1543  1.1753  0.2330
  111MOL0     H14926   4.529   5.438   2.968  0.4789 -1.8628 -1.8468
  111MOL0     H14927   4.443   5.595   2.954 -1.1620  0.0792 -1.5310
  111MOL0     H14928   4.384   5.531   2.720  2.1720 -1.1774 -2.1604
  111MOL0     H14929   4.462   5.380   2.740 -1.4850 -0.4675 -3.0274
  111MOL0     H14930   4.220   5.467   2.908 -0.9132 -1.4753  1.5879
  111MOL0     H14931   4.226   5.353   2.777 -1.2614 -2.2704  2.3214
  111MOL0     H14932   4.193   5.222   2.957 -1.0632  1.5476 -1.3982
  111MOL0     H14933   4.285   5.319   3.061  0.9558 -2.5483  0.4376
  111MOL0     H14934   4.421   5.150   2.824  3.2634 -0.1648 -0.5742
  111MOL0     H14935   4.501   5.236   2.937  0.7082 -0.4718  2.1977
  111MOL0     H14936   4.345   4.914   2.884 -2.5915  1.0111  1.2999
  111MOL0     H14937   4.565   4.706   2.927 -0.1699 -1.4542  0.2397
  111MOL0     H14938   4.542   4.649   3.098 -1.0603  0.2873  0.8274
  111MOL0     H14939   4.295   4.666   3.045 -1.5325 -0.1446 -0.4963
  111MOL0     H14940   4.339   4.678   2.873  1.1540  2.7331  1.5446
  111MOL0     H14941   4.288   4.454   2.905  0.6113 -2.1953 -0.8854
  111MOL0     H14942   4.404   4.427   3.039  2.8014 -2.9880 -2.5989
  111MOL0     H14943   4.478   4.326   2.851 -4.1088  0.3322 -0.4623
  111MOL0     H14944   4.596   4.454   2.904  0.0493  0.8069 -0.3732
  111MOL0     H14945   4.223   4.499   2.695  1.4694  0.3008  1.0781
  111MOL0     H14946   4.104   4.372   2.512 -0.7115 -3.9312  3.0351
  111MOL0     H14947   4.307   3.974   2.219 -1.5365 -0.7972  0.3460
  111MOL0     H14948   4.245   3.807   2.048 -0.2447  1.6200  3.9476
  111MOL0     H14949   4.361   3.832   1.755  1.5253 -1.3960 -2.2633
  111MOL0     H14950   4.285   3.680   1.802  2.3379  1.0814 -0.4457
  111MOL0     H14951   4.299   3.639   1.574 -1.4688 -2.1533 -0.4083
  111MOL0     H14952   4.136   3.674   1.607  1.4169 -1.8838 -0.9820
  111MOL0     H14953   4.250   3.924   1.551  4.2796 -0.3526 -1.6345
  111MOL0     H14954   4.315   3.805   1.435 -0.6723 -1.1689 -0.9728
  111MOL0     H14955   4.022   3.878   1.453 -2.1397 -1.9560 -0.6937
  111MOL0     H14956   4.085   3.727   1.381 -0.5563  0.5843  1.9147
  111MOL0     H14957   4.232   3.878   1.241 -1.0795 -0.5912 -2.2423
  111MOL0     H14958   4.125   4.009   1.311 -0.2208 -0.3114 -0.1529
  111MOL0     H14959   4.046   3.771   1.140  0.3673  0.3989  2.2495
  111MOL0     H14960   3.937   3.892   1.216 -1.5124  0.5476 -0.6699
  111MOL0     H14961   4.132   3.965   0.985 -2.0495 -3.7426 -2.0360
  111MOL0     H14962   4.062   4.083   1.102 -0.5664  0.3962 -1.6394
  111MOL0     H14963   3.933   4.090   0.912  2.7471  0.6873  0.6858
  111MOL0     H14964   3.907   3.904   0.909  0.7228 -2.0497  1.3765
  111MOL0     H14965   4.114   4.117   1.776 -0.3536 -0.0581 -0.2195
  111MOL0     H14966   4.173   4.287   1.958 -1.6063 -0.0655 -0.8036
  111MOL0     H14967   4.489   4.216   2.374 -1.9254 -2.6609  0.3844
  111MOL0     H14968   4.596   4.340   2.565  0.4849 -2.0620  2.3802
  111MOL0     H14969   4.738   5.774   2.484  1.3036  1.1061  0.8492
  111MOL0     H14970   4.623   5.847   2.264  3.2113  1.7398 -0.7545
  111MOL0     H14971   4.198   6.330   2.103  4.6052  0.2913 -3.3720
  111MOL0     H14972   4.039   6.295   1.929  0.1684 -1.6335 -3.4293
  111MOL0     H14973   4.067   5.903   1.697  0.6944  1.5379  1.9377
  111MOL0     H14974   3.925   5.992   1.618  0.6138  2.7262 -0.6514
  111MOL0     H14975   3.810   5.986   1.856 -0.6463  0.7545 -2.0425
  111MOL0     H14976   3.943   5.870   1.891  0.5010 -2.0847 -0.8026
  111MOL0     H14977   3.891   5.745   1.667 -2.7306 -0.5463 -1.5113
  111MOL0     H14978   3.747   5.820   1.654  0.8064 -0.1935 -0.4113
  111MOL0     H14979   3.724   5.606   1.753 -1.2273  0.2077  0.0209
  111MOL0     H14980   3.809   5.669   1.906  1.8343  2.7201  0.7004
  111MOL0     H14981   3.437   5.731   2.002  1.5162  0.5537  3.0550
  111MOL0     H14982   4.217   5.934   1.828  1.7267 -0.8722 -0.1517
  111MOL0     H14983   4.484   5.920   2.027  0.2019 -2.0596 -1.9279
  111MOL0     H14984   4.357   5.825   2.123 -1.7818 -1.2380 -1.4741
  111MOL0     H14985   4.364   5.833   1.944 -2.0066  0.8606  0.6204
  112MOL0     O14986   5.850   5.292   2.306 -0.3834  0.6510  0.0638
  112MOL0     C14987   5.969   5.316   2.312 -0.1233 -0.9150  0.1733
  112MOL0     O14988   6.056   5.253   2.394  0.2403  0.8245 -0.1585
  112MOL0     C14989   6.024   5.183   2.510  0.5044 -0.8313  0.2858
  112MOL0     C14990   5.893   5.142   2.555  0.2186  1.0328 -0.8671
  112MOL0     C14991   5.883   5.052   2.664 -0.0713 -0.0085  0.0463
  112MOL0     C14992   5.997   5.001   2.739  0.7918 -0.8354  0.4133
  112MOL0     O14993   5.979   4.919   2.848  0.0262  0.7317 -0.1491
  112MOL0     C14994   6.056   4.956   2.967 -0.0089  0.5082  0.2200
  112MOL0     C14995   6.153   4.851   3.001  0.3097  0.4049 -0.0451
  112MOL0     C14996   6.119   4.724   3.089 -0.2668 -0.1960 -1.0197
  112MOL0     C14997   6.069   4.744   3.227 -0.2516 -0.4518 -1.2171
  112MOL0     C14998   6.171   4.817   3.310 -0.4538 -0.3797 -0.3977
  112MOL0     C14999   6.157   4.960   3.327  0.2332  0.2880 -0.5305
  112MOL0     C15000   6.023   5.007   3.392  0.2606  0.8946  0.4171
  112MOL0     C15001   6.033   5.016   3.547 -0.1090 -0.6140 -0.4252
  112MOL0     N15002   5.913   5.059   3.605  0.2093  0.5639  0.3505
  112MOL0     C15003   5.801   4.980   3.611 -0.6320 -0.1650  0.4182
  112MOL0     C15004   5.698   5.075   3.639 -0.3473  0.0899  0.0770
  112MOL0     C15005   5.550   5.024   3.640 -0.3276 -0.5622 -0.1227
  112MOL0     C15006   5.522   4.883   3.673 -1.1043 -1.1529  0.3011
  112MOL0     C15007   5.547   4.863   3.826 -0.3501  0.9567  0.4961
  112MOL0     C15008   5.492   4.726   3.875  0.2091  0.5637 -0.1005
  112MOL0     O15009   5.539   4.616   3.786 -0.0157 -0.1103 -0.1450
  112MOL0     C15010   5.456   4.544   3.698 -0.2990 -0.2166 -0.0132
  112MOL0     C15011   5.318   4.561   3.672 -0.3442 -1.0229  0.0829
  112MOL0     C15012   5.253   4.502   3.565  0.1228 -0.8925 -1.0697
  112MOL0     C15013   5.323   4.411   3.482  0.2577  0.4601 -1.1265
  112MOL0     C15014   5.256   4.352   3.363 -0.1790 -1.3688 -0.7876
  112MOL0     O15015   5.126   4.398   3.353  0.5222  0.2262 -0.1798
  112MOL0     C15016   5.033   4.355   3.254 -0.1897  0.8650 -0.1764
  112MOL0     C15017   5.023   4.231   3.186  0.6409  0.7599  0.8077
  112MOL0     C15018   4.933   4.207   3.076  0.5363  0.9228  0.5468
  112MOL0     C15019   4.822   4.290   3.059 -0.9732  0.6061 -0.2182
  112MOL0     O15020   4.727   4.267   2.965 -0.1251  0.1743 -0.1995
  112MOL0     C15021   4.725   4.137   2.895 -0.8209  0.4178  0.9181
  112MOL0     C15022   4.671   4.033   2.998  0.5043 -0.1430 -0.6398
  112MOL0     C15023   4.627   3.909   2.949  0.0080 -0.4246  1.0518
  112MOL0     C15024   4.562   3.833   3.073  0.6203  0.9888  0.9772
  112MOL0     C15025   4.527   3.688   3.046 -1.1004 -0.4363  0.1620
  112MOL0     C15026   4.388   3.685   2.987 -0.5781  0.1476 -0.0020
  112MOL0     C15027   4.311   3.556   3.005  0.4669 -0.1791 -0.8621
  112MOL0     C15028   4.247   3.503   2.874  0.5936  0.4251 -1.1556
  112MOL0    Cl15029   4.122   3.629   2.825 -0.0814 -0.1979 -0.1026
  112MOL0     C15030   4.815   4.406   3.145 -0.1625  1.4549  0.6357
  112MOL0     C15031   4.920   4.436   3.235  0.3480  0.2691  0.5750
  112MOL0     O15032   5.317   4.288   3.279  0.4958  0.8514 -0.1172
  112MOL0     C15033   5.453   4.376   3.525 -0.1110 -0.4706  1.1246
  112MOL0     C15034   5.515   4.442   3.630  0.0628 -0.5541  0.3008
  112MOL0     N15035   5.743   5.201   3.619 -0.0303  0.4660 -0.0295
  112MOL0     N15036   5.870   5.188   3.603  0.9687 -0.2515 -0.3464
  112MOL0     C15037   6.122   5.050   2.697  0.4968  0.7245  0.7322
  112MOL0     C15038   6.134   5.140   2.589  0.0356  0.6765  0.0563
  112MOL0     C15039   6.027   5.420   2.222  0.0453 -0.5949 -0.0492
  112MOL0     C15040   5.946   5.515   2.165 -0.0020 -0.0344 -1.0944
  112MOL0     C15041   5.990   5.623   2.088  0.1849 -0.6240  0.1263
  112MOL0     C15042   6.126   5.639   2.062  0.1299 -0.1363 -0.3564
  112MOL0     O15043   6.166   5.740   1.983  1.2617 -0.4225  0.1775
  112MOL0     C15044   6.284   5.729   1.908  0.5382 -0.0630 -1.2987
  112MOL0     C15045   6.270   5.645   1.787 -0.4936  0.7226  0.7885
  112MOL0     C15046   6.144   5.660   1.690 -0.2479 -0.3143  0.1982
  112MOL0     C15047   6.124   5.806   1.619 -0.0442 -0.1126  0.9835
  112MOL0     C15048   6.176   5.804   1.480 -0.4352 -0.0840  0.8842
  112MOL0     C15049   6.221   5.819   1.366  0.2761  0.0127 -0.3764
  112MOL0     C15050   6.205   5.538   2.106 -0.2808  0.6883  0.0157
  112MOL0     C15051   6.167   5.430   2.190  0.9059 -0.1448  0.6648
  112MOL0     C15052   6.265   5.327   2.226 -0.1494 -0.5442  0.4336
  112MOL0     H15053   5.804   5.147   2.492  0.2178  1.2575 -0.8472
  112MOL0     H15054   5.788   5.012   2.698  0.7326 -0.6241  1.6623
  112MOL0     H15055   6.121   5.041   2.945 -0.9657  2.1425  3.1257
  112MOL0     H15056   5.985   4.992   3.042 -1.3266  0.1823 -0.8358
  112MOL0     H15057   6.239   4.905   3.042 -1.3967  4.0124 -0.8385
  112MOL0     H15058   6.178   4.824   2.898 -3.0193 -0.2492 -0.7952
  112MOL0     H15059   6.216   4.675   3.101  0.2387  1.1094  0.5122
  112MOL0     H15060   6.051   4.660   3.032 -0.9444  2.6759 -3.6815
  112MOL0     H15061   5.970   4.790   3.221  0.5460  1.2314 -1.8513
  112MOL0     H15062   6.054   4.650   3.281 -2.6137 -0.1869 -1.2952
  112MOL0     H15063   6.166   4.779   3.412  1.4966  1.6616  0.5649
  112MOL0     H15064   6.274   4.787   3.285  0.2033 -1.2492  2.8906
  112MOL0     H15065   6.240   5.000   3.387 -1.6261  2.4794  0.7643
  112MOL0     H15066   6.168   5.004   3.228  1.0468 -1.4163 -1.2414
  112MOL0     H15067   5.933   4.954   3.360 -0.3511 -0.2577  3.7411
  112MOL0     H15068   6.011   5.105   3.343 -1.6461 -0.4593 -2.0998
  112MOL0     H15069   6.065   4.922   3.593 -3.5807 -1.2215  1.0467
  112MOL0     H15070   6.113   5.087   3.568 -1.6096  1.4899 -1.4340
  112MOL0     H15071   5.806   4.874   3.591  0.0258  0.1145 -1.0001
  112MOL0     H15072   5.497   5.095   3.705 -0.1898  0.3727 -1.0186
  112MOL0     H15073   5.508   5.042   3.541 -0.2791  1.5146  0.1896
  112MOL0     H15074   5.418   4.857   3.655 -0.6817 -1.9403 -1.0880
  112MOL0     H15075   5.585   4.824   3.606 -1.3399 -2.5132  1.2480
  112MOL0     H15076   5.517   4.951   3.885 -1.3368  0.4947  0.7141
  112MOL0     H15077   5.656   4.863   3.833 -0.1272  3.2507 -1.5131
  112MOL0     H15078   5.383   4.728   3.883 -0.2644 -4.6383 -1.4477
  112MOL0     H15079   5.535   4.705   3.974  0.9241 -2.8809 -1.0033
  112MOL0     H15080   5.261   4.639   3.722  3.6909  0.2994  3.1523
  112MOL0     H15081   5.150   4.530   3.548 -0.7064 -3.0441 -0.0096
  112MOL0     H15082   5.098   4.153   3.195 -1.2852 -1.1260  1.3268
  112MOL0     H15083   4.941   4.113   3.024 -0.1160  0.0185  2.0152
  112MOL0     H15084   4.662   4.140   2.806 -1.6332  1.2301  1.4910
  112MOL0     H15085   4.824   4.107   2.860 -2.1202 -1.1534 -1.6815
  112MOL0     H15086   4.752   4.015   3.069 -1.7925 -0.2121  2.1307
  112MOL0     H15087   4.595   4.082   3.060  0.9222 -0.5411  0.2016
  112MOL0     H15088   4.562   3.905   2.861  0.0838  0.6980  0.9218
  112MOL0     H15089   4.708   3.844   2.917  0.4060  0.7553 -0.4557
  112MOL0     H15090   4.476   3.887   3.115 -0.6129  0.1379 -0.3519
  112MOL0     H15091   4.635   3.829   3.154 -0.3525 -0.1689  1.8271
  112MOL0     H15092   4.519   3.634   3.140  3.5320 -2.5749 -0.4063
  112MOL0     H15093   4.599   3.633   2.985  0.5970  1.9108 -0.0958
  112MOL0     H15094   4.330   3.768   3.027 -2.7446 -1.0878 -0.4554
  112MOL0     H15095   4.404   3.712   2.882 -0.3135  0.8682  0.2158
  112MOL0     H15096   4.231   3.591   3.070  0.0901 -0.2598 -1.2801
  112MOL0     H15097   4.363   3.477   3.061  2.5541  2.2205  0.8154
  112MOL0     H15098   4.320   3.485   2.794  0.6837  1.4048 -1.3039
  112MOL0     H15099   4.196   3.407   2.886  3.0871 -0.8057  0.5414
  112MOL0     H15100   4.745   4.488   3.136 -0.6802  1.1882  2.0335
  112MOL0     H15101   4.916   4.527   3.295  2.4609  2.0021 -1.6727
  112MOL0     H15102   5.506   4.296   3.474 -1.0648  0.0774 -0.8166
  112MOL0     H15103   5.619   4.434   3.659  0.5173 -1.9505 -1.5103
  112MOL0     H15104   6.215   5.025   2.746  1.2938 -2.3777 -2.0078
  112MOL0     H15105   6.237   5.165   2.564  0.2008  0.1907  0.2326
  112MOL0     H15106   5.842   5.503   2.194  0.6134 -0.6337  1.0132
  112MOL0     H15107   5.921   5.694   2.044  1.1314  1.9264  2.4619
  112MOL0     H15108   6.367   5.697   1.973 -0.3427  1.4140  0.6508
  112MOL0     H15109   6.312   5.832   1.884  2.1316 -0.3104 -0.6503
  112MOL0     H15110   6.276   5.539   1.813 -2.2311  0.6161  0.8989
  112MOL0     H15111   6.358   5.669   1.726 -0.3897  0.9824  1.0373
  112MOL0     H15112   6.056   5.635   1.751 -2.0011 -3.0936 -3.1238
  112MOL0     H15113   6.165   5.587   1.612  1.6523  0.2929  0.0978
  112MOL0     H15114   6.016   5.816   1.605 -0.3837 -0.3248  3.0621
  112MOL0     H15115   6.168   5.885   1.681 -0.3532  1.7644 -1.0282
  112MOL0     H15116   6.252   5.825   1.263  1.5104  2.3779  0.0492
  112MOL0     H15117   6.311   5.529   2.084 -0.3095  0.8374 -0.1833
  112MOL0     H15118   6.227   5.229   2.195  1.9382 -1.0768 -0.5880
  112MOL0     H15119   6.363   5.344   2.181 -0.4322 -1.5687 -0.6299
  112MOL0     H15120   6.285   5.329   2.333 -1.0544 -1.3329  0.6329
  113MOL0     O15121   1.688  11.448   2.352 -0.1833  0.2260  0.3632
  113MOL0     C15122   1.775  11.483   2.273 -0.3233 -1.0483 -0.2976
  113MOL0     O15123   1.851  11.408   2.189 -0.5694 -0.3120  0.1448
  113MOL0     C15124   1.835  11.274   2.204 -0.0085 -0.1889  0.7163
  113MOL0     C15125   1.937  11.190   2.259 -1.7135 -0.4891  0.8169
  113MOL0     C15126   1.918  11.052   2.264  0.3505  0.0038  0.5991
  113MOL0     C15127   1.800  10.991   2.215 -0.4511 -0.4836  0.5433
  113MOL0     O15128   1.776  10.856   2.224 -0.0730 -0.1968  1.1163
  113MOL0     C15129   1.681  10.822   2.328 -0.5084  0.2669  0.1364
  113MOL0     C15130   1.709  10.883   2.469  0.2737  0.8404  0.0076
  113MOL0     C15131   1.829  10.825   2.529 -0.1902  0.0007  0.3399
  113MOL0     C15132   1.825  10.861   2.677  0.9146  1.1935 -0.5466
  113MOL0     C15133   1.870  11.005   2.694 -0.2810 -0.7616  0.9423
  113MOL0     C15134   1.850  11.053   2.834  0.4028  0.0678  0.5681
  113MOL0     C15135   1.946  10.992   2.934 -0.7877 -0.0881 -0.0761
  113MOL0     C15136   1.957  11.080   3.060 -0.0631 -0.1703 -0.3909
  113MOL0     N15137   2.062  11.169   3.030 -0.7435 -0.0526  0.7296
  113MOL0     C15138   2.051  11.308   3.019  0.8951  0.8610 -0.0126
  113MOL0     C15139   2.174  11.356   3.041  0.4493 -0.7864 -0.0151
  113MOL0     C15140   2.201  11.508   3.039 -0.0149  0.2998  0.1631
  113MOL0     C15141   2.353  11.535   3.081  0.8057  0.2934  1.0842
  113MOL0     C15142   2.401  11.692   3.060 -0.0269  0.4579  0.0598
  113MOL0     C15143   2.401  11.720   2.909  0.1415 -0.3476 -0.5925
  113MOL0     O15144   2.484  11.826   2.877  0.3798 -0.0817  0.5896
  113MOL0     C15145   2.620  11.803   2.878  0.5137 -0.8602  0.7305
  113MOL0     C15146   2.681  11.679   2.896  1.5032 -0.5716  0.8192
  113MOL0     C15147   2.822  11.678   2.915  1.6642 -0.1017 -0.2260
  113MOL0     C15148   2.895  11.798   2.905 -0.5357  0.2282  0.8586
  113MOL0     C15149   3.039  11.794   2.928 -0.2358 -1.3936 -0.0043
  113MOL0     O15150   3.092  11.907   2.987 -0.9292  0.5316  0.2854
  113MOL0     C15151   3.220  11.890   3.033  0.1687 -0.7250  0.6200
  113MOL0     C15152   3.222  11.816   3.154  0.7986  0.1120  0.6405
  113MOL0     C15153   3.344  11.773   3.211  0.0068 -0.0263  0.2245
  113MOL0     C15154   3.470  11.811   3.163  0.1439 -0.4797  0.2538
  113MOL0     O15155   3.584  11.787   3.238  0.7599  0.6490 -0.2365
  113MOL0     C15156   3.692  11.735   3.166 -0.4991  0.4977 -0.4205
  113MOL0     C15157   3.830  11.747   3.245  0.3264  0.5327 -0.2281
  113MOL0     C15158   3.949  11.668   3.182 -0.7232 -1.0005 -0.6082
  113MOL0     C15159   4.056  11.621   3.279  0.1151  0.9499  0.4130
  113MOL0     C15160   4.122  11.725   3.368 -0.2480 -0.2211  0.1720
  113MOL0     C15161   4.214  11.674   3.467  0.6509  0.9490 -0.0414
  113MOL0     C15162   4.357  11.654   3.411 -0.5892  0.8604  0.5415
  113MOL0     C15163   4.454  11.596   3.511 -0.5375 -0.2509  0.8949
  113MOL0    Cl15164   4.413  11.442   3.588  0.2243  0.1678 -0.3963
  113MOL0     C15165   3.467  11.887   3.041 -0.1796 -0.6342 -0.4942
  113MOL0     C15166   3.343  11.924   2.973  0.0824 -0.3860 -0.0701
  113MOL0     O15167   3.094  11.691   2.903  0.3290 -0.4191  0.3329
  113MOL0     C15168   2.832  11.918   2.885 -0.1900  0.6353 -0.1047
  113MOL0     C15169   2.693  11.919   2.868  0.3654  0.2576  0.7766
  113MOL0     N15170   2.262  11.251   3.057  0.4149  0.0009  0.1906
  113MOL0     N15171   2.195  11.143   3.057  0.0873  0.8191  0.7894
  113MOL0     C15172   1.703  11.075   2.159  0.6989  0.7303  0.2619
  113MOL0     C15173   1.718  11.215   2.156  0.6008 -0.5748 -0.2046
  113MOL0     C15174   1.800  11.633   2.271 -0.3045 -0.5619  0.1473
  113MOL0     C15175   1.685  11.714   2.298  0.5189  0.1820 -0.5006
  113MOL0     C15176   1.684  11.848   2.289  0.5845  0.1734  0.0150
  113MOL0     C15177   1.800  11.914   2.253 -0.0909 -0.2735  0.2321
  113MOL0     O15178   1.820  12.042   2.227  0.6549 -0.3109 -0.7881
  113MOL0     C15179   1.710  12.122   2.183  0.1474 -0.0164 -0.9164
  113MOL0     C15180   1.763  12.241   2.117  0.5249  0.0179  0.4200
  113MOL0     C15181   1.825  12.357   2.203  0.5157 -0.0029  0.9359
  113MOL0     C15182   1.860  12.485   2.105  0.4007 -0.1359 -0.2053
  113MOL0     C15183   1.759  12.588   2.118  0.3621  0.3292 -0.5820
  113MOL0     C15184   1.685  12.677   2.129  1.3661 -0.4418 -0.2559
  113MOL0     C15185   1.923  11.841   2.230  0.7368  0.0067 -0.7384
  113MOL0     C15186   1.915  11.702   2.225 -0.9106  0.4470  0.0502
  113MOL0     C15187   2.045  11.635   2.184  0.8114 -0.0689  0.3039
  113MOL0     H15188   2.038  11.223   2.284 -1.9614  0.4429  0.6270
  113MOL0     H15189   2.000  11.003   2.316  2.5043  2.3883 -0.3499
  113MOL0     H15190   1.582  10.849   2.292 -1.9620 -1.0681  2.8620
  113MOL0     H15191   1.676  10.714   2.343  1.4259  0.0544 -0.4356
  113MOL0     H15192   1.619  10.877   2.530  0.6269  3.4209  0.9148
  113MOL0     H15193   1.731  10.988   2.449  1.0033  0.7407  0.2359
  113MOL0     H15194   1.922  10.863   2.485 -0.2135  0.0283  0.3150
  113MOL0     H15195   1.819  10.716   2.528  0.0402 -0.0628  2.2111
  113MOL0     H15196   1.729  10.834   2.722  0.4314  0.5526 -1.8847
  113MOL0     H15197   1.901  10.795   2.721 -0.7814 -0.4464  0.0294
  113MOL0     H15198   1.972  11.016   2.656 -1.1749  0.5981 -1.2502
  113MOL0     H15199   1.808  11.074   2.636 -0.0005 -0.9496  0.4156
  113MOL0     H15200   1.856  11.162   2.830 -2.7526  0.3654  0.9592
  113MOL0     H15201   1.750  11.030   2.872  0.0143 -2.9124 -1.8446
  113MOL0     H15202   2.045  10.974   2.889 -1.8070 -1.2961 -1.9921
  113MOL0     H15203   1.909  10.895   2.968  0.0646 -0.2409  0.4598
  113MOL0     H15204   1.871  11.143   3.084 -1.1813  0.0096 -4.2987
  113MOL0     H15205   1.991  11.028   3.150 -2.0549  2.3809  2.0412
  113MOL0     H15206   1.957  11.360   3.003  0.2540 -0.9057 -2.5644
  113MOL0     H15207   2.187  11.551   2.939  0.2806  4.4753  1.7089
  113MOL0     H15208   2.121  11.564   3.089 -1.4991 -0.5530 -1.1451
  113MOL0     H15209   2.350  11.514   3.188 -1.7517 -1.6297  0.7081
  113MOL0     H15210   2.425  11.473   3.026  1.5934 -0.0841  2.4905
  113MOL0     H15211   2.504  11.705   3.097 -0.7410  0.1881  2.3058
  113MOL0     H15212   2.343  11.760   3.123  1.2281 -0.5778  2.5001
  113MOL0     H15213   2.298  11.742   2.880  0.2678  1.8555  0.4483
  113MOL0     H15214   2.433  11.639   2.842 -1.5877 -2.4428  0.9336
  113MOL0     H15215   2.633  11.583   2.915  4.0307 -2.0997  0.0399
  113MOL0     H15216   2.868  11.585   2.947  0.0878 -0.3633  1.4565
  113MOL0     H15217   3.126  11.776   3.183 -0.0321 -0.3134 -2.3629
  113MOL0     H15218   3.346  11.705   3.295  1.0443 -1.0980 -0.6432
  113MOL0     H15219   3.668  11.631   3.144 -0.3303 -0.0680  1.8153
  113MOL0     H15220   3.718  11.785   3.072  1.9674 -2.4087 -1.4436
  113MOL0     H15221   3.862  11.851   3.249  1.7495  0.1546 -1.0968
  113MOL0     H15222   3.827  11.707   3.347 -1.1826 -1.1656 -0.8805
  113MOL0     H15223   3.918  11.579   3.126  4.2247 -1.3309 -3.4896
  113MOL0     H15224   3.995  11.725   3.100  0.0266  1.6000  1.4828
  113MOL0     H15225   4.130  11.567   3.220 -1.2962 -1.8495  1.0134
  113MOL0     H15226   4.003  11.549   3.342  1.5748 -0.7374 -0.2168
  113MOL0     H15227   4.045  11.789   3.411 -1.2026  0.7708 -2.7926
  113MOL0     H15228   4.178  11.793   3.304  0.3265  0.4233  1.3166
  113MOL0     H15229   4.214  11.748   3.548  1.0198  3.1027 -1.8944
  113MOL0     H15230   4.181  11.573   3.492 -0.3958  1.2787 -0.0470
  113MOL0     H15231   4.389  11.754   3.382 -0.0165  0.7554  0.7961
  113MOL0     H15232   4.352  11.591   3.322  0.4637 -0.9558  1.7108
  113MOL0     H15233   4.553  11.604   3.465 -2.2892  1.9311 -3.0248
  113MOL0     H15234   4.455  11.677   3.585  0.7856  0.0781  0.5575
  113MOL0     H15235   3.559  11.938   3.013  0.4864  0.0889  2.6410
  113MOL0     H15236   3.351  11.991   2.888 -0.2874  0.0960  0.2681
  113MOL0     H15237   2.891  12.008   2.890  0.8885  0.3615 -4.1532
  113MOL0     H15238   2.641  12.012   2.847 -0.9367 -0.7892 -0.8719
  113MOL0     H15239   1.611  11.024   2.132  0.9576 -0.0027  0.7490
  113MOL0     H15240   1.640  11.275   2.108 -3.2869 -2.5360  3.0154
  113MOL0     H15241   1.591  11.683   2.341 -0.0515 -0.1770 -1.9511
  113MOL0     H15242   1.593  11.907   2.303 -0.3889 -1.1789 -0.4625
  113MOL0     H15243   1.649  12.175   2.257  0.4596  5.4297 -4.1028
  113MOL0     H15244   1.654  12.061   2.112  2.0811 -3.2739  0.1019
  113MOL0     H15245   1.676  12.268   2.057 -1.1601 -0.0698  2.7024
  113MOL0     H15246   1.834  12.214   2.038  2.0635 -2.2314  2.4327
  113MOL0     H15247   1.919  12.326   2.250 -1.2614 -1.6777  3.6173
  113MOL0     H15248   1.754  12.371   2.285  1.0272  3.9408  0.9188
  113MOL0     H15249   1.955  12.531   2.131  0.7462 -0.3160 -1.1008
  113MOL0     H15250   1.870  12.459   1.999 -1.1591 -0.1935 -0.3678
  113MOL0     H15251   1.615  12.758   2.139 -1.8393 -2.7218 -2.2921
  113MOL0     H15252   2.019  11.881   2.200  1.3759 -1.5832 -0.9589
  113MOL0     H15253   2.125  11.708   2.168 -0.7108  2.3824  2.9428
  113MOL0     H15254   2.069  11.563   2.263  1.5135 -0.2838 -0.1027
  113MOL0     H15255   2.029  11.576   2.093 -1.4518 -2.3664  2.0245
  114MOL0     O15256   4.915   9.665  11.518  1.1841  0.6408 -0.0927
  114MOL0     C15257   4.920   9.590  11.615 -1.5049 -0.1970  0.1781
  114MOL0     O15258   5.016   9.493  11.629  0.1501 -0.4570  0.1129
  114MOL0     C15259   5.095   9.452  11.523  0.2989 -0.2476 -0.1901
  114MOL0     C15260   5.064   9.450  11.382  0.6632 -0.3129 -0.6240
  114MOL0     C15261   5.164   9.418  11.286 -0.4020 -0.1741  0.5437
  114MOL0     C15262   5.294   9.394  11.333  1.0415 -0.0635 -1.1737
  114MOL0     O15263   5.405   9.376  11.259  0.9507 -0.1085 -0.2709
  114MOL0     C15264   5.396   9.276  11.154  0.1000 -0.0956 -0.9958
  114MOL0     C15265   5.532   9.250  11.098 -0.2180  0.4673  0.9912
  114MOL0     C15266   5.540   9.125  11.003 -0.8044 -0.5437  1.0643
  114MOL0     C15267   5.553   8.994  11.091  0.6944  0.4338 -0.1844
  114MOL0     C15268   5.558   8.878  10.994  0.4725  0.8517 -0.3850
  114MOL0     C15269   5.593   8.746  11.061 -0.6102 -1.0552  0.0854
  114MOL0     C15270   5.645   8.631  10.971  1.1923 -0.2145 -0.5723
  114MOL0     C15271   5.533   8.562  10.888  0.2287  0.1202  0.4077
  114MOL0     N15272   5.420   8.512  10.975 -0.0681 -0.0549 -0.8291
  114MOL0     C15273   5.429   8.392  11.043  0.1239  0.2167 -0.5142
  114MOL0     C15274   5.325   8.393  11.125  0.1800  0.0856  0.7480
  114MOL0     C15275   5.303   8.269  11.205  0.6399  0.1350 -0.9934
  114MOL0     C15276   5.149   8.243  11.221  0.6317  1.0359 -0.8960
  114MOL0     C15277   5.063   8.211  11.094  0.9956  1.0010  0.0523
  114MOL0     C15278   4.909   8.219  11.111 -0.6893 -0.4982  0.0477
  114MOL0     O15279   4.839   8.162  10.993  0.0201 -0.1976 -0.1169
  114MOL0     C15280   4.837   8.019  10.989  0.5868 -0.3870  0.1025
  114MOL0     C15281   4.809   7.969  10.863 -0.2332  0.0831 -0.5285
  114MOL0     C15282   4.810   7.832  10.839  0.6108 -1.1936  1.2882
  114MOL0     C15283   4.807   7.737  10.947 -0.7330 -0.1899 -0.4992
  114MOL0     C15284   4.805   7.599  10.915 -1.0155 -0.5994 -0.4654
  114MOL0     O15285   4.786   7.556  10.796  0.3884 -0.8315 -0.1629
  114MOL0     C15286   4.751   7.427  10.781 -0.1278 -0.2421  0.4102
  114MOL0     C15287   4.622   7.410  10.735  0.2224  0.3471  0.3258
  114MOL0     C15288   4.577   7.280  10.700 -1.1890 -1.3060 -1.3115
  114MOL0     C15289   4.660   7.167  10.722 -0.1870  0.2129 -0.9874
  114MOL0     O15290   4.641   7.044  10.661 -0.2935 -0.1928 -0.7467
  114MOL0     C15291   4.595   7.036  10.524  0.8754 -0.7718  1.3080
  114MOL0     C15292   4.719   6.999  10.449 -0.5067 -0.5001  0.2733
  114MOL0     C15293   4.795   6.879  10.506 -0.0026  0.6453  0.6341
  114MOL0     C15294   4.904   6.838  10.401  0.4832 -0.2251  0.2421
  114MOL0     C15295   4.947   6.694  10.395  1.1163 -0.2565  0.3311
  114MOL0     C15296   5.011   6.650  10.519 -0.3597  0.1286 -0.2990
  114MOL0     C15297   5.042   6.500  10.532 -0.3474  0.3433 -0.3870
  114MOL0     C15298   5.097   6.460  10.664 -0.5057 -0.6139 -0.4152
  114MOL0    Cl15299   5.077   6.283  10.704  0.2385  0.2096 -0.2515
  114MOL0     C15300   4.792   7.180  10.773 -0.1927  0.8841 -0.6234
  114MOL0     C15301   4.838   7.310  10.789  1.0287 -0.1555  0.3330
  114MOL0     O15302   4.830   7.526  11.012  0.2876 -0.3601 -0.8161
  114MOL0     C15303   4.823   7.800  11.079  0.7841 -0.0336  0.1008
  114MOL0     C15304   4.832   7.938  11.099 -0.3134  0.6983 -0.2888
  114MOL0     N15305   5.249   8.507  11.093 -0.0986  0.5703 -0.5338
  114MOL0     N15306   5.310   8.573  11.009 -0.3235 -0.7099  0.0906
  114MOL0     C15307   5.324   9.389  11.467 -0.3324  0.1871 -1.1560
  114MOL0     C15308   5.227   9.423  11.560 -0.3763 -0.3067  0.2945
  114MOL0     C15309   4.812   9.604  11.725  0.7014  0.2807  1.2015
  114MOL0     C15310   4.715   9.702  11.706 -0.3019 -0.0817  0.3263
  114MOL0     C15311   4.614   9.726  11.804  0.8690 -0.1273 -0.0268
  114MOL0     C15312   4.609   9.647  11.920  0.4194 -0.1119 -0.1961
  114MOL0     O15313   4.510   9.694  12.003  0.1820  0.2047 -0.3937
  114MOL0     C15314   4.465   9.615  12.114 -0.6798 -0.5561  1.0711
  114MOL0     C15315   4.408   9.711  12.219 -0.0274  0.5033  0.5016
  114MOL0     C15316   4.466   9.864  12.230 -0.4589  1.0441  0.1572
  114MOL0     C15317   4.380   9.950  12.333  0.7921 -0.0396 -0.4602
  114MOL0     C15318   4.233   9.951  12.324  0.6132  0.5148 -0.5447
  114MOL0     C15319   4.113   9.954  12.335  0.4538 -0.1308  0.3481
  114MOL0     C15320   4.709   9.548  11.932 -0.4069 -0.1510 -0.2510
  114MOL0     C15321   4.797   9.516  11.830  0.8537 -0.5116  0.4460
  114MOL0     C15322   4.878   9.388  11.857 -0.1498 -1.0492  0.4391
  114MOL0     H15323   4.962   9.460  11.347  0.2690 -0.3909  0.4643
  114MOL0     H15324   5.128   9.419  11.183 -0.5340  0.0106  0.5916
  114MOL0     H15325   5.369   9.183  11.205  2.2715  0.3934  1.2544
  114MOL0     H15326   5.322   9.301  11.077 -0.5720  1.3450  0.0806
  114MOL0     H15327   5.611   9.250  11.174  2.5392  2.2319 -1.6131
  114MOL0     H15328   5.568   9.332  11.035  1.9801 -0.9681  0.2483
  114MOL0     H15329   5.620   9.135  10.929  1.3460 -0.9236  3.2165
  114MOL0     H15330   5.447   9.133  10.946 -0.1710  0.7225  0.1564
  114MOL0     H15331   5.647   9.002  11.147 -0.0527 -0.2170  1.2380
  114MOL0     H15332   5.474   8.982  11.166  0.6222 -1.6479 -0.5369
  114MOL0     H15333   5.463   8.874  10.939  1.6996 -3.2035 -2.7165
  114MOL0     H15334   5.634   8.901  10.918  0.7620  2.7176  0.4350
  114MOL0     H15335   5.664   8.768  11.142  1.3354 -1.2413 -1.4845
  114MOL0     H15336   5.498   8.712  11.104  0.6301 -0.2345  3.9153
  114MOL0     H15337   5.694   8.562  11.041  0.4902 -0.6560 -0.5005
  114MOL0     H15338   5.705   8.679  10.893 -0.7175  2.2825 -0.6266
  114MOL0     H15339   5.494   8.640  10.822 -0.1885 -1.0709 -0.7767
  114MOL0     H15340   5.575   8.477  10.835  0.5533  0.2494  0.4553
  114MOL0     H15341   5.502   8.315  11.020  1.6942  1.4878 -0.0015
  114MOL0     H15342   5.342   8.177  11.162 -2.9650 -2.1207  0.1129
  114MOL0     H15343   5.352   8.276  11.303 -1.7477 -3.2637  0.6310
  114MOL0     H15344   5.144   8.163  11.296 -0.2052  1.8506 -0.0497
  114MOL0     H15345   5.091   8.323  11.269 -0.3203  0.0054 -0.2884
  114MOL0     H15346   5.075   8.106  11.067 -3.4807  0.8144 -2.1376
  114MOL0     H15347   5.077   8.281  11.011 -0.1644  1.0133 -0.1500
  114MOL0     H15348   4.880   8.324  11.121 -0.1811 -0.1602 -1.8149
  114MOL0     H15349   4.875   8.171  11.204 -1.4478 -0.9100 -0.4300
  114MOL0     H15350   4.804   8.049  10.790 -4.4906 -0.7980 -1.4279
  114MOL0     H15351   4.795   7.798  10.737  0.0695 -2.5931  1.8134
  114MOL0     H15352   4.552   7.493  10.729 -0.3744 -0.0544  1.4933
  114MOL0     H15353   4.485   7.267  10.644 -2.3218 -0.6351  0.3241
  114MOL0     H15354   4.518   6.961  10.508 -0.8475  1.3432 -0.9259
  114MOL0     H15355   4.569   7.130  10.475  1.9764 -2.6812 -3.5179
  114MOL0     H15356   4.695   6.981  10.344 -3.1122 -1.9567  1.0154
  114MOL0     H15357   4.776   7.091  10.458 -2.0030  0.4347  0.5398
  114MOL0     H15358   4.838   6.900  10.604 -2.7450  3.7883  1.3440
  114MOL0     H15359   4.723   6.799  10.524  1.3088 -1.5447 -2.7270
  114MOL0     H15360   4.996   6.890  10.429 -0.2899 -0.5862  3.9777
  114MOL0     H15361   4.870   6.860  10.300 -0.7933  0.8672  0.8770
  114MOL0     H15362   5.016   6.684  10.311  0.9362 -0.4337  0.2018
  114MOL0     H15363   4.859   6.630  10.378  0.6779  0.8282 -1.8497
  114MOL0     H15364   5.108   6.698  10.528 -1.3499  2.1408  0.2767
  114MOL0     H15365   4.959   6.688  10.608  0.7908  2.9246 -0.7371
  114MOL0     H15366   5.125   6.474  10.465  2.6036  2.5360  2.1168
  114MOL0     H15367   4.950   6.444  10.513  0.1315 -0.2277 -1.0864
  114MOL0     H15368   5.205   6.476  10.668 -0.4062 -1.3240  3.0615
  114MOL0     H15369   5.059   6.519  10.747 -0.7660  1.2856 -1.8280
  114MOL0     H15370   4.852   7.089  10.774 -1.9574 -0.7446 -5.7574
  114MOL0     H15371   4.940   7.313  10.827  1.8001 -2.4355 -1.3392
  114MOL0     H15372   4.822   7.739  11.169  1.2573  1.1619  0.9474
  114MOL0     H15373   4.853   7.970  11.201  2.4393 -0.1071 -0.5167
  114MOL0     H15374   5.424   9.369  11.503 -1.0501  1.7421  2.0377
  114MOL0     H15375   5.257   9.418  11.664  2.7244 -0.8261 -0.5402
  114MOL0     H15376   4.717   9.770  11.622  0.5592 -2.3893 -1.6375
  114MOL0     H15377   4.541   9.806  11.796  1.0932  0.4291  2.5648
  114MOL0     H15378   4.535   9.549  12.167  1.8706 -0.1983 -1.5781
  114MOL0     H15379   4.378   9.559  12.079 -0.8708 -0.4808  1.4281
  114MOL0     H15380   4.413   9.657  12.314  0.8054  1.3506  0.9565
  114MOL0     H15381   4.301   9.719  12.196 -1.4568 -1.8341  5.1227
  114MOL0     H15382   4.473   9.913  12.132 -0.8414 -2.3983 -1.7862
  114MOL0     H15383   4.560   9.845  12.282  0.6736  1.5401 -1.6320
  114MOL0     H15384   4.396   9.907  12.432  0.0549  1.1700  0.2129
  114MOL0     H15385   4.426  10.049  12.344 -1.8851  1.3685 -1.0665
  114MOL0     H15386   4.008   9.943  12.355  0.1319 -1.0153 -1.6498
  114MOL0     H15387   4.696   9.489  12.022 -3.0392  1.5136  0.5551
  114MOL0     H15388   4.974   9.436  11.880  1.3270 -1.5459 -3.7588
  114MOL0     H15389   4.835   9.322  11.933 -2.2221  0.5403  0.7156
  114MOL0     H15390   4.891   9.323  11.769 -1.0592 -1.7489  0.8047
  115MOL0     O15391  11.297   5.903   9.928 -0.2617 -0.4692  0.5426
  115MOL0     C15392  11.351   5.895  10.032  0.2474  0.0046  0.3693
  115MOL0     O15393  11.351   5.993  10.118  0.2253 -0.2341  0.2661
  115MOL0     C15394  11.302   6.112  10.094  0.8327 -0.0772  0.4129
  115MOL0     C15395  11.320   6.177   9.973 -0.5458 -0.7059 -0.3959
  115MOL0     C15396  11.287   6.305   9.958 -0.3558 -0.8612  0.4081
  115MOL0     C15397  11.207   6.365  10.060  0.5953  0.5402  0.3288
  115MOL0     O15398  11.133   6.483  10.036 -0.1876 -0.4099 -0.4044
  115MOL0     C15399  11.173   6.579   9.937  0.5795 -0.5564 -0.3702
  115MOL0     C15400  11.068   6.693   9.921  0.5703 -0.1196 -0.4569
  115MOL0     C15401  11.101   6.772   9.795  0.2074  0.9589 -0.6957
  115MOL0     C15402  11.025   6.908   9.786  0.8335 -0.7281  0.1414
  115MOL0     C15403  11.017   6.956   9.643  0.2187  0.5664 -1.2114
  115MOL0     C15404  10.907   7.065   9.643 -0.7632 -0.6950  0.2610
  115MOL0     C15405  10.909   7.148   9.512 -0.4931 -0.6374  0.0004
  115MOL0     C15406  10.815   7.264   9.523 -0.8785  1.5385 -0.2994
  115MOL0     N15407  10.684   7.200   9.545 -0.2228 -0.5430  0.3081
  115MOL0     C15408  10.607   7.109   9.469 -0.5660  0.0152  0.0553
  115MOL0     C15409  10.493   7.111   9.537  0.3489  1.1599 -0.1735
  115MOL0     C15410  10.377   7.033   9.490  0.0815 -0.0900 -0.5293
  115MOL0     C15411  10.298   7.109   9.386  0.2191  0.0836 -0.9037
  115MOL0     C15412  10.375   7.160   9.256 -0.9910  0.1165 -0.6515
  115MOL0     C15413  10.299   7.191   9.130  0.8737 -0.8576  0.3233
  115MOL0     O15414  10.244   7.324   9.147 -1.0196 -0.3266 -0.5064
  115MOL0     C15415  10.159   7.372   9.045 -0.2937  0.3789 -0.5354
  115MOL0     C15416  10.076   7.473   9.085 -0.4093  0.8799  0.1444
  115MOL0     C15417   9.982   7.531   9.001 -0.7980  0.0446 -0.2512
  115MOL0     C15418   9.966   7.484   8.872 -0.6457  0.0312  0.1692
  115MOL0     C15419   9.856   7.542   8.784 -0.0141  0.6548 -0.3748
  115MOL0     O15420   9.889   7.538   8.653  0.7920  0.3811 -0.4108
  115MOL0     C15421   9.833   7.611   8.555 -0.6726 -0.6218 -0.7873
  115MOL0     C15422   9.823   7.555   8.432 -1.0122  0.7313  0.2839
  115MOL0     C15423   9.761   7.629   8.332 -0.0156  0.2396  0.1978
  115MOL0     C15424   9.723   7.759   8.349 -0.5762 -0.4245 -1.0661
  115MOL0     O15425   9.664   7.819   8.237 -0.6542  0.3980 -0.4366
  115MOL0     C15426   9.555   7.907   8.248  0.2257  1.0136 -0.2107
  115MOL0     C15427   9.543   7.959   8.102  0.5134  0.3428  0.2727
  115MOL0     C15428   9.440   8.071   8.096 -0.6219 -0.7691 -0.1382
  115MOL0     C15429   9.294   8.042   8.113  0.1621  0.4383 -0.4104
  115MOL0     C15430   9.208   8.162   8.080  0.2746 -0.4321  0.1556
  115MOL0     C15431   9.176   8.202   7.940 -0.1358  0.3295  0.0444
  115MOL0     C15432   9.080   8.313   7.933  0.7086  0.2811  0.0228
  115MOL0     C15433   9.046   8.338   7.783  0.5870 -0.0824 -0.1946
  115MOL0    Cl15434   8.914   8.453   7.768  0.3163 -0.2842 -0.3261
  115MOL0     C15435   9.749   7.817   8.476 -0.6100 -0.0515  0.4585
  115MOL0     C15436   9.806   7.752   8.579  0.2726  0.4288 -0.3813
  115MOL0     O15437   9.770   7.606   8.839  0.2556  0.1867  0.5286
  115MOL0     C15438  10.052   7.376   8.826  0.2293 -1.5034 -1.1352
  115MOL0     C15439  10.137   7.317   8.916  1.0283 -0.7341  0.0555
  115MOL0     N15440  10.498   7.198   9.643  0.4141  0.0726 -0.3857
  115MOL0     N15441  10.614   7.243   9.654 -0.9812 -0.0339  0.7527
  115MOL0     C15442  11.190   6.306  10.188 -0.7629  0.5450  0.7894
  115MOL0     C15443  11.231   6.178  10.195 -0.4602  0.4844 -0.4325
  115MOL0     C15444  11.389   5.752  10.081  0.1359  0.4935 -0.3781
  115MOL0     C15445  11.392   5.651   9.984  0.6811 -1.0181 -0.5227
  115MOL0     C15446  11.442   5.521  10.017  0.2031 -1.4075  0.8354
  115MOL0     C15447  11.491   5.492  10.138 -0.2165  0.9322 -1.3386
  115MOL0     O15448  11.518   5.359  10.154  0.0675  0.5152  0.3696
  115MOL0     C15449  11.601   5.316  10.265  0.7859 -0.5433  0.0560
  115MOL0     C15450  11.674   5.185  10.224  0.3296 -0.1739 -0.6088
  115MOL0     C15451  11.587   5.051  10.204 -0.7642 -0.8756 -0.3291
  115MOL0     C15452  11.452   5.059  10.282  0.2888  0.0264  0.0447
  115MOL0     C15453  11.370   4.942  10.289  0.5104  0.4440 -0.9604
  115MOL0     C15454  11.287   4.850  10.293 -0.7843 -0.0634 -0.1104
  115MOL0     C15455  11.483   5.591  10.238 -0.8505  0.6995 -0.6465
  115MOL0     C15456  11.438   5.716  10.214  1.0170 -0.0056 -0.4745
  115MOL0     C15457  11.462   5.811  10.321  0.6103 -0.2098 -0.4516
  115MOL0     H15458  11.376   6.122   9.898 -2.1908 -2.0109 -0.7431
  115MOL0     H15459  11.315   6.356   9.866  0.7077  2.0555  2.1909
  115MOL0     H15460  11.269   6.623   9.967 -0.3886 -0.3595  2.7573
  115MOL0     H15461  11.197   6.535   9.840  3.4201 -0.3416  0.1335
  115MOL0     H15462  11.076   6.767  10.001  0.4748  0.0816 -0.6326
  115MOL0     H15463  10.966   6.656   9.925  0.6119 -0.1988 -0.0025
  115MOL0     H15464  11.087   6.715   9.703 -1.5419  0.8787 -0.4164
  115MOL0     H15465  11.203   6.808   9.803  0.3139  0.4056  0.6995
  115MOL0     H15466  10.923   6.891   9.821  0.0162  2.0065 -0.7156
  115MOL0     H15467  11.054   6.985   9.858 -0.7239 -0.0197  0.0540
  115MOL0     H15468  11.119   6.993   9.632  0.6577  0.7541  2.2038
  115MOL0     H15469  10.992   6.881   9.568 -0.3866 -1.1455  0.5968
  115MOL0     H15470  10.808   7.018   9.647 -0.2074 -1.8170  1.8777
  115MOL0     H15471  10.925   7.114   9.739 -2.8224  1.5505 -0.4140
  115MOL0     H15472  10.888   7.089   9.423 -1.6764  3.5666 -2.7789
  115MOL0     H15473  11.004   7.199   9.496 -2.0919  1.4762 -4.4681
  115MOL0     H15474  10.845   7.335   9.601 -2.6767  1.8391  0.1653
  115MOL0     H15475  10.811   7.313   9.425 -1.2104  2.0723 -0.0233
  115MOL0     H15476  10.645   7.043   9.393  1.9861 -0.0853  1.3187
  115MOL0     H15477  10.417   6.943   9.441  2.2032 -0.2620  1.3224
  115MOL0     H15478  10.310   7.006   9.572 -2.1621  0.6416 -2.0349
  115MOL0     H15479  10.225   7.044   9.337  1.3718 -1.5001 -0.5760
  115MOL0     H15480  10.255   7.189   9.446 -0.1858  0.1316 -1.2529
  115MOL0     H15481  10.440   7.076   9.230 -0.9698  0.2425 -1.0231
  115MOL0     H15482  10.438   7.247   9.275 -0.2258 -0.3093 -1.1739
  115MOL0     H15483  10.221   7.116   9.113  0.8293 -0.7156 -0.1285
  115MOL0     H15484  10.373   7.192   9.048  0.0749 -1.8162 -0.4369
  115MOL0     H15485  10.092   7.510   9.186  2.8799  2.0487 -0.6881
  115MOL0     H15486   9.920   7.611   9.040 -3.4199 -1.5393 -0.8985
  115MOL0     H15487   9.862   7.457   8.404 -1.2784  1.1538 -1.7018
  115MOL0     H15488   9.753   7.587   8.233  0.4142  1.4967 -0.3896
  115MOL0     H15489   9.473   7.843   8.284  0.1999 -1.4227 -4.0729
  115MOL0     H15490   9.568   7.993   8.314  0.9357  0.7812 -0.0422
  115MOL0     H15491   9.640   7.986   8.059  0.4656 -3.2691 -2.5704
  115MOL0     H15492   9.517   7.882   8.028  1.1560 -0.0162  0.4139
  115MOL0     H15493   9.467   8.152   8.164  0.6497 -1.7869  0.6022
  115MOL0     H15494   9.454   8.113   7.996  3.8032 -1.7770 -0.1116
  115MOL0     H15495   9.282   8.014   8.218 -0.9371 -1.5192 -1.0171
  115MOL0     H15496   9.263   7.952   8.059  2.2041 -1.5208  1.4786
  115MOL0     H15497   9.268   8.246   8.115  0.7141 -0.5919 -0.2035
  115MOL0     H15498   9.111   8.153   8.129 -0.9061  2.1669 -1.4729
  115MOL0     H15499   9.273   8.226   7.895  1.9646 -2.0880  2.8596
  115MOL0     H15500   9.140   8.119   7.878 -0.5988  1.6311 -1.4945
  115MOL0     H15501   9.135   8.398   7.974 -0.1597  0.8820 -0.0414
  115MOL0     H15502   8.991   8.303   7.996 -0.0693  1.2533 -0.8949
  115MOL0     H15503   9.135   8.387   7.743  1.7018 -0.6769  1.4391
  115MOL0     H15504   9.024   8.248   7.726 -0.2256  0.2414 -0.4122
  115MOL0     H15505   9.705   7.914   8.497 -1.6631 -0.5180  0.4765
  115MOL0     H15506   9.819   7.791   8.679 -1.0764  1.4061 -0.5638
  115MOL0     H15507  10.039   7.337   8.725  2.1177  0.5224 -2.2444
  115MOL0     H15508  10.195   7.238   8.869  2.6644  1.6864 -2.2591
  115MOL0     H15509  11.129   6.357  10.261 -1.9681  0.3964 -0.0854
  115MOL0     H15510  11.208   6.110  10.276  0.6136 -1.0382 -1.3443
  115MOL0     H15511  11.354   5.665   9.883  0.9275  0.7924 -0.3985
  115MOL0     H15512  11.440   5.457   9.929  4.0191  2.5778 -2.6554
  115MOL0     H15513  11.542   5.317  10.357 -0.6125  1.2571 -0.7806
  115MOL0     H15514  11.677   5.393  10.285  1.4394 -1.4159  1.0819
  115MOL0     H15515  11.755   5.177  10.297 -0.4607 -0.6353  0.2488
  115MOL0     H15516  11.712   5.209  10.124 -0.2271 -2.9484 -1.5758
  115MOL0     H15517  11.634   4.957  10.235 -2.0039 -1.3261  0.2300
  115MOL0     H15518  11.560   5.047  10.098  0.9865  2.6757 -1.0681
  115MOL0     H15519  11.486   5.090  10.382 -0.8482 -0.3685  0.5663
  115MOL0     H15520  11.385   5.132  10.237 -0.1640  1.3740  2.6685
  115MOL0     H15521  11.216   4.770  10.296  0.6368 -1.4858  4.6198
  115MOL0     H15522  11.510   5.555  10.336 -4.7677  1.1114  0.7554
  115MOL0     H15523  11.379   5.881  10.327  3.7360  4.1462 -2.7681
  115MOL0     H15524  11.464   5.756  10.416  4.4400 -0.6367 -0.6019
  115MOL0     H15525  11.559   5.859  10.306  0.7380 -0.7534 -1.4324
  116MOL0     O15526  11.159   8.439   5.328 -0.1835  0.5582  0.1738
  116MOL0     C15527  11.258   8.489   5.382 -0.2207 -0.8018 -1.0267
  116MOL0     O15528  11.259   8.607   5.457 -0.4984  0.1195  0.2075
  116MOL0     C15529  11.147   8.677   5.470  0.4278 -0.0409 -0.1750
  116MOL0     C15530  11.031   8.639   5.534  0.7542  0.2984 -0.7095
  116MOL0     C15531  10.925   8.719   5.539  0.0262 -0.3610 -1.0297
  116MOL0     C15532  10.935   8.859   5.529  0.5138 -0.5394  0.6306
  116MOL0     O15533  10.821   8.932   5.523  0.1040  0.0702  0.6764
  116MOL0     C15534  10.850   9.060   5.566 -0.3865 -0.8684  0.5144
  116MOL0     C15535  10.713   9.123   5.603 -1.7648  0.1503 -0.5020
  116MOL0     C15536  10.626   9.122   5.476 -0.2220 -1.5619  0.1369
  116MOL0     C15537  10.474   9.095   5.504  0.0749 -0.6477 -0.3313
  116MOL0     C15538  10.402   9.092   5.370 -0.3025 -0.1021  0.7897
  116MOL0     C15539  10.271   9.012   5.394 -0.7976  0.0361  0.2897
  116MOL0     C15540  10.167   9.060   5.294  0.0931  0.8207  0.1371
  116MOL0     C15541  10.162   8.958   5.173 -0.3393  0.4819  0.1562
  116MOL0     N15542  10.083   9.003   5.061  0.3018  0.5851 -0.2015
  116MOL0     C15543  10.048   9.129   5.022 -0.0110  0.5249 -0.4175
  116MOL0     C15544   9.945   9.111   4.930 -0.9490 -0.1340  0.5206
  116MOL0     C15545   9.862   9.217   4.863 -0.2173  0.1138  0.1944
  116MOL0     C15546   9.780   9.298   4.963 -0.0075 -0.2318 -1.3084
  116MOL0     C15547   9.649   9.236   5.016 -0.9287  0.1589  0.2716
  116MOL0     C15548   9.572   9.323   5.108  0.5375  0.3044  0.6217
  116MOL0     O15549   9.648   9.393   5.210  0.6248  0.4265 -0.2724
  116MOL0     C15550   9.723   9.332   5.305  0.5992 -0.0130 -0.3518
  116MOL0     C15551   9.734   9.196   5.339  0.0705 -0.3091 -0.6378
  116MOL0     C15552   9.843   9.159   5.422 -0.0261  0.6668 -0.2707
  116MOL0     C15553   9.921   9.255   5.493 -0.9381  0.4665  1.1815
  116MOL0     C15554  10.022   9.219   5.593  0.0133  0.6509  0.0686
  116MOL0     O15555  10.091   9.319   5.637 -0.4224 -1.0200  0.4843
  116MOL0     C15556  10.187   9.316   5.742 -0.9645  0.5056  1.2340
  116MOL0     C15557  10.204   9.210   5.834 -0.3782  0.4884  0.8403
  116MOL0     C15558  10.308   9.204   5.926  0.9283 -0.2349 -0.4925
  116MOL0     C15559  10.395   9.320   5.941  0.4131 -0.5020 -0.7148
  116MOL0     O15560  10.477   9.331   6.049  0.0479 -0.8777 -0.0416
  116MOL0     C15561  10.606   9.266   6.056  0.5082  0.1418  0.2487
  116MOL0     C15562  10.598   9.114   6.084  0.0422 -0.3285  0.2443
  116MOL0     C15563  10.553   9.086   6.234 -0.8973  0.0092 -0.0022
  116MOL0     C15564  10.498   8.940   6.250 -0.5442  0.4912 -0.4604
  116MOL0     C15565  10.342   8.931   6.257 -0.3518 -0.3557 -0.0453
  116MOL0     C15566  10.287   8.992   6.385 -0.2140  0.7700 -0.3853
  116MOL0     C15567  10.140   8.950   6.409  0.4973 -0.3028  0.6661
  116MOL0     C15568  10.130   8.815   6.486  0.5927  0.3510 -0.4722
  116MOL0    Cl15569  10.198   8.832   6.655  0.0698 -0.0507  0.3714
  116MOL0     C15570  10.370   9.433   5.853  0.3385  0.8191 -0.3908
  116MOL0     C15571  10.270   9.421   5.756  0.7756 -0.9176  0.3725
  116MOL0     O15572  10.023   9.105   5.638 -0.9938 -0.1887 -0.1306
  116MOL0     C15573   9.902   9.386   5.449 -1.0749  0.2615 -1.3644
  116MOL0     C15574   9.802   9.421   5.370  0.1266  0.2602  0.8694
  116MOL0     N15575   9.936   8.969   4.915 -0.3040 -0.6414 -0.3486
  116MOL0     N15576  10.022   8.908   4.987  0.3555 -0.7513 -0.4387
  116MOL0     C15577  11.057   8.908   5.482 -0.6810  0.6734 -1.5290
  116MOL0     C15578  11.159   8.816   5.439  0.1993 -0.4776  0.6850
  116MOL0     C15579  11.404   8.430   5.380  0.1664 -0.0068  0.8278
  116MOL0     C15580  11.513   8.511   5.379  0.3560  1.1596  0.2928
  116MOL0     C15581  11.645   8.455   5.376 -0.2686  0.3392 -0.7911
  116MOL0     C15582  11.656   8.321   5.363  0.6382  0.2542 -0.9657
  116MOL0     O15583  11.775   8.265   5.335 -0.5649  0.7439 -0.1589
  116MOL0     C15584  11.874   8.296   5.435 -0.8215 -0.0781 -0.5867
  116MOL0     C15585  11.998   8.207   5.421 -0.1685 -0.0276 -0.1855
  116MOL0     C15586  12.122   8.293   5.433 -0.5225  0.2297  0.5934
  116MOL0     C15587  12.238   8.200   5.441 -0.1948 -0.4447 -0.2546
  116MOL0     C15588  12.271   8.159   5.308  1.2211  0.1430 -0.2129
  116MOL0     C15589  12.287   8.117   5.193 -0.2527 -0.6640 -0.3759
  116MOL0     C15590  11.542   8.238   5.356  0.0471  0.5353 -0.4414
  116MOL0     C15591  11.416   8.295   5.367  0.1290 -0.5981 -0.6638
  116MOL0     C15592  11.291   8.200   5.369 -0.8902 -0.1608  0.2053
  116MOL0     H15593  11.020   8.535   5.561 -0.6876  0.5267 -0.3341
  116MOL0     H15594  10.835   8.665   5.565 -0.5033  0.4280 -1.1847
  116MOL0     H15595  10.917   9.061   5.652 -0.9398 -0.5742  0.9413
  116MOL0     H15596  10.900   9.121   5.489 -1.5913  1.9651  1.8413
  116MOL0     H15597  10.743   9.224   5.631 -2.3590  0.3633 -0.6167
  116MOL0     H15598  10.670   9.073   5.691  1.2464 -1.0139  0.4267
  116MOL0     H15599  10.656   9.043   5.407  2.8383 -1.7143  1.4944
  116MOL0     H15600  10.629   9.218   5.424 -0.1636 -0.5838  1.8673
  116MOL0     H15601  10.479   9.001   5.560  1.7182 -0.0655  0.5669
  116MOL0     H15602  10.421   9.163   5.572 -0.4407 -1.1787 -0.1938
  116MOL0     H15603  10.391   9.197   5.342 -1.3238 -0.5394 -0.5327
  116MOL0     H15604  10.466   9.050   5.292  0.5059  1.0488  0.8199
  116MOL0     H15605  10.293   8.905   5.390  3.8354  0.8403 -1.7387
  116MOL0     H15606  10.231   9.043   5.491  2.0985  2.4114  0.8825
  116MOL0     H15607  10.199   9.155   5.249 -0.7925  0.9083 -0.3242
  116MOL0     H15608  10.067   9.062   5.338 -0.6795  1.6759 -1.5441
  116MOL0     H15609  10.256   8.919   5.133 -0.1107  0.9002  0.2802
  116MOL0     H15610  10.127   8.867   5.224  0.6040  1.0389  1.8779
  116MOL0     H15611  10.082   9.215   5.079 -0.9603 -0.8299  2.3740
  116MOL0     H15612   9.933   9.288   4.820 -1.1575  2.8876  2.8569
  116MOL0     H15613   9.793   9.177   4.788 -1.7467  1.2375  0.9377
  116MOL0     H15614   9.855   9.317   5.041  0.0681 -2.5786 -0.7373
  116MOL0     H15615   9.763   9.394   4.913 -0.4359  0.7842  0.6743
  116MOL0     H15616   9.658   9.142   5.073 -0.2256 -1.9913 -3.1175
  116MOL0     H15617   9.593   9.212   4.925 -2.6470 -2.0719  1.8015
  116MOL0     H15618   9.504   9.250   5.153  0.2537  0.6865  0.8209
  116MOL0     H15619   9.514   9.395   5.050  0.5224  0.9314  1.3890
  116MOL0     H15620   9.668   9.127   5.287  0.6018 -2.4174  1.3090
  116MOL0     H15621   9.859   9.053   5.441  0.4246  0.7669 -0.0938
  116MOL0     H15622  10.132   9.129   5.829 -0.1616  0.1763  2.2935
  116MOL0     H15623  10.319   9.122   5.996 -2.2064 -1.3295 -1.1382
  116MOL0     H15624  10.658   9.290   5.963  2.5661  1.3277  1.5944
  116MOL0     H15625  10.662   9.326   6.129  1.3809  2.6625 -2.3201
  116MOL0     H15626  10.540   9.061   6.008  3.5388 -0.4765 -2.5757
  116MOL0     H15627  10.700   9.075   6.080 -0.6219 -2.1747  0.4632
  116MOL0     H15628  10.644   9.097   6.294 -0.2393 -0.7242 -0.8481
  116MOL0     H15629  10.483   9.160   6.274 -1.0811 -1.6492  3.0210
  116MOL0     H15630  10.550   8.909   6.341  0.0565  1.2666 -0.5354
  116MOL0     H15631  10.536   8.871   6.174  0.3367 -1.1312  1.3521
  116MOL0     H15632  10.311   8.827   6.267 -2.1848  0.1054 -0.5562
  116MOL0     H15633  10.307   8.970   6.161  2.9881  3.2006 -0.0586
  116MOL0     H15634  10.343   8.953   6.470  0.2772  1.8240 -0.2146
  116MOL0     H15635  10.288   9.102   6.386  1.6204  0.8210 -2.0773
  116MOL0     H15636  10.077   8.963   6.320 -0.1862 -0.1961  1.1570
  116MOL0     H15637  10.097   9.027   6.474 -1.7809  1.0927 -2.2156
  116MOL0     H15638  10.022   8.798   6.495  0.6826  0.0268  0.0372
  116MOL0     H15639  10.173   8.730   6.432 -3.4175 -1.2052 -1.5456
  116MOL0     H15640  10.428   9.523   5.867  1.0135  0.3616 -0.1519
  116MOL0     H15641  10.257   9.501   5.683 -1.6967 -1.0591  0.5741
  116MOL0     H15642   9.958   9.467   5.493 -1.9986  0.4899 -0.5737
  116MOL0     H15643   9.790   9.529   5.365  0.9931  0.3248 -0.5392
  116MOL0     H15644  11.088   9.011   5.468 -0.8038  0.8188 -0.7584
  116MOL0     H15645  11.253   8.834   5.388  1.7524 -0.4689  3.3440
  116MOL0     H15646  11.501   8.618   5.381  0.9412  1.2192  1.0454
  116MOL0     H15647  11.733   8.519   5.374  2.0613 -2.2662  3.2327
  116MOL0     H15648  11.837   8.270   5.535  1.3355 -2.0665 -0.2087
  116MOL0     H15649  11.899   8.401   5.449 -1.4643 -0.1448  1.5960
  116MOL0     H15650  12.001   8.173   5.317 -1.1322  0.4341 -0.3811
  116MOL0     H15651  11.980   8.124   5.489  0.0949 -0.4740 -0.6592
  116MOL0     H15652  12.120   8.354   5.524  2.8186  0.6995  0.4577
  116MOL0     H15653  12.138   8.366   5.353  1.0346  1.7217  2.1911
  116MOL0     H15654  12.322   8.249   5.492 -1.1244 -2.1799  3.2609
  116MOL0     H15655  12.217   8.114   5.505  0.3802  1.7668  3.1877
  116MOL0     H15656  12.301   8.080   5.094 -1.6201  2.1932 -1.7538
  116MOL0     H15657  11.561   8.131   5.349  1.7244  0.6760  1.1646
  116MOL0     H15658  11.329   8.097   5.365 -0.3160  0.0638 -0.2934
  116MOL0     H15659  11.219   8.226   5.447  0.2128  1.0075  0.8797
  116MOL0     H15660  11.237   8.201   5.273  3.6272 -4.0872 -2.8463
  117MOL0     O15661   4.933   0.670   9.179  0.1688  0.4548 -0.1726
  117MOL0     C15662   5.045   0.626   9.197  0.0247  0.8024  0.9020
  117MOL0     O15663   5.156   0.700   9.185 -0.2729 -0.3390  0.9513
  117MOL0     C15664   5.140   0.829   9.141  0.5490 -0.3685 -1.0676
  117MOL0     C15665   5.140   0.939   9.231 -0.2398  0.4490  0.0507
  117MOL0     C15666   5.151   1.069   9.179  0.1991 -0.1388  0.0040
  117MOL0     C15667   5.153   1.089   9.038  0.7409 -0.7709  0.3098
  117MOL0     O15668   5.170   1.221   9.013 -0.0346  0.5836  0.6441
  117MOL0     C15669   5.185   1.258   8.871  0.3031 -0.4400  0.9868
  117MOL0     C15670   5.226   1.407   8.853  0.3048  0.6836  0.2503
  117MOL0     C15671   5.127   1.506   8.920 -0.4241 -0.2254 -0.0619
  117MOL0     C15672   5.007   1.534   8.836 -0.0287 -0.0540  0.0065
  117MOL0     C15673   4.898   1.616   8.907 -0.8256  0.1209  0.0595
  117MOL0     C15674   4.781   1.625   8.801 -0.4208 -0.0437  1.3434
  117MOL0     C15675   4.831   1.703   8.665 -0.0193  0.7097  0.3961
  117MOL0     C15676   4.718   1.753   8.578 -0.5750  0.4601 -1.1343
  117MOL0     N15677   4.689   1.895   8.590  0.6485  0.2620  0.5855
  117MOL0     C15678   4.678   1.975   8.706  0.0518  0.1717  0.4758
  117MOL0     C15679   4.657   2.103   8.669  0.6717  0.2048 -0.3315
  117MOL0     C15680   4.652   2.212   8.783  0.0981  0.3099  0.4753
  117MOL0     C15681   4.775   2.307   8.784 -0.3432  0.3730  0.0849
  117MOL0     C15682   4.733   2.442   8.730 -0.1825  0.6205 -0.6292
  117MOL0     C15683   4.858   2.534   8.744 -0.5962  0.1244 -0.3463
  117MOL0     O15684   4.887   2.559   8.885  0.3914  0.8717  1.0536
  117MOL0     C15685   5.000   2.621   8.930  0.0294  0.0945  0.4021
  117MOL0     C15686   5.084   2.693   8.844  0.8565  0.6259 -0.0625
  117MOL0     C15687   5.202   2.763   8.888 -0.6680 -0.4287  0.2433
  117MOL0     C15688   5.234   2.760   9.022 -0.6074  0.3619  0.3408
  117MOL0     C15689   5.363   2.833   9.064 -0.6472  0.0718 -0.5845
  117MOL0     O15690   5.436   2.896   8.974 -0.5941 -0.0590 -0.9096
  117MOL0     C15691   5.567   2.946   8.985 -1.0232 -0.0323  0.8495
  117MOL0     C15692   5.611   3.028   8.879 -0.4378  0.4686 -0.3389
  117MOL0     C15693   5.743   3.075   8.877  0.9985  0.3832  0.1248
  117MOL0     C15694   5.833   3.043   8.983 -0.2959  0.2437 -0.4893
  117MOL0     O15695   5.965   3.085   8.986 -0.1315  0.5414  1.2681
  117MOL0     C15696   6.053   2.975   9.013  0.4751  0.9042 -0.1854
  117MOL0     C15697   6.187   3.007   8.958 -0.3222 -0.6846  0.2618
  117MOL0     C15698   6.297   2.920   9.017  0.4464  0.6867 -0.6685
  117MOL0     C15699   6.431   2.951   8.968 -0.2373  0.3097  1.0394
  117MOL0     C15700   6.542   2.890   9.050  0.2684  0.1506  0.1003
  117MOL0     C15701   6.676   2.951   9.024 -0.3939  1.1634  0.3314
  117MOL0     C15702   6.790   2.857   9.082 -0.8132 -0.1659 -0.6567
  117MOL0     C15703   6.925   2.916   9.087 -0.0267  0.1976 -0.3557
  117MOL0    Cl15704   6.975   2.935   9.257  0.3963 -0.2214  0.0023
  117MOL0     C15705   5.778   2.970   9.099 -0.8024 -1.1003 -0.0489
  117MOL0     C15706   5.649   2.922   9.096  0.3114  0.1265  0.0217
  117MOL0     O15707   5.388   2.823   9.181  0.1985 -0.3222  0.2572
  117MOL0     C15708   5.142   2.703   9.111 -0.1730 -0.1429  0.5979
  117MOL0     C15709   5.028   2.630   9.069  0.7234  0.0693  0.6103
  117MOL0     N15710   4.649   2.099   8.533 -0.1576  0.1413 -0.1819
  117MOL0     N15711   4.673   1.987   8.490  0.2260 -0.2522 -0.4118
  117MOL0     C15712   5.147   0.977   8.956  0.4101  0.3522 -0.0335
  117MOL0     C15713   5.141   0.849   9.003  0.1996  0.3454 -0.4023
  117MOL0     C15714   5.068   0.487   9.242  0.5185 -1.0061  0.7101
  117MOL0     C15715   5.187   0.463   9.319  1.4977 -0.9543 -0.0418
  117MOL0     C15716   5.226   0.337   9.341 -0.9341 -0.1633  0.3714
  117MOL0     C15717   5.144   0.231   9.300  0.2256  0.1415  0.5523
  117MOL0     O15718   5.180   0.101   9.317 -0.1072  1.0116 -0.0711
  117MOL0     C15719   5.303   0.070   9.384 -0.2647  1.2685 -0.3810
  117MOL0     C15720   5.309  -0.080   9.375 -0.1208 -0.1283 -0.4308
  117MOL0     C15721   5.199  -0.129   9.477 -0.0839 -1.1006  0.4303
  117MOL0     C15722   5.211  -0.280   9.490  0.3134 -0.3313  0.7007
  117MOL0     C15723   5.270  -0.327   9.611 -0.0553 -0.5911  0.9109
  117MOL0     C15724   5.329  -0.362   9.710 -0.2174 -0.0632 -0.0295
  117MOL0     C15725   5.022   0.246   9.238  0.1909 -1.1012 -0.7549
  117MOL0     C15726   4.976   0.373   9.212  0.5927  0.2386 -0.9537
  117MOL0     C15727   4.840   0.391   9.149 -0.4145 -0.6008  0.6434
  117MOL0     H15728   5.134   0.945   9.339 -3.4385  1.1428 -0.0613
  117MOL0     H15729   5.147   1.155   9.245 -3.7329  1.9501 -2.5387
  117MOL0     H15730   5.261   1.207   8.811 -0.2723 -0.8098  0.5625
  117MOL0     H15731   5.091   1.223   8.828  1.3435 -4.3295  1.4918
  117MOL0     H15732   5.235   1.438   8.748 -1.1373  2.7618  0.7047
  117MOL0     H15733   5.324   1.425   8.900  0.8612 -1.8392  0.2348
  117MOL0     H15734   5.182   1.600   8.928  3.4499 -2.0540 -2.1338
  117MOL0     H15735   5.100   1.472   9.020  1.2911  0.7732  0.7685
  117MOL0     H15736   5.051   1.580   8.747 -2.1215 -1.2265 -1.7257
  117MOL0     H15737   4.963   1.447   8.785 -1.8661  0.9041 -0.1260
  117MOL0     H15738   4.862   1.573   9.001  3.1863  0.2495  1.8694
  117MOL0     H15739   4.938   1.711   8.943  0.6688 -0.4389 -0.0155
  117MOL0     H15740   4.754   1.524   8.771  2.0130 -0.3741 -0.0717
  117MOL0     H15741   4.687   1.666   8.839 -1.3563  1.4808 -2.2161
  117MOL0     H15742   4.886   1.634   8.601  1.4117  0.8336  1.4300
  117MOL0     H15743   4.902   1.783   8.691  0.2077  0.4903  0.4514
  117MOL0     H15744   4.756   1.761   8.476 -2.2507  1.5803 -1.7271
  117MOL0     H15745   4.630   1.690   8.597  1.5457 -1.8820  1.8320
  117MOL0     H15746   4.707   1.938   8.804  2.5325  1.3609  0.2675
  117MOL0     H15747   4.558   2.266   8.776 -1.1352 -1.9008 -2.9935
  117MOL0     H15748   4.643   2.153   8.875  0.6332  0.4005  0.5880
  117MOL0     H15749   4.812   2.309   8.887  2.4634  2.5681 -0.8382
  117MOL0     H15750   4.837   2.259   8.708 -1.7046 -0.7852 -0.3271
  117MOL0     H15751   4.646   2.484   8.780 -3.1650 -4.0811 -1.2959
  117MOL0     H15752   4.710   2.440   8.623 -0.9012  0.2757 -0.4732
  117MOL0     H15753   4.850   2.634   8.701  1.2783 -0.0420 -1.1571
  117MOL0     H15754   4.944   2.487   8.696 -0.0890  0.6115  0.0783
  117MOL0     H15755   5.048   2.703   8.742  0.9231 -0.0140 -0.1522
  117MOL0     H15756   5.269   2.822   8.826  0.8291  0.7985  2.8330
  117MOL0     H15757   5.549   3.054   8.794  1.8907  0.3637 -2.1954
  117MOL0     H15758   5.766   3.143   8.795 -2.4327  1.4882 -0.0973
  117MOL0     H15759   6.059   2.946   9.118 -2.0993  1.5378  0.2045
  117MOL0     H15760   6.016   2.891   8.954 -2.7687  0.5613  2.0602
  117MOL0     H15761   6.191   3.019   8.849  0.2653  2.7033  0.5439
  117MOL0     H15762   6.207   3.101   9.010  0.1575 -0.3283 -0.5560
  117MOL0     H15763   6.309   2.939   9.125 -0.9900  4.2779 -1.0018
  117MOL0     H15764   6.274   2.814   9.002  1.6517  0.5250 -1.5096
  117MOL0     H15765   6.435   3.061   8.961  0.9300  0.2245 -0.0088
  117MOL0     H15766   6.437   2.905   8.869  1.6862  0.4071  1.0735
  117MOL0     H15767   6.545   2.780   9.046 -0.5862  0.0354  1.9350
  117MOL0     H15768   6.530   2.911   9.156 -1.2378 -0.0044 -0.0191
  117MOL0     H15769   6.689   2.956   8.915  1.8301 -0.2902  0.4599
  117MOL0     H15770   6.688   3.054   9.058  1.3608  0.3847  2.3245
  117MOL0     H15771   6.798   2.765   9.025  2.7707  0.3357 -1.1877
  117MOL0     H15772   6.763   2.815   9.180 -2.2016  3.9545  0.9658
  117MOL0     H15773   6.987   2.842   9.035 -1.1224 -2.4564  1.8399
  117MOL0     H15774   6.932   3.012   9.035  2.2639 -0.2942 -1.0579
  117MOL0     H15775   5.832   2.955   9.192 -1.4685 -2.4847  0.1393
  117MOL0     H15776   5.605   2.862   9.175 -2.8254 -1.0875 -2.4409
  117MOL0     H15777   5.153   2.720   9.218 -0.4150  2.8953  0.2282
  117MOL0     H15778   4.964   2.595   9.148  1.6492 -1.6876  0.6395
  117MOL0     H15779   5.130   0.988   8.850  3.3092 -2.9907 -1.0480
  117MOL0     H15780   5.141   0.762   8.938  1.3088  1.0497 -1.3928
  117MOL0     H15781   5.250   0.547   9.348 -0.1620 -1.3069  5.6541
  117MOL0     H15782   5.327   0.322   9.379 -1.8233  2.5801  4.3331
  117MOL0     H15783   5.320   0.093   9.489 -2.0882 -2.9535  1.0474
  117MOL0     H15784   5.386   0.118   9.330  0.1730  0.9221 -0.0312
  117MOL0     H15785   5.412  -0.105   9.403  0.1935 -0.6563 -1.9783
  117MOL0     H15786   5.296  -0.119   9.274 -1.1445 -1.2955  0.1218
  117MOL0     H15787   5.101  -0.104   9.435 -1.2032 -2.7251  1.9599
  117MOL0     H15788   5.222  -0.087   9.576  0.6290  1.8803 -0.8894
  117MOL0     H15789   5.109  -0.319   9.494  0.9854 -2.0554  2.1942
  117MOL0     H15790   5.267  -0.324   9.407 -0.5222  0.2840 -0.2191
  117MOL0     H15791   5.378  -0.404   9.795 -0.0489  0.1885 -0.0046
  117MOL0     H15792   4.955   0.163   9.217 -0.4151 -1.1404  1.1857
  117MOL0     H15793   4.771   0.434   9.222  0.0024 -4.0926  3.3650
  117MOL0     H15794   4.835   0.456   9.061 -0.3066  1.4738  2.0943
  117MOL0     H15795   4.804   0.293   9.117  1.0022 -0.3188 -2.1113
  118MOL0     O15796   5.731   4.097   3.385  0.2740  0.1369 -0.0956
  118MOL0     C15797   5.682   3.993   3.427 -0.0137 -1.0337  0.1979
  118MOL0     O15798   5.736   3.919   3.527  0.2541 -0.2481  1.0877
  118MOL0     C15799   5.821   3.967   3.628  0.3144 -0.6225  0.4862
  118MOL0     C15800   5.814   3.900   3.754  0.3043 -0.5322  0.2728
  118MOL0     C15801   5.885   3.946   3.860  0.3214  0.3800 -0.2445
  118MOL0     C15802   5.957   4.062   3.859 -0.4620  0.6833  0.4847
  118MOL0     O15803   6.015   4.116   3.972 -0.2684  0.3084  0.1005
  118MOL0     C15804   5.987   4.040   4.092 -0.2768 -0.5866 -0.1672
  118MOL0     C15805   6.023   4.120   4.222 -0.1098 -0.1483  0.0263
  118MOL0     C15806   6.135   4.047   4.296  0.2017 -1.0507 -0.3297
  118MOL0     C15807   6.167   4.096   4.429  0.4665  0.3489  0.7964
  118MOL0     C15808   6.255   4.000   4.507 -0.7369  0.1427  0.1629
  118MOL0     C15809   6.262   4.028   4.662  0.6903 -0.9288 -0.1631
  118MOL0     C15810   6.156   3.945   4.739 -0.5626 -0.1798 -0.9195
  118MOL0     C15811   6.214   3.827   4.824 -0.5540 -0.3916  0.2385
  118MOL0     N15812   6.269   3.712   4.747  1.0052  0.0847  0.3284
  118MOL0     C15813   6.393   3.667   4.752  0.4594  0.2182 -0.4198
  118MOL0     C15814   6.398   3.583   4.648 -0.2743 -0.1568  0.3071
  118MOL0     C15815   6.511   3.503   4.604  0.4040  1.1090  0.4132
  118MOL0     C15816   6.623   3.602   4.556 -0.3694  0.2537  0.0725
  118MOL0     C15817   6.747   3.549   4.495  0.8414 -0.3089  0.0722
  118MOL0     C15818   6.748   3.482   4.365 -0.0860  0.1974  0.7966
  118MOL0     O15819   6.875   3.415   4.347 -0.8867 -0.1278 -0.6843
  118MOL0     C15820   6.892   3.284   4.389 -0.5135 -0.1117  0.4293
  118MOL0     C15821   6.807   3.220   4.475  0.2914  0.4524 -0.5030
  118MOL0     C15822   6.812   3.084   4.504 -0.3981 -0.6644 -0.3728
  118MOL0     C15823   6.904   3.002   4.438  0.5108 -1.1458 -0.0370
  118MOL0     C15824   6.894   2.859   4.469 -1.2641 -0.4044 -0.5676
  118MOL0     O15825   6.833   2.838   4.591  0.1018  0.4842 -1.1901
  118MOL0     C15826   6.797   2.709   4.623  0.8435 -0.2079  0.5657
  118MOL0     C15827   6.751   2.702   4.759 -0.0661  0.7216 -0.4939
  118MOL0     C15828   6.713   2.578   4.811 -0.1276 -0.7779  0.2616
  118MOL0     C15829   6.716   2.463   4.732  0.2789  0.7443 -0.6145
  118MOL0     O15830   6.664   2.355   4.797 -0.4791  0.2317 -0.1087
  118MOL0     C15831   6.677   2.223   4.750  0.8964 -0.3152  1.4280
  118MOL0     C15832   6.629   2.132   4.865 -0.2214 -0.0928  0.0751
  118MOL0     C15833   6.737   2.135   4.975  0.2086  0.5066 -0.2246
  118MOL0     C15834   6.675   2.051   5.091  0.0080 -0.3816  0.1278
  118MOL0     C15835   6.758   2.028   5.221 -0.3191 -0.0137  0.4499
  118MOL0     C15836   6.751   1.878   5.254 -0.5490  0.3967  0.6202
  118MOL0     C15837   6.810   1.842   5.391 -0.4824 -0.0710  0.6769
  118MOL0     C15838   6.756   1.706   5.428  0.2021 -0.2742  0.9334
  118MOL0    Cl15839   6.627   1.753   5.536 -0.4656  0.5896  0.4407
  118MOL0     C15840   6.756   2.470   4.599 -0.5427  0.3521  0.8873
  118MOL0     C15841   6.804   2.591   4.543  0.7329 -0.6861 -0.2196
  118MOL0     O15842   6.955   2.780   4.403 -1.6643  0.4794  0.1006
  118MOL0     C15843   6.997   3.065   4.348 -0.7376  0.7859  0.5788
  118MOL0     C15844   6.992   3.200   4.328  0.0583  0.2663  0.0516
  118MOL0     N15845   6.285   3.592   4.570 -0.1472  0.5311  0.1141
  118MOL0     N15846   6.200   3.661   4.633  0.2296  0.0684 -0.0877
  118MOL0     C15847   5.971   4.127   3.738  0.3115  1.3159  0.1246
  118MOL0     C15848   5.906   4.081   3.623  0.0080 -0.5272 -0.0047
  118MOL0     C15849   5.559   3.940   3.358 -0.3817 -0.2425  0.8477
  118MOL0     C15850   5.515   4.015   3.242 -0.0662  0.1068 -0.5351
  118MOL0     C15851   5.423   3.960   3.164 -0.5791  0.8289 -0.2797
  118MOL0     C15852   5.367   3.828   3.190  0.1001 -0.7568  0.5181
  118MOL0     O15853   5.298   3.764   3.091  0.9464  0.6163 -0.1404
  118MOL0     C15854   5.187   3.825   3.038  0.0731  0.4634 -0.5173
  118MOL0     C15855   5.087   3.728   2.965  0.0266  0.2747 -0.8177
  118MOL0     C15856   5.038   3.622   3.069 -0.8952 -0.1084  0.2074
  118MOL0     C15857   4.904   3.548   3.021  0.2441 -0.4594  0.2828
  118MOL0     C15858   4.896   3.408   3.063  1.1397  0.0101  0.1214
  118MOL0     C15859   4.903   3.289   3.100 -0.3622 -0.2403 -1.0316
  118MOL0     C15860   5.416   3.754   3.289 -0.8398  0.4459 -0.8121
  118MOL0     C15861   5.509   3.807   3.378  0.7961  0.4876 -0.2855
  118MOL0     C15862   5.545   3.722   3.501  0.4282 -0.4784  0.5678
  118MOL0     H15863   5.763   3.807   3.774  0.4780 -0.3869  1.4659
  118MOL0     H15864   5.873   3.892   3.953  0.0530  1.2414  0.2204
  118MOL0     H15865   5.878   4.030   4.103 -0.1967  0.1825  1.5497
  118MOL0     H15866   6.033   3.941   4.094  1.2976 -0.2075 -4.9698
  118MOL0     H15867   5.937   4.119   4.290  0.0668 -0.3609  0.2456
  118MOL0     H15868   6.054   4.223   4.199 -1.8742 -0.2872 -3.6130
  118MOL0     H15869   6.226   4.048   4.236  1.6434  0.7832  1.7713
  118MOL0     H15870   6.115   3.940   4.311  4.0055 -2.0069 -0.9936
  118MOL0     H15871   6.234   4.183   4.425  0.5408  0.3183  1.2902
  118MOL0     H15872   6.074   4.125   4.479  0.3875 -1.6916  1.9386
  118MOL0     H15873   6.236   3.892   4.498  1.2625 -0.2918  0.5891
  118MOL0     H15874   6.353   4.014   4.461 -0.9949 -2.7234 -1.5365
  118MOL0     H15875   6.363   4.008   4.701 -0.0994  2.2712  4.2349
  118MOL0     H15876   6.238   4.133   4.678  2.5831 -0.7643  2.3281
  118MOL0     H15877   6.085   3.910   4.663 -0.4417 -0.6263 -0.8289
  118MOL0     H15878   6.107   4.017   4.804 -1.3903 -0.2435 -1.4518
  118MOL0     H15879   6.289   3.865   4.894 -2.8191  2.4129  1.3052
  118MOL0     H15880   6.129   3.790   4.882 -0.4039 -4.1012 -1.5592
  118MOL0     H15881   6.472   3.691   4.822 -0.5395 -0.3813  0.9652
  118MOL0     H15882   6.555   3.440   4.682  0.2236 -1.3103 -1.3460
  118MOL0     H15883   6.474   3.441   4.522 -1.2193  3.1268 -0.4606
  118MOL0     H15884   6.582   3.672   4.482  0.4421 -0.8534 -1.4631
  118MOL0     H15885   6.657   3.648   4.650 -0.8884  0.9558 -0.0688
  118MOL0     H15886   6.795   3.484   4.569  3.2398 -3.3792 -3.7537
  118MOL0     H15887   6.810   3.637   4.485  0.1317  0.7400  3.5128
  118MOL0     H15888   6.724   3.558   4.289  1.4075 -1.3019 -1.2616
  118MOL0     H15889   6.663   3.413   4.365 -1.7975  2.1787  2.3979
  118MOL0     H15890   6.740   3.281   4.534  1.5693  0.7627  0.6922
  118MOL0     H15891   6.741   3.051   4.579  0.4548  0.4002  0.9563
  118MOL0     H15892   6.732   2.799   4.805  0.2179  0.4613  0.1851
  118MOL0     H15893   6.696   2.571   4.918  0.6027  0.8858  0.5275
  118MOL0     H15894   6.609   2.211   4.665  2.1637  4.1825 -0.5112
  118MOL0     H15895   6.776   2.192   4.713 -0.0207 -1.7608  0.0612
  118MOL0     H15896   6.532   2.177   4.885 -0.0538  0.7496 -0.8827
  118MOL0     H15897   6.622   2.029   4.828  1.1388 -0.3062  0.3361
  118MOL0     H15898   6.833   2.086   4.959  2.6617  2.6262  5.3992
  118MOL0     H15899   6.752   2.240   5.001  0.8095  0.6743 -1.2097
  118MOL0     H15900   6.651   1.954   5.046  0.4489 -2.1318  3.3751
  118MOL0     H15901   6.573   2.085   5.109  0.1725 -0.3689  1.0897
  118MOL0     H15902   6.707   2.085   5.300 -1.0437  1.6698 -1.1646
  118MOL0     H15903   6.863   2.054   5.210 -0.1990 -1.0435 -1.2047
  118MOL0     H15904   6.648   1.840   5.245 -0.4608  0.4017 -0.7096
  118MOL0     H15905   6.812   1.828   5.178  0.2710 -0.2500  1.6718
  118MOL0     H15906   6.800   1.920   5.467  1.6829  0.6613  0.2805
  118MOL0     H15907   6.916   1.834   5.365 -1.2222  2.5458 -4.1256
  118MOL0     H15908   6.703   1.657   5.345 -0.9233 -0.5586  1.8012
  118MOL0     H15909   6.834   1.647   5.477 -1.2238 -1.1524  2.2064
  118MOL0     H15910   6.750   2.376   4.546 -4.1938 -0.6097  2.6678
  118MOL0     H15911   6.836   2.585   4.439  0.3828  1.0044 -0.4491
  118MOL0     H15912   7.078   3.011   4.301 -1.4601  1.8363 -2.0893
  118MOL0     H15913   7.066   3.237   4.258  1.9640 -1.8401  0.8300
  118MOL0     H15914   6.029   4.219   3.743  3.6322 -0.6098  0.1175
  118MOL0     H15915   5.907   4.152   3.540  1.0745  1.2357  1.4458
  118MOL0     H15916   5.563   4.103   3.201 -1.9254  1.8833  0.9349
  118MOL0     H15917   5.422   4.006   3.066  0.5979 -0.2707 -0.8340
  118MOL0     H15918   5.217   3.890   2.955  1.9939  0.6604  0.2700
  118MOL0     H15919   5.135   3.886   3.112  0.8342  1.6799 -0.9433
  118MOL0     H15920   5.143   3.662   2.898 -0.8415  0.4670 -1.7564
  118MOL0     H15921   5.001   3.779   2.921 -0.0664  0.7576 -0.1039
  118MOL0     H15922   5.009   3.667   3.165 -2.7453  0.6141 -0.6534
  118MOL0     H15923   5.117   3.548   3.086 -1.4042 -0.2166  2.5535
  118MOL0     H15924   4.826   3.602   3.076  1.6672 -0.6521  2.6306
  118MOL0     H15925   4.889   3.556   2.913 -4.7666 -0.3895  0.7225
  118MOL0     H15926   4.906   3.188   3.137  0.8248  0.2950  0.4581
  118MOL0     H15927   5.384   3.652   3.311  0.8317  0.0877  0.1696
  118MOL0     H15928   5.468   3.647   3.522  0.5332 -0.3509  1.4250
  118MOL0     H15929   5.636   3.662   3.489  0.8265  0.3300 -0.6719
  118MOL0     H15930   5.554   3.792   3.584 -0.4172 -2.0558  2.0536
  119MOL0     O15931   7.046   0.085   8.009  0.0741 -0.0993  0.3425
  119MOL0     C15932   6.952   0.085   7.926  0.2849 -0.7420  0.0634
  119MOL0     O15933   6.963   0.052   7.797 -0.6105  0.3402  0.3760
  119MOL0     C15934   7.075   0.092   7.734 -0.0298  0.0997 -0.1994
  119MOL0     C15935   7.117   0.232   7.748  0.5098 -0.1376  0.7886
  119MOL0     C15936   7.237   0.264   7.685  1.1463 -0.1997  0.0034
  119MOL0     C15937   7.315   0.173   7.618 -0.4185  0.4130 -0.9527
  119MOL0     O15938   7.448   0.220   7.577  0.1628 -0.3973  0.7770
  119MOL0     C15939   7.496   0.168   7.454 -0.1625 -0.5625  0.4248
  119MOL0     C15940   7.611   0.237   7.390  0.9475 -1.1737  0.8113
  119MOL0     C15941   7.742   0.163   7.411 -0.1597  1.1992 -0.6790
  119MOL0     C15942   7.791   0.162   7.557 -0.1689 -0.1088 -0.7155
  119MOL0     C15943   7.886   0.051   7.586  0.0498  0.1540 -1.2860
  119MOL0     C15944   8.001   0.032   7.489 -0.0734  0.1368 -0.7436
  119MOL0     C15945   8.087  -0.086   7.533 -0.3379 -0.3088  0.6647
  119MOL0     C15946   8.209  -0.109   7.431 -0.3203  0.9794  0.8175
  119MOL0     N15947   8.282   0.020   7.406  0.0640  0.9351  0.4221
  119MOL0     C15948   8.359   0.086   7.505 -0.1024  0.5241  0.9111
  119MOL0     C15949   8.385   0.201   7.439  0.2090 -0.6438  0.0873
  119MOL0     C15950   8.482   0.308   7.496 -0.4234 -0.0909 -0.0586
  119MOL0     C15951   8.623   0.277   7.442 -0.1418 -0.4448  0.5174
  119MOL0     C15952   8.729   0.320   7.532 -1.0423  0.0625 -0.1284
  119MOL0     C15953   8.741   0.242   7.665  0.1098 -0.9144  0.0779
  119MOL0     O15954   8.876   0.277   7.703 -0.0867  0.5081  0.6834
  119MOL0     C15955   8.908   0.213   7.817  0.0082  0.8004  0.9977
  119MOL0     C15956   8.931   0.280   7.938 -1.1260 -0.3342 -0.0145
  119MOL0     C15957   9.002   0.207   8.032 -0.3246  0.2626 -0.4150
  119MOL0     C15958   9.035   0.073   8.024  0.7194 -0.3462 -0.7222
  119MOL0     C15959   9.128   0.005   8.122  1.0114  0.0794  0.5410
  119MOL0     O15960   9.180  -0.113   8.076  0.0950  0.0754  0.5107
  119MOL0     C15961   9.248  -0.181   8.171 -0.5154  0.2722 -0.0768
  119MOL0     C15962   9.195  -0.296   8.217  0.1484  0.7653  0.3989
  119MOL0     C15963   9.277  -0.376   8.303  1.3868 -1.0114  0.5494
  119MOL0     C15964   9.411  -0.346   8.326 -0.6395 -0.7251 -0.0793
  119MOL0     O15965   9.504  -0.424   8.402  0.4259  0.1473 -0.7031
  119MOL0     C15966   9.450  -0.536   8.471 -0.8204 -0.4490  0.3423
  119MOL0     C15967   9.567  -0.568   8.579  0.2215 -0.1921  0.3680
  119MOL0     C15968   9.578  -0.454   8.691 -0.3087  0.6017  0.2635
  119MOL0     C15969   9.602  -0.532   8.826 -0.2218 -0.2631  0.6808
  119MOL0     C15970   9.616  -0.422   8.939  0.3258  0.5654 -0.1152
  119MOL0     C15971   9.744  -0.338   8.928 -0.3978 -0.2788  0.0369
  119MOL0     C15972   9.777  -0.252   9.053 -0.2113  0.0598 -0.8684
  119MOL0     C15973   9.899  -0.165   9.042  0.1839 -0.5125 -0.7930
  119MOL0    Cl15974   9.889  -0.075   9.201 -0.4619 -0.0413 -0.4325
  119MOL0     C15975   9.456  -0.222   8.271 -0.6480 -0.5055 -1.0608
  119MOL0     C15976   9.375  -0.140   8.198 -0.2027 -0.2051  0.5127
  119MOL0     O15977   9.152   0.061   8.229  0.2070  0.1244  0.3761
  119MOL0     C15978   8.987   0.003   7.912  0.3042 -1.2275 -0.0950
  119MOL0     C15979   8.931   0.077   7.806  0.5466 -0.3972  0.3040
  119MOL0     N15980   8.336   0.203   7.309  0.6729  0.6806 -0.1085
  119MOL0     N15981   8.274   0.093   7.289  0.1180  0.1502 -0.7033
  119MOL0     C15982   7.270   0.047   7.590  0.1160  0.0753  0.0319
  119MOL0     C15983   7.147   0.012   7.649 -0.3745 -0.2987  0.3317
  119MOL0     C15984   6.818   0.103   7.985  0.2975  0.2357  0.9705
  119MOL0     C15985   6.712   0.020   7.931 -0.9083  0.2689  0.1759
  119MOL0     C15986   6.585   0.032   7.984 -0.0492 -0.7028 -0.3092
  119MOL0     C15987   6.551   0.127   8.076  0.8391 -0.2823 -0.2163
  119MOL0     O15988   6.428   0.125   8.128 -0.1450  0.1678 -0.5261
  119MOL0     C15989   6.369   0.253   8.108  0.7931 -0.1905 -0.2581
  119MOL0     C15990   6.359   0.333   8.235  0.4217 -0.0802 -0.4123
  119MOL0     C15991   6.242   0.278   8.322 -0.2234  0.8070 -1.0983
  119MOL0     C15992   6.298   0.187   8.449 -0.8824  0.1622  0.0273
  119MOL0     C15993   6.185   0.159   8.536 -0.9844 -0.3290  0.3731
  119MOL0     C15994   6.095   0.129   8.610 -0.3125  0.4490 -0.0135
  119MOL0     C15995   6.659   0.202   8.140 -0.0995 -1.4802 -0.0287
  119MOL0     C15996   6.789   0.199   8.092 -0.1123  0.0717 -0.2278
  119MOL0     C15997   6.895   0.289   8.138  0.0681 -0.8695  0.3314
  119MOL0     H15998   7.056   0.303   7.803 -2.1602 -0.6118 -1.3340
  119MOL0     H15999   7.271   0.367   7.687 -2.0144  0.9684 -0.9592
  119MOL0     H16000   7.515   0.061   7.454  1.7551 -0.2787 -0.1647
  119MOL0     H16001   7.423   0.197   7.378 -0.5793 -2.2053  0.1609
  119MOL0     H16002   7.630   0.338   7.427  3.3157 -0.9258 -0.8800
  119MOL0     H16003   7.599   0.250   7.282  2.5498  0.9528  0.8264
  119MOL0     H16004   7.806   0.206   7.333 -2.6076  1.7450 -2.4885
  119MOL0     H16005   7.730   0.058   7.383  3.4712 -0.7596  3.7886
  119MOL0     H16006   7.836   0.258   7.583 -0.0051  0.0315 -1.4791
  119MOL0     H16007   7.701   0.153   7.619 -0.6281  1.2001 -1.1442
  119MOL0     H16008   7.923   0.056   7.689  1.3082 -1.1457 -1.6344
  119MOL0     H16009   7.816  -0.033   7.585 -0.1126  0.2883 -1.2246
  119MOL0     H16010   7.958   0.016   7.390 -2.5098  1.5804 -0.0090
  119MOL0     H16011   8.054   0.128   7.483 -3.3628  2.1838  0.7567
  119MOL0     H16012   8.028  -0.178   7.542  0.1043 -0.4172  3.2902
  119MOL0     H16013   8.129  -0.054   7.629 -0.7300  2.9139 -0.1272
  119MOL0     H16014   8.276  -0.181   7.478 -0.4759  3.5194  5.6456
  119MOL0     H16015   8.173  -0.142   7.334 -0.2930 -2.0802  1.7595
  119MOL0     H16016   8.377   0.051   7.606 -0.1183  2.8874  1.8033
  119MOL0     H16017   8.459   0.409   7.460 -2.5816  0.3222  2.2227
  119MOL0     H16018   8.481   0.305   7.605  0.0405  0.0148 -0.0496
  119MOL0     H16019   8.630   0.170   7.419  1.5632 -0.0990 -0.8443
  119MOL0     H16020   8.624   0.320   7.341 -3.1427 -0.9240  0.2055
  119MOL0     H16021   8.737   0.428   7.543  2.2017  0.0035 -0.7507
  119MOL0     H16022   8.823   0.297   7.480  0.0492  1.5649  1.0734
  119MOL0     H16023   8.726   0.135   7.647  0.0980 -0.4580 -3.3461
  119MOL0     H16024   8.673   0.285   7.739  0.6362  3.1910 -1.5282
  119MOL0     H16025   8.905   0.385   7.943  2.2906  1.0606 -4.3237
  119MOL0     H16026   9.027   0.252   8.127 -4.4594 -1.7042  1.8974
  119MOL0     H16027   9.091  -0.321   8.200  0.6241 -4.1192  2.6784
  119MOL0     H16028   9.223  -0.462   8.341 -0.9598  1.4361  3.2511
  119MOL0     H16029   9.357  -0.512   8.524  0.0148  4.1725  0.0905
  119MOL0     H16030   9.437  -0.622   8.405  1.3323 -1.9320  1.7072
  119MOL0     H16031   9.539  -0.669   8.609 -3.3211  0.1483 -1.3314
  119MOL0     H16032   9.664  -0.578   8.528  2.3738  0.6172  3.9261
  119MOL0     H16033   9.660  -0.387   8.666 -1.6798  1.8298 -1.1419
  119MOL0     H16034   9.488  -0.394   8.710  1.1742  1.6366  5.5653
  119MOL0     H16035   9.687  -0.600   8.832  1.3462  1.5160  0.0119
  119MOL0     H16036   9.508  -0.582   8.851 -2.0681  0.7944 -3.2147
  119MOL0     H16037   9.617  -0.469   9.037 -2.4159  1.2222  0.3107
  119MOL0     H16038   9.535  -0.348   8.942 -0.0301  0.1501  1.6970
  119MOL0     H16039   9.833  -0.394   8.899 -1.3712 -2.2045  0.6121
  119MOL0     H16040   9.718  -0.271   8.845 -2.9890 -0.6618  0.4476
  119MOL0     H16041   9.795  -0.315   9.141  0.0000  0.9356 -0.2633
  119MOL0     H16042   9.686  -0.197   9.081 -1.3240 -0.8679 -2.4884
  119MOL0     H16043   9.989  -0.226   9.033  0.4839 -0.9846  3.4856
  119MOL0     H16044   9.890  -0.090   8.963 -3.4374 -1.8647 -1.8769
  119MOL0     H16045   9.560  -0.195   8.281 -1.1593  1.4818 -0.5608
  119MOL0     H16046   9.423  -0.047   8.172  0.5082 -0.1504  1.9479
  119MOL0     H16047   9.006  -0.104   7.909  2.9049 -0.9082  1.9513
  119MOL0     H16048   8.902   0.033   7.711 -2.0161 -0.5762  1.0783
  119MOL0     H16049   7.329  -0.019   7.527  2.5237  2.6338 -0.5518
  119MOL0     H16050   7.120  -0.091   7.626  1.4282 -0.5161 -1.0301
  119MOL0     H16051   6.727  -0.043   7.844  1.4527  2.1213 -0.8468
  119MOL0     H16052   6.510  -0.033   7.940  2.7040 -5.1348  0.9373
  119MOL0     H16053   6.267   0.232   8.075 -0.8029 -0.7292  4.2631
  119MOL0     H16054   6.415   0.314   8.030 -3.9917  0.0728 -3.3412
  119MOL0     H16055   6.327   0.432   8.201  0.5926  0.0823 -0.1105
  119MOL0     H16056   6.448   0.342   8.298 -1.1909  0.3802  1.9330
  119MOL0     H16057   6.175   0.214   8.264  0.7043  0.1901 -1.5184
  119MOL0     H16058   6.187   0.368   8.351  1.3752  1.2289  0.9118
  119MOL0     H16059   6.336   0.088   8.423  2.1331  1.3752 -0.5174
  119MOL0     H16060   6.372   0.247   8.501  1.5811 -1.5734 -1.2935
  119MOL0     H16061   6.025   0.072   8.667  2.2976 -3.6292 -0.4667
  119MOL0     H16062   6.629   0.265   8.223 -1.4153 -0.2437 -1.3810
  119MOL0     H16063   6.859   0.336   8.230 -2.1791 -1.4954 -0.1784
  119MOL0     H16064   6.992   0.246   8.164  0.1480 -1.6483 -1.1544
  119MOL0     H16065   6.923   0.365   8.064  1.6076 -3.2442 -1.6871
  120MOL0     O16066  10.042   2.360  10.641 -0.2950 -0.3648 -0.2869
  120MOL0     C16067   9.991   2.377  10.749 -1.0098  0.2530 -0.3754
  120MOL0     O16068   9.960   2.286  10.843  1.0521  0.5583 -0.3831
  120MOL0     C16069   9.985   2.151  10.817 -0.4193  0.1580 -0.0813
  120MOL0     C16070  10.104   2.083  10.860 -0.0083  0.0217 -0.4635
  120MOL0     C16071  10.111   1.938  10.857  0.0732 -0.8058  0.2096
  120MOL0     C16072  10.004   1.862  10.799 -0.8020  0.1744  0.2605
  120MOL0     O16073   9.998   1.724  10.780  0.2242  0.6639 -0.2839
  120MOL0     C16074  10.126   1.655  10.786  0.9579  1.3496 -0.3233
  120MOL0     C16075  10.109   1.511  10.730  1.4827  0.0535  0.0830
  120MOL0     C16076  10.250   1.444  10.716 -0.1487  0.4727 -0.4102
  120MOL0     C16077  10.281   1.332  10.618  0.3565  1.3030  0.1149
  120MOL0     C16078  10.317   1.380  10.481  0.1394 -0.4425 -0.0593
  120MOL0     C16079  10.346   1.273  10.383 -0.9246 -0.6231 -0.1376
  120MOL0     C16080  10.442   1.155  10.419  0.3735 -0.3862  0.3163
  120MOL0     C16081  10.371   1.015  10.438  0.1853 -1.4132 -0.1886
  120MOL0     N16082  10.266   1.009  10.546 -0.1863 -0.0776 -0.0877
  120MOL0     C16083  10.132   1.021  10.536  0.1397 -0.1366  0.1685
  120MOL0     C16084  10.093   0.999  10.666 -0.0237 -0.4406 -0.2294
  120MOL0     C16085   9.957   1.016  10.712 -0.5308 -1.0717  0.8518
  120MOL0     C16086   9.933   1.146  10.785  0.3333  0.2227  0.0288
  120MOL0     C16087   9.981   1.140  10.928  0.1327  0.0721  0.3470
  120MOL0     C16088   9.924   1.257  11.008  0.3071 -0.5847  0.2318
  120MOL0     O16089   9.787   1.247  11.025 -0.0390 -0.0892 -0.3852
  120MOL0     C16090   9.718   1.364  11.010  0.2779  0.6372  0.8078
  120MOL0     C16091   9.608   1.380  11.093  0.9477 -0.8752  0.0216
  120MOL0     C16092   9.526   1.493  11.100  0.5940 -0.3990  0.7010
  120MOL0     C16093   9.559   1.593  11.006 -0.8062 -1.0774 -0.6401
  120MOL0     C16094   9.482   1.718  10.998  0.2153  0.5105 -0.1730
  120MOL0     O16095   9.537   1.802  10.904  0.4407 -0.1223  0.0001
  120MOL0     C16096   9.469   1.914  10.885  0.3651  0.5296 -0.0445
  120MOL0     C16097   9.495   2.031  10.961 -0.4809 -1.1337  0.0488
  120MOL0     C16098   9.405   2.141  10.956 -0.2213 -0.2009 -0.5472
  120MOL0     C16099   9.299   2.145  10.858 -0.5720 -0.6156 -1.3041
  120MOL0     O16100   9.211   2.251  10.858 -0.2503 -0.4537 -0.1600
  120MOL0     C16101   9.210   2.348  10.749  0.1569 -0.4528 -0.8779
  120MOL0     C16102   9.065   2.395  10.763 -0.7603  0.2001  0.0681
  120MOL0     C16103   9.044   2.474  10.889 -0.1772 -0.8778 -0.1820
  120MOL0     C16104   9.096   2.630  10.883 -0.5502  0.7257 -0.1353
  120MOL0     C16105   8.990   2.716  10.818  0.5145  0.6288  0.0160
  120MOL0     C16106   9.040   2.857  10.791 -0.0662 -0.8427 -0.2979
  120MOL0     C16107   8.923   2.941  10.728 -0.3656  0.7063  0.2666
  120MOL0     C16108   8.952   3.088  10.725  0.1596 -0.0374  0.3581
  120MOL0    Cl16109   8.801   3.152  10.651 -0.2564 -0.3145  0.2284
  120MOL0     C16110   9.278   2.032  10.785 -0.1944  0.5267 -0.5219
  120MOL0     C16111   9.356   1.918  10.801  0.1235 -0.0482 -0.5471
  120MOL0     O16112   9.373   1.737  11.057 -0.0915  0.2126  0.0868
  120MOL0     C16113   9.670   1.567  10.917 -1.1914  0.1285  0.1994
  120MOL0     C16114   9.736   1.458  10.910  0.0216  0.2069  0.5908
  120MOL0     N16115  10.200   0.975  10.747 -0.4359  0.7337 -0.0253
  120MOL0     N16116  10.306   0.986  10.676  0.5199  0.3122  0.1851
  120MOL0     C16117   9.887   1.930  10.766 -0.1265  0.2258 -0.6215
  120MOL0     C16118   9.883   2.066  10.778 -0.6921 -0.2287 -0.3730
  120MOL0     C16119   9.972   2.517  10.778 -0.6187 -0.0486 -0.3541
  120MOL0     C16120  10.077   2.601  10.741 -0.3404 -0.6224 -0.4365
  120MOL0     C16121  10.075   2.739  10.771 -0.1593 -0.2194  0.0107
  120MOL0     C16122   9.977   2.792  10.856 -0.3949 -0.1763 -0.5268
  120MOL0     O16123   9.987   2.916  10.904 -1.0057 -0.5072  0.3389
  120MOL0     C16124   9.887   2.989  10.977 -0.0389 -0.1466 -0.8269
  120MOL0     C16125   9.863   3.112  10.897  0.1842 -0.0607  0.3826
  120MOL0     C16126   9.754   3.208  10.948 -0.4287 -0.0526  0.1678
  120MOL0     C16127   9.759   3.349  10.888  0.0577  0.7639  0.1339
  120MOL0     C16128   9.723   3.347  10.742 -0.5003  0.6894  0.2618
  120MOL0     C16129   9.689   3.371  10.630  0.7591  0.0349  0.1887
  120MOL0     C16130   9.869   2.710  10.889 -0.4623  0.6706 -0.3543
  120MOL0     C16131   9.860   2.578  10.847  0.1303  0.3125 -0.3032
  120MOL0     C16132   9.762   2.488  10.911  0.6423 -0.1498 -0.1111
  120MOL0     H16133  10.187   2.141  10.898  0.0721 -0.2323 -0.2574
  120MOL0     H16134  10.201   1.895  10.898  0.6949  0.5621  0.3379
  120MOL0     H16135  10.198   1.717  10.733  0.8466  2.7353  1.0719
  120MOL0     H16136  10.156   1.650  10.891  5.0342 -0.1408 -1.3991
  120MOL0     H16137  10.055   1.514  10.635  1.1710  0.6278  0.2716
  120MOL0     H16138  10.047   1.460  10.804 -1.4430  5.5871  2.0114
  120MOL0     H16139  10.273   1.391  10.809 -0.9646  1.5126  0.4148
  120MOL0     H16140  10.323   1.520  10.689  0.0550 -0.1148 -1.5995
  120MOL0     H16141  10.367   1.290  10.672 -0.2888  1.7886  1.5605
  120MOL0     H16142  10.212   1.247  10.617  1.2618  0.5461 -1.0172
  120MOL0     H16143  10.231   1.431  10.437 -1.7837 -1.2968  2.4242
  120MOL0     H16144  10.408   1.439  10.495  1.1148 -2.0934  1.0131
  120MOL0     H16145  10.248   1.228  10.365 -1.9935  1.7969 -0.7506
  120MOL0     H16146  10.384   1.310  10.287  2.9530  0.4738  1.6248
  120MOL0     H16147  10.505   1.176  10.506  1.0738 -3.5502  0.6900
  120MOL0     H16148  10.506   1.139  10.331 -0.0702  0.0763 -0.0996
  120MOL0     H16149  10.326   0.984  10.344  1.5513 -2.9736 -0.3743
  120MOL0     H16150  10.442   0.940  10.475 -0.5224 -2.4727 -0.9176
  120MOL0     H16151  10.063   1.055  10.459 -0.9778  0.7791  1.5038
  120MOL0     H16152   9.896   1.008  10.621  2.2848 -3.5943 -1.0238
  120MOL0     H16153   9.926   0.930  10.772  0.4014 -2.1001 -0.0970
  120MOL0     H16154   9.995   1.219  10.731 -2.2568  0.9849 -2.1200
  120MOL0     H16155   9.825   1.164  10.790  0.2101 -0.7350  3.5568
  120MOL0     H16156  10.090   1.146  10.931  0.1680 -0.5947  0.6880
  120MOL0     H16157   9.952   1.049  10.981 -0.0165 -0.2026 -0.1972
  120MOL0     H16158   9.955   1.340  10.944  1.9311 -3.5565 -3.2467
  120MOL0     H16159   9.981   1.261  11.102  2.9402 -0.0005 -1.2895
  120MOL0     H16160   9.586   1.305  11.168  1.8580 -0.3520  0.8347
  120MOL0     H16161   9.447   1.503  11.173  2.2594 -0.1670  2.5484
  120MOL0     H16162   9.592   2.038  11.010  0.0122 -0.8018 -0.9567
  120MOL0     H16163   9.409   2.214  11.037  3.7889 -2.6776  1.8684
  120MOL0     H16164   9.277   2.432  10.771  0.3507 -1.2409  1.9586
  120MOL0     H16165   9.229   2.314  10.647 -2.4582 -0.5962 -1.3870
  120MOL0     H16166   9.054   2.469  10.683  0.8439  3.3491  2.5456
  120MOL0     H16167   8.996   2.310  10.762 -0.0077 -0.4224 -1.4993
  120MOL0     H16168   8.935   2.477  10.897 -0.0154  0.1808  3.1811
  120MOL0     H16169   9.075   2.424  10.981 -0.6621  0.6219  0.8413
  120MOL0     H16170   9.198   2.641  10.845 -1.0320 -0.9221 -2.0798
  120MOL0     H16171   9.108   2.655  10.989 -0.0103 -0.3972  0.0819
  120MOL0     H16172   8.898   2.708  10.877  0.5609  1.5103  0.2131
  120MOL0     H16173   8.972   2.671  10.719  0.3082  0.5914  0.0697
  120MOL0     H16174   9.063   2.910  10.884 -0.8991  0.2167 -0.6790
  120MOL0     H16175   9.115   2.848  10.712  0.0940 -2.5462  0.0102
  120MOL0     H16176   8.825   2.926  10.776  0.7510  2.2122  3.2590
  120MOL0     H16177   8.908   2.908  10.625 -1.0223 -1.1320  0.8977
  120MOL0     H16178   8.962   3.127  10.827  1.3903  0.4528  0.0675
  120MOL0     H16179   9.041   3.116  10.669 -1.0289  1.1426 -1.0272
  120MOL0     H16180   9.189   2.049  10.725 -1.6963  2.3661  2.0045
  120MOL0     H16181   9.323   1.833  10.742 -2.2895  0.3346  0.1201
  120MOL0     H16182   9.695   1.643  10.844 -2.5257  2.1315  1.7087
  120MOL0     H16183   9.805   1.447  10.827 -0.6887 -3.5934  0.3267
  120MOL0     H16184   9.795   1.874  10.751  0.4047 -0.7425 -0.3255
  120MOL0     H16185   9.786   2.114  10.776  1.0737  3.6523 -1.5418
  120MOL0     H16186  10.164   2.561  10.691 -0.5043 -0.6979 -0.6605
  120MOL0     H16187  10.159   2.804  10.753 -0.8948  0.8460  0.2937
  120MOL0     H16188   9.930   3.007  11.076  2.2748 -1.0267 -1.5986
  120MOL0     H16189   9.796   2.931  10.992  1.7334 -3.1233 -0.9662
  120MOL0     H16190   9.813   3.077  10.807 -4.0447  1.9289  1.7186
  120MOL0     H16191   9.952   3.169  10.869 -1.2556  1.7023 -0.7757
  120MOL0     H16192   9.769   3.215  11.056  0.7549  0.7690 -0.0286
  120MOL0     H16193   9.654   3.172  10.923 -0.6234  1.0532 -0.7167
  120MOL0     H16194   9.683   3.409  10.939 -0.4990 -0.6075  0.9757
  120MOL0     H16195   9.855   3.401  10.896  0.1542  0.5995  0.0405
  120MOL0     H16196   9.659   3.382  10.528  0.7996  2.1701  0.3512
  120MOL0     H16197   9.783   2.732  10.951 -0.2585  1.2837 -0.2789
  120MOL0     H16198   9.692   2.542  10.976  2.0472 -0.1607  1.4634
  120MOL0     H16199   9.692   2.436  10.845 -0.2831  0.7627  0.1095
  120MOL0     H16200   9.815   2.417  10.975  0.2071 -0.2230  0.1717
  121MOL0     O16201   9.278  10.256   0.133 -0.3492 -0.3914 -1.0496
  121MOL0     C16202   9.212  10.251   0.028  0.4823  0.2915 -0.0275
  121MOL0     O16203   9.148  10.138  -0.018  0.4698 -0.6712  0.0695
  121MOL0     C16204   9.165  10.026   0.044 -0.4351  0.1201  0.0843
  121MOL0     C16205   9.158  10.000   0.181 -0.1881 -0.3288  0.2816
  121MOL0     C16206   9.161   9.870   0.232 -0.1938 -0.0077  0.2503
  121MOL0     C16207   9.177   9.755   0.150 -0.0746 -0.3866  0.1382
  121MOL0     O16208   9.213   9.630   0.198  0.0207  0.1017 -0.2220
  121MOL0     C16209   9.112   9.537   0.193 -0.0122  0.5914 -0.5709
  121MOL0     C16210   9.168   9.395   0.223 -0.2031 -0.7838 -0.0078
  121MOL0     C16211   9.192   9.369   0.375  0.1475 -0.9332 -0.9048
  121MOL0     C16212   9.243   9.226   0.402 -0.7322 -0.6070 -0.2198
  121MOL0     C16213   9.145   9.118   0.369  0.2659  0.9246 -0.3518
  121MOL0     C16214   9.192   8.975   0.405 -0.4426  1.3409 -0.4715
  121MOL0     C16215   9.325   8.945   0.346 -0.6533  0.4346  0.3904
  121MOL0     C16216   9.364   8.802   0.354  0.2019  0.2364 -0.2859
  121MOL0     N16217   9.486   8.772   0.283  0.0511 -0.3757  0.4650
  121MOL0     C16218   9.505   8.752   0.145 -0.6852 -0.3382  0.8585
  121MOL0     C16219   9.641   8.727   0.134  0.0350 -0.4456  1.1577
  121MOL0     C16220   9.719   8.682   0.002  0.8127 -0.2350 -0.4977
  121MOL0     C16221   9.722   8.528  -0.018 -0.7263  0.1603 -0.2472
  121MOL0     C16222   9.749   8.506  -0.160  0.3648  0.5974 -0.0776
  121MOL0     C16223   9.724   8.359  -0.211 -0.6705  0.0032  0.2447
  121MOL0     O16224   9.847   8.281  -0.185 -0.3287 -0.2786  0.2014
  121MOL0     C16225   9.949   8.307  -0.274  0.5344  0.6389  0.4195
  121MOL0     C16226  10.072   8.322  -0.214 -0.2444  0.0359  0.3627
  121MOL0     C16227  10.183   8.349  -0.297 -0.0153 -0.1108 -1.0403
  121MOL0     C16228  10.172   8.350  -0.438  0.2836  0.8548  0.3380
  121MOL0     C16229  10.277   8.384  -0.527 -0.1925 -0.4985 -0.0499
  121MOL0     O16230  10.394   8.408  -0.467 -0.4285  0.5696 -0.3966
  121MOL0     C16231  10.496   8.450  -0.539 -0.4302 -0.6087  0.2452
  121MOL0     C16232  10.596   8.523  -0.467  0.9879 -0.3569 -0.2301
  121MOL0     C16233  10.719   8.563  -0.524 -0.8560 -0.0600 -0.9107
  121MOL0     C16234  10.743   8.524  -0.660  0.2040 -0.4446 -0.2858
  121MOL0     O16235  10.857   8.566  -0.723 -0.1038 -0.2213 -0.8626
  121MOL0     C16236  10.893   8.514  -0.852  0.9246 -0.4624  0.3950
  121MOL0     C16237  11.020   8.593  -0.903 -0.5954 -0.1180  0.4733
  121MOL0     C16238  11.106   8.658  -0.792 -0.3730  0.5445 -1.3723
  121MOL0     C16239  11.203   8.767  -0.835 -0.6615 -0.1487 -0.0570
  121MOL0     C16240  11.302   8.809  -0.731  0.0882  0.2496  0.3638
  121MOL0     C16241  11.406   8.917  -0.784  1.2091 -0.8197  0.7268
  121MOL0     C16242  11.410   9.035  -0.692 -0.7900 -0.0545 -0.5380
  121MOL0     C16243  11.541   9.119  -0.710  0.5600  0.3769 -0.2823
  121MOL0    Cl16244  11.652   9.087  -0.581 -0.1582  0.5238  0.2355
  121MOL0     C16245  10.647   8.447  -0.722 -0.1114  0.0270 -0.5021
  121MOL0     C16246  10.531   8.400  -0.659  0.0442 -0.1685 -0.2405
  121MOL0     O16247  10.252   8.407  -0.642 -0.2507  0.6697  0.3425
  121MOL0     C16248  10.037   8.328  -0.497 -0.1583 -0.2402 -0.1676
  121MOL0     C16249   9.931   8.307  -0.409  0.5072 -0.0387  0.8418
  121MOL0     N16250   9.699   8.752   0.254  0.3560  0.5532 -0.2851
  121MOL0     N16251   9.611   8.773   0.346  0.4725 -0.0504  0.1276
  121MOL0     C16252   9.192   9.785   0.022 -0.0100 -0.1231 -0.5683
  121MOL0     C16253   9.184   9.910  -0.031  0.1918  0.1374 -0.1761
  121MOL0     C16254   9.194  10.353  -0.070  0.3774  0.1032  0.3895
  121MOL0     C16255   9.132  10.333  -0.203  0.4263  0.8966 -0.5015
  121MOL0     C16256   9.123  10.431  -0.292 -0.1074  0.1018 -0.2478
  121MOL0     C16257   9.177  10.556  -0.270 -0.9010 -0.2402  0.9927
  121MOL0     O16258   9.178  10.648  -0.375  0.4796  0.2752 -0.2715
  121MOL0     C16259   9.074  10.751  -0.365  0.6081 -0.1356  0.2468
  121MOL0     C16260   9.010  10.803  -0.494  0.1984  0.0531 -0.1538
  121MOL0     C16261   8.919  10.922  -0.476 -0.2896  0.3407  0.4531
  121MOL0     C16262   8.907  11.007  -0.606  0.0509 -0.5705 -0.1724
  121MOL0     C16263   8.851  10.930  -0.719  0.7850 -0.2943  0.6090
  121MOL0     C16264   8.815  10.865  -0.818  0.5476 -0.6554  0.2239
  121MOL0     C16265   9.238  10.580  -0.147  0.9906  0.7086 -0.4779
  121MOL0     C16266   9.247  10.483  -0.043 -0.0241  0.2082  0.3016
  121MOL0     C16267   9.308  10.538   0.084  0.2823 -0.2127 -0.7235
  121MOL0     H16268   9.133  10.090   0.237  1.0090 -0.4131  1.0042
  121MOL0     H16269   9.143   9.840   0.335  0.9695 -1.7398 -0.0153
  121MOL0     H16270   9.037   9.560   0.270  0.4541 -0.0411  0.0884
  121MOL0     H16271   9.060   9.534   0.097 -0.6781 -4.2943 -0.3500
  121MOL0     H16272   9.253   9.390   0.154  0.0629  3.9807 -0.3321
  121MOL0     H16273   9.084   9.329   0.201 -0.8528  0.4743 -1.4385
  121MOL0     H16274   9.104   9.387   0.438  1.3312  0.5624  0.4114
  121MOL0     H16275   9.273   9.435   0.408  0.5656 -0.2267 -3.2036
  121MOL0     H16276   9.342   9.210   0.358  0.0606  0.0486  1.2511
  121MOL0     H16277   9.261   9.207   0.508  2.4150 -1.7615 -0.8434
  121MOL0     H16278   9.054   9.139   0.426  0.2074  1.5133 -0.6486
  121MOL0     H16279   9.110   9.123   0.265 -0.7217  0.8023 -0.0361
  121MOL0     H16280   9.202   8.958   0.513 -0.0295  0.6375 -0.6107
  121MOL0     H16281   9.119   8.902   0.370  0.2911  2.4258 -4.8474
  121MOL0     H16282   9.404   8.995   0.403  0.8060 -1.5713  0.2466
  121MOL0     H16283   9.338   8.975   0.242  0.6768 -2.3567 -0.3373
  121MOL0     H16284   9.382   8.781   0.460  0.6054 -0.6553 -0.5253
  121MOL0     H16285   9.278   8.740   0.325 -0.4056  1.1064 -0.3840
  121MOL0     H16286   9.436   8.735   0.062  2.4087 -3.6729 -1.3074
  121MOL0     H16287   9.675   8.744  -0.076 -2.7339  3.2864  3.7266
  121MOL0     H16288   9.821   8.721   0.012  0.3931  1.1539 -1.4067
  121MOL0     H16289   9.798   8.479   0.043 -0.8947 -1.6714 -1.4263
  121MOL0     H16290   9.620   8.495   0.004  0.4716 -3.8929  0.0624
  121MOL0     H16291   9.853   8.533  -0.181  0.2782  1.6224  0.7263
  121MOL0     H16292   9.696   8.577  -0.224  2.5015  1.7852 -0.6664
  121MOL0     H16293   9.698   8.370  -0.317  2.4585  0.2052 -0.6037
  121MOL0     H16294   9.636   8.321  -0.159 -0.9133  1.5046  0.9678
  121MOL0     H16295  10.080   8.307  -0.107  0.9815  0.5926  0.3643
  121MOL0     H16296  10.280   8.356  -0.249  0.1674 -0.4730 -1.3534
  121MOL0     H16297  10.580   8.560  -0.366  0.6985 -2.5287  0.5838
  121MOL0     H16298  10.784   8.620  -0.459 -0.6560 -2.2604  0.9188
  121MOL0     H16299  10.921   8.408  -0.852 -3.5074 -1.8200  1.6904
  121MOL0     H16300  10.814   8.537  -0.923  1.7055 -0.6506 -0.5562
  121MOL0     H16301  11.074   8.533  -0.977 -0.8956 -2.3726  1.9803
  121MOL0     H16302  10.988   8.682  -0.957  2.5182  1.3890  0.8571
  121MOL0     H16303  11.054   8.701  -0.706 -2.1187 -0.7387 -1.7218
  121MOL0     H16304  11.173   8.574  -0.772 -0.4263  0.0521 -3.0756
  121MOL0     H16305  11.128   8.843  -0.857 -0.3720  0.5593  1.2831
  121MOL0     H16306  11.249   8.732  -0.928 -4.0793 -0.5889 -1.7514
  121MOL0     H16307  11.356   8.720  -0.697  1.3304 -0.5545 -3.2468
  121MOL0     H16308  11.242   8.844  -0.647  2.2878 -1.4692  2.8198
  121MOL0     H16309  11.495   8.860  -0.811 -0.1026 -2.3900 -0.5126
  121MOL0     H16310  11.360   8.950  -0.878  4.4145  1.1461 -0.3359
  121MOL0     H16311  11.401   8.987  -0.594 -5.9670  1.2289 -0.0814
  121MOL0     H16312  11.322   9.099  -0.705 -0.2043  1.1936  1.1848
  121MOL0     H16313  11.584   9.108  -0.810  1.2718  1.1112 -0.0586
  121MOL0     H16314  11.511   9.223  -0.699 -1.6187 -0.2757  0.5961
  121MOL0     H16315  10.664   8.413  -0.823 -0.3252  0.5984 -0.7340
  121MOL0     H16316  10.478   8.315  -0.702  1.7747 -0.1854 -2.5396
  121MOL0     H16317  10.019   8.339  -0.603  3.9677  2.7700 -0.8064
  121MOL0     H16318   9.830   8.287  -0.443  0.4201  0.5537  0.7420
  121MOL0     H16319   9.223   9.717  -0.058 -4.1084 -1.1829 -1.4765
  121MOL0     H16320   9.179   9.913  -0.140 -0.4051  2.8075 -0.1482
  121MOL0     H16321   9.070  10.245  -0.221 -0.5796  1.5172 -0.1625
  121MOL0     H16322   9.066  10.407  -0.381 -0.3083 -0.4754  0.0304
  121MOL0     H16323   9.129  10.831  -0.314  2.8485 -1.8276  0.6397
  121MOL0     H16324   8.990  10.740  -0.296 -2.8938 -0.1017 -3.6133
  121MOL0     H16325   8.957  10.729  -0.555  0.9820  1.0018 -2.0749
  121MOL0     H16326   9.089  10.844  -0.557 -2.6188 -0.7563 -4.7564
  121MOL0     H16327   8.952  10.984  -0.392 -0.6338  0.8776  0.1927
  121MOL0     H16328   8.821  10.881  -0.453 -0.2647  0.3099  0.5041
  121MOL0     H16329   8.843  11.094  -0.586  0.6913 -0.2357  0.4533
  121MOL0     H16330   9.006  11.036  -0.642 -0.6710  3.8878  0.7861
  121MOL0     H16331   8.791  10.800  -0.900  2.6672 -3.7084  1.8195
  121MOL0     H16332   9.296  10.672  -0.145  0.8239  0.8960 -2.5127
  121MOL0     H16333   9.328  10.645   0.075 -2.0040  0.3937  0.6095
  121MOL0     H16334   9.230  10.528   0.160  0.9223 -1.4002 -0.1937
  121MOL0     H16335   9.394  10.479   0.119  0.0303 -0.2852 -0.2078
  122MOL0     O16336   5.094   0.162   2.885  0.3450  0.5080 -0.5215
  122MOL0     C16337   4.993   0.211   2.830  0.3384  1.0879 -0.2437
  122MOL0     O16338   4.879   0.144   2.812 -0.5250 -0.0311  0.0925
  122MOL0     C16339   4.857   0.006   2.823 -0.1090 -0.5917  0.5346
  122MOL0     C16340   4.723  -0.037   2.817  0.6913  0.7489 -0.8144
  122MOL0     C16341   4.684  -0.164   2.849  0.2601  0.3351 -0.6022
  122MOL0     C16342   4.781  -0.261   2.876  0.4586  0.7854  0.1073
  122MOL0     O16343   4.740  -0.390   2.902  0.1827 -0.9089  0.4229
  122MOL0     C16344   4.796  -0.504   2.846  0.4044 -0.8949  0.1812
  122MOL0     C16345   4.893  -0.588   2.933 -0.1970  0.1618  0.2755
  122MOL0     C16346   4.894  -0.727   2.882  1.2348 -0.8788  0.3104
  122MOL0     C16347   4.999  -0.821   2.939  0.0707  0.6188  0.0056
  122MOL0     C16348   5.145  -0.790   2.911  0.5954 -0.1840  0.0087
  122MOL0     C16349   5.226  -0.925   2.905  0.2911 -0.4051  0.6928
  122MOL0     C16350   5.260  -0.982   3.049 -0.1138  0.2728 -0.9393
  122MOL0     C16351   5.323  -1.124   3.040  0.8316 -0.9488  0.6409
  122MOL0     N16352   5.363  -1.181   3.167  0.1493 -0.5232  0.4612
  122MOL0     C16353   5.413  -1.106   3.269 -0.0280 -1.1744  0.2992
  122MOL0     C16354   5.416  -1.191   3.375  0.4175  0.1923 -0.2985
  122MOL0     C16355   5.478  -1.160   3.512 -0.5936  0.3392 -0.2220
  122MOL0     C16356   5.628  -1.141   3.483  0.1320  0.4784 -0.1668
  122MOL0     C16357   5.701  -1.098   3.608  0.0724  0.1945  0.4577
  122MOL0     C16358   5.847  -1.143   3.600  0.3191 -0.0642 -1.2091
  122MOL0     O16359   5.914  -1.103   3.724  0.5561  0.3345  0.0560
  122MOL0     C16360   5.932  -0.973   3.729  0.6773 -0.5235  0.5841
  122MOL0     C16361   5.888  -0.905   3.841  0.3440  0.2139 -0.3401
  122MOL0     C16362   5.911  -0.770   3.866 -0.4005 -0.9080 -0.1015
  122MOL0     C16363   5.985  -0.702   3.769 -0.5711  0.0269  0.8300
  122MOL0     C16364   6.015  -0.558   3.791  0.3912  0.3376  0.2359
  122MOL0     O16365   6.016  -0.517   3.923 -0.1052 -1.0038  0.2308
  122MOL0     C16366   6.048  -0.386   3.942 -0.9671 -0.9571  0.9358
  122MOL0     C16367   6.174  -0.362   4.006 -0.1427 -0.7247  0.0615
  122MOL0     C16368   6.208  -0.233   4.059  0.0044  0.0619 -0.2239
  122MOL0     C16369   6.130  -0.118   4.025  0.2988  1.0929 -0.4469
  122MOL0     O16370   6.178   0.009   4.058 -0.2387  0.2787  0.0516
  122MOL0     C16371   6.136   0.129   3.994 -0.1609  0.4627  0.2082
  122MOL0     C16372   6.232   0.229   4.060  0.1387 -0.7993  0.1461
  122MOL0     C16373   6.376   0.210   4.038  0.2376 -0.5923 -0.7552
  122MOL0     C16374   6.430   0.176   3.896  0.0256  0.3813 -0.5376
  122MOL0     C16375   6.447   0.301   3.818 -0.0852  0.7018 -1.2212
  122MOL0     C16376   6.478   0.279   3.671  0.9158 -0.0319 -0.6245
  122MOL0     C16377   6.544   0.416   3.624  0.7229  0.4798  0.6512
  122MOL0     C16378   6.568   0.433   3.475 -0.4350  0.0663 -0.6336
  122MOL0    Cl16379   6.406   0.433   3.405  0.2912  0.0679  0.1796
  122MOL0     C16380   6.013  -0.139   3.949 -0.4714 -0.4390 -0.8660
  122MOL0     C16381   5.971  -0.272   3.914  0.0289 -0.2363  1.3224
  122MOL0     O16382   6.021  -0.487   3.693  0.1315  0.1248  0.0305
  122MOL0     C16383   6.032  -0.762   3.654 -0.2054  1.0579  0.1824
  122MOL0     C16384   5.995  -0.896   3.633 -0.6648  0.7073  1.1179
  122MOL0     N16385   5.364  -1.311   3.330 -0.2271  0.2034  0.1484
  122MOL0     N16386   5.319  -1.307   3.210 -0.0884 -0.0610 -0.2099
  122MOL0     C16387   4.917  -0.224   2.868 -0.4140 -0.1291 -1.4074
  122MOL0     C16388   4.954  -0.091   2.834 -0.2625  0.3459 -0.2346
  122MOL0     C16389   5.011   0.343   2.772  0.4203 -0.3047 -0.2815
  122MOL0     C16390   4.927   0.382   2.672 -0.1161 -0.6824  0.2398
  122MOL0     C16391   4.926   0.512   2.604  0.5696 -0.3796  1.0108
  122MOL0     C16392   5.021   0.606   2.651  0.7750 -0.9275  0.4551
  122MOL0     O16393   5.036   0.730   2.585  0.2627  0.0416  0.5756
  122MOL0     C16394   4.919   0.813   2.582 -0.4350  0.3153 -0.8872
  122MOL0     C16395   4.942   0.906   2.468  0.2929 -0.7092 -0.4071
  122MOL0     C16396   4.893   0.851   2.329  0.0534 -0.0923  0.0739
  122MOL0     C16397   4.890   0.970   2.228 -0.1151 -0.9285  0.3348
  122MOL0     C16398   4.785   1.073   2.263 -0.9468 -0.9438  0.1081
  122MOL0     C16399   4.694   1.155   2.277 -1.3565 -0.1522  1.0133
  122MOL0     C16400   5.114   0.564   2.747 -0.0616 -0.0828 -0.0714
  122MOL0     C16401   5.105   0.435   2.805 -0.0489 -0.1081  0.0974
  122MOL0     C16402   5.199   0.414   2.918 -0.2543  0.3029  0.9269
  122MOL0     H16403   4.648   0.041   2.814 -2.1422 -1.8047 -0.4211
  122MOL0     H16404   4.578  -0.188   2.856  0.0554  1.5639  0.9484
  122MOL0     H16405   4.717  -0.564   2.801  0.1371  1.3094 -2.5751
  122MOL0     H16406   4.837  -0.463   2.753 -2.7246  2.0274 -0.1080
  122MOL0     H16407   4.863  -0.588   3.038  1.5906  1.4242  0.8334
  122MOL0     H16408   4.999  -0.561   2.922  0.0970 -0.7887  0.7228
  122MOL0     H16409   4.912  -0.715   2.775  0.3330 -0.1761  0.2219
  122MOL0     H16410   4.792  -0.765   2.896  0.7129  1.4087  4.0990
  122MOL0     H16411   4.990  -0.825   3.048  0.8323 -0.5562  0.0503
  122MOL0     H16412   4.973  -0.919   2.896 -2.9876  0.2875  2.3094
  122MOL0     H16413   5.150  -0.735   2.817  0.5934 -0.6310 -0.2542
  122MOL0     H16414   5.185  -0.725   2.989 -1.8442  1.7525 -0.2014
  122MOL0     H16415   5.174  -0.997   2.842 -0.4102  0.9399 -0.3287
  122MOL0     H16416   5.321  -0.902   2.856  0.5235 -0.6562  1.0177
  122MOL0     H16417   5.172  -0.991   3.114  1.1748 -0.9141  0.7315
  122MOL0     H16418   5.313  -0.899   3.097 -4.0990  0.2375  4.5503
  122MOL0     H16419   5.245  -1.193   3.006  1.5515 -2.3274  1.6863
  122MOL0     H16420   5.407  -1.113   2.971  0.4173  2.1184  0.4998
  122MOL0     H16421   5.451  -1.004   3.276 -3.2091  0.1206  0.3770
  122MOL0     H16422   5.435  -1.064   3.543 -0.1848  0.2498  0.6581
  122MOL0     H16423   5.444  -1.234   3.585 -4.2241  1.9922 -0.0145
  122MOL0     H16424   5.657  -1.236   3.437 -2.2273  0.6162 -2.1874
  122MOL0     H16425   5.641  -1.070   3.400  0.6108 -0.3748 -0.8396
  122MOL0     H16426   5.641  -1.136   3.691  0.8489  0.1985  1.0310
  122MOL0     H16427   5.704  -0.989   3.611  0.1119  0.1610  2.1159
  122MOL0     H16428   5.901  -1.113   3.509  1.7316 -0.7269 -0.6154
  122MOL0     H16429   5.861  -1.251   3.599  4.1140  0.2445  0.1876
  122MOL0     H16430   5.841  -0.969   3.916 -0.9796  0.5872 -0.8346
  122MOL0     H16431   5.888  -0.711   3.954  0.7824  0.2294 -0.5138
  122MOL0     H16432   6.232  -0.447   4.040  0.7711 -0.3151 -0.4664
  122MOL0     H16433   6.301  -0.215   4.113  0.5653  2.3559 -1.7999
  122MOL0     H16434   6.160   0.135   3.887  0.1261 -0.2928  0.2246
  122MOL0     H16435   6.034   0.163   4.012  0.5592  2.2008  1.2260
  122MOL0     H16436   6.212   0.331   4.026 -0.6996 -0.8780  0.3840
  122MOL0     H16437   6.222   0.230   4.169  1.5525 -2.4800  0.3437
  122MOL0     H16438   6.431   0.298   4.071 -1.8717  1.9400 -3.4667
  122MOL0     H16439   6.399   0.119   4.094  3.2279 -0.6187 -1.8678
  122MOL0     H16440   6.363   0.102   3.851  0.8089 -1.2712  0.9000
  122MOL0     H16441   6.526   0.124   3.900  0.2608  0.7596 -1.1220
  122MOL0     H16442   6.528   0.363   3.857  0.9879 -0.1674 -2.0035
  122MOL0     H16443   6.360   0.365   3.835  0.7186  2.3121 -2.7789
  122MOL0     H16444   6.559   0.206   3.665  2.3145  1.1261  2.3812
  122MOL0     H16445   6.389   0.239   3.622  0.5373 -1.5210  1.1654
  122MOL0     H16446   6.640   0.432   3.673  1.2590  3.1905 -1.0421
  122MOL0     H16447   6.484   0.502   3.658  0.7631 -0.1822  2.4848
  122MOL0     H16448   6.624   0.524   3.454  2.7110 -1.4239  0.7039
  122MOL0     H16449   6.626   0.349   3.436  0.2675  1.0983 -1.8919
  122MOL0     H16450   5.963  -0.050   3.913 -1.7196 -0.1801  1.3504
  122MOL0     H16451   5.880  -0.283   3.857  1.2347 -2.3088 -0.2978
  122MOL0     H16452   6.090  -0.705   3.582  3.8161 -2.6250  0.0449
  122MOL0     H16453   6.040  -0.938   3.544 -0.3931  0.5046  1.3513
  122MOL0     H16454   4.995  -0.299   2.882  0.9067  0.6667 -3.9235
  122MOL0     H16455   5.060  -0.070   2.823 -0.5699  1.9657 -0.3522
  122MOL0     H16456   4.861   0.312   2.622  0.1008  0.5374 -1.9237
  122MOL0     H16457   4.866   0.538   2.517 -1.3220 -1.5050  1.9229
  122MOL0     H16458   4.905   0.869   2.675 -4.6508 -0.6804 -0.7123
  122MOL0     H16459   4.826   0.759   2.563 -0.2086 -0.4346  0.0914
  122MOL0     H16460   5.047   0.933   2.451 -0.1549  2.5413  1.1271
  122MOL0     H16461   4.901   1.002   2.500 -0.2425 -0.9766 -0.2713
  122MOL0     H16462   4.797   0.797   2.335 -0.2942  0.4806 -0.2657
  122MOL0     H16463   4.961   0.779   2.284  1.3573  0.4611  1.1007
  122MOL0     H16464   4.994   1.006   2.224 -0.7840  1.0375 -0.8518
  122MOL0     H16465   4.871   0.939   2.125  0.5431 -0.0706 -0.0607
  122MOL0     H16466   4.614   1.226   2.284 -0.3015  1.5254 -2.0745
  122MOL0     H16467   5.201   0.628   2.760  0.1592 -0.0518 -1.5054
  122MOL0     H16468   5.251   0.504   2.951 -0.6169  0.3062  1.4994
  122MOL0     H16469   5.135   0.394   3.004 -3.3109 -1.9617 -1.6294
  122MOL0     H16470   5.279   0.339   2.910 -0.7491 -0.0918 -0.6809
  123MOL0     O16471   9.905   3.356   1.809 -0.2763 -0.2165  0.0103
  123MOL0     C16472   9.906   3.237   1.857 -0.1257 -1.2590 -0.3783
  123MOL0     O16473  10.000   3.182   1.941 -0.2670 -0.0064  0.2244
  123MOL0     C16474  10.127   3.232   1.931 -0.7023 -0.0165  0.3500
  123MOL0     C16475  10.150   3.370   1.953  0.0738  0.3009 -0.3770
  123MOL0     C16476  10.281   3.418   1.952 -0.0739  0.0774 -0.8222
  123MOL0     C16477  10.391   3.336   1.923  0.7982  0.1034  0.3045
  123MOL0     O16478  10.519   3.392   1.920  0.2776  0.1301 -0.3366
  123MOL0     C16479  10.527   3.487   1.808  0.1962 -0.4614 -0.7359
  123MOL0     C16480  10.666   3.539   1.774 -0.4604 -1.1200  0.1145
  123MOL0     C16481  10.722   3.631   1.878  0.4515 -0.4672  0.1352
  123MOL0     C16482  10.857   3.687   1.829 -0.9310  0.4616 -0.0576
  123MOL0     C16483  10.956   3.671   1.940  0.8563 -0.8451 -0.5671
  123MOL0     C16484  11.093   3.714   1.875 -1.2496  0.3112 -0.7811
  123MOL0     C16485  11.204   3.720   1.982  0.6261  0.0984 -0.0618
  123MOL0     C16486  11.216   3.591   2.078 -0.7634 -0.1212  0.0878
  123MOL0     N16487  11.122   3.588   2.186  0.4236  0.1215 -0.8113
  123MOL0     C16488  11.045   3.477   2.230 -0.4288 -0.1574 -0.0361
  123MOL0     C16489  10.960   3.527   2.324  0.0714  0.0567  0.4335
  123MOL0     C16490  10.845   3.454   2.394 -0.5743 -0.4034  0.4932
  123MOL0     C16491  10.729   3.476   2.289 -0.1680  0.2186 -0.1620
  123MOL0     C16492  10.590   3.460   2.334  0.3229  0.3526  0.2505
  123MOL0     C16493  10.570   3.338   2.427  0.4189 -0.4654 -0.0743
  123MOL0     O16494  10.558   3.212   2.365  0.7132 -0.3476  1.2362
  123MOL0     C16495  10.437   3.158   2.303  0.0876  0.2088  0.2451
  123MOL0     C16496  10.447   3.025   2.252  0.5186 -0.5558  0.9490
  123MOL0     C16497  10.335   2.950   2.220  0.1856 -0.3691 -0.2576
  123MOL0     C16498  10.208   3.005   2.229 -0.2450 -0.5697  0.2244
  123MOL0     C16499  10.098   2.928   2.193 -0.0306 -0.3702  0.2227
  123MOL0     O16500  10.125   2.806   2.147 -0.6080 -0.4258 -0.4933
  123MOL0     C16501  10.030   2.737   2.080  0.0941 -0.2519  0.2397
  123MOL0     C16502  10.038   2.717   1.935  0.1757 -1.0526 -0.6337
  123MOL0     C16503   9.940   2.641   1.867 -0.1945 -0.4294 -0.7011
  123MOL0     C16504   9.841   2.585   1.945  1.0032  0.4141  1.5298
  123MOL0     O16505   9.753   2.499   1.882 -0.0400 -0.7981 -0.6349
  123MOL0     C16506   9.722   2.511   1.752 -0.2933 -0.3157  0.1626
  123MOL0     C16507   9.595   2.437   1.712 -0.6169 -0.3378 -0.8368
  123MOL0     C16508   9.613   2.287   1.667 -0.0693  0.5131  0.9386
  123MOL0     C16509   9.730   2.257   1.579 -0.5613  0.9166 -0.0585
  123MOL0     C16510   9.706   2.148   1.476  0.5491 -0.3435 -0.3839
  123MOL0     C16511   9.844   2.131   1.418  0.2608  0.6497  0.6065
  123MOL0     C16512   9.845   2.028   1.296  0.4281 -0.1201 -0.2684
  123MOL0     C16513   9.986   1.988   1.240  1.0625 -0.7543 -0.9379
  123MOL0    Cl16514   9.970   1.856   1.116  0.4059  0.4592 -0.4757
  123MOL0     C16515   9.826   2.602   2.082 -0.3753  0.5330 -0.2872
  123MOL0     C16516   9.918   2.682   2.148  0.3568  1.1528 -0.7092
  123MOL0     O16517   9.984   2.977   2.204  0.2616  0.3483 -0.3396
  123MOL0     C16518  10.197   3.143   2.264 -1.1446  0.6050 -0.1478
  123MOL0     C16519  10.309   3.211   2.310  0.4726  0.1104  0.1655
  123MOL0     N16520  10.995   3.654   2.350 -0.2947 -0.2588  1.0270
  123MOL0     N16521  11.086   3.693   2.259  0.7245  0.5905  0.3174
  123MOL0     C16522  10.367   3.201   1.904  0.3084 -0.3132 -1.0021
  123MOL0     C16523  10.244   3.151   1.909  0.3013  0.5050  0.0164
  123MOL0     C16524   9.794   3.139   1.834  0.1581  1.0298 -0.9844
  123MOL0     C16525   9.791   3.015   1.898  0.0506 -0.4494  0.9090
  123MOL0     C16526   9.697   2.920   1.866  0.1640  0.3120 -0.1103
  123MOL0     C16527   9.585   2.946   1.799  0.0677 -0.1688 -0.7120
  123MOL0     O16528   9.494   2.850   1.767 -0.3029  0.1873  0.2887
  123MOL0     C16529   9.452   2.754   1.866 -1.4097  0.2083  0.1804
  123MOL0     C16530   9.314   2.692   1.830 -0.0172 -0.0734 -0.1298
  123MOL0     C16531   9.288   2.688   1.677 -0.9735 -1.2014 -0.2286
  123MOL0     C16532   9.179   2.602   1.632 -0.1002  0.9061  0.2640
  123MOL0     C16533   9.167   2.473   1.710  0.8249  0.4877  0.2411
  123MOL0     C16534   9.165   2.362   1.750  0.1530  1.1069 -0.1550
  123MOL0     C16535   9.577   3.069   1.735  0.1792 -0.5513  0.6874
  123MOL0     C16536   9.689   3.152   1.742 -0.3534  0.1429 -0.6494
  123MOL0     C16537   9.692   3.261   1.633  0.5966  0.1217 -0.4741
  123MOL0     H16538  10.067   3.432   1.984 -1.3542 -1.8810  0.4307
  123MOL0     H16539  10.298   3.524   1.968 -1.3165  0.6729 -3.0242
  123MOL0     H16540  10.466   3.459   1.721 -0.8442 -1.1034  0.1785
  123MOL0     H16541  10.474   3.578   1.837  2.3705  0.7169 -0.3243
  123MOL0     H16542  10.660   3.593   1.680 -3.5784  0.1198  0.9077
  123MOL0     H16543  10.727   3.450   1.757 -2.7694 -2.3229 -2.6985
  123MOL0     H16544  10.732   3.587   1.978  2.3783 -2.3347 -0.8080
  123MOL0     H16545  10.657   3.718   1.891 -0.2388 -0.8325 -0.8307
  123MOL0     H16546  10.890   3.621   1.749 -2.4856  0.4806 -0.7453
  123MOL0     H16547  10.846   3.792   1.799 -2.9400 -0.0866 -1.4092
  123MOL0     H16548  10.928   3.748   2.013  0.5115 -1.3095 -0.2066
  123MOL0     H16549  10.957   3.575   1.990 -0.0801 -1.4409 -1.6403
  123MOL0     H16550  11.130   3.642   1.801 -0.4082 -0.2590  0.1721
  123MOL0     H16551  11.087   3.808   1.819 -0.4132  0.5155 -0.5348
  123MOL0     H16552  11.196   3.809   2.044  0.6951  0.8061 -1.0384
  123MOL0     H16553  11.300   3.734   1.931  2.1596  0.6463  2.7888
  123MOL0     H16554  11.204   3.498   2.022  1.7898 -0.2529 -0.3492
  123MOL0     H16555  11.313   3.597   2.128  0.1430  5.1942 -1.6207
  123MOL0     H16556  11.054   3.370   2.214 -1.0970 -0.3833  0.9802
  123MOL0     H16557  10.859   3.346   2.404  1.6732 -0.2187 -0.1850
  123MOL0     H16558  10.837   3.509   2.489 -0.6511  3.6897 -1.6345
  123MOL0     H16559  10.738   3.575   2.243 -0.7659 -0.6084 -2.1805
  123MOL0     H16560  10.739   3.403   2.208 -3.4819  0.1040 -0.6299
  123MOL0     H16561  10.520   3.455   2.250 -3.1051  3.7746  2.5152
  123MOL0     H16562  10.570   3.547   2.398  0.7385  0.0616  0.7848
  123MOL0     H16563  10.476   3.353   2.481 -0.0744  0.0939 -1.0757
  123MOL0     H16564  10.649   3.342   2.503  0.2877  6.1034  0.2853
  123MOL0     H16565  10.543   2.982   2.226 -0.5566 -2.2807 -0.5173
  123MOL0     H16566  10.347   2.849   2.183 -0.8165  0.4997 -3.2966
  123MOL0     H16567  10.126   2.757   1.886 -1.1407 -0.4072 -2.6381
  123MOL0     H16568   9.943   2.635   1.759  4.8514 -0.9640 -0.7556
  123MOL0     H16569   9.712   2.617   1.729 -3.3756 -0.7747 -0.9877
  123MOL0     H16570   9.807   2.472   1.695  1.0196  3.1539 -0.4770
  123MOL0     H16571   9.534   2.436   1.803  0.5793 -2.2756 -0.0002
  123MOL0     H16572   9.541   2.483   1.628 -2.8446 -1.9329 -0.3656
  123MOL0     H16573   9.618   2.215   1.750 -1.1151 -0.7867 -0.0820
  123MOL0     H16574   9.530   2.255   1.604  1.0690  1.2266 -1.0097
  123MOL0     H16575   9.817   2.231   1.640 -0.7317  1.2051  0.3073
  123MOL0     H16576   9.765   2.345   1.524  2.6343 -1.9028 -3.0292
  123MOL0     H16577   9.626   2.185   1.412  0.1249  0.3016  0.4950
  123MOL0     H16578   9.663   2.058   1.521  0.8348 -2.2569 -3.6103
  123MOL0     H16579   9.878   2.230   1.388 -0.0767  0.8931  1.0240
  123MOL0     H16580   9.914   2.093   1.492  1.5607 -1.3413 -1.5232
  123MOL0     H16581   9.764   2.051   1.226  0.2965  0.3648  0.0379
  123MOL0     H16582   9.811   1.937   1.347  0.3528  0.7134  1.2362
  123MOL0     H16583  10.022   2.073   1.181  0.3207 -0.4342 -0.9418
  123MOL0     H16584  10.059   1.971   1.320 -0.1789 -1.3008  0.1268
  123MOL0     H16585   9.753   2.538   2.130  1.6323 -1.7615 -0.0927
  123MOL0     H16586   9.909   2.676   2.256 -0.3633 -2.4980 -0.8486
  123MOL0     H16587  10.104   3.199   2.258 -0.4333  1.6541 -2.8285
  123MOL0     H16588  10.301   3.315   2.342  0.8329  0.0629  0.4139
  123MOL0     H16589  10.446   3.127   1.897  0.5201  0.0154 -2.3171
  123MOL0     H16590  10.247   3.044   1.896  5.9071  0.6097 -2.5770
  123MOL0     H16591   9.863   2.989   1.976  0.0551  4.1817  2.7638
  123MOL0     H16592   9.697   2.818   1.903 -0.9008  0.9484  1.7914
  123MOL0     H16593   9.446   2.808   1.961  2.7392  0.2871  0.6009
  123MOL0     H16594   9.526   2.673   1.863 -0.8617  0.6997  0.1486
  123MOL0     H16595   9.238   2.751   1.883  2.0960  2.8931 -0.1246
  123MOL0     H16596   9.324   2.589   1.866  0.1316 -0.0745 -0.1756
  123MOL0     H16597   9.371   2.654   1.615 -2.4016 -1.0501 -2.3347
  123MOL0     H16598   9.276   2.789   1.637  3.7180  0.1737  1.2218
  123MOL0     H16599   9.088   2.663   1.628  1.0042  2.6843  1.0264
  123MOL0     H16600   9.205   2.571   1.530  2.2559  3.4900 -0.0331
  123MOL0     H16601   9.160   2.266   1.797  2.8350 -0.0853 -2.0476
  123MOL0     H16602   9.491   3.064   1.669 -3.5168 -2.5314  5.0744
  123MOL0     H16603   9.791   3.303   1.614  1.0610 -0.8326 -0.2243
  123MOL0     H16604   9.648   3.222   1.541 -3.3767 -1.0334  1.6903
  123MOL0     H16605   9.631   3.344   1.668  0.8710  0.0917  0.0879
  124MOL0     O16606   8.895   8.860   9.137  0.1231  0.9436 -0.4408
  124MOL0     C16607   8.894   8.738   9.147 -0.3299 -0.1029 -0.0171
  124MOL0     O16608   8.968   8.656   9.077 -0.3730 -0.3533 -0.0692
  124MOL0     C16609   9.051   8.702   8.976 -0.0936  0.0247  0.1379
  124MOL0     C16610   9.185   8.707   8.994 -0.7330  0.4908  0.0155
  124MOL0     C16611   9.269   8.758   8.895 -0.7762  0.3462  0.4436
  124MOL0     C16612   9.219   8.805   8.778 -0.6224  0.0269 -0.5481
  124MOL0     O16613   9.311   8.855   8.686 -0.6205 -0.2853  0.5913
  124MOL0     C16614   9.267   8.870   8.540  0.9762 -0.6143 -0.0240
  124MOL0     C16615   9.385   8.902   8.440 -0.2886 -0.0707 -0.0235
  124MOL0     C16616   9.417   9.047   8.465 -0.6543  0.2207 -0.1677
  124MOL0     C16617   9.395   9.126   8.332 -0.2290 -0.6779 -0.4110
  124MOL0     C16618   9.501   9.085   8.217  1.0599  0.3408 -0.0330
  124MOL0     C16619   9.443   9.151   8.099 -0.3308 -0.0374  0.4263
  124MOL0     C16620   9.524   9.127   7.971  0.1387  0.1436  0.2975
  124MOL0     C16621   9.507   8.984   7.918 -0.5065 -0.5136  0.2498
  124MOL0     N16622   9.562   8.964   7.794 -0.3895  0.5446 -0.2190
  124MOL0     C16623   9.502   8.997   7.675  0.4669 -0.5803 -0.8832
  124MOL0     C16624   9.550   8.915   7.581  0.0975  0.6763 -0.4045
  124MOL0     C16625   9.519   8.937   7.443 -0.4452 -0.0414  0.1357
  124MOL0     C16626   9.618   9.036   7.391 -0.3378 -0.3606  0.2072
  124MOL0     C16627   9.617   9.044   7.240 -0.7520  0.5838  0.2835
  124MOL0     C16628   9.681   8.922   7.188 -0.5275 -0.1723  0.1014
  124MOL0     O16629   9.735   8.919   7.057  0.1255  0.1414  0.1575
  124MOL0     C16630   9.648   8.893   6.949 -0.1491  0.0847  0.4135
  124MOL0     C16631   9.503   8.901   6.957  0.0975 -0.2909  0.3160
  124MOL0     C16632   9.422   8.874   6.850 -0.1359  0.0349  0.9545
  124MOL0     C16633   9.484   8.849   6.718 -0.0963  0.0934  0.2983
  124MOL0     C16634   9.400   8.812   6.601  0.9137 -0.5217  0.2213
  124MOL0     O16635   9.458   8.805   6.471  0.4528 -0.4739  0.0957
  124MOL0     C16636   9.395   8.742   6.365  0.6257 -0.0097 -1.6892
  124MOL0     C16637   9.368   8.802   6.251 -0.5944 -0.3974  0.1954
  124MOL0     C16638   9.310   8.738   6.147  0.6542  1.6246  0.3880
  124MOL0     C16639   9.271   8.609   6.152  0.3432  0.0952 -0.1220
  124MOL0     O16640   9.235   8.534   6.040 -0.2663 -0.5128 -0.8169
  124MOL0     C16641   9.257   8.580   5.904 -0.0835  0.0582 -0.5217
  124MOL0     C16642   9.223   8.469   5.811  0.3207 -0.2280 -0.4070
  124MOL0     C16643   9.107   8.376   5.857  0.1989  0.9426  0.3805
  124MOL0     C16644   9.064   8.274   5.750  0.1112 -0.8187 -0.5620
  124MOL0     C16645   8.961   8.174   5.791  0.0125 -0.1574 -0.4027
  124MOL0     C16646   8.936   8.075   5.681 -0.2884  0.1894  0.8806
  124MOL0     C16647   8.860   8.139   5.564  0.4337 -0.2716 -0.7535
  124MOL0     C16648   8.803   8.035   5.476 -0.2315 -1.2048 -0.0173
  124MOL0    Cl16649   8.949   7.951   5.404  0.0156  0.1693  0.3304
  124MOL0     C16650   9.291   8.536   6.272  0.6033  0.8088 -0.4162
  124MOL0     C16651   9.361   8.603   6.378  0.5534 -0.1361 -0.1331
  124MOL0     O16652   9.276   8.795   6.629 -0.0612 -0.0990 -0.4692
  124MOL0     C16653   9.629   8.853   6.710  0.3151 -0.7391  0.7057
  124MOL0     C16654   9.706   8.872   6.820  0.2116  0.2595  0.5486
  124MOL0     N16655   9.649   8.847   7.643  0.0122  0.9075  0.0721
  124MOL0     N16656   9.651   8.857   7.771 -0.0667 -1.0298  0.1779
  124MOL0     C16657   9.085   8.799   8.757 -0.8745 -0.1039  0.4134
  124MOL0     C16658   9.003   8.746   8.854  0.6823  0.7201 -1.1340
  124MOL0     C16659   8.798   8.676   9.239 -0.4718  0.1359  0.4785
  124MOL0     C16660   8.807   8.536   9.257  0.0688  0.5671 -0.8552
  124MOL0     C16661   8.733   8.469   9.356 -0.6194  0.3396  0.0889
  124MOL0     C16662   8.634   8.530   9.429 -0.3830 -0.1227 -0.0558
  124MOL0     O16663   8.553   8.462   9.521  0.0664  1.4557  0.4581
  124MOL0     C16664   8.631   8.382   9.611  0.6938 -0.4735  0.3672
  124MOL0     C16665   8.588   8.240   9.627 -0.4212 -0.3864 -0.5080
  124MOL0     C16666   8.439   8.216   9.633  1.2289  0.1338  0.2519
  124MOL0     C16667   8.389   8.091   9.705  0.1177  0.1974  0.1577
  124MOL0     C16668   8.312   8.125   9.823  0.1327 -0.1966  0.6797
  124MOL0     C16669   8.223   8.150   9.904  0.0382 -0.7675  0.3998
  124MOL0     C16670   8.599   8.658   9.403 -0.3690 -0.2398 -0.3634
  124MOL0     C16671   8.689   8.735   9.314 -0.3952  0.0748  0.6482
  124MOL0     C16672   8.657   8.886   9.304 -0.6535 -0.2878  1.2270
  124MOL0     H16673   9.234   8.667   9.083  1.9965 -0.0225 -1.6171
  124MOL0     H16674   9.375   8.753   8.920 -0.2513 -1.7790 -1.8075
  124MOL0     H16675   9.216   8.780   8.505 -0.0576  0.0081 -0.1782
  124MOL0     H16676   9.188   8.945   8.535  2.2155  0.6707 -1.8443
  124MOL0     H16677   9.346   8.873   8.342 -2.3629  1.8753  0.1597
  124MOL0     H16678   9.474   8.848   8.476 -0.8128 -0.6649  0.4118
  124MOL0     H16679   9.525   9.049   8.482 -0.2351 -0.2657 -2.4325
  124MOL0     H16680   9.362   9.098   8.545 -0.3172  1.8927 -0.9593
  124MOL0     H16681   9.293   9.121   8.292  0.1912 -1.5113 -1.3859
  124MOL0     H16682   9.416   9.233   8.344  2.0921 -1.0642 -0.5949
  124MOL0     H16683   9.601   9.124   8.235  0.4369  3.0439 -1.7632
  124MOL0     H16684   9.499   8.976   8.212 -2.9416  0.2122  0.5867
  124MOL0     H16685   9.344   9.113   8.069  1.2922 -2.2154 -2.7988
  124MOL0     H16686   9.431   9.258   8.116  1.1156 -0.2223  2.9991
  124MOL0     H16687   9.628   9.158   7.986 -0.4266  1.4013  1.9272
  124MOL0     H16688   9.484   9.192   7.892 -1.2580 -0.7057  0.2725
  124MOL0     H16689   9.545   8.913   7.992 -2.9686 -1.0390  1.1055
  124MOL0     H16690   9.401   8.958   7.908 -1.1474  2.1648 -0.9543
  124MOL0     H16691   9.438   9.083   7.660 -1.8589 -2.1687 -0.6458
  124MOL0     H16692   9.517   8.845   7.384 -0.4958 -0.0343  0.1266
  124MOL0     H16693   9.415   8.970   7.442 -1.2064 -2.2000  0.9218
  124MOL0     H16694   9.579   9.126   7.440  2.8006 -0.6211  3.6208
  124MOL0     H16695   9.718   9.031   7.436 -1.4580 -2.8374  2.7071
  124MOL0     H16696   9.678   9.133   7.220  0.1922  0.0716  0.7897
  124MOL0     H16697   9.514   9.044   7.203 -0.2584 -3.3666 -1.5784
  124MOL0     H16698   9.619   8.831   7.193 -1.1014  0.1966 -0.2464
  124MOL0     H16699   9.761   8.901   7.259  0.5645  2.5205 -0.2229
  124MOL0     H16700   9.453   8.920   7.051  0.3918 -2.8881  1.0869
  124MOL0     H16701   9.314   8.876   6.858 -0.5544  2.1199 -2.8724
  124MOL0     H16702   9.398   8.905   6.238  1.5250 -0.7698  1.6241
  124MOL0     H16703   9.295   8.787   6.052  1.3311 -3.4115 -2.6900
  124MOL0     H16704   9.183   8.658   5.886  0.3703  0.3217 -1.2587
  124MOL0     H16705   9.357   8.623   5.903  0.2792 -0.1972  3.8884
  124MOL0     H16706   9.213   8.515   5.712 -0.0005 -0.7176 -0.6068
  124MOL0     H16707   9.303   8.395   5.814 -1.8717 -2.8430 -1.7405
  124MOL0     H16708   9.142   8.325   5.947  2.5631 -1.4022 -1.7124
  124MOL0     H16709   9.019   8.435   5.887  0.7102  1.3235  1.1649
  124MOL0     H16710   9.161   8.227   5.731  0.2594 -0.0070 -1.9293
  124MOL0     H16711   9.048   8.332   5.659  1.8307 -2.2700 -1.8640
  124MOL0     H16712   8.865   8.211   5.829 -1.6537 -3.0690 -1.4206
  124MOL0     H16713   8.988   8.115   5.879  1.7267 -1.7639 -1.9103
  124MOL0     H16714   9.028   8.027   5.648 -0.4732 -2.1744  3.4193
  124MOL0     H16715   8.874   8.000   5.732 -1.1180 -0.0706 -0.4594
  124MOL0     H16716   8.929   8.205   5.511  1.7524 -0.9101  0.1058
  124MOL0     H16717   8.775   8.202   5.589 -1.1265 -2.3965 -0.4251
  124MOL0     H16718   8.740   7.966   5.533 -0.4444 -0.0005  1.2270
  124MOL0     H16719   8.752   8.094   5.399 -0.7304  0.5519  1.5812
  124MOL0     H16720   9.268   8.432   6.292  1.2270  0.9817  1.3394
  124MOL0     H16721   9.383   8.540   6.464 -1.0197  1.9332  1.9160
  124MOL0     H16722   9.668   8.841   6.609  0.1701  1.1133  0.3870
  124MOL0     H16723   9.815   8.876   6.812  0.0889  2.1908 -1.0956
  124MOL0     H16724   9.053   8.845   8.664 -0.2290 -0.3339  0.0740
  124MOL0     H16725   8.898   8.760   8.829  0.8281 -1.1506 -3.1398
  124MOL0     H16726   8.882   8.468   9.217 -3.4824 -1.4181 -4.9588
  124MOL0     H16727   8.739   8.361   9.355  4.1569  0.3823  1.0420
  124MOL0     H16728   8.616   8.431   9.708 -0.2158 -0.5939  0.2923
  124MOL0     H16729   8.739   8.380   9.590  0.7890 -1.7329  0.8822
  124MOL0     H16730   8.636   8.202   9.717 -0.3030  1.9159  0.4865
  124MOL0     H16731   8.635   8.176   9.552  1.5620  1.4689 -0.9596
  124MOL0     H16732   8.397   8.209   9.533  0.5814 -1.9537  0.6186
  124MOL0     H16733   8.397   8.302   9.685  1.4558  1.7790 -2.1350
  124MOL0     H16734   8.332   8.024   9.640  2.3423 -3.4100  1.5689
  124MOL0     H16735   8.477   8.028   9.725  0.0046 -0.1059 -0.2800
  124MOL0     H16736   8.146   8.146   9.978  1.1414 -1.1868  1.5658
  124MOL0     H16737   8.526   8.702   9.469 -0.8927 -0.0412 -1.0550
  124MOL0     H16738   8.581   8.893   9.226 -0.0432  0.2254  0.6754
  124MOL0     H16739   8.607   8.925   9.393 -2.1970  2.4155 -0.6868
  124MOL0     H16740   8.739   8.955   9.281 -0.6030 -1.4392 -2.8517
  125MOL0     O16741   1.731   6.096   9.417  0.3083 -0.1586  0.7660
  125MOL0     C16742   1.718   6.151   9.305 -0.0326 -0.4813 -0.0919
  125MOL0     O16743   1.693   6.086   9.183  1.0231 -0.1369  0.6988
  125MOL0     C16744   1.677   5.951   9.183 -0.9056 -0.6375 -0.2243
  125MOL0     C16745   1.758   5.885   9.094  0.0830 -0.6094  0.5334
  125MOL0     C16746   1.768   5.743   9.090 -0.9215 -0.0979  0.1073
  125MOL0     C16747   1.687   5.659   9.167  0.5765  0.4088 -0.0310
  125MOL0     O16748   1.694   5.522   9.168  0.4512 -0.3801  1.2003
  125MOL0     C16749   1.779   5.446   9.074 -0.2403  0.5530 -0.0821
  125MOL0     C16750   1.777   5.298   9.100 -0.6473 -0.3297 -0.3678
  125MOL0     C16751   1.655   5.230   9.059 -0.7048 -0.3855  0.8873
  125MOL0     C16752   1.553   5.242   9.170  0.1584 -0.9687 -1.2994
  125MOL0     C16753   1.449   5.137   9.159  0.3171 -0.0652  1.2674
  125MOL0     C16754   1.358   5.127   9.026 -0.1388  0.1740  0.4443
  125MOL0     C16755   1.235   5.036   9.027  0.2169  0.4906 -0.6771
  125MOL0     C16756   1.105   5.120   9.008 -0.2380  0.6669 -0.7039
  125MOL0     N16757   0.979   5.028   8.983 -0.0483 -0.7495 -0.4593
  125MOL0     C16758   0.867   5.044   9.062  0.4448 -0.6857  0.3182
  125MOL0     C16759   0.790   4.939   9.021  0.2211  0.1689 -0.5377
  125MOL0     C16760   0.653   4.909   9.057  0.9912  0.9316 -0.9421
  125MOL0     C16761   0.585   5.003   9.149 -0.2784 -1.0232  0.4347
  125MOL0     C16762   0.432   4.964   9.175 -1.0135  0.1567  0.2124
  125MOL0     C16763   0.382   5.055   9.286  0.1095 -0.1569 -0.4848
  125MOL0     O16764   0.240   5.049   9.291  0.6357 -0.3490  0.0813
  125MOL0     C16765   0.176   5.160   9.233  0.2299 -0.3225  0.3995
  125MOL0     C16766   0.156   5.285   9.284  0.0148  0.0179 -0.2974
  125MOL0     C16767   0.077   5.388   9.232  0.3157 -1.2848  0.7361
  125MOL0     C16768   0.001   5.363   9.123  0.4189 -0.2785  0.3123
  125MOL0     C16769  -0.078   5.474   9.073 -0.2361 -0.1357 -0.1755
  125MOL0     O16770  -0.063   5.604   9.128 -0.7049 -0.3840  0.6400
  125MOL0     C16771  -0.140   5.710   9.078 -0.4836 -0.3077 -0.3935
  125MOL0     C16772  -0.268   5.702   9.041  0.1976 -0.4982  0.5520
  125MOL0     C16773  -0.343   5.816   9.005  0.3103  0.6049  0.3534
  125MOL0     C16774  -0.291   5.941   8.989 -0.7828  0.1094 -0.4277
  125MOL0     O16775  -0.374   6.037   8.936 -0.6547 -0.8825  0.2173
  125MOL0     C16776  -0.340   6.177   8.928 -0.3149  0.7017 -1.0280
  125MOL0     C16777  -0.430   6.246   8.833  0.0130 -0.1086  1.2718
  125MOL0     C16778  -0.407   6.403   8.859  0.3913 -0.4633  0.3474
  125MOL0     C16779  -0.500   6.477   8.762  0.1562 -0.1348  0.1269
  125MOL0     C16780  -0.473   6.630   8.744  0.1573  0.6917 -0.5988
  125MOL0     C16781  -0.603   6.687   8.669  0.9639 -0.5458 -0.6730
  125MOL0     C16782  -0.610   6.838   8.684  0.5040 -0.3968  0.1068
  125MOL0     C16783  -0.527   6.916   8.595 -0.2924 -0.2620  0.0286
  125MOL0    Cl16784  -0.352   6.931   8.632  0.3526 -0.4854 -0.2029
  125MOL0     C16785  -0.162   5.953   9.033  0.3121 -0.2137 -0.1164
  125MOL0     C16786  -0.085   5.844   9.080 -0.4452 -0.1574 -0.3718
  125MOL0     O16787  -0.146   5.441   8.967 -0.5709 -0.4688  0.0028
  125MOL0     C16788   0.021   5.238   9.056 -0.9484  0.5492  1.1470
  125MOL0     C16789   0.101   5.135   9.114  0.1873 -0.1330 -0.4226
  125MOL0     N16790   0.870   4.863   8.932  1.1915 -0.0570 -1.1397
  125MOL0     N16791   0.979   4.921   8.908 -0.3815  0.1203 -1.1484
  125MOL0     C16792   1.584   5.730   9.242 -0.0908  0.0075 -0.2257
  125MOL0     C16793   1.583   5.875   9.252 -0.0619  0.3004  0.6415
  125MOL0     C16794   1.738   6.292   9.304  0.5103 -0.1067 -0.5048
  125MOL0     C16795   1.864   6.342   9.264  0.0052 -0.5270 -0.3009
  125MOL0     C16796   1.882   6.484   9.261  0.4932  0.6579  0.2354
  125MOL0     C16797   1.784   6.577   9.302 -0.2644 -0.9040  0.0089
  125MOL0     O16798   1.814   6.716   9.299 -1.0840 -0.8089 -0.4036
  125MOL0     C16799   1.757   6.783   9.184  0.5821  0.6171  0.2586
  125MOL0     C16800   1.837   6.749   9.059 -0.1456  1.4137  0.4093
  125MOL0     C16801   1.845   6.874   8.977  0.2748 -0.2435 -0.0663
  125MOL0     C16802   1.956   6.964   9.017  0.7980  0.1224  0.0050
  125MOL0     C16803   2.078   6.914   8.961 -0.0309  0.3603  0.3239
  125MOL0     C16804   2.190   6.866   8.943 -0.1654 -0.3160 -0.7023
  125MOL0     C16805   1.664   6.531   9.350  0.3497  0.1194 -0.6342
  125MOL0     C16806   1.637   6.389   9.349 -0.3130  0.8986  0.2865
  125MOL0     C16807   1.491   6.350   9.380  0.0726  0.5762  0.8036
  125MOL0     H16808   1.836   5.943   9.045  0.3575 -2.3314 -1.2106
  125MOL0     H16809   1.844   5.698   9.026 -5.0497 -0.5700 -5.1546
  125MOL0     H16810   1.757   5.470   8.969 -0.9211  4.0114  0.7090
  125MOL0     H16811   1.884   5.472   9.089 -0.1625 -0.4856  1.3038
  125MOL0     H16812   1.807   5.278   9.203  1.8233  3.6560 -0.1294
  125MOL0     H16813   1.856   5.253   9.039 -2.3040 -1.3889 -1.8426
  125MOL0     H16814   1.676   5.124   9.043  1.1722 -0.0893  1.2313
  125MOL0     H16815   1.606   5.275   8.972 -1.1154 -3.2433 -0.4832
  125MOL0     H16816   1.608   5.243   9.264  0.2971  0.0929 -1.3818
  125MOL0     H16817   1.528   5.347   9.154  2.3954 -0.6883 -3.7245
  125MOL0     H16818   1.506   5.044   9.162 -0.8074 -0.7804  1.3318
  125MOL0     H16819   1.388   5.123   9.249  0.4678 -2.6439  1.0645
  125MOL0     H16820   1.330   5.229   8.999  2.0113  1.8395  3.8513
  125MOL0     H16821   1.426   5.095   8.947 -0.9408  0.5237 -0.4174
  125MOL0     H16822   1.245   4.967   9.112  3.2437 -0.8591 -1.9454
  125MOL0     H16823   1.246   4.962   8.947 -1.9136  0.9725 -1.4654
  125MOL0     H16824   1.094   5.182   9.097 -4.1474  0.5939 -0.9427
  125MOL0     H16825   1.116   5.189   8.925  1.0877 -0.0967 -1.1930
  125MOL0     H16826   0.841   5.123   9.132  1.9734  1.6484 -1.5806
  125MOL0     H16827   0.613   4.903   8.956  0.2989  4.6793 -1.0244
  125MOL0     H16828   0.666   4.811   9.105  0.7154  1.1777 -0.3603
  125MOL0     H16829   0.631   5.001   9.248 -0.3270 -0.7264  0.4647
  125MOL0     H16830   0.597   5.105   9.110  1.4860 -0.3390  2.5787
  125MOL0     H16831   0.418   4.858   9.198 -1.3207  0.1337 -0.0795
  125MOL0     H16832   0.382   4.996   9.083 -0.5347 -1.9862 -0.8624
  125MOL0     H16833   0.416   5.155   9.255 -1.1089  0.4601  0.1100
  125MOL0     H16834   0.408   5.031   9.389 -1.4480  1.2110  0.2757
  125MOL0     H16835   0.207   5.316   9.375 -1.1757  1.2282 -0.0226
  125MOL0     H16836   0.076   5.486   9.280  0.4860 -0.4391 -0.9015
  125MOL0     H16837  -0.325   5.610   9.047  0.6800 -0.7573  1.1607
  125MOL0     H16838  -0.451   5.804   8.994  0.3103  0.3123  0.6620
  125MOL0     H16839  -0.356   6.218   9.028  0.2973 -1.7679  0.1500
  125MOL0     H16840  -0.236   6.194   8.899  0.0724  0.9471  0.4123
  125MOL0     H16841  -0.412   6.207   8.733  1.1883 -1.4591  1.9684
  125MOL0     H16842  -0.531   6.220   8.865 -0.9055  1.3460 -0.3036
  125MOL0     H16843  -0.421   6.439   8.961 -0.6357  0.3484 -0.0621
  125MOL0     H16844  -0.307   6.430   8.824 -0.0654  0.8541 -0.0089
  125MOL0     H16845  -0.602   6.466   8.800 -0.9990 -2.7996 -3.2352
  125MOL0     H16846  -0.506   6.434   8.661 -1.2028  3.3135 -1.4322
  125MOL0     H16847  -0.383   6.646   8.685  2.7896  1.0410  3.1661
  125MOL0     H16848  -0.457   6.676   8.842 -1.6529  2.0270 -0.8577
  125MOL0     H16849  -0.610   6.658   8.564 -2.0963 -0.6984 -0.5192
  125MOL0     H16850  -0.684   6.645   8.729  2.0833 -0.5097  0.9543
  125MOL0     H16851  -0.597   6.864   8.789 -0.6731  1.3253 -0.1121
  125MOL0     H16852  -0.710   6.869   8.650  1.2353  0.7791 -1.0963
  125MOL0     H16853  -0.539   6.872   8.496 -0.0311  2.0412 -1.0909
  125MOL0     H16854  -0.572   7.016   8.601 -0.2923 -0.2269 -0.5256
  125MOL0     H16855  -0.110   6.047   9.034  0.3236 -0.2236  0.3068
  125MOL0     H16856   0.018   5.867   9.106 -0.3570 -2.0752  1.1633
  125MOL0     H16857  -0.001   5.207   8.954 -1.2093 -1.3059  1.7369
  125MOL0     H16858   0.120   5.045   9.056  1.4589  0.1104 -0.4042
  125MOL0     H16859   1.506   5.678   9.297  1.6108 -1.1039  1.2512
  125MOL0     H16860   1.517   5.927   9.320  1.3111 -1.5459  3.5432
  125MOL0     H16861   1.946   6.283   9.224 -0.0725 -0.5587 -0.4142
  125MOL0     H16862   1.976   6.530   9.232  0.8022  2.2201  3.3284
  125MOL0     H16863   1.753   6.892   9.194  0.2014  0.7072 -0.7454
  125MOL0     H16864   1.652   6.757   9.170  0.7513  0.4568 -0.8026
  125MOL0     H16865   1.798   6.671   8.994  1.7863  2.9086 -2.7578
  125MOL0     H16866   1.938   6.716   9.087 -1.2903 -0.8930  2.2013
  125MOL0     H16867   1.748   6.925   8.984  0.5734  0.3222 -0.0921
  125MOL0     H16868   1.845   6.859   8.868 -1.2634  0.6130 -0.2217
  125MOL0     H16869   1.945   7.068   8.986  0.8541  0.6005  1.5156
  125MOL0     H16870   1.966   6.960   9.125 -0.9881 -0.5604  0.1731
  125MOL0     H16871   2.291   6.832   8.935 -0.2063 -1.0587  1.3495
  125MOL0     H16872   1.589   6.602   9.384  0.8407  0.3103  0.0586
  125MOL0     H16873   1.456   6.283   9.301 -1.3987  3.9810 -1.6827
  125MOL0     H16874   1.471   6.297   9.474 -1.1546 -1.7338 -0.6438
  125MOL0     H16875   1.429   6.440   9.381 -2.5165 -1.0826  0.9441
  126MOL0     O16876   7.910   6.165  11.252  0.0288 -0.2976 -0.6454
  126MOL0     C16877   7.961   6.170  11.365 -0.6431 -0.2545  0.7297
  126MOL0     O16878   8.085   6.229  11.402  0.1103  0.0568  0.2490
  126MOL0     C16879   8.155   6.292  11.303  0.4886  1.0612 -0.3517
  126MOL0     C16880   8.103   6.377  11.213 -0.0543 -0.7265  0.2854
  126MOL0     C16881   8.178   6.454  11.117  0.0559 -0.4471 -0.0575
  126MOL0     C16882   8.315   6.436  11.123  0.5697 -0.0189  0.6383
  126MOL0     O16883   8.384   6.506  11.030  0.2905 -0.4402  0.9435
  126MOL0     C16884   8.529   6.505  11.027  0.4518 -0.6892  0.2359
  126MOL0     C16885   8.572   6.543  10.894  0.1203  0.9222  0.7357
  126MOL0     C16886   8.546   6.688  10.851 -0.3391  0.8749  0.3896
  126MOL0     C16887   8.663   6.778  10.913 -0.2114 -0.2113 -0.0934
  126MOL0     C16888   8.640   6.932  10.896 -0.5434 -0.4331 -0.5334
  126MOL0     C16889   8.742   7.017  10.971  0.3376  0.5880  1.1192
  126MOL0     C16890   8.756   7.161  10.929  0.2303 -0.0394 -0.0904
  126MOL0     C16891   8.900   7.211  10.944 -0.7606  0.0288 -0.2031
  126MOL0     N16892   8.907   7.358  10.898  0.9629  1.1459  0.0783
  126MOL0     C16893   8.926   7.419  10.774 -0.3327  0.0590 -0.6425
  126MOL0     C16894   8.926   7.551  10.812 -0.0745  0.3338 -0.0523
  126MOL0     C16895   8.958   7.670  10.733 -0.8830  1.1550  0.0164
  126MOL0     C16896   8.829   7.713  10.652  0.3446  1.2899 -0.2943
  126MOL0     C16897   8.852   7.849  10.575  0.1376  0.8873 -0.2976
  126MOL0     C16898   8.908   7.833  10.427 -0.2107  0.0931 -0.9666
  126MOL0     O16899   8.790   7.801  10.352  0.3652  0.6159 -0.8248
  126MOL0     C16900   8.819   7.733  10.233 -1.6518 -0.1491  0.0990
  126MOL0     C16901   8.926   7.760  10.144  1.2246 -0.6749 -0.6614
  126MOL0     C16902   8.949   7.691  10.018  0.6053 -0.5515  0.1980
  126MOL0     C16903   8.839   7.598   9.982  0.1966 -0.1472  0.5831
  126MOL0     C16904   8.837   7.534   9.845 -0.9525  0.6387  1.0384
  126MOL0     O16905   8.930   7.578   9.759  0.5778 -0.2988  0.2977
  126MOL0     C16906   8.980   7.500   9.663  0.0713 -0.1003 -0.0040
  126MOL0     C16907   9.117   7.466   9.670 -0.0322  0.3583  0.7035
  126MOL0     C16908   9.187   7.400   9.571 -1.1404  0.3048 -0.2107
  126MOL0     C16909   9.112   7.351   9.463  0.0692  0.0466  0.2194
  126MOL0     O16910   9.185   7.296   9.360 -0.4418  0.4276  0.1361
  126MOL0     C16911   9.141   7.181   9.286  0.3937  0.1361  1.2135
  126MOL0     C16912   9.231   7.068   9.330  0.9273  0.2544 -0.5609
  126MOL0     C16913   9.169   6.934   9.274  0.0007 -0.3988 -0.3068
  126MOL0     C16914   9.262   6.827   9.272  0.1467 -0.6162  0.4168
  126MOL0     C16915   9.216   6.718   9.173 -1.0374 -0.6911 -0.2432
  126MOL0     C16916   9.294   6.585   9.210 -0.7730  0.1350 -0.3168
  126MOL0     C16917   9.234   6.458   9.151  0.1189  0.4177 -0.8400
  126MOL0     C16918   9.093   6.401   9.207  0.4618  0.7697 -0.4221
  126MOL0    Cl16919   9.106   6.328   9.376  0.1009 -0.4659  0.1199
  126MOL0     C16920   8.976   7.386   9.454 -0.4065  0.6113  0.6754
  126MOL0     C16921   8.916   7.470   9.550  0.1076  0.6049  1.3259
  126MOL0     O16922   8.771   7.438   9.817  0.1555  0.1490 -0.2131
  126MOL0     C16923   8.730   7.573  10.078  0.6565  0.4748 -0.8366
  126MOL0     C16924   8.722   7.647  10.196  0.8477  0.9457 -0.4650
  126MOL0     N16925   8.887   7.571  10.944  0.2882  0.4499 -0.6074
  126MOL0     N16926   8.879   7.451  10.992 -0.3844  1.1648 -0.0407
  126MOL0     C16927   8.370   6.347  11.215 -0.1218  0.1313  0.0573
  126MOL0     C16928   8.293   6.278  11.309  0.3495 -1.1281  0.7956
  126MOL0     C16929   7.898   6.093  11.474 -0.5155  1.0500  0.0123
  126MOL0     C16930   7.937   6.116  11.607 -0.1281 -0.1041  1.1426
  126MOL0     C16931   7.884   6.040  11.712 -0.1104 -0.0513  0.0939
  126MOL0     C16932   7.794   5.938  11.685  0.3004 -0.2980 -0.5931
  126MOL0     O16933   7.775   5.860  11.786  0.4550 -0.1650  0.1353
  126MOL0     C16934   7.654   5.889  11.853  0.5683  0.0770 -0.2790
  126MOL0     C16935   7.628   5.797  11.970 -0.3370 -0.1322 -0.4872
  126MOL0     C16936   7.595   5.651  11.943  0.9565  0.3933 -0.8781
  126MOL0     C16937   7.572   5.572  12.074 -0.0199 -0.3933  0.4911
  126MOL0     C16938   7.499   5.442  12.053  0.5558  0.2769 -0.2800
  126MOL0     C16939   7.430   5.342  12.029  0.4805  0.7422 -0.1758
  126MOL0     C16940   7.756   5.906  11.557 -0.6567  0.5641  0.1693
  126MOL0     C16941   7.814   5.976  11.449  0.2941  1.1372  0.5460
  126MOL0     C16942   7.764   5.917  11.317  0.6812 -0.2285  0.1498
  126MOL0     H16943   7.998   6.405  11.205  0.6926  2.2227 -0.4448
  126MOL0     H16944   8.136   6.521  11.043 -0.1914  0.6219  1.0164
  126MOL0     H16945   8.575   6.582  11.089 -0.1236  0.3891 -0.6486
  126MOL0     H16946   8.575   6.413  11.064  0.2808 -1.2030 -0.7939
  126MOL0     H16947   8.503   6.489  10.829  1.1510  1.0857 -0.5486
  126MOL0     H16948   8.676   6.518  10.870 -0.8805 -3.3171  0.0038
  126MOL0     H16949   8.451   6.726  10.889  0.5205  0.6625  2.9344
  126MOL0     H16950   8.539   6.687  10.741  1.0500 -3.9134  0.1209
  126MOL0     H16951   8.699   6.748  11.012 -2.0167  4.2691  2.2338
  126MOL0     H16952   8.750   6.758  10.850 -1.0596 -0.6243 -1.1846
  126MOL0     H16953   8.629   6.956  10.790 -0.2781 -3.4679 -1.3499
  126MOL0     H16954   8.537   6.947  10.930  0.1428 -1.8497  2.5269
  126MOL0     H16955   8.735   7.011  11.080 -0.0824 -1.0868  1.0357
  126MOL0     H16956   8.842   6.984  10.943 -0.3378 -1.3739  0.8466
  126MOL0     H16957   8.702   7.225  10.999 -0.3442 -1.0875  0.4499
  126MOL0     H16958   8.732   7.175  10.823  1.2274 -1.7966 -0.5838
  126MOL0     H16959   8.929   7.204  11.049  0.1775 -1.2716 -0.5117
  126MOL0     H16960   8.958   7.140  10.883 -1.8271 -1.8984  0.9452
  126MOL0     H16961   8.974   7.388  10.682  2.6492 -1.0333  1.1103
  126MOL0     H16962   8.996   7.755  10.790  0.0005  2.3097 -2.1816
  126MOL0     H16963   9.045   7.646  10.673  0.1000 -0.0687  1.8224
  126MOL0     H16964   8.802   7.640  10.576  1.9768  0.5515 -0.2002
  126MOL0     H16965   8.744   7.715  10.721  2.5320 -1.7124  2.8066
  126MOL0     H16966   8.923   7.906  10.637 -0.3267 -0.8866  1.9888
  126MOL0     H16967   8.765   7.916  10.570  0.6602  1.7679  1.5973
  126MOL0     H16968   8.986   7.757  10.427  2.9580  3.0901 -2.2397
  126MOL0     H16969   8.937   7.930  10.387  0.2634  0.2113 -0.3435
  126MOL0     H16970   9.001   7.832  10.174  0.8112 -1.0255  1.3706
  126MOL0     H16971   9.031   7.727   9.956  1.2285 -2.2122  0.0296
  126MOL0     H16972   9.164   7.491   9.765  2.4011  0.8567 -0.5708
  126MOL0     H16973   9.293   7.377   9.571 -0.6639  2.3589  0.7030
  126MOL0     H16974   9.036   7.154   9.301  0.2080  0.4606  0.5284
  126MOL0     H16975   9.158   7.204   9.181 -3.5984 -0.5959  0.2361
  126MOL0     H16976   9.328   7.092   9.285  0.0237  5.2481 -0.4552
  126MOL0     H16977   9.236   7.059   9.439  0.5051 -2.6246 -0.6986
  126MOL0     H16978   9.080   6.913   9.334  2.6759 -2.2695  3.3905
  126MOL0     H16979   9.140   6.961   9.172 -1.0118  4.0053  0.9296
  126MOL0     H16980   9.284   6.793   9.374 -0.5336  2.1942  1.6278
  126MOL0     H16981   9.344   6.874   9.218 -3.2389  1.6787 -3.3439
  126MOL0     H16982   9.244   6.765   9.079  2.5271 -2.9448 -0.4899
  126MOL0     H16983   9.107   6.704   9.178 -1.1701  0.6245  1.5460
  126MOL0     H16984   9.395   6.597   9.170 -0.7657 -0.7874 -0.6157
  126MOL0     H16985   9.289   6.583   9.319  0.3493  1.4358 -0.2157
  126MOL0     H16986   9.308   6.379   9.166  1.7219  1.2936 -3.3655
  126MOL0     H16987   9.212   6.461   9.043 -1.6752 -3.4438 -0.7411
  126MOL0     H16988   9.026   6.487   9.216 -1.9803 -1.0775  0.3554
  126MOL0     H16989   9.061   6.341   9.121 -0.7154  4.3567 -2.6914
  126MOL0     H16990   8.920   7.347   9.370  2.5120 -0.1494 -1.0519
  126MOL0     H16991   8.810   7.488   9.532 -0.4484 -3.9437 -1.8959
  126MOL0     H16992   8.662   7.491  10.058  2.5012 -2.1811  2.5343
  126MOL0     H16993   8.643   7.630  10.268 -0.2263 -1.4921 -2.0681
  126MOL0     H16994   8.479   6.343  11.213 -0.1520 -0.8095 -0.0776
  126MOL0     H16995   8.342   6.205  11.372  3.7518  0.2096 -0.1043
  126MOL0     H16996   8.013   6.191  11.629 -2.5721  2.4786  1.3308
  126MOL0     H16997   7.908   6.062  11.816 -1.0032 -2.0311  0.7741
  126MOL0     H16998   7.567   5.869  11.790  0.1024 -2.8145  1.0905
  126MOL0     H16999   7.650   5.991  11.891 -3.9712  0.5252 -1.4335
  126MOL0     H17000   7.554   5.850  12.030  1.7481  1.3125  0.9407
  126MOL0     H17001   7.725   5.795  12.021 -0.5922 -1.8308  0.0213
  126MOL0     H17002   7.675   5.606  11.883 -0.1546  0.9761 -2.9142
  126MOL0     H17003   7.500   5.643  11.888  1.7787 -0.7857 -2.2083
  126MOL0     H17004   7.671   5.556  12.118 -0.4341 -0.7876  1.3099
  126MOL0     H17005   7.506   5.633  12.137  1.7036  3.7224 -1.3278
  126MOL0     H17006   7.364   5.261  12.005  1.3926 -0.6885  1.8659
  126MOL0     H17007   7.677   5.833  11.560  1.0769 -1.4180 -0.1886
  126MOL0     H17008   7.773   5.807  11.315 -2.4304 -0.5443 -0.4544
  126MOL0     H17009   7.661   5.949  11.303 -0.1755 -1.0973  3.5661
  126MOL0     H17010   7.812   5.959  11.228 -2.5210 -0.0955 -1.6655
  127MOL0     O17011   4.445   5.420   0.705  0.1625  0.2945  0.5845
  127MOL0     C17012   4.385   5.378   0.607 -0.5737 -0.0247  0.3992
  127MOL0     O17013   4.243   5.352   0.601 -0.9926 -0.0611  0.2833
  127MOL0     C17014   4.159   5.345   0.712 -1.2397 -1.3965  0.4016
  127MOL0     C17015   4.024   5.357   0.692  0.0687  0.5308 -0.4084
  127MOL0     C17016   3.933   5.338   0.795  0.4577 -0.7247 -0.0096
  127MOL0     C17017   3.976   5.314   0.922 -0.0419  0.1923  0.1519
  127MOL0     O17018   3.889   5.316   1.035 -0.5196  0.2361  0.0960
  127MOL0     C17019   3.885   5.447   1.105  0.4279 -0.8832 -0.1878
  127MOL0     C17020   3.780   5.435   1.223  0.0560  0.4418 -0.2264
  127MOL0     C17021   3.850   5.389   1.352 -0.6454  0.7426  0.6861
  127MOL0     C17022   3.933   5.260   1.333  0.1453  0.5887 -0.5192
  127MOL0     C17023   4.013   5.219   1.457  0.6158  0.7858  1.3159
  127MOL0     C17024   4.126   5.314   1.478  0.0523  0.7068 -0.4121
  127MOL0     C17025   4.224   5.255   1.589  0.1226 -0.9336  0.6082
  127MOL0     C17026   4.286   5.127   1.546 -0.0999  0.4798  0.3749
  127MOL0     N17027   4.398   5.114   1.641  0.3714  0.2982  1.3352
  127MOL0     C17028   4.404   5.078   1.775  0.7163  0.4010  0.0702
  127MOL0     C17029   4.532   5.058   1.814 -0.3852  0.8349 -0.5083
  127MOL0     C17030   4.584   5.004   1.943 -0.7287 -0.9704  0.0905
  127MOL0     C17031   4.484   4.995   2.064  0.2123 -0.4919  0.5204
  127MOL0     C17032   4.424   5.133   2.101  0.7513  0.2157 -0.4943
  127MOL0     C17033   4.515   5.245   2.138  0.0485  0.7235 -0.2650
  127MOL0     O17034   4.593   5.194   2.249  0.5396 -1.5559  0.8884
  127MOL0     C17035   4.693   5.272   2.288  0.1586  0.5205  0.0256
  127MOL0     C17036   4.811   5.289   2.214 -0.1841  0.7186 -0.4659
  127MOL0     C17037   4.916   5.377   2.252 -0.0388 -0.1099 -0.5155
  127MOL0     C17038   4.896   5.450   2.375  0.0003 -0.0205 -1.0029
  127MOL0     C17039   4.995   5.546   2.423  0.2838 -0.0419 -0.6594
  127MOL0     O17040   5.108   5.547   2.360  0.1800 -0.3187  0.3892
  127MOL0     C17041   5.193   5.660   2.363  0.1290  0.2913  0.0284
  127MOL0     C17042   5.178   5.741   2.262  0.7170  0.0619  0.0489
  127MOL0     C17043   5.255   5.859   2.260  0.4404  0.2049 -0.1333
  127MOL0     C17044   5.334   5.890   2.367  0.7940 -0.5230  0.1599
  127MOL0     O17045   5.404   6.007   2.387  0.5254  0.1229 -0.3488
  127MOL0     C17046   5.437   6.086   2.269 -1.6399  0.1646  0.5257
  127MOL0     C17047   5.326   6.170   2.216 -0.5664  0.3384 -0.5854
  127MOL0     C17048   5.357   6.319   2.226 -0.4750 -0.6508  0.2160
  127MOL0     C17049   5.279   6.404   2.128  0.0114  1.0765 -0.3027
  127MOL0     C17050   5.272   6.551   2.164  0.3945  0.3920  0.1254
  127MOL0     C17051   5.172   6.624   2.076  0.3171  0.1677  0.8054
  127MOL0     C17052   5.146   6.767   2.125  0.2571  0.3169 -0.1474
  127MOL0     C17053   5.062   6.858   2.038  0.1384  0.1943  0.0116
  127MOL0    Cl17054   5.038   7.026   2.117 -0.1296 -0.0984 -0.0788
  127MOL0     C17055   5.329   5.815   2.479  0.7056  0.2660  1.1148
  127MOL0     C17056   5.261   5.694   2.478 -0.7396  0.7391  0.2231
  127MOL0     O17057   4.964   5.614   2.518  0.1188 -0.5704 -0.3263
  127MOL0     C17058   4.782   5.422   2.461 -0.0271  0.3423  0.3533
  127MOL0     C17059   4.679   5.337   2.411  0.0923 -0.2707 -0.1514
  127MOL0     N17060   4.604   5.074   1.704  0.6086 -0.1206  0.0310
  127MOL0     N17061   4.528   5.107   1.599 -0.5343 -0.2111 -0.2635
  127MOL0     C17062   4.117   5.288   0.937 -0.7347 -0.0264 -0.8060
  127MOL0     C17063   4.210   5.306   0.835  0.1045  0.2588 -0.5367
  127MOL0     C17064   4.459   5.349   0.479 -0.2429  0.2763 -0.6323
  127MOL0     C17065   4.386   5.298   0.374 -0.7819 -0.9588 -0.0936
  127MOL0     C17066   4.449   5.265   0.249  0.0671 -0.3488  0.9816
  127MOL0     C17067   4.582   5.292   0.221 -0.0754 -0.2049 -0.4714
  127MOL0     O17068   4.646   5.264   0.115 -0.5209 -0.1318  0.3891
  127MOL0     C17069   4.610   5.195   0.002 -0.8494 -0.2360  0.2694
  127MOL0     C17070   4.585   5.291  -0.116 -0.0335  0.2627 -0.8409
  127MOL0     C17071   4.712   5.305  -0.197  0.7689 -0.2092 -0.1015
  127MOL0     C17072   4.684   5.362  -0.341  0.3482  0.3269  0.8878
  127MOL0     C17073   4.660   5.254  -0.446  0.8755  0.8245 -0.4912
  127MOL0     C17074   4.630   5.165  -0.530  0.3961  0.6733  0.1410
  127MOL0     C17075   4.647   5.361   0.325 -0.1842  0.4755  0.5959
  127MOL0     C17076   4.595   5.383   0.453 -0.5056  0.5949  0.1908
  127MOL0     C17077   4.691   5.452   0.554  1.2119 -0.6584 -0.1068
  127MOL0     H17078   3.981   5.388   0.598 -0.8463 -3.1891 -1.3914
  127MOL0     H17079   3.830   5.358   0.767  0.4675 -1.2985 -0.4661
  127MOL0     H17080   3.983   5.472   1.147  0.2443 -1.2679  0.4856
  127MOL0     H17081   3.856   5.529   1.038  1.2614  0.3057  0.8611
  127MOL0     H17082   3.696   5.367   1.206 -0.9421  1.5166  0.2515
  127MOL0     H17083   3.732   5.532   1.240 -1.6703 -0.1857 -1.1566
  127MOL0     H17084   3.777   5.374   1.432 -0.1162 -1.5922  0.8049
  127MOL0     H17085   3.917   5.470   1.380  2.0912  0.2382 -3.5145
  127MOL0     H17086   3.864   5.177   1.319 -0.1839  0.6885  0.4148
  127MOL0     H17087   4.013   5.262   1.258 -1.3351 -0.4193 -2.1743
  127MOL0     H17088   3.949   5.226   1.546  1.7787 -0.7112  2.3029
  127MOL0     H17089   4.046   5.115   1.455  0.0315  0.5522  2.5835
  127MOL0     H17090   4.185   5.321   1.386  1.1358 -0.1649  0.1812
  127MOL0     H17091   4.090   5.414   1.503 -0.8645  0.5192 -0.9376
  127MOL0     H17092   4.182   5.234   1.687 -0.0224  0.0545  0.7704
  127MOL0     H17093   4.297   5.336   1.597 -1.1935  0.2201  1.3513
  127MOL0     H17094   4.221   5.039   1.550  1.2736 -0.5595  0.9718
  127MOL0     H17095   4.331   5.128   1.447  3.8606 -0.8486  1.9522
  127MOL0     H17096   4.321   5.046   1.836  1.9341 -2.5186  0.3720
  127MOL0     H17097   4.629   4.906   1.930 -0.1984 -0.6523 -0.5097
  127MOL0     H17098   4.664   5.074   1.969 -0.8980 -1.0276  0.7860
  127MOL0     H17099   4.392   4.939   2.048 -0.9610 -0.5783  5.7043
  127MOL0     H17100   4.538   4.951   2.149 -0.2210 -2.2130 -0.0689
  127MOL0     H17101   4.356   5.120   2.185  1.2348 -1.0789 -0.2908
  127MOL0     H17102   4.370   5.171   2.013  1.9700 -1.2361 -1.9279
  127MOL0     H17103   4.460   5.332   2.175  1.2123  0.9201  1.1092
  127MOL0     H17104   4.582   5.266   2.053 -1.1354 -0.4452 -1.5345
  127MOL0     H17105   4.819   5.232   2.122  2.8403  0.0796  0.1139
  127MOL0     H17106   5.006   5.400   2.195 -0.6053 -0.8572 -1.7308
  127MOL0     H17107   5.120   5.731   2.172  0.6471  1.7854 -0.1261
  127MOL0     H17108   5.260   5.918   2.169 -0.7687  3.2903  1.6340
  127MOL0     H17109   5.523   6.151   2.290  0.5230 -1.6017 -2.2019
  127MOL0     H17110   5.490   6.031   2.190  0.4480  1.1162  1.1783
  127MOL0     H17111   5.331   6.138   2.112  5.1901  0.7592 -0.7220
  127MOL0     H17112   5.232   6.139   2.264 -1.9729  0.7668 -2.8904
  127MOL0     H17113   5.326   6.343   2.328 -1.9817 -0.5862 -0.2344
  127MOL0     H17114   5.464   6.328   2.208 -0.1453 -1.6321  1.5354
  127MOL0     H17115   5.179   6.361   2.116  1.0246 -2.1329  1.3651
  127MOL0     H17116   5.327   6.397   2.030 -0.7769 -0.0799 -0.6273
  127MOL0     H17117   5.373   6.591   2.153 -0.5324  2.3220 -2.6110
  127MOL0     H17118   5.231   6.566   2.264  0.2645  0.2070  0.1004
  127MOL0     H17119   5.204   6.623   1.971  1.6259  0.0151  1.1876
  127MOL0     H17120   5.073   6.580   2.067  0.5351  0.0448 -2.1677
  127MOL0     H17121   5.246   6.809   2.141 -0.2754  1.6103 -0.1570
  127MOL0     H17122   5.095   6.764   2.222  2.7535  1.6991  1.3338
  127MOL0     H17123   5.104   6.871   1.938  3.7157  1.2398  1.4640
  127MOL0     H17124   4.967   6.806   2.027  0.1065  0.3091 -0.2571
  127MOL0     H17125   5.385   5.861   2.560  2.4759  2.4485 -1.1793
  127MOL0     H17126   5.248   5.624   2.560 -2.2980  2.3401  1.4154
  127MOL0     H17127   4.752   5.472   2.552 -3.4738  0.6091 -0.7877
  127MOL0     H17128   4.588   5.334   2.469  1.9739  0.4285  3.0425
  127MOL0     H17129   4.162   5.268   1.034  0.9788  2.0919 -1.0618
  127MOL0     H17130   4.308   5.261   0.848  1.1374  2.4012 -0.3950
  127MOL0     H17131   4.280   5.277   0.385 -0.8196 -1.4847 -1.2604
  127MOL0     H17132   4.375   5.234   0.176 -0.8983  2.1091  0.8210
  127MOL0     H17133   4.519   5.139   0.029 -0.4964 -1.8108 -1.5792
  127MOL0     H17134   4.689   5.122  -0.017  2.1371  3.3986 -2.4632
  127MOL0     H17135   4.537   5.387  -0.095  2.6665  1.7726 -1.1351
  127MOL0     H17136   4.514   5.247  -0.187 -1.3242  2.8223 -1.2656
  127MOL0     H17137   4.774   5.215  -0.199  1.3141 -0.0860  3.7510
  127MOL0     H17138   4.774   5.381  -0.147 -2.1542  0.7727  2.3811
  127MOL0     H17139   4.602   5.434  -0.343  1.6866  1.9358  1.4433
  127MOL0     H17140   4.772   5.419  -0.372  0.2896  0.8878  1.7238
  127MOL0     H17141   4.634   5.086  -0.603 -3.4090  0.7703 -0.4115
  127MOL0     H17142   4.753   5.384   0.313 -0.0354 -0.2194  0.5411
  127MOL0     H17143   4.650   5.550   0.580 -2.2877 -1.8229 -0.7428
  127MOL0     H17144   4.691   5.394   0.646 -0.5849 -1.7413 -0.7264
  127MOL0     H17145   4.785   5.466   0.499 -0.5459 -2.3701 -3.9281
  128MOL0     O17146  11.480  10.040   7.322  0.0413 -1.2781  0.0946
  128MOL0     C17147  11.370  10.018   7.278 -0.2128 -0.7511 -0.4266
  128MOL0     O17148  11.268  10.119   7.263 -0.0557 -0.1929  0.6193
  128MOL0     C17149  11.291  10.254   7.292  0.6960  0.2542 -0.4133
  128MOL0     C17150  11.220  10.344   7.219 -0.6234 -0.4360  0.5226
  128MOL0     C17151  11.239  10.477   7.227 -0.1127 -0.1459  0.6780
  128MOL0     C17152  11.308  10.533   7.338 -0.1265  0.0170 -0.2636
  128MOL0     O17153  11.320  10.664   7.351 -0.0233  0.1957 -0.0426
  128MOL0     C17154  11.312  10.709   7.494 -0.0486 -0.3603 -0.3382
  128MOL0     C17155  11.172  10.702   7.561  0.0509  0.0739 -0.3190
  128MOL0     C17156  11.083  10.815   7.526  1.2449  0.2911  0.9656
  128MOL0     C17157  11.121  10.932   7.617  0.4518  1.1389  0.2839
  128MOL0     C17158  11.029  11.046   7.590  0.0605  0.2258  0.6729
  128MOL0     C17159  11.038  11.149   7.698  0.7441 -0.5797  0.6694
  128MOL0     C17160  10.978  11.288   7.659 -0.0839  0.4205  0.3675
  128MOL0     C17161  10.848  11.268   7.580  0.4957 -0.0216 -0.0280
  128MOL0     N17162  10.735  11.215   7.666  0.0950 -0.1935 -0.3857
  128MOL0     C17163  10.662  11.291   7.752 -0.9775  0.6839  0.3413
  128MOL0     C17164  10.584  11.199   7.803 -0.4899  0.2297 -1.1378
  128MOL0     C17165  10.472  11.230   7.893 -0.4318  1.5325  0.9267
  128MOL0     C17166  10.367  11.311   7.811  1.3819 -0.6180  0.1482
  128MOL0     C17167  10.235  11.343   7.887  0.8909 -0.4583 -0.7447
  128MOL0     C17168  10.127  11.395   7.791  0.1089 -0.6348 -0.0257
  128MOL0     O17169  10.155  11.535   7.747  0.3240 -0.8846 -0.7709
  128MOL0     C17170  10.060  11.601   7.660 -1.1358 -0.0709  0.1034
  128MOL0     C17171   9.961  11.535   7.592 -0.6674 -1.0763  1.0385
  128MOL0     C17172   9.867  11.605   7.520 -0.2556 -0.5396  0.1603
  128MOL0     C17173   9.886  11.743   7.495  0.2374 -0.5591  0.6434
  128MOL0     C17174   9.770  11.815   7.426 -0.5088 -0.1789  0.1501
  128MOL0     O17175   9.657  11.749   7.402 -0.6729  0.1783 -0.7114
  128MOL0     C17176   9.564  11.779   7.305  0.7368 -0.1241 -0.1984
  128MOL0     C17177   9.443  11.823   7.351  0.2885 -0.1105  0.8504
  128MOL0     C17178   9.347  11.851   7.259  0.1413 -0.3543 -0.2680
  128MOL0     C17179   9.370  11.825   7.121  0.9533 -0.0002  0.7264
  128MOL0     O17180   9.261  11.843   7.028 -0.3525  0.1436 -0.2660
  128MOL0     C17181   9.287  11.923   6.918 -0.6201  0.1800 -0.4141
  128MOL0     C17182   9.159  12.006   6.891 -0.1193  0.0124 -0.0971
  128MOL0     C17183   9.148  12.135   6.968 -1.0073  0.2962 -0.4691
  128MOL0     C17184   9.003  12.193   6.949  0.3337 -0.1862  0.3228
  128MOL0     C17185   8.998  12.331   7.009  0.5693  0.2043  1.9738
  128MOL0     C17186   8.858  12.380   7.034  0.3468  0.5792  0.7549
  128MOL0     C17187   8.852  12.518   7.107 -1.0788  0.5279  0.2088
  128MOL0     C17188   8.716  12.575   7.120  0.8722 -0.0703  0.3923
  128MOL0    Cl17189   8.636  12.513   7.267  0.3409 -0.2020  0.1129
  128MOL0     C17190   9.489  11.766   7.086 -0.1483  0.4908  0.9335
  128MOL0     C17191   9.591  11.748   7.178 -0.7923  0.1209 -0.0179
  128MOL0     O17192   9.783  11.930   7.382 -0.5722  0.3073  0.1906
  128MOL0     C17193   9.995  11.820   7.541 -0.4908 -0.5783  0.1586
  128MOL0     C17194  10.077  11.739   7.631 -0.6957 -0.2468  0.0688
  128MOL0     N17195  10.606  11.078   7.748  1.0141  0.3828 -1.1105
  128MOL0     N17196  10.698  11.087   7.653 -0.5382  0.7790 -0.5594
  128MOL0     C17197  11.361  10.438   7.439  0.1144 -0.4745  0.4588
  128MOL0     C17198  11.357  10.298   7.408 -0.5705 -0.6270  0.1963
  128MOL0     C17199  11.329   9.888   7.223  0.5196  0.0344 -0.5988
  128MOL0     C17200  11.411   9.821   7.128 -0.5448 -0.3019 -0.5719
  128MOL0     C17201  11.398   9.678   7.115  1.3394  0.5810  0.1117
  128MOL0     C17202  11.291   9.611   7.180  0.4844 -0.1917  0.0969
  128MOL0     O17203  11.270   9.479   7.142 -0.1994 -0.2999 -0.5429
  128MOL0     C17204  11.261   9.381   7.243  0.4928  0.0022  0.7785
  128MOL0     C17205  11.406   9.337   7.289  0.3070 -0.6082 -0.2790
  128MOL0     C17206  11.400   9.223   7.384 -1.2182 -0.1749 -0.4047
  128MOL0     C17207  11.366   9.081   7.322 -0.1424 -0.9978  0.7512
  128MOL0     C17208  11.383   8.969   7.421 -0.8173  0.6452 -0.3200
  128MOL0     C17209  11.395   8.892   7.510 -1.6229  0.2449 -0.5923
  128MOL0     C17210  11.201   9.678   7.256  0.1850 -1.1257 -0.4955
  128MOL0     C17211  11.217   9.815   7.277  0.0507  0.2008 -0.5433
  128MOL0     C17212  11.127   9.864   7.381 -0.5339 -0.0519 -0.1916
  128MOL0     H17213  11.145  10.295   7.158 -2.7991  2.9255  0.2908
  128MOL0     H17214  11.199  10.538   7.147 -0.8742 -1.1181  0.2993
  128MOL0     H17215  11.388  10.663   7.557  0.4947  1.0427  0.0645
  128MOL0     H17216  11.336  10.815   7.485 -1.7075 -0.0503 -1.7799
  128MOL0     H17217  11.192  10.698   7.668  1.6132 -0.7921 -0.6189
  128MOL0     H17218  11.123  10.609   7.532  1.7646 -0.2631 -2.4060
  128MOL0     H17219  10.978  10.788   7.540  0.5997  0.3570 -2.6720
  128MOL0     H17220  11.086  10.842   7.419 -3.0196  0.3555  0.6912
  128MOL0     H17221  11.128  10.908   7.723  0.9590 -0.3973 -0.0661
  128MOL0     H17222  11.224  10.965   7.604  1.5455 -1.0251  2.5800
  128MOL0     H17223  11.051  11.093   7.493  2.4322  1.5514  1.7621
  128MOL0     H17224  10.929  11.006   7.574 -0.8413  3.0971 -1.7737
  128MOL0     H17225  10.996  11.120   7.795 -0.5988  1.1965  0.6485
  128MOL0     H17226  11.143  11.167   7.723  0.3881  0.0240  1.7485
  128MOL0     H17227  11.039  11.345   7.589 -0.0048 -1.4815 -1.1956
  128MOL0     H17228  10.975  11.350   7.749  0.9840  1.2452 -0.1513
  128MOL0     H17229  10.812  11.362   7.537  1.5568  0.5179  0.2560
  128MOL0     H17230  10.856  11.204   7.492 -2.3574 -0.0357 -0.3870
  128MOL0     H17231  10.657  11.397   7.777 -1.8996  0.8091 -0.3335
  128MOL0     H17232  10.425  11.141   7.935  0.0808 -0.1227 -1.8253
  128MOL0     H17233  10.506  11.276   7.987 -1.3457  3.3167  0.4267
  128MOL0     H17234  10.401  11.411   7.781 -0.4537  0.8485  2.5868
  128MOL0     H17235  10.347  11.250   7.722 -0.8706  0.4848 -0.1832
  128MOL0     H17236  10.237  11.423   7.961 -0.7503 -1.6073  0.6294
  128MOL0     H17237  10.191  11.259   7.941  1.5568  0.5958  1.5187
  128MOL0     H17238  10.029  11.388   7.839 -1.1762 -3.6314 -2.6310
  128MOL0     H17239  10.120  11.337   7.698  0.9755 -3.2136  1.4007
  128MOL0     H17240   9.937  11.432   7.613  0.5773 -1.5955  0.0274
  128MOL0     H17241   9.773  11.558   7.495  0.0254 -1.5637  0.9453
  128MOL0     H17242   9.428  11.823   7.458  1.4267  2.5551  1.0725
  128MOL0     H17243   9.258  11.900   7.296  0.9940  2.1567 -1.3062
  128MOL0     H17244   9.373  11.990   6.921 -1.5716  1.5160 -1.5149
  128MOL0     H17245   9.291  11.864   6.826  0.2715  3.6996 -2.8599
  128MOL0     H17246   9.160  12.031   6.784 -5.6585 -2.7102 -1.1114
  128MOL0     H17247   9.075  11.943   6.920 -1.1801  1.4138 -0.0615
  128MOL0     H17248   9.188  12.130   7.069  0.8083  3.9613 -0.8355
  128MOL0     H17249   9.202  12.212   6.911 -1.5692  0.4617 -0.7846
  128MOL0     H17250   8.925  12.137   7.001 -1.2940  0.5617 -1.2081
  128MOL0     H17251   8.969  12.204   6.845 -0.4034 -0.7175  0.4952
  128MOL0     H17252   9.060  12.406   6.959  2.1651 -1.8209  0.7473
  128MOL0     H17253   9.035  12.323   7.111  1.8572  2.0178  1.6986
  128MOL0     H17254   8.796  12.395   6.945 -1.1586 -0.6086  1.5730
  128MOL0     H17255   8.810  12.309   7.101  2.7192 -0.0917  1.8355
  128MOL0     H17256   8.921  12.587   7.058  4.0832 -4.3304 -0.4701
  128MOL0     H17257   8.886  12.498   7.209 -2.2810  1.3826  0.8050
  128MOL0     H17258   8.708  12.684   7.126  1.1614 -0.0365  0.1709
  128MOL0     H17259   8.672  12.535   7.028  0.0301 -0.3782  0.9227
  128MOL0     H17260   9.505  11.735   6.984  0.2682 -1.2061  1.4886
  128MOL0     H17261   9.685  11.700   7.151 -1.9411 -1.0955 -2.0814
  128MOL0     H17262  10.023  11.925   7.539 -0.1301 -0.6787 -0.1652
  128MOL0     H17263  10.166  11.787   7.670  0.1146 -1.0402 -0.7486
  128MOL0     H17264  11.417  10.463   7.528  0.9132  0.2567 -0.2251
  128MOL0     H17265  11.402  10.225   7.476  0.6248  1.4349  1.7619
  128MOL0     H17266  11.491   9.877   7.081 -0.6297  0.4940  0.2135
  128MOL0     H17267  11.459   9.616   7.050 -1.4718 -2.1952 -0.1476
  128MOL0     H17268  11.202   9.297   7.208  2.2000 -1.5220  1.3574
  128MOL0     H17269  11.208   9.432   7.325 -1.9887  1.6052 -1.6644
  128MOL0     H17270  11.457   9.420   7.338 -2.6220  0.8767  0.4636
  128MOL0     H17271  11.459   9.303   7.199  0.0407 -1.5214 -0.1016
  128MOL0     H17272  11.336   9.252   7.467 -0.7911  1.1205 -0.5138
  128MOL0     H17273  11.498   9.207   7.431  0.0785  1.7810 -2.2254
  128MOL0     H17274  11.265   9.073   7.281  1.0119 -0.9126 -2.3939
  128MOL0     H17275  11.424   9.072   7.230  0.8908  2.6388  0.8852
  128MOL0     H17276  11.394   8.825   7.594  1.5128 -0.5907 -1.0847
  128MOL0     H17277  11.114   9.622   7.288 -0.4622  1.8965  3.8265
  128MOL0     H17278  11.083   9.786   7.443 -1.2946  0.1305 -0.4935
  128MOL0     H17279  11.167   9.949   7.438  2.0193 -2.5502  2.0351
  128MOL0     H17280  11.033   9.895   7.334 -1.6190 -1.7599  0.7369
  129MOL0     O17281   9.909   8.986   4.024  0.2492  0.2663  0.2161
  129MOL0     C17282   9.818   9.044   4.085  0.0654  1.6605 -0.4385
  129MOL0     O17283   9.793   9.184   4.073  0.2265  0.2109 -0.9386
  129MOL0     C17284   9.847   9.248   3.970 -0.1181 -0.4463 -0.6208
  129MOL0     C17285   9.762   9.285   3.863 -0.7350 -0.2502 -1.4069
  129MOL0     C17286   9.821   9.356   3.754 -0.1640  0.5113  0.0884
  129MOL0     C17287   9.957   9.398   3.761  1.0897  0.4470  0.0915
  129MOL0     O17288   9.980   9.477   3.651  0.3706  0.6447 -0.9254
  129MOL0     C17289  10.075   9.584   3.669 -0.4270 -0.2015 -0.6506
  129MOL0     C17290  10.115   9.624   3.525  0.0763  0.2691  1.2316
  129MOL0     C17291  10.201   9.512   3.453 -0.1086 -0.5439 -0.6030
  129MOL0     C17292  10.263   9.554   3.323  0.0226 -0.0975  0.3733
  129MOL0     C17293  10.191   9.487   3.203  0.0483 -0.2298  0.2308
  129MOL0     C17294  10.245   9.529   3.070  0.0851 -1.0130  0.0571
  129MOL0     C17295  10.189   9.652   2.998  0.9198 -0.1656  0.4541
  129MOL0     C17296  10.176   9.781   3.083  0.3209  0.6635  0.6494
  129MOL0     N17297  10.134   9.905   3.015  0.3932  1.1414  0.3505
  129MOL0     C17298  10.212  10.015   2.971  0.5108  0.1290 -0.1029
  129MOL0     C17299  10.116  10.087   2.918  0.3891  0.2203  0.8946
  129MOL0     C17300  10.144  10.221   2.842 -0.1974 -0.2847  0.1692
  129MOL0     C17301  10.225  10.172   2.720 -0.8141 -0.1731  0.9011
  129MOL0     C17302  10.241  10.282   2.616  0.0906  0.5636 -0.8991
  129MOL0     C17303  10.346  10.246   2.510  0.5050  0.8142 -0.9143
  129MOL0     O17304  10.363  10.357   2.428 -0.0802 -0.1734  0.2683
  129MOL0     C17305  10.466  10.362   2.340  0.3167 -0.4138  0.9240
  129MOL0     C17306  10.496  10.485   2.270  0.1159  0.8196 -0.7218
  129MOL0     C17307  10.601  10.506   2.187 -0.1043  1.1018 -0.7061
  129MOL0     C17308  10.685  10.383   2.159  0.7209 -0.5336 -0.3312
  129MOL0     C17309  10.797  10.404   2.072 -0.1041  0.6246 -0.4013
  129MOL0     O17310  10.875  10.297   2.046 -0.1054  0.5114 -0.1057
  129MOL0     C17311  10.982  10.301   1.962 -0.0199 -1.0100 -0.3049
  129MOL0     C17312  11.084  10.211   1.986 -0.2154 -0.1160 -0.2354
  129MOL0     C17313  11.195  10.197   1.899 -0.5666 -0.4374 -0.8001
  129MOL0     C17314  11.194  10.266   1.775  0.8590  0.6042  0.1394
  129MOL0     O17315  11.290  10.241   1.675 -0.2135  0.1252  0.7530
  129MOL0     C17316  11.417  10.193   1.713  0.4318 -0.0330 -0.6736
  129MOL0     C17317  11.521  10.303   1.734  0.5811 -0.5595 -0.5215
  129MOL0     C17318  11.468  10.395   1.836  0.3583 -0.6394 -0.3946
  129MOL0     C17319  11.575  10.503   1.867 -0.0339  0.2232 -0.2682
  129MOL0     C17320  11.565  10.557   2.008 -0.2515  0.1078 -0.5436
  129MOL0     C17321  11.423  10.597   2.057  0.0328  0.4033 -0.3482
  129MOL0     C17322  11.456  10.660   2.191  0.1610  0.1134  0.2770
  129MOL0     C17323  11.320  10.738   2.247 -0.2399  0.7714 -0.1449
  129MOL0    Cl17324  11.342  10.897   2.347  0.2791  0.3655  0.7374
  129MOL0     C17325  11.100  10.364   1.753 -0.2727 -0.2198  1.0974
  129MOL0     C17326  10.990  10.381   1.843 -0.7683  1.2160 -0.3986
  129MOL0     O17327  10.814  10.520   2.030  0.0757 -0.6006 -0.1572
  129MOL0     C17328  10.654  10.262   2.219 -0.9129 -0.2214  0.4015
  129MOL0     C17329  10.547  10.253   2.315 -0.2981  1.0908  0.4722
  129MOL0     N17330   9.985  10.029   2.921 -0.5272 -1.1019 -0.5415
  129MOL0     N17331  10.005   9.916   2.976  0.5121  0.4041 -0.6898
  129MOL0     C17332  10.043   9.362   3.868  0.5069  0.3660 -1.8059
  129MOL0     C17333   9.984   9.285   3.972  1.2419 -0.1405  0.2251
  129MOL0     C17334   9.720   8.961   4.151 -0.9612  1.2111  0.0034
  129MOL0     C17335   9.769   8.848   4.221  0.9377 -0.7251  0.0788
  129MOL0     C17336   9.681   8.766   4.290 -0.4001 -0.1994  0.1066
  129MOL0     C17337   9.539   8.786   4.285 -0.5969 -1.0914 -0.2642
  129MOL0     O17338   9.451   8.708   4.355  0.1491 -0.3731  0.1273
  129MOL0     C17339   9.496   8.626   4.467  0.6950 -0.1090  0.1945
  129MOL0     C17340   9.538   8.484   4.422  0.3007 -0.9866 -0.1340
  129MOL0     C17341   9.639   8.435   4.520 -0.2869  0.0120 -0.6287
  129MOL0     C17342   9.645   8.291   4.533 -0.0260  0.1310  0.3861
  129MOL0     C17343   9.646   8.210   4.405  0.3171  0.1608  0.4900
  129MOL0     C17344   9.654   8.133   4.310 -0.7434  0.1320 -0.7236
  129MOL0     C17345   9.494   8.890   4.220  0.5981  0.6371  0.3150
  129MOL0     C17346   9.580   8.983   4.151  0.5481 -0.5415 -0.0759
  129MOL0     C17347   9.512   9.099   4.076  0.9575 -0.5660  0.5058
  129MOL0     H17348   9.655   9.267   3.871 -0.4785 -0.9879  0.9933
  129MOL0     H17349   9.764   9.363   3.662  3.0500 -1.3398 -2.2688
  129MOL0     H17350  10.018   9.668   3.709 -1.6108 -1.1072 -0.3761
  129MOL0     H17351  10.152   9.558   3.742 -2.3999 -2.6439  0.7147
  129MOL0     H17352  10.171   9.718   3.526  2.1917 -0.9217  0.7639
  129MOL0     H17353  10.032   9.643   3.458  3.7261  2.1825 -3.2980
  129MOL0     H17354  10.153   9.415   3.438  1.5590 -2.2762  3.7702
  129MOL0     H17355  10.281   9.487   3.524  0.2909 -0.1920 -0.9222
  129MOL0     H17356  10.271   9.662   3.311  1.3356  0.1911  3.0973
  129MOL0     H17357  10.369   9.525   3.315 -0.2774 -1.2893  0.5703
  129MOL0     H17358  10.206   9.380   3.214 -1.1058 -0.2319  2.2479
  129MOL0     H17359  10.083   9.510   3.202  0.4952  3.1442 -4.1831
  129MOL0     H17360  10.354   9.531   3.072  0.1134 -1.8360 -0.2201
  129MOL0     H17361  10.232   9.442   3.004 -0.4829 -1.5510  0.8475
  129MOL0     H17362  10.092   9.628   2.954  1.4823  0.8294 -1.4274
  129MOL0     H17363  10.261   9.685   2.922  1.1783  0.9484  1.1695
  129MOL0     H17364  10.110   9.774   3.170 -0.1346  3.2936  0.5953
  129MOL0     H17365  10.280   9.795   3.114  1.7141 -1.4425 -2.5339
  129MOL0     H17366  10.316  10.045   2.977  0.6388 -0.5683  3.5127
  129MOL0     H17367  10.055  10.275   2.808  0.6515 -0.1571 -2.0065
  129MOL0     H17368  10.197  10.292   2.907 -1.1866  1.3619 -0.7475
  129MOL0     H17369  10.325  10.151   2.760 -0.5928 -0.4864  0.1940
  129MOL0     H17370  10.177  10.081   2.684 -1.2991 -0.1140  1.3803
  129MOL0     H17371  10.284  10.365   2.674 -0.3250 -1.4067  2.4989
  129MOL0     H17372  10.147  10.319   2.574  0.9814  2.0414 -1.6883
  129MOL0     H17373  10.317  10.150   2.466 -2.1077  0.1128  2.0156
  129MOL0     H17374  10.427  10.213   2.575  0.2266  1.3099 -0.3101
  129MOL0     H17375  10.425  10.565   2.289  0.8798  1.2758  0.3106
  129MOL0     H17376  10.608  10.602   2.137 -1.3815  0.7277 -1.6668
  129MOL0     H17377  11.084  10.147   2.073 -2.1837 -0.9970 -0.8302
  129MOL0     H17378  11.275  10.129   1.925 -1.4007 -2.0228 -2.2292
  129MOL0     H17379  11.424  10.137   1.807  0.5768  2.0512  0.6103
  129MOL0     H17380  11.451  10.145   1.621 -0.8871  0.5727 -1.4935
  129MOL0     H17381  11.610  10.257   1.777  2.1958  1.5033 -1.4694
  129MOL0     H17382  11.555  10.349   1.640 -2.6213 -1.3321 -2.2037
  129MOL0     H17383  11.375  10.447   1.810 -0.0552  0.2261  2.4375
  129MOL0     H17384  11.441  10.331   1.920  1.7129 -2.5953 -1.3926
  129MOL0     H17385  11.598  10.585   1.798  3.9109  0.1439  0.7042
  129MOL0     H17386  11.676  10.462   1.852  0.9955  1.0493  3.2800
  129MOL0     H17387  11.632  10.644   2.015  2.3667 -1.8764  0.8380
  129MOL0     H17388  11.603  10.479   2.074  1.2411  3.5557  3.0520
  129MOL0     H17389  11.370  10.648   1.976  0.4857 -0.1657 -1.0165
  129MOL0     H17390  11.360  10.510   2.077 -1.9986  2.3927  2.6005
  129MOL0     H17391  11.534  10.735   2.177 -0.2270  1.1309  3.0070
  129MOL0     H17392  11.484  10.574   2.253 -0.3149 -1.0319 -1.0520
  129MOL0     H17393  11.260  10.766   2.160 -2.1001  1.8738  1.4316
  129MOL0     H17394  11.269  10.663   2.308  2.0418 -1.7946 -1.1481
  129MOL0     H17395  11.081  10.409   1.656 -0.0142  0.9713  1.5762
  129MOL0     H17396  10.917  10.459   1.828 -3.8432 -1.4842 -0.5705
  129MOL0     H17397  10.709  10.171   2.199  2.1296  1.8828 -1.8431
  129MOL0     H17398  10.536  10.155   2.359  0.8394 -0.7975 -3.1286
  129MOL0     H17399  10.149   9.384   3.867  0.8334 -0.6859  0.7321
  129MOL0     H17400  10.046   9.268   4.060 -0.6068  1.3350  1.9236
  129MOL0     H17401   9.878   8.839   4.218  0.8521 -1.5780 -0.6396
  129MOL0     H17402   9.716   8.678   4.343 -0.2751 -0.8985 -1.0839
  129MOL0     H17403   9.409   8.613   4.532  1.4108 -1.1719  0.9729
  129MOL0     H17404   9.572   8.665   4.536  2.2337 -4.7882  1.5303
  129MOL0     H17405   9.612   8.491   4.341  0.9274  1.4111  0.5682
  129MOL0     H17406   9.456   8.415   4.401  1.0416 -2.6874  2.1864
  129MOL0     H17407   9.608   8.475   4.617 -3.5160 -0.7334 -1.2389
  129MOL0     H17408   9.736   8.485   4.520 -1.8550  4.0478  4.7784
  129MOL0     H17409   9.727   8.274   4.604 -1.0772 -3.4555  0.9277
  129MOL0     H17410   9.555   8.264   4.589  0.8914  0.7419  2.2314
  129MOL0     H17411   9.666   8.067   4.226  0.3348 -0.4422 -0.1349
  129MOL0     H17412   9.387   8.901   4.210  0.6573 -0.1721 -1.8937
  129MOL0     H17413   9.408   9.081   4.048 -0.2293  5.0825  0.1482
  129MOL0     H17414   9.513   9.195   4.128  0.7798  1.1571 -2.4497
  129MOL0     H17415   9.566   9.116   3.982  5.2117 -3.3693  2.1094
  130MOL0     O17416   3.205   9.981   0.136 -0.3340 -0.7851 -0.4271
  130MOL0     C17417   3.195   9.870   0.095 -0.0032  0.5809 -0.2582
  130MOL0     O17418   3.084   9.813   0.044  0.0329 -0.7008 -0.3540
  130MOL0     C17419   2.953   9.857   0.068  0.3568 -0.9057 -0.6985
  130MOL0     C17420   2.908   9.939   0.173  0.1242 -0.2452 -0.4132
  130MOL0     C17421   2.768   9.969   0.177 -0.4527 -0.5989  0.4757
  130MOL0     C17422   2.677   9.911   0.084 -0.3188 -0.0949 -0.0324
  130MOL0     O17423   2.550   9.944   0.100  0.6845 -0.7995  0.2308
  130MOL0     C17424   2.446   9.844   0.088 -0.0427 -1.5351 -0.1671
  130MOL0     C17425   2.396   9.813   0.231  0.6222  0.8671 -0.4109
  130MOL0     C17426   2.509   9.756   0.330 -0.9975 -0.3953  0.8328
  130MOL0     C17427   2.452   9.739   0.466  1.4084  0.4872 -0.6461
  130MOL0     C17428   2.570   9.716   0.575 -0.3982  0.2022  0.5859
  130MOL0     C17429   2.527   9.696   0.710  0.0559  0.2535 -0.5483
  130MOL0     C17430   2.626   9.729   0.824 -0.1649 -0.4896  0.5981
  130MOL0     C17431   2.585   9.674   0.960 -0.4100 -0.5716 -0.2852
  130MOL0     N17432   2.557   9.527   0.961 -0.9583 -0.1731 -0.8485
  130MOL0     C17433   2.427   9.467   0.970  0.0444  0.4815  0.6690
  130MOL0     C17434   2.439   9.333   0.948 -0.8139  1.2898 -0.5262
  130MOL0     C17435   2.332   9.232   0.935  0.1684  0.1571 -0.0547
  130MOL0     C17436   2.296   9.182   1.082 -0.1204  0.8462 -0.1840
  130MOL0     C17437   2.221   9.048   1.070  0.3119  0.2398 -0.5864
  130MOL0     C17438   2.106   9.052   0.974 -0.1310 -1.3746 -0.6739
  130MOL0     O17439   2.024   9.162   1.016 -0.1840 -0.2595 -0.5584
  130MOL0     C17440   1.895   9.152   0.976 -0.2320 -0.0699 -0.4931
  130MOL0     C17441   1.806   9.054   1.028 -0.0191 -0.6532  0.5058
  130MOL0     C17442   1.690   9.023   0.964  0.1214 -0.0055  0.4195
  130MOL0     C17443   1.650   9.093   0.842 -0.1824  0.1592 -1.1288
  130MOL0     C17444   1.526   9.059   0.778 -0.8935  1.2433  0.0368
  130MOL0     O17445   1.519   9.101   0.652  0.3922 -0.3694  0.1214
  130MOL0     C17446   1.398   9.084   0.589 -0.3099 -0.1488  0.3306
  130MOL0     C17447   1.338   8.961   0.567  0.2542 -0.7779  0.6536
  130MOL0     C17448   1.238   8.949   0.469  0.4056  0.2191  0.5377
  130MOL0     C17449   1.185   9.064   0.411  0.2832 -1.1808  0.1151
  130MOL0     O17450   1.081   9.042   0.320 -0.6361 -0.7687  0.0901
  130MOL0     C17451   1.068   9.127   0.198  0.4230  0.5913  0.2790
  130MOL0     C17452   1.024   9.047   0.082 -0.1341  0.3692 -0.3980
  130MOL0     C17453   1.128   8.982  -0.002  0.3036  0.4820 -0.0130
  130MOL0     C17454   1.085   8.893  -0.129  0.7931  0.5072 -0.5543
  130MOL0     C17455   1.202   8.839  -0.213  0.7563  0.3318  0.0062
  130MOL0     C17456   1.141   8.764  -0.340 -0.8615 -0.4110 -0.1270
  130MOL0     C17457   1.083   8.870  -0.425  0.6385 -0.2954 -0.7023
  130MOL0     C17458   1.076   8.836  -0.566 -0.2944  0.9358  1.1093
  130MOL0    Cl17459   1.005   8.675  -0.598  0.3894  0.1241  0.0501
  130MOL0     C17460   1.243   9.183   0.439 -0.1457 -1.2651  0.4279
  130MOL0     C17461   1.353   9.197   0.518  0.3218  0.0339  0.0319
  130MOL0     O17462   1.445   8.994   0.837 -0.5957 -0.0162 -0.0557
  130MOL0     C17463   1.737   9.193   0.802  0.0841 -0.1553 -0.4644
  130MOL0     C17464   1.855   9.231   0.867  0.0450  0.9474 -0.3324
  130MOL0     N17465   2.576   9.320   0.913 -0.6646 -0.4521  0.3467
  130MOL0     N17466   2.653   9.432   0.920 -0.4304 -0.4861 -0.3870
  130MOL0     C17467   2.721   9.824  -0.010  0.6001 -0.0337 -0.3359
  130MOL0     C17468   2.856   9.797  -0.015 -0.3006  1.3670 -0.1032
  130MOL0     C17469   3.314   9.792   0.091 -0.4847  0.2010 -0.3184
  130MOL0     C17470   3.301   9.655   0.056 -0.0240  0.9127 -0.9116
  130MOL0     C17471   3.415   9.570   0.049 -0.7347 -0.1089 -0.8284
  130MOL0     C17472   3.543   9.620   0.089 -0.4422  0.5676 -0.1072
  130MOL0     O17473   3.648   9.532   0.103 -0.2234  0.7021  0.6830
  130MOL0     C17474   3.781   9.570   0.068  0.5635 -0.0460  0.5204
  130MOL0     C17475   3.801   9.544  -0.085  0.2019  0.4259  0.0829
  130MOL0     C17476   3.897   9.425  -0.109  0.2470 -0.2284  0.1788
  130MOL0     C17477   3.918   9.387  -0.255 -0.4520 -0.2356 -1.3931
  130MOL0     C17478   3.989   9.484  -0.340  0.3018  0.2819 -0.3307
  130MOL0     C17479   4.026   9.581  -0.408  1.0532  0.8623  0.4129
  130MOL0     C17480   3.557   9.755   0.119  0.8823  0.2320 -0.7051
  130MOL0     C17481   3.448   9.845   0.123 -0.7622  0.3219  0.0371
  130MOL0     C17482   3.476   9.990   0.160  0.1573 -0.1576  0.3553
  130MOL0     H17483   2.969   9.965   0.259  0.9177 -3.6196  0.2261
  130MOL0     H17484   2.727  10.043   0.245  0.1706  0.3954 -0.2033
  130MOL0     H17485   2.370   9.890   0.025 -0.9904 -1.0994  1.2410
  130MOL0     H17486   2.471   9.745   0.048 -0.8686 -2.1394  0.7257
  130MOL0     H17487   2.309   9.747   0.237 -0.5685  2.4734  0.8103
  130MOL0     H17488   2.351   9.906   0.266  0.8595  1.7401 -2.3095
  130MOL0     H17489   2.604   9.810   0.331 -0.9211 -0.5168  0.3249
  130MOL0     H17490   2.518   9.654   0.293 -1.5611 -0.5624  1.1402
  130MOL0     H17491   2.410   9.835   0.495  1.3702  0.2251  0.1767
  130MOL0     H17492   2.381   9.656   0.471  3.9715 -1.9482 -1.9306
  130MOL0     H17493   2.635   9.638   0.537 -0.8028  0.3746 -0.4851
  130MOL0     H17494   2.633   9.805   0.590  2.4404 -2.2080  5.5631
  130MOL0     H17495   2.442   9.764   0.724  0.4628  0.1484  3.7260
  130MOL0     H17496   2.490   9.594   0.724  0.0365  0.4847  1.4126
  130MOL0     H17497   2.622   9.838   0.834  0.0255 -0.1974 -1.9544
  130MOL0     H17498   2.731   9.720   0.794  0.1703  0.2177  1.5105
  130MOL0     H17499   2.676   9.687   1.020 -0.5592 -0.1778 -0.1425
  130MOL0     H17500   2.498   9.724   1.004 -1.5303 -1.9228 -0.8719
  130MOL0     H17501   2.337   9.525   0.987  0.8032  1.2508  2.2800
  130MOL0     H17502   2.237   9.263   0.891  0.2937 -0.9544 -1.1733
  130MOL0     H17503   2.368   9.158   0.863 -0.4740  1.5371 -1.8639
  130MOL0     H17504   2.383   9.152   1.140 -0.9944 -1.6367  0.0088
  130MOL0     H17505   2.248   9.261   1.141  0.9055  1.8673 -0.6949
  130MOL0     H17506   2.188   9.028   1.173 -2.1040 -1.1914 -1.5607
  130MOL0     H17507   2.293   8.968   1.050  2.3731  1.8392  0.0918
  130MOL0     H17508   2.053   8.956   0.970  0.1397 -1.4993 -1.8296
  130MOL0     H17509   2.145   9.067   0.873 -0.4673  1.1458 -0.4929
  130MOL0     H17510   1.835   9.006   1.121  0.9737 -0.4197  0.3185
  130MOL0     H17511   1.632   8.938   0.998 -0.7929  0.3297 -0.2520
  130MOL0     H17512   1.371   8.872   0.620  1.9627 -0.8987 -0.5195
  130MOL0     H17513   1.206   8.851   0.436  0.0445  0.4746  0.1174
  130MOL0     H17514   0.999   9.209   0.222  2.2165  1.9623  1.0587
  130MOL0     H17515   1.162   9.183   0.186  0.3517  0.9221  1.1331
  130MOL0     H17516   0.952   8.972   0.118 -0.0456  1.7394  3.0262
  130MOL0     H17517   0.968   9.109   0.012 -0.9303 -1.0077 -1.0238
  130MOL0     H17518   1.196   9.055  -0.047  1.0453 -1.4484 -2.2420
  130MOL0     H17519   1.192   8.923   0.065  0.5732 -2.6048 -2.6954
  130MOL0     H17520   1.021   8.963  -0.184  1.1220 -1.0624 -3.0860
  130MOL0     H17521   1.025   8.810  -0.089  1.5808 -0.3772 -1.1653
  130MOL0     H17522   1.245   8.758  -0.153 -2.5822 -0.9185  0.9346
  130MOL0     H17523   1.281   8.910  -0.240  0.7947 -0.6186 -2.7128
  130MOL0     H17524   1.218   8.711  -0.398  1.9689  0.8008  2.2785
  130MOL0     H17525   1.074   8.684  -0.305  1.0584 -1.2279  1.9398
  130MOL0     H17526   1.143   8.960  -0.412 -1.0251  0.8426 -0.6547
  130MOL0     H17527   0.989   8.895  -0.376  2.1394  1.9616  1.2810
  130MOL0     H17528   1.031   8.925  -0.609 -0.9206  0.3998  0.6277
  130MOL0     H17529   1.171   8.834  -0.619 -2.1919 -0.8605 -2.6038
  130MOL0     H17530   1.193   9.270   0.397 -4.1067 -1.0505  4.7746
  130MOL0     H17531   1.384   9.298   0.543 -3.9402  1.6950 -0.4494
  130MOL0     H17532   1.712   9.247   0.712  1.1665 -0.0381 -0.7079
  130MOL0     H17533   1.927   9.300   0.823  0.3242  2.1472  1.8290
  130MOL0     H17534   2.654   9.774  -0.079 -0.1629  3.0765 -2.0862
  130MOL0     H17535   2.884   9.716  -0.081 -4.1868 -0.4662  0.1978
  130MOL0     H17536   3.206   9.611   0.028 -0.9574  2.0957  0.2330
  130MOL0     H17537   3.413   9.467   0.015 -2.4452 -1.0774  1.8590
  130MOL0     H17538   3.854   9.506   0.117 -0.3832 -2.1047 -0.6332
  130MOL0     H17539   3.804   9.676   0.085 -0.5413  0.2710  0.1291
  130MOL0     H17540   3.845   9.639  -0.117 -1.1436  2.2162  3.1146
  130MOL0     H17541   3.709   9.528  -0.142  0.9808  3.3486 -2.2608
  130MOL0     H17542   3.870   9.334  -0.056 -1.4147 -0.9982 -1.8434
  130MOL0     H17543   3.998   9.458  -0.083  1.7406 -3.9715 -0.2088
  130MOL0     H17544   3.980   9.297  -0.258  0.7541  0.3100  2.2810
  130MOL0     H17545   3.816   9.364  -0.290 -0.6510 -2.3533  0.3819
  130MOL0     H17546   4.058   9.649  -0.484  0.3848 -1.0106 -1.6571
  130MOL0     H17547   3.653   9.798   0.146  0.1066 -0.7212  4.5596
  130MOL0     H17548   3.438  10.016   0.259 -1.8449 -3.0552  0.4555
  130MOL0     H17549   3.583  10.008   0.176  0.1612 -0.1262  0.2958
  130MOL0     H17550   3.436  10.056   0.083 -2.4051 -1.0350  0.8380
  131MOL0     O17551  11.531   7.950  10.788 -0.7078  0.3255  0.9583
  131MOL0     C17552  11.522   8.001  10.668  0.2297 -0.1222 -1.4585
  131MOL0     O17553  11.452   7.940  10.564  0.3736  0.1573  0.4048
  131MOL0     C17554  11.400   7.817  10.566  0.7064  0.4927  0.3399
  131MOL0     C17555  11.466   7.724  10.489 -0.8127  1.4705  0.2978
  131MOL0     C17556  11.432   7.579  10.499  0.0388 -0.6494 -0.5572
  131MOL0     C17557  11.328   7.545  10.581 -0.0221 -0.6200  0.0258
  131MOL0     O17558  11.283   7.421  10.605 -0.4538 -0.3543  0.8594
  131MOL0     C17559  11.238   7.347  10.500 -0.3656  0.4226 -0.3503
  131MOL0     C17560  11.324   7.218  10.487  0.0029 -0.4143  0.0387
  131MOL0     C17561  11.279   7.120  10.600 -0.1415  0.0970 -0.7219
  131MOL0     C17562  11.354   6.985  10.605 -0.1834 -0.1431  0.4599
  131MOL0     C17563  11.313   6.907  10.726 -0.3815  0.2746  0.8055
  131MOL0     C17564  11.166   6.857  10.724  0.7716 -0.7494  0.9016
  131MOL0     C17565  11.129   6.747  10.822 -0.2060 -0.4461 -0.0165
  131MOL0     C17566  11.182   6.611  10.763 -0.3236  0.1401  0.2712
  131MOL0     N17567  11.085   6.550  10.659 -1.0163  0.2792 -0.2640
  131MOL0     C17568  10.993   6.461  10.695  0.4163 -0.3009 -1.2916
  131MOL0     C17569  10.941   6.418  10.582  0.2138  1.0915  0.8309
  131MOL0     C17570  10.842   6.301  10.575  0.7117 -1.3740  0.6561
  131MOL0     C17571  10.882   6.157  10.528  0.5390 -0.9251 -0.1805
  131MOL0     C17572  10.971   6.085  10.623 -0.4497 -0.0631 -0.8415
  131MOL0     C17573  10.978   5.929  10.608  0.0818  0.4033  0.1150
  131MOL0     O17574  11.040   5.894  10.487  0.1092  0.1860  0.7862
  131MOL0     C17575  11.033   5.768  10.437 -0.1036  0.8478  0.1470
  131MOL0     C17576  10.956   5.668  10.495 -0.1019  0.7824  0.3161
  131MOL0     C17577  10.953   5.542  10.425 -0.4655 -0.5449 -0.6716
  131MOL0     C17578  11.032   5.513  10.315 -0.1509 -0.4681 -0.6095
  131MOL0     C17579  11.039   5.383  10.265  0.1702 -0.0519 -0.8484
  131MOL0     O17580  11.105   5.366  10.144  0.0542 -0.1934 -0.4074
  131MOL0     C17581  11.100   5.248  10.074 -0.4468  0.6211 -0.2571
  131MOL0     C17582  11.152   5.256   9.946 -0.2415  1.0698  0.7614
  131MOL0     C17583  11.183   5.150   9.862  0.6220  1.1517 -0.9500
  131MOL0     C17584  11.133   5.025   9.904  0.1153  0.6051  0.1185
  131MOL0     O17585  11.149   4.917   9.817 -1.3946 -0.2123  0.0229
  131MOL0     C17586  11.276   4.907   9.756 -0.3276 -0.2602  0.4849
  131MOL0     C17587  11.278   4.785   9.674 -0.3378 -0.1583  0.5464
  131MOL0     C17588  11.201   4.793   9.536  0.8039  0.9730 -0.4995
  131MOL0     C17589  11.247   4.665   9.468  0.7315 -0.3555  0.5858
  131MOL0     C17590  11.167   4.655   9.339 -0.0924  0.2366 -0.1644
  131MOL0     C17591  11.247   4.551   9.249  0.5827 -0.1996  0.6660
  131MOL0     C17592  11.147   4.490   9.141  0.0550  1.0104 -0.3958
  131MOL0     C17593  11.092   4.570   9.027 -0.2550 -0.7642 -0.5337
  131MOL0    Cl17594  11.226   4.608   8.926  0.2183  0.0054 -0.0407
  131MOL0     C17595  11.069   5.015  10.033 -0.2199  0.6838 -0.5407
  131MOL0     C17596  11.053   5.126  10.115  0.1896  0.5995  0.4152
  131MOL0     O17597  10.985   5.293  10.336 -0.3300 -0.5396 -0.0003
  131MOL0     C17598  11.097   5.623  10.250  0.7458  1.0332  0.1215
  131MOL0     C17599  11.097   5.752  10.320 -0.3443  0.2815 -0.5317
  131MOL0     N17600  11.001   6.483  10.480 -0.7415  0.0082 -0.1123
  131MOL0     N17601  11.076   6.575  10.531 -0.7584 -0.8846  0.2625
  131MOL0     C17602  11.262   7.644  10.656 -0.8713  0.3102 -0.7313
  131MOL0     C17603  11.299   7.777  10.651  0.1991  0.4885  0.1472
  131MOL0     C17604  11.571   8.139  10.631  0.0251  0.0884 -0.6022
  131MOL0     C17605  11.588   8.172  10.495  0.2813  0.0034  0.1994
  131MOL0     C17606  11.608   8.303  10.460  0.2798 -0.2223  0.4067
  131MOL0     C17607  11.624   8.403  10.548 -0.7164 -0.6057  0.0321
  131MOL0     O17608  11.654   8.527  10.493  0.0894  0.7337  0.1549
  131MOL0     C17609  11.646   8.640  10.577 -0.4528 -0.3026  0.2730
  131MOL0     C17610  11.707   8.757  10.492  0.0387  0.3186  0.4182
  131MOL0     C17611  11.600   8.825  10.404  0.2230  0.1625 -0.1670
  131MOL0     C17612  11.644   8.942  10.318 -0.4027 -0.0226  0.6244
  131MOL0     C17613  11.720   9.042  10.385 -0.6334 -0.9793  0.3663
  131MOL0     C17614  11.777   9.140  10.428 -0.5398 -0.8227 -0.0997
  131MOL0     C17615  11.621   8.371  10.679  0.4618  0.4978 -0.0676
  131MOL0     C17616  11.590   8.246  10.726 -0.8912 -0.3095  0.6187
  131MOL0     C17617  11.578   8.225  10.871 -0.0162 -0.7634  0.5320
  131MOL0     H17618  11.549   7.746  10.423 -2.2721 -0.3727 -2.3332
  131MOL0     H17619  11.481   7.494  10.452 -0.6237 -0.0069 -2.5376
  131MOL0     H17620  11.138   7.319  10.532  0.1043  0.5409  1.2803
  131MOL0     H17621  11.239   7.400  10.404 -0.0634  2.5665  0.7600
  131MOL0     H17622  11.433   7.224  10.492  0.0526 -1.6369  0.7069
  131MOL0     H17623  11.282   7.168  10.400 -2.0605  1.9349 -0.4124
  131MOL0     H17624  11.174   7.095  10.584 -0.6326  0.8034  1.2000
  131MOL0     H17625  11.288   7.173  10.695  1.1748  0.6357 -1.1131
  131MOL0     H17626  11.333   6.932  10.511 -1.5943 -1.1844  1.3103
  131MOL0     H17627  11.462   7.003  10.602 -0.2645  0.4197 -2.5898
  131MOL0     H17628  11.386   6.825  10.723  1.8689  2.1956 -1.7438
  131MOL0     H17629  11.328   6.954  10.824  1.2420  0.2772  0.5819
  131MOL0     H17630  11.094   6.938  10.737  0.2969 -1.2091  1.1766
  131MOL0     H17631  11.157   6.820  10.622  1.7481  2.2761 -0.3927
  131MOL0     H17632  11.022   6.741  10.845 -0.3218  3.3514  1.1044
  131MOL0     H17633  11.183   6.764  10.915  0.0415  0.7596 -0.3694
  131MOL0     H17634  11.283   6.625  10.722  0.3033 -3.7979  0.1269
  131MOL0     H17635  11.213   6.541  10.841  1.7501  3.0291  2.2694
  131MOL0     H17636  10.975   6.430  10.797  0.9769  0.3867 -0.9748
  131MOL0     H17637  10.806   6.305  10.678  2.3665  0.6860  1.2364
  131MOL0     H17638  10.759   6.339  10.515  0.5270  2.0896  2.7937
  131MOL0     H17639  10.791   6.097  10.519  0.1813 -0.9480  2.6533
  131MOL0     H17640  10.927   6.154  10.429 -3.5776  0.5118 -2.3186
  131MOL0     H17641  10.925   6.108  10.719  1.7380  1.4506 -0.0859
  131MOL0     H17642  11.075   6.119  10.618  0.1248 -1.3248  1.4153
  131MOL0     H17643  10.874   5.897  10.606  0.6763 -1.7257 -2.3780
  131MOL0     H17644  11.034   5.886  10.691  0.6271 -2.0850 -1.4129
  131MOL0     H17645  10.907   5.678  10.592 -1.6508  1.8084 -0.5329
  131MOL0     H17646  10.894   5.464  10.473  0.2124 -3.7479 -4.4793
  131MOL0     H17647  11.183   5.354   9.912  2.2792  1.0012  2.5263
  131MOL0     H17648  11.240   5.172   9.773  5.1858 -3.1934  0.4658
  131MOL0     H17649  11.295   4.989   9.685 -0.4796 -0.7542 -0.1379
  131MOL0     H17650  11.355   4.918   9.830  3.5438  2.4806 -3.5537
  131MOL0     H17651  11.386   4.776   9.662  0.0649  1.6391  2.2072
  131MOL0     H17652  11.235   4.703   9.733  0.8778 -0.6655  0.7493
  131MOL0     H17653  11.093   4.788   9.554  1.2475 -0.8188  2.2276
  131MOL0     H17654  11.234   4.879   9.477 -0.5474  1.5250 -0.4948
  131MOL0     H17655  11.227   4.579   9.532  0.6073 -2.2710 -1.8807
  131MOL0     H17656  11.356   4.676   9.461  0.5702  2.5756  1.4887
  131MOL0     H17657  11.164   4.754   9.291  0.2598  0.5460  0.4364
  131MOL0     H17658  11.066   4.615   9.357  2.0501 -4.8573  2.5612
  131MOL0     H17659  11.344   4.585   9.209  0.7834 -3.0911 -1.6627
  131MOL0     H17660  11.285   4.469   9.311 -0.0420 -2.1948 -1.4642
  131MOL0     H17661  11.062   4.446   9.193 -0.3107  3.0190  0.8259
  131MOL0     H17662  11.189   4.403   9.091 -1.6299 -0.8782  1.3240
  131MOL0     H17663  11.013   4.522   8.970 -1.2348 -0.6173  0.6662
  131MOL0     H17664  11.044   4.664   9.056 -0.8451 -0.8398 -1.2540
  131MOL0     H17665  11.024   4.922  10.067  2.7554 -0.8404 -0.4554
  131MOL0     H17666  11.001   5.104  10.208  1.1903 -2.2139  0.3987
  131MOL0     H17667  11.160   5.624  10.162  1.8853 -1.2707  0.8331
  131MOL0     H17668  11.127   5.842  10.268 -1.2380 -1.6397 -4.8482
  131MOL0     H17669  11.185   7.617  10.728  1.3740  0.6077  1.9667
  131MOL0     H17670  11.233   7.844  10.706 -1.8998 -0.6049 -0.9357
  131MOL0     H17671  11.586   8.096  10.417  2.9848  1.1083 -1.0901
  131MOL0     H17672  11.609   8.314  10.352 -2.8421 -0.1908  0.2830
  131MOL0     H17673  11.717   8.625  10.660  4.9000  3.9257 -2.8618
  131MOL0     H17674  11.544   8.661  10.611  0.3707  1.0343  2.1455
  131MOL0     H17675  11.787   8.723  10.426  1.6099  2.5851  1.0587
  131MOL0     H17676  11.770   8.829  10.545  0.6925  2.0409 -2.4882
  131MOL0     H17677  11.512   8.849  10.465 -0.8170 -0.6652 -1.3076
  131MOL0     H17678  11.559   8.743  10.344  0.8442  0.3044 -0.7934
  131MOL0     H17679  11.709   8.913  10.236 -0.3398  3.2986 -0.6668
  131MOL0     H17680  11.549   8.982  10.280 -0.2732  0.3357  0.6671
  131MOL0     H17681  11.842   9.217  10.465 -0.2816  0.1996 -2.5429
  131MOL0     H17682  11.624   8.451  10.752  5.0265  0.6738 -0.1677
  131MOL0     H17683  11.570   8.318  10.928 -0.8094 -0.8509  0.5670
  131MOL0     H17684  11.498   8.157  10.901 -0.9035 -0.5197 -1.1695
  131MOL0     H17685  11.680   8.187  10.886  0.3237 -0.5025 -0.9083
  132MOL0     O17686   5.412   9.216   6.355  0.9649  0.2799  0.8892
  132MOL0     C17687   5.368   9.115   6.300  0.5072 -0.6239 -0.5359
  132MOL0     O17688   5.238   9.081   6.287 -0.6804 -0.4625 -0.6473
  132MOL0     C17689   5.132   9.142   6.363 -0.4821 -1.0676  0.8414
  132MOL0     C17690   5.044   9.061   6.436  0.1615 -0.6464 -1.0187
  132MOL0     C17691   4.944   9.125   6.515 -0.9629  0.2029 -0.3282
  132MOL0     C17692   4.922   9.265   6.517 -0.8298 -0.0528  0.5883
  132MOL0     O17693   4.829   9.319   6.601  0.3377  0.2910  0.6253
  132MOL0     C17694   4.873   9.374   6.727  0.0383  0.1367  0.5483
  132MOL0     C17695   4.746   9.386   6.805 -1.1825  0.9172  0.4454
  132MOL0     C17696   4.794   9.446   6.938 -0.1283  0.2086 -1.0013
  132MOL0     C17697   4.684   9.430   7.035  0.7112 -0.3795 -0.9309
  132MOL0     C17698   4.694   9.300   7.123 -0.3026  0.0269 -0.7640
  132MOL0     C17699   4.786   9.322   7.242 -0.5838 -0.4054  0.0205
  132MOL0     C17700   4.823   9.189   7.319  0.2844  0.6983  0.1797
  132MOL0     C17701   4.713   9.104   7.394  0.1955  0.1954  0.7333
  132MOL0     N17702   4.679   9.174   7.517 -0.6711  0.5257  0.8819
  132MOL0     C17703   4.738   9.148   7.634  0.3079  0.1899 -0.2197
  132MOL0     C17704   4.670   9.222   7.727 -0.2729 -0.2719 -0.0281
  132MOL0     C17705   4.686   9.239   7.876 -0.4323  0.3687 -0.3870
  132MOL0     C17706   4.607   9.143   7.957  0.0395 -0.5016 -0.5197
  132MOL0     C17707   4.606   9.178   8.106 -0.1953  0.5911 -0.9698
  132MOL0     C17708   4.746   9.178   8.174  0.0352 -0.4847 -0.5243
  132MOL0     O17709   4.716   9.211   8.312  0.2248  0.2931  0.3870
  132MOL0     C17710   4.697   9.111   8.408 -0.5062  0.2145  0.7085
  132MOL0     C17711   4.635   8.988   8.397  0.6376  0.6822 -0.4996
  132MOL0     C17712   4.613   8.906   8.507  0.3793  0.4258 -0.4676
  132MOL0     C17713   4.665   8.939   8.637 -0.1923 -0.1852 -0.0844
  132MOL0     C17714   4.636   8.851   8.753  0.4658  0.2085 -0.3814
  132MOL0     O17715   4.581   8.916   8.862 -0.1126 -0.2771  0.8511
  132MOL0     C17716   4.560   8.858   8.985 -0.2376 -0.1907 -0.0868
  132MOL0     C17717   4.650   8.897   9.083 -0.1922 -0.4641  0.8213
  132MOL0     C17718   4.642   8.862   9.214 -0.2483  1.1900  0.5808
  132MOL0     C17719   4.532   8.789   9.262  0.3969 -0.6465  0.4484
  132MOL0     O17720   4.520   8.765   9.403 -0.2726  0.4256  0.4332
  132MOL0     C17721   4.437   8.651   9.430  0.4888  0.0485  0.3377
  132MOL0     C17722   4.440   8.643   9.586  0.2068 -0.4714 -0.5201
  132MOL0     C17723   4.403   8.500   9.615 -0.6858  0.0755  0.2664
  132MOL0     C17724   4.388   8.474   9.760 -0.5691 -1.0243 -0.2241
  132MOL0     C17725   4.380   8.318   9.788  0.0970 -0.5661  0.7383
  132MOL0     C17726   4.398   8.290   9.942 -0.5723  0.2362 -0.5457
  132MOL0     C17727   4.553   8.275   9.978  0.1952 -0.2067  0.1035
  132MOL0     C17728   4.577   8.281  10.124  0.4032  0.0159 -0.3715
  132MOL0    Cl17729   4.488   8.434  10.190 -0.0436 -0.4284  0.3771
  132MOL0     C17730   4.435   8.753   9.169  1.0637 -0.0405 -0.0264
  132MOL0     C17731   4.443   8.787   9.026  0.0113 -0.4490  0.2636
  132MOL0     O17732   4.655   8.726   8.744 -0.5723 -0.4993  0.4228
  132MOL0     C17733   4.729   9.058   8.651 -0.1382 -0.0333  1.0662
  132MOL0     C17734   4.741   9.145   8.535  0.4416  0.5466 -0.0862
  132MOL0     N17735   4.568   9.284   7.661 -0.0969 -0.0821 -0.0882
  132MOL0     N17736   4.573   9.251   7.532 -0.1173 -0.7965  0.5295
  132MOL0     C17737   4.998   9.343   6.429  0.1841 -0.5925 -0.1313
  132MOL0     C17738   5.111   9.287   6.352 -0.2306  0.9234  0.2240
  132MOL0     C17739   5.465   9.020   6.242 -0.2314  0.5531 -0.8085
  132MOL0     C17740   5.538   9.056   6.131 -0.5139  0.1560  1.2079
  132MOL0     C17741   5.610   8.963   6.052 -0.7339  0.2752  0.3898
  132MOL0     C17742   5.624   8.835   6.092 -0.4290  0.6217  0.4786
  132MOL0     O17743   5.706   8.758   6.013  0.6896 -0.2239 -0.3568
  132MOL0     C17744   5.709   8.619   6.042 -0.1228  0.4944  0.9514
  132MOL0     C17745   5.816   8.607   6.158 -0.1075  0.6439  0.0036
  132MOL0     C17746   5.861   8.469   6.196 -0.0741 -0.6686  0.1833
  132MOL0     C17747   5.925   8.471   6.332  0.8350 -0.1443 -0.2018
  132MOL0     C17748   5.812   8.471   6.423 -0.0431  0.3259 -0.2194
  132MOL0     C17749   5.717   8.452   6.493 -0.6282  0.5422 -0.8039
  132MOL0     C17750   5.556   8.792   6.208 -0.5729 -0.8543 -0.2130
  132MOL0     C17751   5.466   8.882   6.275 -0.4209 -0.6080 -0.2999
  132MOL0     C17752   5.384   8.832   6.391 -0.9930  0.4477  0.3789
  132MOL0     H17753   5.053   8.953   6.448 -1.7022 -1.3158 -4.3968
  132MOL0     H17754   4.886   9.065   6.584  1.8562 -3.4042 -0.8308
  132MOL0     H17755   4.957   9.320   6.772  0.3461  0.1943  0.0591
  132MOL0     H17756   4.918   9.473   6.715  1.1130 -0.6638 -4.4580
  132MOL0     H17757   4.703   9.287   6.823 -1.0298  1.0843  1.8753
  132MOL0     H17758   4.665   9.439   6.754 -2.7140 -2.0246 -0.4405
  132MOL0     H17759   4.831   9.549   6.934 -0.1654  0.2591 -0.2383
  132MOL0     H17760   4.883   9.394   6.977  2.5427  4.9869  0.0823
  132MOL0     H17761   4.671   9.523   7.091  1.1966 -0.0941 -1.2779
  132MOL0     H17762   4.588   9.413   6.985  0.4113 -2.1251  0.1425
  132MOL0     H17763   4.596   9.270   7.162  1.2812 -1.4423  2.4709
  132MOL0     H17764   4.722   9.210   7.069  0.9926  0.6954 -1.2450
  132MOL0     H17765   4.877   9.365   7.200 -0.5367 -1.2385 -0.7687
  132MOL0     H17766   4.748   9.391   7.318  1.1805  2.3863 -1.4500
  132MOL0     H17767   4.886   9.219   7.403  0.7879 -0.0819  0.0956
  132MOL0     H17768   4.871   9.123   7.246 -0.9425  2.3676 -2.2805
  132MOL0     H17769   4.624   9.087   7.332  1.1906 -1.0908 -0.4354
  132MOL0     H17770   4.749   9.005   7.423  2.4539  0.9189  0.5481
  132MOL0     H17771   4.823   9.083   7.652  1.0971  1.2346 -0.0213
  132MOL0     H17772   4.790   9.230   7.907 -1.3286  1.1120  3.2830
  132MOL0     H17773   4.658   9.342   7.899 -1.7179 -0.0391  0.0081
  132MOL0     H17774   4.500   9.147   7.934  0.2483 -3.1699 -2.4166
  132MOL0     H17775   4.642   9.041   7.941  1.5071 -0.9367  4.0011
  132MOL0     H17776   4.537   9.113   8.160  1.0010 -0.5043 -0.7096
  132MOL0     H17777   4.572   9.280   8.128  0.8588  0.8201 -0.3795
  132MOL0     H17778   4.811   9.249   8.122 -1.5205  1.3633 -0.0463
  132MOL0     H17779   4.802   9.086   8.155  1.8820  1.1858 -3.8717
  132MOL0     H17780   4.594   8.950   8.304 -2.9961 -1.1261  1.6109
  132MOL0     H17781   4.549   8.819   8.505 -0.7630  1.0414 -5.2410
  132MOL0     H17782   4.723   8.971   9.053 -1.6507  0.3822 -0.8243
  132MOL0     H17783   4.713   8.889   9.291  2.2380 -1.9264 -0.4417
  132MOL0     H17784   4.332   8.652   9.402  1.1220  2.5929 -2.5118
  132MOL0     H17785   4.471   8.556   9.388  0.2618  1.0315 -2.3058
  132MOL0     H17786   4.543   8.659   9.617  0.8201 -0.5846 -2.3760
  132MOL0     H17787   4.362   8.707   9.629  0.7291 -0.5700  0.6159
  132MOL0     H17788   4.312   8.467   9.563 -1.0607 -1.3066  1.7283
  132MOL0     H17789   4.491   8.445   9.582 -0.0730  0.0676  1.8374
  132MOL0     H17790   4.293   8.518   9.788  0.5762  1.4382  0.0862
  132MOL0     H17791   4.467   8.521   9.819 -1.3368 -0.5100  0.4094
  132MOL0     H17792   4.457   8.267   9.730 -0.5462 -0.8884  0.1497
  132MOL0     H17793   4.276   8.294   9.762 -0.0197 -1.7463  2.1332
  132MOL0     H17794   4.336   8.360   9.999  0.1310  1.0392 -0.7503
  132MOL0     H17795   4.361   8.187   9.935  1.3672 -0.5613  0.3746
  132MOL0     H17796   4.604   8.356   9.925  0.0567 -0.3448 -0.2453
  132MOL0     H17797   4.601   8.180   9.952 -1.8251 -1.7359  1.5776
  132MOL0     H17798   4.533   8.194  10.174 -3.5134  2.4628  0.8320
  132MOL0     H17799   4.684   8.285  10.148  0.6431  1.1832 -1.5530
  132MOL0     H17800   4.351   8.696   9.205  1.4980  1.2381  3.3436
  132MOL0     H17801   4.372   8.759   8.949  0.4569  0.3373 -0.4541
  132MOL0     H17802   4.762   9.090   8.749 -0.2584 -0.5968  1.2922
  132MOL0     H17803   4.788   9.241   8.552  2.3805 -0.3999  0.1759
  132MOL0     H17804   4.980   9.449   6.444  2.1419 -0.6239  3.5292
  132MOL0     H17805   5.175   9.340   6.282 -2.0097  1.5927 -0.9691
  132MOL0     H17806   5.518   9.154   6.088 -2.4220 -0.2374  1.1052
  132MOL0     H17807   5.670   8.990   5.965 -2.1396  1.5578 -0.2285
  132MOL0     H17808   5.726   8.566   5.948 -2.0516 -0.4155  1.0728
  132MOL0     H17809   5.616   8.577   6.082 -0.0758 -1.0503 -0.4450
  132MOL0     H17810   5.773   8.660   6.244 -3.4666 -0.6800 -0.6900
  132MOL0     H17811   5.902   8.662   6.120 -2.1648  5.1448  1.1623
  132MOL0     H17812   5.928   8.428   6.119  1.0323  3.5717 -1.4079
  132MOL0     H17813   5.771   8.407   6.195 -0.7133  0.2038 -1.6991
  132MOL0     H17814   5.975   8.376   6.352 -1.7511 -1.5901 -0.0637
  132MOL0     H17815   5.988   8.555   6.361  0.3414 -0.0943  0.7592
  132MOL0     H17816   5.639   8.423   6.561  1.0296  0.5460  1.1953
  132MOL0     H17817   5.557   8.687   6.234 -1.7469 -0.9389 -0.4516
  132MOL0     H17818   5.392   8.723   6.396 -2.0049  0.3488  0.0665
  132MOL0     H17819   5.409   8.876   6.488 -0.4047  0.9393  0.0105
  132MOL0     H17820   5.279   8.857   6.369 -0.5720  2.0163  0.0605
  133MOL0     O17821   9.004   2.412   0.184  0.0785  0.1981 -0.1512
  133MOL0     C17822   8.917   2.334   0.148  0.6500 -0.3479 -0.2934
  133MOL0     O17823   8.923   2.259   0.035 -0.6359 -0.4298 -0.6409
  133MOL0     C17824   9.055   2.235  -0.013  0.2898 -0.0105  0.2369
  133MOL0     C17825   9.158   2.178   0.065 -0.8655  0.0907  0.2030
  133MOL0     C17826   9.279   2.139   0.016  0.6757 -0.1171 -0.5888
  133MOL0     C17827   9.326   2.167  -0.111  0.1047 -0.4954  0.1773
  133MOL0     O17828   9.450   2.130  -0.170  0.4678  0.0508 -0.0767
  133MOL0     C17829   9.539   2.028  -0.120  0.9223 -0.5541  0.4983
  133MOL0     C17830   9.580   1.922  -0.236  0.1452 -0.3189 -0.1783
  133MOL0     C17831   9.683   1.825  -0.185  0.4227 -0.6756  0.9289
  133MOL0     C17832   9.620   1.722  -0.093 -1.1798 -0.5649  1.3894
  133MOL0     C17833   9.711   1.604  -0.088 -0.7750  0.5073 -0.4926
  133MOL0     C17834   9.667   1.485   0.002 -0.3782 -0.0688 -0.4428
  133MOL0     C17835   9.745   1.356  -0.039  0.9089  0.3857  0.4386
  133MOL0     C17836   9.691   1.244   0.051  0.4812 -0.3347 -0.5503
  133MOL0     N17837   9.740   1.265   0.187 -1.2603  0.6098  0.4550
  133MOL0     C17838   9.855   1.318   0.238  0.3093 -0.2388  0.3180
  133MOL0     C17839   9.867   1.256   0.363  0.0063  0.2598  0.6862
  133MOL0     C17840   9.969   1.293   0.467 -0.2792 -0.0134  0.4606
  133MOL0     C17841   9.970   1.208   0.589 -0.3472  0.4576 -0.6483
  133MOL0     C17842  10.047   1.276   0.697 -0.3458 -0.4981 -0.5784
  133MOL0     C17843  10.089   1.178   0.813  0.5606  0.6313  0.6636
  133MOL0     O17844  10.174   1.070   0.761  0.0838 -0.2327  0.9253
  133MOL0     C17845  10.193   0.946   0.820 -0.2223 -0.1283 -0.0781
  133MOL0     C17846  10.237   0.829   0.749  1.3872  0.8783 -0.1217
  133MOL0     C17847  10.253   0.707   0.816 -0.4373  1.5346  0.3780
  133MOL0     C17848  10.222   0.685   0.953  0.3971  1.0025  0.6457
  133MOL0     C17849  10.242   0.547   1.014  0.3521  0.5174  0.3023
  133MOL0     O17850  10.300   0.453   0.930  0.5071  0.0186  0.7045
  133MOL0     C17851  10.329   0.333   0.977  0.4684  0.1189 -0.4674
  133MOL0     C17852  10.227   0.252   1.017 -0.9256  0.6636 -0.7950
  133MOL0     C17853  10.253   0.118   1.059  0.4549  0.3321  0.6408
  133MOL0     C17854  10.384   0.071   1.083 -0.5683  0.0714  0.3199
  133MOL0     O17855  10.422  -0.046   1.148 -0.3235 -0.4134 -0.5449
  133MOL0     C17856  10.322  -0.112   1.219 -0.1051 -0.1032 -0.7498
  133MOL0     C17857  10.377  -0.249   1.279 -0.9562  0.1785  0.2632
  133MOL0     C17858  10.476  -0.232   1.395 -0.8308 -0.3134 -0.6480
  133MOL0     C17859  10.466  -0.342   1.503  0.3307 -0.6655  0.3412
  133MOL0     C17860  10.517  -0.482   1.453 -0.4193  0.0092  0.5931
  133MOL0     C17861  10.665  -0.491   1.410 -0.3393  0.9258  0.1165
  133MOL0     C17862  10.751  -0.470   1.531  0.4163 -0.3015 -0.7137
  133MOL0     C17863  10.894  -0.498   1.497  0.3979  0.2987 -0.0692
  133MOL0    Cl17864  10.940  -0.419   1.347  0.3066  0.2242 -0.1185
  133MOL0     C17865  10.487   0.165   1.059 -0.5234 -0.0107  1.7223
  133MOL0     C17866  10.468   0.290   0.993  0.5993 -0.3308  0.6981
  133MOL0     O17867  10.221   0.532   1.131  0.5300 -0.2092  0.0506
  133MOL0     C17868  10.171   0.796   1.024 -0.1507 -0.6493  0.6404
  133MOL0     C17869  10.157   0.920   0.949  0.5122 -0.2862 -0.6482
  133MOL0     N17870   9.755   1.179   0.389 -0.1324 -1.1372  0.1800
  133MOL0     N17871   9.677   1.197   0.288  0.3211  0.6500  0.0866
  133MOL0     C17872   9.236   2.243  -0.185  0.3792 -0.0465  0.4729
  133MOL0     C17873   9.091   2.268  -0.151 -0.4554 -0.3145 -0.2078
  133MOL0     C17874   8.795   2.316   0.234  0.2691 -0.3755 -0.2890
  133MOL0     C17875   8.692   2.241   0.171  0.2328 -0.2733 -0.6621
  133MOL0     C17876   8.577   2.223   0.236  0.6283  0.0772 -0.7043
  133MOL0     C17877   8.545   2.286   0.348  0.3813 -1.2113  0.0082
  133MOL0     O17878   8.421   2.280   0.415 -0.2558 -0.7313  0.7012
  133MOL0     C17879   8.339   2.166   0.408  0.7567 -0.0723 -1.3431
  133MOL0     C17880   8.210   2.194   0.491 -0.5413  0.3734  0.0512
  133MOL0     C17881   8.261   2.183   0.642  0.2468 -0.2117 -0.1757
  133MOL0     C17882   8.145   2.202   0.739  0.5136 -0.4902 -0.2982
  133MOL0     C17883   8.067   2.083   0.729 -0.1691 -0.0385  0.1919
  133MOL0     C17884   7.999   1.983   0.712  0.3236  0.6866 -0.0685
  133MOL0     C17885   8.640   2.374   0.404  0.2532 -0.7216  0.6634
  133MOL0     C17886   8.763   2.394   0.351  1.1065  0.4253 -0.3934
  133MOL0     C17887   8.839   2.512   0.403 -0.4001  0.5327  0.8477
  133MOL0     H17888   9.150   2.147   0.169  6.8637  2.5397  2.2084
  133MOL0     H17889   9.333   2.083   0.092 -1.4319 -0.6939  0.5596
  133MOL0     H17890   9.629   2.065  -0.070  1.1695  0.1118 -0.4046
  133MOL0     H17891   9.478   1.973  -0.048 -4.8314  2.3271 -1.5601
  133MOL0     H17892   9.620   1.975  -0.323 -2.3372  2.5070  0.2634
  133MOL0     H17893   9.488   1.864  -0.250 -1.2309  0.2051  4.6724
  133MOL0     H17894   9.758   1.889  -0.138  0.3830 -0.4243  0.6576
  133MOL0     H17895   9.731   1.770  -0.267  2.6335  3.4552 -0.8567
  133MOL0     H17896   9.607   1.764   0.007  0.6287  0.4229  1.2461
  133MOL0     H17897   9.518   1.696  -0.123 -1.9684  1.8532  1.6883
  133MOL0     H17898   9.719   1.562  -0.189 -2.0190  0.5833 -0.6421
  133MOL0     H17899   9.813   1.634  -0.062 -0.6339  2.4070 -2.8358
  133MOL0     H17900   9.679   1.515   0.106  0.8668  2.8566 -1.3279
  133MOL0     H17901   9.562   1.463  -0.021 -0.3692 -1.2291  0.5317
  133MOL0     H17902   9.854   1.361  -0.049  0.7158 -0.5884 -3.4928
  133MOL0     H17903   9.722   1.341  -0.144 -0.6595  6.0280 -0.3610
  133MOL0     H17904   9.584   1.264   0.058  0.7564  0.6203  1.8094
  133MOL0     H17905   9.718   1.146   0.011 -0.1824 -0.4940 -0.6084
  133MOL0     H17906   9.920   1.386   0.184 -0.5333 -0.2712 -0.7786
  133MOL0     H17907  10.071   1.282   0.430 -0.8488 -0.9524 -0.9343
  133MOL0     H17908   9.955   1.401   0.480  0.2831  0.2254 -0.8021
  133MOL0     H17909   9.866   1.189   0.618 -0.0271 -0.6830 -0.1794
  133MOL0     H17910  10.019   1.112   0.569  0.5121  0.4922  1.0944
  133MOL0     H17911   9.978   1.353   0.730 -2.0601 -1.6011 -1.4562
  133MOL0     H17912  10.144   1.316   0.665  0.8242 -2.5130  0.1757
  133MOL0     H17913   9.994   1.149   0.858 -0.0128  0.9828 -0.3081
  133MOL0     H17914  10.152   1.218   0.894  0.9507 -0.1585  0.7614
  133MOL0     H17915  10.242   0.850   0.643 -3.7854 -5.0507 -2.1877
  133MOL0     H17916  10.278   0.613   0.769 -0.1331  2.1528 -0.7532
  133MOL0     H17917  10.122   0.280   1.021 -1.0751 -0.0154  0.3789
  133MOL0     H17918  10.173   0.047   1.076  1.7757 -2.3764 -3.0924
  133MOL0     H17919  10.284  -0.049   1.300  1.3846 -1.6178  1.2316
  133MOL0     H17920  10.245  -0.147   1.150 -0.4219 -1.1013  0.0872
  133MOL0     H17921  10.289  -0.309   1.306 -0.7522 -0.6030 -0.7521
  133MOL0     H17922  10.432  -0.308   1.205  2.8243 -1.5338  4.0123
  133MOL0     H17923  10.579  -0.224   1.358 -1.6278  0.0743 -2.8969
  133MOL0     H17924  10.449  -0.139   1.446 -2.6834 -1.4059  0.4757
  133MOL0     H17925  10.362  -0.351   1.535  1.0807 -3.3177  2.4202
  133MOL0     H17926  10.529  -0.313   1.588  0.5620  0.0819 -0.0748
  133MOL0     H17927  10.463  -0.517   1.364  1.1347  0.3466 -0.5207
  133MOL0     H17928  10.496  -0.554   1.533  3.4016 -0.7538  1.1147
  133MOL0     H17929  10.688  -0.593   1.379 -1.1884  1.3326 -1.9815
  133MOL0     H17930  10.694  -0.421   1.332  2.0791 -2.1890 -2.0665
  133MOL0     H17931  10.722  -0.538   1.612  1.1386 -0.1695 -0.3299
  133MOL0     H17932  10.751  -0.366   1.565  3.8250 -0.1239 -0.8880
  133MOL0     H17933  10.951  -0.447   1.576 -3.6065  1.6571  2.2247
  133MOL0     H17934  10.918  -0.605   1.499 -0.8502 -0.0561 -2.0116
  133MOL0     H17935  10.589   0.154   1.092 -0.8735  0.7791  3.1565
  133MOL0     H17936  10.549   0.359   0.972  0.2322 -0.0256  0.2441
  133MOL0     H17937  10.118   0.777   1.116 -0.4336  0.7667  0.7925
  133MOL0     H17938  10.115   1.005   1.001  2.6335 -0.1584  1.0006
  133MOL0     H17939   9.278   2.272  -0.281  2.5879 -3.2838  0.2947
  133MOL0     H17940   9.020   2.320  -0.215  0.3093  0.4322 -0.4735
  133MOL0     H17941   8.708   2.178   0.084 -0.8274  1.7095 -2.3639
  133MOL0     H17942   8.508   2.159   0.182  1.6937 -1.7212 -0.0333
  133MOL0     H17943   8.392   2.076   0.440  0.1282 -0.1634 -0.5302
  133MOL0     H17944   8.307   2.153   0.305 -0.5298 -0.6684 -0.8931
  133MOL0     H17945   8.147   2.108   0.462  0.9775 -0.0862 -2.1595
  133MOL0     H17946   8.156   2.286   0.469 -2.2070 -0.4531  0.4246
  133MOL0     H17947   8.340   2.256   0.662 -1.9483  2.6500 -1.2661
  133MOL0     H17948   8.292   2.082   0.671 -0.6656  0.1224  2.1824
  133MOL0     H17949   8.193   2.197   0.837  2.5815 -1.5542 -1.3153
  133MOL0     H17950   8.096   2.300   0.730  0.6052 -0.3729  0.4042
  133MOL0     H17951   7.949   1.889   0.699  0.5421  0.5777 -0.1426
  133MOL0     H17952   8.605   2.423   0.495 -1.6387 -3.4487  1.5151
  133MOL0     H17953   8.839   2.592   0.329  1.6073  0.4212  0.6634
  133MOL0     H17954   8.796   2.562   0.490 -1.4242  0.7655  0.2221
  133MOL0     H17955   8.942   2.479   0.420 -0.5918  1.3880  4.4335
  134MOL0     O17956   9.579   1.696   7.992  0.4412  0.4478 -0.0714
  134MOL0     C17957   9.604   1.749   7.886 -0.1114  0.5876  0.1839
  134MOL0     O17958   9.724   1.812   7.863 -0.3553  0.2574  0.7862
  134MOL0     C17959   9.830   1.806   7.954 -1.5503 -0.2829  0.6442
  134MOL0     C17960   9.827   1.906   8.058  0.6436  0.4091 -0.0432
  134MOL0     C17961   9.940   1.921   8.140  0.3141  0.4957 -0.2780
  134MOL0     C17962  10.057   1.851   8.121  0.8541 -0.2218 -0.3141
  134MOL0     O17963  10.161   1.859   8.212 -0.4702 -0.1136 -0.0821
  134MOL0     C17964  10.132   1.796   8.337 -0.4714 -0.7668  0.8220
  134MOL0     C17965  10.249   1.718   8.388  0.1743  0.2737  0.1333
  134MOL0     C17966  10.391   1.770   8.343  0.1360  0.3367 -0.5212
  134MOL0     C17967  10.501   1.684   8.404 -0.0278  0.3248 -0.3555
  134MOL0     C17968  10.645   1.737   8.384 -0.7744  0.2409 -0.4478
  134MOL0     C17969  10.695   1.840   8.486  0.5939 -0.8825  0.6253
  134MOL0     C17970  10.823   1.915   8.435  0.0039 -0.6983  0.7701
  134MOL0     C17971  10.943   1.845   8.461 -0.9457  0.0325 -0.1952
  134MOL0     N17972  11.056   1.886   8.374 -0.3309  0.4832  0.0706
  134MOL0     C17973  11.115   2.009   8.391 -0.1156  0.9306  0.2831
  134MOL0     C17974  11.204   2.011   8.290  0.4381  0.0557 -0.1202
  134MOL0     C17975  11.293   2.126   8.242 -0.1400 -1.0701 -0.1575
  134MOL0     C17976  11.377   2.196   8.348  0.1703 -0.2727 -0.4666
  134MOL0     C17977  11.430   2.328   8.313  0.7966  1.0314 -0.1049
  134MOL0     C17978  11.498   2.393   8.431 -0.0194 -0.1769 -0.3307
  134MOL0     O17979  11.409   2.446   8.533 -0.3493  0.1038 -0.5442
  134MOL0     C17980  11.475   2.503   8.641  0.5356 -0.1394  0.1349
  134MOL0     C17981  11.415   2.486   8.763  0.3611 -0.5171 -0.7553
  134MOL0     C17982  11.466   2.558   8.869  0.4086 -0.4260 -0.6158
  134MOL0     C17983  11.574   2.650   8.866  0.1684 -0.6598 -0.3354
  134MOL0     C17984  11.631   2.702   8.992  1.3168  0.2867  0.3736
  134MOL0     O17985  11.746   2.779   8.984 -0.2920 -0.4651 -0.5531
  134MOL0     C17986  11.782   2.819   9.108 -0.5568 -0.7541  0.2912
  134MOL0     C17987  11.913   2.792   9.156  0.0291 -0.4252 -0.1421
  134MOL0     C17988  11.952   2.850   9.278 -0.3391  0.4113 -0.4760
  134MOL0     C17989  11.868   2.940   9.354  0.1009  0.2980 -0.0491
  134MOL0     O17990  11.897   2.999   9.471  0.3930  0.4847  0.5890
  134MOL0     C17991  11.961   2.907   9.565 -0.1216  0.6396 -1.0100
  134MOL0     C17992  11.931   2.960   9.711 -0.7581 -0.4895 -0.3887
  134MOL0     C17993  11.793   2.920   9.765  0.6960  0.3014 -0.0081
  134MOL0     C17994  11.767   2.987   9.900  0.6462  0.1299 -0.3144
  134MOL0     C17995  11.615   3.022   9.953  0.5626  0.9467 -0.1649
  134MOL0     C17996  11.537   2.891   9.974 -0.2289 -0.3637 -0.1526
  134MOL0     C17997  11.386   2.911  10.000  0.0543  0.0050  0.0534
  134MOL0     C17998  11.340   2.831  10.119  0.2592  0.0363 -0.3978
  134MOL0    Cl17999  11.390   2.659  10.094 -0.4156  0.0847 -0.2820
  134MOL0     C18000  11.743   2.984   9.293  0.0885 -0.1468 -0.5400
  134MOL0     C18001  11.704   2.917   9.181 -1.2219 -0.4409 -0.7500
  134MOL0     O18002  11.570   2.677   9.095 -0.4365  0.1202  0.2391
  134MOL0     C18003  11.629   2.679   8.745 -0.1080  0.3096  0.5326
  134MOL0     C18004  11.580   2.600   8.635  0.2565 -1.4914  0.1381
  134MOL0     N18005  11.194   1.893   8.216  0.1292  0.1161  0.2221
  134MOL0     N18006  11.099   1.822   8.259 -0.2615  0.4194  0.4680
  134MOL0     C18007  10.059   1.750   8.024 -0.4654  0.4342 -0.1745
  134MOL0     C18008   9.945   1.726   7.941  0.1959 -0.3564 -0.3759
  134MOL0     C18009   9.503   1.769   7.774 -0.0677  0.8086 -0.8292
  134MOL0     C18010   9.410   1.663   7.759 -0.3704  0.9784  0.3646
  134MOL0     C18011   9.309   1.680   7.660 -0.3635 -0.7344  0.2729
  134MOL0     C18012   9.313   1.786   7.564  0.6583 -0.3866 -0.2507
  134MOL0     O18013   9.221   1.788   7.459  0.2066  0.4982  0.5519
  134MOL0     C18014   9.295   1.772   7.341 -0.7891 -0.0868 -0.2602
  134MOL0     C18015   9.188   1.781   7.231 -0.0804  0.0095 -0.1658
  134MOL0     C18016   9.112   1.653   7.221 -0.4130  0.8434 -1.2791
  134MOL0     C18017   9.034   1.648   7.090 -0.6366 -0.0007  0.3553
  134MOL0     C18018   8.950   1.534   7.078 -0.4067 -0.0720 -0.2270
  134MOL0     C18019   8.904   1.424   7.061  0.2780 -0.7368 -0.9032
  134MOL0     C18020   9.412   1.882   7.583 -0.0045 -0.2772  0.4276
  134MOL0     C18021   9.494   1.884   7.694  0.2646  0.0267 -1.0893
  134MOL0     C18022   9.575   2.015   7.721  0.3643 -0.4226 -0.8493
  134MOL0     H18023   9.743   1.974   8.067 -0.6563 -1.3826  2.6103
  134MOL0     H18024   9.945   1.997   8.217  1.2035  1.1597 -0.9695
  134MOL0     H18025  10.126   1.883   8.404  1.9423 -1.0127  1.4499
  134MOL0     H18026  10.044   1.731   8.347  0.4869 -2.0122  1.5109
  134MOL0     H18027  10.245   1.612   8.359 -0.0984 -1.3864  5.3106
  134MOL0     H18028  10.239   1.727   8.496 -3.6419 -0.5339  0.0082
  134MOL0     H18029  10.394   1.876   8.372  1.8274  0.2540 -0.3322
  134MOL0     H18030  10.404   1.777   8.235  0.3211 -0.0369 -0.5217
  134MOL0     H18031  10.471   1.675   8.509 -0.5580 -0.9956 -0.5988
  134MOL0     H18032  10.486   1.585   8.360  0.3517  0.5224 -0.9498
  134MOL0     H18033  10.709   1.648   8.384 -2.7072 -1.2717  1.3051
  134MOL0     H18034  10.631   1.778   8.284  0.1879 -0.5840 -0.9425
  134MOL0     H18035  10.621   1.920   8.477 -0.1469 -1.7091 -1.5284
  134MOL0     H18036  10.698   1.795   8.586  1.7729 -2.0095  0.1130
  134MOL0     H18037  10.845   2.012   8.480  2.5864 -0.7557 -0.1649
  134MOL0     H18038  10.802   1.935   8.329 -0.7993 -1.9054  0.6749
  134MOL0     H18039  10.966   1.860   8.567  1.2591 -2.8335 -0.1515
  134MOL0     H18040  10.923   1.738   8.449 -0.2369 -0.1975  0.5923
  134MOL0     H18041  11.100   2.084   8.467 -3.5457 -1.2226  1.9935
  134MOL0     H18042  11.364   2.077   8.173 -1.2397 -3.0033  0.0061
  134MOL0     H18043  11.221   2.174   8.175 -0.1241 -3.1742 -1.8090
  134MOL0     H18044  11.310   2.210   8.434 -0.8422  1.8355 -1.5306
  134MOL0     H18045  11.462   2.133   8.374  2.4358  2.6997 -0.1912
  134MOL0     H18046  11.348   2.387   8.269 -2.1890 -1.4558  1.7086
  134MOL0     H18047  11.505   2.325   8.234 -1.6345  2.0193 -2.6224
  134MOL0     H18048  11.557   2.477   8.392  0.9137 -1.1084 -1.0110
  134MOL0     H18049  11.560   2.314   8.474  1.3825  0.8374 -0.3956
  134MOL0     H18050  11.334   2.413   8.764 -0.3754  0.2834 -0.9552
  134MOL0     H18051  11.432   2.535   8.969  0.4939 -0.0144 -0.4892
  134MOL0     H18052  11.980   2.735   9.092  2.6211  0.0044  2.0214
  134MOL0     H18053  12.039   2.809   9.329 -2.0217 -1.3658  1.1425
  134MOL0     H18054  11.927   2.803   9.557 -2.4817  1.3914 -1.4581
  134MOL0     H18055  12.070   2.917   9.564  0.0498  0.4509  2.7241
  134MOL0     H18056  12.007   2.936   9.786  0.9006  4.7259 -0.0120
  134MOL0     H18057  11.933   3.068   9.694  0.7846 -0.2488  1.0436
  134MOL0     H18058  11.724   2.959   9.689  1.3838  2.5670  0.4515
  134MOL0     H18059  11.783   2.812   9.778 -1.8990  0.7428  3.1868
  134MOL0     H18060  11.823   3.081   9.896 -1.2992  1.4388  1.1735
  134MOL0     H18061  11.807   2.924   9.979 -0.8322  1.9604  2.0450
  134MOL0     H18062  11.549   3.069   9.879 -1.8078 -1.7000  0.1143
  134MOL0     H18063  11.621   3.077  10.047 -0.1828  0.3975  0.2168
  134MOL0     H18064  11.543   2.829   9.884  3.0865  2.0572 -1.8030
  134MOL0     H18065  11.576   2.832  10.057 -2.1881  1.9615  2.5813
  134MOL0     H18066  11.334   2.882   9.908 -0.9278  1.6820  0.0446
  134MOL0     H18067  11.371   3.018  10.019 -0.8683 -0.5951  3.1047
  134MOL0     H18068  11.385   2.888  10.200 -2.6620  3.6169 -1.0074
  134MOL0     H18069  11.232   2.830  10.137  0.6054  0.1859  1.9106
  134MOL0     H18070  11.676   3.059   9.335 -1.6865 -1.0060 -1.7115
  134MOL0     H18071  11.609   2.953   9.142 -0.6512  1.1196 -0.7711
  134MOL0     H18072  11.717   2.742   8.737  1.5738 -1.9298  0.5872
  134MOL0     H18073  11.628   2.622   8.540  0.9716 -2.1731  0.3357
  134MOL0     H18074  10.147   1.693   7.997 -0.3956  0.0331  0.8557
  134MOL0     H18075   9.955   1.645   7.868 -1.6452 -0.6372 -0.3656
  134MOL0     H18076   9.425   1.577   7.824  5.7989  3.7624  3.5161
  134MOL0     H18077   9.231   1.605   7.653 -1.7156  0.6690 -0.2865
  134MOL0     H18078   9.338   1.671   7.339 -2.0384 -0.6526  0.1448
  134MOL0     H18079   9.363   1.856   7.325  1.7414 -1.5725  1.8957
  134MOL0     H18080   9.233   1.809   7.135 -0.0476 -0.8029 -0.3953
  134MOL0     H18081   9.126   1.871   7.242 -2.2449 -1.2100 -1.6162
  134MOL0     H18082   9.040   1.645   7.304 -0.2476 -1.3643 -1.2808
  134MOL0     H18083   9.168   1.558   7.220 -1.8151 -0.0284 -0.6478
  134MOL0     H18084   8.978   1.742   7.078 -0.0985  0.5783  2.1072
  134MOL0     H18085   9.096   1.647   7.001 -1.4291  0.1038 -0.2099
  134MOL0     H18086   8.850   1.335   7.034  0.4442 -0.5505 -1.8901
  134MOL0     H18087   9.420   1.963   7.512 -0.6268 -0.4823  0.1200
  134MOL0     H18088   9.583   2.024   7.830 -0.1629 -0.0380 -0.8342
  134MOL0     H18089   9.673   2.025   7.674  0.1837  2.5774 -0.7972
  134MOL0     H18090   9.515   2.105   7.705 -1.7629 -1.8148 -1.0586
  135MOL0     O18091   4.780   2.264   7.673  0.4149  0.6932 -0.2933
  135MOL0     C18092   4.702   2.207   7.750  0.1192 -0.3247  1.0016
  135MOL0     O18093   4.726   2.119   7.853 -0.3538 -0.5280 -0.4066
  135MOL0     C18094   4.852   2.102   7.890  0.4236 -0.2613  0.1940
  135MOL0     C18095   4.887   2.133   8.027 -0.2671  0.0987 -0.1430
  135MOL0     C18096   5.024   2.127   8.068 -0.8052 -0.4241 -0.0617
  135MOL0     C18097   5.122   2.084   7.975 -0.1931 -0.6166 -0.0203
  135MOL0     O18098   5.255   2.063   7.997  0.0603 -0.0953 -0.0919
  135MOL0     C18099   5.282   2.030   8.132  0.6944  0.0405  0.0847
  135MOL0     C18100   5.429   1.992   8.153 -0.5953 -0.7595 -0.9713
  135MOL0     C18101   5.515   2.116   8.139 -0.0935 -0.1631  0.5910
  135MOL0     C18102   5.528   2.176   8.284  0.5534 -0.5585 -0.8258
  135MOL0     C18103   5.620   2.299   8.293  0.5489 -0.1839  0.1457
  135MOL0     C18104   5.563   2.400   8.190  0.5483 -0.2127 -0.3490
  135MOL0     C18105   5.583   2.544   8.233  0.1101  0.2060  0.3962
  135MOL0     C18106   5.472   2.591   8.322  0.7793 -0.1098 -1.6561
  135MOL0     N18107   5.492   2.712   8.403 -0.3269  0.3779  0.2787
  135MOL0     C18108   5.598   2.794   8.400  0.0944 -0.3614  0.4042
  135MOL0     C18109   5.563   2.904   8.464  0.7630 -0.6417  0.5189
  135MOL0     C18110   5.644   3.033   8.484  0.0892 -0.7194 -0.4217
  135MOL0     C18111   5.787   2.996   8.479  0.6673 -0.4932 -0.2388
  135MOL0     C18112   5.845   3.014   8.340 -0.0989  1.1449  0.7025
  135MOL0     C18113   5.946   2.909   8.303  0.4737 -0.4300  0.2838
  135MOL0     O18114   6.019   2.920   8.179  0.0186  0.1020 -0.3892
  135MOL0     C18115   6.122   2.834   8.157 -0.0398  0.1833  0.2835
  135MOL0     C18116   6.158   2.738   8.239 -0.8037  0.4296  1.0610
  135MOL0     C18117   6.259   2.648   8.191 -0.1376  0.1839  0.3481
  135MOL0     C18118   6.312   2.657   8.059  0.5661  0.4167 -0.6741
  135MOL0     C18119   6.439   2.585   8.043  0.1702  0.5772  0.5616
  135MOL0     O18120   6.490   2.592   7.916 -0.1734  0.1350  0.6606
  135MOL0     C18121   6.587   2.501   7.877 -0.5657  0.1066 -0.5409
  135MOL0     C18122   6.558   2.365   7.851 -0.2904 -1.6125 -0.3392
  135MOL0     C18123   6.654   2.277   7.805 -0.1902 -0.5033 -0.0970
  135MOL0     C18124   6.782   2.328   7.757 -1.4737  0.0499  0.6885
  135MOL0     O18125   6.861   2.235   7.697 -0.6236  0.9668  0.3364
  135MOL0     C18126   7.002   2.251   7.717  0.8017  0.3421  0.1315
  135MOL0     C18127   7.052   2.227   7.859  0.7432  0.6809 -0.0984
  135MOL0     C18128   6.993   2.103   7.918  0.3076  0.1854  0.3888
  135MOL0     C18129   7.018   2.096   8.074  0.0476 -0.2314  0.2078
  135MOL0     C18130   7.168   2.068   8.104  0.9314 -0.0116  0.2097
  135MOL0     C18131   7.182   2.000   8.242  0.1510  0.3516 -0.1448
  135MOL0     C18132   7.321   1.962   8.286 -0.1769 -0.5673  0.1086
  135MOL0     C18133   7.331   1.891   8.427  0.2478 -0.8294  0.7611
  135MOL0    Cl18134   7.258   1.722   8.406 -0.2866  0.5949 -0.2846
  135MOL0     C18135   6.808   2.466   7.767 -0.3084 -0.4404 -0.0393
  135MOL0     C18136   6.711   2.545   7.826  0.3314 -0.5389  0.4460
  135MOL0     O18137   6.481   2.517   8.132 -0.0365  0.0186 -0.4955
  135MOL0     C18138   6.261   2.757   7.970 -1.2083 -0.0302 -0.6481
  135MOL0     C18139   6.167   2.840   8.017  0.6989 -0.4876 -0.0654
  135MOL0     N18140   5.438   2.879   8.522  0.2705  0.0160 -0.6014
  135MOL0     N18141   5.390   2.771   8.468 -0.5933 -0.2471 -0.0999
  135MOL0     C18142   5.079   2.047   7.845  0.2103 -0.3745 -0.5731
  135MOL0     C18143   4.949   2.057   7.803  0.0030  0.3423  0.5065
  135MOL0     C18144   4.561   2.245   7.730  0.6780 -0.4161  0.3791
  135MOL0     C18145   4.464   2.160   7.778  0.3012  0.1259  0.6671
  135MOL0     C18146   4.329   2.175   7.777 -0.2569 -0.2281  0.8447
  135MOL0     C18147   4.277   2.292   7.719 -0.5153  0.7970  0.5431
  135MOL0     O18148   4.142   2.294   7.710 -0.2178 -0.5732  0.1224
  135MOL0     C18149   4.087   2.270   7.586 -0.2672 -0.2590 -0.1511
  135MOL0     C18150   3.930   2.256   7.611  0.4911  0.0353 -0.2444
  135MOL0     C18151   3.864   2.160   7.516 -0.1121 -0.2866 -0.0213
  135MOL0     C18152   3.818   2.218   7.382 -0.4807  0.9773  0.1709
  135MOL0     C18153   3.741   2.111   7.314  0.1283 -0.2542  0.7161
  135MOL0     C18154   3.675   2.025   7.265  0.6483  0.0264  0.0342
  135MOL0     C18155   4.364   2.382   7.666 -0.1658  1.1053 -0.0371
  135MOL0     C18156   4.500   2.364   7.667  0.0825 -0.2302 -0.8764
  135MOL0     C18157   4.599   2.475   7.608 -0.4165  0.3976 -0.3693
  135MOL0     H18158   4.804   2.157   8.091 -3.0877 -2.3434 -2.5605
  135MOL0     H18159   5.047   2.150   8.171  0.3045 -0.5923 -0.2619
  135MOL0     H18160   5.266   2.119   8.193  4.8253  1.8588 -1.0913
  135MOL0     H18161   5.221   1.945   8.165  2.6487 -0.8746  1.5543
  135MOL0     H18162   5.467   1.920   8.081  3.2302 -1.7489  1.7220
  135MOL0     H18163   5.448   1.947   8.251 -0.7073  3.0954  1.0006
  135MOL0     H18164   5.473   2.181   8.061 -1.6058 -1.0184  0.6645
  135MOL0     H18165   5.618   2.098   8.108 -0.9305 -0.0406 -2.6685
  135MOL0     H18166   5.435   2.192   8.340  1.3556  0.6171  0.2425
  135MOL0     H18167   5.577   2.103   8.349  1.3780  0.7955  0.1413
  135MOL0     H18168   5.596   2.346   8.388 -2.6086 -0.9483 -0.1534
  135MOL0     H18169   5.724   2.268   8.276  0.6526  0.7756 -1.1632
  135MOL0     H18170   5.610   2.384   8.093 -1.4126 -2.5712 -1.0115
  135MOL0     H18171   5.458   2.381   8.165  1.0836 -3.0238 -0.7590
  135MOL0     H18172   5.586   2.616   8.151  2.2362  2.3879  2.2170
  135MOL0     H18173   5.671   2.547   8.298 -1.2796 -0.5717  2.4277
  135MOL0     H18174   5.377   2.602   8.269  0.8801 -3.3228 -2.7458
  135MOL0     H18175   5.458   2.512   8.397  2.4732 -0.5148 -1.7047
  135MOL0     H18176   5.688   2.785   8.340  0.6906  2.1945  0.7903
  135MOL0     H18177   5.614   3.106   8.408  0.2839  1.7552  1.7499
  135MOL0     H18178   5.623   3.088   8.576  2.1784  2.7631 -1.8433
  135MOL0     H18179   5.846   3.059   8.547 -1.3529 -2.0772  3.2399
  135MOL0     H18180   5.813   2.904   8.531  2.9381 -0.2664 -0.8483
  135MOL0     H18181   5.896   3.110   8.334 -0.8359  1.5986  1.3978
  135MOL0     H18182   5.762   3.020   8.268 -0.6588  0.7955  1.3077
  135MOL0     H18183   5.898   2.811   8.316 -0.0077 -0.8478 -3.4623
  135MOL0     H18184   6.024   2.924   8.378  2.0126 -1.6234 -1.0081
  135MOL0     H18185   6.122   2.728   8.341 -0.7441 -0.3284  1.0194
  135MOL0     H18186   6.296   2.571   8.258  2.9338  0.6510 -0.6783
  135MOL0     H18187   6.456   2.336   7.872  0.4601 -2.6676  2.2323
  135MOL0     H18188   6.620   2.175   7.790 -1.7907 -0.3369  1.9099
  135MOL0     H18189   7.054   2.174   7.659 -1.8869 -1.3746 -0.1765
  135MOL0     H18190   7.026   2.349   7.674  1.7878 -0.6741 -1.7826
  135MOL0     H18191   7.162   2.227   7.859  0.7557  1.5845  0.2866
  135MOL0     H18192   7.045   2.314   7.926  4.3005 -1.2144  3.2108
  135MOL0     H18193   6.884   2.100   7.902  0.7114 -0.2698 -2.9572
  135MOL0     H18194   7.028   2.016   7.861 -2.6529 -0.0651 -1.2546
  135MOL0     H18195   6.952   2.021   8.117 -2.4114  3.1799  2.9908
  135MOL0     H18196   6.974   2.192   8.102 -1.3028 -0.2066 -1.7524
  135MOL0     H18197   7.223   2.162   8.097 -0.5061  0.7510 -1.5839
  135MOL0     H18198   7.203   1.992   8.033 -1.1159  1.6268 -2.7429
  135MOL0     H18199   7.136   2.061   8.320 -0.2050  0.6674 -0.5969
  135MOL0     H18200   7.136   1.901   8.238  3.2241 -1.2687  1.1539
  135MOL0     H18201   7.385   2.047   8.309  0.9750 -1.3737 -0.0405
  135MOL0     H18202   7.368   1.892   8.216 -1.9069 -1.6879 -0.0153
  135MOL0     H18203   7.437   1.891   8.455  0.7889  5.0675 -0.0303
  135MOL0     H18204   7.275   1.951   8.499  0.5612 -1.0921  1.2254
  135MOL0     H18205   6.885   2.525   7.719 -0.0243  0.7159  1.7491
  135MOL0     H18206   6.723   2.653   7.819  0.5707 -0.4716  1.6720
  135MOL0     H18207   6.306   2.766   7.872  0.7393  0.2635  0.2099
  135MOL0     H18208   6.121   2.908   7.947 -1.6025  1.8736  3.4114
  135MOL0     H18209   5.156   2.037   7.769 -1.0491 -0.0232 -1.9441
  135MOL0     H18210   4.927   2.046   7.697 -0.5978  0.0860  0.6554
  135MOL0     H18211   4.507   2.071   7.822 -0.7545  1.3015  4.4705
  135MOL0     H18212   4.267   2.097   7.818 -0.7518 -0.7353 -0.7826
  135MOL0     H18213   4.133   2.181   7.542  2.5282 -0.3721  2.7006
  135MOL0     H18214   4.091   2.360   7.525 -1.8611  0.4953  0.7723
  135MOL0     H18215   3.878   2.352   7.600  1.0821  0.6245  1.6456
  135MOL0     H18216   3.908   2.221   7.712  0.5389 -1.4212 -0.7153
  135MOL0     H18217   3.771   2.124   7.562 -0.1425  1.1564  1.1009
  135MOL0     H18218   3.917   2.065   7.508 -1.8184 -1.1553 -1.8033
  135MOL0     H18219   3.764   2.311   7.402 -0.7568  0.3842  2.4753
  135MOL0     H18220   3.911   2.235   7.327 -0.8081 -2.5258 -1.7637
  135MOL0     H18221   3.610   1.955   7.217 -0.1299  0.3367  0.6251
  135MOL0     H18222   4.331   2.468   7.609 -2.0297 -0.9571 -2.3461
  135MOL0     H18223   4.630   2.462   7.504 -0.6536  4.8064 -1.1942
  135MOL0     H18224   4.550   2.573   7.618  2.4250  1.8731  0.4117
  135MOL0     H18225   4.691   2.488   7.667 -0.0227 -1.0989 -0.6227
  136MOL0     O18226   9.314   7.301   4.809  0.2219 -0.4184  0.7143
  136MOL0     C18227   9.199   7.353   4.834  0.4319  0.2721  0.4610
  136MOL0     O18228   9.161   7.401   4.958 -0.6753  0.2142 -0.2091
  136MOL0     C18229   9.271   7.445   5.031 -0.3033 -0.0411 -0.8557
  136MOL0     C18230   9.338   7.555   4.989 -0.1464  0.0835 -0.7093
  136MOL0     C18231   9.449   7.604   5.055  0.4321 -0.1627  0.0308
  136MOL0     C18232   9.504   7.535   5.168  0.0474 -0.6622 -0.1667
  136MOL0     O18233   9.625   7.553   5.227  0.5774  0.5710 -0.2058
  136MOL0     C18234   9.685   7.677   5.206  0.1727  0.5189 -0.0687
  136MOL0     C18235   9.797   7.697   5.310  0.1931 -0.1297  0.2384
  136MOL0     C18236   9.873   7.574   5.327 -0.0669  0.5480  0.5448
  136MOL0     C18237   9.988   7.611   5.418 -0.0277 -0.8386  0.1921
  136MOL0     C18238  10.088   7.498   5.441  0.4489 -0.1965  0.5855
  136MOL0     C18239  10.234   7.544   5.454  0.2505  0.0368  0.2422
  136MOL0     C18240  10.325   7.430   5.507  0.0285 -0.4105 -0.2153
  136MOL0     C18241  10.361   7.316   5.408  0.1124  0.6419  0.1830
  136MOL0     N18242  10.500   7.283   5.413  0.3179 -0.3040 -0.2535
  136MOL0     C18243  10.606   7.338   5.344 -0.0450  0.0729  0.5946
  136MOL0     C18244  10.714   7.257   5.371 -0.1469  0.0303  0.7542
  136MOL0     C18245  10.855   7.266   5.319  1.0345  0.0228  0.2586
  136MOL0     C18246  10.943   7.383   5.374  0.5002 -0.0235 -0.5035
  136MOL0     C18247  10.905   7.517   5.320  0.0523  1.0393  0.1209
  136MOL0     C18248  10.975   7.629   5.405 -0.2815  0.6009  0.7697
  136MOL0     O18249  10.951   7.625   5.546  1.3067  0.3909  0.3064
  136MOL0     C18250  10.997   7.724   5.623  0.6603  0.3367  0.6198
  136MOL0     C18251  11.096   7.812   5.578  1.0176  0.1574 -0.2967
  136MOL0     C18252  11.140   7.922   5.668  0.1245  1.8966 -0.4719
  136MOL0     C18253  11.084   7.933   5.798  1.0767 -0.2786 -0.5656
  136MOL0     C18254  11.101   8.044   5.898  1.3744  0.2509 -0.2799
  136MOL0     O18255  11.089   8.005   6.026 -0.5771 -0.5252 -0.0767
  136MOL0     C18256  11.139   8.081   6.128 -0.5915  0.6252 -0.2731
  136MOL0     C18257  11.259   8.157   6.135  0.3050 -0.0460 -0.7746
  136MOL0     C18258  11.300   8.222   6.261  0.4631  0.1257  0.0346
  136MOL0     C18259  11.227   8.215   6.379  0.0700 -0.3567 -1.0805
  136MOL0     O18260  11.257   8.284   6.493  0.4501  0.1757  0.5087
  136MOL0     C18261  11.307   8.415   6.474 -0.3875 -0.0944 -0.2689
  136MOL0     C18262  11.186   8.509   6.503 -0.6786 -0.0003  0.0265
  136MOL0     C18263  11.080   8.506   6.395 -0.2400  0.1430  0.3586
  136MOL0     C18264  10.994   8.638   6.400  0.2793  1.5018 -0.1898
  136MOL0     C18265  10.872   8.620   6.312  0.0264 -0.0394 -0.6756
  136MOL0     C18266  10.766   8.537   6.386 -0.2327 -0.7392  0.5829
  136MOL0     C18267  10.631   8.568   6.320 -0.1146 -0.6075 -0.7593
  136MOL0     C18268  10.524   8.491   6.391  0.8614  0.1505 -1.1336
  136MOL0    Cl18269  10.356   8.545   6.349  0.1819 -0.0925  0.6991
  136MOL0     C18270  11.109   8.145   6.367  0.2666  0.8743 -1.1036
  136MOL0     C18271  11.071   8.074   6.251 -1.1225  0.1163 -0.1634
  136MOL0     O18272  11.156   8.144   5.854 -0.4269 -0.7602  0.3396
  136MOL0     C18273  10.990   7.833   5.832  0.3265  0.1956  0.8852
  136MOL0     C18274  10.956   7.731   5.747 -0.0801  0.3363 -0.8198
  136MOL0     N18275  10.675   7.162   5.470 -0.6569 -0.2863  0.5249
  136MOL0     N18276  10.549   7.181   5.484  0.6261  0.4263 -0.8631
  136MOL0     C18277   9.438   7.420   5.209  0.5271  0.4101  0.0169
  136MOL0     C18278   9.327   7.375   5.142 -0.3777 -0.6136 -0.2891
  136MOL0     C18279   9.080   7.324   4.735  0.3958  0.2777 -0.6758
  136MOL0     C18280   8.958   7.293   4.791 -0.1450 -0.1684 -0.1100
  136MOL0     C18281   8.858   7.258   4.704  0.6696 -0.4195  0.1579
  136MOL0     C18282   8.875   7.253   4.569 -0.1339 -0.1112 -0.7674
  136MOL0     O18283   8.782   7.214   4.475  0.0804 -0.6144 -0.1784
  136MOL0     C18284   8.669   7.159   4.533 -0.2266 -0.5005  0.0188
  136MOL0     C18285   8.579   7.140   4.416 -0.0860  0.7005 -0.5521
  136MOL0     C18286   8.548   7.259   4.324  0.2867 -0.3038  0.2343
  136MOL0     C18287   8.458   7.216   4.209  1.0806  0.1186 -0.5564
  136MOL0     C18288   8.519   7.132   4.113 -1.1823 -0.1394  0.1780
  136MOL0     C18289   8.578   7.066   4.025 -0.6732  0.0290 -0.1280
  136MOL0     C18290   8.994   7.299   4.514  0.2989  0.2393  0.3074
  136MOL0     C18291   9.093   7.337   4.600  0.4693 -0.5088  0.9493
  136MOL0     C18292   9.210   7.402   4.539  0.0370 -0.0725 -0.3596
  136MOL0     H18293   9.302   7.619   4.909  2.0083  1.5706 -0.5820
  136MOL0     H18294   9.504   7.685   5.008 -0.2469 -1.1257 -2.5859
  136MOL0     H18295   9.723   7.680   5.104  1.0809  2.5565  0.2772
  136MOL0     H18296   9.618   7.763   5.219 -0.2222  0.0058  1.6752
  136MOL0     H18297   9.746   7.716   5.405 -0.9717  2.1111 -0.7443
  136MOL0     H18298   9.860   7.779   5.274 -0.2939 -0.4210 -1.3409
  136MOL0     H18299   9.911   7.540   5.230 -0.2934  0.0851  0.6150
  136MOL0     H18300   9.811   7.514   5.395 -2.2139  4.9690  2.8977
  136MOL0     H18301  10.038   7.695   5.369 -0.2820 -2.2262 -2.6165
  136MOL0     H18302   9.954   7.645   5.517  2.0587 -2.1927  1.4570
  136MOL0     H18303  10.062   7.435   5.527 -0.2337  0.5166  0.9184
  136MOL0     H18304  10.086   7.434   5.353  1.6780 -1.3428  1.3609
  136MOL0     H18305  10.267   7.582   5.357  0.8097  0.1052  0.4563
  136MOL0     H18306  10.243   7.633   5.517  1.0393  1.3144 -1.5764
  136MOL0     H18307  10.291   7.387   5.602  0.6098 -1.0340 -0.2769
  136MOL0     H18308  10.419   7.483   5.526 -0.9283  0.3449  3.2306
  136MOL0     H18309  10.300   7.226   5.415 -0.6685  0.8389 -2.8292
  136MOL0     H18310  10.340   7.350   5.306  1.9615  2.5034  0.3496
  136MOL0     H18311  10.620   7.417   5.271  1.4794 -2.1199 -1.7015
  136MOL0     H18312  10.919   7.180   5.338  0.1993 -0.8002 -0.5446
  136MOL0     H18313  10.849   7.259   5.210  1.0858 -2.6098  0.3602
  136MOL0     H18314  10.931   7.391   5.482 -0.6713  0.1953 -0.6437
  136MOL0     H18315  11.049   7.369   5.348 -0.1794  0.0197 -3.6302
  136MOL0     H18316  10.796   7.528   5.321  0.2100  2.8315  1.6148
  136MOL0     H18317  10.944   7.520   5.218  1.8716 -2.5753  0.5420
  136MOL0     H18318  10.939   7.729   5.381  1.2783  1.1544  0.6273
  136MOL0     H18319  11.080   7.611   5.381  0.9188 -1.5104  6.0987
  136MOL0     H18320  11.152   7.805   5.485  1.1274 -1.3589 -0.1263
  136MOL0     H18321  11.220   7.984   5.629  1.6372  0.3557  0.0739
  136MOL0     H18322  11.329   8.152   6.052  1.6973 -5.3789  0.3724
  136MOL0     H18323  11.392   8.280   6.264  1.6590 -1.5890 -1.1615
  136MOL0     H18324  11.382   8.429   6.552 -1.4841 -3.3913  1.5821
  136MOL0     H18325  11.342   8.453   6.377 -0.0432  0.5178  0.0883
  136MOL0     H18326  11.150   8.482   6.603  2.1509 -1.2407  0.7977
  136MOL0     H18327  11.230   8.608   6.520  0.9901 -0.7913  0.4291
  136MOL0     H18328  11.123   8.484   6.297  1.4922 -0.6854  1.2741
  136MOL0     H18329  11.028   8.413   6.419  0.1805 -0.9875 -2.6925
  136MOL0     H18330  11.053   8.725   6.370  3.2376 -0.0722  0.6439
  136MOL0     H18331  10.969   8.663   6.503 -2.4701 -2.2127  0.2673
  136MOL0     H18332  10.905   8.581   6.215  1.6836 -0.0888 -0.1242
  136MOL0     H18333  10.825   8.718   6.301 -0.9534 -0.4888 -0.6848
  136MOL0     H18334  10.786   8.429   6.380 -2.2753 -1.3160  2.7083
  136MOL0     H18335  10.760   8.560   6.493 -2.0232  1.7574  0.0213
  136MOL0     H18336  10.621   8.536   6.216 -1.3595 -3.4359  0.1401
  136MOL0     H18337  10.599   8.673   6.327 -2.2769 -1.2733  0.0741
  136MOL0     H18338  10.538   8.392   6.347 -2.3715  0.0624 -2.1797
  136MOL0     H18339  10.539   8.496   6.500  5.3361 -2.4458 -1.3748
  136MOL0     H18340  11.052   8.122   6.456 -0.8225 -0.1437 -2.0278
  136MOL0     H18341  10.982   8.012   6.242 -1.2083  0.0598  0.9881
  136MOL0     H18342  10.936   7.848   5.925 -2.5316  0.3025 -0.6699
  136MOL0     H18343  10.891   7.650   5.781 -1.2657  1.8666  0.7747
  136MOL0     H18344   9.474   7.357   5.289 -1.2627 -3.3140 -1.8513
  136MOL0     H18345   9.286   7.279   5.170  1.4679 -0.6618  2.6800
  136MOL0     H18346   8.948   7.298   4.899 -4.5392  2.9591 -0.3954
  136MOL0     H18347   8.768   7.237   4.760 -0.0479  1.5003 -0.2192
  136MOL0     H18348   8.624   7.232   4.601  1.8568  3.7506 -2.7625
  136MOL0     H18349   8.696   7.066   4.585 -0.8337 -1.1252 -0.7664
  136MOL0     H18350   8.492   7.097   4.468  1.4104  0.6075  2.0897
  136MOL0     H18351   8.625   7.062   4.355  0.4974  0.8899 -0.3559
  136MOL0     H18352   8.641   7.299   4.281  0.3333  0.1558  0.7458
  136MOL0     H18353   8.500   7.331   4.391 -1.2568 -2.1012  1.1454
  136MOL0     H18354   8.378   7.161   4.259  0.3508  1.4273 -0.2291
  136MOL0     H18355   8.412   7.298   4.153 -1.4253  0.0539  1.2229
  136MOL0     H18356   8.631   7.028   3.940  0.2516  0.2938  0.3266
  136MOL0     H18357   9.016   7.299   4.408  0.7691 -2.7570  0.3191
  136MOL0     H18358   9.194   7.450   4.442  0.1849 -1.6901 -1.2368
  136MOL0     H18359   9.251   7.475   4.609 -0.7027 -0.4777  0.5157
  136MOL0     H18360   9.283   7.324   4.514 -2.0264 -2.1545 -0.2626
  137MOL0     O18361   6.781   1.606   0.667  0.2650 -0.1379  0.3276
  137MOL0     C18362   6.814   1.706   0.728  0.6677  0.4234  0.1174
  137MOL0     O18363   6.931   1.766   0.714  0.5009 -0.2089 -0.7972
  137MOL0     C18364   7.039   1.693   0.684  0.5116 -0.0099  0.5295
  137MOL0     C18365   7.128   1.755   0.596 -0.1903 -0.2053 -0.3074
  137MOL0     C18366   7.255   1.685   0.581 -1.4057  0.2158  0.8002
  137MOL0     C18367   7.279   1.555   0.627  0.4591 -0.1890  0.4685
  137MOL0     O18368   7.388   1.488   0.578  0.1068 -0.1184 -0.4634
  137MOL0     C18369   7.406   1.354   0.620 -0.4679 -0.5147  0.1610
  137MOL0     C18370   7.335   1.249   0.537 -0.5690 -0.2137  0.0871
  137MOL0     C18371   7.364   1.103   0.586 -0.0800 -0.1124 -0.2145
  137MOL0     C18372   7.329   1.068   0.734  0.1980 -0.2463  0.0591
  137MOL0     C18373   7.352   0.918   0.759 -0.2284 -0.4285  0.5682
  137MOL0     C18374   7.303   0.891   0.892 -0.3738  0.3570  0.2039
  137MOL0     C18375   7.317   0.750   0.941  0.6266  0.1344  0.3120
  137MOL0     C18376   7.201   0.658   0.876  0.5265 -0.1893 -0.6863
  137MOL0     N18377   7.072   0.689   0.938  0.3608  0.4148  0.0794
  137MOL0     C18378   6.979   0.781   0.874  0.2495  1.5070 -0.0386
  137MOL0     C18379   6.891   0.804   0.981  0.0088  0.8289  1.3731
  137MOL0     C18380   6.772   0.881   0.979  0.8120  0.2572 -1.3546
  137MOL0     C18381   6.644   0.799   0.933  0.5467 -1.1365 -0.0687
  137MOL0     C18382   6.635   0.779   0.781 -0.5668 -0.7267 -0.1235
  137MOL0     C18383   6.513   0.691   0.747 -0.6328  0.4796 -0.2294
  137MOL0     O18384   6.500   0.693   0.607  0.3347  0.4409  0.0809
  137MOL0     C18385   6.478   0.580   0.540  0.6960 -0.7935 -0.5962
  137MOL0     C18386   6.571   0.539   0.456  0.8224 -0.5805  0.6388
  137MOL0     C18387   6.555   0.415   0.397 -0.3870 -0.0017  0.4616
  137MOL0     C18388   6.443   0.330   0.417 -0.6737 -0.0882  0.7389
  137MOL0     C18389   6.444   0.195   0.342 -1.1077 -0.4116 -0.6730
  137MOL0     O18390   6.553   0.174   0.263  0.0676 -0.4273 -0.7616
  137MOL0     C18391   6.548   0.060   0.186  1.1964 -0.3554 -0.1485
  137MOL0     C18392   6.564  -0.063   0.251 -0.4100 -0.1564  0.6021
  137MOL0     C18393   6.537  -0.180   0.182  0.1500  0.4584  1.0825
  137MOL0     C18394   6.547  -0.179   0.041  0.0783  0.3768  0.6615
  137MOL0     O18395   6.536  -0.287  -0.042  0.5497 -0.3170  0.3856
  137MOL0     C18396   6.540  -0.424   0.000  0.4099 -0.0154 -0.8778
  137MOL0     C18397   6.587  -0.516  -0.105  0.5282 -0.0513 -0.2102
  137MOL0     C18398   6.725  -0.495  -0.145 -0.5184 -0.2527 -0.0395
  137MOL0     C18399   6.758  -0.550  -0.281 -0.6378  0.1673  0.3863
  137MOL0     C18400   6.905  -0.524  -0.319 -0.1584 -0.2363  0.0815
  137MOL0     C18401   6.951  -0.581  -0.447  0.2789 -0.1060 -0.0007
  137MOL0     C18402   6.926  -0.728  -0.485  0.4852 -0.8000 -1.6502
  137MOL0     C18403   7.033  -0.826  -0.430  0.0426  0.4327  0.1676
  137MOL0    Cl18404   6.990  -1.009  -0.451 -0.0613 -0.4018  0.2738
  137MOL0     C18405   6.562  -0.060  -0.022  0.4561  0.2392  0.5238
  137MOL0     C18406   6.545   0.057   0.052 -0.5504  0.4699 -0.3304
  137MOL0     O18407   6.340   0.126   0.347 -0.3311  0.7989 -0.4615
  137MOL0     C18408   6.352   0.376   0.516 -0.1194  0.1755  0.7551
  137MOL0     C18409   6.365   0.507   0.566  0.0345 -0.0244 -2.2260
  137MOL0     N18410   6.912   0.709   1.077 -0.0006  1.2286 -0.0860
  137MOL0     N18411   7.022   0.638   1.049  0.2715  0.8172  0.7537
  137MOL0     C18412   7.180   1.505   0.711  0.1412 -0.6194 -0.2192
  137MOL0     C18413   7.063   1.568   0.730  0.1445  0.7800 -0.1414
  137MOL0     C18414   6.722   1.767   0.824 -0.5562  0.3613  0.4555
  137MOL0     C18415   6.740   1.907   0.843 -0.1350  0.6793  1.0268
  137MOL0     C18416   6.648   1.958   0.932  0.8474 -0.2677  0.5164
  137MOL0     C18417   6.564   1.883   1.019 -1.1086  0.3751 -0.6602
  137MOL0     O18418   6.473   1.926   1.112 -0.1782  0.4622 -0.0850
  137MOL0     C18419   6.447   2.064   1.104 -0.5302 -1.0271  0.5647
  137MOL0     C18420   6.321   2.099   1.189 -0.1565  0.4640 -0.2309
  137MOL0     C18421   6.303   2.255   1.181  0.6605 -0.0801  0.6593
  137MOL0     C18422   6.402   2.336   1.270  0.9228 -0.2956 -0.0878
  137MOL0     C18423   6.357   2.314   1.402 -0.3168 -1.1106  0.4158
  137MOL0     C18424   6.306   2.294   1.514  0.5899 -1.0017  0.6977
  137MOL0     C18425   6.570   1.745   1.015  1.0931 -0.4103 -0.0094
  137MOL0     C18426   6.656   1.690   0.920  0.6138 -0.6964 -0.8325
  137MOL0     C18427   6.687   1.542   0.950  0.6571 -0.0291 -0.5852
  137MOL0     H18428   7.122   1.855   0.554 -3.1586  1.1461  2.8420
  137MOL0     H18429   7.331   1.720   0.512 -2.8557 -0.0252 -0.9887
  137MOL0     H18430   7.513   1.343   0.601  0.4457  0.3899  3.9785
  137MOL0     H18431   7.402   1.352   0.729  5.4168 -0.2503  0.7032
  137MOL0     H18432   7.370   1.255   0.434 -0.9120  4.1821  0.0294
  137MOL0     H18433   7.226   1.260   0.545 -0.4028  0.9798  1.0351
  137MOL0     H18434   7.469   1.074   0.596 -0.7627 -3.1399 -0.7710
  137MOL0     H18435   7.310   1.035   0.520 -1.1778 -0.0491  0.5941
  137MOL0     H18436   7.381   1.128   0.809  0.5866 -1.7211  1.0125
  137MOL0     H18437   7.222   1.084   0.749  0.4714  1.4185  0.3387
  137MOL0     H18438   7.294   0.865   0.683 -1.0719  2.1893 -0.7156
  137MOL0     H18439   7.456   0.887   0.749  0.1087  0.9480 -0.4546
  137MOL0     H18440   7.365   0.947   0.963  0.4016 -1.7057  1.2377
  137MOL0     H18441   7.200   0.927   0.897 -0.7256 -0.1040 -2.2845
  137MOL0     H18442   7.307   0.747   1.049 -2.7720  0.1522  0.0932
  137MOL0     H18443   7.412   0.712   0.901 -0.7003 -0.5181 -2.5259
  137MOL0     H18444   7.188   0.673   0.768 -6.4930  0.6730 -0.1949
  137MOL0     H18445   7.223   0.554   0.900  0.0549  0.6162  4.2440
  137MOL0     H18446   6.985   0.820   0.773  0.0841 -1.6902 -1.4357
  137MOL0     H18447   6.746   0.925   1.076 -1.4078  1.1647 -2.2765
  137MOL0     H18448   6.776   0.971   0.918 -4.0126  2.3628  0.8510
  137MOL0     H18449   6.638   0.701   0.981 -0.3747 -1.2277 -0.3366
  137MOL0     H18450   6.559   0.865   0.956  0.8967 -0.4031 -0.8398
  137MOL0     H18451   6.721   0.720   0.747  0.1078  1.1676 -1.9018
  137MOL0     H18452   6.627   0.867   0.717 -4.0099 -3.2740 -3.6619
  137MOL0     H18453   6.418   0.727   0.788 -2.7588 -2.1766 -2.4290
  137MOL0     H18454   6.539   0.592   0.784  4.4375  2.2145  1.6405
  137MOL0     H18455   6.653   0.607   0.437  0.9733 -0.1763  2.5144
  137MOL0     H18456   6.632   0.382   0.328 -1.2929  0.8366 -0.9941
  137MOL0     H18457   6.578  -0.043   0.357 -0.1469 -1.5408  0.8447
  137MOL0     H18458   6.518  -0.274   0.233 -0.3493  0.9166  1.7532
  137MOL0     H18459   6.613  -0.440   0.080 -0.5949 -0.1881  0.0276
  137MOL0     H18460   6.445  -0.468   0.031  1.3731 -2.1659 -0.7926
  137MOL0     H18461   6.572  -0.623  -0.088  1.7181 -0.5015 -1.7225
  137MOL0     H18462   6.523  -0.484  -0.187  0.4135  1.5558  0.4728
  137MOL0     H18463   6.744  -0.389  -0.160 -1.3902 -0.3614 -2.3042
  137MOL0     H18464   6.781  -0.529  -0.058 -0.2379 -1.8120 -0.7977
  137MOL0     H18465   6.695  -0.520  -0.366  0.4806  1.6970  0.0470
  137MOL0     H18466   6.736  -0.657  -0.276 -1.3634  0.0587 -2.9137
  137MOL0     H18467   6.985  -0.546  -0.249 -0.5782  1.6965  1.2241
  137MOL0     H18468   6.914  -0.416  -0.332 -0.8348 -0.2068 -0.1886
  137MOL0     H18469   6.894  -0.516  -0.515 -0.3322  0.5613  1.1060
  137MOL0     H18470   7.053  -0.549  -0.467  1.2807 -3.4183 -0.6932
  137MOL0     H18471   6.935  -0.746  -0.593  3.9106  0.6615 -1.7453
  137MOL0     H18472   6.828  -0.753  -0.446  1.7513  0.2279  2.7676
  137MOL0     H18473   7.127  -0.798  -0.479  0.4590  2.3644  1.9445
  137MOL0     H18474   7.060  -0.807  -0.326 -0.3410 -0.4202  0.4359
  137MOL0     H18475   6.572  -0.049  -0.130  3.6286  2.7872  0.9147
  137MOL0     H18476   6.525   0.149  -0.002 -1.6063 -0.4814 -1.6134
  137MOL0     H18477   6.275   0.316   0.564 -1.2953  3.0428  2.7998
  137MOL0     H18478   6.282   0.530   0.633 -1.7964 -4.2070 -2.7206
  137MOL0     H18479   7.190   1.399   0.728 -4.2622 -1.2847 -0.6324
  137MOL0     H18480   6.987   1.514   0.785  1.1120  0.2997  0.7592
  137MOL0     H18481   6.818   1.966   0.797  0.4631 -1.1599 -0.4406
  137MOL0     H18482   6.643   2.066   0.942  2.7218  0.4143 -3.5867
  137MOL0     H18483   6.423   2.087   1.000 -3.8008 -2.5240  0.8393
  137MOL0     H18484   6.541   2.108   1.137 -1.0855 -0.0373  0.8719
  137MOL0     H18485   6.317   2.069   1.294 -1.9206 -1.8540 -0.8749
  137MOL0     H18486   6.226   2.057   1.156 -1.2682  1.0164  2.0219
  137MOL0     H18487   6.200   2.286   1.197  0.7183  0.3447  0.2427
  137MOL0     H18488   6.322   2.284   1.077  1.5010 -2.1476  0.1816
  137MOL0     H18489   6.503   2.297   1.256  0.3089 -1.3418 -1.9935
  137MOL0     H18490   6.414   2.443   1.252  1.8449 -0.5360 -0.9848
  137MOL0     H18491   6.261   2.273   1.609  1.1144 -3.7248  0.4415
  137MOL0     H18492   6.506   1.689   1.082 -0.8347  1.6119 -0.0479
  137MOL0     H18493   6.631   1.483   0.876 -1.1377  1.4183 -0.4499
  137MOL0     H18494   6.794   1.524   0.932  1.4799  2.8754  0.9169
  137MOL0     H18495   6.654   1.515   1.050  0.5488 -2.5020 -1.2187
  138MOL0     O18496   0.615   9.706   6.011  0.2739 -0.3262 -0.1778
  138MOL0     C18497   0.732   9.716   6.043 -0.5327 -0.9014  0.4612
  138MOL0     O18498   0.822   9.807   5.990  0.3471 -0.8540 -0.0919
  138MOL0     C18499   0.767   9.895   5.901 -0.6127 -0.4964  0.1260
  138MOL0     C18500   0.659   9.979   5.927 -0.0689 -0.2853 -0.2868
  138MOL0     C18501   0.611  10.076   5.834 -0.4350 -0.1470  0.8444
  138MOL0     C18502   0.668  10.095   5.704  0.4360  0.4703 -0.2600
  138MOL0     O18503   0.616  10.192   5.623  0.0296  0.0307 -0.0750
  138MOL0     C18504   0.624  10.183   5.481 -0.7388  0.4511  0.6677
  138MOL0     C18505   0.717  10.303   5.442  0.8861  0.3878 -0.1956
  138MOL0     C18506   0.747  10.313   5.293 -0.0790 -0.1130  0.9117
  138MOL0     C18507   0.816  10.180   5.244 -0.6379 -0.6419  0.9188
  138MOL0     C18508   0.883  10.206   5.107  0.4377 -0.2705 -0.1752
  138MOL0     C18509   0.943  10.071   5.050 -0.5924  0.3060 -0.1509
  138MOL0     C18510   0.981  10.087   4.907  1.0475  1.1964 -0.5369
  138MOL0     C18511   0.983   9.948   4.846 -0.2246  0.3190  0.8370
  138MOL0     N18512   1.029   9.949   4.708  0.2447 -0.0447 -0.9771
  138MOL0     C18513   1.029  10.050   4.616  1.2839 -0.1432  0.0302
  138MOL0     C18514   1.112  10.003   4.516  1.0477 -0.1915 -1.5812
  138MOL0     C18515   1.127  10.062   4.381 -0.3651  0.4419  0.5297
  138MOL0     C18516   1.273  10.052   4.332  0.2035 -0.2222 -0.6435
  138MOL0     C18517   1.291   9.936   4.234 -0.4838 -0.1455  0.1960
  138MOL0     C18518   1.429   9.860   4.208  1.7300 -0.5860 -0.0304
  138MOL0     O18519   1.535   9.949   4.171 -0.5589  0.5205 -0.1476
  138MOL0     C18520   1.645   9.880   4.112  0.0285 -0.3729 -0.9884
  138MOL0     C18521   1.722   9.953   4.023  0.2182  0.0117 -0.2517
  138MOL0     C18522   1.831   9.902   3.969 -0.0890 -1.1482 -0.8817
  138MOL0     C18523   1.871   9.771   3.989 -0.0105 -0.3701  0.6272
  138MOL0     C18524   1.998   9.731   3.942 -0.8493 -1.2267 -0.2915
  138MOL0     O18525   2.055   9.625   4.007  0.7076  0.2706  0.5664
  138MOL0     C18526   2.182   9.596   3.964  0.4809 -1.2356  0.6813
  138MOL0     C18527   2.292   9.689   3.975 -0.1071 -0.4164 -0.3502
  138MOL0     C18528   2.425   9.655   3.960 -1.2065 -0.2509 -1.0284
  138MOL0     C18529   2.459   9.529   3.944 -0.0189 -0.3857  0.3691
  138MOL0     O18530   2.585   9.487   3.922 -0.0649  0.3202  0.5477
  138MOL0     C18531   2.695   9.523   4.014 -0.2794  0.0903  0.3850
  138MOL0     C18532   2.744   9.389   4.088  0.1024  0.3318  1.4797
  138MOL0     C18533   2.859   9.407   4.172  1.3218 -0.4246  0.0329
  138MOL0     C18534   2.883   9.291   4.252  0.8722 -0.1181  0.7413
  138MOL0     C18535   3.020   9.282   4.298 -0.5373 -1.5037  0.7362
  138MOL0     C18536   3.047   9.143   4.353 -0.0560 -1.1657  0.4409
  138MOL0     C18537   3.193   9.127   4.387  0.6661 -0.1611 -0.2647
  138MOL0     C18538   3.208   9.027   4.502  0.4375  0.1717 -1.1619
  138MOL0    Cl18539   3.156   9.111   4.655  0.2594 -0.1272  0.5904
  138MOL0     C18540   2.359   9.435   3.934 -0.1057  0.7734 -0.1676
  138MOL0     C18541   2.220   9.463   3.949  0.6417 -1.0632 -0.6725
  138MOL0     O18542   2.042   9.802   3.849  0.0559 -0.3076 -0.3238
  138MOL0     C18543   1.783   9.689   4.071 -1.1030  0.1215  0.4144
  138MOL0     C18544   1.678   9.744   4.136  0.3396 -0.4855 -0.6693
  138MOL0     N18545   1.142   9.872   4.543  0.0695  0.2981 -0.2348
  138MOL0     N18546   1.091   9.844   4.658  0.0226 -0.5929  0.2950
  138MOL0     C18547   0.773  10.005   5.673  0.7576  0.0469 -0.1235
  138MOL0     C18548   0.824   9.918   5.774 -0.2463 -0.5396  0.0628
  138MOL0     C18549   0.799   9.615   6.128  1.1022  0.6550  0.1060
  138MOL0     C18550   0.715   9.503   6.148  0.5269  1.6930 -0.8253
  138MOL0     C18551   0.764   9.403   6.235  0.4598  0.1385  0.5694
  138MOL0     C18552   0.879   9.420   6.313  0.0132  0.5574  0.6094
  138MOL0     O18553   0.911   9.318   6.402  0.0399  0.3606  0.1071
  138MOL0     C18554   0.971   9.350   6.524  0.2878 -0.6731 -0.1608
  138MOL0     C18555   1.126   9.383   6.532  0.7886 -0.8325 -0.0273
  138MOL0     C18556   1.216   9.253   6.545  0.1755 -0.3768  1.1291
  138MOL0     C18557   1.369   9.273   6.555 -0.7420 -0.0108  0.2727
  138MOL0     C18558   1.404   9.341   6.689 -0.5887 -0.9091  0.8372
  138MOL0     C18559   1.449   9.395   6.794  0.6749 -0.4911 -0.3078
  138MOL0     C18560   0.949   9.536   6.297  0.2861  0.0435  1.3186
  138MOL0     C18561   0.915   9.636   6.204 -0.2869 -1.0506 -0.6737
  138MOL0     C18562   1.005   9.762   6.202  0.6436  0.8324  0.3874
  138MOL0     H18563   0.600   9.969   6.017  1.0448  2.6423  0.8857
  138MOL0     H18564   0.532  10.140   5.874  0.7744  2.5050 -0.7072
  138MOL0     H18565   0.661  10.085   5.451 -3.6926 -0.1252 -1.5791
  138MOL0     H18566   0.532  10.204   5.426 -0.4819  1.0884  0.4694
  138MOL0     H18567   0.812  10.291   5.495  1.5367  0.5137 -1.3009
  138MOL0     H18568   0.664  10.392   5.477 -2.4769 -0.8612 -1.7299
  138MOL0     H18569   0.799  10.408   5.277 -0.9353  0.0724 -0.9992
  138MOL0     H18570   0.651  10.321   5.241  1.0789  3.0409 -1.0441
  138MOL0     H18571   0.890  10.139   5.313  0.4294 -0.3803 -0.0501
  138MOL0     H18572   0.738  10.103   5.240 -0.3094 -0.9383 -2.1793
  138MOL0     H18573   0.803  10.250   5.047  0.4805  2.5475  1.6187
  138MOL0     H18574   0.963  10.280   5.120  0.8192 -0.9547  1.7075
  138MOL0     H18575   1.027  10.027   5.105  1.1864  1.6413 -1.6835
  138MOL0     H18576   0.864   9.996   5.064  0.3734 -0.2106  3.7892
  138MOL0     H18577   1.074  10.140   4.884  2.6864 -0.8946  0.8088
  138MOL0     H18578   0.891  10.135   4.868  0.3255 -0.6653 -1.2841
  138MOL0     H18579   1.044   9.881   4.906  2.7267  2.5104  0.4879
  138MOL0     H18580   0.883   9.904   4.852 -0.5236  0.8054 -0.2012
  138MOL0     H18581   0.985  10.148   4.630  1.7871 -0.3674  4.6377
  138MOL0     H18582   1.070  10.008   4.304  0.5940 -0.8538  0.6887
  138MOL0     H18583   1.097  10.167   4.383  0.1548  0.5825  0.9928
  138MOL0     H18584   1.293  10.146   4.280 -1.7689 -1.1354 -3.2771
  138MOL0     H18585   1.343  10.048   4.416 -1.5395  2.7976  1.1208
  138MOL0     H18586   1.261   9.979   4.138  0.3932 -0.5628 -0.2743
  138MOL0     H18587   1.223   9.855   4.263 -1.1834  0.8111  1.2846
  138MOL0     H18588   1.410   9.778   4.137 -0.7760 -1.7855  1.8513
  138MOL0     H18589   1.449   9.810   4.303  0.2057  0.3627  0.8269
  138MOL0     H18590   1.694  10.054   3.997  1.9273  0.3490 -0.8436
  138MOL0     H18591   1.881   9.977   3.908 -0.1827 -1.4188 -1.2909
  138MOL0     H18592   2.271   9.794   3.994 -1.9261 -0.6634 -0.7528
  138MOL0     H18593   2.492   9.738   3.981 -3.1670  1.2258 -0.2867
  138MOL0     H18594   2.783   9.563   3.961 -0.4103  0.4439  0.4283
  138MOL0     H18595   2.656   9.598   4.083 -3.3703  2.3844 -3.3922
  138MOL0     H18596   2.664   9.332   4.135 -0.6092 -1.5088 -1.6576
  138MOL0     H18597   2.760   9.320   4.005 -3.2396  3.8276 -2.5546
  138MOL0     H18598   2.941   9.435   4.104 -1.1777 -1.8845 -3.9359
  138MOL0     H18599   2.840   9.486   4.245 -2.0710 -0.0635 -1.0491
  138MOL0     H18600   2.845   9.209   4.190 -1.1514  0.0248  1.7195
  138MOL0     H18601   2.826   9.289   4.345  1.1611  1.5471  0.9721
  138MOL0     H18602   3.039   9.350   4.382 -2.9979 -0.3934  0.4911
  138MOL0     H18603   3.091   9.311   4.221 -0.8190  2.1202  1.6403
  138MOL0     H18604   2.979   9.132   4.438 -1.1483 -1.4690 -0.4489
  138MOL0     H18605   3.027   9.066   4.277  2.9746 -3.1919  1.5201
  138MOL0     H18606   3.248   9.214   4.423  3.1089 -2.1499  1.2157
  138MOL0     H18607   3.241   9.077   4.302  0.7461 -0.3162 -0.1283
  138MOL0     H18608   3.149   8.934   4.498 -0.9830  0.8157  2.0018
  138MOL0     H18609   3.305   8.976   4.499 -0.9587 -2.9127  0.9330
  138MOL0     H18610   2.389   9.333   3.914  0.2077  1.0567 -1.1726
  138MOL0     H18611   2.145   9.386   3.931  0.2337 -1.2246  1.4683
  138MOL0     H18612   1.819   9.587   4.083  0.4112  0.3890 -1.3149
  138MOL0     H18613   1.612   9.691   4.204  1.4574 -0.7980  0.1912
  138MOL0     H18614   0.822  10.008   5.576  0.1024  4.9335 -0.5772
  138MOL0     H18615   0.915   9.860   5.767 -0.9982 -2.1003  2.0961
  138MOL0     H18616   0.637   9.467   6.081 -0.6956 -1.9428  2.2063
  138MOL0     H18617   0.716   9.308   6.252  4.0391 -1.6750  1.6179
  138MOL0     H18618   0.968   9.261   6.588 -1.1710 -0.2718  0.3585
  138MOL0     H18619   0.910   9.423   6.578 -0.6266 -0.9873 -0.7534
  138MOL0     H18620   1.148   9.435   6.626 -1.8703 -2.8284  1.8449
  138MOL0     H18621   1.168   9.441   6.449  0.1938  1.0590  0.9514
  138MOL0     H18622   1.189   9.190   6.459 -0.5994  0.5994  0.6295
  138MOL0     H18623   1.188   9.196   6.634 -0.0790  0.0735  1.3430
  138MOL0     H18624   1.416   9.177   6.534  0.1072  0.5018 -0.2056
  138MOL0     H18625   1.394   9.340   6.472 -3.1139  1.0394  0.3169
  138MOL0     H18626   1.493   9.439   6.881 -1.2056 -0.9278  0.9277
  138MOL0     H18627   1.038   9.554   6.356  1.3655  2.7903 -0.8704
  138MOL0     H18628   0.936   9.844   6.222 -0.5291  1.1278 -3.7382
  138MOL0     H18629   1.076   9.755   6.284  0.1273 -1.5266  0.7335
  138MOL0     H18630   1.069   9.771   6.113  0.0250  1.8589  0.0355
  139MOL0     O18631   1.274   0.788   3.305 -0.6428 -0.4545  0.0447
  139MOL0     C18632   1.179   0.861   3.339  0.1716  0.0652  0.8498
  139MOL0     O18633   1.190   0.977   3.404 -0.0494  0.2889  0.6933
  139MOL0     C18634   1.289   0.971   3.497  0.1420  0.4870 -0.4188
  139MOL0     C18635   1.421   1.009   3.460  0.8935 -0.9801 -0.6244
  139MOL0     C18636   1.528   1.005   3.551  0.5511  0.4341  0.2138
  139MOL0     C18637   1.492   0.964   3.681 -0.3410 -0.3788  0.6895
  139MOL0     O18638   1.583   0.954   3.783  0.2923  1.0632 -0.9708
  139MOL0     C18639   1.723   0.970   3.758 -0.1305  0.5890  0.2760
  139MOL0     C18640   1.807   0.997   3.885  0.0313 -0.1766  0.3060
  139MOL0     C18641   1.749   1.101   3.977  0.3233  0.4012  0.2901
  139MOL0     C18642   1.854   1.145   4.086 -0.6403 -0.1726 -1.3058
  139MOL0     C18643   1.971   1.218   4.044  0.2180 -0.1689  0.4321
  139MOL0     C18644   1.939   1.335   3.950  0.0536 -0.0731 -0.4824
  139MOL0     C18645   2.037   1.446   3.947  0.5900 -0.2050 -1.0309
  139MOL0     C18646   2.040   1.530   4.081 -0.6149 -0.5673 -0.5385
  139MOL0     N18647   2.184   1.566   4.105  1.2559  0.1472  0.2652
  139MOL0     C18648   2.279   1.468   4.148  0.1901 -0.4924 -0.6945
  139MOL0     C18649   2.386   1.548   4.181 -0.4102 -0.2081 -0.3525
  139MOL0     C18650   2.520   1.497   4.229 -0.9004 -0.2438  0.1697
  139MOL0     C18651   2.620   1.492   4.105  1.4469  0.7103 -0.7250
  139MOL0     C18652   2.554   1.398   4.005  0.2608 -0.1010 -0.6343
  139MOL0     C18653   2.643   1.400   3.890 -0.1666  0.1933  0.4416
  139MOL0     O18654   2.612   1.497   3.797  0.7147 -0.5900 -0.0253
  139MOL0     C18655   2.497   1.494   3.726 -0.1967  0.3314 -1.3291
  139MOL0     C18656   2.489   1.389   3.631  1.1874 -0.0872 -0.2625
  139MOL0     C18657   2.368   1.366   3.565  1.2213  0.2007 -0.0960
  139MOL0     C18658   2.254   1.452   3.579 -0.2287 -0.2199  0.7888
  139MOL0     C18659   2.121   1.421   3.522 -0.2471 -0.5734  0.0217
  139MOL0     O18660   2.013   1.494   3.563 -0.5540  0.1056 -0.4780
  139MOL0     C18661   1.894   1.455   3.510  0.1226 -0.1545 -0.6511
  139MOL0     C18662   1.792   1.430   3.597 -0.3580 -0.7902 -0.1277
  139MOL0     C18663   1.671   1.379   3.552  0.6760  0.2710  0.6718
  139MOL0     C18664   1.646   1.364   3.414  1.2570  0.4383 -0.9431
  139MOL0     O18665   1.532   1.310   3.363 -1.0472  0.1611  0.6181
  139MOL0     C18666   1.414   1.345   3.429  0.6952 -0.4961 -1.3627
  139MOL0     C18667   1.295   1.320   3.337  0.2975  0.4392 -0.0714
  139MOL0     C18668   1.169   1.328   3.416  0.4570 -0.6616 -0.7089
  139MOL0     C18669   1.055   1.248   3.353  0.1175 -0.4004 -0.3746
  139MOL0     C18670   0.933   1.233   3.442  0.1958  0.1393 -0.4581
  139MOL0     C18671   0.817   1.187   3.356 -0.2104  0.2978 -0.7892
  139MOL0     C18672   0.684   1.164   3.435 -0.8033 -0.3030 -0.4505
  139MOL0     C18673   0.636   1.291   3.488 -0.4407  0.1020  0.5341
  139MOL0    Cl18674   0.600   1.425   3.382  0.0731  0.2003  0.1304
  139MOL0     C18675   1.749   1.388   3.325 -0.6567  0.5659  0.5913
  139MOL0     C18676   1.876   1.427   3.375 -1.1306 -0.0235  0.5517
  139MOL0     O18677   2.118   1.321   3.448  0.9161 -0.2620 -0.6130
  139MOL0     C18678   2.261   1.547   3.684 -0.7554  0.0947 -0.2939
  139MOL0     C18679   2.385   1.567   3.753  0.0727  0.8952 -0.9402
  139MOL0     N18680   2.355   1.678   4.170 -0.4314 -0.2812  1.4791
  139MOL0     N18681   2.230   1.688   4.124 -0.1265  0.3548 -0.1548
  139MOL0     C18682   1.362   0.930   3.717  0.4184  0.3869 -0.0067
  139MOL0     C18683   1.263   0.924   3.623 -1.0997 -0.0975 -0.4274
  139MOL0     C18684   1.036   0.816   3.311 -1.4280  0.3681 -0.3581
  139MOL0     C18685   0.939   0.860   3.406  0.1598  0.8553  0.4682
  139MOL0     C18686   0.810   0.808   3.400  0.4810 -0.7352 -0.3780
  139MOL0     C18687   0.767   0.709   3.312  0.1555 -0.0574 -0.0224
  139MOL0     O18688   0.637   0.655   3.317 -0.0496 -0.0331 -0.5532
  139MOL0     C18689   0.625   0.530   3.247  0.8272  0.9765 -0.0268
  139MOL0     C18690   0.495   0.460   3.293  0.0887 -0.1156 -0.2635
  139MOL0     C18691   0.369   0.547   3.305 -0.0195  0.9244 -0.1800
  139MOL0     C18692   0.358   0.620   3.177  0.5338 -0.7553  0.6926
  139MOL0     C18693   0.233   0.702   3.175  0.2562  0.6839 -1.0007
  139MOL0     C18694   0.131   0.760   3.157 -0.4857  0.4826 -0.3755
  139MOL0     C18695   0.869   0.671   3.222  0.7917 -0.1387  0.4344
  139MOL0     C18696   0.999   0.716   3.214  1.1436  0.0637 -0.9275
  139MOL0     C18697   1.094   0.657   3.108 -0.4971 -0.1924  0.4841
  139MOL0     H18698   1.432   1.032   3.354 -2.0243  1.5181 -0.5021
  139MOL0     H18699   1.627   1.039   3.524  0.8043  0.1717  0.7862
  139MOL0     H18700   1.756   0.879   3.707 -3.8194  0.2758 -1.9066
  139MOL0     H18701   1.749   1.054   3.693  0.7118 -1.0226 -1.5470
  139MOL0     H18702   1.906   1.019   3.844  0.3494 -3.5975 -1.1599
  139MOL0     H18703   1.819   0.908   3.948  0.9596  0.6768  1.3760
  139MOL0     H18704   1.668   1.041   4.021  3.1572 -2.8300  1.5067
  139MOL0     H18705   1.702   1.185   3.924  0.7715 -0.5803 -1.7585
  139MOL0     H18706   1.798   1.194   4.166  1.1125  0.0088 -0.1152
  139MOL0     H18707   1.885   1.061   4.149 -2.2707  0.0540 -0.1448
  139MOL0     H18708   2.010   1.253   4.140  0.3327  0.6369  0.1049
  139MOL0     H18709   2.046   1.148   4.005 -2.5350 -1.7565 -2.4639
  139MOL0     H18710   1.916   1.301   3.849 -1.1187  2.9848 -1.3672
  139MOL0     H18711   1.844   1.376   3.988  0.8949 -0.5225  2.3486
  139MOL0     H18712   2.020   1.523   3.871 -0.9040  0.2730 -0.2497
  139MOL0     H18713   2.138   1.403   3.947  1.9249  2.4603  2.4701
  139MOL0     H18714   1.978   1.617   4.057 -0.1374 -0.4804 -1.5033
  139MOL0     H18715   2.009   1.469   4.167  3.6911 -0.0658  1.6449
  139MOL0     H18716   2.263   1.361   4.153 -2.4306 -0.1333  2.5335
  139MOL0     H18717   2.558   1.582   4.286  0.7427 -1.3492  0.7854
  139MOL0     H18718   2.531   1.405   4.289 -1.3221  0.2389  1.0050
  139MOL0     H18719   2.625   1.591   4.058  0.2604  0.8604 -0.5505
  139MOL0     H18720   2.720   1.457   4.132  1.3950  0.4244 -0.9028
  139MOL0     H18721   2.450   1.421   3.977 -0.5229 -0.2026  1.9086
  139MOL0     H18722   2.544   1.298   4.048  2.5471  0.4251  1.2852
  139MOL0     H18723   2.648   1.298   3.851  0.0422 -0.5860  2.3944
  139MOL0     H18724   2.744   1.429   3.921 -0.5682  0.0571  1.9916
  139MOL0     H18725   2.577   1.330   3.607 -0.9308 -2.9814 -1.4199
  139MOL0     H18726   2.367   1.290   3.487  2.1453 -0.4626  0.5271
  139MOL0     H18727   1.810   1.436   3.704  2.0282 -2.3742 -0.3629
  139MOL0     H18728   1.589   1.344   3.613 -0.6094 -0.0426 -1.1285
  139MOL0     H18729   1.409   1.290   3.524 -0.0137  1.0897 -0.4264
  139MOL0     H18730   1.417   1.451   3.458  2.7089 -0.1735 -2.5467
  139MOL0     H18731   1.290   1.392   3.255 -0.8651 -0.6271 -0.9779
  139MOL0     H18732   1.316   1.222   3.293 -0.0499  1.1094 -1.7814
  139MOL0     H18733   1.188   1.298   3.519 -0.6019 -0.4034 -0.4249
  139MOL0     H18734   1.142   1.433   3.431 -3.1177 -1.8012  2.0551
  139MOL0     H18735   1.087   1.151   3.316  3.8458  1.2910 -2.0575
  139MOL0     H18736   1.013   1.290   3.261 -1.5481  0.3080  0.6526
  139MOL0     H18737   0.907   1.327   3.491  0.4343 -0.2964  0.5407
  139MOL0     H18738   0.947   1.167   3.528  0.2711 -0.0719 -0.6312
  139MOL0     H18739   0.792   1.253   3.272 -0.5449  0.2027 -0.7679
  139MOL0     H18740   0.838   1.087   3.316 -1.3048 -1.3192  2.3889
  139MOL0     H18741   0.669   1.087   3.510  0.1018  0.9307  1.0543
  139MOL0     H18742   0.608   1.130   3.363 -0.5784  0.5335 -1.1029
  139MOL0     H18743   0.539   1.266   3.533 -0.7473 -0.4424 -0.4080
  139MOL0     H18744   0.708   1.331   3.560  2.4810  0.7069 -2.4825
  139MOL0     H18745   1.737   1.343   3.227 -1.1297 -1.1627  1.3948
  139MOL0     H18746   1.960   1.437   3.307 -2.6476  2.2023 -1.1655
  139MOL0     H18747   2.180   1.608   3.722  0.6416  1.0157  1.3535
  139MOL0     H18748   2.401   1.622   3.845  2.3904  0.0971 -0.7798
  139MOL0     H18749   1.347   0.918   3.824 -0.5703  3.7607  0.3597
  139MOL0     H18750   1.165   0.887   3.652 -0.1873 -0.1227  3.0343
  139MOL0     H18751   0.956   0.937   3.481  0.8917 -0.3667  1.6051
  139MOL0     H18752   0.740   0.847   3.473  0.5989  0.1779 -0.7353
  139MOL0     H18753   0.709   0.461   3.263 -0.1420 -1.6461 -4.7095
  139MOL0     H18754   0.609   0.553   3.141 -1.6390 -4.9630 -1.3145
  139MOL0     H18755   0.514   0.414   3.391  2.0381 -0.2845 -0.6953
  139MOL0     H18756   0.470   0.384   3.218 -0.0565 -2.1000  1.6608
  139MOL0     H18757   0.398   0.618   3.382  1.7864  2.4587 -2.1502
  139MOL0     H18758   0.277   0.494   3.333  0.0056  1.1328  0.2997
  139MOL0     H18759   0.437   0.692   3.156 -1.1136  0.7700 -0.6418
  139MOL0     H18760   0.359   0.564   3.083  1.6081  3.1124 -1.8422
  139MOL0     H18761   0.042   0.816   3.174 -0.2357  0.4341  1.2379
  139MOL0     H18762   0.837   0.607   3.141  0.9474  3.4681 -2.7606
  139MOL0     H18763   1.097   0.717   3.016 -1.5035 -1.9396 -0.7518
  139MOL0     H18764   1.196   0.646   3.145 -0.0308 -0.3035 -0.7768
  139MOL0     H18765   1.057   0.559   3.079 -2.8973  0.8396 -0.2105
  140MOL0     O18766   5.886   0.207   7.986  0.2778  0.4388  0.1214
  140MOL0     C18767   5.839   0.195   7.865 -0.7245  0.2790 -0.8889
  140MOL0     O18768   5.901   0.229   7.752 -0.9175  0.0681 -0.5754
  140MOL0     C18769   6.032   0.233   7.757 -0.7587  1.1910  0.4772
  140MOL0     C18770   6.109   0.111   7.756 -0.6463  0.6687 -0.1648
  140MOL0     C18771   6.256   0.122   7.744  0.7646 -0.4863  0.0678
  140MOL0     C18772   6.327   0.240   7.749  0.4007 -1.4007 -0.6221
  140MOL0     O18773   6.467   0.255   7.747 -0.6164  0.8319 -0.1255
  140MOL0     C18774   6.529   0.376   7.704 -0.0242  0.1256  0.8704
  140MOL0     C18775   6.640   0.329   7.602 -0.1230 -0.0863  0.9412
  140MOL0     C18776   6.710   0.458   7.534  0.4212 -0.4710 -0.2960
  140MOL0     C18777   6.851   0.430   7.489 -0.2742  0.0628  0.1481
  140MOL0     C18778   6.917   0.564   7.449 -0.0777 -0.1526 -0.4826
  140MOL0     C18779   7.064   0.553   7.398  0.3126 -0.1189  0.2152
  140MOL0     C18780   7.122   0.695   7.372  0.2460  0.3933 -0.9041
  140MOL0     C18781   7.154   0.717   7.229  1.0653  0.4823  0.1339
  140MOL0     N18782   7.279   0.652   7.207 -0.4699 -0.1376  0.3105
  140MOL0     C18783   7.407   0.694   7.242 -0.1286  0.4069 -0.3430
  140MOL0     C18784   7.496   0.603   7.205 -0.5722 -0.0790  0.1234
  140MOL0     C18785   7.649   0.619   7.213 -0.7142 -0.4874  0.5683
  140MOL0     C18786   7.717   0.696   7.098 -1.2016 -0.0077 -0.1699
  140MOL0     C18787   7.839   0.776   7.139  0.1431  0.2281  0.5893
  140MOL0     C18788   7.957   0.685   7.173 -0.1813  0.4691  0.0152
  140MOL0     O18789   8.045   0.759   7.261  0.1260 -0.1800  0.0852
  140MOL0     C18790   8.179   0.723   7.265 -0.0462 -0.2656 -0.7884
  140MOL0     C18791   8.258   0.750   7.387  0.0715  1.2247  0.4691
  140MOL0     C18792   8.393   0.716   7.388 -1.6525  0.2189 -0.5002
  140MOL0     C18793   8.458   0.662   7.281 -0.2202  0.1010  0.0320
  140MOL0     C18794   8.599   0.628   7.284 -0.2731 -0.2381 -0.0748
  140MOL0     O18795   8.675   0.695   7.375 -0.4645 -0.2601  0.2263
  140MOL0     C18796   8.812   0.678   7.383 -0.2122  0.3727  0.8504
  140MOL0     C18797   8.900   0.601   7.303  0.4407 -0.7697  0.7149
  140MOL0     C18798   9.036   0.614   7.341  0.0075  0.7771  0.0711
  140MOL0     C18799   9.085   0.692   7.443  0.5154 -0.0553  0.3255
  140MOL0     O18800   9.215   0.697   7.481  0.2860  0.2009  0.3249
  140MOL0     C18801   9.317   0.680   7.384 -0.4961 -0.5691 -0.6488
  140MOL0     C18802   9.411   0.804   7.374  0.1754  0.5571  0.1205
  140MOL0     C18803   9.504   0.780   7.260  1.0194 -1.2432 -0.2744
  140MOL0     C18804   9.605   0.900   7.241  0.6690  0.8622 -1.0288
  140MOL0     C18805   9.725   0.907   7.349 -0.1030 -0.2753  0.6460
  140MOL0     C18806   9.824   0.798   7.319  0.6577 -0.1252 -0.3463
  140MOL0     C18807   9.929   0.789   7.422  0.1090  0.0502 -0.3845
  140MOL0     C18808  10.035   0.683   7.405  0.3386 -0.0608 -0.7028
  140MOL0    Cl18809  10.107   0.644   7.563 -0.0692 -0.0512 -0.1592
  140MOL0     C18810   8.998   0.758   7.520 -0.1322  0.2092 -0.7588
  140MOL0     C18811   8.867   0.747   7.490  1.1924  0.4321 -0.2041
  140MOL0     O18812   8.642   0.542   7.212 -0.2694 -0.1707 -0.4306
  140MOL0     C18813   8.379   0.620   7.172 -0.1895 -0.1520  0.5465
  140MOL0     C18814   8.247   0.656   7.166  0.5541 -0.0385  0.4397
  140MOL0     N18815   7.421   0.503   7.150 -0.1570  0.1203 -0.1835
  140MOL0     N18816   7.295   0.522   7.160 -0.0668  0.9077  0.1790
  140MOL0     C18817   6.234   0.356   7.764 -0.3385 -0.5628  0.7183
  140MOL0     C18818   6.096   0.353   7.767  0.6535  0.5570 -0.6840
  140MOL0     C18819   5.709   0.135   7.854  0.5373  0.9911 -0.0248
  140MOL0     C18820   5.675   0.039   7.748 -0.0732 -0.8940 -1.1719
  140MOL0     C18821   5.553  -0.008   7.737 -1.1176 -0.1225  0.1453
  140MOL0     C18822   5.456   0.021   7.824  0.9725  0.4052 -0.4138
  140MOL0     O18823   5.326  -0.037   7.814  0.9295  0.2403 -0.7456
  140MOL0     C18824   5.278  -0.101   7.693 -1.1854 -0.0902  0.6913
  140MOL0     C18825   5.126  -0.134   7.701 -0.1574  0.3802  0.2361
  140MOL0     C18826   5.032  -0.016   7.683  0.7512 -0.4024  0.0464
  140MOL0     C18827   4.888  -0.068   7.711  0.5815 -0.8877 -0.0256
  140MOL0     C18828   4.792   0.041   7.731 -0.3669  0.5265 -0.6283
  140MOL0     C18829   4.730   0.147   7.754 -0.8929  0.3838  0.7781
  140MOL0     C18830   5.482   0.109   7.932  0.1098  0.6266 -0.2453
  140MOL0     C18831   5.603   0.166   7.945 -0.5693 -0.1294 -0.3530
  140MOL0     C18832   5.612   0.288   8.024  0.0741  0.3854 -0.5351
  140MOL0     H18833   6.075   0.008   7.756  2.7729 -0.5930  1.1909
  140MOL0     H18834   6.313   0.030   7.737  0.9362 -0.4276  0.6050
  140MOL0     H18835   6.458   0.454   7.674  0.1894  0.8943  2.3005
  140MOL0     H18836   6.575   0.412   7.796  1.7433 -2.3673  1.0472
  140MOL0     H18837   6.580   0.276   7.527 -2.0722  2.4043  0.5949
  140MOL0     H18838   6.727   0.286   7.652 -0.4953 -1.1627  0.6891
  140MOL0     H18839   6.717   0.539   7.607  0.9617  1.8153 -2.7260
  140MOL0     H18840   6.650   0.484   7.446 -0.6519 -1.1748  0.2106
  140MOL0     H18841   6.910   0.394   7.573 -1.4277 -1.8671  0.1865
  140MOL0     H18842   6.835   0.353   7.413 -1.0964 -0.7185  1.0851
  140MOL0     H18843   6.862   0.612   7.369  1.4364  3.7397  0.6026
  140MOL0     H18844   6.910   0.622   7.542  2.1815 -2.1505  1.0910
  140MOL0     H18845   7.124   0.506   7.476 -1.4844 -2.5964  0.2503
  140MOL0     H18846   7.075   0.492   7.308  0.5309 -0.5095  0.5036
  140MOL0     H18847   7.206   0.717   7.439 -1.1269  2.5030  0.2803
  140MOL0     H18848   7.047   0.774   7.385 -0.7361 -0.2367 -2.5347
  140MOL0     H18849   7.081   0.662   7.170  0.2307  0.1366  1.4580
  140MOL0     H18850   7.150   0.821   7.195 -1.1513 -0.4560 -2.8714
  140MOL0     H18851   7.433   0.792   7.280  0.4283 -0.5469  1.8903
  140MOL0     H18852   7.673   0.662   7.311  1.1986 -2.5601  1.1123
  140MOL0     H18853   7.678   0.514   7.216  4.2136  0.5673 -0.7222
  140MOL0     H18854   7.743   0.638   7.010  0.0491  0.6235 -0.2463
  140MOL0     H18855   7.647   0.769   7.056  2.2712  3.1284 -1.0338
  140MOL0     H18856   7.814   0.839   7.226  0.7190  0.1574  0.8115
  140MOL0     H18857   7.873   0.847   7.063 -0.9374  0.2375  0.1059
  140MOL0     H18858   8.001   0.661   7.076 -1.0406 -1.8120  0.1476
  140MOL0     H18859   7.939   0.587   7.217  2.9992  0.8211  2.5174
  140MOL0     H18860   8.199   0.802   7.462 -0.3824 -0.9612  1.7207
  140MOL0     H18861   8.454   0.726   7.478 -1.0332 -1.5868 -0.6833
  140MOL0     H18862   8.875   0.528   7.227  0.6602  0.3429 -0.4572
  140MOL0     H18863   9.107   0.546   7.294 -0.8572  1.1384 -1.8593
  140MOL0     H18864   9.384   0.597   7.407  1.6469  1.0938 -0.5684
  140MOL0     H18865   9.281   0.656   7.283 -3.3090 -3.3078  0.8220
  140MOL0     H18866   9.346   0.890   7.358  0.5257  0.8624  0.3073
  140MOL0     H18867   9.469   0.820   7.466 -2.6746  0.0198  2.1488
  140MOL0     H18868   9.544   0.678   7.264  1.2847 -1.1245  0.1821
  140MOL0     H18869   9.443   0.777   7.169 -3.8883  2.9066  2.3245
  140MOL0     H18870   9.541   0.987   7.259  2.1620  1.6922  0.5266
  140MOL0     H18871   9.664   0.915   7.150  2.0732  1.5796 -0.0276
  140MOL0     H18872   9.684   0.892   7.449  2.1591  0.5445  1.7627
  140MOL0     H18873   9.766   1.008   7.337 -0.9383 -0.0490 -0.4778
  140MOL0     H18874   9.764   0.706   7.323 -0.4191  0.1180 -5.0427
  140MOL0     H18875   9.864   0.798   7.217  0.4092  0.7469 -0.4460
  140MOL0     H18876   9.878   0.765   7.516 -1.4453  1.3276 -0.8598
  140MOL0     H18877   9.995   0.876   7.415  0.8514 -0.6265 -2.1346
  140MOL0     H18878   9.989   0.593   7.361 -1.7878 -0.6166  2.3082
  140MOL0     H18879  10.102   0.724   7.330  0.8861  0.3741  0.0179
  140MOL0     H18880   9.022   0.817   7.607 -0.2894 -0.8991  0.0564
  140MOL0     H18881   8.786   0.800   7.538 -0.3958 -0.4862 -1.7216
  140MOL0     H18882   8.426   0.557   7.097  1.4067  1.2414  0.3133
  140MOL0     H18883   8.192   0.614   7.083 -0.1976  2.7955 -0.5843
  140MOL0     H18884   6.283   0.452   7.775 -1.0419 -0.3858  2.6594
  140MOL0     H18885   6.024   0.430   7.789 -1.4515 -1.9729  2.1620
  140MOL0     H18886   5.761  -0.000   7.695 -0.2928  0.0156 -2.2236
  140MOL0     H18887   5.559  -0.093   7.669  3.8935  0.9723 -1.2318
  140MOL0     H18888   5.346  -0.186   7.685 -1.9158 -0.6268  0.0617
  140MOL0     H18889   5.286  -0.044   7.600  0.7089 -1.6541 -0.1802
  140MOL0     H18890   5.111  -0.192   7.793 -0.5715 -4.1822 -2.4244
  140MOL0     H18891   5.108  -0.205   7.621  0.3992  1.2177 -0.6487
  140MOL0     H18892   5.043   0.030   7.585  0.0191  1.8896  0.9697
  140MOL0     H18893   5.047   0.066   7.754 -1.2860  3.1345 -3.3010
  140MOL0     H18894   4.856  -0.129   7.626  3.7228  0.1251 -2.1020
  140MOL0     H18895   4.895  -0.114   7.810  0.4713  1.6329  1.2424
  140MOL0     H18896   4.658   0.225   7.767 -0.7046  0.7331 -0.1580
  140MOL0     H18897   5.401   0.127   8.002 -0.5428 -0.1407 -0.7815
  140MOL0     H18898   5.510   0.326   8.040 -0.3782 -0.3342 -1.5923
  140MOL0     H18899   5.660   0.263   8.119 -1.3323  0.8085  0.3348
  140MOL0     H18900   5.673   0.362   7.972  2.0152 -0.7166  0.0642
  141MOL0     O18901   9.692   2.470   4.956  0.7015  0.2752 -0.1381
  141MOL0     C18902   9.614   2.504   5.044 -0.3140  0.3764  0.7796
  141MOL0     O18903   9.572   2.428   5.143 -0.7654  0.2717  0.4208
  141MOL0     C18904   9.623   2.297   5.141 -0.7614 -0.0101 -1.2419
  141MOL0     C18905   9.746   2.275   5.208  0.5645  0.1552 -0.3535
  141MOL0     C18906   9.804   2.150   5.214  0.7896 -0.0560  0.3052
  141MOL0     C18907   9.736   2.045   5.151  0.3039  0.1789  0.7358
  141MOL0     O18908   9.779   1.919   5.150 -0.5356 -0.4322 -0.2689
  141MOL0     C18909   9.906   1.886   5.207  0.3685 -0.3728 -0.4780
  141MOL0     C18910   9.931   1.739   5.183 -0.0072  0.4958  1.2343
  141MOL0     C18911   9.829   1.646   5.252 -0.5465  0.8375  0.2129
  141MOL0     C18912   9.843   1.492   5.215  0.2261  0.0905 -0.3567
  141MOL0     C18913   9.760   1.389   5.297  0.7126 -0.5063 -0.0715
  141MOL0     C18914   9.775   1.391   5.453 -0.1976  0.0897  0.2658
  141MOL0     C18915   9.769   1.247   5.514  0.4811 -0.2995 -0.0686
  141MOL0     C18916   9.751   1.263   5.666 -0.4845  0.3655  0.6702
  141MOL0     N18917   9.671   1.145   5.713  0.7114  0.2154 -0.1954
  141MOL0     C18918   9.718   1.015   5.718 -0.1915 -0.8550 -0.2690
  141MOL0     C18919   9.612   0.945   5.760  0.6079  1.0092 -0.0887
  141MOL0     C18920   9.608   0.795   5.774  0.3908 -0.2962  0.0333
  141MOL0     C18921   9.545   0.709   5.659  0.8728 -0.0649 -0.0973
  141MOL0     C18922   9.636   0.704   5.537 -0.4871  0.3063 -0.0368
  141MOL0     C18923   9.599   0.831   5.442 -0.2596  0.5267  0.1170
  141MOL0     O18924   9.705   0.849   5.346  0.2179  0.6359  0.4687
  141MOL0     C18925   9.693   0.932   5.245 -1.2315 -0.7847  0.3220
  141MOL0     C18926   9.802   0.937   5.156 -0.8032 -0.5664  1.0317
  141MOL0     C18927   9.803   1.037   5.055 -0.0638 -0.0929 -0.7659
  141MOL0     C18928   9.695   1.124   5.036  0.2810  0.3969 -1.3275
  141MOL0     C18929   9.708   1.230   4.944  0.2910  0.1444  0.3148
  141MOL0     O18930   9.629   1.339   4.961 -0.0538  0.9459  1.3810
  141MOL0     C18931   9.651   1.444   4.873 -0.1670  0.0005 -0.4124
  141MOL0     C18932   9.660   1.428   4.734 -0.9756 -0.1661 -0.1625
  141MOL0     C18933   9.690   1.532   4.648 -1.0119 -0.5322  0.6136
  141MOL0     C18934   9.693   1.663   4.692 -0.5456 -0.0598 -0.9692
  141MOL0     O18935   9.710   1.768   4.603 -1.2923  0.4730  0.0019
  141MOL0     C18936   9.733   1.904   4.646 -0.4403  0.1125  0.2332
  141MOL0     C18937   9.872   1.914   4.704  0.2036  0.1761  0.2808
  141MOL0     C18938   9.888   2.032   4.798 -0.0904 -0.1823 -0.1690
  141MOL0     C18939  10.036   2.052   4.824  0.0456 -0.5492 -0.2042
  141MOL0     C18940  10.101   2.149   4.723  0.3716 -0.0830  0.0224
  141MOL0     C18941  10.252   2.163   4.747 -0.8917  0.8811  0.3250
  141MOL0     C18942  10.313   2.263   4.647 -0.5200  0.8333  0.0819
  141MOL0     C18943  10.454   2.310   4.698 -0.7213 -0.3624  0.0863
  141MOL0    Cl18944  10.431   2.445   4.823 -0.0333  0.0626 -0.0706
  141MOL0     C18945   9.664   1.691   4.833 -0.1817 -0.5220  0.2545
  141MOL0     C18946   9.645   1.578   4.916  0.2755 -0.9163 -0.2529
  141MOL0     O18947   9.800   1.223   4.861 -0.0761  0.6977  0.3012
  141MOL0     C18948   9.586   1.109   5.112  0.3214  0.2510 -0.2503
  141MOL0     C18949   9.583   1.020   5.219 -0.5539  0.2007 -0.1818
  141MOL0     N18950   9.503   1.027   5.779  0.5568  0.5601  0.2643
  141MOL0     N18951   9.541   1.153   5.759  0.2828 -0.3742 -0.4669
  141MOL0     C18952   9.620   2.067   5.069 -0.2650  1.1077 -0.2321
  141MOL0     C18953   9.569   2.198   5.066  0.3213 -0.5234  0.2884
  141MOL0     C18954   9.545   2.638   5.049 -1.2168  1.2811  0.0247
  141MOL0     C18955   9.488   2.690   5.163 -0.1600 -0.5416  0.0057
  141MOL0     C18956   9.444   2.816   5.173  0.2912 -0.8984 -0.5550
  141MOL0     C18957   9.429   2.904   5.065  0.3189  0.7839 -0.4224
  141MOL0     O18958   9.382   3.034   5.065 -0.1069 -0.1793  0.1367
  141MOL0     C18959   9.279   3.060   5.157  0.7907  0.3597 -0.8631
  141MOL0     C18960   9.174   3.167   5.102 -0.7512 -0.9327 -0.3521
  141MOL0     C18961   9.119   3.138   4.963  1.0947  1.3014 -0.6625
  141MOL0     C18962   9.059   3.260   4.885  1.0712 -0.7246 -0.7879
  141MOL0     C18963   8.918   3.294   4.928 -0.1981  0.1981  0.5086
  141MOL0     C18964   8.808   3.303   4.973  0.0667 -0.5200 -0.0443
  141MOL0     C18965   9.473   2.846   4.947  0.9156  0.5733 -0.4460
  141MOL0     C18966   9.535   2.718   4.932  0.7072 -0.3025  0.5100
  141MOL0     C18967   9.594   2.695   4.787  0.3171 -0.0511  0.0918
  141MOL0     H18968   9.797   2.347   5.271  1.0470 -0.3664 -0.1307
  141MOL0     H18969   9.901   2.140   5.260  0.9248 -1.2859 -0.2231
  141MOL0     H18970   9.981   1.954   5.165  0.1041  1.1157  1.3687
  141MOL0     H18971   9.908   1.911   5.313  1.6807 -2.6590  0.1079
  141MOL0     H18972  10.026   1.708   5.227  1.5846  3.2530 -0.0336
  141MOL0     H18973   9.926   1.717   5.076 -3.1542 -2.2431  1.7602
  141MOL0     H18974   9.727   1.675   5.225 -1.1259 -0.7693  0.6161
  141MOL0     H18975   9.839   1.679   5.355  0.6196  4.0005 -0.7707
  141MOL0     H18976   9.804   1.482   5.113  5.1355  0.7095 -2.6152
  141MOL0     H18977   9.948   1.461   5.221  0.3884  0.7434  0.3500
  141MOL0     H18978   9.653   1.385   5.274  0.9004  0.8863 -1.3547
  141MOL0     H18979   9.792   1.291   5.262 -0.3143 -1.2374  0.9749
  141MOL0     H18980   9.863   1.448   5.484 -1.1446  1.3961  0.6421
  141MOL0     H18981   9.692   1.449   5.494  0.2778 -0.0665  1.4603
  141MOL0     H18982   9.848   1.178   5.482  0.5368 -1.9662  3.2133
  141MOL0     H18983   9.676   1.214   5.468 -0.1324  0.5315  0.5442
  141MOL0     H18984   9.850   1.263   5.711 -0.9907  0.3443  1.8218
  141MOL0     H18985   9.697   1.351   5.703  2.4285  1.8465  1.6814
  141MOL0     H18986   9.818   0.976   5.703  0.2400 -0.8899  2.3250
  141MOL0     H18987   9.711   0.759   5.780  1.0311 -0.0298 -4.8521
  141MOL0     H18988   9.551   0.774   5.864 -0.7838 -1.4309 -0.9243
  141MOL0     H18989   9.525   0.606   5.690  0.4760 -1.1757 -3.6263
  141MOL0     H18990   9.444   0.740   5.631  0.7658 -0.9147 -0.6841
  141MOL0     H18991   9.614   0.612   5.483 -6.9947  1.5141 -0.3368
  141MOL0     H18992   9.743   0.702   5.556 -0.7773  1.2568  1.9166
  141MOL0     H18993   9.577   0.924   5.495  3.3807  1.2586  0.6208
  141MOL0     H18994   9.510   0.804   5.385 -2.5979 -0.1037  3.7678
  141MOL0     H18995   9.880   0.863   5.171  0.7797  0.7701 -0.1297
  141MOL0     H18996   9.894   1.061   5.000  1.4647 -3.6541 -0.0278
  141MOL0     H18997   9.673   1.334   4.682  0.9027  0.6590 -1.2751
  141MOL0     H18998   9.687   1.510   4.542 -0.0702 -5.8118  1.4158
  141MOL0     H18999   9.726   1.971   4.560  1.0388  0.2489  0.1925
  141MOL0     H19000   9.656   1.950   4.709  0.9175  3.0948 -0.1341
  141MOL0     H19001   9.875   1.826   4.769 -2.6704  1.2714  2.0958
  141MOL0     H19002   9.944   1.909   4.622  3.4504  1.3826  2.8458
  141MOL0     H19003   9.847   2.129   4.769  0.7935  0.2359 -0.0384
  141MOL0     H19004   9.844   2.000   4.893 -1.0798 -2.8616 -1.3987
  141MOL0     H19005  10.093   1.960   4.842  2.0243  0.7767  0.6434
  141MOL0     H19006  10.043   2.103   4.920  2.5013 -1.1283 -0.0202
  141MOL0     H19007  10.052   2.246   4.735 -0.1404 -0.4631  1.2712
  141MOL0     H19008  10.094   2.106   4.623 -0.9135  0.0948  0.0165
  141MOL0     H19009  10.269   2.196   4.850 -2.6331  0.3910  0.7946
  141MOL0     H19010  10.297   2.065   4.727 -1.4780  0.7861 -0.5971
  141MOL0     H19011  10.250   2.352   4.643  0.5213  1.5895  0.2398
  141MOL0     H19012  10.325   2.209   4.552  0.5194 -2.5734  1.9587
  141MOL0     H19013  10.518   2.227   4.730 -0.5454 -0.7288 -1.1593
  141MOL0     H19014  10.519   2.344   4.617 -2.2670 -2.7929 -2.3246
  141MOL0     H19015   9.659   1.790   4.878  1.2257  0.7986 -2.3015
  141MOL0     H19016   9.623   1.595   5.021 -2.3634  2.8258 -1.2271
  141MOL0     H19017   9.497   1.171   5.104 -0.9147 -1.5711 -1.3394
  141MOL0     H19018   9.501   1.005   5.289  1.2527 -3.9505  1.3740
  141MOL0     H19019   9.576   1.976   5.030  0.6011  0.3584  0.5147
  141MOL0     H19020   9.482   2.217   5.003  0.6637  1.1099  0.2534
  141MOL0     H19021   9.494   2.621   5.247  0.4334 -2.4947 -1.5552
  141MOL0     H19022   9.429   2.860   5.272  0.1594  4.2045 -2.5499
  141MOL0     H19023   9.322   3.106   5.246 -0.8462  0.6703 -0.2016
  141MOL0     H19024   9.226   2.970   5.192  2.2476 -1.2296 -2.5613
  141MOL0     H19025   9.233   3.259   5.102  1.1076 -1.9811  2.4737
  141MOL0     H19026   9.093   3.184   5.174 -0.8756 -2.5319 -0.0960
  141MOL0     H19027   9.045   3.058   4.968  0.8909  1.5621  0.7049
  141MOL0     H19028   9.201   3.114   4.894 -0.3919 -1.7008 -1.5796
  141MOL0     H19029   9.114   3.354   4.897 -0.3158  0.1888 -1.2869
  141MOL0     H19030   9.047   3.240   4.778  2.1447  1.4393 -1.3654
  141MOL0     H19031   8.710   3.299   5.017 -1.1305 -2.0546 -2.6136
  141MOL0     H19032   9.468   2.909   4.859  0.9941  1.2105  0.0047
  141MOL0     H19033   9.539   2.751   4.710  0.6534 -0.0216 -0.1283
  141MOL0     H19034   9.697   2.731   4.785  0.3989 -0.2927 -0.0816
  141MOL0     H19035   9.587   2.590   4.757  2.5999 -0.8930  2.1402
  142MOL0     O19036   2.426   3.314   6.882 -0.0989 -0.2233  0.0981
  142MOL0     C19037   2.347   3.366   6.956  0.5698  0.1068 -0.0434
  142MOL0     O19038   2.236   3.424   6.910 -0.6753 -0.2746  0.1018
  142MOL0     C19039   2.206   3.415   6.780 -0.3641  0.7696  0.1721
  142MOL0     C19040   2.223   3.529   6.697 -0.2611  0.3198  0.0944
  142MOL0     C19041   2.177   3.524   6.573  0.2750  0.7574 -0.1525
  142MOL0     C19042   2.110   3.409   6.522 -0.3744  0.2489 -0.0498
  142MOL0     O19043   2.077   3.404   6.385 -0.7096 -0.9563 -0.4192
  142MOL0     C19044   1.983   3.316   6.335  0.9114  0.8216 -0.3127
  142MOL0     C19045   1.849   3.324   6.403 -0.1598  0.5729 -0.3648
  142MOL0     C19046   1.762   3.214   6.347  1.0784  0.1963  0.1398
  142MOL0     C19047   1.625   3.213   6.414 -0.6061 -0.6604  0.3158
  142MOL0     C19048   1.534   3.303   6.335  0.6957 -0.1407  0.1608
  142MOL0     C19049   1.392   3.351   6.383 -0.2868  0.8737 -1.4166
  142MOL0     C19050   1.391   3.411   6.523  0.4583  0.1568  0.8664
  142MOL0     C19051   1.479   3.530   6.543  0.4523 -0.6269  0.0756
  142MOL0     N19052   1.421   3.609   6.653 -0.0374  0.0385  0.4359
  142MOL0     C19053   1.395   3.549   6.769  1.3254  0.0772 -0.6848
  142MOL0     C19054   1.318   3.640   6.836  0.0912  0.5849 -0.4265
  142MOL0     C19055   1.240   3.614   6.966 -1.2825 -0.2153  0.5097
  142MOL0     C19056   1.314   3.664   7.081 -1.0906 -0.5819  0.6249
  142MOL0     C19057   1.341   3.813   7.093  1.5940 -0.3961  1.8629
  142MOL0     C19058   1.225   3.901   7.128 -0.0335 -0.3151  0.5785
  142MOL0     O19059   1.203   3.885   7.264 -0.0893 -1.1648  0.3351
  142MOL0     C19060   1.276   3.954   7.352 -0.5327  0.2769 -0.6532
  142MOL0     C19061   1.395   4.028   7.329 -0.3583 -0.7749 -1.4470
  142MOL0     C19062   1.474   4.081   7.438  0.0427  0.5995 -0.2949
  142MOL0     C19063   1.432   4.064   7.573 -0.5068 -0.6704 -0.1021
  142MOL0     C19064   1.505   4.117   7.685  0.2792 -0.7087  0.7562
  142MOL0     O19065   1.612   4.200   7.662 -0.2967  0.3949  0.0201
  142MOL0     C19066   1.656   4.267   7.773 -1.0537 -0.1811  0.1474
  142MOL0     C19067   1.745   4.203   7.867 -0.2022 -0.2613  0.5807
  142MOL0     C19068   1.812   4.279   7.966  0.0595 -0.1612  0.7982
  142MOL0     C19069   1.807   4.416   7.973  0.0370 -0.4443 -0.5772
  142MOL0     O19070   1.867   4.488   8.071 -0.1597 -0.7142 -0.2775
  142MOL0     C19071   1.951   4.418   8.156  0.0131  0.8759  0.2229
  142MOL0     C19072   2.021   4.499   8.263  0.8098 -0.4529 -0.1075
  142MOL0     C19073   2.015   4.445   8.407  0.2846 -0.0623 -0.6222
  142MOL0     C19074   2.081   4.315   8.408 -0.2891 -0.4977 -0.1344
  142MOL0     C19075   2.058   4.239   8.539  0.5560 -0.2009  0.8078
  142MOL0     C19076   2.101   4.097   8.550 -0.7877  0.0085  0.7997
  142MOL0     C19077   2.084   4.028   8.690 -0.3233  0.2630 -0.8080
  142MOL0     C19078   2.120   4.107   8.809 -0.3007 -0.6732  0.1315
  142MOL0    Cl19079   2.277   4.192   8.783 -0.3749  0.1784  0.4204
  142MOL0     C19080   1.734   4.480   7.870 -0.3992 -0.6848 -0.0781
  142MOL0     C19081   1.660   4.408   7.771  1.5169 -0.2711 -0.4111
  142MOL0     O19082   1.457   4.088   7.797  0.4916 -0.5060  0.1644
  142MOL0     C19083   1.311   3.992   7.587 -0.0960 -0.3406 -0.1899
  142MOL0     C19084   1.241   3.931   7.481  0.4620  0.5367 -0.4499
  142MOL0     N19085   1.290   3.751   6.758 -0.2541  0.1772  0.8291
  142MOL0     N19086   1.358   3.729   6.651 -0.2531  0.3623  0.6623
  142MOL0     C19087   2.093   3.290   6.598 -1.1750  0.2768 -0.3102
  142MOL0     C19088   2.140   3.307   6.732  0.3864 -0.2590  0.1866
  142MOL0     C19089   2.364   3.371   7.106 -0.3749  0.2483 -0.4030
  142MOL0     C19090   2.282   3.460   7.176 -0.4479  0.5028  1.1629
  142MOL0     C19091   2.311   3.492   7.310 -0.4135  0.4396  0.0641
  142MOL0     C19092   2.400   3.422   7.378  0.0194 -0.1529 -0.2855
  142MOL0     O19093   2.420   3.468   7.509 -0.1596 -0.2389  0.6677
  142MOL0     C19094   2.519   3.412   7.603 -0.3930 -0.3859  0.5809
  142MOL0     C19095   2.458   3.309   7.697  0.2732 -0.6572 -0.0278
  142MOL0     C19096   2.534   3.287   7.821  0.3472 -0.3690  0.1526
  142MOL0     C19097   2.491   3.163   7.896  0.0831 -0.8680 -0.0351
  142MOL0     C19098   2.353   3.185   7.952 -0.2627 -0.0285  0.4577
  142MOL0     C19099   2.253   3.219   7.997  0.0154 -0.2573  0.1814
  142MOL0     C19100   2.471   3.317   7.314  0.2026  1.0579  0.7127
  142MOL0     C19101   2.453   3.299   7.176 -0.3500 -1.0469  0.2423
  142MOL0     C19102   2.555   3.219   7.114 -0.0376 -0.5633 -0.4577
  142MOL0     H19103   2.265   3.619   6.741 -1.8310  0.4077  1.5232
  142MOL0     H19104   2.193   3.603   6.500 -2.8748  1.1654 -0.5158
  142MOL0     H19105   1.980   3.338   6.228 -1.9137 -1.2953 -0.7826
  142MOL0     H19106   2.018   3.213   6.343  1.4722  0.8347 -2.1666
  142MOL0     H19107   1.817   3.426   6.384 -3.9113 -0.6186 -1.1829
  142MOL0     H19108   1.860   3.302   6.510 -1.1441  1.6337 -0.0364
  142MOL0     H19109   1.808   3.115   6.361  2.3680  0.4561 -1.8399
  142MOL0     H19110   1.740   3.223   6.240 -6.3104 -1.2933  1.0130
  142MOL0     H19111   1.585   3.111   6.410 -1.0660 -0.6357 -6.2931
  142MOL0     H19112   1.634   3.254   6.515  1.7188  0.1275 -0.1541
  142MOL0     H19113   1.584   3.393   6.298 -1.8336 -0.0021 -3.5644
  142MOL0     H19114   1.508   3.245   6.246 -1.7416  0.2395  0.5322
  142MOL0     H19115   1.364   3.430   6.312  0.1873  1.2000 -1.2483
  142MOL0     H19116   1.326   3.264   6.384  0.7931  0.0064  1.1187
  142MOL0     H19117   1.421   3.324   6.580 -2.4655 -0.6528  1.3421
  142MOL0     H19118   1.287   3.432   6.552 -0.4055 -2.2525 -0.2077
  142MOL0     H19119   1.581   3.493   6.556  0.9355  0.6912  0.1828
  142MOL0     H19120   1.480   3.594   6.454  0.5347 -0.2587  0.3367
  142MOL0     H19121   1.440   3.456   6.804 -2.0450 -1.4488 -0.0181
  142MOL0     H19122   1.146   3.669   6.970 -1.3697 -0.4340  2.5547
  142MOL0     H19123   1.229   3.506   6.975 -2.0385 -0.1364  0.5543
  142MOL0     H19124   1.251   3.634   7.166 -0.8015 -1.7214  0.4475
  142MOL0     H19125   1.412   3.616   7.087  0.0705  1.6534  0.7515
  142MOL0     H19126   1.376   3.848   6.995 -1.5746 -2.4586 -0.1763
  142MOL0     H19127   1.421   3.829   7.166  2.5149 -2.1569  1.2927
  142MOL0     H19128   1.145   3.866   7.062  1.0726  1.3673 -1.8023
  142MOL0     H19129   1.229   4.007   7.100 -1.8091 -0.6384 -1.0991
  142MOL0     H19130   1.437   4.039   7.230  0.8843 -0.1231 -0.8712
  142MOL0     H19131   1.556   4.151   7.428  0.9609 -0.0175  2.3185
  142MOL0     H19132   1.752   4.095   7.861  0.6951 -0.1353 -1.1049
  142MOL0     H19133   1.874   4.226   8.037  1.8447  1.7180  0.7347
  142MOL0     H19134   1.873   4.355   8.200 -1.1181 -0.5272 -3.4328
  142MOL0     H19135   2.028   4.358   8.107  0.4371 -0.3597  2.2543
  142MOL0     H19136   2.124   4.531   8.242 -0.3150  2.0200 -2.3350
  142MOL0     H19137   1.960   4.589   8.269  3.1860  1.2013  0.7627
  142MOL0     H19138   2.063   4.526   8.462 -0.3645  1.0626 -1.6447
  142MOL0     H19139   1.912   4.433   8.443  0.2201 -0.8953 -1.0600
  142MOL0     H19140   2.186   4.346   8.400 -0.3422  0.8167  2.8063
  142MOL0     H19141   2.043   4.254   8.326 -0.3902  0.8358 -1.1161
  142MOL0     H19142   1.952   4.237   8.567 -0.4542 -2.6819 -2.5529
  142MOL0     H19143   2.105   4.311   8.607  0.1500 -0.6812  1.6245
  142MOL0     H19144   2.061   4.028   8.475 -2.5289 -0.9922  2.5511
  142MOL0     H19145   2.208   4.106   8.527 -0.2590 -3.0410  1.6556
  142MOL0     H19146   2.148   3.941   8.702  2.0536  2.2256  2.4614
  142MOL0     H19147   1.980   3.998   8.704  0.0571  0.0910  2.1777
  142MOL0     H19148   2.043   4.183   8.825 -2.2794 -2.8154  1.3778
  142MOL0     H19149   2.127   4.041   8.897 -0.2575 -1.6925 -0.6177
  142MOL0     H19150   1.729   4.588   7.868  1.3774 -0.5482  0.4369
  142MOL0     H19151   1.601   4.454   7.693  0.1547  1.0154  1.2856
  142MOL0     H19152   1.280   3.972   7.689 -1.9377 -0.5163 -0.7573
  142MOL0     H19153   1.156   3.870   7.511  1.4458 -0.9472 -0.5898
  142MOL0     H19154   2.064   3.197   6.549 -0.7501  0.9317 -1.8657
  142MOL0     H19155   2.146   3.219   6.796  1.9157 -2.0558 -2.2557
  142MOL0     H19156   2.210   3.516   7.117 -1.1824 -1.2512  0.2983
  142MOL0     H19157   2.268   3.577   7.364 -3.1401 -1.4363  1.0986
  142MOL0     H19158   2.563   3.490   7.666 -0.4413 -0.1240  0.2953
  142MOL0     H19159   2.604   3.368   7.551 -1.2393 -0.8356 -0.4521
  142MOL0     H19160   2.439   3.219   7.637  1.4718 -1.3233  0.5614
  142MOL0     H19161   2.364   3.360   7.721 -0.4573 -0.7424 -2.4399
  142MOL0     H19162   2.528   3.379   7.879  1.4675 -0.1789 -0.0015
  142MOL0     H19163   2.639   3.263   7.800  0.4418 -0.6292  0.8864
  142MOL0     H19164   2.491   3.071   7.836  1.1451 -1.4196  0.7939
  142MOL0     H19165   2.551   3.164   7.987 -0.1967 -1.9981  0.1799
  142MOL0     H19166   2.160   3.254   8.037  1.1124  3.3751  0.0041
  142MOL0     H19167   2.531   3.248   7.373 -2.0096 -0.8074  0.9372
  142MOL0     H19168   2.631   3.193   7.188 -0.2887 -0.4119 -0.1443
  142MOL0     H19169   2.521   3.126   7.069 -1.5864 -0.2108 -0.0719
  142MOL0     H19170   2.605   3.276   7.034 -3.5317  0.5646 -2.0228
  143MOL0     O19171   8.252   7.355   2.223  0.5328  0.4750 -0.0808
  143MOL0     C19172   8.243   7.391   2.343  0.4137  0.7403  0.7570
  143MOL0     O19173   8.327   7.482   2.396  0.1048 -0.5265 -0.4383
  143MOL0     C19174   8.402   7.545   2.310 -0.1016 -0.7077 -0.3293
  143MOL0     C19175   8.355   7.648   2.225 -0.5167 -0.3490 -1.1230
  143MOL0     C19176   8.430   7.711   2.130 -0.2643  0.3708 -0.2460
  143MOL0     C19177   8.564   7.665   2.101  0.5257  0.0227 -0.4138
  143MOL0     O19178   8.651   7.697   2.000  0.6268  0.0402  0.1085
  143MOL0     C19179   8.582   7.746   1.885  0.3586  0.1330 -0.0338
  143MOL0     C19180   8.687   7.770   1.782 -0.6205 -0.6845  0.4571
  143MOL0     C19181   8.744   7.638   1.726 -0.3825  0.5850 -0.2166
  143MOL0     C19182   8.844   7.563   1.808  0.0017 -0.4708 -0.5006
  143MOL0     C19183   8.938   7.455   1.733  0.3941 -0.1862  0.8039
  143MOL0     C19184   9.058   7.417   1.812  0.3144  0.8369 -0.1146
  143MOL0     C19185   9.167   7.347   1.725 -0.5620 -0.1957 -0.1529
  143MOL0     C19186   9.116   7.204   1.700  0.9812  1.1545 -0.1156
  143MOL0     N19187   9.194   7.115   1.786 -0.3580  0.8869  0.6243
  143MOL0     C19188   9.325   7.067   1.768  0.3195 -0.3195  0.3428
  143MOL0     C19189   9.351   6.981   1.870 -0.6326  0.4638  0.6794
  143MOL0     C19190   9.468   6.893   1.886 -0.5031 -0.2355  1.1689
  143MOL0     C19191   9.574   6.936   1.990 -0.4307  0.0924 -0.0413
  143MOL0     C19192   9.511   6.943   2.128 -0.6376 -0.1016 -0.8662
  143MOL0     C19193   9.618   6.948   2.232  0.2973  1.1034 -0.9901
  143MOL0     O19194   9.704   7.067   2.238 -0.6719 -0.2251 -0.7973
  143MOL0     C19195   9.658   7.176   2.309 -0.2726  0.3028 -0.3057
  143MOL0     C19196   9.521   7.181   2.359 -0.1230  0.7578  0.0837
  143MOL0     C19197   9.494   7.288   2.442  0.3974  0.5229 -0.0423
  143MOL0     C19198   9.579   7.395   2.459 -0.1955 -0.6735  1.1419
  143MOL0     C19199   9.537   7.513   2.542  0.6550 -0.1546 -0.0997
  143MOL0     O19200   9.401   7.519   2.569 -0.8780 -0.0418  0.2889
  143MOL0     C19201   9.346   7.605   2.665 -0.1768  1.1722  0.4804
  143MOL0     C19202   9.329   7.732   2.636 -1.5810 -1.2553  0.9101
  143MOL0     C19203   9.286   7.821   2.726  0.2838  0.1705 -0.5528
  143MOL0     C19204   9.230   7.777   2.849  1.1411 -0.6409 -0.2774
  143MOL0     O19205   9.192   7.873   2.939 -0.4106 -0.1047 -0.0892
  143MOL0     C19206   9.054   7.862   3.000 -0.7166  0.5168  0.2488
  143MOL0     C19207   9.060   7.932   3.140  0.8122 -0.5321  0.2245
  143MOL0     C19208   9.017   8.082   3.124  0.2504  0.1648  0.1585
  143MOL0     C19209   9.147   8.158   3.174 -0.2553 -0.5211 -0.1567
  143MOL0     C19210   9.124   8.313   3.185 -0.4913 -0.0964 -0.6239
  143MOL0     C19211   9.261   8.379   3.241  0.0879 -0.5746  0.1444
  143MOL0     C19212   9.270   8.375   3.392 -0.1169 -0.3712  0.0204
  143MOL0     C19213   9.382   8.461   3.444 -0.0956 -0.2885 -0.1436
  143MOL0    Cl19214   9.535   8.372   3.430  0.1157 -0.0279 -0.4492
  143MOL0     C19215   9.228   7.643   2.877  0.2979 -0.0732  0.3236
  143MOL0     C19216   9.300   7.561   2.787  0.8497 -0.5597  0.2502
  143MOL0     O19217   9.619   7.599   2.565 -0.5075  0.2236  0.2089
  143MOL0     C19218   9.706   7.393   2.395  0.2352 -1.0330  0.2556
  143MOL0     C19219   9.754   7.280   2.331  0.7953  0.5001  1.5306
  143MOL0     N19220   9.249   6.991   1.963 -0.3182 -0.9516  0.7975
  143MOL0     N19221   9.164   7.069   1.908 -0.5692  0.1896  0.0344
  143MOL0     C19222   8.620   7.565   2.184  1.0110  0.3934  0.7357
  143MOL0     C19223   8.532   7.508   2.284  0.4811 -0.3976  0.0733
  143MOL0     C19224   8.162   7.300   2.428  0.5584 -0.8116  0.4032
  143MOL0     C19225   8.136   7.170   2.368  0.1464  0.9346 -0.1690
  143MOL0     C19226   8.076   7.061   2.457 -0.4285  0.0139  0.0701
  143MOL0     C19227   8.035   7.093   2.587 -0.3554  0.1603  0.6090
  143MOL0     O19228   7.954   7.015   2.671 -0.3082 -0.1265 -0.2550
  143MOL0     C19229   7.937   6.880   2.632 -0.4240 -0.2514 -0.7550
  143MOL0     C19230   7.864   6.821   2.741  0.9261  0.3125 -1.4339
  143MOL0     C19231   7.957   6.802   2.863  0.4594 -1.1623 -1.1896
  143MOL0     C19232   7.867   6.772   2.988 -0.7022 -0.2948  0.4811
  143MOL0     C19233   7.759   6.863   3.021  0.0395 -1.2693  0.6737
  143MOL0     C19234   7.649   6.919   3.047  0.2989 -0.7258 -0.1060
  143MOL0     C19235   8.065   7.219   2.634 -0.4608  1.2309 -0.2544
  143MOL0     C19236   8.136   7.319   2.560 -0.5368 -0.8787 -0.9392
  143MOL0     C19237   8.167   7.442   2.634 -0.6427 -0.0770 -0.1928
  143MOL0     H19238   8.254   7.687   2.227  0.0607  1.2585  0.5870
  143MOL0     H19239   8.381   7.793   2.077 -3.3554  1.0464  3.2476
  143MOL0     H19240   8.516   7.662   1.864  2.5426 -0.5673 -6.2105
  143MOL0     H19241   8.514   7.831   1.893  2.1569  1.6616 -0.0075
  143MOL0     H19242   8.764   7.840   1.817 -2.3151  1.8724 -0.6738
  143MOL0     H19243   8.654   7.825   1.694  1.4744 -1.2671 -0.7683
  143MOL0     H19244   8.793   7.668   1.633 -1.3494 -2.4120 -1.8206
  143MOL0     H19245   8.659   7.577   1.695 -0.1096 -0.3931  0.8830
  143MOL0     H19246   8.918   7.635   1.845 -2.6350  1.8737  0.5273
  143MOL0     H19247   8.789   7.531   1.897 -1.0483 -1.3954 -1.4481
  143MOL0     H19248   8.888   7.369   1.687  2.3611 -1.1136  0.2762
  143MOL0     H19249   8.979   7.509   1.647  4.4746 -0.8211  2.1369
  143MOL0     H19250   9.113   7.502   1.852 -2.9060  2.7242  0.6449
  143MOL0     H19251   9.021   7.346   1.887 -2.9382  1.3027 -1.1487
  143MOL0     H19252   9.263   7.351   1.778 -1.0013  0.5931  0.6008
  143MOL0     H19253   9.175   7.408   1.634 -2.6215  0.1703 -0.1343
  143MOL0     H19254   9.007   7.196   1.702  1.0522  0.2919  1.9068
  143MOL0     H19255   9.139   7.178   1.596 -2.8536  2.4687 -1.4742
  143MOL0     H19256   9.379   7.081   1.675  1.6134  2.3143  1.3930
  143MOL0     H19257   9.441   6.798   1.934 -0.6304 -0.9218 -0.2236
  143MOL0     H19258   9.529   6.882   1.796 -0.1223 -2.1074  1.6185
  143MOL0     H19259   9.652   6.859   1.988  1.1838  1.6390  0.6034
  143MOL0     H19260   9.620   7.031   1.962 -0.7190  0.1033 -0.4857
  143MOL0     H19261   9.463   6.846   2.148 -4.4944  1.9922  1.2661
  143MOL0     H19262   9.437   7.020   2.150 -1.1799 -0.2448 -2.1273
  143MOL0     H19263   9.679   6.862   2.204  1.1945  0.2721  2.8531
  143MOL0     H19264   9.576   6.933   2.332  0.0490  1.9591 -0.9622
  143MOL0     H19265   9.445   7.104   2.352  1.5043 -1.1216  1.7565
  143MOL0     H19266   9.394   7.288   2.485  0.3866  0.0148 -0.0643
  143MOL0     H19267   9.373   7.773   2.546 -2.9140  0.8771  1.1672
  143MOL0     H19268   9.284   7.929   2.711 -1.1582  0.3944  0.9615
  143MOL0     H19269   8.976   7.903   2.936  0.1727  0.1248 -1.1285
  143MOL0     H19270   9.038   7.755   3.017 -0.9210  0.5834  0.4943
  143MOL0     H19271   8.983   7.887   3.204 -0.0601 -0.1055 -0.5055
  143MOL0     H19272   9.158   7.909   3.182  0.5343 -1.0587  0.5865
  143MOL0     H19273   9.001   8.122   3.024  0.1832  1.7199  0.7685
  143MOL0     H19274   8.927   8.096   3.185 -0.7740 -0.7490 -1.0736
  143MOL0     H19275   9.238   8.144   3.115  1.3693  1.3325  1.7571
  143MOL0     H19276   9.173   8.124   3.275  2.1643  2.0713  0.2030
  143MOL0     H19277   9.041   8.342   3.250 -2.3391 -2.6065 -1.6785
  143MOL0     H19278   9.103   8.361   3.089 -0.0237  1.7033  0.1327
  143MOL0     H19279   9.344   8.325   3.194  0.3441  0.1531 -0.2554
  143MOL0     H19280   9.274   8.484   3.214 -0.7269 -0.2874  0.8175
  143MOL0     H19281   9.283   8.270   3.420  1.5222 -0.1535  0.1768
  143MOL0     H19282   9.179   8.423   3.429  0.3484  0.4449  0.1525
  143MOL0     H19283   9.390   8.560   3.400  1.8946 -1.5848 -3.0395
  143MOL0     H19284   9.355   8.481   3.548  0.1283  2.0915 -0.4879
  143MOL0     H19285   9.192   7.607   2.973  1.7682 -2.5885  0.0260
  143MOL0     H19286   9.322   7.456   2.800  3.0890 -0.4124 -1.6887
  143MOL0     H19287   9.780   7.472   2.399 -0.4701  0.0963 -3.7147
  143MOL0     H19288   9.859   7.272   2.305  1.3894  2.0544  3.1896
  143MOL0     H19289   8.719   7.530   2.158 -0.0010 -0.9459 -1.6089
  143MOL0     H19290   8.575   7.435   2.352  0.0711 -0.2010  0.5482
  143MOL0     H19291   8.154   7.144   2.264  2.3328  2.7014 -0.3162
  143MOL0     H19292   8.046   6.969   2.407  1.3587  1.7232 -4.7244
  143MOL0     H19293   8.024   6.827   2.593  0.0490  0.4286 -0.6601
  143MOL0     H19294   7.857   6.865   2.559 -0.9983 -4.8236  0.5144
  143MOL0     H19295   7.828   6.723   2.708 -2.0085  1.8511 -3.2048
  143MOL0     H19296   7.792   6.894   2.776  3.3473  2.1417  0.0821
  143MOL0     H19297   8.018   6.891   2.882  0.0217 -0.8318 -1.2949
  143MOL0     H19298   8.023   6.717   2.844 -0.0501 -1.8603  0.0633
  143MOL0     H19299   7.823   6.672   2.978  1.5272 -1.7055  3.3911
  143MOL0     H19300   7.939   6.754   3.068  1.2707 -3.0921 -1.6746
  143MOL0     H19301   7.561   6.956   3.096  1.0469  0.2625  0.5367
  143MOL0     H19302   8.040   7.241   2.737  1.4868  0.7046  0.3519
  143MOL0     H19303   8.139   7.533   2.580  0.9767 -0.5166 -1.8578
  143MOL0     H19304   8.118   7.442   2.732 -4.1503  1.4557 -1.7468
  143MOL0     H19305   8.276   7.448   2.636 -0.4661 -2.0468 -1.5803
  144MOL0     O19306   3.800   7.008   7.057 -0.2110 -0.1071 -0.2229
  144MOL0     C19307   3.868   6.984   6.955  0.5783 -0.1272  0.2313
  144MOL0     O19308   3.944   6.870   6.940 -0.6109 -1.1673  0.9796
  144MOL0     C19309   3.967   6.788   7.047  0.4254 -0.1896 -0.4754
  144MOL0     C19310   3.999   6.831   7.172  0.2987 -0.5703  0.7583
  144MOL0     C19311   4.033   6.749   7.275  0.6497  0.6019 -0.4807
  144MOL0     C19312   4.042   6.611   7.244 -0.0702 -0.6359 -0.5916
  144MOL0     O19313   4.050   6.509   7.340 -0.0701 -0.0286 -0.1256
  144MOL0     C19314   4.142   6.530   7.452 -0.0058  0.4119 -0.6764
  144MOL0     C19315   4.146   6.394   7.508  0.0036  0.2886  0.4839
  144MOL0     C19316   4.247   6.381   7.620 -0.3995 -0.3504  0.5987
  144MOL0     C19317   4.241   6.258   7.702  0.4104  0.7562 -0.0413
  144MOL0     C19318   4.305   6.262   7.837  0.1478 -0.3818 -0.2046
  144MOL0     C19319   4.258   6.371   7.923 -0.3873 -0.3007  0.2306
  144MOL0     C19320   4.297   6.359   8.067  0.0578 -0.1036  0.9449
  144MOL0     C19321   4.265   6.480   8.164 -0.3219 -0.0980  0.4297
  144MOL0     N19322   4.350   6.461   8.283  1.2716 -0.0402 -0.7090
  144MOL0     C19323   4.389   6.339   8.347 -0.1275 -0.1496  0.0280
  144MOL0     C19324   4.479   6.383   8.432 -0.5564 -0.5097 -0.4747
  144MOL0     C19325   4.555   6.285   8.513 -0.0210  0.1356 -1.1569
  144MOL0     C19326   4.561   6.138   8.478  0.1143  0.0134  0.2640
  144MOL0     C19327   4.589   6.049   8.588 -0.1507 -0.0855  0.0787
  144MOL0     C19328   4.613   5.910   8.529 -0.1814  0.1048  1.1145
  144MOL0     O19329   4.632   5.827   8.650 -1.0062 -0.5566  0.6433
  144MOL0     C19330   4.533   5.749   8.698  0.0627  0.0690  0.2797
  144MOL0     C19331   4.542   5.609   8.683  0.2190 -1.4518 -0.1900
  144MOL0     C19332   4.432   5.521   8.713 -0.4295 -0.1976 -0.3196
  144MOL0     C19333   4.314   5.577   8.758 -0.1809  1.2206 -0.0522
  144MOL0     C19334   4.206   5.478   8.785  0.6736  0.2718  0.0436
  144MOL0     O19335   4.091   5.544   8.814 -0.2353 -0.3015 -0.6029
  144MOL0     C19336   3.980   5.481   8.821  0.3911 -0.4597 -0.6413
  144MOL0     C19337   3.907   5.463   8.703 -0.9031  0.0965  0.5540
  144MOL0     C19338   3.794   5.377   8.704 -0.2238  0.5589  0.3709
  144MOL0     C19339   3.746   5.332   8.825  0.9993 -0.1436  0.2406
  144MOL0     O19340   3.644   5.233   8.814  0.5691  0.2949 -0.4296
  144MOL0     C19341   3.610   5.149   8.930  0.1511  0.6931 -0.4311
  144MOL0     C19342   3.512   5.043   8.918  0.4919  0.0538 -0.0989
  144MOL0     C19343   3.375   5.100   8.873  0.0761 -0.5546  0.1386
  144MOL0     C19344   3.328   5.225   8.955  0.0806 -0.8734  0.8552
  144MOL0     C19345   3.188   5.253   8.923  0.2411 -0.5512 -0.2629
  144MOL0     C19346   3.076   5.147   8.941 -0.8189  0.7948 -1.0324
  144MOL0     C19347   2.942   5.216   8.968  0.5322  0.3525  0.7937
  144MOL0     C19348   2.814   5.137   8.944 -0.9032 -0.1708 -0.0983
  144MOL0    Cl19349   2.793   5.127   8.761 -0.1271 -0.6960  0.0236
  144MOL0     C19350   3.804   5.377   8.947  0.8656 -0.2077 -0.2358
  144MOL0     C19351   3.922   5.454   8.946  0.4385  0.3762  0.3308
  144MOL0     O19352   4.220   5.350   8.790 -0.7086 -0.8486  0.5284
  144MOL0     C19353   4.307   5.718   8.784  0.8039 -0.2720 -0.4561
  144MOL0     C19354   4.415   5.804   8.754 -0.7962 -0.5666 -0.4727
  144MOL0     N19355   4.494   6.525   8.420 -0.2045  0.6964  0.1606
  144MOL0     N19356   4.420   6.570   8.333 -0.0012 -0.5919  0.4779
  144MOL0     C19357   4.010   6.567   7.118  0.3150  0.3242 -0.5109
  144MOL0     C19358   3.979   6.651   7.019 -0.2468  0.2015 -1.2384
  144MOL0     C19359   3.839   7.070   6.835 -0.7216 -0.1237  0.9960
  144MOL0     C19360   3.709   7.089   6.795 -0.0082 -0.3991  0.7130
  144MOL0     C19361   3.681   7.158   6.671  0.5721 -0.0739  0.2886
  144MOL0     C19362   3.777   7.200   6.579 -0.8612 -0.7865  0.4163
  144MOL0     O19363   3.745   7.243   6.456  0.1673  0.0711  0.9166
  144MOL0     C19364   3.845   7.325   6.385 -1.4825  0.3777  0.4517
  144MOL0     C19365   3.867   7.468   6.436 -0.0379  1.5387  0.4622
  144MOL0     C19366   3.923   7.569   6.337  0.3542  1.4337  0.8127
  144MOL0     C19367   4.041   7.646   6.399 -0.2771  0.6494 -0.6672
  144MOL0     C19368   4.112   7.712   6.292  0.2681  0.4497 -0.3940
  144MOL0     C19369   4.164   7.774   6.205 -0.5617 -1.5049  0.3537
  144MOL0     C19370   3.909   7.178   6.621  1.8493 -0.3845 -0.2273
  144MOL0     C19371   3.938   7.123   6.752  0.3276 -1.0026  0.6927
  144MOL0     C19372   4.084   7.126   6.793  0.0393 -0.5548 -0.0668
  144MOL0     H19373   3.968   6.933   7.192 -1.4045 -0.8276 -0.3970
  144MOL0     H19374   4.054   6.790   7.373  1.5958 -1.0958  0.0519
  144MOL0     H19375   4.242   6.568   7.427 -0.1864 -0.0721 -2.2948
  144MOL0     H19376   4.094   6.589   7.530 -0.8491 -1.5516  0.3433
  144MOL0     H19377   4.176   6.327   7.427 -2.1374 -0.2570  0.0863
  144MOL0     H19378   4.049   6.352   7.536  0.2262 -1.7758 -1.5944
  144MOL0     H19379   4.234   6.471   7.681  1.6908  0.3886  0.0371
  144MOL0     H19380   4.354   6.385   7.596 -0.8878 -2.4119 -2.4668
  144MOL0     H19381   4.136   6.229   7.712 -0.2315  2.8532 -0.2596
  144MOL0     H19382   4.298   6.185   7.644 -3.2003  0.7649 -4.1038
  144MOL0     H19383   4.286   6.166   7.886  2.5050 -0.7562  0.0931
  144MOL0     H19384   4.411   6.285   7.822  0.0884  0.1453  0.1624
  144MOL0     H19385   4.288   6.470   7.887  0.1226 -0.9907 -1.2976
  144MOL0     H19386   4.149   6.372   7.919 -0.3692  0.1477 -0.2026
  144MOL0     H19387   4.404   6.340   8.058  0.3119  1.6082  0.0502
  144MOL0     H19388   4.255   6.261   8.095  3.3153 -2.0737 -0.4730
  144MOL0     H19389   4.279   6.579   8.118  2.7664  1.4001  4.0155
  144MOL0     H19390   4.159   6.482   8.191 -0.6261  0.7469 -0.7266
  144MOL0     H19391   4.343   6.242   8.336 -1.9359  0.5645  0.8100
  144MOL0     H19392   4.657   6.317   8.538 -0.5435  0.7854  0.2330
  144MOL0     H19393   4.512   6.288   8.614  0.3469  1.5434 -1.0134
  144MOL0     H19394   4.456   6.126   8.447  0.3601  2.4399 -1.8151
  144MOL0     H19395   4.634   6.113   8.401 -1.9775 -0.7484 -1.6125
  144MOL0     H19396   4.504   6.045   8.657  0.7293 -3.9133  1.1869
  144MOL0     H19397   4.682   6.078   8.639 -1.5992 -0.1919  3.0109
  144MOL0     H19398   4.701   5.905   8.464 -0.6657  1.6451  0.2809
  144MOL0     H19399   4.526   5.884   8.467  0.5856  3.3552 -1.6184
  144MOL0     H19400   4.637   5.574   8.645  1.8209  1.6915  0.5704
  144MOL0     H19401   4.427   5.413   8.717 -0.4632 -0.1820  0.1332
  144MOL0     H19402   3.943   5.501   8.607 -0.0488  0.6500  1.0781
  144MOL0     H19403   3.754   5.352   8.606  2.2287 -1.2904 -0.2633
  144MOL0     H19404   3.705   5.113   8.970 -0.4371  0.3579  0.7132
  144MOL0     H19405   3.570   5.222   9.001  1.0109  1.2015 -0.4534
  144MOL0     H19406   3.554   4.990   8.832  1.6703  2.8729 -1.3971
  144MOL0     H19407   3.498   4.977   9.004  0.9762 -0.2093 -0.2189
  144MOL0     H19408   3.385   5.116   8.766  1.1405 -0.1275  0.2847
  144MOL0     H19409   3.302   5.019   8.879 -1.1599  0.4675 -0.6633
  144MOL0     H19410   3.380   5.316   8.924 -2.9239  1.5273  2.3716
  144MOL0     H19411   3.331   5.211   9.064 -2.4772 -0.3106  1.0585
  144MOL0     H19412   3.189   5.282   8.818  0.0649  2.8278  0.5456
  144MOL0     H19413   3.161   5.341   8.982  1.5402 -1.0612  1.1711
  144MOL0     H19414   3.077   5.078   8.856 -1.4108  0.5828 -0.8751
  144MOL0     H19415   3.104   5.084   9.026 -0.1254  1.1504 -0.9898
  144MOL0     H19416   2.933   5.303   8.902 -2.7496  1.1090  2.0789
  144MOL0     H19417   2.943   5.263   9.067  0.3400  1.2507  0.3831
  144MOL0     H19418   2.839   5.040   8.987  1.3364  0.3020 -0.2100
  144MOL0     H19419   2.730   5.184   8.996 -1.0648 -0.4485 -0.1068
  144MOL0     H19420   3.757   5.349   9.041 -3.8614  0.5752 -2.0912
  144MOL0     H19421   3.971   5.473   9.041  3.0770 -0.3329 -0.7880
  144MOL0     H19422   4.211   5.764   8.809  2.2127  2.1892  0.8363
  144MOL0     H19423   4.415   5.909   8.781  1.3263 -1.2870  2.9278
  144MOL0     H19424   4.021   6.459   7.112 -3.0367 -0.1968  0.8409
  144MOL0     H19425   3.953   6.594   6.930 -2.4262 -3.0575  1.2449
  144MOL0     H19426   3.624   7.056   6.853  1.0789 -5.4496 -0.1027
  144MOL0     H19427   3.577   7.176   6.644  0.8767  2.5972  0.5725
  144MOL0     H19428   3.800   7.343   6.287 -2.3756 -2.0065  0.3735
  144MOL0     H19429   3.940   7.272   6.369 -1.1058  0.4029  2.3261
  144MOL0     H19430   3.929   7.468   6.526 -0.3045 -1.9495  0.7602
  144MOL0     H19431   3.772   7.508   6.471  0.0485  1.6459  0.5762
  144MOL0     H19432   3.845   7.643   6.315  0.0384  0.1011 -3.3738
  144MOL0     H19433   3.944   7.516   6.244 -1.8526  0.9006  0.5446
  144MOL0     H19434   4.005   7.724   6.467  2.5514  1.8904 -0.4169
  144MOL0     H19435   4.112   7.576   6.447 -0.7729  0.4005 -0.2862
  144MOL0     H19436   4.209   7.832   6.127 -0.2047 -2.3894 -0.1032
  144MOL0     H19437   3.994   7.218   6.566  0.4399  0.1568 -2.1544
  144MOL0     H19438   4.152   7.187   6.732  2.1392 -3.2062 -0.5728
  144MOL0     H19439   4.093   7.155   6.898  1.6909 -1.0712 -0.0434
  144MOL0     H19440   4.119   7.023   6.791  0.3674 -0.4445  0.0113
  145MOL0     O19441   7.408  10.779   1.214 -0.7645 -0.0802 -0.2836
  145MOL0     C19442   7.422  10.797   1.091 -0.2246 -0.2920 -0.1588
  145MOL0     O19443   7.484  10.712   0.997 -0.1966 -0.3381 -0.3017
  145MOL0     C19444   7.542  10.596   1.031  0.0593 -0.1868  0.1032
  145MOL0     C19445   7.617  10.570   1.146 -0.3568 -0.4226  0.3434
  145MOL0     C19446   7.703  10.456   1.156 -0.2125 -0.2131  0.8460
  145MOL0     C19447   7.704  10.362   1.047  0.5551 -0.1186 -0.2311
  145MOL0     O19448   7.746  10.232   1.051 -0.5688  0.1762  0.1955
  145MOL0     C19449   7.862  10.194   1.131  0.5064  0.1305  0.4465
  145MOL0     C19450   7.884  10.044   1.133  0.4068  0.0098 -0.0184
  145MOL0     C19451   7.960  10.009   1.007  0.4038 -0.1483 -0.1771
  145MOL0     C19452   7.891   9.904   0.924  0.5406 -0.4939  0.6266
  145MOL0     C19453   7.967   9.862   0.797  0.2777 -0.9136  0.3325
  145MOL0     C19454   8.004   9.983   0.694  0.7332 -0.2170  0.3337
  145MOL0     C19455   8.085   9.925   0.568  0.7354  0.6342 -0.8860
  145MOL0     C19456   8.181  10.020   0.494  0.9219 -0.1463 -0.1579
  145MOL0     N19457   8.242   9.950   0.380  0.2329 -0.0132 -0.4382
  145MOL0     C19458   8.176   9.888   0.272  0.1190  1.0776 -0.4750
  145MOL0     C19459   8.288   9.825   0.217  0.2958  0.0620  0.6181
  145MOL0     C19460   8.273   9.745   0.096  0.6346  0.5712 -0.0454
  145MOL0     C19461   8.238   9.827  -0.027  0.1644  0.2651  0.6367
  145MOL0     C19462   8.272   9.754  -0.170  0.2152 -0.2266 -0.0802
  145MOL0     C19463   8.207   9.615  -0.180  0.2694 -0.8237  0.7276
  145MOL0     O19464   8.186   9.577  -0.320  0.4359  0.4443 -0.3686
  145MOL0     C19465   8.078   9.632  -0.395  0.3875  0.8694  0.1694
  145MOL0     C19466   7.984   9.728  -0.358  0.2808 -0.0323  0.1192
  145MOL0     C19467   7.880   9.784  -0.446  0.4841 -0.1309  0.1319
  145MOL0     C19468   7.880   9.743  -0.577 -0.3879  0.5438 -0.7087
  145MOL0     C19469   7.785   9.819  -0.665 -0.6044  0.8910  0.0324
  145MOL0     O19470   7.730   9.935  -0.616  0.5981 -0.1273 -0.0147
  145MOL0     C19471   7.679  10.024  -0.716 -0.5424 -0.8852 -0.5189
  145MOL0     C19472   7.554  10.013  -0.782 -0.8880 -0.4470  0.6935
  145MOL0     C19473   7.520  10.122  -0.872 -0.3913 -1.7437 -0.1455
  145MOL0     C19474   7.598  10.234  -0.883  0.5435 -0.6320 -0.3566
  145MOL0     O19475   7.546  10.336  -0.963  0.2975 -0.4376  0.4584
  145MOL0     C19476   7.614  10.462  -0.976 -0.1878  1.3201  0.1928
  145MOL0     C19477   7.528  10.571  -1.042 -0.7548  0.3466  0.1304
  145MOL0     C19478   7.587  10.714  -1.039 -0.1895  0.4233 -0.2209
  145MOL0     C19479   7.585  10.773  -0.899  0.3251 -0.0378 -0.1131
  145MOL0     C19480   7.584  10.922  -0.904  0.3616  0.0110 -0.2356
  145MOL0     C19481   7.545  10.985  -0.765  0.1956  1.3685  0.1330
  145MOL0     C19482   7.398  10.970  -0.729 -0.0957 -0.3131 -0.0959
  145MOL0     C19483   7.283  11.051  -0.791  0.8285 -0.3192  0.8215
  145MOL0    Cl19484   7.254  11.212  -0.706  0.6086  0.2597  0.2873
  145MOL0     C19485   7.723  10.246  -0.811 -0.7968 -0.5453  0.5810
  145MOL0     C19486   7.756  10.144  -0.722 -0.7283 -0.1327  0.2148
  145MOL0     O19487   7.774   9.774  -0.777  0.4580 -0.0692 -0.2641
  145MOL0     C19488   7.971   9.642  -0.616 -0.9585  0.4379  0.1862
  145MOL0     C19489   8.065   9.591  -0.526 -0.3048 -0.6261  0.2730
  145MOL0     N19490   8.405   9.848   0.285  0.5580 -0.1615  1.2132
  145MOL0     N19491   8.372   9.911   0.393  1.0864 -0.2001  0.7449
  145MOL0     C19492   7.627  10.389   0.931 -1.3780  0.4553  0.8373
  145MOL0     C19493   7.561  10.512   0.918 -0.4801  0.9388  0.1323
  145MOL0     C19494   7.343  10.906   1.025 -1.6586 -0.3079  0.0223
  145MOL0     C19495   7.395  10.940   0.895 -1.2450 -0.6836 -0.2026
  145MOL0     C19496   7.336  11.054   0.833  0.5021 -0.2763  0.7494
  145MOL0     C19497   7.223  11.120   0.864  0.2270  0.6648  0.7837
  145MOL0     O19498   7.162  11.211   0.776 -0.0085  0.8736  0.2341
  145MOL0     C19499   7.046  11.275   0.815  0.0033  0.1246 -0.0723
  145MOL0     C19500   6.961  11.329   0.709  0.1402 -0.6765  0.5817
  145MOL0     C19501   6.835  11.391   0.769  0.4856  0.2077  0.0759
  145MOL0     C19502   6.716  11.380   0.681 -1.3519 -0.3958  1.1106
  145MOL0     C19503   6.610  11.466   0.747  0.8594  0.1320 -0.7009
  145MOL0     C19504   6.516  11.531   0.796 -0.5290 -0.5974 -0.8254
  145MOL0     C19505   7.179  11.088   0.990 -0.5639  0.0447 -0.0133
  145MOL0     C19506   7.231  10.977   1.069  0.6334 -0.1851  0.1486
  145MOL0     C19507   7.156  10.938   1.196  0.1810 -0.0811  0.7656
  145MOL0     H19508   7.618  10.633   1.235  4.2548  1.7796 -0.9500
  145MOL0     H19509   7.763  10.423   1.240  1.8570  1.7022  0.2176
  145MOL0     H19510   7.948  10.246   1.088 -0.8674 -0.6138 -3.6494
  145MOL0     H19511   7.854  10.218   1.238  0.4553 -0.2329  0.5265
  145MOL0     H19512   7.788   9.991   1.144  2.1261 -3.3145  0.2879
  145MOL0     H19513   7.927  10.021   1.230 -1.7914 -1.9799  0.5687
  145MOL0     H19514   8.061   9.973   1.031 -0.5790 -2.1378  1.3491
  145MOL0     H19515   7.979  10.094   0.941 -0.6833  1.4476  1.4668
  145MOL0     H19516   7.868   9.815   0.983  0.1249 -1.6418 -1.1729
  145MOL0     H19517   7.789   9.939   0.906  1.2573  1.5057  0.2799
  145MOL0     H19518   8.061   9.822   0.837  1.3736  2.1314  1.0309
  145MOL0     H19519   7.905   9.790   0.743 -0.6536  1.1082 -1.4535
  145MOL0     H19520   7.915  10.042   0.669  2.0078  2.4281  1.5830
  145MOL0     H19521   8.065  10.056   0.749 -0.3967 -0.3861  1.8595
  145MOL0     H19522   8.005   9.893   0.499  0.8644 -0.7624 -0.4153
  145MOL0     H19523   8.145   9.841   0.604 -1.6888 -1.2999 -1.0148
  145MOL0     H19524   8.127  10.110   0.461  1.5828  0.5149  0.5092
  145MOL0     H19525   8.259  10.051   0.564  2.2197 -2.3003 -0.5705
  145MOL0     H19526   8.074   9.889   0.236 -0.3866 -2.1257  0.4953
  145MOL0     H19527   8.369   9.697   0.079  1.6077  2.3154  0.2959
  145MOL0     H19528   8.192   9.672   0.106 -0.9639  2.0577 -1.4720
  145MOL0     H19529   8.137   9.869  -0.025 -0.2860 -0.4237  6.0070
  145MOL0     H19530   8.310   9.909  -0.035  0.8207 -0.3709 -0.1665
  145MOL0     H19531   8.381   9.749  -0.181  0.3674  2.7283 -0.7795
  145MOL0     H19532   8.235   9.817  -0.252  3.2054 -0.6809 -1.9297
  145MOL0     H19533   8.113   9.615  -0.124 -0.6856 -0.9185 -0.7890
  145MOL0     H19534   8.256   9.537  -0.123 -0.6757 -2.5092 -0.6693
  145MOL0     H19535   7.992   9.778  -0.262 -0.5165 -0.0566  0.2052
  145MOL0     H19536   7.811   9.861  -0.411 -1.0123 -1.3027 -0.1334
  145MOL0     H19537   7.490   9.927  -0.763 -1.3156 -0.0436  1.1173
  145MOL0     H19538   7.427  10.123  -0.929 -1.2004 -0.2573  1.1059
  145MOL0     H19539   7.636  10.507  -0.878  2.2557  0.4833  0.0896
  145MOL0     H19540   7.710  10.456  -1.028 -1.0721  3.0069 -1.7870
  145MOL0     H19541   7.540  10.535  -1.144  3.7472 -0.6973  0.7998
  145MOL0     H19542   7.421  10.573  -1.019 -0.3972 -1.2439  2.2904
  145MOL0     H19543   7.691  10.716  -1.071 -0.4359 -0.2570 -1.1164
  145MOL0     H19544   7.536  10.771  -1.116  1.8052  1.4036 -0.8666
  145MOL0     H19545   7.667  10.723  -0.848 -1.2197 -2.1292  0.4526
  145MOL0     H19546   7.487  10.749  -0.855 -0.6416  1.8092 -1.1248
  145MOL0     H19547   7.518  10.956  -0.983 -0.1931  4.1585  1.7309
  145MOL0     H19548   7.687  10.951  -0.928 -0.2249  4.5906  1.8038
  145MOL0     H19549   7.609  10.938  -0.690  0.6885 -1.8158 -2.0945
  145MOL0     H19550   7.564  11.093  -0.764 -0.6507  1.5386 -0.6330
  145MOL0     H19551   7.400  10.989  -0.622  3.2255  0.1920 -0.1415
  145MOL0     H19552   7.368  10.865  -0.735 -2.1728  0.2052  0.4315
  145MOL0     H19553   7.299  11.063  -0.899  0.2282 -2.8356  0.3787
  145MOL0     H19554   7.184  11.004  -0.792  0.2935  0.6032 -2.6188
  145MOL0     H19555   7.785  10.334  -0.820 -0.2131 -0.4963  3.8370
  145MOL0     H19556   7.844  10.166  -0.662  0.6996 -2.7867 -0.7680
  145MOL0     H19557   7.967   9.599  -0.715  0.7120 -1.8261  0.9929
  145MOL0     H19558   8.143   9.530  -0.571  2.5414  2.4921  0.6083
  145MOL0     H19559   7.620  10.319   0.849 -2.2392 -0.1119  1.3880
  145MOL0     H19560   7.517  10.550   0.826  0.7471  0.2926 -0.7462
  145MOL0     H19561   7.478  10.895   0.841 -2.2391  0.6064 -2.9655
  145MOL0     H19562   7.376  11.060   0.733  4.1674  1.9584  2.1535
  145MOL0     H19563   7.077  11.361   0.875  0.1245  0.9667 -1.3016
  145MOL0     H19564   6.983  11.202   0.867 -0.4959 -1.6424 -2.8975
  145MOL0     H19565   6.936  11.251   0.636  0.0296  0.2756 -0.4223
  145MOL0     H19566   7.010  11.412   0.656  1.3874  1.1573  4.2392
  145MOL0     H19567   6.856  11.498   0.779 -0.6181  0.3110  1.8911
  145MOL0     H19568   6.817  11.347   0.868  1.9236  0.2084  0.3609
  145MOL0     H19569   6.745  11.423   0.584  0.9552 -0.7475  1.5860
  145MOL0     H19570   6.701  11.275   0.657 -2.8687 -0.2349  1.2939
  145MOL0     H19571   6.432  11.590   0.825 -1.2506 -1.6876 -0.6444
  145MOL0     H19572   7.085  11.115   1.037 -1.7471  0.1041 -2.2631
  145MOL0     H19573   7.221  10.946   1.283 -0.1076  1.6496  0.8499
  145MOL0     H19574   7.067  11.001   1.208 -0.2006 -0.8673  2.4374
  145MOL0     H19575   7.128  10.832   1.191 -0.9066  0.2349 -2.9153
  146MOL0     O19576  11.310  10.678  10.597 -0.3741 -0.9752 -0.1991
  146MOL0     C19577  11.390  10.594  10.565 -0.5648 -0.3714 -0.8264
  146MOL0     O19578  11.370  10.457  10.577 -0.1606 -0.6333  0.4166
  146MOL0     C19579  11.257  10.398  10.627 -0.8706 -0.2256  1.0847
  146MOL0     C19580  11.192  10.444  10.734  1.3293  0.2504 -0.3765
  146MOL0     C19581  11.067  10.394  10.781  0.5878  0.4594 -0.5361
  146MOL0     C19582  11.025  10.274  10.720  0.2586 -0.4120 -0.5312
  146MOL0     O19583  10.907  10.220  10.774  0.4967  0.3140 -0.2257
  146MOL0     C19584  10.874  10.084  10.754 -0.7022  0.3684  0.5547
  146MOL0     C19585  10.798  10.060  10.618 -0.2426  0.2352 -1.1578
  146MOL0     C19586  10.712  10.176  10.577 -0.0243  0.3110  0.7372
  146MOL0     C19587  10.616  10.151  10.462 -0.3799 -0.4102  0.0945
  146MOL0     C19588  10.550  10.277  10.422  0.8501 -0.4887  0.6448
  146MOL0     C19589  10.440  10.249  10.319  0.1993 -0.2470  0.2906
  146MOL0     C19590  10.348  10.371  10.281  0.2042  0.2121  1.5328
  146MOL0     C19591  10.220  10.325  10.212  0.3798 -0.0089 -0.1091
  146MOL0     N19592  10.128  10.245  10.293  0.1473  1.0544 -0.2511
  146MOL0     C19593  10.095  10.282  10.415 -0.8170  0.4806  0.0592
  146MOL0     C19594  10.026  10.174  10.475  0.0533  0.0518 -0.1193
  146MOL0     C19595   9.959  10.164  10.600 -0.1107 -0.1794  0.2678
  146MOL0     C19596  10.056  10.157  10.719  1.0435 -0.2434  0.1033
  146MOL0     C19597   9.989  10.197  10.853  0.8758  0.1925 -1.1721
  146MOL0     C19598  10.084  10.187  10.973 -0.6975  0.0505 -0.4085
  146MOL0     O19599  10.003  10.177  11.097 -0.8938  0.6982  0.7333
  146MOL0     C19600  10.060  10.099  11.187  0.6188  0.9601 -0.1041
  146MOL0     C19601   9.978   9.987  11.236  0.5621  0.3566 -0.4317
  146MOL0     C19602  10.037   9.908  11.336 -0.5450 -0.8395  0.4405
  146MOL0     C19603  10.160   9.938  11.396 -0.0197  0.0588 -0.9210
  146MOL0     C19604  10.197   9.867  11.519  0.1066  0.6862 -0.3921
  146MOL0     O19605  10.129   9.754  11.559 -1.6341 -0.1634 -0.0571
  146MOL0     C19606  10.143   9.692  11.680 -1.4148 -0.2733  0.1496
  146MOL0     C19607  10.085   9.566  11.676 -0.1684  0.3965  0.4595
  146MOL0     C19608  10.087   9.487  11.796  0.0964 -0.2695  0.1201
  146MOL0     C19609  10.140   9.546  11.919  0.7102  1.0756  1.0776
  146MOL0     O19610  10.127   9.465  12.022  0.3085  0.4118 -0.9458
  146MOL0     C19611  10.159   9.512  12.154 -0.6030 -0.3324 -0.4196
  146MOL0     C19612  10.160   9.394  12.254  0.5686  0.3120 -0.5327
  146MOL0     C19613  10.180   9.427  12.405  0.2677 -0.3314 -0.8392
  146MOL0     C19614  10.056   9.505  12.461 -0.7763 -0.2708  0.1932
  146MOL0     C19615  10.072   9.534  12.613 -0.8939 -0.1103 -0.0075
  146MOL0     C19616  10.075   9.406  12.690  0.8976  0.1209 -0.0482
  146MOL0     C19617  10.060   9.437  12.838 -0.1196 -0.1242  0.0738
  146MOL0     C19618   9.911   9.430  12.885  0.5901 -0.5719 -0.3971
  146MOL0    Cl19619   9.912   9.519  13.037 -0.3140  0.1690 -0.2487
  146MOL0     C19620  10.191   9.674  11.916 -0.6298  0.8877  0.7736
  146MOL0     C19621  10.201   9.747  11.801  0.4065 -0.0137  1.2426
  146MOL0     O19622  10.291   9.924  11.581 -0.4980  0.9202  0.2474
  146MOL0     C19623  10.227  10.044  11.341 -0.4352 -0.1029  0.8008
  146MOL0     C19624  10.184  10.120  11.234 -0.3601 -0.0694  0.7953
  146MOL0     N19625  10.046  10.072  10.390  0.1143 -0.1265 -0.4044
  146MOL0     N19626  10.104  10.116  10.275 -0.0186  0.7071 -0.0586
  146MOL0     C19627  11.103  10.220  10.622 -1.5806 -0.4036  0.1327
  146MOL0     C19628  11.221  10.286  10.577  0.7826  0.4092  0.0475
  146MOL0     C19629  11.527  10.639  10.529 -0.0113 -0.0629  0.8504
  146MOL0     C19630  11.554  10.654  10.386 -0.8250  1.4704 -0.4748
  146MOL0     C19631  11.678  10.672  10.344 -0.8459 -0.7357 -0.6235
  146MOL0     C19632  11.771  10.728  10.438  0.8886 -0.3935 -0.7944
  146MOL0     O19633  11.884  10.776  10.376  0.1233 -0.1182 -0.0587
  146MOL0     C19634  12.005  10.770  10.444 -0.4571 -0.1642 -0.0073
  146MOL0     C19635  12.049  10.624  10.493 -0.2560 -0.4297 -0.7575
  146MOL0     C19636  12.195  10.615  10.566  1.0285  0.5855  0.2045
  146MOL0     C19637  12.307  10.686  10.485 -0.7620 -0.3056  0.4496
  146MOL0     C19638  12.439  10.682  10.549  0.8773 -0.5432 -0.0233
  146MOL0     C19639  12.548  10.668  10.605 -0.0970 -0.2651 -0.5778
  146MOL0     C19640  11.746  10.710  10.575  1.1466 -0.3733  0.0672
  146MOL0     C19641  11.624  10.670  10.623 -1.0576  0.0550  0.4437
  146MOL0     C19642  11.606  10.654  10.770  0.6051  0.3355  0.4317
  146MOL0     H19643  11.245  10.517  10.794 -2.8572 -0.8615  5.4934
  146MOL0     H19644  11.005  10.422  10.865 -0.4314  0.3195 -1.2335
  146MOL0     H19645  10.965  10.026  10.773 -1.9896 -1.4770  1.4217
  146MOL0     H19646  10.805  10.050  10.831  0.6831 -0.9834  1.2634
  146MOL0     H19647  10.733   9.974  10.634 -0.9920  1.3311  2.6643
  146MOL0     H19648  10.883  10.040  10.551  1.4855  1.7523  0.4521
  146MOL0     H19649  10.782  10.253  10.543  0.5314 -1.9198 -3.9516
  146MOL0     H19650  10.654  10.199  10.667  1.2115 -2.9245  2.4927
  146MOL0     H19651  10.674  10.107  10.380  2.1995  1.6360  0.6996
  146MOL0     H19652  10.548  10.071  10.494  1.1084 -1.2973  1.2081
  146MOL0     H19653  10.503  10.327  10.507 -1.6119 -1.4000 -0.1161
  146MOL0     H19654  10.622  10.350  10.384 -1.3196  1.4333  0.0150
  146MOL0     H19655  10.466  10.184  10.234 -2.5744 -1.0752 -0.0108
  146MOL0     H19656  10.367  10.181  10.364 -2.6454  1.7923 -0.9577
  146MOL0     H19657  10.406  10.434  10.213 -2.4369 -0.5353 -1.6874
  146MOL0     H19658  10.318  10.432  10.367 -2.2549 -0.9861  1.6160
  146MOL0     H19659  10.151  10.405  10.183  0.7312  0.8203  1.2756
  146MOL0     H19660  10.239  10.285  10.111 -1.0013  0.8962 -0.7625
  146MOL0     H19661  10.107  10.378  10.462 -0.2720 -0.0936  1.1378
  146MOL0     H19662   9.901  10.256  10.607  1.8115  1.3141 -1.9910
  146MOL0     H19663   9.887  10.082  10.595 -1.2260  0.7126  1.1598
  146MOL0     H19664  10.092  10.055  10.729  0.5988 -0.2411  2.1172
  146MOL0     H19665  10.141  10.224  10.705 -0.0922  1.3284  0.3905
  146MOL0     H19666   9.900  10.135  10.868  0.5399  1.3773  3.1235
  146MOL0     H19667   9.959  10.300  10.831 -1.1101 -0.4703 -1.8646
  146MOL0     H19668  10.144  10.277  10.960  2.8332 -2.0075  0.3454
  146MOL0     H19669  10.150  10.102  10.954 -0.2189  0.8473 -2.6820
  146MOL0     H19670   9.882   9.958  11.194  2.0744 -0.9486 -3.2296
  146MOL0     H19671   9.976   9.826  11.372 -3.0942 -0.1457 -1.9409
  146MOL0     H19672  10.060   9.528  11.578  2.2575  3.6550 -1.5951
  146MOL0     H19673  10.049   9.386  11.792 -0.5113 -0.0557 -4.4167
  146MOL0     H19674  10.258   9.556  12.143 -0.9765  0.1036 -2.4661
  146MOL0     H19675  10.091   9.594  12.177  1.6017  1.5166 -0.1794
  146MOL0     H19676  10.060   9.356  12.229  1.1722 -0.6806 -1.5178
  146MOL0     H19677  10.236   9.321  12.228 -0.2867 -0.5651 -0.6442
  146MOL0     H19678  10.187   9.328  12.452  1.6470  0.4148  0.6156
  146MOL0     H19679  10.281   9.466  12.421  1.2572 -2.0165 -2.4684
  146MOL0     H19680   9.963   9.450  12.441 -1.0866 -0.7616  2.7327
  146MOL0     H19681  10.035   9.597  12.405  1.5226  1.1388  1.5097
  146MOL0     H19682  10.002   9.610  12.649  1.4365  2.7860 -1.1325
  146MOL0     H19683  10.176   9.566  12.628 -0.5664 -1.5832  1.1756
  146MOL0     H19684   9.994   9.337  12.664  1.2495 -1.8102  3.3669
  146MOL0     H19685  10.164   9.344  12.676  0.3128 -0.9359  0.7701
  146MOL0     H19686  10.086   9.541  12.858  0.6411 -0.7408  2.8511
  146MOL0     H19687  10.117   9.375  12.908 -2.0265 -0.5847  1.3016
  146MOL0     H19688   9.838   9.475  12.817 -2.3367 -0.2345  2.7074
  146MOL0     H19689   9.887   9.326  12.910 -0.3767  0.4987  3.9595
  146MOL0     H19690  10.226   9.709  12.012  2.5049 -0.3948  0.2270
  146MOL0     H19691  10.240   9.848  11.808 -2.0485  1.2156 -1.1412
  146MOL0     H19692  10.316  10.089  11.384 -0.4365  1.9772 -1.1244
  146MOL0     H19693  10.251  10.196  11.195  0.5648 -1.4762 -0.4507
  146MOL0     H19694  11.062  10.135  10.568  0.8904 -1.7966  0.3457
  146MOL0     H19695  11.250  10.241  10.483 -2.2592  0.5581 -1.0755
  146MOL0     H19696  11.482  10.628  10.309  1.8189  0.9089 -2.9529
  146MOL0     H19697  11.699  10.659  10.238  3.2054 -2.8867  0.2488
  146MOL0     H19698  11.999  10.836  10.531  0.9334 -1.3083  1.0039
  146MOL0     H19699  12.074  10.814  10.371  0.6290 -2.0302 -0.1689
  146MOL0     H19700  12.042  10.562  10.403 -2.3820 -1.2344 -0.1085
  146MOL0     H19701  11.988  10.581  10.574  1.2359  0.8021  1.1013
  146MOL0     H19702  12.230  10.512  10.579 -0.7563 -0.0087  0.5106
  146MOL0     H19703  12.180  10.659  10.665 -0.4037  0.5864  0.0069
  146MOL0     H19704  12.292  10.651  10.382  2.7070 -0.8412  0.0066
  146MOL0     H19705  12.285  10.792  10.466  2.6854  0.1538 -1.9529
  146MOL0     H19706  12.636  10.646  10.661 -0.7790 -0.3259  0.4864
  146MOL0     H19707  11.817  10.751  10.645 -0.1229  2.6909 -0.2626
  146MOL0     H19708  11.699  10.640  10.826  1.6791  0.5618 -1.2195
  146MOL0     H19709  11.550  10.742  10.802  1.0765  1.6765 -2.1415
  146MOL0     H19710  11.553  10.559  10.785  1.0655 -0.0541 -0.3100
  147MOL0     O19711   2.860   4.968   7.061  0.0640 -0.3792 -0.0670
  147MOL0     C19712   2.792   5.064   7.085  0.6413 -0.2509  0.6807
  147MOL0     O19713   2.737   5.153   6.996  0.0588  0.1920  0.4693
  147MOL0     C19714   2.763   5.129   6.865  1.1676  0.2476  0.3890
  147MOL0     C19715   2.807   5.234   6.793 -0.2552 -0.2247 -0.4586
  147MOL0     C19716   2.843   5.233   6.655  0.9950  0.1841  0.6130
  147MOL0     C19717   2.805   5.110   6.586  0.7730  1.0888  0.4128
  147MOL0     O19718   2.818   5.080   6.454 -0.0566  0.0974 -0.1138
  147MOL0     C19719   2.886   5.179   6.366  0.2720  0.5634 -0.1022
  147MOL0     C19720   2.867   5.143   6.219  0.6038 -0.8430 -0.9687
  147MOL0     C19721   2.929   5.005   6.191  0.1799 -0.0296  0.2798
  147MOL0     C19722   2.922   4.973   6.030 -0.8209  0.5924 -0.6234
  147MOL0     C19723   2.976   4.833   5.991 -0.1046  0.4550  0.0058
  147MOL0     C19724   2.894   4.715   6.042 -0.5513  0.5292  0.0062
  147MOL0     C19725   2.993   4.599   6.052  0.2889  1.3508  0.1018
  147MOL0     C19726   2.916   4.467   6.071 -0.5797 -0.2310  0.6851
  147MOL0     N19727   3.002   4.359   6.107  0.4620  0.1619 -0.5032
  147MOL0     C19728   2.970   4.231   6.075 -0.0172 -0.8985 -1.1369
  147MOL0     C19729   3.067   4.149   6.118  0.4395 -1.0091  0.1472
  147MOL0     C19730   3.043   3.998   6.117  0.4812  0.0312 -0.3332
  147MOL0     C19731   2.906   3.970   6.183 -0.8702 -0.3753  0.7579
  147MOL0     C19732   2.890   3.819   6.158  0.7237  0.2447 -0.5687
  147MOL0     C19733   2.923   3.736   6.283 -1.1591  0.1916  0.6283
  147MOL0     O19734   2.899   3.596   6.256  0.5737  0.7952 -0.0189
  147MOL0     C19735   2.897   3.507   6.360  0.6974  0.0978 -0.5376
  147MOL0     C19736   2.873   3.552   6.494  1.6929  0.7278 -0.0888
  147MOL0     C19737   2.878   3.459   6.597 -0.2154  0.1711  0.0642
  147MOL0     C19738   2.930   3.328   6.577  0.3414  0.1213 -0.9539
  147MOL0     C19739   2.946   3.237   6.691 -0.4296  0.4520  0.2886
  147MOL0     O19740   2.955   3.301   6.811  0.0210  0.0091 -0.2158
  147MOL0     C19741   2.939   3.239   6.934 -0.2937 -0.4308  0.1535
  147MOL0     C19742   2.979   3.325   7.038  0.0584 -0.0006 -0.8403
  147MOL0     C19743   2.974   3.281   7.170 -0.2760 -0.5648 -1.0869
  147MOL0     C19744   2.930   3.158   7.203  0.3149 -0.5589 -0.2700
  147MOL0     O19745   2.925   3.104   7.326 -0.4395  0.4396 -1.1229
  147MOL0     C19746   2.987   3.176   7.434  0.2734  0.2641 -0.3590
  147MOL0     C19747   2.994   3.091   7.565  0.8381 -0.3512 -0.0815
  147MOL0     C19748   2.868   2.995   7.577  0.4391  0.1755  0.2048
  147MOL0     C19749   2.882   2.891   7.690  0.1599 -0.3197  0.2741
  147MOL0     C19750   2.786   2.777   7.667  0.3503  0.2453  0.1470
  147MOL0     C19751   2.825   2.661   7.769 -0.0946 -0.3398  0.3255
  147MOL0     C19752   2.711   2.564   7.803 -0.3708  0.4158  0.5092
  147MOL0     C19753   2.660   2.508   7.665  0.5331  0.4085  0.7588
  147MOL0    Cl19754   2.774   2.434   7.563 -0.3371  0.2362  0.1504
  147MOL0     C19755   2.899   3.077   7.100  0.7113  0.1628  0.3827
  147MOL0     C19756   2.890   3.114   6.968 -0.6596 -0.3434 -0.0661
  147MOL0     O19757   2.950   3.118   6.677 -0.2187  0.5729 -0.7743
  147MOL0     C19758   2.974   3.296   6.450 -0.3225  0.2867 -0.3377
  147MOL0     C19759   2.953   3.378   6.342 -0.7521  0.0439 -0.6077
  147MOL0     N19760   3.158   4.233   6.179 -0.3064  0.0427 -0.2013
  147MOL0     N19761   3.123   4.357   6.158 -0.6939  0.0548 -0.0763
  147MOL0     C19762   2.744   5.000   6.658 -0.3598 -0.6672  0.3161
  147MOL0     C19763   2.729   5.012   6.794 -0.2991  0.7077  0.4541
  147MOL0     C19764   2.767   5.096   7.223 -0.4866  0.3994 -0.2759
  147MOL0     C19765   2.856   5.182   7.281 -0.3774 -0.3443  0.2137
  147MOL0     C19766   2.855   5.223   7.414  0.4807  0.0240 -1.3230
  147MOL0     C19767   2.755   5.155   7.498 -0.8322  0.3891 -0.0699
  147MOL0     O19768   2.734   5.162   7.629 -0.1611 -0.6590 -0.1355
  147MOL0     C19769   2.838   5.162   7.727 -0.2488 -0.1855 -0.3296
  147MOL0     C19770   2.759   5.167   7.860  0.1523  0.5835  0.4521
  147MOL0     C19771   2.649   5.051   7.865 -0.4116 -0.2384  0.6051
  147MOL0     C19772   2.717   4.918   7.869  0.7390 -0.2171 -0.1577
  147MOL0     C19773   2.608   4.830   7.907  0.4652 -0.1071 -0.1333
  147MOL0     C19774   2.514   4.760   7.929  0.0895 -0.5386 -0.2394
  147MOL0     C19775   2.662   5.070   7.438  0.1624 -0.0904  0.6712
  147MOL0     C19776   2.665   5.042   7.299 -0.0171 -0.7110 -0.4721
  147MOL0     C19777   2.583   4.931   7.240 -0.7166 -0.0801 -0.4692
  147MOL0     H19778   2.827   5.331   6.838  0.6348 -1.2825  1.5732
  147MOL0     H19779   2.885   5.318   6.602 -0.6915  0.9927  0.5336
  147MOL0     H19780   2.847   5.281   6.373  0.8056  1.0253 -2.8489
  147MOL0     H19781   2.988   5.185   6.404  0.2363 -3.4510  1.1072
  147MOL0     H19782   2.907   5.219   6.151 -1.5721  0.7765 -0.5437
  147MOL0     H19783   2.759   5.136   6.201  0.1121  1.3136  0.6927
  147MOL0     H19784   2.889   4.935   6.264 -2.0450  0.5784 -0.2916
  147MOL0     H19785   3.036   5.009   6.212 -0.3634 -1.7881  4.1540
  147MOL0     H19786   2.819   4.972   5.993 -0.0715  1.8142 -2.9173
  147MOL0     H19787   2.970   5.049   5.968  2.1975 -0.0123  0.8144
  147MOL0     H19788   2.961   4.822   5.883 -2.5130  4.0698 -0.1891
  147MOL0     H19789   3.082   4.816   6.014 -0.7877 -1.4227  2.1022
  147MOL0     H19790   2.854   4.743   6.140 -1.4606  1.9969 -0.7413
  147MOL0     H19791   2.814   4.687   5.972  1.4651 -0.7872 -1.8824
  147MOL0     H19792   3.059   4.629   6.134  3.4465  3.9571 -3.0491
  147MOL0     H19793   3.060   4.594   5.966  2.2715 -1.5600  1.6317
  147MOL0     H19794   2.837   4.474   6.145  0.9678 -3.0166  2.7931
  147MOL0     H19795   2.867   4.433   5.979  0.7667  0.7807 -0.4688
  147MOL0     H19796   2.879   4.210   6.019 -0.0879  0.4453 -1.5469
  147MOL0     H19797   3.032   3.958   6.015 -1.9627  3.3173 -1.5310
  147MOL0     H19798   3.122   3.949   6.175  0.5697  0.4188 -0.1266
  147MOL0     H19799   2.918   3.997   6.288 -1.0668  0.5837  0.5394
  147MOL0     H19800   2.817   4.016   6.139  0.3456  0.1554 -1.2741
  147MOL0     H19801   2.958   3.778   6.083 -1.4835  2.7007 -4.2693
  147MOL0     H19802   2.788   3.787   6.136  1.3416 -0.3021 -2.9554
  147MOL0     H19803   2.863   3.772   6.367  0.5056  0.7147  1.6414
  147MOL0     H19804   3.031   3.743   6.299 -0.4944 -0.5014 -2.7790
  147MOL0     H19805   2.821   3.646   6.506 -2.7091 -1.0771 -2.3815
  147MOL0     H19806   2.847   3.469   6.700 -1.8208 -1.8511 -0.1617
  147MOL0     H19807   3.017   3.425   7.018 -1.1283  0.6651  0.0793
  147MOL0     H19808   3.001   3.352   7.248 -0.3210 -0.2199 -1.3844
  147MOL0     H19809   3.092   3.196   7.408  0.2167  1.5872  0.3483
  147MOL0     H19810   2.924   3.265   7.443 -1.2423 -0.9974  3.2868
  147MOL0     H19811   3.089   3.037   7.561  1.6734  1.0700  0.2300
  147MOL0     H19812   2.992   3.147   7.658  0.9407 -1.9124  0.8918
  147MOL0     H19813   2.770   3.042   7.573  0.8035  1.0557  1.2763
  147MOL0     H19814   2.864   2.933   7.486 -3.9870 -1.5719  1.3408
  147MOL0     H19815   2.855   2.950   7.779  4.3916  0.7787  1.0172
  147MOL0     H19816   2.983   2.849   7.695  1.5395  2.4068 -2.1759
  147MOL0     H19817   2.782   2.733   7.567  0.3058 -4.1828  1.8551
  147MOL0     H19818   2.685   2.817   7.682  0.5065  0.8498 -0.3498
  147MOL0     H19819   2.908   2.604   7.725 -1.5209 -2.0231 -0.2960
  147MOL0     H19820   2.872   2.703   7.859 -0.2120  0.9452 -0.1904
  147MOL0     H19821   2.634   2.631   7.841 -2.2700 -0.7211 -1.0700
  147MOL0     H19822   2.750   2.486   7.869 -0.3822 -2.1756 -2.2849
  147MOL0     H19823   2.579   2.441   7.695  0.4179 -0.4062 -1.2214
  147MOL0     H19824   2.617   2.588   7.604 -0.5541 -1.7230 -1.4238
  147MOL0     H19825   2.890   2.971   7.119 -1.9804  0.3341  0.5684
  147MOL0     H19826   2.868   3.044   6.888  0.2750  3.1717 -3.7286
  147MOL0     H19827   3.028   3.204   6.432  2.5506  1.8063  0.0043
  147MOL0     H19828   2.983   3.330   6.250  1.2411 -0.9278  0.4796
  147MOL0     H19829   2.725   4.914   6.595  2.2337  0.3028 -1.9998
  147MOL0     H19830   2.667   4.935   6.838 -2.5923  0.2788 -3.0946
  147MOL0     H19831   2.935   5.226   7.221 -0.3119  0.0647  0.5909
  147MOL0     H19832   2.920   5.297   7.459 -1.5608  0.8140  0.4698
  147MOL0     H19833   2.917   5.236   7.711  1.4360 -1.9430 -0.5488
  147MOL0     H19834   2.902   5.073   7.725 -0.8640 -0.6591  0.5294
  147MOL0     H19835   2.727   5.272   7.858  0.2721  0.6176  0.0333
  147MOL0     H19836   2.818   5.165   7.952  1.0432 -3.1477 -0.0749
  147MOL0     H19837   2.578   5.063   7.783  0.7992 -1.3383 -0.6822
  147MOL0     H19838   2.593   5.063   7.958 -1.9683  1.8106 -0.5133
  147MOL0     H19839   2.768   4.893   7.775  0.6814 -3.2210  0.5205
  147MOL0     H19840   2.796   4.910   7.944 -1.6664 -1.7331  2.4015
  147MOL0     H19841   2.428   4.697   7.940 -0.2638 -0.2872 -1.4404
  147MOL0     H19842   2.590   5.023   7.505 -0.4910  0.8320  0.6334
  147MOL0     H19843   2.534   4.960   7.147 -2.8206  0.7409  0.8010
  147MOL0     H19844   2.644   4.841   7.231 -1.5944 -0.4933 -2.9856
  147MOL0     H19845   2.509   4.889   7.309 -1.1541  0.0306 -0.8664
  148MOL0     O19846   2.870   4.506   9.102 -0.0112  0.9007  0.0634
  148MOL0     C19847   2.801   4.600   9.141 -0.7429 -1.1831 -0.1315
  148MOL0     O19848   2.859   4.722   9.196  0.3153 -0.6260 -0.1942
  148MOL0     C19849   2.995   4.753   9.224  0.4633  0.6350 -0.2180
  148MOL0     C19850   3.007   4.828   9.341  0.0393  0.7695 -0.8680
  148MOL0     C19851   3.137   4.859   9.386  0.6248 -0.6144 -0.5827
  148MOL0     C19852   3.257   4.823   9.319 -0.5042  0.3500 -0.8233
  148MOL0     O19853   3.385   4.874   9.339 -0.9430  1.0309 -0.2003
  148MOL0     C19854   3.421   4.923   9.473 -0.1426  1.0777  0.3604
  148MOL0     C19855   3.385   5.068   9.481 -0.0916  0.1423  0.5636
  148MOL0     C19856   3.474   5.163   9.390 -0.2442 -0.2596 -0.4575
  148MOL0     C19857   3.438   5.314   9.418  0.1790 -0.4907 -0.5911
  148MOL0     C19858   3.516   5.401   9.320 -0.5200 -0.2842 -0.2363
  148MOL0     C19859   3.458   5.547   9.294  0.0745  0.1724 -0.0945
  148MOL0     C19860   3.501   5.609   9.160 -0.6681 -0.6108  0.9052
  148MOL0     C19861   3.637   5.694   9.177 -0.1561 -0.2974  0.0850
  148MOL0     N19862   3.598   5.813   9.263 -0.3870  0.1416 -1.6119
  148MOL0     C19863   3.669   5.863   9.373 -0.1706  0.4683  0.2081
  148MOL0     C19864   3.592   5.954   9.435  0.6892  0.2740  0.4251
  148MOL0     C19865   3.613   6.029   9.566  0.6561  0.0872  0.2061
  148MOL0     C19866   3.582   6.182   9.552 -0.0595  0.5300 -0.1623
  148MOL0     C19867   3.672   6.240   9.446  0.3888 -0.2245  0.1798
  148MOL0     C19868   3.622   6.368   9.377  0.2288 -0.0536 -0.0743
  148MOL0     O19869   3.624   6.479   9.469  0.8381  0.8880 -0.4988
  148MOL0     C19870   3.555   6.589   9.427 -0.1252 -0.0486  0.2837
  148MOL0     C19871   3.571   6.706   9.508 -0.2228  0.1733 -0.0721
  148MOL0     C19872   3.516   6.827   9.472 -0.3367  0.8296  1.1422
  148MOL0     C19873   3.447   6.849   9.346 -0.0761  0.1892 -0.5257
  148MOL0     C19874   3.398   6.972   9.300  0.7190  0.3790 -0.4083
  148MOL0     O19875   3.367   6.974   9.170  0.6444 -1.0533  0.6198
  148MOL0     C19876   3.298   7.083   9.097  0.8827  0.7741  0.4089
  148MOL0     C19877   3.211   7.161   9.168 -0.4505 -0.5229  0.3843
  148MOL0     C19878   3.140   7.262   9.099 -0.8945 -0.0295  0.2855
  148MOL0     C19879   3.130   7.263   8.953  0.5771 -0.2630  0.7219
  148MOL0     O19880   3.048   7.346   8.888  0.0076 -0.0512  0.0145
  148MOL0     C19881   2.915   7.312   8.930 -0.0367 -0.4057 -0.3296
  148MOL0     C19882   2.819   7.383   8.838 -0.3801  0.6836 -1.4409
  148MOL0     C19883   2.683   7.329   8.849  0.6788  0.6435 -0.6151
  148MOL0     C19884   2.607   7.377   8.965  0.1381 -0.7011 -0.2667
  148MOL0     C19885   2.469   7.311   8.981  0.0789 -0.3833  1.0692
  148MOL0     C19886   2.471   7.161   9.017 -0.2771 -0.3541 -0.4607
  148MOL0     C19887   2.344   7.108   9.080 -0.2503 -0.4487 -0.3386
  148MOL0     C19888   2.313   7.162   9.210 -0.3185 -0.2918 -0.4495
  148MOL0    Cl19889   2.450   7.132   9.334 -0.3521  0.3766  0.0770
  148MOL0     C19890   3.218   7.169   8.881  0.2115 -0.5538  0.0737
  148MOL0     C19891   3.303   7.088   8.958  0.2759  0.0103  0.1488
  148MOL0     O19892   3.373   7.055   9.386  0.8783 -0.5127  0.3274
  148MOL0     C19893   3.450   6.742   9.256  0.1944 -0.2298 -0.5576
  148MOL0     C19894   3.498   6.615   9.298 -0.0656  0.1693  0.4368
  148MOL0     N19895   3.489   5.982   9.349  0.6794 -0.2291  0.4158
  148MOL0     N19896   3.503   5.900   9.239 -0.4954  0.3417 -0.5507
  148MOL0     C19897   3.239   4.752   9.204  1.4505  0.3786 -0.9110
  148MOL0     C19898   3.104   4.714   9.156 -0.2356  0.2338 -1.0113
  148MOL0     C19899   2.659   4.585   9.145  0.4566 -0.4136  0.8545
  148MOL0     C19900   2.601   4.474   9.076  0.3259 -0.6304 -0.6032
  148MOL0     C19901   2.467   4.451   9.065  0.6123 -0.3487 -0.4977
  148MOL0     C19902   2.377   4.533   9.138 -0.1440 -0.0400  0.0975
  148MOL0     O19903   2.237   4.536   9.145  0.1145  0.8082 -0.7363
  148MOL0     C19904   2.175   4.440   9.071  0.3256  0.1844  0.1412
  148MOL0     C19905   2.125   4.508   8.938 -0.0779 -0.8598  0.5611
  148MOL0     C19906   2.012   4.609   8.973 -0.3672  0.5540 -0.8211
  148MOL0     C19907   1.956   4.681   8.859 -0.4348 -1.0484  0.7962
  148MOL0     C19908   1.914   4.819   8.890 -0.4411  0.5893  0.0793
  148MOL0     C19909   1.861   4.927   8.904  0.9309  0.7325  0.9943
  148MOL0     C19910   2.431   4.634   9.210 -0.4372  0.1915 -0.8095
  148MOL0     C19911   2.570   4.672   9.212  0.3524  1.2627 -0.6059
  148MOL0     C19912   2.605   4.799   9.283  0.1312 -0.1952 -0.5893
  148MOL0     H19913   2.919   4.870   9.390  2.0650  2.3649  1.6682
  148MOL0     H19914   3.148   4.928   9.469 -0.7231 -3.5944  2.2922
  148MOL0     H19915   3.384   4.878   9.565  2.6040 -1.8428  0.2451
  148MOL0     H19916   3.530   4.910   9.481 -0.5134 -1.7145  2.1522
  148MOL0     H19917   3.393   5.098   9.586 -1.8260  0.1296  0.7337
  148MOL0     H19918   3.283   5.090   9.447  0.4381  1.7182 -0.1408
  148MOL0     H19919   3.443   5.147   9.286  1.0736  2.3570 -1.3382
  148MOL0     H19920   3.579   5.139   9.408 -0.9985 -0.9820  4.2463
  148MOL0     H19921   3.332   5.338   9.406  0.0193  0.4425  2.0566
  148MOL0     H19922   3.468   5.353   9.516 -2.7175 -2.7306  1.3573
  148MOL0     H19923   3.617   5.419   9.358 -0.5648  0.1571 -0.3217
  148MOL0     H19924   3.534   5.353   9.223  3.8168  0.9552 -0.2567
  148MOL0     H19925   3.350   5.550   9.307 -0.3649 -1.9509 -2.4267
  148MOL0     H19926   3.492   5.611   9.376  1.5670 -1.7099  0.8340
  148MOL0     H19927   3.428   5.675   9.113 -0.5780 -1.4582 -0.4958
  148MOL0     H19928   3.518   5.524   9.093 -3.1316 -3.7321  3.8604
  148MOL0     H19929   3.710   5.634   9.232 -1.3076 -2.2976 -0.4702
  148MOL0     H19930   3.691   5.731   9.089  0.7206 -0.5469  0.5050
  148MOL0     H19931   3.768   5.831   9.404  1.9355  5.2378 -0.5791
  148MOL0     H19932   3.546   5.989   9.643 -0.8684  1.7184 -0.2050
  148MOL0     H19933   3.713   6.009   9.606  0.6603 -0.1635  0.0669
  148MOL0     H19934   3.476   6.199   9.535  0.3559  2.6965 -0.9426
  148MOL0     H19935   3.615   6.223   9.648 -0.5723  1.2551 -0.2895
  148MOL0     H19936   3.690   6.171   9.364 -1.0155 -0.5520  0.1196
  148MOL0     H19937   3.764   6.257   9.502 -1.2789 -0.5018  3.2826
  148MOL0     H19938   3.521   6.357   9.336 -2.0462  1.3913  4.4483
  148MOL0     H19939   3.687   6.402   9.296 -1.1798  1.4424 -0.6247
  148MOL0     H19940   3.623   6.714   9.602  1.4551 -0.7986 -0.8680
  148MOL0     H19941   3.538   6.918   9.528 -0.2633  0.0732  2.3683
  148MOL0     H19942   3.185   7.146   9.272 -0.8837  0.1337  0.3845
  148MOL0     H19943   3.089   7.330   9.166  1.0645 -1.5157  3.5112
  148MOL0     H19944   2.898   7.204   8.921  0.2436 -0.4703 -0.0911
  148MOL0     H19945   2.891   7.332   9.035 -0.4375 -2.5922  0.0548
  148MOL0     H19946   2.808   7.486   8.873  0.0402  0.6615 -1.2420
  148MOL0     H19947   2.854   7.385   8.734  0.5878 -1.5323 -1.2110
  148MOL0     H19948   2.627   7.340   8.756  0.1824 -1.8641 -0.6702
  148MOL0     H19949   2.699   7.221   8.853 -2.3309  0.0824 -1.4288
  148MOL0     H19950   2.595   7.486   8.958  0.5780 -0.3999  2.7085
  148MOL0     H19951   2.667   7.348   9.051 -3.4152 -1.4220  2.1919
  148MOL0     H19952   2.406   7.327   8.893  1.5160 -0.8414 -0.0962
  148MOL0     H19953   2.409   7.374   9.047 -0.0849 -1.2460  1.7470
  148MOL0     H19954   2.492   7.105   8.925 -0.3524  1.5088 -1.6603
  148MOL0     H19955   2.556   7.145   9.084  1.2206 -3.0725 -2.7577
  148MOL0     H19956   2.369   7.002   9.095  3.4409  0.3467  0.2072
  148MOL0     H19957   2.260   7.132   9.015 -0.2316 -1.5186 -0.7766
  148MOL0     H19958   2.296   7.270   9.210 -0.7074 -0.3416 -1.5573
  148MOL0     H19959   2.223   7.110   9.244  1.9716 -3.3324  1.5219
  148MOL0     H19960   3.219   7.164   8.773 -3.1616  0.6320 -0.1307
  148MOL0     H19961   3.360   7.013   8.903 -0.4848 -0.1529 -0.4262
  148MOL0     H19962   3.401   6.761   9.161  1.1410  6.1408 -0.1984
  148MOL0     H19963   3.501   6.543   9.217  0.5139  2.2709 -1.4632
  148MOL0     H19964   3.331   4.739   9.147  1.5043  1.4243 -1.0861
  148MOL0     H19965   3.089   4.667   9.059 -1.1954  0.0104 -0.7606
  148MOL0     H19966   2.665   4.403   9.024  0.3006  0.6140 -2.4182
  148MOL0     H19967   2.426   4.362   9.019 -2.0137 -2.6685  5.3240
  148MOL0     H19968   2.090   4.392   9.120 -0.6555  1.0696 -0.6509
  148MOL0     H19969   2.233   4.352   9.041  3.8075  1.9953  1.0785
  148MOL0     H19970   2.081   4.426   8.880 -2.2860  2.4129 -2.8083
  148MOL0     H19971   2.206   4.568   8.895  0.0865  0.5808  2.7153
  148MOL0     H19972   2.030   4.682   9.053  2.1970  1.1458 -1.8584
  148MOL0     H19973   1.932   4.553   9.022 -1.2284  2.7952  0.5035
  148MOL0     H19974   2.035   4.702   8.786 -0.6139 -1.5108  0.4633
  148MOL0     H19975   1.884   4.623   8.800  0.2757 -2.5828  1.3885
  148MOL0     H19976   1.833   5.030   8.914  0.0613  0.4171  2.0698
  148MOL0     H19977   2.354   4.684   9.268  0.5538 -0.9132  1.6194
  148MOL0     H19978   2.625   4.876   9.208  0.1576  1.5028  1.0897
  148MOL0     H19979   2.527   4.830   9.353  0.9698  2.9543 -0.8850
  148MOL0     H19980   2.696   4.795   9.343 -0.9991  2.0367  1.4840
  149MOL0     O19981   5.741  11.180   0.252  0.4980  0.0493  0.2009
  149MOL0     C19982   5.860  11.193   0.219 -0.4336 -0.0612 -0.5358
  149MOL0     O19983   5.967  11.185   0.304  0.2567  0.1293 -0.1960
  149MOL0     C19984   5.924  11.174   0.435  0.0028 -0.1552 -0.2524
  149MOL0     C19985   5.946  11.276   0.524 -0.4217 -0.8782 -0.2773
  149MOL0     C19986   5.890  11.270   0.657  0.3250 -0.0377 -0.1436
  149MOL0     C19987   5.820  11.158   0.698 -0.6229  0.1031  0.5926
  149MOL0     O19988   5.778  11.157   0.829 -0.3414  0.4439  0.0033
  149MOL0     C19989   5.642  11.163   0.849  0.4560 -0.5237  0.8953
  149MOL0     C19990   5.618  11.209   1.003  0.2120  0.3011  1.0577
  149MOL0     C19991   5.475  11.209   1.035  0.8542  0.2459  0.6509
  149MOL0     C19992   5.437  11.191   1.180  0.4647 -0.4970 -1.4621
  149MOL0     C19993   5.422  11.328   1.259  0.1920  0.9515 -0.5545
  149MOL0     C19994   5.556  11.372   1.313 -0.1419  0.3546  0.2175
  149MOL0     C19995   5.565  11.481   1.413  0.3288 -0.0014  0.9557
  149MOL0     C19996   5.528  11.447   1.556  0.2002  0.1583 -0.3561
  149MOL0     N19997   5.648  11.416   1.631 -0.1224 -0.0781 -1.1944
  149MOL0     C19998   5.729  11.501   1.711  0.6721  0.6599  0.9680
  149MOL0     C19999   5.798  11.412   1.789 -0.2742 -0.5783 -0.3156
  149MOL0     C20000   5.885  11.460   1.899  0.7097 -0.0228 -0.6115
  149MOL0     C20001   5.807  11.444   2.033 -0.3319 -0.6121  0.0146
  149MOL0     C20002   5.727  11.577   2.063 -0.2526  0.2499 -0.2654
  149MOL0     C20003   5.585  11.588   2.006 -0.2324 -0.1616 -0.3352
  149MOL0     O20004   5.508  11.506   2.095 -0.1410  0.4535 -0.4770
  149MOL0     C20005   5.382  11.467   2.058  0.1730  0.3602 -0.2152
  149MOL0     C20006   5.304  11.532   1.958 -0.4836  0.6285  1.2589
  149MOL0     C20007   5.178  11.488   1.921 -0.5902  0.1524 -0.0433
  149MOL0     C20008   5.115  11.379   1.992 -0.9053 -0.2423 -0.5260
  149MOL0     C20009   4.978  11.334   1.971  0.8911 -0.6424  0.6585
  149MOL0     O20010   4.916  11.268   2.066 -0.3588  0.1866  0.8420
  149MOL0     C20011   4.777  11.237   2.068 -1.0010  0.0687 -0.0045
  149MOL0     C20012   4.687  11.322   2.011  0.4146 -0.2784  0.1690
  149MOL0     C20013   4.553  11.294   2.021 -0.8481  0.0022  0.2637
  149MOL0     C20014   4.502  11.184   2.096  0.3808  0.2170  0.4183
  149MOL0     O20015   4.366  11.179   2.119  0.7493  0.6567 -0.3300
  149MOL0     C20016   4.282  11.225   2.019 -0.4623  0.4684  0.1085
  149MOL0     C20017   4.135  11.196   2.062  0.7099 -0.2605 -0.2313
  149MOL0     C20018   4.031  11.224   1.940  0.4580  0.1029 -0.6167
  149MOL0     C20019   3.891  11.242   2.009 -0.2934 -0.7821 -0.4361
  149MOL0     C20020   3.874  11.354   2.102 -0.0724 -0.2901  0.7451
  149MOL0     C20021   3.725  11.404   2.098  0.2303 -0.1883  0.0142
  149MOL0     C20022   3.679  11.471   2.231  0.5513  0.2018  0.7616
  149MOL0     C20023   3.753  11.611   2.261 -0.1476 -0.3169  0.9680
  149MOL0    Cl20024   3.674  11.728   2.147 -0.0014 -0.1132 -0.3939
  149MOL0     C20025   4.599  11.102   2.157 -0.8075 -0.2872  0.7383
  149MOL0     C20026   4.733  11.126   2.140 -0.4017 -0.0238 -0.0854
  149MOL0     O20027   4.935  11.374   1.858  0.8526  0.5341 -0.3561
  149MOL0     C20028   5.190  11.326   2.093  0.8105 -0.3400  0.0655
  149MOL0     C20029   5.321  11.363   2.128  0.0304 -0.6039  0.3073
  149MOL0     N20030   5.762  11.281   1.761  0.1520 -0.1032  0.8235
  149MOL0     N20031   5.670  11.290   1.673 -1.6251  0.8556  0.1782
  149MOL0     C20032   5.819  11.041   0.618  0.9734  0.0296  0.2637
  149MOL0     C20033   5.859  11.056   0.485 -0.5184 -0.8520 -0.2051
  149MOL0     C20034   5.893  11.186   0.074  1.1261 -1.6223 -0.2396
  149MOL0     C20035   5.792  11.174  -0.022 -0.1469 -0.4715 -1.5494
  149MOL0     C20036   5.814  11.163  -0.160  0.4684 -0.9037 -1.0232
  149MOL0     C20037   5.944  11.155  -0.206 -0.1877  0.3385  0.1800
  149MOL0     O20038   5.979  11.148  -0.336 -0.4034 -0.0821 -0.1935
  149MOL0     C20039   5.872  11.144  -0.429 -0.1177  0.2333  0.6443
  149MOL0     C20040   5.902  11.145  -0.585 -0.7333  0.1675  0.9050
  149MOL0     C20041   5.785  11.153  -0.692  0.6262 -0.1248 -0.0460
  149MOL0     C20042   5.691  11.270  -0.668 -0.2994  0.5536  0.5193
  149MOL0     C20043   5.596  11.285  -0.774  0.7188  0.0917 -0.9191
  149MOL0     C20044   5.551  11.332  -0.874 -0.0286  0.2700  0.5540
  149MOL0     C20045   6.052  11.171  -0.112 -0.2801 -0.2826  0.6274
  149MOL0     C20046   6.026  11.192   0.024 -0.7071 -0.5295  0.9058
  149MOL0     C20047   6.157  11.190   0.112  0.5869 -0.1339 -0.3395
  149MOL0     H20048   6.003  11.360   0.486 -1.9962  0.0146 -0.7994
  149MOL0     H20049   5.919  11.345   0.730  0.1943 -0.2078  0.0827
  149MOL0     H20050   5.589  11.234   0.785  0.9646 -1.7882 -1.0262
  149MOL0     H20051   5.611  11.060   0.831  3.2922 -0.9540 -2.6210
  149MOL0     H20052   5.661  11.308   1.020  2.2609 -0.7022  2.0125
  149MOL0     H20053   5.670  11.141   1.070  1.6158 -1.4228 -1.5792
  149MOL0     H20054   5.437  11.121   0.982  1.2018 -2.1220  4.0029
  149MOL0     H20055   5.431  11.292   0.980  0.8327 -0.9650 -1.2445
  149MOL0     H20056   5.341  11.140   1.187  0.3810 -0.0683  1.8929
  149MOL0     H20057   5.516  11.128   1.220  0.7974 -1.2823 -3.2753
  149MOL0     H20058   5.375  11.403   1.195 -2.0552 -0.0098 -0.1302
  149MOL0     H20059   5.356  11.323   1.346  1.2673  1.8463  0.3294
  149MOL0     H20060   5.609  11.290   1.362 -0.4043  0.8122  1.3245
  149MOL0     H20061   5.621  11.402   1.231  0.4955 -0.7806  0.2883
  149MOL0     H20062   5.502  11.559   1.369  0.1867 -0.1780  0.8455
  149MOL0     H20063   5.663  11.529   1.416  1.2986 -1.8519  3.9890
  149MOL0     H20064   5.491  11.538   1.603 -0.3047 -0.5509  0.6581
  149MOL0     H20065   5.446  11.374   1.563  1.1352 -0.7363  1.9190
  149MOL0     H20066   5.728  11.609   1.719 -1.0714  0.8931 -1.3827
  149MOL0     H20067   5.971  11.392   1.893 -0.6408 -1.7238 -1.8110
  149MOL0     H20068   5.922  11.559   1.869  1.0245 -1.1822 -4.6570
  149MOL0     H20069   5.739  11.359   2.029 -1.1756  0.0834 -3.7361
  149MOL0     H20070   5.885  11.426   2.107  0.8644 -0.1712 -1.1051
  149MOL0     H20071   5.792  11.662   2.037  0.1240  1.3132  3.6084
  149MOL0     H20072   5.716  11.583   2.171 -0.9851  1.9014 -0.4002
  149MOL0     H20073   5.584  11.526   1.917 -2.7992  0.1250 -0.5988
  149MOL0     H20074   5.536  11.684   1.986 -2.4768 -1.6554 -2.5825
  149MOL0     H20075   5.351  11.612   1.903 -0.0372 -0.4932 -0.0444
  149MOL0     H20076   5.128  11.545   1.844  0.3697  2.2297  0.8028
  149MOL0     H20077   4.715  11.419   1.973  2.9749 -0.6348  0.9447
  149MOL0     H20078   4.486  11.362   1.969 -0.6702 -0.4202 -0.5367
  149MOL0     H20079   4.278  11.334   2.011 -2.6948  0.6493  2.3762
  149MOL0     H20080   4.306  11.185   1.920  0.3957 -2.5664  1.4020
  149MOL0     H20081   4.114  11.095   2.099  0.8052 -1.0657 -2.2461
  149MOL0     H20082   4.111  11.277   2.131  0.8623 -1.4109  1.2159
  149MOL0     H20083   4.053  11.322   1.897  1.1628 -0.3505 -1.3253
  149MOL0     H20084   4.021  11.146   1.864  1.3763 -0.4969 -0.1444
  149MOL0     H20085   3.860  11.153   2.065 -5.0280  1.5387  1.1744
  149MOL0     H20086   3.816  11.252   1.931 -1.9639 -2.7038  0.8007
  149MOL0     H20087   3.939  11.436   2.069 -1.3406 -0.3714 -2.2971
  149MOL0     H20088   3.901  11.321   2.203 -0.0150 -1.0057  0.5004
  149MOL0     H20089   3.722  11.461   2.005  1.4809 -0.7728 -0.4017
  149MOL0     H20090   3.652  11.322   2.097 -4.4665  3.5721 -0.1189
  149MOL0     H20091   3.685  11.406   2.318 -0.6364  0.3059  0.9394
  149MOL0     H20092   3.577  11.503   2.210  0.7505 -0.1589 -0.8932
  149MOL0     H20093   3.739  11.652   2.362  0.8986  4.0559 -0.4498
  149MOL0     H20094   3.862  11.614   2.252 -0.3176  1.3865 -1.5036
  149MOL0     H20095   4.557  11.025   2.222 -1.0841  0.7894  1.8815
  149MOL0     H20096   4.811  11.072   2.194  1.7748  1.2905 -1.7455
  149MOL0     H20097   5.147  11.261   2.168  0.2771  1.0105  0.9778
  149MOL0     H20098   5.357  11.309   2.215 -1.5051 -0.6440  0.9623
  149MOL0     H20099   5.784  10.945   0.654  1.7481 -0.7006 -0.9029
  149MOL0     H20100   5.841  10.975   0.416 -1.3497 -0.0078 -1.0148
  149MOL0     H20101   5.690  11.157   0.013  0.4440 -0.8266  0.0881
  149MOL0     H20102   5.727  11.166  -0.226  0.5353 -1.0302 -1.1175
  149MOL0     H20103   5.832  11.245  -0.420  2.2209  1.1899  0.9423
  149MOL0     H20104   5.791  11.073  -0.411 -0.9826  1.0920  0.1987
  149MOL0     H20105   5.961  11.055  -0.604  1.0058  0.6026  3.6933
  149MOL0     H20106   5.968  11.230  -0.605 -1.5827  0.8733  1.0560
  149MOL0     H20107   5.728  11.060  -0.701  0.9542 -0.3170 -0.1473
  149MOL0     H20108   5.835  11.183  -0.784  0.6084  2.9120  0.8491
  149MOL0     H20109   5.651  11.245  -0.570  3.6894  1.8595  2.7126
  149MOL0     H20110   5.755  11.359  -0.663 -0.6346  0.7156  3.0962
  149MOL0     H20111   5.544  11.395  -0.960  1.1412 -2.0782 -1.3896
  149MOL0     H20112   6.151  11.167  -0.155 -0.6824  3.5914 -1.0742
  149MOL0     H20113   6.178  11.283   0.165 -0.7403 -1.0650  1.9581
  149MOL0     H20114   6.142  11.105   0.179  1.7873 -0.1758 -0.1162
  149MOL0     H20115   6.245  11.155   0.058 -0.2474 -0.5018 -1.5040
  150MOL0     O20116   1.877   9.921   0.500  0.6362  0.0550 -0.2723
  150MOL0     C20117   1.980   9.926   0.556  0.4916  0.7818  0.0878
  150MOL0     O20118   2.043  10.042   0.600 -0.0363 -0.0967 -0.4452
  150MOL0     C20119   1.956  10.143   0.594 -0.4423 -1.7647 -0.2126
  150MOL0     C20120   1.874  10.174   0.705  0.6873  0.5645 -0.1717
  150MOL0     C20121   1.820  10.311   0.701  0.2840  0.6208 -0.4305
  150MOL0     C20122   1.843  10.404   0.601 -0.3062 -0.4766  0.3718
  150MOL0     O20123   1.797  10.535   0.606 -0.0847  0.4553 -0.0447
  150MOL0     C20124   1.791  10.581   0.749 -0.0087  0.4196 -0.0800
  150MOL0     C20125   1.805  10.725   0.735  0.2264 -0.3778 -0.7114
  150MOL0     C20126   1.947  10.770   0.703  0.5398  0.2112 -0.8726
  150MOL0     C20127   1.962  10.796   0.551  0.9476  0.5337  0.5211
  150MOL0     C20128   2.118  10.809   0.533  0.5268  0.4889 -0.2890
  150MOL0     C20129   2.148  10.835   0.389 -0.7926 -0.7316 -0.6082
  150MOL0     C20130   2.185  10.698   0.316 -0.2828 -0.3855 -0.3501
  150MOL0     C20131   2.336  10.672   0.310 -0.4522  0.0214  0.1443
  150MOL0     N20132   2.421  10.780   0.245  0.5704  1.1022 -0.2124
  150MOL0     C20133   2.402  10.839   0.125  1.2004  0.0518  0.4814
  150MOL0     C20134   2.514  10.911   0.107  1.0070  0.8206  0.2781
  150MOL0     C20135   2.540  10.989  -0.026 -0.2849  0.7864 -0.5680
  150MOL0     C20136   2.650  11.102  -0.018 -0.2531  0.0704 -0.8963
  150MOL0     C20137   2.794  11.055  -0.076  0.3008 -0.1428 -1.9969
  150MOL0     C20138   2.906  11.136  -0.009 -0.0551  1.0397  0.2932
  150MOL0     O20139   2.896  11.277  -0.021 -0.0611 -0.3884 -0.0209
  150MOL0     C20140   2.844  11.353   0.082 -0.1938 -0.0918 -0.7053
  150MOL0     C20141   2.791  11.482   0.050  0.4901 -0.4040 -0.2416
  150MOL0     C20142   2.744  11.580   0.147  0.5806  0.2454  0.3257
  150MOL0     C20143   2.736  11.538   0.282 -0.2476 -0.0942 -0.0504
  150MOL0     C20144   2.694  11.641   0.383 -0.2516  0.1451  0.9863
  150MOL0     O20145   2.666  11.771   0.334  0.4515  0.0253  0.1407
  150MOL0     C20146   2.628  11.865   0.421  0.1712 -0.5874 -0.3677
  150MOL0     C20147   2.558  11.859   0.541 -0.0232 -1.4476 -0.8797
  150MOL0     C20148   2.532  11.979   0.608  0.7987 -0.3402 -0.0096
  150MOL0     C20149   2.556  12.109   0.568 -1.1600  0.8318  0.9219
  150MOL0     O20150   2.531  12.220   0.641  0.5701 -0.4540  0.3241
  150MOL0     C20151   2.582  12.351   0.595  0.2255 -0.5885 -0.4257
  150MOL0     C20152   2.555  12.442   0.712  0.6797 -0.1931 -0.6876
  150MOL0     C20153   2.403  12.436   0.735 -0.3025 -0.3025  1.0371
  150MOL0     C20154   2.337  12.566   0.741 -0.0893 -1.3775 -0.2876
  150MOL0     C20155   2.189  12.558   0.797 -0.1445 -0.3183  0.3678
  150MOL0     C20156   2.128  12.693   0.777 -0.5541  0.0575  0.9751
  150MOL0     C20157   2.177  12.804   0.863  0.8625 -0.1386  0.5324
  150MOL0     C20158   2.082  12.927   0.868 -0.8029  0.4716  0.3672
  150MOL0    Cl20159   1.915  12.893   0.955 -0.6672 -0.1943 -0.2185
  150MOL0     C20160   2.616  12.110   0.445 -1.3039  0.0363  0.6812
  150MOL0     C20161   2.653  11.991   0.367  0.3018  0.0714  0.5127
  150MOL0     O20162   2.687  11.603   0.498  0.0577  0.0504  0.3313
  150MOL0     C20163   2.788  11.413   0.312  0.4303 -0.3032 -0.2806
  150MOL0     C20164   2.849  11.327   0.220 -1.0716  0.4908  0.2430
  150MOL0     N20165   2.597  10.896   0.216 -0.0285 -0.1647 -0.5009
  150MOL0     N20166   2.536  10.826   0.306  0.0495  0.2595 -0.3495
  150MOL0     C20167   1.923  10.369   0.497 -0.8030  0.3488  0.3177
  150MOL0     C20168   1.978  10.238   0.491  0.6832 -0.7067  0.2320
  150MOL0     C20169   2.053   9.799   0.570 -0.7977  0.2259 -1.1248
  150MOL0     C20170   2.095   9.757   0.696  0.4463 -0.8781  1.0429
  150MOL0     C20171   2.138   9.633   0.727  0.5028  0.6506 -0.6518
  150MOL0     C20172   2.155   9.533   0.628  0.7124  1.1181  0.4592
  150MOL0     O20173   2.202   9.416   0.670 -0.2738 -0.1822  0.2061
  150MOL0     C20174   2.220   9.308   0.582  0.0941  0.0407  0.0402
  150MOL0     C20175   2.086   9.242   0.552 -0.1839  1.0452 -0.3631
  150MOL0     C20176   2.083   9.164   0.425  0.6968 -1.5278  0.7633
  150MOL0     C20177   1.942   9.149   0.366  0.2787 -0.4134  0.1308
  150MOL0     C20178   1.923   9.242   0.257 -0.3952  0.0821  1.1555
  150MOL0     C20179   1.887   9.323   0.175  0.5235  0.0345 -0.1451
  150MOL0     C20180   2.113   9.573   0.500 -0.2293 -0.7798 -0.8296
  150MOL0     C20181   2.064   9.701   0.469  0.2399  0.4862 -0.6356
  150MOL0     C20182   2.007   9.725   0.334  0.4319  0.1825  0.5728
  150MOL0     H20183   1.857  10.091   0.773 -0.0411  0.8010 -0.0620
  150MOL0     H20184   1.760  10.323   0.790  0.1622 -0.1144 -0.4043
  150MOL0     H20185   1.698  10.541   0.790  1.1121 -4.1966 -1.4422
  150MOL0     H20186   1.864  10.528   0.812 -0.8293 -3.9717 -2.4389
  150MOL0     H20187   1.781  10.753   0.838 -2.9883 -0.4397 -1.3227
  150MOL0     H20188   1.732  10.772   0.668  1.2935  0.2297 -1.4821
  150MOL0     H20189   2.021  10.692   0.722 -0.5748 -1.0636 -1.6174
  150MOL0     H20190   1.966  10.861   0.761  1.3436 -0.9833  0.8352
  150MOL0     H20191   1.935  10.708   0.492  3.5264  1.5386 -2.4659
  150MOL0     H20192   1.897  10.880   0.524 -3.9971 -2.7242  1.0092
  150MOL0     H20193   2.139  10.902   0.587 -1.8258  1.1740 -0.4002
  150MOL0     H20194   2.170  10.728   0.584  0.5613 -1.1478 -2.7883
  150MOL0     H20195   2.068  10.881   0.329 -1.7238 -2.1851 -0.5297
  150MOL0     H20196   2.229  10.908   0.398  0.3331 -1.9360 -0.6475
  150MOL0     H20197   2.163  10.725   0.213  1.1724 -3.0881 -1.4474
  150MOL0     H20198   2.131  10.607   0.342 -1.3562  0.1931 -0.4792
  150MOL0     H20199   2.360  10.667   0.416  1.9008 -1.4247 -0.3845
  150MOL0     H20200   2.362  10.574   0.271 -0.8370  0.8683 -2.4804
  150MOL0     H20201   2.323  10.818   0.054 -0.1783  3.2875  0.8881
  150MOL0     H20202   2.558  10.927  -0.114  0.9682 -1.5171  1.1781
  150MOL0     H20203   2.443  11.034  -0.049  0.2462  0.4793 -3.8869
  150MOL0     H20204   2.612  11.190  -0.072 -2.1083 -1.0004 -1.4190
  150MOL0     H20205   2.663  11.127   0.088 -1.8896 -3.1414  0.1753
  150MOL0     H20206   2.789  11.044  -0.185  2.4951 -0.0429 -2.1576
  150MOL0     H20207   2.804  10.952  -0.040  0.2912  0.8390  1.1600
  150MOL0     H20208   3.006  11.120  -0.049  0.1677  1.0294  0.8528
  150MOL0     H20209   2.905  11.109   0.097  2.7547  0.9085  0.3470
  150MOL0     H20210   2.793  11.515  -0.054  1.5649 -1.0234 -0.4277
  150MOL0     H20211   2.705  11.679   0.124 -0.1300 -0.3140 -0.9325
  150MOL0     H20212   2.524  11.764   0.581  0.4591 -1.0006  0.6354
  150MOL0     H20213   2.484  11.977   0.706 -0.7755  0.8733 -0.7252
  150MOL0     H20214   2.689  12.346   0.573  0.5733 -2.2445  1.4320
  150MOL0     H20215   2.527  12.380   0.505  1.7047 -0.3973 -1.3086
  150MOL0     H20216   2.609  12.411   0.802  0.0018 -1.2574 -0.6267
  150MOL0     H20217   2.592  12.540   0.681  1.6896 -0.7930 -1.4440
  150MOL0     H20218   2.351  12.377   0.659  0.5303  0.1952  0.0679
  150MOL0     H20219   2.377  12.402   0.836 -1.9975 -3.2803 -0.2631
  150MOL0     H20220   2.351  12.619   0.646  1.6544 -1.2872 -0.0199
  150MOL0     H20221   2.386  12.643   0.803 -4.7835 -0.4584  2.8021
  150MOL0     H20222   2.178  12.517   0.898 -2.6709  0.4289  0.4503
  150MOL0     H20223   2.132  12.500   0.724 -3.4507  0.6248  2.0026
  150MOL0     H20224   2.140  12.718   0.671 -1.8837  0.0534  0.8078
  150MOL0     H20225   2.021  12.687   0.799 -0.5841 -0.2538  0.7400
  150MOL0     H20226   2.271  12.851   0.830 -0.6736  1.6723 -1.5718
  150MOL0     H20227   2.192  12.754   0.959 -0.8398 -3.7697 -0.9314
  150MOL0     H20228   2.148  13.001   0.914  3.4576 -2.6947 -0.0070
  150MOL0     H20229   2.056  12.957   0.767 -3.1480 -1.2159  0.3842
  150MOL0     H20230   2.621  12.206   0.395 -0.8620  1.3559  3.0956
  150MOL0     H20231   2.687  11.984   0.264 -0.8037 -0.3400  0.1619
  150MOL0     H20232   2.810  11.391   0.416  0.7208  0.1528 -0.2432
  150MOL0     H20233   2.889  11.233   0.258  1.0731  0.8423 -0.9878
  150MOL0     H20234   1.941  10.449   0.425 -0.6402 -0.9935 -1.1800
  150MOL0     H20235   2.051  10.223   0.412 -0.5021 -0.2830 -0.9795
  150MOL0     H20236   2.068   9.818   0.782 -0.6075 -0.5081  0.4653
  150MOL0     H20237   2.165   9.597   0.826 -3.3949 -2.2766 -0.3943
  150MOL0     H20238   2.279   9.235   0.638 -0.3459  0.1902  0.7105
  150MOL0     H20239   2.271   9.351   0.495 -1.7428  3.4078  0.4655
  150MOL0     H20240   2.008   9.318   0.541 -1.1169  0.1734 -0.0566
  150MOL0     H20241   2.065   9.180   0.640  0.0290 -0.2041 -1.1579
  150MOL0     H20242   2.123   9.066   0.450 -1.9159 -2.8852 -0.0552
  150MOL0     H20243   2.156   9.210   0.357 -0.1704  1.9652  1.9603
  150MOL0     H20244   1.928   9.051   0.318  0.1067 -0.8109  0.9740
  150MOL0     H20245   1.869   9.176   0.443  2.0191  3.9162  0.5539
  150MOL0     H20246   1.866   9.406   0.110  0.0546 -1.4310 -1.9502
  150MOL0     H20247   2.126   9.498   0.423 -3.0114 -1.5540 -0.6596
  150MOL0     H20248   1.901   9.697   0.337  0.9652 -2.0550  0.8535
  150MOL0     H20249   2.015   9.831   0.309  1.9616 -0.0106  0.1627
  150MOL0     H20250   2.054   9.671   0.251  1.9033  2.2230  0.0216
  151MOL0     O20251   8.201   6.994   9.909 -0.0829 -0.1796  0.2919
  151MOL0     C20252   8.129   7.091   9.899  0.4101 -0.8989 -0.5887
  151MOL0     O20253   8.055   7.145   9.996  0.2887  0.1582  0.5610
  151MOL0     C20254   8.025   7.062  10.102 -0.5864  0.2706 -0.0658
  151MOL0     C20255   8.071   7.097  10.228  0.2484  0.4372  0.1731
  151MOL0     C20256   8.006   7.045  10.337 -0.8899  0.5282 -0.1034
  151MOL0     C20257   7.921   6.935  10.326 -0.3202  0.0939 -0.9260
  151MOL0     O20258   7.859   6.877  10.438 -0.1315 -0.4840 -0.1078
  151MOL0     C20259   7.805   6.966  10.537 -1.0256 -0.3555  0.3357
  151MOL0     C20260   7.692   6.928  10.628 -0.4864 -0.3426  0.2085
  151MOL0     C20261   7.650   7.054  10.708 -1.0189  0.0513  1.3372
  151MOL0     C20262   7.543   7.016  10.811 -0.8929 -0.4977  0.2754
  151MOL0     C20263   7.610   7.035  10.954  0.4941 -0.3382 -0.5706
  151MOL0     C20264   7.508   6.996  11.062  0.4259  0.5748  0.4812
  151MOL0     C20265   7.538   7.059  11.198  0.5094  0.3760  0.4312
  151MOL0     C20266   7.431   7.038  11.306  0.6214  0.9016 -0.3474
  151MOL0     N20267   7.326   6.941  11.282  0.2449  0.6136  0.3362
  151MOL0     C20268   7.190   6.967  11.281  0.2406  0.2041  0.6910
  151MOL0     C20269   7.134   6.852  11.245  0.3686  0.3597 -0.8061
  151MOL0     C20270   6.981   6.866  11.226  0.1325  0.1649  0.1501
  151MOL0     C20271   6.916   6.729  11.204  0.3461 -0.4713 -0.3295
  151MOL0     C20272   6.766   6.748  11.169 -0.5497 -0.3664 -0.6546
  151MOL0     C20273   6.676   6.626  11.169 -0.2806  0.2149  0.3151
  151MOL0     O20274   6.717   6.548  11.055  0.0957  0.6459 -0.0844
  151MOL0     C20275   6.707   6.413  11.043  0.5287  0.7982 -0.0591
  151MOL0     C20276   6.641   6.330  11.136 -0.9322  0.2447 -0.6814
  151MOL0     C20277   6.627   6.191  11.119 -0.2104 -0.3975  0.2879
  151MOL0     C20278   6.663   6.126  11.002  0.1889  0.2663  0.1151
  151MOL0     C20279   6.625   5.987  10.969 -0.2764  0.0194 -0.5651
  151MOL0     O20280   6.520   5.931  11.042 -0.3422  0.4739  0.0909
  151MOL0     C20281   6.492   5.796  11.004  0.8595  0.5920 -0.7121
  151MOL0     C20282   6.580   5.697  10.979 -0.0797  0.0265  0.6247
  151MOL0     C20283   6.535   5.562  10.951  0.1957 -0.6421 -0.3461
  151MOL0     C20284   6.402   5.528  10.952  0.4605  1.0580 -0.2817
  151MOL0     O20285   6.362   5.393  10.947 -1.0536  0.4302 -0.4854
  151MOL0     C20286   6.304   5.353  11.071  1.4982  0.0397 -0.2920
  151MOL0     C20287   6.297   5.205  11.108  0.0297 -0.5396  0.5875
  151MOL0     C20288   6.441   5.138  11.094  0.7325  0.2564 -0.7415
  151MOL0     C20289   6.467   5.103  10.945  0.5021 -0.3242  0.1184
  151MOL0     C20290   6.614   5.116  10.897  0.0707  0.0038  1.0916
  151MOL0     C20291   6.697   4.983  10.880  0.3657  0.3955 -0.2216
  151MOL0     C20292   6.648   4.892  10.767 -0.1771  0.5767 -0.1279
  151MOL0     C20293   6.714   4.752  10.767  0.0899 -0.7680 -0.5277
  151MOL0    Cl20294   6.673   4.631  10.901 -0.4075  0.7718  0.0455
  151MOL0     C20295   6.311   5.638  10.964 -0.0609 -0.0198 -1.6062
  151MOL0     C20296   6.352   5.765  11.004 -0.5114 -0.0788  0.7137
  151MOL0     O20297   6.679   5.929  10.869 -0.6422 -1.2942 -0.6342
  151MOL0     C20298   6.725   6.205  10.899  0.3347  1.7166  0.4918
  151MOL0     C20299   6.742   6.345  10.922  0.4145 -0.6617 -1.0696
  151MOL0     N20300   7.227   6.753  11.232 -0.1244 -0.7389  0.5908
  151MOL0     N20301   7.346   6.812  11.243  0.1944  0.7164  0.2088
  151MOL0     C20302   7.888   6.892  10.196  0.0152  0.3635  0.0393
  151MOL0     C20303   7.938   6.955  10.086 -0.3405  0.1878 -0.0261
  151MOL0     C20304   8.113   7.169   9.762 -0.0135  1.2508  0.1907
  151MOL0     C20305   8.077   7.302   9.762  0.0110  0.9651  0.2991
  151MOL0     C20306   8.082   7.381   9.650  0.9612 -1.2066 -0.2488
  151MOL0     C20307   8.096   7.326   9.516  0.1671  0.1597  0.9814
  151MOL0     O20308   8.097   7.385   9.403 -0.5774 -0.7948  0.5309
  151MOL0     C20309   8.059   7.529   9.397 -0.3146  0.1587  0.1989
  151MOL0     C20310   7.913   7.571   9.396 -0.1354  0.4163 -0.9126
  151MOL0     C20311   7.850   7.479   9.288  0.6529 -0.4851  0.5278
  151MOL0     C20312   7.738   7.552   9.211 -0.0647  0.4805  0.1355
  151MOL0     C20313   7.625   7.602   9.291 -0.5299  0.2858 -0.5673
  151MOL0     C20314   7.536   7.631   9.372 -0.6636  1.2827 -0.1766
  151MOL0     C20315   8.120   7.187   9.516  0.2625 -0.3515 -0.3114
  151MOL0     C20316   8.130   7.110   9.629 -1.0604 -0.8446  0.3840
  151MOL0     C20317   8.169   6.972   9.612 -0.2250 -0.4700 -0.1249
  151MOL0     H20318   8.130   7.188  10.216 -1.5183  1.3836 -1.9127
  151MOL0     H20319   8.028   7.093  10.432 -0.9358  0.6937 -0.1761
  151MOL0     H20320   7.891   6.991  10.599  0.2023 -1.0004 -1.0441
  151MOL0     H20321   7.782   7.060  10.486  0.3003 -0.2736 -0.1446
  151MOL0     H20322   7.731   6.851  10.695  2.9641 -1.3809 -2.6823
  151MOL0     H20323   7.614   6.898  10.558 -0.3761  3.7532 -1.9975
  151MOL0     H20324   7.589   7.116  10.641 -4.0933 -1.4650  2.5307
  151MOL0     H20325   7.733   7.101  10.762 -1.3943  0.7683  1.3052
  151MOL0     H20326   7.461   7.087  10.799 -2.1283 -1.8014  0.6809
  151MOL0     H20327   7.509   6.912  10.808  2.7909 -1.8244 -1.8132
  151MOL0     H20328   7.702   6.981  10.978  0.5759 -0.3128 -0.8184
  151MOL0     H20329   7.632   7.139  10.980  1.3746 -1.0420  1.6959
  151MOL0     H20330   7.413   7.044  11.034  1.5774  2.1346 -0.9960
  151MOL0     H20331   7.488   6.888  11.056  2.6877  0.1676 -1.0408
  151MOL0     H20332   7.556   7.166  11.187  0.7851  0.3837  0.9219
  151MOL0     H20333   7.627   7.013  11.242  0.0092  0.4124  1.5178
  151MOL0     H20334   7.488   6.991  11.387 -2.9734 -3.8461 -0.1448
  151MOL0     H20335   7.378   7.123  11.349  0.5228  0.0194  1.3831
  151MOL0     H20336   7.141   7.064  11.279  3.2558  1.8695  0.6367
  151MOL0     H20337   6.935   6.903  11.319 -0.4885 -0.8549  0.2603
  151MOL0     H20338   6.961   6.926  11.137 -0.7860 -1.0792 -0.5066
  151MOL0     H20339   6.968   6.675  11.124  1.7701 -0.5637  0.6224
  151MOL0     H20340   6.915   6.671  11.297  0.2049 -0.1689 -0.1397
  151MOL0     H20341   6.758   6.800  11.073  0.4245  1.1541  0.0385
  151MOL0     H20342   6.718   6.812  11.244  0.4526  1.7961 -1.7652
  151MOL0     H20343   6.570   6.648  11.161 -0.8969 -2.5810 -0.2752
  151MOL0     H20344   6.703   6.574  11.262 -2.5679 -0.9925  0.3658
  151MOL0     H20345   6.614   6.364  11.235 -0.7014 -3.8179  0.9419
  151MOL0     H20346   6.576   6.148  11.205  0.2655 -6.8894 -2.1311
  151MOL0     H20347   6.684   5.726  10.976 -1.0166  3.9582 -2.4857
  151MOL0     H20348   6.609   5.487  10.927 -0.2480 -1.4099  0.5970
  151MOL0     H20349   6.352   5.398  11.158  1.4331  2.2679 -1.3436
  151MOL0     H20350   6.202   5.392  11.082  0.1830 -3.5976  2.5117
  151MOL0     H20351   6.264   5.199  11.212 -3.9163  0.8037 -0.4236
  151MOL0     H20352   6.219   5.162  11.044  0.9649  0.1195 -1.0701
  151MOL0     H20353   6.517   5.190  11.152  0.5928  0.2087 -0.5144
  151MOL0     H20354   6.430   5.042  11.145  1.3774 -0.4868 -1.9383
  151MOL0     H20355   6.408   5.160  10.873 -0.7345 -0.6365  0.8608
  151MOL0     H20356   6.441   4.997  10.931  0.3849 -0.2566 -0.1600
  151MOL0     H20357   6.669   5.170  10.974 -1.9515  0.4940  2.2472
  151MOL0     H20358   6.626   5.181  10.810 -3.2347  0.4144  0.8405
  151MOL0     H20359   6.801   5.009  10.859  0.9090 -2.0484 -0.9056
  151MOL0     H20360   6.681   4.940  10.980  1.2676  0.7054  0.0609
  151MOL0     H20361   6.664   4.952  10.677  2.9681  3.5018  2.1245
  151MOL0     H20362   6.541   4.877  10.783  0.0268 -2.4730 -0.8864
  151MOL0     H20363   6.697   4.698  10.674 -0.8185  1.7804 -1.9199
  151MOL0     H20364   6.822   4.770  10.764 -0.0788  0.3437 -0.3078
  151MOL0     H20365   6.213   5.598  10.942  0.1350 -1.7378  0.3126
  151MOL0     H20366   6.287   5.851  11.020  1.8817  2.2697 -1.2822
  151MOL0     H20367   6.744   6.158  10.804 -3.1500  4.3814 -1.7851
  151MOL0     H20368   6.778   6.416  10.848  1.3606  3.3379  2.7531
  151MOL0     H20369   7.831   6.805  10.166  1.6580 -0.4747 -0.8444
  151MOL0     H20370   7.892   6.945   9.988  1.2008  1.9944 -0.9963
  151MOL0     H20371   8.062   7.352   9.858  0.8611 -0.5174  1.2346
  151MOL0     H20372   8.061   7.487   9.653  1.8204 -0.9875  4.0529
  151MOL0     H20373   8.117   7.551   9.307 -0.6694 -1.5537 -0.4999
  151MOL0     H20374   8.104   7.600   9.467  4.6500 -1.3512 -1.0387
  151MOL0     H20375   7.910   7.677   9.370  1.2438  0.6256 -0.2999
  151MOL0     H20376   7.871   7.544   9.493 -0.9743 -2.5217 -1.9625
  151MOL0     H20377   7.816   7.389   9.341 -1.8057 -0.0108 -0.1139
  151MOL0     H20378   7.907   7.441   9.203 -2.5713  0.5597 -2.3288
  151MOL0     H20379   7.784   7.641   9.168  1.5569  0.0103  0.8183
  151MOL0     H20380   7.707   7.485   9.130 -2.7924  0.7480  0.8406
  151MOL0     H20381   7.452   7.626   9.438  0.1801  0.9637  0.8955
  151MOL0     H20382   8.139   7.141   9.420 -1.5294 -1.4811 -0.1708
  151MOL0     H20383   8.267   6.959   9.659 -0.9650 -0.5311  1.4869
  151MOL0     H20384   8.100   6.906   9.665 -1.9594  0.2805 -1.3309
  151MOL0     H20385   8.161   6.947   9.506  0.0339 -3.7816  0.5425
  152MOL0     O20386   7.871   0.482   5.854 -0.1407  0.6552 -1.0752
  152MOL0     C20387   7.842   0.544   5.757 -0.4630  1.0997  0.1703
  152MOL0     O20388   7.724   0.550   5.706 -0.3345 -0.4414  0.0268
  152MOL0     C20389   7.625   0.477   5.756  0.4713 -0.0557 -0.6408
  152MOL0     C20390   7.649   0.337   5.757 -0.8204  0.1744  0.5797
  152MOL0     C20391   7.555   0.244   5.804 -0.0038  0.2019 -0.4787
  152MOL0     C20392   7.435   0.290   5.853 -0.5958 -0.2080  0.2790
  152MOL0     O20393   7.353   0.189   5.892 -0.0328  0.3787  0.5790
  152MOL0     C20394   7.215   0.197   5.867 -0.1636  0.9580  0.0155
  152MOL0     C20395   7.163   0.062   5.918  0.3347 -0.4518  0.3879
  152MOL0     C20396   7.032   0.030   5.847  0.6951 -0.3737  0.4920
  152MOL0     C20397   6.930   0.130   5.880 -0.0699 -0.4140 -1.2535
  152MOL0     C20398   6.787   0.096   5.824 -0.2031 -0.6286 -0.7462
  152MOL0     C20399   6.663   0.185   5.854 -0.6232  0.1803  0.8664
  152MOL0     C20400   6.649   0.218   5.999 -0.0916 -0.5363 -0.7867
  152MOL0     C20401   6.514   0.286   6.031  0.0956  0.8789  0.1376
  152MOL0     N20402   6.521   0.360   6.156 -0.0687  0.8658 -1.0069
  152MOL0     C20403   6.576   0.477   6.166  0.8713 -0.7544  0.3184
  152MOL0     C20404   6.579   0.510   6.296 -0.9698 -0.2761  1.0924
  152MOL0     C20405   6.648   0.634   6.353 -0.1481  0.2744 -0.1106
  152MOL0     C20406   6.800   0.656   6.338  0.6461  0.8030 -0.3191
  152MOL0     C20407   6.833   0.813   6.360  0.4460  0.5219  0.0042
  152MOL0     C20408   6.850   0.815   6.515 -0.2190 -0.0801 -0.0350
  152MOL0     O20409   6.893   0.952   6.550 -0.1332 -0.4852  0.2210
  152MOL0     C20410   6.969   0.978   6.659  0.8498  0.6992 -0.3876
  152MOL0     C20411   7.051   1.089   6.660 -0.1041 -0.2310 -0.1358
  152MOL0     C20412   7.152   1.105   6.759 -1.2037 -0.0116  0.1151
  152MOL0     C20413   7.169   1.007   6.868  0.1949 -0.3076 -0.1830
  152MOL0     C20414   7.278   1.020   6.963 -0.6046  0.0515  0.1273
  152MOL0     O20415   7.328   1.141   6.980 -0.2615  0.1279  1.1721
  152MOL0     C20416   7.452   1.148   7.039 -0.2108  0.1610 -0.9112
  152MOL0     C20417   7.568   1.106   6.967 -0.3533  0.8064 -0.6592
  152MOL0     C20418   7.692   1.096   7.033 -0.0939 -0.4441 -0.6988
  152MOL0     C20419   7.711   1.143   7.167  0.1163  0.0606  0.0754
  152MOL0     O20420   7.842   1.128   7.212 -0.3487  0.4960  0.8143
  152MOL0     C20421   7.857   1.108   7.359 -0.6795  0.6570  0.3963
  152MOL0     C20422   7.997   1.075   7.386  0.1757 -0.5869 -0.1671
  152MOL0     C20423   8.091   1.189   7.439  0.1747  0.3229 -0.0278
  152MOL0     C20424   8.240   1.159   7.453  0.7852 -0.2916  0.0517
  152MOL0     C20425   8.311   1.188   7.331 -1.0679  1.4559 -0.2459
  152MOL0     C20426   8.400   1.317   7.323 -0.3843  0.5058  0.2946
  152MOL0     C20427   8.533   1.309   7.403 -0.3220  0.4666  0.4642
  152MOL0     C20428   8.593   1.440   7.445 -0.1755  0.0950  0.1203
  152MOL0    Cl20429   8.495   1.551   7.537  0.0041  0.1203  0.2815
  152MOL0     C20430   7.595   1.184   7.233 -0.0551 -0.0671 -0.4904
  152MOL0     C20431   7.465   1.186   7.168 -0.4417  0.2793  0.3554
  152MOL0     O20432   7.321   0.918   7.018  1.3990 -0.3778  0.4677
  152MOL0     C20433   7.086   0.896   6.867  0.2033  0.2311  0.4251
  152MOL0     C20434   6.979   0.890   6.774 -1.0254  0.1813  0.2679
  152MOL0     N20435   6.540   0.399   6.363 -0.3479  0.7589 -0.5647
  152MOL0     N20436   6.511   0.302   6.286  0.1400  0.2682 -0.3010
  152MOL0     C20437   7.398   0.430   5.838  0.0355  0.9213 -0.3625
  152MOL0     C20438   7.491   0.521   5.795  0.0234 -0.1099 -0.2262
  152MOL0     C20439   7.932   0.661   5.729 -0.1025  0.5750  0.3782
  152MOL0     C20440   7.888   0.749   5.624  0.1455 -0.5763 -0.8691
  152MOL0     C20441   7.951   0.875   5.606 -0.2409 -0.8593  0.5186
  152MOL0     C20442   8.064   0.913   5.676 -0.5700 -0.1674 -0.2518
  152MOL0     O20443   8.134   1.035   5.675 -0.3997  0.2199  0.2410
  152MOL0     C20444   8.091   1.134   5.575 -0.3120  0.3863  0.6906
  152MOL0     C20445   8.154   1.272   5.592  0.0647  0.3493  0.2913
  152MOL0     C20446   8.128   1.363   5.468  0.2841  0.2008  0.2081
  152MOL0     C20447   8.171   1.506   5.491 -0.1325 -0.4081  0.5983
  152MOL0     C20448   8.130   1.579   5.370  0.4325  0.4327  0.1184
  152MOL0     C20449   8.102   1.630   5.258  0.0128 -0.0418  0.2310
  152MOL0     C20450   8.111   0.826   5.781  0.6678 -0.1883 -0.6362
  152MOL0     C20451   8.050   0.699   5.800  0.3406  0.7341  0.1229
  152MOL0     C20452   8.115   0.614   5.912  0.0864 -0.3715  0.1778
  152MOL0     H20453   7.746   0.301   5.724  1.3608  0.7521  5.5208
  152MOL0     H20454   7.595   0.143   5.808 -0.6465 -0.2058 -2.7364
  152MOL0     H20455   7.157   0.278   5.912 -0.6541  0.0601  1.0271
  152MOL0     H20456   7.201   0.195   5.759 -0.6419  0.2238  0.0820
  152MOL0     H20457   7.151   0.063   6.027 -0.8377 -0.5641  0.2704
  152MOL0     H20458   7.230  -0.021   5.896  1.5374  0.8430 -1.0256
  152MOL0     H20459   6.993  -0.068   5.876  1.0460 -1.1267 -1.4243
  152MOL0     H20460   7.041   0.025   5.738 -0.4422  0.3982  0.3507
  152MOL0     H20461   6.938   0.146   5.988 -0.2250 -0.3508 -1.2510
  152MOL0     H20462   6.960   0.228   5.843  0.5403  0.3377  1.0539
  152MOL0     H20463   6.782   0.088   5.715  0.9378 -0.7264 -0.8039
  152MOL0     H20464   6.765   0.001   5.875  0.1888  0.8804  2.5280
  152MOL0     H20465   6.676   0.276   5.794  1.6453 -1.5629 -1.5739
  152MOL0     H20466   6.587   0.116   5.815  1.5234 -1.7689 -0.1669
  152MOL0     H20467   6.738   0.270   6.035 -0.9890 -0.1020  0.9223
  152MOL0     H20468   6.651   0.130   6.064  0.9248 -0.4528 -0.6880
  152MOL0     H20469   6.497   0.362   5.954 -1.9679  0.0566 -0.2990
  152MOL0     H20470   6.428   0.219   6.031  0.5343  0.1876  2.9605
  152MOL0     H20471   6.607   0.543   6.086  0.8283  1.7522  2.2632
  152MOL0     H20472   6.591   0.719   6.315  0.7286  1.7065  1.5975
  152MOL0     H20473   6.635   0.640   6.462 -4.8784 -0.1409 -0.4471
  152MOL0     H20474   6.873   0.585   6.377  1.0014  0.1956 -2.0095
  152MOL0     H20475   6.813   0.638   6.231 -1.4963  2.0103 -0.8453
  152MOL0     H20476   6.743   0.870   6.333 -0.1543 -1.4631 -2.6852
  152MOL0     H20477   6.915   0.843   6.294  1.0771  3.4232  1.9452
  152MOL0     H20478   6.933   0.746   6.533 -0.9964 -1.3972 -1.2937
  152MOL0     H20479   6.762   0.781   6.570 -0.4809  0.2345 -0.2547
  152MOL0     H20480   7.034   1.166   6.585  1.1533 -0.1910 -0.4029
  152MOL0     H20481   7.212   1.194   6.775  0.0485 -0.6595 -0.7553
  152MOL0     H20482   7.566   1.078   6.863 -1.2461  1.8618 -0.9398
  152MOL0     H20483   7.775   1.082   6.965 -0.4106  0.1483 -1.2189
  152MOL0     H20484   7.833   1.203   7.408  1.0358  1.2382  0.1564
  152MOL0     H20485   7.789   1.035   7.403 -0.3709  0.4076  0.4590
  152MOL0     H20486   7.987   0.993   7.457 -2.3857 -2.1681 -2.1867
  152MOL0     H20487   8.046   1.027   7.301  0.1282  0.8977 -1.0779
  152MOL0     H20488   8.075   1.276   7.374 -4.0000 -0.3404 -0.1798
  152MOL0     H20489   8.060   1.214   7.541 -3.5064 -3.1544 -0.0596
  152MOL0     H20490   8.260   1.054   7.478  3.5880  0.3886  1.0104
  152MOL0     H20491   8.286   1.214   7.535  1.4712 -0.1526 -0.4239
  152MOL0     H20492   8.236   1.174   7.253 -1.4738 -2.3100  0.6327
  152MOL0     H20493   8.383   1.106   7.323 -1.2077  1.2412  0.5766
  152MOL0     H20494   8.428   1.331   7.219 -0.1283 -1.7215  0.0180
  152MOL0     H20495   8.336   1.405   7.338  1.4901  2.1876 -1.0634
  152MOL0     H20496   8.608   1.256   7.342 -1.8308 -2.4715  0.9551
  152MOL0     H20497   8.516   1.246   7.490 -1.9910  0.0340 -0.1305
  152MOL0     H20498   8.667   1.417   7.522 -1.8147  0.2394  1.8063
  152MOL0     H20499   8.642   1.488   7.359  0.4267 -2.5417 -1.1009
  152MOL0     H20500   7.607   1.204   7.339  0.5432  0.3681 -0.6327
  152MOL0     H20501   7.381   1.219   7.227 -2.4473 -1.9842 -1.0590
  152MOL0     H20502   7.101   0.809   6.931  0.2098  0.2827  0.4939
  152MOL0     H20503   6.914   0.804   6.786  1.2064 -1.3130  2.8562
  152MOL0     H20504   7.307   0.480   5.871  1.2840  0.4121  4.6872
  152MOL0     H20505   7.467   0.626   5.781  0.1921  0.0623  0.6952
  152MOL0     H20506   7.797   0.730   5.568  0.3572  0.6763 -1.6607
  152MOL0     H20507   7.908   0.944   5.534  0.0005 -1.1411  0.1001
  152MOL0     H20508   7.982   1.146   5.579 -0.2457  1.8167 -0.8401
  152MOL0     H20509   8.123   1.093   5.479  2.9457 -0.3559  1.9514
  152MOL0     H20510   8.263   1.268   5.606 -0.0590 -1.4240  1.0119
  152MOL0     H20511   8.108   1.324   5.677 -0.9172  0.3481 -0.2330
  152MOL0     H20512   8.021   1.363   5.447 -0.0814  2.3308  1.7929
  152MOL0     H20513   8.184   1.318   5.385 -0.0600 -3.4167  1.7526
  152MOL0     H20514   8.122   1.552   5.578 -4.1499 -0.1754 -1.5613
  152MOL0     H20515   8.280   1.516   5.503  0.2011 -0.2896 -1.9416
  152MOL0     H20516   8.084   1.670   5.161 -2.1015  0.6471  0.8436
  152MOL0     H20517   8.193   0.868   5.839  3.3488 -1.7459 -3.0444
  152MOL0     H20518   8.075   0.647   6.009  0.5729  1.5532 -0.2238
  152MOL0     H20519   8.106   0.506   5.902  1.9307 -0.5074 -0.3712
  152MOL0     H20520   8.221   0.639   5.924 -0.0580 -0.8552  3.2243
  153MOL0     O20521   7.218   4.527   2.750  0.1038 -0.3286  0.6893
  153MOL0     C20522   7.237   4.474   2.640  0.5421  0.2623 -0.3516
  153MOL0     O20523   7.191   4.352   2.601 -0.0271  0.2684  0.0979
  153MOL0     C20524   7.144   4.267   2.697 -0.0158 -0.2641 -0.7649
  153MOL0     C20525   7.018   4.283   2.755  0.3190  0.5928 -0.2340
  153MOL0     C20526   6.964   4.172   2.815  0.4249  0.2847 -0.4616
  153MOL0     C20527   7.019   4.046   2.829  0.4083 -0.4441 -0.0275
  153MOL0     O20528   6.947   3.953   2.891  0.4672 -0.1426 -0.8528
  153MOL0     C20529   7.002   3.830   2.908 -0.2276  0.9371  0.7177
  153MOL0     C20530   6.904   3.741   2.980  0.1965  0.1778  0.0089
  153MOL0     C20531   6.780   3.706   2.906  0.3183  0.8926  0.3205
  153MOL0     C20532   6.712   3.569   2.951  0.5024 -0.0951  0.3639
  153MOL0     C20533   6.803   3.445   2.933  0.3102 -0.0472 -0.4347
  153MOL0     C20534   6.748   3.306   2.939 -0.7053 -0.3932  0.3854
  153MOL0     C20535   6.856   3.195   2.910  0.1402  0.3527  0.0938
  153MOL0     C20536   6.929   3.158   3.038 -0.2090  0.9216  0.1711
  153MOL0     N20537   6.999   3.027   3.026  0.1673  0.7034 -0.3069
  153MOL0     C20538   7.124   3.015   2.971 -0.1875 -0.6357 -0.1036
  153MOL0     C20539   7.157   2.878   2.969  0.4093 -0.6862  0.1072
  153MOL0     C20540   7.277   2.831   2.907  0.6117 -0.0814 -0.1769
  153MOL0     C20541   7.234   2.776   2.769 -0.4718 -0.2950 -0.4374
  153MOL0     C20542   7.359   2.757   2.697  0.4173  0.3220  0.1395
  153MOL0     C20543   7.356   2.708   2.552  0.5976 -0.0495  0.4232
  153MOL0     O20544   7.486   2.674   2.524 -0.9580  0.3181  0.1280
  153MOL0     C20545   7.527   2.543   2.567  0.3702 -0.1925  0.0197
  153MOL0     C20546   7.443   2.444   2.625 -0.2573  0.7061 -0.7954
  153MOL0     C20547   7.500   2.325   2.661 -0.2251 -0.2120 -0.4975
  153MOL0     C20548   7.634   2.293   2.644 -0.4959  0.3995  0.2495
  153MOL0     C20549   7.687   2.162   2.690  0.9833  0.6841 -0.0695
  153MOL0     O20550   7.827   2.147   2.700  0.1350 -0.3517 -0.7025
  153MOL0     C20551   7.882   2.019   2.682  0.9819 -0.0384  0.8434
  153MOL0     C20552   7.973   2.001   2.581 -0.0416 -0.0386  0.5937
  153MOL0     C20553   8.026   1.883   2.534 -0.1795 -0.7908 -0.1548
  153MOL0     C20554   7.982   1.762   2.579  1.2286  0.4911  0.5059
  153MOL0     O20555   8.022   1.644   2.519 -0.3276  0.1292  0.6630
  153MOL0     C20556   8.095   1.555   2.601 -0.3227  0.0619  0.5663
  153MOL0     C20557   8.135   1.427   2.520  0.5297 -0.3881  0.0904
  153MOL0     C20558   8.245   1.464   2.420 -0.5116 -0.7574 -0.3249
  153MOL0     C20559   8.271   1.355   2.310  0.8705 -0.4591 -0.0682
  153MOL0     C20560   8.414   1.364   2.261 -0.1131  0.7207 -0.0510
  153MOL0     C20561   8.434   1.496   2.198  0.5904 -0.0279  0.3137
  153MOL0     C20562   8.570   1.494   2.112  0.6019  0.1346  0.2180
  153MOL0     C20563   8.700   1.488   2.197 -1.6050  0.5330 -0.2618
  153MOL0    Cl20564   8.720   1.639   2.295  0.1625  0.0922  0.0121
  153MOL0     C20565   7.898   1.769   2.690 -0.4741 -0.0386 -1.0197
  153MOL0     C20566   7.847   1.897   2.744  0.7261 -0.1884  0.0834
  153MOL0     O20567   7.600   2.071   2.705  0.1015 -0.5905 -0.7202
  153MOL0     C20568   7.717   2.394   2.593  0.4689  0.6074  0.5293
  153MOL0     C20569   7.664   2.514   2.549  0.0744  0.5872 -0.2097
  153MOL0     N20570   7.052   2.808   3.033 -0.2158  0.0676  0.2119
  153MOL0     N20571   6.965   2.902   3.063  0.5221 -0.6691  0.0388
  153MOL0     C20572   7.148   4.037   2.781 -1.0080 -0.0389  0.3348
  153MOL0     C20573   7.215   4.151   2.721  0.7857 -0.1818  0.8790
  153MOL0     C20574   7.320   4.554   2.541  0.1949  0.9180  0.7853
  153MOL0     C20575   7.448   4.612   2.588  0.7165 -0.1213  0.1531
  153MOL0     C20576   7.528   4.680   2.492  0.4336 -0.3805 -0.4664
  153MOL0     C20577   7.496   4.683   2.359 -0.1867  0.5102  0.2201
  153MOL0     O20578   7.577   4.748   2.265 -0.0242 -0.0330 -0.3978
  153MOL0     C20579   7.569   4.891   2.236 -0.4606 -0.3308  0.0036
  153MOL0     C20580   7.635   4.972   2.344  0.0865 -0.2691 -0.9268
  153MOL0     C20581   7.669   5.123   2.314  0.3924 -0.4125 -0.2766
  153MOL0     C20582   7.681   5.199   2.441  0.8349 -0.3187 -0.7555
  153MOL0     C20583   7.682   5.345   2.434  1.5674  0.1866  0.7489
  153MOL0     C20584   7.684   5.466   2.430  0.0835 -0.5043 -0.7330
  153MOL0     C20585   7.382   4.620   2.315 -0.8409 -1.4623 -0.4943
  153MOL0     C20586   7.288   4.568   2.408 -0.7745 -0.4436 -0.1421
  153MOL0     C20587   7.167   4.512   2.351 -0.7241 -0.2937  0.4127
  153MOL0     H20588   6.964   4.376   2.738 -0.1837  0.0205 -2.0654
  153MOL0     H20589   6.860   4.180   2.848 -0.7887 -3.6125 -2.6719
  153MOL0     H20590   7.024   3.789   2.809 -5.1009 -3.9732  1.1657
  153MOL0     H20591   7.083   3.831   2.982 -0.0307 -1.8694  0.6795
  153MOL0     H20592   6.874   3.805   3.064 -4.4766 -0.7307 -0.7208
  153MOL0     H20593   6.960   3.654   3.015  3.0144  1.4716 -0.9543
  153MOL0     H20594   6.822   3.700   2.805 -0.6937 -0.3893 -0.0505
  153MOL0     H20595   6.711   3.790   2.916  0.5342  0.7710  4.6282
  153MOL0     H20596   6.671   3.571   3.053  2.1416 -3.3525  1.2167
  153MOL0     H20597   6.626   3.549   2.886 -1.0076  0.9502  1.9416
  153MOL0     H20598   6.865   3.462   2.845  1.7997  3.0432  1.0157
  153MOL0     H20599   6.870   3.453   3.019 -0.6342  1.1130  0.2350
  153MOL0     H20600   6.675   3.287   3.018 -3.4463  1.8054 -1.4369
  153MOL0     H20601   6.682   3.313   2.852 -1.4773 -0.7757  0.9301
  153MOL0     H20602   6.922   3.246   2.839 -1.3454  1.0882 -0.8228
  153MOL0     H20603   6.798   3.118   2.859  1.8259  0.0299 -1.4196
  153MOL0     H20604   6.991   3.244   3.066  0.2054  0.4828  0.6177
  153MOL0     H20605   6.854   3.148   3.117  0.3652 -0.5793  0.5526
  153MOL0     H20606   7.173   3.103   2.930 -0.1736 -0.1333  0.9657
  153MOL0     H20607   7.338   2.922   2.901  1.2232 -0.5220 -0.7187
  153MOL0     H20608   7.334   2.757   2.964  2.1942  1.9866  1.0640
  153MOL0     H20609   7.177   2.683   2.766  0.0107 -0.5826 -2.3061
  153MOL0     H20610   7.182   2.857   2.716 -0.7649  2.0996  3.1625
  153MOL0     H20611   7.425   2.690   2.752  1.6323  1.0948 -0.3374
  153MOL0     H20612   7.418   2.849   2.691 -0.0891  0.7903  1.9124
  153MOL0     H20613   7.319   2.776   2.475 -2.1857 -3.5335 -1.6085
  153MOL0     H20614   7.273   2.637   2.548 -1.0277  1.7789  0.3535
  153MOL0     H20615   7.337   2.461   2.641  0.0178  0.5642  1.6400
  153MOL0     H20616   7.435   2.257   2.715 -0.3158 -0.2462 -0.6495
  153MOL0     H20617   8.014   2.090   2.534 -0.7442 -1.4837 -3.0976
  153MOL0     H20618   8.098   1.894   2.454  0.7601 -2.8429  0.3271
  153MOL0     H20619   8.183   1.612   2.634 -0.1014  1.5020 -2.2314
  153MOL0     H20620   8.048   1.530   2.697  1.5846 -0.2583  1.4887
  153MOL0     H20621   8.164   1.348   2.590 -0.0130 -0.3649  0.3448
  153MOL0     H20622   8.042   1.390   2.476  1.5450  0.5812 -3.1696
  153MOL0     H20623   8.235   1.565   2.381  0.8584  0.3327  1.9119
  153MOL0     H20624   8.336   1.465   2.480  0.0531 -2.9183 -1.0588
  153MOL0     H20625   8.198   1.362   2.229  0.8371  0.4473  0.0358
  153MOL0     H20626   8.266   1.254   2.351  3.3114 -0.3102  0.7393
  153MOL0     H20627   8.425   1.286   2.185  0.1614  0.1221  0.5869
  153MOL0     H20628   8.491   1.352   2.337  0.1740  2.4584 -0.0275
  153MOL0     H20629   8.346   1.515   2.136  2.1861  1.0010 -1.7407
  153MOL0     H20630   8.441   1.584   2.262  1.0940  3.0724 -3.5856
  153MOL0     H20631   8.575   1.575   2.038  3.6338 -1.5288 -1.5996
  153MOL0     H20632   8.577   1.406   2.048  3.3681 -0.8356  1.6962
  153MOL0     H20633   8.693   1.397   2.258 -0.3600  0.8234  0.3597
  153MOL0     H20634   8.782   1.476   2.126 -0.3179 -0.3763  1.2899
  153MOL0     H20635   7.870   1.674   2.734  1.5293 -0.0056  0.4625
  153MOL0     H20636   7.766   1.894   2.817 -1.2730  0.2051 -2.0169
  153MOL0     H20637   7.822   2.368   2.579  1.0818  0.2301  4.4689
  153MOL0     H20638   7.741   2.586   2.526  0.1156  1.4672  2.3729
  153MOL0     H20639   7.204   3.944   2.791 -0.1485  0.5949  1.5824
  153MOL0     H20640   7.307   4.140   2.666 -0.4596  0.1652 -1.4172
  153MOL0     H20641   7.483   4.611   2.691  1.8710 -1.9505 -0.2097
  153MOL0     H20642   7.620   4.729   2.523  1.8358 -3.8528  1.4208
  153MOL0     H20643   7.463   4.914   2.223 -0.3355  2.1234  2.4744
  153MOL0     H20644   7.624   4.914   2.145  2.6519  2.7778  2.3891
  153MOL0     H20645   7.726   4.921   2.378  0.0838  0.5032  0.3284
  153MOL0     H20646   7.578   4.984   2.436  0.4543  5.5955 -1.0632
  153MOL0     H20647   7.589   5.151   2.244 -1.8904 -2.8533  1.1722
  153MOL0     H20648   7.766   5.127   2.264 -0.2405 -2.6164 -1.8377
  153MOL0     H20649   7.585   5.194   2.492  0.6773  1.2539 -0.8530
  153MOL0     H20650   7.762   5.157   2.501 -0.8613 -1.5674  0.7844
  153MOL0     H20651   7.689   5.573   2.442  0.6352 -0.8602  3.5826
  153MOL0     H20652   7.354   4.623   2.210 -1.5651  1.4283 -0.2863
  153MOL0     H20653   7.129   4.572   2.268  1.7840  1.3065  0.3311
  153MOL0     H20654   7.184   4.415   2.303 -1.5188 -0.8386  1.1997
  153MOL0     H20655   7.092   4.503   2.431 -1.2074 -2.3521 -0.2177
  154MOL0     O20656   0.854   0.384   1.253 -0.2232 -0.8164 -0.3889
  154MOL0     C20657   0.961   0.397   1.312 -0.2846  0.5108  0.0851
  154MOL0     O20658   1.085   0.396   1.255 -0.0798  0.7269  0.6752
  154MOL0     C20659   1.105   0.360   1.125  0.5205 -0.5146  0.1144
  154MOL0     C20660   1.192   0.441   1.052 -0.5630 -0.7193 -0.1507
  154MOL0     C20661   1.233   0.408   0.923 -0.8215 -0.3729  0.3635
  154MOL0     C20662   1.160   0.304   0.858  0.1345  0.0423 -0.2468
  154MOL0     O20663   1.152   0.276   0.726  0.2694 -0.2881 -0.0997
  154MOL0     C20664   1.161   0.387   0.631  0.7030  0.0627  0.6659
  154MOL0     C20665   1.231   0.320   0.514  0.1111 -1.2340 -0.3028
  154MOL0     C20666   1.360   0.260   0.556  0.0897  0.3769  0.3864
  154MOL0     C20667   1.447   0.215   0.433  1.0958 -1.2632 -0.1782
  154MOL0     C20668   1.589   0.202   0.471 -0.4026 -0.7178 -0.0250
  154MOL0     C20669   1.686   0.178   0.359  1.4906 -0.4629 -0.0487
  154MOL0     C20670   1.640   0.079   0.245 -0.2772 -0.8389 -0.6827
  154MOL0     C20671   1.606  -0.058   0.304  0.3289  0.3947 -0.5593
  154MOL0     N20672   1.528  -0.130   0.208 -0.8485  0.1199 -0.2011
  154MOL0     C20673   1.585  -0.158   0.085  0.9084 -0.1120  0.6015
  154MOL0     C20674   1.485  -0.222   0.013 -0.0858  0.2098  0.3691
  154MOL0     C20675   1.494  -0.275  -0.124 -0.0342  0.1276  0.0738
  154MOL0     C20676   1.613  -0.368  -0.152 -0.0394 -1.6093 -0.4485
  154MOL0     C20677   1.607  -0.502  -0.090  0.4561 -0.9667 -0.0992
  154MOL0     C20678   1.629  -0.521   0.058 -0.3442  0.7230 -0.0093
  154MOL0     O20679   1.758  -0.481   0.099 -0.3722 -1.1648 -1.1074
  154MOL0     C20680   1.793  -0.458   0.236 -0.1774  1.3062  1.2255
  154MOL0     C20681   1.911  -0.397   0.259  0.0424  0.4581  0.4276
  154MOL0     C20682   1.953  -0.357   0.388 -0.2170  0.5734  1.9947
  154MOL0     C20683   1.873  -0.382   0.497  0.7548  0.8131  0.5308
  154MOL0     C20684   1.925  -0.365   0.637  0.7034 -0.0611 -0.9284
  154MOL0     O20685   1.839  -0.383   0.742  0.2686  0.1052 -0.1467
  154MOL0     C20686   1.880  -0.373   0.873 -0.0898  0.9387  0.3536
  154MOL0     C20687   1.862  -0.477   0.964 -0.0375 -0.3551 -0.2458
  154MOL0     C20688   1.913  -0.460   1.100 -0.4153  1.1660  0.0103
  154MOL0     C20689   1.968  -0.342   1.143  0.6647 -1.0472 -0.2798
  154MOL0     O20690   2.013  -0.341   1.277  0.1614 -0.2642 -0.2198
  154MOL0     C20691   2.107  -0.247   1.314 -0.5087 -0.0122  0.5475
  154MOL0     C20692   2.152  -0.292   1.453  0.4432 -0.1443 -0.4064
  154MOL0     C20693   2.293  -0.249   1.476 -1.5286 -1.4917  0.0163
  154MOL0     C20694   2.335  -0.278   1.627 -0.0835 -0.4153 -0.7358
  154MOL0     C20695   2.471  -0.216   1.650  0.9553  0.1316 -0.0505
  154MOL0     C20696   2.528  -0.236   1.793  0.8317  0.6705  0.1679
  154MOL0     C20697   2.677  -0.205   1.811 -0.1658  0.2082 -0.1253
  154MOL0     C20698   2.715  -0.062   1.777  1.2635 -0.2716  1.1844
  154MOL0    Cl20699   2.878  -0.011   1.821 -0.1008  0.3094  0.0488
  154MOL0     C20700   1.978  -0.235   1.049 -0.1105  0.1896  0.7279
  154MOL0     C20701   1.939  -0.260   0.918  0.7230 -0.2640  0.3510
  154MOL0     O20702   2.043  -0.333   0.648  0.6612 -0.9550  0.0770
  154MOL0     C20703   1.748  -0.436   0.469  0.8545  0.4174  0.1141
  154MOL0     C20704   1.707  -0.477   0.342 -0.5272  0.3383 -0.1563
  154MOL0     N20705   1.376  -0.240   0.098  0.0335 -0.3905  0.7907
  154MOL0     N20706   1.412  -0.205   0.217  0.1894  0.0077 -0.3998
  154MOL0     C20707   1.088   0.217   0.948 -0.9396 -0.4353 -0.3010
  154MOL0     C20708   1.052   0.256   1.070  0.9622  0.3006  0.4065
  154MOL0     C20709   0.960   0.428   1.462 -0.0310  0.3296  0.7043
  154MOL0     C20710   0.839   0.486   1.511  0.0610  0.5727 -0.6418
  154MOL0     C20711   0.839   0.546   1.643  0.3327 -0.1134 -0.3682
  154MOL0     C20712   0.957   0.534   1.730 -0.0705 -0.1582 -0.0025
  154MOL0     O20713   0.962   0.573   1.862  0.1073  0.1094  0.0131
  154MOL0     C20714   0.860   0.651   1.913 -0.5740  0.0909 -0.6866
  154MOL0     C20715   0.873   0.790   1.859 -0.2786 -1.0110  0.2533
  154MOL0     C20716   1.014   0.861   1.888 -0.1210  0.3147  0.6392
  154MOL0     C20717   1.046   0.899   2.039 -0.5047 -0.7026 -0.6506
  154MOL0     C20718   1.170   0.978   2.053 -0.1405 -0.4264 -0.2693
  154MOL0     C20719   1.271   1.040   2.054  0.3576  0.1101 -0.2185
  154MOL0     C20720   1.065   0.459   1.684  0.3235 -0.2271  0.5512
  154MOL0     C20721   1.071   0.415   1.545 -0.3492  0.2103 -0.6876
  154MOL0     C20722   1.182   0.313   1.519  0.0846  1.1300 -0.8203
  154MOL0     H20723   1.224   0.536   1.095 -1.0980 -0.8424  0.5398
  154MOL0     H20724   1.305   0.469   0.870 -1.4789  1.7877  1.8154
  154MOL0     H20725   1.065   0.421   0.591  0.7914 -1.7475 -1.2816
  154MOL0     H20726   1.221   0.473   0.664  1.6269  0.7279 -2.4472
  154MOL0     H20727   1.255   0.394   0.437 -0.6199  0.9101  1.4155
  154MOL0     H20728   1.173   0.238   0.472 -2.3583  0.1811  0.1914
  154MOL0     H20729   1.334   0.169   0.611  1.1362 -0.5886 -0.6710
  154MOL0     H20730   1.416   0.324   0.625  0.8337 -3.1092  3.3188
  154MOL0     H20731   1.406   0.121   0.396  1.6460 -0.7917 -2.0876
  154MOL0     H20732   1.438   0.286   0.351  4.5897  0.2176  0.5355
  154MOL0     H20733   1.623   0.297   0.514 -2.1266  0.0374 -0.2485
  154MOL0     H20734   1.592   0.123   0.546 -2.9683 -0.5894  0.3200
  154MOL0     H20735   1.695   0.272   0.304  2.3624 -2.2403 -3.1647
  154MOL0     H20736   1.781   0.156   0.407  1.1550  0.6639  1.2143
  154MOL0     H20737   1.728   0.062   0.182  2.3413  1.3676  2.1079
  154MOL0     H20738   1.558   0.119   0.185 -2.6985 -1.6316  1.8413
  154MOL0     H20739   1.692  -0.120   0.329 -0.2393  0.1299  0.8426
  154MOL0     H20740   1.552  -0.042   0.398  0.4816  0.4767 -0.4855
  154MOL0     H20741   1.675  -0.117   0.041  0.2088 -0.0731 -0.8840
  154MOL0     H20742   1.397  -0.322  -0.142 -0.9749  1.9978  0.0601
  154MOL0     H20743   1.516  -0.192  -0.192 -0.8983 -1.2446 -2.0123
  154MOL0     H20744   1.632  -0.394  -0.256  3.2199 -1.5061  0.0145
  154MOL0     H20745   1.700  -0.318  -0.107  0.0073 -0.2781 -1.9437
  154MOL0     H20746   1.672  -0.570  -0.146  0.7938 -3.0656  2.6093
  154MOL0     H20747   1.502  -0.532  -0.091  0.1761 -0.0203 -1.4409
  154MOL0     H20748   1.627  -0.629   0.077 -1.6159 -0.0151 -3.6212
  154MOL0     H20749   1.552  -0.470   0.117 -1.5172  0.9921 -1.7108
  154MOL0     H20750   1.980  -0.372   0.179 -3.2694  1.4981 -2.3466
  154MOL0     H20751   2.053  -0.317   0.402  0.7287  0.8479 -3.2152
  154MOL0     H20752   1.814  -0.572   0.946 -1.7344  0.1707  1.2299
  154MOL0     H20753   1.919  -0.549   1.163 -0.2412  1.7012  0.7730
  154MOL0     H20754   2.191  -0.241   1.244 -0.5645  0.5727  0.5260
  154MOL0     H20755   2.065  -0.147   1.303 -3.0062 -1.1826 -1.4777
  154MOL0     H20756   2.087  -0.252   1.532  0.2069 -1.2194 -0.0365
  154MOL0     H20757   2.153  -0.401   1.460  2.5294 -0.1081  0.5595
  154MOL0     H20758   2.367  -0.297   1.411 -0.6745 -0.7572  0.4151
  154MOL0     H20759   2.303  -0.141   1.464  2.8686 -1.8695 -1.3882
  154MOL0     H20760   2.344  -0.386   1.642 -0.3350 -0.3840 -0.3616
  154MOL0     H20761   2.277  -0.235   1.709  3.7846 -0.9366  2.5974
  154MOL0     H20762   2.467  -0.108   1.632  0.6422  0.5350  2.1645
  154MOL0     H20763   2.542  -0.255   1.577 -0.0056  0.2979 -1.1054
  154MOL0     H20764   2.463  -0.179   1.861 -0.2463  0.3921 -0.5927
  154MOL0     H20765   2.512  -0.343   1.812 -2.3571  1.1791  0.9007
  154MOL0     H20766   2.742  -0.278   1.763 -2.1560 -2.3894  0.9219
  154MOL0     H20767   2.694  -0.220   1.918 -1.2810  0.3727  0.0968
  154MOL0     H20768   2.701  -0.072   1.669 -5.8583 -1.1311  1.7327
  154MOL0     H20769   2.649   0.012   1.822 -0.5512 -1.7622  1.0812
  154MOL0     H20770   2.020  -0.136   1.068 -0.7561  0.4378  0.8889
  154MOL0     H20771   1.932  -0.181   0.844 -2.7405 -0.2851  0.4632
  154MOL0     H20772   1.678  -0.458   0.548  2.5219  0.2109  1.6099
  154MOL0     H20773   1.605  -0.515   0.332  0.0975 -1.7209  0.7841
  154MOL0     H20774   1.051   0.125   0.902  2.0544 -1.2061 -1.4166
  154MOL0     H20775   0.989   0.194   1.133  1.3725 -3.1552 -2.2750
  154MOL0     H20776   0.750   0.491   1.448  1.7129 -0.5266 -3.1885
  154MOL0     H20777   0.747   0.590   1.680 -0.4018 -1.0281 -1.0636
  154MOL0     H20778   0.876   0.650   2.022 -0.9776  1.7271 -0.5807
  154MOL0     H20779   0.761   0.610   1.893  0.3300 -2.1170 -0.9125
  154MOL0     H20780   0.792   0.853   1.898  0.4506  0.3320 -0.3046
  154MOL0     H20781   0.865   0.783   1.750  4.1180  1.2431 -0.4676
  154MOL0     H20782   1.034   0.944   1.820  1.6950 -1.1384 -0.6986
  154MOL0     H20783   1.093   0.788   1.868 -0.3483 -0.2419  1.6891
  154MOL0     H20784   0.960   0.950   2.083  0.1232 -0.2111  0.0390
  154MOL0     H20785   1.058   0.807   2.098  1.2108 -0.5518 -0.7287
  154MOL0     H20786   1.351   1.111   2.050  1.7344 -1.3042  0.8791
  154MOL0     H20787   1.151   0.450   1.749  1.6510  3.9566 -0.3219
  154MOL0     H20788   1.193   0.272   1.418  2.0844  1.2088 -0.6769
  154MOL0     H20789   1.276   0.358   1.551  1.6012 -2.4645  0.2180
  154MOL0     H20790   1.171   0.226   1.584 -0.1802 -0.2988 -2.6947
  155MOL0     O20791   6.182   8.938   4.284  0.0348 -0.0951  0.0755
  155MOL0     C20792   6.151   8.921   4.397 -0.1592  0.5899  0.7334
  155MOL0     O20793   6.132   9.016   4.493 -0.7382  0.6179 -0.0925
  155MOL0     C20794   6.203   9.130   4.481 -0.0289 -0.1515  0.4407
  155MOL0     C20795   6.344   9.117   4.483  0.1188 -0.3269  0.0351
  155MOL0     C20796   6.423   9.232   4.485  0.4407  0.1249  0.0635
  155MOL0     C20797   6.367   9.358   4.503 -0.2470 -0.6032 -0.1797
  155MOL0     O20798   6.435   9.477   4.505 -0.4278  0.2353  0.3663
  155MOL0     C20799   6.561   9.466   4.439 -0.6955 -0.4947 -0.0169
  155MOL0     C20800   6.597   9.595   4.388 -0.4527  0.2916 -0.7820
  155MOL0     C20801   6.639   9.684   4.503  0.0797 -0.8627 -0.3321
  155MOL0     C20802   6.758   9.771   4.450  0.6593 -0.1534 -0.6079
  155MOL0     C20803   6.707   9.900   4.375  0.2685 -0.7628 -0.0580
  155MOL0     C20804   6.622  10.003   4.455 -0.0368  1.0003 -0.0871
  155MOL0     C20805   6.485  10.009   4.399 -0.0275 -0.3976  0.0469
  155MOL0     C20806   6.464  10.120   4.296 -0.2596 -0.1689  0.4452
  155MOL0     N20807   6.516  10.098   4.161  0.3819  0.1648  0.4547
  155MOL0     C20808   6.650  10.092   4.120  0.4791 -0.4411  0.7923
  155MOL0     C20809   6.653  10.052   3.991 -0.4574  0.5548  0.1692
  155MOL0     C20810   6.775  10.023   3.905  0.4096  0.2280  0.0972
  155MOL0     C20811   6.809   9.866   3.901 -0.3349  0.4623 -0.3436
  155MOL0     C20812   6.924   9.827   3.806 -0.5254 -0.4426 -0.3730
  155MOL0     C20813   6.944   9.679   3.780  0.0642  0.3785  0.1441
  155MOL0     O20814   7.037   9.623   3.889  0.0343 -0.0602  0.1683
  155MOL0     C20815   6.969   9.527   3.948 -0.3829  0.0815 -0.0702
  155MOL0     C20816   6.928   9.528   4.081 -0.1666 -0.0302 -0.2005
  155MOL0     C20817   6.862   9.417   4.138  0.2239  0.0490  0.3603
  155MOL0     C20818   6.841   9.299   4.066 -0.4566 -0.5455 -1.0356
  155MOL0     C20819   6.758   9.189   4.122  0.0783  0.0707 -0.0309
  155MOL0     O20820   6.721   9.091   4.036  0.1742  0.4263  0.1930
  155MOL0     C20821   6.653   8.972   4.077  0.6655  0.8741  0.5706
  155MOL0     C20822   6.571   8.966   4.184  0.0082  0.2067 -0.2777
  155MOL0     C20823   6.514   8.848   4.229  0.2218  0.1872  0.3968
  155MOL0     C20824   6.554   8.733   4.162 -0.5939 -0.7349  0.5441
  155MOL0     O20825   6.515   8.613   4.212  0.6862 -0.2978 -0.4339
  155MOL0     C20826   6.606   8.514   4.218 -0.8233  0.8209  0.5543
  155MOL0     C20827   6.544   8.389   4.287  0.2703  0.2148  0.5544
  155MOL0     C20828   6.441   8.306   4.210  0.1610  0.4242  0.2399
  155MOL0     C20829   6.503   8.195   4.119 -0.1268 -0.2734 -0.4766
  155MOL0     C20830   6.404   8.081   4.088  0.4431  0.6702 -0.6499
  155MOL0     C20831   6.275   8.128   4.023  0.2625 -0.4395  0.4775
  155MOL0     C20832   6.167   8.029   3.994  0.2733  0.2790 -0.1521
  155MOL0     C20833   6.099   8.062   3.858  0.5294  0.0126 -0.2534
  155MOL0    Cl20834   6.041   8.236   3.860 -0.2643 -0.3934 -0.3990
  155MOL0     C20835   6.631   8.740   4.045  0.0380 -0.1276 -0.4031
  155MOL0     C20836   6.683   8.862   4.001  0.5902 -0.2841  0.7216
  155MOL0     O20837   6.746   9.191   4.243 -0.1766 -0.2355 -0.0843
  155MOL0     C20838   6.883   9.301   3.930  0.0408  0.4363 -0.2159
  155MOL0     C20839   6.941   9.411   3.876  0.6857  0.1888 -0.5630
  155MOL0     N20840   6.524  10.023   3.953 -0.0887  0.6428  0.3024
  155MOL0     N20841   6.446  10.036   4.056 -1.0555 -0.8958 -0.1496
  155MOL0     C20842   6.224   9.369   4.500 -0.0411  1.0133 -0.5267
  155MOL0     C20843   6.140   9.256   4.482  0.7020  0.7705 -1.0471
  155MOL0     C20844   6.152   8.789   4.457  0.1648  0.4741 -0.1262
  155MOL0     C20845   6.246   8.694   4.417  0.9358  1.7820 -0.2397
  155MOL0     C20846   6.239   8.561   4.455 -0.4038  0.1459  0.3109
  155MOL0     C20847   6.155   8.526   4.560  0.2937 -1.5592  0.0514
  155MOL0     O20848   6.142   8.400   4.606 -0.2069 -0.5484  1.1627
  155MOL0     C20849   6.259   8.320   4.621  0.3973  0.1930  0.2881
  155MOL0     C20850   6.374   8.383   4.697 -1.1340  1.6178 -0.4377
  155MOL0     C20851   6.344   8.401   4.844  0.4260 -0.3807  0.2297
  155MOL0     C20852   6.467   8.470   4.908 -0.5600  0.2358  0.1136
  155MOL0     C20853   6.425   8.548   5.027 -0.3484  0.3638  0.7489
  155MOL0     C20854   6.370   8.586   5.129 -0.8356 -1.0036 -0.2327
  155MOL0     C20855   6.069   8.621   4.616  0.1365 -1.2281 -0.0100
  155MOL0     C20856   6.056   8.751   4.563  0.7934 -0.3523  0.5392
  155MOL0     C20857   5.956   8.841   4.631 -0.0022  0.3887 -0.2802
  155MOL0     H20858   6.375   9.017   4.510  1.0262  0.5872  2.5935
  155MOL0     H20859   6.529   9.224   4.504 -0.0256 -1.3879  2.4652
  155MOL0     H20860   6.644   9.421   4.495  1.2321 -0.2310 -2.5087
  155MOL0     H20861   6.545   9.405   4.350  2.3048  1.2729 -1.9270
  155MOL0     H20862   6.519   9.651   4.335 -0.3328  1.8312  0.5905
  155MOL0     H20863   6.677   9.578   4.314 -1.6555 -0.1063 -2.0460
  155MOL0     H20864   6.685   9.609   4.569 -2.7406 -4.1338 -1.7627
  155MOL0     H20865   6.561   9.740   4.555 -0.1188  0.4551 -1.9745
  155MOL0     H20866   6.814   9.812   4.535  0.9747  0.2165 -0.9866
  155MOL0     H20867   6.820   9.714   4.379 -1.8529  1.2746 -4.2336
  155MOL0     H20868   6.788   9.955   4.325  0.5561 -0.4348  0.7548
  155MOL0     H20869   6.638   9.867   4.297 -5.2703  0.6920  3.6583
  155MOL0     H20870   6.608   9.974   4.560 -1.7015  1.5767 -0.1080
  155MOL0     H20871   6.666  10.102   4.461  2.4249  0.0755 -1.5537
  155MOL0     H20872   6.417  10.017   4.483  0.0369 -1.6736  0.2434
  155MOL0     H20873   6.460   9.915   4.347  0.0904 -1.2007  1.4060
  155MOL0     H20874   6.359  10.149   4.292  0.3801  2.7987  2.1742
  155MOL0     H20875   6.517  10.211   4.329  0.5830 -0.1070 -1.0123
  155MOL0     H20876   6.732  10.121   4.184  1.9356  0.6673 -1.4430
  155MOL0     H20877   6.747  10.058   3.805  2.1612 -2.5278 -1.5032
  155MOL0     H20878   6.860  10.087   3.930  0.4260  0.9244 -1.5787
  155MOL0     H20879   6.830   9.830   4.002 -0.7306 -0.9892 -0.7478
  155MOL0     H20880   6.714   9.820   3.870 -0.3930 -0.2421  0.7932
  155MOL0     H20881   7.016   9.868   3.849 -0.7892 -0.1707 -0.0584
  155MOL0     H20882   6.905   9.874   3.709  1.5830 -1.0578 -1.1378
  155MOL0     H20883   7.001   9.667   3.688  4.9665  2.4428  2.5473
  155MOL0     H20884   6.854   9.620   3.761  3.3567 -4.6838 -2.2013
  155MOL0     H20885   6.931   9.625   4.131 -0.7645  0.2544 -0.6945
  155MOL0     H20886   6.825   9.425   4.240  1.6123  1.3880  0.7878
  155MOL0     H20887   6.549   9.059   4.236  3.2631  0.1697  1.4021
  155MOL0     H20888   6.440   8.854   4.308  0.0828 -3.3383  0.7037
  155MOL0     H20889   6.654   8.472   4.130  3.3557 -2.1152  3.8167
  155MOL0     H20890   6.702   8.530   4.269  2.2386 -3.9025 -2.8795
  155MOL0     H20891   6.628   8.323   4.311  1.5744 -0.2625 -4.2898
  155MOL0     H20892   6.500   8.417   4.383  0.4346  2.1424  0.1013
  155MOL0     H20893   6.380   8.260   4.288 -2.9963  1.9804 -1.1361
  155MOL0     H20894   6.386   8.373   4.143  3.0211 -0.4994 -3.3858
  155MOL0     H20895   6.584   8.139   4.167 -1.4835  0.1706  2.6065
  155MOL0     H20896   6.543   8.240   4.028  1.0868  3.4461  1.6821
  155MOL0     H20897   6.388   8.023   4.180 -1.7659 -1.0091 -1.9912
  155MOL0     H20898   6.448   8.010   4.016  0.9932  0.4052 -0.0654
  155MOL0     H20899   6.227   8.211   4.075 -2.7198 -1.1079 -0.9394
  155MOL0     H20900   6.308   8.162   3.924  3.4778 -0.9160  1.2661
  155MOL0     H20901   6.103   8.037   4.082  0.8869  2.6824  0.1354
  155MOL0     H20902   6.203   7.926   3.988 -0.6401 -0.0307 -0.6241
  155MOL0     H20903   6.174   8.051   3.780  0.0785  2.1192 -1.0476
  155MOL0     H20904   6.019   7.989   3.842  0.5819 -0.6187  1.9801
  155MOL0     H20905   6.659   8.644   4.002 -0.8101 -0.7430  0.3731
  155MOL0     H20906   6.753   8.870   3.918  0.1417 -0.9299  0.2765
  155MOL0     H20907   6.859   9.217   3.866  0.2887 -0.4807  0.8668
  155MOL0     H20908   6.973   9.414   3.773  1.6854 -0.2923 -0.2839
  155MOL0     H20909   6.191   9.472   4.507 -1.2607  0.8568 -2.8327
  155MOL0     H20910   6.034   9.278   4.482  0.7372  0.9543  0.0489
  155MOL0     H20911   6.324   8.713   4.344  0.3257  3.1623 -0.5655
  155MOL0     H20912   6.318   8.494   4.422 -1.5353 -0.4141 -1.3339
  155MOL0     H20913   6.299   8.285   4.526  2.3628  1.1335  0.7294
  155MOL0     H20914   6.230   8.237   4.687 -0.9579  2.8163  3.2595
  155MOL0     H20915   6.411   8.470   4.643 -0.1507  0.5978 -1.4661
  155MOL0     H20916   6.454   8.308   4.695 -0.1857  2.6186 -1.6288
  155MOL0     H20917   6.312   8.304   4.884  1.3698 -0.4020  0.9690
  155MOL0     H20918   6.255   8.464   4.853 -0.1996 -1.1203 -0.5779
  155MOL0     H20919   6.543   8.395   4.933 -0.2916  0.3000 -0.4863
  155MOL0     H20920   6.515   8.529   4.830 -0.4607  0.8386  0.6227
  155MOL0     H20921   6.316   8.620   5.215  0.4946 -1.3042  0.7602
  155MOL0     H20922   5.995   8.586   4.687 -1.4050  3.6674  1.2158
  155MOL0     H20923   6.013   8.925   4.673 -1.7817  1.8597 -0.6824
  155MOL0     H20924   5.892   8.889   4.557  0.8052  0.8213 -0.7171
  155MOL0     H20925   5.895   8.793   4.708  0.4845  1.5525  0.8769
  156MOL0     O20926   3.550   3.001   0.341 -0.2603  0.2230 -0.7799
  156MOL0     C20927   3.445   3.013   0.399  0.1798 -0.1077 -0.2217
  156MOL0     O20928   3.369   2.905   0.440 -0.4864 -0.4833 -0.4196
  156MOL0     C20929   3.389   2.785   0.377  0.4628 -0.2474  0.2491
  156MOL0     C20930   3.390   2.789   0.230 -0.0476 -1.0526 -0.3313
  156MOL0     C20931   3.410   2.677   0.155 -0.7212  0.0582 -0.7886
  156MOL0     C20932   3.439   2.559   0.229  0.8484  0.6137  0.5762
  156MOL0     O20933   3.453   2.445   0.154 -0.1917 -0.4419 -0.1674
  156MOL0     C20934   3.383   2.323   0.193 -1.2490 -0.0638 -0.4759
  156MOL0     C20935   3.361   2.254   0.064 -0.1335 -0.3035  1.0153
  156MOL0     C20936   3.293   2.120   0.094  0.6480 -0.3633 -0.6226
  156MOL0     C20937   3.147   2.142   0.146  0.2585  0.5622  0.1636
  156MOL0     C20938   3.119   2.048   0.269 -0.6296 -0.0678  0.3147
  156MOL0     C20939   3.212   2.093   0.384 -0.4031  0.3773 -0.0267
  156MOL0     C20940   3.179   2.000   0.503  0.6778 -0.0875 -0.5500
  156MOL0     C20941   3.252   2.032   0.638  0.7806 -0.2106 -1.4428
  156MOL0     N20942   3.393   2.039   0.623 -0.1112  0.6890 -0.2677
  156MOL0     C20943   3.461   2.162   0.609 -0.4258  0.0543  0.0720
  156MOL0     C20944   3.596   2.126   0.603 -0.0478  0.0336 -0.6003
  156MOL0     C20945   3.706   2.234   0.632  0.5719 -0.2003 -0.1057
  156MOL0     C20946   3.801   2.258   0.507 -0.4502 -0.9006  0.4690
  156MOL0     C20947   3.721   2.306   0.386 -0.7751 -0.4918  0.9638
  156MOL0     C20948   3.814   2.348   0.266  1.5079  0.5163  0.7279
  156MOL0     O20949   3.946   2.396   0.309  0.4833 -0.1300  0.3022
  156MOL0     C20950   3.935   2.523   0.361 -0.3662 -0.3472  0.4477
  156MOL0     C20951   4.026   2.546   0.460 -0.1727  0.3370 -0.0827
  156MOL0     C20952   4.027   2.659   0.536 -0.3615  0.0901 -0.4897
  156MOL0     C20953   3.946   2.766   0.507 -0.6033 -0.3512 -0.3890
  156MOL0     C20954   3.945   2.902   0.562  0.7056 -0.7804  0.2886
  156MOL0     O20955   3.887   2.993   0.482 -0.6052 -1.2097  0.9678
  156MOL0     C20956   3.893   3.126   0.511  0.7420  0.2934 -0.7041
  156MOL0     C20957   3.775   3.190   0.543  0.6808 -0.0824 -0.1407
  156MOL0     C20958   3.776   3.327   0.580 -0.0845 -1.5597  0.1322
  156MOL0     C20959   3.897   3.393   0.614 -0.6487  0.2934  0.1584
  156MOL0     O20960   3.915   3.513   0.678  0.1827  0.3907 -0.2461
  156MOL0     C20961   3.797   3.596   0.693  0.7893  0.9082 -0.2022
  156MOL0     C20962   3.710   3.543   0.816  0.9458  0.0077 -0.6190
  156MOL0     C20963   3.760   3.604   0.943 -0.4054 -0.4330 -0.7707
  156MOL0     C20964   3.690   3.576   1.073 -0.2756 -0.1513  0.1169
  156MOL0     C20965   3.755   3.640   1.195 -0.1609  0.1524 -0.8584
  156MOL0     C20966   3.682   3.598   1.328  0.1411  0.5525 -0.2747
  156MOL0     C20967   3.770   3.667   1.440 -0.0332 -0.7297 -0.5628
  156MOL0     C20968   3.713   3.643   1.577  0.5929  0.7518  2.0407
  156MOL0    Cl20969   3.584   3.761   1.605  0.0157 -0.3773  0.0420
  156MOL0     C20970   4.017   3.325   0.583 -0.2363 -1.0249 -0.1559
  156MOL0     C20971   4.011   3.196   0.531  0.3670  0.5326 -0.8395
  156MOL0     O20972   3.992   2.924   0.678  0.2842  0.3169  0.2837
  156MOL0     C20973   3.844   2.747   0.404 -0.3844  0.5351  0.8637
  156MOL0     C20974   3.843   2.623   0.331  0.1024 -0.8282  0.1852
  156MOL0     N20975   3.606   1.987   0.634  0.0634 -0.0139 -0.7406
  156MOL0     N20976   3.486   1.939   0.642 -0.0838 -1.4657  0.5313
  156MOL0     C20977   3.420   2.548   0.370 -0.3833 -0.0209 -0.5151
  156MOL0     C20978   3.396   2.669   0.443 -0.4922 -0.0350  0.0725
  156MOL0     C20979   3.414   3.146   0.446 -0.1362  0.0869  0.9303
  156MOL0     C20980   3.394   3.156   0.576 -0.4402 -0.3988 -0.7159
  156MOL0     C20981   3.378   3.281   0.633 -0.0396 -0.1732 -0.1807
  156MOL0     C20982   3.395   3.401   0.559 -0.3915 -0.6502 -1.2089
  156MOL0     O20983   3.394   3.518   0.630  0.4044  0.0731 -0.4601
  156MOL0     C20984   3.369   3.635   0.568 -0.1687 -1.5507  0.0226
  156MOL0     C20985   3.407   3.755   0.660 -0.2319 -0.2266  0.4708
  156MOL0     C20986   3.511   3.856   0.609 -0.5844 -0.6633 -0.9309
  156MOL0     C20987   3.574   3.936   0.726  0.2230 -0.0727  0.6347
  156MOL0     C20988   3.484   4.006   0.824  0.1162 -0.1580 -1.1188
  156MOL0     C20989   3.425   4.051   0.923 -0.0869  0.2967  0.1942
  156MOL0     C20990   3.413   3.388   0.419 -0.2098 -0.1443 -0.3039
  156MOL0     C20991   3.416   3.262   0.356 -0.4381 -0.6401 -0.3272
  156MOL0     C20992   3.445   3.249   0.206  0.1209 -0.7720 -1.2082
  156MOL0     H20993   3.371   2.890   0.195 -1.0613 -0.3773  1.9565
  156MOL0     H20994   3.411   2.685   0.046  0.1656  0.4265 -0.7698
  156MOL0     H20995   3.458   2.261   0.245  0.5336  1.0054 -1.6504
  156MOL0     H20996   3.296   2.338   0.258  0.1803 -0.9834  1.7883
  156MOL0     H20997   3.450   2.245   0.002 -0.9095  2.1450 -0.6078
  156MOL0     H20998   3.295   2.316   0.003  0.3972 -0.7920 -0.0848
  156MOL0     H20999   3.352   2.061   0.164 -1.3796 -0.3372  1.2284
  156MOL0     H21000   3.285   2.059   0.004  0.9008 -2.0271  0.4524
  156MOL0     H21001   3.116   2.246   0.162 -2.1960 -0.5311  3.7259
  156MOL0     H21002   3.079   2.095   0.074 -1.2805  0.2864  1.7445
  156MOL0     H21003   3.016   2.059   0.305 -1.0698 -2.5927  0.0617
  156MOL0     H21004   3.137   1.943   0.245 -1.2674  0.2331 -1.6288
  156MOL0     H21005   3.319   2.082   0.364 -0.5001 -3.0672  0.7998
  156MOL0     H21006   3.193   2.197   0.413  0.5106  0.3606  0.7023
  156MOL0     H21007   3.217   1.901   0.474  4.2371  0.1977  2.4001
  156MOL0     H21008   3.073   1.986   0.523  1.1601 -1.9510  1.0507
  156MOL0     H21009   3.213   2.125   0.682  0.4964 -1.8278  2.0517
  156MOL0     H21010   3.218   1.945   0.694 -2.1744  0.7351 -1.5474
  156MOL0     H21011   3.434   2.267   0.618 -0.6199 -0.0832  1.1571
  156MOL0     H21012   3.661   2.331   0.655  2.1334  0.0300  2.3667
  156MOL0     H21013   3.766   2.200   0.717  0.1881 -0.1567  0.1809
  156MOL0     H21014   3.881   2.326   0.539  0.7256 -2.1681  0.3417
  156MOL0     H21015   3.848   2.165   0.472 -2.4021 -1.9170  0.4124
  156MOL0     H21016   3.674   2.402   0.411  1.1306  0.7531  0.0331
  156MOL0     H21017   3.638   2.240   0.360 -0.4076 -1.7198  2.7489
  156MOL0     H21018   3.776   2.420   0.194  2.7256 -1.9488 -2.6353
  156MOL0     H21019   3.832   2.253   0.214  1.6703 -0.9273  3.2246
  156MOL0     H21020   4.094   2.464   0.484 -1.5097 -0.5844  0.6643
  156MOL0     H21021   4.080   2.676   0.629 -0.9564 -0.4569 -0.0442
  156MOL0     H21022   3.676   3.146   0.537  0.7572 -1.1582  3.7126
  156MOL0     H21023   3.679   3.369   0.603 -0.6431 -3.6349  1.8689
  156MOL0     H21024   3.825   3.701   0.708  1.4131  0.6872  0.2566
  156MOL0     H21025   3.733   3.594   0.605  0.0903 -1.5519  0.2785
  156MOL0     H21026   3.604   3.561   0.796  0.6055 -2.3383 -1.2626
  156MOL0     H21027   3.718   3.434   0.826 -2.0404 -0.2502 -0.3344
  156MOL0     H21028   3.868   3.587   0.952  0.1983 -0.5942 -5.7310
  156MOL0     H21029   3.756   3.713   0.936 -1.2394 -0.4672 -0.8288
  156MOL0     H21030   3.680   3.467   1.081  0.6947 -0.2954 -0.4837
  156MOL0     H21031   3.589   3.619   1.069  0.5005  2.4867  3.5642
  156MOL0     H21032   3.766   3.748   1.192  3.2941 -0.0661 -0.2217
  156MOL0     H21033   3.855   3.597   1.206 -0.6127 -0.4866  1.4349
  156MOL0     H21034   3.583   3.641   1.349 -0.5244 -1.2147  0.3682
  156MOL0     H21035   3.678   3.490   1.344  1.4095  0.6655  1.0445
  156MOL0     H21036   3.789   3.775   1.429  2.2983 -0.5456  3.4962
  156MOL0     H21037   3.871   3.624   1.439  1.2117  1.9386 -2.0238
  156MOL0     H21038   3.662   3.546   1.584 -1.2325  1.6651  1.9847
  156MOL0     H21039   3.789   3.663   1.653  1.4882 -4.5219  2.9127
  156MOL0     H21040   4.115   3.371   0.586 -0.2141 -1.1023  0.3831
  156MOL0     H21041   4.110   3.160   0.502  0.0585  2.2083 -4.6700
  156MOL0     H21042   3.774   2.822   0.368 -2.4238 -0.2010  3.0483
  156MOL0     H21043   3.760   2.610   0.263 -0.4740 -0.4186  0.8004
  156MOL0     H21044   3.435   2.460   0.431 -0.4930  1.1938  1.3161
  156MOL0     H21045   3.407   2.665   0.551  3.0129 -2.5334 -0.1951
  156MOL0     H21046   3.359   3.072   0.634 -0.5300  1.8826  2.8583
  156MOL0     H21047   3.354   3.275   0.738  0.0369  1.8654 -0.0142
  156MOL0     H21048   3.265   3.642   0.536  1.1462  2.3183 -4.5144
  156MOL0     H21049   3.432   3.638   0.478 -0.7678 -1.9213 -0.4134
  156MOL0     H21050   3.444   3.700   0.747  0.8783 -3.1938 -1.7190
  156MOL0     H21051   3.314   3.810   0.674 -0.3694  0.2980 -2.0465
  156MOL0     H21052   3.477   3.920   0.527 -1.2289 -0.8787 -0.8287
  156MOL0     H21053   3.585   3.798   0.552 -1.8641 -1.0169 -2.2984
  156MOL0     H21054   3.653   3.878   0.775 -1.1187 -0.2134  2.7529
  156MOL0     H21055   3.633   4.018   0.682  0.0899 -0.1064  0.3902
  156MOL0     H21056   3.388   4.073   1.021  1.2863  2.7843  0.2133
  156MOL0     H21057   3.434   3.472   0.352  0.4174  0.3664  0.5220
  156MOL0     H21058   3.438   3.144   0.175  0.4947 -0.8821 -0.9239
  156MOL0     H21059   3.355   3.293   0.162 -1.8052  0.7487  3.6476
  156MOL0     H21060   3.544   3.290   0.182 -0.9277  1.2715 -2.2513
  157MOL0     O21061   9.773  10.151   4.688 -0.9270 -0.9517 -0.4958
  157MOL0     C21062   9.704  10.109   4.599  0.3646 -0.6072 -0.2796
  157MOL0     O21063   9.742  10.025   4.496  0.6552  0.1408  0.0444
  157MOL0     C21064   9.873   9.997   4.484  0.1260  0.2912  1.2038
  157MOL0     C21065   9.946   9.932   4.585  0.6054 -0.1275 -0.3831
  157MOL0     C21066  10.072   9.889   4.572 -0.2846 -0.7347 -0.5598
  157MOL0     C21067  10.139   9.917   4.448  0.1171  0.1260 -0.0159
  157MOL0     O21068  10.276   9.888   4.420 -0.1832 -0.5922 -0.3310
  157MOL0     C21069  10.340   9.789   4.506 -0.6593  0.2406  1.2883
  157MOL0     C21070  10.455   9.735   4.425 -0.0285 -0.7861  0.3674
  157MOL0     C21071  10.550   9.640   4.494  0.4791  0.3816 -0.2552
  157MOL0     C21072  10.483   9.502   4.509 -1.0507 -0.3014 -0.0157
  157MOL0     C21073  10.582   9.388   4.548  1.0522 -0.4766  1.0695
  157MOL0     C21074  10.663   9.411   4.674  0.5415  0.0354 -0.5493
  157MOL0     C21075  10.724   9.283   4.739  0.1741  0.0543 -0.2461
  157MOL0     C21076  10.772   9.302   4.880  0.0471 -0.0998  0.3603
  157MOL0     N21077  10.884   9.394   4.887 -0.7860  0.2534  0.8870
  157MOL0     C21078  10.999   9.391   4.819  0.1073 -0.2543 -0.3636
  157MOL0     C21079  11.069   9.497   4.856  0.4815 -0.3614 -0.0766
  157MOL0     C21080  11.195   9.561   4.801 -0.0056  0.3124  0.3248
  157MOL0     C21081  11.291   9.583   4.921 -0.0678  0.2898 -0.9836
  157MOL0     C21082  11.362   9.460   4.986  0.8091 -0.3581  0.8644
  157MOL0     C21083  11.469   9.505   5.081  0.7741  0.4027 -0.1726
  157MOL0     O21084  11.587   9.525   5.007 -0.1652 -0.2080  0.3049
  157MOL0     C21085  11.687   9.437   4.990 -0.4028  0.0360 -0.5484
  157MOL0     C21086  11.668   9.301   5.001 -0.2071 -0.5035 -0.9769
  157MOL0     C21087  11.771   9.209   4.976 -0.3393  0.4220  0.1007
  157MOL0     C21088  11.904   9.254   4.952 -0.1100  0.5248 -0.6646
  157MOL0     C21089  12.019   9.164   4.934 -0.1865 -0.4550  0.0216
  157MOL0     O21090  12.146   9.224   4.924  0.3681 -0.1611 -0.1975
  157MOL0     C21091  12.262   9.151   4.935  0.6495  0.2556  0.0972
  157MOL0     C21092  12.376   9.218   4.909 -0.0907 -0.4870  0.4762
  157MOL0     C21093  12.497   9.158   4.919 -0.7427  0.3628  0.7212
  157MOL0     C21094  12.511   9.039   4.979  0.3212 -0.2522  0.6350
  157MOL0     O21095  12.628   8.979   5.005 -1.0826 -0.2289  0.6911
  157MOL0     C21096  12.657   8.933   5.145  0.3548  0.1718 -0.4828
  157MOL0     C21097  12.794   8.873   5.164 -1.1418 -0.8688  0.1666
  157MOL0     C21098  12.907   8.960   5.082  0.2798 -0.0433 -0.4997
  157MOL0     C21099  12.915   9.109   5.124  0.3655  0.3192 -1.4807
  157MOL0     C21100  13.033   9.191   5.069  0.1925 -0.2670 -0.0381
  157MOL0     C21101  12.999   9.337   5.072 -0.3283  0.0726 -0.1938
  157MOL0     C21102  13.134   9.411   5.073  0.6188 -0.2346 -0.1208
  157MOL0     C21103  13.251   9.383   4.970  0.3265 -0.0132  1.0720
  157MOL0    Cl21104  13.194   9.431   4.802 -0.1708  0.5861 -0.3323
  157MOL0     C21105  12.400   8.965   5.020 -0.5103 -0.8847 -0.4235
  157MOL0     C21106  12.272   9.025   4.996  1.3102 -0.9599 -0.6397
  157MOL0     O21107  11.991   9.045   4.919 -0.9280 -0.0971 -0.1673
  157MOL0     C21108  11.927   9.395   4.956  1.0809 -0.2923 -1.2704
  157MOL0     C21109  11.820   9.479   4.971 -0.4228  0.2450 -0.1906
  157MOL0     N21110  11.004   9.545   4.959  0.9714 -1.0193 -0.4300
  157MOL0     N21111  10.890   9.495   4.974  0.1260 -0.0117  0.0180
  157MOL0     C21112  10.072   9.997   4.347 -0.1713 -1.4513 -0.5558
  157MOL0     C21113   9.944  10.044   4.367 -0.2810  0.5987 -0.3079
  157MOL0     C21114   9.575  10.183   4.582 -0.2926  0.4129  0.2803
  157MOL0     C21115   9.540  10.230   4.452 -0.1831 -0.6672  0.2696
  157MOL0     C21116   9.410  10.278   4.428  0.0968 -0.2110  0.0679
  157MOL0     C21117   9.330  10.304   4.538 -0.6351 -0.0719  0.8338
  157MOL0     O21118   9.200  10.353   4.516  0.6368 -0.9474  0.7768
  157MOL0     C21119   9.208  10.476   4.438 -0.4097  0.7592  0.1021
  157MOL0     C21120   9.094  10.574   4.477  0.6651 -0.9042 -0.2326
  157MOL0     C21121   9.131  10.723   4.447  0.7611  0.7351 -0.2948
  157MOL0     C21122   9.260  10.773   4.523  0.0774 -0.1508 -0.4943
  157MOL0     C21123   9.235  10.782   4.666 -0.6131  0.8598  0.4812
  157MOL0     C21124   9.209  10.785   4.787  1.2109  0.0578  0.1686
  157MOL0     C21125   9.364  10.280   4.668 -0.0207 -1.2612  0.2543
  157MOL0     C21126   9.488  10.214   4.695  0.1223 -0.1960  1.0531
  157MOL0     C21127   9.500  10.153   4.827 -0.8258 -0.0343  0.7398
  157MOL0     H21128   9.894   9.903   4.676  2.1110  1.6464  1.1231
  157MOL0     H21129  10.122   9.847   4.659 -2.6848 -2.8450 -0.0875
  157MOL0     H21130  10.354   9.821   4.610  0.1584  0.0778  1.2364
  157MOL0     H21131  10.270   9.708   4.529 -1.7613 -0.3132 -3.1847
  157MOL0     H21132  10.510   9.827   4.403  1.8585 -2.1350 -0.8772
  157MOL0     H21133  10.417   9.687   4.334 -0.1209 -1.3534  0.7049
  157MOL0     H21134  10.581   9.670   4.594  0.3457  0.2313 -0.1671
  157MOL0     H21135  10.643   9.630   4.438  1.6050 -0.6373  1.6956
  157MOL0     H21136  10.396   9.502   4.574 -1.2755  1.8981 -0.2642
  157MOL0     H21137  10.439   9.476   4.412 -1.8761  0.9923 -0.0127
  157MOL0     H21138  10.522   9.296   4.548 -0.9029  0.6888 -0.7840
  157MOL0     H21139  10.647   9.373   4.462 -0.7889 -1.3900 -0.2466
  157MOL0     H21140  10.744   9.482   4.651  1.7794 -0.4354  2.0326
  157MOL0     H21141  10.590   9.462   4.738 -2.3166  0.6837 -4.0007
  157MOL0     H21142  10.810   9.234   4.692 -0.5081 -4.1134  2.3883
  157MOL0     H21143  10.657   9.199   4.754 -1.1157  1.2022  0.6624
  157MOL0     H21144  10.686   9.344   4.931 -0.6318  2.5472 -2.6771
  157MOL0     H21145  10.793   9.203   4.923 -0.4128  0.2101  1.3272
  157MOL0     H21146  11.013   9.322   4.736  0.1441 -3.8136  2.3763
  157MOL0     H21147  11.237   9.483   4.736  0.9259 -1.1027  2.5159
  157MOL0     H21148  11.188   9.658   4.750  2.0978  1.6350  2.3841
  157MOL0     H21149  11.371   9.645   4.879  1.0434 -0.2113  0.3594
  157MOL0     H21150  11.249   9.648   4.999  1.9872 -0.0076  0.4597
  157MOL0     H21151  11.410   9.396   4.911  0.6405 -0.0014  0.4483
  157MOL0     H21152  11.301   9.387   5.040  0.1763 -0.2415  0.3203
  157MOL0     H21153  11.485   9.428   5.157 -0.0766 -1.5109 -1.8442
  157MOL0     H21154  11.440   9.596   5.135  0.5877 -1.3987  3.0196
  157MOL0     H21155  11.572   9.256   5.025  0.1691 -0.8893 -0.1625
  157MOL0     H21156  11.748   9.103   4.981  0.8383  0.0731 -1.3629
  157MOL0     H21157  12.367   9.313   4.856  0.0823 -0.1236  1.0837
  157MOL0     H21158  12.579   9.225   4.895  0.6867 -1.4059  0.4322
  157MOL0     H21159  12.658   9.019   5.214 -0.6141  1.0083 -1.4717
  157MOL0     H21160  12.596   8.851   5.184  2.0742  0.0461  2.1738
  157MOL0     H21161  12.808   8.867   5.272  1.6784  2.4482  0.1903
  157MOL0     H21162  12.809   8.769   5.135  2.1380 -0.7952  1.1790
  157MOL0     H21163  13.008   8.927   5.108  0.5458 -0.3317 -1.8554
  157MOL0     H21164  12.881   8.960   4.976  1.7509 -0.7339 -0.8900
  157MOL0     H21165  12.912   9.118   5.233 -0.7695  0.8812 -1.5405
  157MOL0     H21166  12.823   9.164   5.100 -0.0816  0.3189  0.1021
  157MOL0     H21167  13.058   9.163   4.966 -2.0525 -0.0304 -0.7063
  157MOL0     H21168  13.114   9.171   5.139 -0.1095 -0.5848  0.2221
  157MOL0     H21169  12.944   9.374   4.985  0.1388 -1.1748 -1.0391
  157MOL0     H21170  12.946   9.369   5.163  1.2502  0.2894  0.6832
  157MOL0     H21171  13.171   9.399   5.175  0.3784 -0.3488 -0.0455
  157MOL0     H21172  13.105   9.515   5.057  1.1666 -0.3742 -2.3691
  157MOL0     H21173  13.320   9.463   4.996 -0.0358  0.6340  0.0902
  157MOL0     H21174  13.302   9.287   4.981  1.5982  0.5925  0.6212
  157MOL0     H21175  12.401   8.876   5.082 -1.0217 -0.1231  0.6917
  157MOL0     H21176  12.184   8.975   5.034 -0.7231  2.5054 -0.3514
  157MOL0     H21177  12.025   9.439   4.940  1.8699  0.3458  3.6984
  157MOL0     H21178  11.841   9.585   4.968  2.0335 -0.1844 -0.2929
  157MOL0     H21179  10.131  10.018   4.259 -2.0898 -2.3794 -2.1183
  157MOL0     H21180   9.890  10.100   4.290 -3.7528  0.0413  1.5093
  157MOL0     H21181   9.607  10.216   4.368 -1.9435 -2.0424 -0.9758
  157MOL0     H21182   9.399  10.308   4.325  2.8437  5.3864  0.9921
  157MOL0     H21183   9.201  10.453   4.331  0.4209  0.6136  0.0757
  157MOL0     H21184   9.299  10.530   4.464 -0.9341  1.3277  0.8146
  157MOL0     H21185   9.075  10.556   4.583 -0.1803  3.1337  0.4701
  157MOL0     H21186   9.004  10.551   4.421 -0.3744  1.9969  0.0954
  157MOL0     H21187   9.044  10.787   4.461 -1.9232 -2.0752 -2.6820
  157MOL0     H21188   9.137  10.722   4.338  3.3250  4.3329 -0.3779
  157MOL0     H21189   9.350  10.718   4.494  0.3302  0.6594 -1.2976
  157MOL0     H21190   9.280  10.874   4.485 -1.2348  0.2360 -0.1985
  157MOL0     H21191   9.186  10.777   4.891 -0.2692 -0.1936 -0.1605
  157MOL0     H21192   9.292  10.313   4.742  0.1578  2.1933 -0.9679
  157MOL0     H21193   9.473  10.047   4.818  2.7605 -1.0470  0.4523
  157MOL0     H21194   9.603  10.144   4.861 -0.4468  0.4519 -0.2252
  157MOL0     H21195   9.452  10.200   4.913 -0.9003  1.4231 -0.0750
  158MOL0     O21196   1.049   6.128   3.410 -0.0270  0.5377 -0.3254
  158MOL0     C21197   0.946   6.069   3.371  0.5862 -0.0763  0.6629
  158MOL0     O21198   0.835   6.040   3.443 -0.5953 -0.7653 -0.5128
  158MOL0     C21199   0.850   6.044   3.583  0.4696 -0.8885 -0.0874
  158MOL0     C21200   0.818   6.158   3.666  0.5018 -0.2293  0.1321
  158MOL0     C21201   0.853   6.166   3.805  0.1118 -0.2922  0.1598
  158MOL0     C21202   0.912   6.058   3.868  0.3722 -0.1324  0.0282
  158MOL0     O21203   0.953   6.066   4.005  0.2915 -0.0794  0.5436
  158MOL0     C21204   0.848   6.058   4.105  0.1019  0.2032 -0.7905
  158MOL0     C21205   0.866   6.170   4.206 -0.3532 -0.2590 -0.3229
  158MOL0     C21206   0.748   6.175   4.309 -0.4637 -0.4180 -0.6465
  158MOL0     C21207   0.791   6.280   4.415 -0.2657  0.2315  0.0472
  158MOL0     C21208   0.685   6.307   4.506 -0.8268  0.7742 -0.6888
  158MOL0     C21209   0.601   6.416   4.448  0.4361  0.0087 -1.1024
  158MOL0     C21210   0.455   6.408   4.495 -0.0084 -0.1145  0.5516
  158MOL0     C21211   0.383   6.538   4.493  0.0868  0.2592 -1.0921
  158MOL0     N21212   0.438   6.636   4.572 -1.4528 -0.2544 -0.3962
  158MOL0     C21213   0.449   6.626   4.710  0.2530  0.2326  0.0204
  158MOL0     C21214   0.494   6.746   4.742  0.0707  1.1652 -0.0811
  158MOL0     C21215   0.494   6.812   4.872  0.4222  0.6097  0.3255
  158MOL0     C21216   0.628   6.822   4.928 -0.3475 -0.2631  0.4787
  158MOL0     C21217   0.651   6.933   5.035  0.2405  1.2618  0.4789
  158MOL0     C21218   0.666   6.874   5.179  0.4062  0.8731  0.1895
  158MOL0     O21219   0.774   6.782   5.185 -0.0762  0.2534 -0.0544
  158MOL0     C21220   0.845   6.786   5.301 -0.7456 -0.4217  1.0720
  158MOL0     C21221   0.971   6.843   5.284  0.7790 -0.5496 -0.2323
  158MOL0     C21222   1.055   6.851   5.393 -0.0227  0.1352 -0.5070
  158MOL0     C21223   1.007   6.812   5.518  0.4146 -0.3863 -0.7824
  158MOL0     C21224   1.092   6.836   5.644  1.3422 -0.9281  0.1715
  158MOL0     O21225   1.022   6.831   5.768  0.3725 -0.2612  0.4713
  158MOL0     C21226   1.090   6.846   5.884 -0.0836  0.3499 -0.5856
  158MOL0     C21227   1.049   6.936   5.979 -0.9929  0.3167  0.0987
  158MOL0     C21228   1.103   6.947   6.097 -0.1083 -0.0585 -0.2324
  158MOL0     C21229   1.203   6.855   6.136 -1.1669 -0.7516  0.1602
  158MOL0     O21230   1.258   6.840   6.264 -0.0199  0.0058  0.8209
  158MOL0     C21231   1.168   6.854   6.367 -0.4621 -0.2067  0.1744
  158MOL0     C21232   1.236   6.800   6.492 -0.2732 -0.2656  0.4543
  158MOL0     C21233   1.270   6.645   6.465  0.7152  0.2231 -1.8519
  158MOL0     C21234   1.376   6.595   6.558 -0.4520  0.5010 -0.0330
  158MOL0     C21235   1.466   6.478   6.492 -0.1901 -0.2545 -0.9544
  158MOL0     C21236   1.556   6.414   6.604  0.3912 -0.2110 -0.8026
  158MOL0     C21237   1.688   6.360   6.540  0.4253  1.0023 -0.3204
  158MOL0     C21238   1.788   6.292   6.640 -0.2096 -0.1583 -0.1019
  158MOL0    Cl21239   1.952   6.237   6.569 -0.1900 -0.0623 -0.0602
  158MOL0     C21240   1.250   6.763   6.040 -0.7108  0.4129  0.0656
  158MOL0     C21241   1.193   6.761   5.914  1.0746 -0.3531  0.4119
  158MOL0     O21242   1.204   6.889   5.631 -0.7015  0.5876  0.2082
  158MOL0     C21243   0.885   6.757   5.535  1.1663  0.1832 -0.2110
  158MOL0     C21244   0.798   6.746   5.427  1.0965 -0.0103  0.0643
  158MOL0     N21245   0.531   6.820   4.629  1.1304  0.4708 -0.1409
  158MOL0     N21246   0.506   6.740   4.526 -0.1817  0.2404 -0.0775
  158MOL0     C21247   0.935   5.943   3.790 -0.0342 -1.1351  0.2912
  158MOL0     C21248   0.912   5.941   3.646  0.1801 -0.5422  0.2548
  158MOL0     C21249   0.934   6.050   3.221 -0.6198  0.1542 -0.8501
  158MOL0     C21250   0.983   6.160   3.137 -0.4178  0.1013  0.0950
  158MOL0     C21251   0.953   6.139   2.998  0.1809 -0.3067 -0.1606
  158MOL0     C21252   0.917   6.020   2.940  1.1546 -0.4257  0.1686
  158MOL0     O21253   0.931   6.016   2.799  0.1666  0.4816 -0.6209
  158MOL0     C21254   0.858   5.903   2.735 -0.2528 -0.7435  0.4135
  158MOL0     C21255   0.701   5.925   2.760 -0.2396 -0.0318 -0.1001
  158MOL0     C21256   0.617   5.833   2.671  0.5473  0.0046 -0.4702
  158MOL0     C21257   0.465   5.858   2.692 -0.0129  0.0726  0.2118
  158MOL0     C21258   0.382   5.758   2.614  0.0575 -1.0672 -0.6242
  158MOL0     C21259   0.301   5.700   2.546 -0.2651 -0.1772  0.3971
  158MOL0     C21260   0.900   5.908   3.022 -0.0570  0.8497  0.3409
  158MOL0     C21261   0.900   5.921   3.167  0.4290 -1.0568  0.6640
  158MOL0     C21262   0.881   5.803   3.258 -0.2892  0.2716 -0.0797
  158MOL0     H21263   0.787   6.249   3.614 -0.4927  0.0736  1.2223
  158MOL0     H21264   0.833   6.256   3.863 -0.7167  0.4889 -1.2942
  158MOL0     H21265   0.749   6.081   4.065 -0.2980  0.4312  0.2868
  158MOL0     H21266   0.851   5.962   4.156 -2.2224  0.6625  0.3381
  158MOL0     H21267   0.873   6.265   4.153  0.6822 -0.1092  0.0707
  158MOL0     H21268   0.961   6.153   4.258 -0.8621  1.8911  1.5237
  158MOL0     H21269   0.736   6.077   4.355 -0.0576 -1.3207 -2.3871
  158MOL0     H21270   0.652   6.202   4.263 -0.0949  3.6639  0.5283
  158MOL0     H21271   0.874   6.237   4.472  0.6056 -1.0442 -2.0261
  158MOL0     H21272   0.818   6.375   4.368  1.5722  0.7684  2.0450
  158MOL0     H21273   0.620   6.223   4.530 -0.0684  0.1114 -0.8895
  158MOL0     H21274   0.726   6.336   4.603  0.6595  0.2202 -1.1157
  158MOL0     H21275   0.648   6.512   4.476 -0.2616  0.0008  0.1539
  158MOL0     H21276   0.597   6.424   4.339 -1.3528  1.5989 -0.9658
  158MOL0     H21277   0.441   6.357   4.590 -0.3412 -0.6511  0.2250
  158MOL0     H21278   0.400   6.345   4.424 -2.5056 -0.8325  2.9547
  158MOL0     H21279   0.370   6.570   4.389  1.4116 -1.6131 -1.9010
  158MOL0     H21280   0.279   6.520   4.523  1.2001 -1.5228  2.2629
  158MOL0     H21281   0.426   6.553   4.786 -0.9897  0.5940  0.0054
  158MOL0     H21282   0.441   6.906   4.854 -0.9009 -0.3881 -1.2911
  158MOL0     H21283   0.445   6.746   4.944 -1.0085  1.3129  0.0273
  158MOL0     H21284   0.660   6.723   4.959 -0.0036 -0.3896 -0.2554
  158MOL0     H21285   0.696   6.866   4.854 -0.9931 -2.1134 -1.3157
  158MOL0     H21286   0.579   7.014   5.034 -0.6935  0.4740 -1.7789
  158MOL0     H21287   0.742   6.986   5.004 -0.1580  0.5647 -2.0854
  158MOL0     H21288   0.578   6.821   5.215 -0.0593  0.9482 -0.8153
  158MOL0     H21289   0.700   6.953   5.248  0.6827  1.2225 -0.3427
  158MOL0     H21290   0.988   6.888   5.187 -0.3030 -3.7806 -2.0656
  158MOL0     H21291   1.147   6.907   5.380  0.3801  0.0191  1.4996
  158MOL0     H21292   0.958   6.991   5.957  0.2570  2.5608  0.2708
  158MOL0     H21293   1.062   7.017   6.169 -0.2608 -0.4992  0.1159
  158MOL0     H21294   1.133   6.953   6.399 -1.1296 -0.9055  1.7040
  158MOL0     H21295   1.080   6.796   6.339 -2.2080  2.9273 -1.4745
  158MOL0     H21296   1.329   6.856   6.507 -0.7871  0.9773 -0.7569
  158MOL0     H21297   1.179   6.825   6.582 -0.0881  2.1255 -0.0336
  158MOL0     H21298   1.179   6.586   6.481  2.0681 -1.2949  0.9746
  158MOL0     H21299   1.312   6.625   6.367  1.3505  0.2089 -1.5813
  158MOL0     H21300   1.316   6.564   6.645 -4.7444  0.5162 -2.7267
  158MOL0     H21301   1.447   6.673   6.588  0.8925 -1.0739  1.0856
  158MOL0     H21302   1.529   6.522   6.414  0.3820 -3.0089 -2.1561
  158MOL0     H21303   1.412   6.400   6.439 -1.2508 -1.0363  1.1726
  158MOL0     H21304   1.587   6.485   6.680  4.8915 -2.9258  0.2866
  158MOL0     H21305   1.504   6.332   6.655 -2.0972  1.8232  0.1401
  158MOL0     H21306   1.729   6.452   6.497 -1.7244  2.2667  0.1645
  158MOL0     H21307   1.660   6.293   6.458  0.6866  2.8963 -2.0545
  158MOL0     H21308   1.810   6.368   6.715 -1.4855 -0.7220  0.8880
  158MOL0     H21309   1.728   6.208   6.676 -2.5563  1.4648  0.0107
  158MOL0     H21310   1.327   6.693   6.071 -0.6552  0.4642  0.0435
  158MOL0     H21311   1.225   6.694   5.835 -2.2562  0.2157 -1.6141
  158MOL0     H21312   0.861   6.739   5.639 -0.1246  0.0264 -0.5262
  158MOL0     H21313   0.693   6.720   5.426 -0.2391  4.1513 -4.2060
  158MOL0     H21314   0.987   5.859   3.835  0.7742 -1.5855 -1.3799
  158MOL0     H21315   0.929   5.851   3.587  1.3875 -0.4161  0.3843
  158MOL0     H21316   1.010   6.254   3.184 -3.1999  0.8784  0.3476
  158MOL0     H21317   0.981   6.212   2.922  3.8843 -5.7690 -4.9515
  158MOL0     H21318   0.895   5.805   2.766 -0.8465 -1.5685 -1.3047
  158MOL0     H21319   0.870   5.906   2.626 -0.5818 -3.1036  0.2608
  158MOL0     H21320   0.685   6.031   2.737  0.9337  1.4211  4.5774
  158MOL0     H21321   0.678   5.914   2.867  1.5338 -1.7329  0.1520
  158MOL0     H21322   0.638   5.726   2.677 -0.0775 -0.2812 -2.4131
  158MOL0     H21323   0.632   5.861   2.566  0.7472 -2.5278 -1.1725
  158MOL0     H21324   0.441   5.841   2.797  0.5212 -1.4904  0.1033
  158MOL0     H21325   0.436   5.963   2.679  0.7197 -0.0633 -3.6040
  158MOL0     H21326   0.240   5.650   2.473  0.9968 -1.5310  0.2345
  158MOL0     H21327   0.877   5.811   2.980  1.9469  0.4400  0.1118
  158MOL0     H21328   0.861   5.716   3.195 -0.7082  1.5080 -1.7437
  158MOL0     H21329   0.970   5.798   3.321 -1.1785  1.2327  1.3316
  158MOL0     H21330   0.798   5.812   3.329  0.5368 -0.2712  0.9598
  159MOL0     O21331   8.004   3.140   0.859  0.1390  0.5070  0.1334
  159MOL0     C21332   7.889   3.110   0.834 -0.3417  0.1721  0.7322
  159MOL0     O21333   7.795   3.205   0.807  0.1343 -0.0332  0.3112
  159MOL0     C21334   7.839   3.339   0.827  0.4826 -0.1383  0.9714
  159MOL0     C21335   7.831   3.405   0.954 -0.5440 -0.3158  0.1985
  159MOL0     C21336   7.858   3.542   0.957 -0.5047  0.1536 -0.8308
  159MOL0     C21337   7.895   3.604   0.831  0.3553  0.8022 -0.0718
  159MOL0     O21338   7.911   3.738   0.828  0.0154  0.0735 -0.2116
  159MOL0     C21339   7.833   3.816   0.740 -0.0604 -0.0095 -0.2572
  159MOL0     C21340   7.875   3.960   0.786 -0.5233  0.8183 -0.0843
  159MOL0     C21341   7.786   3.996   0.904  0.3122  0.1973  0.1415
  159MOL0     C21342   7.817   4.142   0.961  1.0636  1.0091 -0.2180
  159MOL0     C21343   7.769   4.169   1.106 -0.0285  0.7507 -1.0294
  159MOL0     C21344   7.614   4.166   1.117 -0.4548 -0.2561  0.7456
  159MOL0     C21345   7.573   4.206   1.254  0.3477  0.1619 -0.4864
  159MOL0     C21346   7.643   4.336   1.310  0.2013  1.6381  0.8881
  159MOL0     N21347   7.584   4.377   1.432  0.0791 -0.2612 -0.5355
  159MOL0     C21348   7.564   4.511   1.467 -1.1096 -0.0360 -0.5895
  159MOL0     C21349   7.517   4.508   1.593  0.1372  0.5433  0.1773
  159MOL0     C21350   7.458   4.621   1.677  0.1975  0.4959 -0.3660
  159MOL0     C21351   7.383   4.567   1.798 -0.3549  0.4253  0.2202
  159MOL0     C21352   7.327   4.681   1.886  1.2576  0.3635 -0.3823
  159MOL0     C21353   7.181   4.652   1.925  0.4033 -0.1371 -0.4661
  159MOL0     O21354   7.132   4.749   2.019  0.1231  0.0189  0.0540
  159MOL0     C21355   7.060   4.862   1.969 -0.2920  0.8437 -0.1337
  159MOL0     C21356   6.998   4.925   2.075 -0.2855 -0.7674 -0.6023
  159MOL0     C21357   6.909   5.037   2.054 -0.0913  0.3311 -0.1655
  159MOL0     C21358   6.908   5.096   1.930 -0.9134 -0.6442 -0.7488
  159MOL0     C21359   6.838   5.229   1.894  0.2322  0.5535 -0.2447
  159MOL0     O21360   6.801   5.303   2.006  0.3768 -0.1127 -0.6981
  159MOL0     C21361   6.764   5.434   2.010  0.3757 -0.3629  0.3803
  159MOL0     C21362   6.798   5.526   1.899  0.5847  0.9286  0.5190
  159MOL0     C21363   6.782   5.664   1.910 -0.0912  0.1428 -0.6218
  159MOL0     C21364   6.711   5.722   2.013 -0.1243  0.5691 -0.2970
  159MOL0     O21365   6.687   5.855   2.009 -0.3138 -0.3838 -0.4495
  159MOL0     C21366   6.658   5.930   2.129  0.5707  0.2071  0.1780
  159MOL0     C21367   6.499   5.932   2.139 -0.5276  0.5302 -0.1499
  159MOL0     C21368   6.456   6.018   2.257  0.6295  0.4833 -0.3020
  159MOL0     C21369   6.297   6.031   2.244 -0.8144 -0.3146 -0.7562
  159MOL0     C21370   6.246   6.153   2.326 -0.6816  0.3898 -0.8397
  159MOL0     C21371   6.282   6.293   2.270  1.0038 -0.0855 -0.1069
  159MOL0     C21372   6.215   6.404   2.354 -0.9016  0.3093  0.1333
  159MOL0     C21373   6.303   6.527   2.372 -0.2249  0.4798 -0.4972
  159MOL0    Cl21374   6.367   6.513   2.540  0.1067 -0.3310  0.1622
  159MOL0     C21375   6.662   5.631   2.112 -0.1629 -0.5929 -0.8272
  159MOL0     C21376   6.698   5.496   2.115  0.1412 -0.5726  1.1361
  159MOL0     O21377   6.821   5.255   1.778 -0.2015  0.4653  0.6727
  159MOL0     C21378   6.967   5.030   1.824 -0.3612  0.2090 -0.0089
  159MOL0     C21379   7.045   4.918   1.846 -0.5068  0.4981 -0.2599
  159MOL0     N21380   7.518   4.371   1.627  0.6708 -0.0533  0.9668
  159MOL0     N21381   7.559   4.294   1.531  0.2114  0.6999 -0.3051
  159MOL0     C21382   7.891   3.535   0.708 -0.3295  0.1875  0.2217
  159MOL0     C21383   7.874   3.401   0.705  0.0290 -0.5700 -0.4875
  159MOL0     C21384   7.842   2.971   0.841 -1.0697  0.0700 -0.5268
  159MOL0     C21385   7.933   2.871   0.811 -0.5458  0.4624 -0.0875
  159MOL0     C21386   7.907   2.730   0.816 -0.1254 -0.6679  0.1590
  159MOL0     C21387   7.785   2.694   0.868  0.0476 -0.3327 -0.2149
  159MOL0     O21388   7.770   2.557   0.892  0.0242 -0.2846 -0.2177
  159MOL0     C21389   7.644   2.506   0.869  1.0135 -0.7879  0.1628
  159MOL0     C21390   7.641   2.358   0.830 -0.0900  0.7465 -0.2991
  159MOL0     C21391   7.709   2.322   0.697 -0.6120 -0.1077 -0.5951
  159MOL0     C21392   7.636   2.388   0.578 -0.1729 -0.4260  1.3110
  159MOL0     C21393   7.667   2.327   0.456  0.3029  0.0587 -0.5122
  159MOL0     C21394   7.682   2.270   0.351 -0.4414  0.2787  0.4227
  159MOL0     C21395   7.679   2.802   0.885 -1.2705  0.4839  1.1248
  159MOL0     C21396   7.714   2.943   0.876  0.3541  0.4740 -0.2054
  159MOL0     C21397   7.587   3.027   0.897 -0.3026 -0.0978 -0.1397
  159MOL0     H21398   7.795   3.343   1.035  2.0059  1.4806  2.9353
  159MOL0     H21399   7.859   3.588   1.056 -1.2236  0.2983 -0.8885
  159MOL0     H21400   7.876   3.804   0.640  0.8246 -4.3822  0.4306
  159MOL0     H21401   7.727   3.789   0.741 -0.8586  2.8135  0.7196
  159MOL0     H21402   7.879   4.023   0.697 -2.7605  0.3422 -0.5897
  159MOL0     H21403   7.979   3.946   0.817 -0.5483 -1.0126 -0.7070
  159MOL0     H21404   7.786   3.927   0.989 -3.6732  1.1297  1.1040
  159MOL0     H21405   7.684   3.999   0.866  1.0112  4.2869 -1.8962
  159MOL0     H21406   7.926   4.138   0.967  1.3296 -0.0081 -3.5605
  159MOL0     H21407   7.777   4.216   0.891 -0.4793  1.2361  0.8430
  159MOL0     H21408   7.807   4.095   1.176 -0.3334  0.9458 -0.6548
  159MOL0     H21409   7.807   4.270   1.123  0.3522  0.1142  2.5681
  159MOL0     H21410   7.569   4.237   1.048 -1.3087 -0.5668  0.9732
  159MOL0     H21411   7.583   4.067   1.083 -0.2309  0.1800 -0.7876
  159MOL0     H21412   7.581   4.118   1.319 -1.2304  1.9054  2.2616
  159MOL0     H21413   7.465   4.224   1.259  0.0623 -0.3346 -3.3580
  159MOL0     H21414   7.742   4.296   1.330 -0.4251 -0.0831  0.7487
  159MOL0     H21415   7.643   4.410   1.229 -2.2405 -2.5893 -3.5519
  159MOL0     H21416   7.574   4.603   1.410  0.5147  1.2372  1.5621
  159MOL0     H21417   7.537   4.689   1.710  3.0168 -2.0237 -1.3579
  159MOL0     H21418   7.390   4.670   1.607 -4.0016  0.7009  3.4039
  159MOL0     H21419   7.298   4.505   1.767  1.9612 -2.8320 -0.1889
  159MOL0     H21420   7.442   4.498   1.860 -0.8604 -0.5176 -0.3185
  159MOL0     H21421   7.311   4.771   1.826 -0.3583  2.1130  2.4249
  159MOL0     H21422   7.388   4.702   1.974  1.3525  2.0631 -0.8201
  159MOL0     H21423   7.174   4.554   1.973 -1.0982  0.4963  0.7048
  159MOL0     H21424   7.118   4.650   1.835  0.0925 -0.2863 -0.2494
  159MOL0     H21425   7.027   4.897   2.176 -0.2637  1.6206  0.1223
  159MOL0     H21426   6.865   5.092   2.137  2.5121  1.6981  0.4475
  159MOL0     H21427   6.846   5.492   1.807 -2.2885  2.3408 -1.6893
  159MOL0     H21428   6.830   5.730   1.838 -2.2632  2.0090 -0.5057
  159MOL0     H21429   6.713   5.890   2.215 -0.1357 -0.0038  0.5404
  159MOL0     H21430   6.690   6.034   2.121  0.5930  0.5065  2.9569
  159MOL0     H21431   6.448   5.958   2.047 -0.4198 -1.8060 -0.9423
  159MOL0     H21432   6.470   5.830   2.166 -0.7343  0.4413 -0.6984
  159MOL0     H21433   6.493   5.974   2.350 -1.4279  2.7642  1.7156
  159MOL0     H21434   6.500   6.116   2.238 -1.3733  1.1904 -1.6409
  159MOL0     H21435   6.252   5.943   2.292 -0.7870  1.0114  1.8798
  159MOL0     H21436   6.256   6.036   2.143 -2.7453  1.3981  0.0378
  159MOL0     H21437   6.262   6.145   2.434  3.7656  0.0571 -1.3242
  159MOL0     H21438   6.138   6.148   2.310 -0.6571 -2.1225 -0.6241
  159MOL0     H21439   6.390   6.299   2.287  0.9119 -1.8800  1.3382
  159MOL0     H21440   6.256   6.295   2.164  1.1711 -2.0322 -0.2042
  159MOL0     H21441   6.185   6.365   2.452 -0.0764  1.8745  1.0579
  159MOL0     H21442   6.119   6.438   2.312 -0.3734 -0.4805 -1.8223
  159MOL0     H21443   6.377   6.522   2.292 -0.4336 -1.0826 -0.6237
  159MOL0     H21444   6.236   6.613   2.359 -1.3765 -0.7652 -4.1290
  159MOL0     H21445   6.615   5.663   2.204 -0.1482  2.4459 -1.7660
  159MOL0     H21446   6.678   5.417   2.186 -1.6952 -1.9412 -0.7506
  159MOL0     H21447   6.962   5.073   1.724  3.7048 -1.5909 -1.1785
  159MOL0     H21448   7.087   4.879   1.754 -0.0694  1.0698 -0.3090
  159MOL0     H21449   7.929   3.596   0.626  0.4117  1.5782  1.5578
  159MOL0     H21450   7.876   3.342   0.614  1.5101 -0.0602 -0.8155
  159MOL0     H21451   8.033   2.902   0.784 -1.2714  0.3616 -3.2944
  159MOL0     H21452   7.970   2.647   0.785  0.8609 -0.4211  1.3908
  159MOL0     H21453   7.607   2.562   0.782  0.1455 -2.8595 -0.8711
  159MOL0     H21454   7.577   2.526   0.954  1.1828 -0.7830  0.2953
  159MOL0     H21455   7.534   2.339   0.821 -0.9405  3.7082  1.7400
  159MOL0     H21456   7.682   2.284   0.900 -4.5397 -1.6925  0.0362
  159MOL0     H21457   7.715   2.213   0.690 -0.5113 -0.0116 -2.5030
  159MOL0     H21458   7.807   2.371   0.697 -2.2167  3.5941 -2.9523
  159MOL0     H21459   7.528   2.392   0.598 -0.6220  1.4009 -1.0630
  159MOL0     H21460   7.665   2.492   0.560  2.0857 -1.3337 -0.8761
  159MOL0     H21461   7.695   2.210   0.264  0.8011  0.8784  0.1673
  159MOL0     H21462   7.585   2.750   0.898 -0.4350 -1.3992  0.0669
  159MOL0     H21463   7.489   2.984   0.919 -1.2294  1.0317 -1.8080
  159MOL0     H21464   7.591   3.098   0.980 -3.0007  0.7040 -0.6038
  159MOL0     H21465   7.576   3.092   0.809 -1.6563 -0.8787 -0.5876
  160MOL0     O21466  10.742   7.061   2.063  0.2599  0.2914  0.3442
  160MOL0     C21467  10.805   7.155   2.018  0.2367  0.2794  0.1050
  160MOL0     O21468  10.768   7.287   2.032  0.3861  0.2677 -0.4418
  160MOL0     C21469  10.656   7.320   2.109 -0.1449  0.3244  1.4263
  160MOL0     C21470  10.536   7.364   2.058 -0.5103 -0.4944  0.0038
  160MOL0     C21471  10.439   7.411   2.139 -0.3096 -0.7889 -0.2866
  160MOL0     C21472  10.458   7.410   2.275 -0.3148 -0.9212 -0.3437
  160MOL0     O21473  10.372   7.460   2.364  0.7748  0.8867  0.4995
  160MOL0     C21474  10.308   7.588   2.339 -0.5336 -0.9318 -0.5573
  160MOL0     C21475  10.370   7.693   2.436  0.1500 -0.3053 -0.0365
  160MOL0     C21476  10.322   7.827   2.395  0.8564  0.1910 -0.7625
  160MOL0     C21477  10.358   7.937   2.498  0.4118 -0.2478 -0.8481
  160MOL0     C21478  10.510   7.949   2.517 -0.8529  0.4955  0.8934
  160MOL0     C21479  10.566   8.091   2.493 -0.5152 -0.9433  0.5012
  160MOL0     C21480  10.714   8.090   2.499  0.0745  0.4868 -0.6719
  160MOL0     C21481  10.776   8.227   2.495  0.5595  0.2309 -0.9852
  160MOL0     N21482  10.734   8.317   2.616 -0.8242 -0.3150  1.5008
  160MOL0     C21483  10.817   8.305   2.728  0.2486 -0.8530 -0.7326
  160MOL0     C21484  10.749   8.389   2.804 -0.0246  0.3974 -0.9804
  160MOL0     C21485  10.779   8.431   2.942 -0.2947  0.1079  0.0786
  160MOL0     C21486  10.927   8.464   2.966 -0.2445  0.5600 -1.0564
  160MOL0     C21487  10.969   8.605   2.908 -0.2018  0.3080 -0.7526
  160MOL0     C21488  11.127   8.627   2.902 -0.8538  0.7326  0.4433
  160MOL0     O21489  11.177   8.516   2.817 -0.0818 -0.6290 -0.2555
  160MOL0     C21490  11.310   8.495   2.840 -0.2270 -0.2495 -0.6615
  160MOL0     C21491  11.347   8.366   2.835 -0.0178  0.4998 -0.1387
  160MOL0     C21492  11.479   8.328   2.853  0.0280 -0.0802 -0.5205
  160MOL0     C21493  11.576   8.421   2.894 -1.1650 -0.0662 -0.3191
  160MOL0     C21494  11.713   8.372   2.920 -1.2023 -0.5453  0.2515
  160MOL0     O21495  11.803   8.468   2.945 -0.7883  0.3065 -0.2464
  160MOL0     C21496  11.928   8.421   2.981 -0.0722 -0.0732  0.1015
  160MOL0     C21497  11.964   8.413   3.118  0.3709 -0.4688 -0.2461
  160MOL0     C21498  12.098   8.406   3.162  0.7975  0.5591 -0.6435
  160MOL0     C21499  12.200   8.414   3.069  0.1715 -0.8069 -0.6983
  160MOL0     O21500  12.324   8.431   3.106  0.2788 -0.2577 -0.2475
  160MOL0     C21501  12.352   8.473   3.240 -0.1212 -0.7078  0.6850
  160MOL0     C21502  12.502   8.498   3.259 -0.6476  0.3541  1.2724
  160MOL0     C21503  12.549   8.497   3.411 -0.1462  0.1896  0.3349
  160MOL0     C21504  12.703   8.494   3.409  0.5633 -0.0219  0.3718
  160MOL0     C21505  12.778   8.496   3.548  0.3244 -0.3265 -0.9720
  160MOL0     C21506  12.836   8.637   3.591 -0.1173  0.0308  0.2172
  160MOL0     C21507  12.949   8.673   3.495 -0.7533  0.7780  0.1720
  160MOL0     C21508  13.037   8.789   3.555  0.6528  0.8641 -0.5728
  160MOL0    Cl21509  13.073   8.772   3.738 -0.0979  0.2178  0.0240
  160MOL0     C21510  12.168   8.419   2.936  0.2205  0.7626  0.1036
  160MOL0     C21511  12.035   8.421   2.895 -1.0521  0.1161  1.3593
  160MOL0     O21512  11.743   8.251   2.901 -0.1584 -0.7387  0.5236
  160MOL0     C21513  11.533   8.561   2.904  0.2416  0.4552 -0.4978
  160MOL0     C21514  11.409   8.599   2.867 -0.3940  0.7159 -0.1823
  160MOL0     N21515  10.632   8.436   2.751  0.0835 -0.3369  0.1958
  160MOL0     N21516  10.618   8.380   2.631 -0.7155  0.1659 -0.5676
  160MOL0     C21517  10.568   7.352   2.325 -0.1073  0.1447 -0.6713
  160MOL0     C21518  10.669   7.308   2.243  0.1621  0.4141  0.2204
  160MOL0     C21519  10.901   7.127   1.910 -0.3914  0.3409  0.8427
  160MOL0     C21520  10.961   7.241   1.844 -0.1786  1.2568 -0.8102
  160MOL0     C21521  11.045   7.237   1.734 -0.2819 -0.1042  0.2984
  160MOL0     C21522  11.082   7.106   1.689 -0.7901 -0.2891  0.0960
  160MOL0     O21523  11.175   7.081   1.590  0.4101 -0.3077 -1.2421
  160MOL0     C21524  11.200   7.181   1.491 -0.0794 -0.6555 -0.3015
  160MOL0     C21525  11.279   7.116   1.374 -0.8977 -1.0415  0.6393
  160MOL0     C21526  11.169   7.056   1.283  0.1274 -0.2985 -0.3400
  160MOL0     C21527  11.236   6.949   1.181  0.4000 -0.6981  0.3823
  160MOL0     C21528  11.309   7.021   1.080  0.4483 -0.7599 -1.2020
  160MOL0     C21529  11.369   7.100   1.004  1.0380  1.3544 -0.3738
  160MOL0     C21530  11.033   6.988   1.758 -0.4136 -0.8297  0.1372
  160MOL0     C21531  10.948   6.995   1.868 -0.0984  0.3150 -0.0861
  160MOL0     C21532  10.887   6.862   1.918  0.7264  0.7017 -0.2653
  160MOL0     H21533  10.533   7.378   1.951 -0.5244 -0.6975 -0.0233
  160MOL0     H21534  10.346   7.446   2.094 -0.3811 -2.4954 -1.5712
  160MOL0     H21535  10.325   7.611   2.234  1.4657 -1.7496 -0.4593
  160MOL0     H21536  10.200   7.581   2.356 -0.9834 -0.5837 -2.9795
  160MOL0     H21537  10.479   7.694   2.429  0.4175 -2.6745  2.3144
  160MOL0     H21538  10.344   7.674   2.540 -3.1000  0.4101 -0.6075
  160MOL0     H21539  10.213   7.825   2.388  0.7249  2.7390 -0.4829
  160MOL0     H21540  10.363   7.851   2.296 -0.5467 -0.5052 -1.5557
  160MOL0     H21541  10.305   8.026   2.462 -2.7675 -1.8774 -0.4824
  160MOL0     H21542  10.318   7.907   2.595 -0.6529 -3.1963 -2.1023
  160MOL0     H21543  10.538   7.917   2.618 -1.2550 -2.2586  0.2036
  160MOL0     H21544  10.555   7.893   2.435 -1.2667 -0.8834  1.5835
  160MOL0     H21545  10.548   8.132   2.393  2.7627  3.5893  1.4932
  160MOL0     H21546  10.517   8.158   2.564 -2.3212 -2.0102  0.3205
  160MOL0     H21547  10.751   8.053   2.402 -0.2071 -1.5117 -0.0757
  160MOL0     H21548  10.748   8.031   2.585  0.9541  2.3425  0.3029
  160MOL0     H21549  10.885   8.234   2.482  0.7417  1.0019  0.6398
  160MOL0     H21550  10.742   8.265   2.398  0.9201 -1.6551 -1.8967
  160MOL0     H21551  10.918   8.270   2.751  1.1696  1.3063 -1.1898
  160MOL0     H21552  10.711   8.508   2.981  1.8307  1.4442  1.3027
  160MOL0     H21553  10.749   8.343   3.001 -2.1330  1.1123  0.7322
  160MOL0     H21554  10.948   8.473   3.073  1.0044 -0.5840 -1.1865
  160MOL0     H21555  10.986   8.381   2.926 -2.8175 -2.6422  1.2663
  160MOL0     H21556  10.927   8.691   2.960  0.1395  0.4411 -0.6939
  160MOL0     H21557  10.935   8.609   2.804 -0.8360 -1.0863 -0.6284
  160MOL0     H21558  11.182   8.630   2.997  0.9560  3.2235 -0.5591
  160MOL0     H21559  11.152   8.718   2.847 -2.1767  1.6656  1.3107
  160MOL0     H21560  11.270   8.293   2.813 -0.1852  1.1745 -1.9538
  160MOL0     H21561  11.513   8.225   2.843 -0.0487  0.0808 -2.7843
  160MOL0     H21562  11.885   8.407   3.192  0.4443 -0.5616 -0.1743
  160MOL0     H21563  12.113   8.417   3.269  0.5005  0.8845 -0.6320
  160MOL0     H21564  12.294   8.564   3.260 -0.3461 -1.0589  1.6445
  160MOL0     H21565  12.329   8.392   3.310 -0.6035 -0.6760  0.5685
  160MOL0     H21566  12.557   8.414   3.216 -0.9336  0.6026  0.3895
  160MOL0     H21567  12.538   8.586   3.206  0.1051 -1.0884 -0.7273
  160MOL0     H21568  12.518   8.590   3.459 -3.0103 -0.1812 -0.6057
  160MOL0     H21569  12.511   8.419   3.478 -2.0483  0.1607 -0.6955
  160MOL0     H21570  12.734   8.578   3.347  0.7831 -0.5351 -0.2232
  160MOL0     H21571  12.736   8.408   3.349  0.0320 -0.5526  0.8225
  160MOL0     H21572  12.860   8.424   3.538 -0.0638 -0.8866 -0.1839
  160MOL0     H21573  12.706   8.469   3.625  0.7330  2.5926  0.5657
  160MOL0     H21574  12.759   8.714   3.585 -0.4905 -0.3882 -0.4806
  160MOL0     H21575  12.866   8.631   3.696  1.9425  0.2848 -0.3031
  160MOL0     H21576  12.906   8.691   3.396 -0.5049 -1.8435 -0.4819
  160MOL0     H21577  13.016   8.588   3.478 -2.0519  0.1745 -2.4407
  160MOL0     H21578  13.130   8.788   3.497  0.5590  0.4459 -0.7232
  160MOL0     H21579  12.992   8.887   3.540 -0.4108  0.8807  2.1440
  160MOL0     H21580  12.239   8.426   2.854  0.8227 -1.8099  0.3134
  160MOL0     H21581  12.008   8.439   2.792  0.3623  1.5506  1.1956
  160MOL0     H21582  11.586   8.650   2.937 -2.7111  1.7939  0.9501
  160MOL0     H21583  11.379   8.701   2.885  1.7769  1.4757 -0.5729
  160MOL0     H21584  10.567   7.337   2.433  1.1722  1.7014 -0.4186
  160MOL0     H21585  10.766   7.275   2.281  0.6667  0.2967 -1.1128
  160MOL0     H21586  10.937   7.341   1.879 -2.9925  0.2612  0.4339
  160MOL0     H21587  11.081   7.317   1.670  2.1477 -4.0380 -3.8486
  160MOL0     H21588  11.274   7.243   1.542 -1.3574  1.5922 -1.0264
  160MOL0     H21589  11.118   7.241   1.449 -0.3464 -2.6138 -2.7786
  160MOL0     H21590  11.340   7.031   1.405 -0.8543 -3.6776 -5.2574
  160MOL0     H21591  11.337   7.185   1.312 -0.7278 -1.4898  0.2908
  160MOL0     H21592  11.123   7.135   1.223  1.7543 -0.1560 -1.4546
  160MOL0     H21593  11.094   7.006   1.345 -0.4996 -0.9339 -1.5741
  160MOL0     H21594  11.304   6.889   1.241  0.4640  1.5875  2.8031
  160MOL0     H21595  11.155   6.899   1.127  0.7367  0.8784 -1.7178
  160MOL0     H21596  11.418   7.168   0.938  3.6106  0.8444  0.8700
  160MOL0     H21597  11.085   6.896   1.733  2.3228  0.6831 -0.2667
  160MOL0     H21598  10.933   6.772   1.876  1.7355  1.6423 -1.2453
  160MOL0     H21599  10.895   6.855   2.027 -3.1387 -1.9462  0.0181
  160MOL0     H21600  10.781   6.856   1.894  0.8084  1.8888 -0.9899
  161MOL0     O21601   6.452   7.231   4.100  0.1890 -0.5040  0.6007
  161MOL0     C21602   6.387   7.154   4.026  0.6545 -0.3621  0.2660
  161MOL0     O21603   6.258   7.178   3.981  1.1047 -0.0481 -0.2525
  161MOL0     C21604   6.206   7.304   4.017  0.2857  0.6946  0.0600
  161MOL0     C21605   6.238   7.427   3.959  0.4050  0.0719 -0.7018
  161MOL0     C21606   6.158   7.546   3.986 -0.4783 -0.3447 -0.0274
  161MOL0     C21607   6.064   7.546   4.080 -0.0763  0.0476 -0.3209
  161MOL0     O21608   5.984   7.658   4.082  0.1085  0.0733 -0.0732
  161MOL0     C21609   5.845   7.635   4.132 -0.1506  0.1536  0.6812
  161MOL0     C21610   5.756   7.751   4.100 -0.1895 -0.3487  1.0961
  161MOL0     C21611   5.781   7.887   4.182 -1.2106  0.7822  0.2230
  161MOL0     C21612   5.807   7.869   4.342 -0.6190 -0.1215  1.3513
  161MOL0     C21613   5.844   8.014   4.394 -0.4130 -1.1482 -0.0550
  161MOL0     C21614   5.888   8.004   4.546 -0.7512  1.1080  0.0450
  161MOL0     C21615   5.879   8.140   4.624  0.5148  0.0538  0.9109
  161MOL0     C21616   5.919   8.113   4.773  0.6268 -0.3630 -1.7384
  161MOL0     N21617   5.944   8.230   4.866  0.0689 -0.2534 -0.0918
  161MOL0     C21618   5.876   8.349   4.888 -0.3645  0.7457 -0.0536
  161MOL0     C21619   5.945   8.403   4.998 -0.9129  0.0972  0.3377
  161MOL0     C21620   5.917   8.529   5.067  0.2178  0.1808 -0.3029
  161MOL0     C21621   5.986   8.649   5.014 -0.2951  0.0711  0.2250
  161MOL0     C21622   5.978   8.767   5.108  0.8578  0.6700  0.3094
  161MOL0     C21623   6.017   8.894   5.037  0.5930 -0.0445 -0.1146
  161MOL0     O21624   5.901   8.972   5.042  0.0361 -0.0925  0.5391
  161MOL0     C21625   5.909   9.101   4.987  0.4409 -0.4885  0.8335
  161MOL0     C21626   5.785   9.167   4.987 -0.2793  1.2437  0.1847
  161MOL0     C21627   5.769   9.270   4.903  0.1356 -0.3115  0.2883
  161MOL0     C21628   5.872   9.323   4.822 -0.8416  0.2812 -0.9857
  161MOL0     C21629   5.864   9.440   4.742  0.3718 -0.9642  0.4261
  161MOL0     O21630   5.950   9.446   4.637 -0.0228 -0.3948  0.5467
  161MOL0     C21631   5.952   9.563   4.576 -0.1992 -0.8640  0.0216
  161MOL0     C21632   6.062   9.646   4.614 -0.5462 -0.2222 -0.1332
  161MOL0     C21633   6.063   9.777   4.570  0.3413 -0.3595  0.3850
  161MOL0     C21634   5.967   9.826   4.478  0.2323 -1.9418 -0.6451
  161MOL0     O21635   5.979   9.960   4.448  0.0281 -0.2172  0.5480
  161MOL0     C21636   5.867  10.021   4.377  0.8258 -0.1469  0.5493
  161MOL0     C21637   5.909  10.170   4.356 -0.9892 -0.7502  0.3149
  161MOL0     C21638   5.927  10.250   4.487  0.3583  0.6851  0.1045
  161MOL0     C21639   5.798  10.267   4.564 -0.4517 -1.0608  0.2189
  161MOL0     C21640   5.816  10.386   4.659 -0.0483  1.4518 -0.2961
  161MOL0     C21641   5.699  10.411   4.761  0.7832  0.5604  0.2374
  161MOL0     C21642   5.710  10.544   4.824 -0.3676  0.1985 -0.0352
  161MOL0     C21643   5.624  10.638   4.732  0.0640  0.3294  0.3604
  161MOL0    Cl21644   5.587  10.796   4.815  0.0575  0.0401  0.1537
  161MOL0     C21645   5.862   9.742   4.439  0.5257 -1.1166  0.9936
  161MOL0     C21646   5.856   9.609   4.490  0.6245  0.2478 -0.0194
  161MOL0     O21647   5.777   9.518   4.767  0.4745  0.0810 -0.0403
  161MOL0     C21648   5.994   9.247   4.824 -1.0545 -0.0141 -0.5196
  161MOL0     C21649   6.014   9.148   4.905  0.5678  0.2154 -0.0160
  161MOL0     N21650   6.052   8.322   5.031 -0.1608  0.2406 -0.4771
  161MOL0     N21651   6.058   8.221   4.950 -0.6212  0.9711  0.1394
  161MOL0     C21652   6.043   7.423   4.156 -0.9820 -0.0699  0.0561
  161MOL0     C21653   6.118   7.308   4.134 -0.1805 -0.1911 -0.5211
  161MOL0     C21654   6.447   7.027   3.982 -0.0982  0.0243 -0.2699
  161MOL0     C21655   6.369   6.921   3.933  0.1294 -0.9105  0.0127
  161MOL0     C21656   6.411   6.809   3.890  0.9648 -0.5275  0.1824
  161MOL0     C21657   6.543   6.771   3.903  0.6046 -0.8099 -0.2315
  161MOL0     O21658   6.587   6.653   3.861 -0.2902 -0.0567 -0.4437
  161MOL0     C21659   6.524   6.584   3.747 -0.7050  0.1935 -0.1459
  161MOL0     C21660   6.636   6.529   3.656 -0.3717  0.5848 -0.2655
  161MOL0     C21661   6.699   6.395   3.688 -0.0897  0.1570  1.1641
  161MOL0     C21662   6.723   6.307   3.571 -0.0480  1.5322 -0.1052
  161MOL0     C21663   6.848   6.352   3.514 -0.0301 -0.8187 -0.4584
  161MOL0     C21664   6.953   6.396   3.466  0.1053  0.0983  1.4174
  161MOL0     C21665   6.628   6.860   3.960 -0.0604  1.0937 -0.5831
  161MOL0     C21666   6.582   6.986   3.984  0.1594  0.2834  0.2554
  161MOL0     C21667   6.699   7.090   4.022  0.0446 -0.6092 -1.4201
  161MOL0     H21668   6.321   7.412   3.891 -1.0359  1.4789 -2.8889
  161MOL0     H21669   6.175   7.643   3.940 -1.3003  1.5076  3.2469
  161MOL0     H21670   5.819   7.541   4.081 -2.4620  1.0071  0.1640
  161MOL0     H21671   5.840   7.615   4.239  2.8653 -1.4430  0.6107
  161MOL0     H21672   5.650   7.725   4.107 -0.4773  0.7193  0.8042
  161MOL0     H21673   5.768   7.777   3.994  1.6312 -1.3318  1.0120
  161MOL0     H21674   5.684   7.936   4.171 -1.2374  2.2573  4.9627
  161MOL0     H21675   5.856   7.956   4.142  2.1144  0.7173  5.4348
  161MOL0     H21676   5.718   7.834   4.396 -0.1980 -0.4129  1.8728
  161MOL0     H21677   5.886   7.797   4.365  1.3128  0.9784 -1.3339
  161MOL0     H21678   5.928   8.057   4.339  0.2144 -2.3476 -0.0662
  161MOL0     H21679   5.758   8.081   4.387 -0.3857 -1.1851 -0.7358
  161MOL0     H21680   5.829   7.934   4.605 -0.7456 -1.5706 -2.8774
  161MOL0     H21681   5.994   7.975   4.549 -0.6274  1.6071  2.7001
  161MOL0     H21682   5.775   8.174   4.619 -0.1901 -2.0480  0.3091
  161MOL0     H21683   5.940   8.219   4.580  2.1916 -0.2318  2.5679
  161MOL0     H21684   5.835   8.059   4.817  1.8424 -0.5870  0.4106
  161MOL0     H21685   6.007   8.048   4.775  0.1147 -1.1169  1.7929
  161MOL0     H21686   5.785   8.388   4.844  0.7755  0.1168 -3.2002
  161MOL0     H21687   5.810   8.543   5.056 -0.0611  0.2191  1.8895
  161MOL0     H21688   5.949   8.519   5.172  3.6027  0.2595 -1.1991
  161MOL0     H21689   6.090   8.632   4.985 -0.6818 -0.1824 -1.1038
  161MOL0     H21690   5.944   8.677   4.917  0.4624  0.7002  0.0643
  161MOL0     H21691   6.049   8.743   5.188 -0.0203 -0.7821  0.6897
  161MOL0     H21692   5.881   8.764   5.157  0.9045  1.6968  0.4862
  161MOL0     H21693   6.047   8.866   4.936 -0.7678 -0.0217 -0.5407
  161MOL0     H21694   6.105   8.948   5.074  2.3347 -0.8843 -2.7759
  161MOL0     H21695   5.705   9.146   5.057 -1.9278  3.1357 -1.0212
  161MOL0     H21696   5.682   9.334   4.915  2.4572  2.5348  4.4366
  161MOL0     H21697   6.131   9.613   4.691 -1.0554  1.9537  1.3308
  161MOL0     H21698   6.139   9.845   4.607  0.3817  0.5652 -1.3087
  161MOL0     H21699   5.847   9.970   4.282  1.8503  0.5276 -0.0553
  161MOL0     H21700   5.784  10.006   4.446  0.4874 -0.9491 -0.0102
  161MOL0     H21701   6.008  10.169   4.310 -1.3959  2.5281 -0.9125
  161MOL0     H21702   5.839  10.215   4.285  1.1948  0.3220 -1.2647
  161MOL0     H21703   5.997  10.191   4.547 -1.7042 -2.6561 -0.5137
  161MOL0     H21704   5.983  10.343   4.471  2.0817 -0.4106 -0.4981
  161MOL0     H21705   5.784  10.172   4.617  2.6161 -1.8520 -0.2059
  161MOL0     H21706   5.711  10.283   4.500  1.4559  1.1898 -2.0337
  161MOL0     H21707   5.839  10.470   4.593  0.6070 -0.8095 -3.1520
  161MOL0     H21708   5.904  10.353   4.714 -1.2605  1.8926  2.0358
  161MOL0     H21709   5.600  10.394   4.717  0.3983  1.9593  0.5067
  161MOL0     H21710   5.708  10.329   4.833 -3.8524  0.8366  1.4568
  161MOL0     H21711   5.814  10.570   4.842 -0.4167  1.1677 -1.0554
  161MOL0     H21712   5.666  10.533   4.923 -1.5986 -2.4429 -0.7777
  161MOL0     H21713   5.678  10.668   4.641 -3.8391  4.8798 -0.8965
  161MOL0     H21714   5.531  10.592   4.699 -1.4728  3.4685 -0.1044
  161MOL0     H21715   5.780   9.782   4.381  0.5905 -0.8996  1.0507
  161MOL0     H21716   5.766   9.553   4.467  0.0846  1.2807 -0.4951
  161MOL0     H21717   6.076   9.271   4.756 -1.9044  2.4993 -0.7460
  161MOL0     H21718   6.105   9.091   4.886  0.8413  0.3440  0.8721
  161MOL0     H21719   6.000   7.438   4.255  3.1502  0.4222  2.0146
  161MOL0     H21720   6.112   7.215   4.190 -0.5889  0.6295  0.8496
  161MOL0     H21721   6.261   6.929   3.934  0.0608 -1.1672 -2.0543
  161MOL0     H21722   6.328   6.754   3.848 -0.8563  3.2007 -1.5554
  161MOL0     H21723   6.457   6.642   3.683 -2.9251 -2.6985 -0.6869
  161MOL0     H21724   6.463   6.500   3.783  0.6421 -0.2517  1.2198
  161MOL0     H21725   6.713   6.606   3.651 -1.1761  1.5283  1.1860
  161MOL0     H21726   6.589   6.518   3.558  1.0459 -1.5315 -0.7916
  161MOL0     H21727   6.634   6.340   3.757  0.6998 -0.3042  1.5506
  161MOL0     H21728   6.794   6.408   3.741  1.9195 -0.0911 -2.1023
  161MOL0     H21729   6.735   6.200   3.589 -0.4564  0.6801 -4.0381
  161MOL0     H21730   6.642   6.320   3.499 -1.1530 -2.2285  0.2471
  161MOL0     H21731   7.041   6.431   3.416  0.8069  1.9146  3.7102
  161MOL0     H21732   6.735   6.850   3.974 -0.0388  0.7250 -1.0031
  161MOL0     H21733   6.796   7.044   4.001  1.2110  1.1513 -0.2596
  161MOL0     H21734   6.690   7.187   3.972 -0.5812  2.1391  3.3733
  161MOL0     H21735   6.681   7.114   4.128  0.4878 -1.5269 -1.1283
  162MOL0     O21736  10.846  10.204   8.154  0.7595  0.4182  0.4024
  162MOL0     C21737  10.819  10.294   8.233  1.2925  0.1323  0.2648
  162MOL0     O21738  10.711  10.287   8.325 -0.2987 -0.1166 -0.8439
  162MOL0     C21739  10.629  10.171   8.313  0.9233 -0.6718  0.5851
  162MOL0     C21740  10.509  10.191   8.250 -0.2190 -0.1670  0.3166
  162MOL0     C21741  10.422  10.083   8.226 -0.2034 -0.0211 -0.5834
  162MOL0     C21742  10.468   9.961   8.258 -0.0083 -0.0263  0.7902
  162MOL0     O21743  10.373   9.864   8.226  0.3535 -0.0979 -1.1080
  162MOL0     C21744  10.414   9.728   8.235 -0.0703 -0.6967  0.1428
  162MOL0     C21745  10.361   9.669   8.370  0.6664  0.2299 -0.7057
  162MOL0     C21746  10.409   9.524   8.398 -0.4061 -0.7136 -0.5235
  162MOL0     C21747  10.372   9.482   8.545 -0.1389 -0.6793  0.1369
  162MOL0     C21748  10.380   9.331   8.575  0.4224 -0.3147 -0.0656
  162MOL0     C21749  10.313   9.301   8.708 -0.6295  0.3128 -0.5391
  162MOL0     C21750  10.313   9.153   8.747 -0.1926 -0.4959 -0.1665
  162MOL0     C21751  10.450   9.076   8.729 -0.1848  0.0003  0.8771
  162MOL0     N21752  10.466   8.980   8.844 -0.1002 -0.3724  0.3510
  162MOL0     C21753  10.493   9.027   8.973 -0.3595 -0.3724 -0.4405
  162MOL0     C21754  10.497   8.917   9.044 -0.6875 -0.3202  0.2702
  162MOL0     C21755  10.548   8.892   9.186  0.1594  0.3194  0.4157
  162MOL0     C21756  10.657   8.783   9.189 -0.2501  0.1837 -1.3910
  162MOL0     C21757  10.804   8.827   9.178  0.1668 -0.9575 -0.2006
  162MOL0     C21758  10.909   8.724   9.190  0.6336  0.2138 -1.2193
  162MOL0     O21759  10.915   8.652   9.320 -0.0445 -0.7062  0.3312
  162MOL0     C21760  11.036   8.595   9.350 -0.3568 -0.7727 -1.2347
  162MOL0     C21761  11.150   8.572   9.266  1.2449 -0.5234 -0.4909
  162MOL0     C21762  11.265   8.514   9.318 -0.1943  0.7832 -0.7689
  162MOL0     C21763  11.261   8.463   9.451 -0.8490 -0.0507 -1.1400
  162MOL0     C21764  11.372   8.375   9.505  0.2381 -0.0026 -0.1385
  162MOL0     O21765  11.489   8.382   9.443 -0.4863  0.3062  0.2314
  162MOL0     C21766  11.598   8.308   9.480  0.9118  0.2707  0.2178
  162MOL0     C21767  11.624   8.184   9.422 -0.3570 -0.9067 -0.0424
  162MOL0     C21768  11.741   8.114   9.452  0.1681  0.9314 -0.6608
  162MOL0     C21769  11.829   8.165   9.542 -0.8212 -0.0869  0.4291
  162MOL0     O21770  11.947   8.096   9.567  0.2902  0.6660  0.1494
  162MOL0     C21771  11.948   7.948   9.572  0.0166 -1.1158 -0.2695
  162MOL0     C21772  12.088   7.910   9.633 -0.8002  0.0852 -0.4213
  162MOL0     C21773  12.082   7.928   9.789  0.0809 -1.4774  0.9920
  162MOL0     C21774  12.224   7.896   9.844 -0.3707 -0.3412  0.0308
  162MOL0     C21775  12.325   8.004   9.803 -0.8165  1.0571  0.8022
  162MOL0     C21776  12.397   8.051   9.930 -0.2668  0.1030 -0.0708
  162MOL0     C21777  12.523   8.129   9.876  0.1563  0.1992  0.4157
  162MOL0     C21778  12.635   8.043   9.823  0.3034  0.3272  0.1660
  162MOL0    Cl21779  12.620   8.001   9.650  0.0590 -0.2047  0.2550
  162MOL0     C21780  11.802   8.285   9.602  0.4724  0.7070  0.9247
  162MOL0     C21781  11.688   8.360   9.573 -0.7128  0.0017  0.7401
  162MOL0     O21782  11.343   8.301   9.604 -0.3574  0.7812  0.3149
  162MOL0     C21783  11.151   8.495   9.533 -0.4206 -0.3123  0.8784
  162MOL0     C21784  11.047   8.570   9.485  0.0459  0.3036  0.3150
  162MOL0     N21785  10.443   8.816   8.966 -0.6418 -0.2871 -0.9471
  162MOL0     N21786  10.440   8.848   8.849 -0.5411 -0.1482 -0.2125
  162MOL0     C21787  10.596   9.936   8.294  0.0660 -0.1036  0.3668
  162MOL0     C21788  10.678  10.040   8.334  0.4766 -0.0403  0.8875
  162MOL0     C21789  10.895  10.418   8.240  0.1162  0.0218  0.6887
  162MOL0     C21790  10.904  10.482   8.363  0.3439  0.1655  1.4484
  162MOL0     C21791  10.984  10.603   8.370  0.0064 -0.8225 -0.2773
  162MOL0     C21792  11.062  10.648   8.264  0.6311  0.4670  0.4461
  162MOL0     O21793  11.149  10.749   8.279  0.7834  0.0285  0.2776
  162MOL0     C21794  11.251  10.710   8.383 -1.0498  0.7780 -0.2954
  162MOL0     C21795  11.392  10.732   8.329 -0.1077 -0.1708 -0.0316
  162MOL0     C21796  11.489  10.784   8.437 -0.8066 -1.6079 -0.1939
  162MOL0     C21797  11.622  10.846   8.382  1.2051  0.2895  0.5706
  162MOL0     C21798  11.697  10.739   8.317  0.6768  0.8365 -0.8228
  162MOL0     C21799  11.779  10.663   8.281  0.5888  1.0907 -0.3409
  162MOL0     C21800  11.046  10.590   8.140  0.5988  0.2429  0.4755
  162MOL0     C21801  10.963  10.477   8.120 -0.9217  0.1705  0.4833
  162MOL0     C21802  10.948  10.431   7.984 -0.0830 -0.3687 -0.8746
  162MOL0     H21803  10.467  10.289   8.234  0.6862  0.4065  1.2566
  162MOL0     H21804  10.326  10.091   8.177  0.9420  0.1157 -2.9305
  162MOL0     H21805  10.355   9.664   8.168  1.4302 -0.4550 -1.4845
  162MOL0     H21806  10.520   9.719   8.211  0.0527  2.0986 -0.6952
  162MOL0     H21807  10.252   9.679   8.373  0.7000  2.1888 -3.2617
  162MOL0     H21808  10.400   9.745   8.437  0.0817  1.3253 -1.5837
  162MOL0     H21809  10.517   9.520   8.388 -0.1942 -0.4602  1.3649
  162MOL0     H21810  10.366   9.463   8.318  0.6578 -1.9629 -0.1720
  162MOL0     H21811  10.442   9.531   8.613  0.7427  1.1923 -1.9714
  162MOL0     H21812  10.270   9.511   8.572 -0.1665 -2.1570  1.7878
  162MOL0     H21813  10.331   9.264   8.504  2.9447 -1.6712 -0.6368
  162MOL0     H21814  10.485   9.303   8.582  0.4503 -0.0791  0.5800
  162MOL0     H21815  10.367   9.359   8.782 -0.6358  0.0336 -0.3132
  162MOL0     H21816  10.208   9.333   8.707  0.3398  4.1115  1.3731
  162MOL0     H21817  10.244   9.097   8.684 -2.2347  0.8806  0.7357
  162MOL0     H21818  10.288   9.143   8.853 -0.3994 -1.2192 -0.2813
  162MOL0     H21819  10.449   9.023   8.633 -2.2446  0.1887  0.7373
  162MOL0     H21820  10.533   9.146   8.727 -0.1202 -0.0895  0.4360
  162MOL0     H21821  10.520   9.126   9.009 -2.4659 -0.7490  2.4600
  162MOL0     H21822  10.582   8.986   9.230 -0.7235  0.9485 -0.1857
  162MOL0     H21823  10.469   8.838   9.240  1.4903 -0.3266  1.7715
  162MOL0     H21824  10.641   8.725   9.281 -0.3940  2.0943 -0.1521
  162MOL0     H21825  10.634   8.711   9.110 -0.3126 -2.4559  0.8519
  162MOL0     H21826  10.817   8.898   9.261 -1.8267 -2.4169  1.4625
  162MOL0     H21827  10.822   8.878   9.083 -0.8673 -1.2486 -0.5648
  162MOL0     H21828  10.998   8.786   9.187  1.2188 -0.3966  1.2068
  162MOL0     H21829  10.909   8.654   9.106  1.7474 -1.0615 -0.2126
  162MOL0     H21830  11.146   8.603   9.162  0.2836 -3.7133 -1.5429
  162MOL0     H21831  11.347   8.492   9.251 -0.2053  1.0193 -0.8607
  162MOL0     H21832  11.560   8.142   9.345 -0.2373 -2.0317  0.4535
  162MOL0     H21833  11.750   8.026   9.389 -0.3628  3.1444 -4.0598
  162MOL0     H21834  11.861   7.895   9.610  0.2233 -0.5238  1.0941
  162MOL0     H21835  11.957   7.922   9.466 -2.4998  3.4002 -1.8957
  162MOL0     H21836  12.098   7.803   9.612 -0.5398 -0.2067  1.0967
  162MOL0     H21837  12.167   7.963   9.579  1.6700 -3.0911 -0.2713
  162MOL0     H21838  12.047   8.027   9.818 -0.0061 -0.9806 -0.6580
  162MOL0     H21839  12.011   7.850   9.818 -1.5391  0.0482  1.2208
  162MOL0     H21840  12.273   7.805   9.807  0.4500  0.3592 -0.6534
  162MOL0     H21841  12.213   7.897   9.953 -1.2445  3.3545  0.0491
  162MOL0     H21842  12.273   8.085   9.751 -1.6755  0.5490  0.8503
  162MOL0     H21843  12.390   7.964   9.725  0.4663  1.0241  1.8394
  162MOL0     H21844  12.331   8.118   9.986 -0.2525  1.9046 -2.0667
  162MOL0     H21845  12.413   7.962   9.990  1.5558  0.9097  0.7161
  162MOL0     H21846  12.558   8.203   9.949  1.0606 -0.0585  0.2542
  162MOL0     H21847  12.486   8.194   9.796  3.3429  3.5035  1.3207
  162MOL0     H21848  12.727   8.095   9.850 -1.8879  2.1062  5.3722
  162MOL0     H21849  12.639   7.951   9.881 -2.2835 -0.0628 -0.1389
  162MOL0     H21850  11.871   8.318   9.678 -0.6299  0.1859  2.1855
  162MOL0     H21851  11.674   8.463   9.603  0.8877  0.0447  1.4340
  162MOL0     H21852  11.149   8.456   9.634  0.1155  0.0524  1.0344
  162MOL0     H21853  10.958   8.568   9.548 -1.1370 -2.2537 -1.2787
  162MOL0     H21854  10.642   9.843   8.325 -1.5134  0.0057  3.3921
  162MOL0     H21855  10.780  10.026   8.367 -0.0559 -0.6774  2.3028
  162MOL0     H21856  10.850  10.465   8.456 -0.1416 -2.4749  0.7436
  162MOL0     H21857  10.999  10.648   8.468  4.3498  0.9708 -1.5258
  162MOL0     H21858  11.237  10.606   8.416 -0.5523  0.1109 -2.0399
  162MOL0     H21859  11.244  10.768   8.475 -0.4982 -1.6100  1.3572
  162MOL0     H21860  11.380  10.801   8.245 -4.2066 -2.6409 -1.7911
  162MOL0     H21861  11.434  10.642   8.284  0.0256  0.0501 -0.3505
  162MOL0     H21862  11.523  10.702   8.501  2.6204  1.7439  2.7865
  162MOL0     H21863  11.454  10.862   8.505  3.4537 -0.5910  1.1325
  162MOL0     H21864  11.585  10.914   8.304 -0.2122 -1.2961 -0.2067
  162MOL0     H21865  11.671  10.900   8.464 -0.3558 -1.6624  2.9174
  162MOL0     H21866  11.847  10.586   8.250 -1.5142  0.2094 -3.2151
  162MOL0     H21867  11.098  10.634   8.055  2.6476  1.3798  2.2139
  162MOL0     H21868  11.007  10.341   7.961  0.5000 -0.6507  1.4839
  162MOL0     H21869  10.845  10.427   7.949 -0.3592 -5.2838 -0.2592
  162MOL0     H21870  10.991  10.510   7.923  0.9374  0.0446  0.3256
  163MOL0     O21871   0.479  10.051   0.455 -0.0968  0.7432 -1.3067
  163MOL0     C21872   0.501  10.000   0.565 -0.5008  0.0780 -0.2084
  163MOL0     O21873   0.472   9.863   0.593 -0.4781 -0.1101  0.6143
  163MOL0     C21874   0.421   9.776   0.493 -0.6662 -0.3877  0.2928
  163MOL0     C21875   0.513   9.682   0.442  1.0133  0.3369  0.8306
  163MOL0     C21876   0.468   9.589   0.345 -0.1939  0.1285  0.2732
  163MOL0     C21877   0.337   9.592   0.307  1.3065 -0.1361  0.7490
  163MOL0     O21878   0.278   9.503   0.222 -0.3046 -0.6611 -0.1521
  163MOL0     C21879   0.348   9.401   0.141  0.4006 -0.0902 -0.1112
  163MOL0     C21880   0.430   9.464   0.025 -0.3004 -1.2413 -0.1045
  163MOL0     C21881   0.547   9.385  -0.049  0.1531  0.4391 -0.1298
  163MOL0     C21882   0.593   9.452  -0.172 -0.4782 -0.2997  0.5992
  163MOL0     C21883   0.706   9.379  -0.251 -0.2569 -0.2565 -0.3644
  163MOL0     C21884   0.743   9.452  -0.381  0.0222  0.8190 -0.4072
  163MOL0     C21885   0.884   9.416  -0.437 -0.0427 -0.4996  1.0715
  163MOL0     C21886   0.876   9.422  -0.592 -0.2534 -0.7676 -0.7851
  163MOL0     N21887   1.005   9.445  -0.657  0.1700  0.3365 -0.0750
  163MOL0     C21888   1.054   9.551  -0.714 -0.6203 -0.7463  0.0618
  163MOL0     C21889   1.150   9.513  -0.799  0.0850 -1.2434  0.5260
  163MOL0     C21890   1.229   9.621  -0.888 -0.0407  0.3725  0.1320
  163MOL0     C21891   1.248   9.565  -1.030 -0.2673  0.1550  0.1780
  163MOL0     C21892   1.343   9.444  -1.046  0.1348  0.0262 -0.7876
  163MOL0     C21893   1.429   9.454  -1.180 -0.3487 -0.8117 -0.5170
  163MOL0     O21894   1.405   9.349  -1.272  0.3414  0.0695  0.2028
  163MOL0     C21895   1.336   9.362  -1.385  0.0775 -0.4925  0.2057
  163MOL0     C21896   1.384   9.299  -1.503  0.2117  0.4068 -0.8409
  163MOL0     C21897   1.301   9.325  -1.618 -0.2738 -0.2284  0.7083
  163MOL0     C21898   1.181   9.400  -1.615  0.0893 -0.3879  0.1915
  163MOL0     C21899   1.101   9.412  -1.740 -0.0047 -0.3071  0.7131
  163MOL0     O21900   0.999   9.498  -1.731  1.5348 -0.1962  0.2274
  163MOL0     C21901   0.931   9.562  -1.828 -0.2430  0.3895  0.8717
  163MOL0     C21902   0.825   9.635  -1.783 -0.0245 -1.3248 -0.2264
  163MOL0     C21903   0.745   9.707  -1.877  0.5541 -0.4720 -0.7526
  163MOL0     C21904   0.778   9.708  -2.019 -0.8820  0.5043  0.3819
  163MOL0     O21905   0.683   9.763  -2.098 -0.6505 -0.1942  0.3664
  163MOL0     C21906   0.668   9.721  -2.236 -0.0787  0.3334 -0.4501
  163MOL0     C21907   0.535   9.777  -2.294  0.3548  0.3365 -0.3426
  163MOL0     C21908   0.417   9.667  -2.302  0.5827  0.1395 -0.1129
  163MOL0     C21909   0.349   9.646  -2.159 -0.1346  0.1703  0.3466
  163MOL0     C21910   0.284   9.506  -2.146 -0.0041 -1.2483 -0.7538
  163MOL0     C21911   0.228   9.461  -2.005 -0.4443 -0.4296  0.4900
  163MOL0     C21912   0.154   9.326  -2.034  0.0385  0.0941 -0.6513
  163MOL0     C21913   0.115   9.275  -1.900 -0.0148  0.4124  0.7439
  163MOL0    Cl21914   0.016   9.381  -1.813  0.0108  0.0310 -0.4002
  163MOL0     C21915   0.887   9.635  -2.058  0.6039 -0.1013  0.1966
  163MOL0     C21916   0.967   9.563  -1.961  0.3387 -0.8992  0.4041
  163MOL0     O21917   1.126   9.334  -1.833 -0.0857 -0.7366  0.1892
  163MOL0     C21918   1.144   9.467  -1.496  0.0922 -0.6999  0.2295
  163MOL0     C21919   1.225   9.449  -1.392 -0.6775 -0.5485  0.4092
  163MOL0     N21920   1.157   9.375  -0.808  0.7095 -1.0528 -1.1808
  163MOL0     N21921   1.075   9.339  -0.711 -0.0218 -0.9108 -0.4589
  163MOL0     C21922   0.245   9.680   0.361  0.1036 -0.0791 -0.1422
  163MOL0     C21923   0.289   9.763   0.464  0.8583  0.1797  0.0919
  163MOL0     C21924   0.499  10.076   0.687 -0.1851  0.4859  0.2563
  163MOL0     C21925   0.569  10.033   0.796 -0.4851 -1.8179 -0.5328
  163MOL0     C21926   0.597  10.122   0.907 -0.5094  0.5412 -0.6543
  163MOL0     C21927   0.538  10.250   0.908 -0.4224  0.5265 -0.9414
  163MOL0     O21928   0.579  10.328   1.017  0.4824  0.1123  0.3170
  163MOL0     C21929   0.546  10.469   1.036 -0.6633 -0.1586  0.3221
  163MOL0     C21930   0.637  10.522   1.149 -0.1565  0.2301  0.3203
  163MOL0     C21931   0.613  10.667   1.157 -0.3392 -1.4316 -0.2614
  163MOL0     C21932   0.485  10.721   1.222 -0.7297 -0.2449  0.6335
  163MOL0     C21933   0.500  10.830   1.322 -1.0273 -0.3832 -0.7047
  163MOL0     C21934   0.519  10.931   1.391  0.3237 -1.0052  0.7200
  163MOL0     C21935   0.448  10.278   0.816  0.1548  0.5511  0.0896
  163MOL0     C21936   0.426  10.201   0.700  0.5330  0.0866  1.3187
  163MOL0     C21937   0.320  10.263   0.594  1.0885  0.7745 -0.1105
  163MOL0     H21938   0.617   9.690   0.471  0.0636  0.7008  4.6849
  163MOL0     H21939   0.533   9.512   0.305  0.7269  0.4136  1.1634
  163MOL0     H21940   0.422   9.354   0.206 -0.3583 -0.9600  0.1550
  163MOL0     H21941   0.283   9.318   0.112  2.0712 -1.2412 -0.6991
  163MOL0     H21942   0.475   9.559   0.057  2.0112 -3.0533  2.5241
  163MOL0     H21943   0.356   9.494  -0.050 -0.2623 -3.8885 -1.3073
  163MOL0     H21944   0.520   9.280  -0.060 -1.5206  0.8297  0.0222
  163MOL0     H21945   0.637   9.377   0.014  0.1720 -0.2834 -0.2463
  163MOL0     H21946   0.505   9.453  -0.237  0.0715 -3.3399 -0.3570
  163MOL0     H21947   0.621   9.557  -0.159  0.9122 -0.4756 -0.7377
  163MOL0     H21948   0.792   9.371  -0.184  0.3426  3.5341 -0.4540
  163MOL0     H21949   0.688   9.272  -0.266  1.4133 -0.7226  0.7171
  163MOL0     H21950   0.676   9.420  -0.461  2.2554 -0.5157 -1.8457
  163MOL0     H21951   0.744   9.561  -0.365  0.8708  0.4508  2.6202
  163MOL0     H21952   0.921   9.317  -0.409  1.5723 -0.4419 -0.6183
  163MOL0     H21953   0.958   9.490  -0.406 -1.0897  1.2361 -0.3886
  163MOL0     H21954   0.819   9.343  -0.642 -1.4611  1.5461 -3.3877
  163MOL0     H21955   0.826   9.519  -0.606  0.5392  0.2320  2.4805
  163MOL0     H21956   1.036   9.653  -0.681  2.1530 -0.9751  2.7421
  163MOL0     H21957   1.187   9.721  -0.898 -3.7188 -0.9343  1.0274
  163MOL0     H21958   1.323   9.639  -0.836  0.8775 -0.0902 -1.3018
  163MOL0     H21959   1.148   9.543  -1.068  0.4737  0.7681 -2.3117
  163MOL0     H21960   1.282   9.650  -1.089 -0.0789 -1.0846 -1.5750
  163MOL0     H21961   1.279   9.356  -1.048  0.2184 -0.0459 -3.2159
  163MOL0     H21962   1.404   9.432  -0.956 -0.5620  0.9326 -0.1774
  163MOL0     H21963   1.532   9.440  -1.143  0.3602  4.4913  0.2686
  163MOL0     H21964   1.433   9.557  -1.215  2.5006 -0.2319  1.1470
  163MOL0     H21965   1.475   9.241  -1.518 -0.6345 -0.9852 -0.7190
  163MOL0     H21966   1.321   9.281  -1.716 -0.9528  1.4544 -0.2395
  163MOL0     H21967   0.804   9.637  -1.677  1.2900 -2.0288  0.0745
  163MOL0     H21968   0.659   9.766  -1.848  0.2799  0.0441 -2.4641
  163MOL0     H21969   0.752   9.744  -2.302 -0.0274 -2.5654 -1.5385
  163MOL0     H21970   0.658   9.612  -2.239 -0.0039  0.3261 -0.4434
  163MOL0     H21971   0.512   9.874  -2.248 -1.6171 -2.0155  4.2847
  163MOL0     H21972   0.547   9.796  -2.401 -3.7548 -2.1016 -1.4843
  163MOL0     H21973   0.347   9.694  -2.382  0.8533  3.3280  0.6051
  163MOL0     H21974   0.464   9.577  -2.343  3.3996  0.1858  2.6249
  163MOL0     H21975   0.286   9.733  -2.141 -0.4055  0.2076 -0.6838
  163MOL0     H21976   0.427   9.644  -2.083  2.4645  0.8465 -2.1309
  163MOL0     H21977   0.370   9.442  -2.166  2.2815  1.0730  0.9944
  163MOL0     H21978   0.205   9.494  -2.221 -1.1647 -1.7777  0.5038
  163MOL0     H21979   0.319   9.448  -1.947  0.8971 -0.5340 -1.5252
  163MOL0     H21980   0.168   9.544  -1.966  2.0132  2.1834 -0.9185
  163MOL0     H21981   0.214   9.250  -2.084  2.7252  1.1365  0.8022
  163MOL0     H21982   0.064   9.349  -2.093 -3.2690 -0.9962  3.4911
  163MOL0     H21983   0.060   9.184  -1.926  1.0667  0.2009 -0.9132
  163MOL0     H21984   0.203   9.237  -1.847  0.8464  0.2766 -0.7335
  163MOL0     H21985   0.908   9.629  -2.164  0.4703 -2.0094  0.2440
  163MOL0     H21986   1.057   9.510  -1.991  1.2888 -0.1355  1.7774
  163MOL0     H21987   1.044   9.509  -1.496  0.0817 -0.3750 -3.3420
  163MOL0     H21988   1.186   9.485  -1.298 -1.6264 -1.6149  0.4479
  163MOL0     H21989   0.142   9.681   0.326 -0.7724 -1.5606  2.2033
  163MOL0     H21990   0.224   9.821   0.529  3.2148  0.7005  2.1685
  163MOL0     H21991   0.612   9.935   0.808 -0.4274 -1.5546  1.9457
  163MOL0     H21992   0.674  10.086   0.974  0.5098 -1.0444 -2.5475
  163MOL0     H21993   0.438  10.465   1.057 -0.8899 -2.2853 -0.9538
  163MOL0     H21994   0.560  10.521   0.942 -1.2327 -1.0947 -0.3029
  163MOL0     H21995   0.744  10.505   1.132  0.4691  1.0821  2.9620
  163MOL0     H21996   0.617  10.473   1.245  0.3977 -1.5363 -0.4190
  163MOL0     H21997   0.639  10.715   1.062 -0.3329 -0.7592  0.0759
  163MOL0     H21998   0.689  10.694   1.231 -1.5360 -1.1900  0.9130
  163MOL0     H21999   0.439  10.765   1.133  0.1304 -2.1081 -0.8167
  163MOL0     H22000   0.414  10.641   1.243 -1.0439 -0.3692 -0.7665
  163MOL0     H22001   0.534  11.017   1.454  1.1641 -1.8413  1.6975
  163MOL0     H22002   0.392  10.371   0.819  0.5741  0.7830  2.4317
  163MOL0     H22003   0.296  10.189   0.518  2.7567  4.3237 -4.5136
  163MOL0     H22004   0.235  10.308   0.647  0.4397 -1.9211  1.2757
  163MOL0     H22005   0.369  10.345   0.541  1.6717 -0.3994 -1.4428
  164MOL0     O22006   9.700   5.849   7.978  0.3794  0.7429  0.4532
  164MOL0     C22007   9.817   5.877   7.954  0.0208 -0.2441  0.5959
  164MOL0     O22008   9.920   5.794   7.967 -0.2708  0.1222 -0.4744
  164MOL0     C22009   9.912   5.658   7.997 -0.0747 -0.6371 -0.4730
  164MOL0     C22010  10.013   5.589   7.949 -1.2273 -0.0837 -0.2898
  164MOL0     C22011  10.016   5.442   7.966 -0.5783 -0.0474  0.1717
  164MOL0     C22012   9.908   5.388   8.032  0.4589  0.6012  0.2525
  164MOL0     O22013   9.887   5.251   8.046 -0.5399  0.4371  0.2163
  164MOL0     C22014   9.961   5.159   7.970  0.7862 -0.0804 -0.7264
  164MOL0     C22015   9.866   5.028   7.955  0.1677 -0.4288 -0.7062
  164MOL0     C22016   9.940   4.924   7.852  0.1905 -0.3055 -0.0696
  164MOL0     C22017   9.841   4.850   7.757 -0.2560 -0.4296  0.0266
  164MOL0     C22018   9.887   4.741   7.670  0.2627 -0.1043 -0.2348
  164MOL0     C22019   9.953   4.783   7.533  0.1211 -0.3528 -0.4559
  164MOL0     C22020  10.061   4.686   7.474  0.4718 -0.7265  0.1814
  164MOL0     C22021  10.092   4.750   7.337  0.3059  1.2305 -1.2877
  164MOL0     N22022  10.053   4.667   7.221  1.1274  0.4293  0.0098
  164MOL0     C22023   9.918   4.650   7.187  0.4408  0.4466  0.1880
  164MOL0     C22024   9.917   4.575   7.068  1.3058 -0.0077 -0.0966
  164MOL0     C22025   9.790   4.530   6.992  0.8629 -0.2478  0.0154
  164MOL0     C22026   9.727   4.643   6.911  0.0615  0.2068  0.2673
  164MOL0     C22027   9.810   4.679   6.793 -0.5497  1.0285  0.7464
  164MOL0     C22028   9.732   4.774   6.700  0.9832  0.5287  0.5890
  164MOL0     O22029   9.807   4.817   6.584  0.2025  0.3260 -0.0512
  164MOL0     C22030   9.890   4.928   6.606  0.3238  0.5288 -0.5188
  164MOL0     C22031   9.934   4.990   6.481  0.3782  0.1169 -0.1190
  164MOL0     C22032  10.021   5.100   6.482  0.6537  0.8000 -0.1304
  164MOL0     C22033  10.066   5.149   6.610 -0.1822  0.1392  0.0364
  164MOL0     C22034  10.173   5.251   6.626 -0.0330 -0.4422 -0.1124
  164MOL0     O22035  10.217   5.294   6.748  0.2168  0.7426 -0.1011
  164MOL0     C22036  10.314   5.382   6.760  0.4695 -0.6027  0.3346
  164MOL0     C22037  10.430   5.349   6.829  0.7211  0.3878  0.0241
  164MOL0     C22038  10.529   5.447   6.841  1.0164 -0.6008 -0.3192
  164MOL0     C22039  10.524   5.572   6.777 -1.0203 -0.2211 -0.2060
  164MOL0     O22040  10.634   5.654   6.780  0.4874 -0.0766  0.3670
  164MOL0     C22041  10.682   5.672   6.642  1.2169  0.6209 -0.3463
  164MOL0     C22042  10.828   5.709   6.640 -0.1134 -0.1891  1.2091
  164MOL0     C22043  10.861   5.826   6.722  0.1372  0.5725 -1.4469
  164MOL0     C22044  10.814   5.963   6.665 -0.9178 -0.3344 -0.3657
  164MOL0     C22045  10.845   6.073   6.763 -0.8283 -1.0007  0.1307
  164MOL0     C22046  10.745   6.071   6.876  0.5574 -0.3683  0.8286
  164MOL0     C22047  10.707   6.217   6.908 -0.4449 -0.5920  0.2529
  164MOL0     C22048  10.581   6.222   7.010 -0.1032  0.0452  0.6637
  164MOL0    Cl22049  10.654   6.201   7.176 -0.3282 -0.2607 -0.0537
  164MOL0     C22050  10.405   5.604   6.711  0.1649 -0.8125  0.0520
  164MOL0     C22051  10.300   5.512   6.701 -0.6445 -0.2228  0.6129
  164MOL0     O22052  10.201   5.314   6.522  0.7881  0.6553 -0.4917
  164MOL0     C22053  10.016   5.089   6.730 -0.7083 -0.3512  0.2455
  164MOL0     C22054   9.936   4.983   6.729  0.4472  1.8048 -0.3443
  164MOL0     N22055  10.042   4.526   7.056 -0.0937 -0.0616 -0.4807
  164MOL0     N22056  10.128   4.595   7.124 -0.1079  0.4543 -0.4129
  164MOL0     C22057   9.797   5.461   8.084 -0.9017  1.2228  0.4819
  164MOL0     C22058   9.806   5.595   8.063  0.4045 -0.3653 -0.6875
  164MOL0     C22059   9.844   6.014   7.919 -0.7165  0.5628  0.1542
  164MOL0     C22060   9.972   6.060   7.954 -0.1844 -0.7628  0.2721
  164MOL0     C22061  10.006   6.194   7.924  0.4899  0.0918  0.1831
  164MOL0     C22062   9.910   6.276   7.869 -0.5098  0.5575 -0.2101
  164MOL0     O22063   9.935   6.406   7.834 -0.0205 -0.6006 -0.5361
  164MOL0     C22064  10.070   6.467   7.856 -0.3784  0.7292  0.0311
  164MOL0     C22065  10.064   6.620   7.818 -0.1638 -0.3445 -0.8512
  164MOL0     C22066   9.928   6.698   7.856 -0.8045  0.6118  0.1061
  164MOL0     C22067   9.920   6.724   8.011  0.0013  0.8929  0.0722
  164MOL0     C22068   9.988   6.846   8.038 -0.3970  0.1043  0.4958
  164MOL0     C22069  10.040   6.959   8.034 -0.6797  0.2541 -0.1383
  164MOL0     C22070   9.780   6.232   7.845  0.2610  0.3889  0.3931
  164MOL0     C22071   9.744   6.103   7.870 -0.7520  0.3005  0.7148
  164MOL0     C22072   9.606   6.062   7.822 -0.6304 -0.0501 -0.5574
  164MOL0     H22073  10.095   5.634   7.896 -0.1371 -2.0862 -0.4191
  164MOL0     H22074  10.093   5.387   7.914 -2.0988 -2.7583  0.5792
  164MOL0     H22075   9.968   5.204   7.870  1.1427  1.0017 -0.2266
  164MOL0     H22076  10.060   5.134   8.009 -0.1741 -4.1434 -0.4803
  164MOL0     H22077   9.768   5.054   7.915 -0.6332 -0.5535  1.0997
  164MOL0     H22078   9.847   4.994   8.057  0.7380  0.2802 -0.3487
  164MOL0     H22079   9.999   4.847   7.902  0.0418 -1.3178 -1.3954
  164MOL0     H22080  10.005   4.986   7.791 -0.2527  2.0926  1.7558
  164MOL0     H22081   9.773   4.798   7.825 -1.9328  0.6028 -0.7900
  164MOL0     H22082   9.790   4.932   7.706  3.6699  1.4399 -1.2803
  164MOL0     H22083   9.959   4.681   7.726 -1.7552 -0.3025  2.3026
  164MOL0     H22084   9.811   4.664   7.651  0.6823 -1.0344  1.6196
  164MOL0     H22085   9.870   4.792   7.462 -0.1124  3.3339  0.0955
  164MOL0     H22086   9.998   4.881   7.552  1.4579 -1.2789  1.4818
  164MOL0     H22087  10.020   4.585   7.469 -2.8739  0.5621 -2.1373
  164MOL0     H22088  10.154   4.677   7.530  0.7073  1.5943  0.2574
  164MOL0     H22089  10.052   4.851   7.325 -2.4060  0.6657  1.5866
  164MOL0     H22090  10.201   4.746   7.331  0.6004 -0.2046  2.1192
  164MOL0     H22091   9.842   4.697   7.249  3.0441  3.1503  1.5954
  164MOL0     H22092   9.809   4.437   6.937  1.5837 -0.2993  0.3420
  164MOL0     H22093   9.724   4.500   7.073  2.7370 -1.6983  1.1100
  164MOL0     H22094   9.624   4.613   6.891 -0.5676  0.3835  2.9685
  164MOL0     H22095   9.715   4.730   6.976 -3.0228  2.0630 -2.4728
  164MOL0     H22096   9.845   4.584   6.751  0.9447  0.3851  3.2480
  164MOL0     H22097   9.900   4.733   6.825  0.2465  1.0890 -1.4308
  164MOL0     H22098   9.696   4.858   6.760  2.1185 -0.1902  2.3713
  164MOL0     H22099   9.649   4.715   6.660  1.6197 -1.1696  1.6700
  164MOL0     H22100   9.885   4.954   6.391  0.2894  0.7120 -0.3095
  164MOL0     H22101  10.060   5.146   6.393  1.1944 -3.5155 -2.4062
  164MOL0     H22102  10.456   5.250   6.865  2.1012  0.7255 -0.0088
  164MOL0     H22103  10.623   5.424   6.889  2.2169 -0.5712 -2.5296
  164MOL0     H22104  10.659   5.584   6.582  1.8722  0.6544 -0.6564
  164MOL0     H22105  10.630   5.750   6.586  1.5925  2.4732  1.7418
  164MOL0     H22106  10.886   5.626   6.680  4.5149  1.9400 -0.2888
  164MOL0     H22107  10.851   5.730   6.535 -0.8073 -1.5093  0.7810
  164MOL0     H22108  10.804   5.816   6.815  0.3264  1.3607 -1.2385
  164MOL0     H22109  10.965   5.839   6.754 -1.2822  2.1065  3.5639
  164MOL0     H22110  10.705   5.956   6.654 -0.8798 -2.3277  0.1471
  164MOL0     H22111  10.854   5.979   6.565 -0.8930  3.1201  0.0769
  164MOL0     H22112  10.837   6.166   6.707 -2.8083  0.8564  3.1894
  164MOL0     H22113  10.949   6.061   6.796 -0.3928  2.2451  0.2343
  164MOL0     H22114  10.656   6.010   6.856  1.0742 -0.2979 -2.1318
  164MOL0     H22115  10.799   6.029   6.962  1.5467  1.7653  1.3318
  164MOL0     H22116  10.682   6.284   6.826  1.5500  0.7697  0.6543
  164MOL0     H22117  10.788   6.272   6.959 -3.2563  1.4741  2.8498
  164MOL0     H22118  10.527   6.317   7.021 -0.6818 -0.3936  1.7154
  164MOL0     H22119  10.514   6.139   6.987 -0.5713  0.0695  1.8765
  164MOL0     H22120  10.388   5.694   6.653  0.7930 -2.6717 -3.2617
  164MOL0     H22121  10.212   5.549   6.650 -0.2532 -0.2584 -0.1012
  164MOL0     H22122  10.060   5.117   6.825 -1.6235 -1.2619  0.9502
  164MOL0     H22123   9.912   4.939   6.825 -0.0150 -0.8632 -1.5935
  164MOL0     H22124   9.707   5.418   8.126 -1.2788 -0.8347 -2.2036
  164MOL0     H22125   9.714   5.645   8.092 -0.2918 -1.7803 -0.3668
  164MOL0     H22126  10.057   6.000   7.986 -0.7220 -1.3188  0.6838
  164MOL0     H22127  10.107   6.227   7.947  0.8452 -1.5505  1.1492
  164MOL0     H22128  10.145   6.416   7.795  0.1183  1.0382  0.3736
  164MOL0     H22129  10.096   6.455   7.962  1.1439 -1.6030 -0.5275
  164MOL0     H22130  10.081   6.631   7.710  2.1465 -0.0461 -0.5223
  164MOL0     H22131  10.159   6.658   7.857  1.2221 -2.5728 -1.8805
  164MOL0     H22132   9.835   6.653   7.822  1.1014 -2.9625 -0.8852
  164MOL0     H22133   9.944   6.793   7.805 -1.3827 -0.1634 -1.5924
  164MOL0     H22134   9.816   6.743   8.039  0.3952  0.2859  2.0878
  164MOL0     H22135   9.941   6.631   8.065 -1.7131  1.3427  1.6300
  164MOL0     H22136  10.100   7.047   8.050 -0.9487  0.5753 -0.8494
  164MOL0     H22137   9.715   6.310   7.805  1.4035 -0.9552 -4.7854
  164MOL0     H22138   9.583   6.139   7.747 -1.1765 -0.3230 -0.6762
  164MOL0     H22139   9.607   5.968   7.766  1.5390 -1.0800  1.0584
  164MOL0     H22140   9.542   6.066   7.910  1.1762 -0.2627  0.8107
  165MOL0     O22141   8.930   2.360   3.645 -0.4217 -0.1242 -0.3378
  165MOL0     C22142   9.029   2.335   3.718  0.5406  0.4965 -0.6816
  165MOL0     O22143   9.146   2.285   3.682 -1.0624  0.6267 -0.6426
  165MOL0     C22144   9.180   2.275   3.547 -0.4950  0.4807  0.2772
  165MOL0     C22145   9.160   2.165   3.460 -0.4557 -0.4735 -0.4462
  165MOL0     C22146   9.208   2.170   3.333  0.5164  0.7294  0.1220
  165MOL0     C22147   9.286   2.271   3.282 -0.4298  0.0601  0.7126
  165MOL0     O22148   9.310   2.293   3.154 -0.2026 -0.0447  0.3135
  165MOL0     C22149   9.329   2.175   3.070  1.4077  0.0104 -0.1133
  165MOL0     C22150   9.413   2.212   2.953  0.6500  0.5016  0.6292
  165MOL0     C22151   9.384   2.145   2.813 -0.4253  0.1839  0.6787
  165MOL0     C22152   9.414   1.993   2.821 -0.3305 -0.1349 -0.0179
  165MOL0     C22153   9.453   1.920   2.687 -0.0269  0.5758 -0.1459
  165MOL0     C22154   9.603   1.948   2.660 -0.4683  0.8364  0.2018
  165MOL0     C22155   9.631   1.916   2.518 -0.5852  0.3326 -0.5745
  165MOL0     C22156   9.664   1.769   2.499 -0.4129  0.5132 -0.1027
  165MOL0     N22157   9.693   1.742   2.363  0.1337 -0.0836 -0.0349
  165MOL0     C22158   9.818   1.734   2.309 -0.2928  0.7380  0.7386
  165MOL0     C22159   9.791   1.719   2.175 -0.3975  0.4087  0.3290
  165MOL0     C22160   9.886   1.683   2.057  0.8243 -0.1464 -0.4499
  165MOL0     C22161  10.032   1.718   2.093 -0.4139 -0.5308  0.6426
  165MOL0     C22162  10.118   1.718   1.970  0.1648  0.8307 -0.2086
  165MOL0     C22163  10.125   1.579   1.912 -0.0982 -0.6738 -0.2241
  165MOL0     O22164  10.027   1.567   1.808  0.0309 -0.2330  0.2875
  165MOL0     C22165  10.060   1.577   1.673 -0.7174 -0.3849  0.3126
  165MOL0     C22166  10.007   1.498   1.567 -0.0163  0.7029  0.1087
  165MOL0     C22167  10.041   1.524   1.432 -0.3968  0.7859  0.8676
  165MOL0     C22168  10.132   1.630   1.406  1.1160 -1.1446 -0.2666
  165MOL0     C22169  10.176   1.637   1.266 -1.1223 -0.0155  0.7226
  165MOL0     O22170  10.141   1.543   1.174 -0.5160  0.3384 -0.0078
  165MOL0     C22171  10.204   1.559   1.050 -0.4332  0.6242 -0.6944
  165MOL0     C22172  10.347   1.547   1.042 -0.9028  0.0473  1.1006
  165MOL0     C22173  10.405   1.544   0.908  0.2814 -0.2956 -0.9385
  165MOL0     C22174  10.324   1.549   0.792 -0.8682 -0.2550  0.4584
  165MOL0     O22175  10.370   1.534   0.666 -0.4691 -1.1005 -0.3979
  165MOL0     C22176  10.504   1.501   0.629 -0.6982  0.2516 -0.5983
  165MOL0     C22177  10.497   1.384   0.537  0.8335  0.1053 -0.7470
  165MOL0     C22178  10.454   1.242   0.594 -0.0906 -1.0298  0.1184
  165MOL0     C22179  10.469   1.121   0.506  0.0564  0.4570  0.6477
  165MOL0     C22180  10.378   1.117   0.379 -0.1652 -0.6330  0.2826
  165MOL0     C22181  10.366   0.989   0.307  0.1067  0.2715 -0.6215
  165MOL0     C22182  10.508   0.953   0.252  0.5774  0.2756 -0.3709
  165MOL0     C22183  10.580   0.849   0.343 -0.3910 -0.1810  0.2758
  165MOL0    Cl22184  10.722   0.783   0.273  1.0160  0.3375  0.6781
  165MOL0     C22185  10.186   1.552   0.806  0.6480 -0.7738 -0.4088
  165MOL0     C22186  10.128   1.554   0.935 -0.1745 -0.9117  0.3842
  165MOL0     O22187  10.248   1.735   1.240 -0.7818  0.0658 -0.2787
  165MOL0     C22188  10.178   1.711   1.508  0.0228  0.0338 -0.1303
  165MOL0     C22189  10.145   1.687   1.635  0.2713 -0.3637 -0.2410
  165MOL0     N22190   9.652   1.713   2.162  0.1840  0.2106 -0.4423
  165MOL0     N22191   9.596   1.734   2.273  0.4029  1.0399 -0.5948
  165MOL0     C22192   9.309   2.374   3.364 -1.1520  0.4044 -0.0128
  165MOL0     C22193   9.260   2.383   3.496 -0.1500  0.4542 -1.3121
  165MOL0     C22194   9.022   2.379   3.860  0.1228  0.6499 -0.7540
  165MOL0     C22195   8.902   2.427   3.909  0.1553  0.4799  0.2724
  165MOL0     C22196   8.897   2.502   4.027 -0.1578  0.4725 -0.0515
  165MOL0     C22197   9.000   2.477   4.124  1.4677  0.2112  0.2891
  165MOL0     O22198   8.970   2.505   4.258  0.1475 -0.6251  0.6288
  165MOL0     C22199   9.084   2.522   4.344  0.3096  0.6246 -0.8608
  165MOL0     C22200   9.019   2.571   4.476 -0.3257  0.0674 -0.5880
  165MOL0     C22201   8.987   2.726   4.481  0.7096  0.7725  0.4282
  165MOL0     C22202   9.106   2.820   4.507 -0.1818  0.3584  0.1362
  165MOL0     C22203   9.170   2.856   4.381  0.4661 -1.0284  0.3120
  165MOL0     C22204   9.219   2.906   4.275  0.2547  0.2834 -0.7915
  165MOL0     C22205   9.117   2.424   4.088 -0.8846 -0.5804  0.1719
  165MOL0     C22206   9.132   2.371   3.953  0.1072 -1.2544 -0.3557
  165MOL0     C22207   9.268   2.309   3.929  0.4977 -0.7967  0.5282
  165MOL0     H22208   9.108   2.073   3.486 -1.6528  0.0510 -0.9051
  165MOL0     H22209   9.186   2.090   3.263  1.6514  0.9375 -0.4906
  165MOL0     H22210   9.385   2.103   3.132 -0.6796 -1.5037  0.1219
  165MOL0     H22211   9.234   2.137   3.033  1.0321 -0.5384  1.3345
  165MOL0     H22212   9.516   2.182   2.973  0.4898 -1.8570 -1.6361
  165MOL0     H22213   9.415   2.320   2.935 -0.5036  0.1292 -2.2982
  165MOL0     H22214   9.448   2.205   2.748  1.3641 -0.2731  1.9501
  165MOL0     H22215   9.281   2.169   2.785  0.0670  2.5140  0.6874
  165MOL0     H22216   9.501   1.969   2.883 -0.7485 -3.5467 -0.5411
  165MOL0     H22217   9.323   1.947   2.860 -0.0573 -2.3948 -1.7816
  165MOL0     H22218   9.436   1.812   2.688  0.2019  0.4744 -2.2894
  165MOL0     H22219   9.391   1.962   2.607 -0.3584  1.1279  0.3878
  165MOL0     H22220   9.624   2.055   2.666  2.0451  0.4615 -0.5888
  165MOL0     H22221   9.679   1.903   2.726  0.6470  0.2305 -1.4281
  165MOL0     H22222   9.713   1.981   2.485  1.3084 -1.8271 -0.3213
  165MOL0     H22223   9.545   1.940   2.454 -1.3124  0.4408  0.4148
  165MOL0     H22224   9.750   1.740   2.560  2.6779  1.7859 -3.4316
  165MOL0     H22225   9.574   1.720   2.537 -1.1225  1.3028 -0.7195
  165MOL0     H22226   9.915   1.747   2.357 -0.1153 -0.3915  0.7053
  165MOL0     H22227   9.872   1.575   2.049 -3.6022  0.2323 -0.1928
  165MOL0     H22228   9.856   1.729   1.962 -2.1063  0.4159  0.6586
  165MOL0     H22229  10.041   1.820   2.131 -0.8078  0.5849 -2.0332
  165MOL0     H22230  10.072   1.654   2.172  0.6733  0.6824  1.1114
  165MOL0     H22231  10.215   1.760   1.999  0.8365 -1.0721  0.4669
  165MOL0     H22232  10.078   1.790   1.898 -1.8046  0.3085  0.3249
  165MOL0     H22233  10.109   1.508   1.994  1.9655  2.6032  3.3289
  165MOL0     H22234  10.229   1.577   1.877 -0.1751 -1.1679 -0.4319
  165MOL0     H22235   9.939   1.418   1.596  0.4234  0.3983  0.3138
  165MOL0     H22236  10.010   1.460   1.351  2.1752 -0.0232  0.4331
  165MOL0     H22237  10.387   1.531   1.141  4.9827 -2.1677 -1.1353
  165MOL0     H22238  10.507   1.511   0.894 -0.1689 -0.5174 -4.4409
  165MOL0     H22239  10.546   1.588   0.579  0.1382  0.8288  1.0343
  165MOL0     H22240  10.563   1.473   0.717 -1.1305  1.8610  0.2376
  165MOL0     H22241  10.415   1.407   0.467  0.4479 -1.2532 -0.7811
  165MOL0     H22242  10.595   1.371   0.490 -0.5925 -1.4152 -3.5742
  165MOL0     H22243  10.507   1.227   0.689 -0.8437  2.3494  1.1972
  165MOL0     H22244  10.349   1.252   0.621 -1.4014 -0.8153 -4.2438
  165MOL0     H22245  10.450   1.032   0.568  2.2220 -1.5939 -1.3879
  165MOL0     H22246  10.574   1.113   0.477  0.1263 -1.9264  1.3275
  165MOL0     H22247  10.416   1.193   0.310 -0.1662 -0.8261  0.0669
  165MOL0     H22248  10.276   1.143   0.410 -0.0695  0.7084 -0.4170
  165MOL0     H22249  10.336   0.911   0.377  1.9617 -0.5873 -0.7443
  165MOL0     H22250  10.305   0.992   0.216  2.8869 -0.4909 -2.6428
  165MOL0     H22251  10.570   1.043   0.254  0.4811  0.3306  0.7084
  165MOL0     H22252  10.508   0.910   0.151  0.0115 -1.4734  0.3441
  165MOL0     H22253  10.590   0.887   0.445 -0.1907 -1.8680  0.9145
  165MOL0     H22254  10.517   0.761   0.361 -0.4442 -0.1738  0.1240
  165MOL0     H22255  10.125   1.549   0.716  2.5823  1.7352 -1.9407
  165MOL0     H22256  10.020   1.567   0.942 -0.4654 -0.9243 -2.7668
  165MOL0     H22257  10.249   1.790   1.485  0.4941  0.1795  1.6758
  165MOL0     H22258  10.184   1.745   1.718 -2.0748 -3.0026  3.0095
  165MOL0     H22259   9.355   2.464   3.325  1.1929 -1.4009 -1.7716
  165MOL0     H22260   9.257   2.475   3.553  1.0918 -0.7166  0.7544
  165MOL0     H22261   8.819   2.430   3.839  1.1381 -0.1018 -0.9747
  165MOL0     H22262   8.799   2.537   4.056 -0.2379 -1.4047  2.2986
  165MOL0     H22263   9.152   2.588   4.289  1.6065  0.7983  0.8804
  165MOL0     H22264   9.115   2.420   4.372 -3.1981 -0.1636  0.6793
  165MOL0     H22265   9.085   2.551   4.561  0.1083 -1.4895 -1.2702
  165MOL0     H22266   8.926   2.517   4.492 -1.2755  0.9074 -2.9095
  165MOL0     H22267   8.913   2.741   4.560  1.9449 -0.6010  1.9063
  165MOL0     H22268   8.936   2.768   4.393 -2.6046  1.8599  2.6691
  165MOL0     H22269   9.076   2.908   4.564 -1.2922  0.5324 -0.6746
  165MOL0     H22270   9.183   2.778   4.572  0.7587  2.0666  0.1689
  165MOL0     H22271   9.271   2.942   4.188 -0.5511  1.4256 -0.8253
  165MOL0     H22272   9.204   2.403   4.150 -0.5833 -0.4516 -0.1988
  165MOL0     H22273   9.319   2.318   3.833  0.6636 -3.1446  0.3255
  165MOL0     H22274   9.338   2.351   4.002 -1.9662 -0.6790  2.9748
  165MOL0     H22275   9.263   2.200   3.936  5.8135 -1.9203 -4.8378
  166MOL0     O22276   5.216   2.644   4.058 -0.2798 -0.2665  0.3143
  166MOL0     C22277   5.199   2.603   4.172 -0.5730 -0.3769  1.0491
  166MOL0     O22278   5.187   2.469   4.207  0.8465 -1.1618  0.2582
  166MOL0     C22279   5.221   2.365   4.120 -0.6704 -1.1197  0.1448
  166MOL0     C22280   5.349   2.363   4.052 -0.2774  0.1248 -0.0254
  166MOL0     C22281   5.375   2.253   3.973 -0.1169 -0.3823  0.3334
  166MOL0     C22282   5.291   2.141   3.971  0.2558  0.0510 -0.6536
  166MOL0     O22283   5.329   2.018   3.925 -0.5737  0.8534  0.0575
  166MOL0     C22284   5.338   1.989   3.783 -0.7843 -0.6313 -0.3379
  166MOL0     C22285   5.424   1.862   3.759  1.2847  0.0299  0.4710
  166MOL0     C22286   5.569   1.887   3.758 -0.1248 -0.0395  0.7314
  166MOL0     C22287   5.635   1.874   3.618 -0.4959  1.1489  0.5772
  166MOL0     C22288   5.779   1.888   3.653  0.5034 -1.1720 -0.1748
  166MOL0     C22289   5.865   1.858   3.532 -0.5145 -0.4752 -0.3912
  166MOL0     C22290   6.010   1.840   3.575 -0.3314  0.0368 -0.3984
  166MOL0     C22291   6.066   1.966   3.639  0.4073 -0.2807  0.5874
  166MOL0     N22292   6.196   1.968   3.707 -0.2401  0.1724  0.5910
  166MOL0     C22293   6.301   1.907   3.649 -0.0717 -0.8989  0.0567
  166MOL0     C22294   6.403   1.939   3.733 -0.2579  0.2716 -0.4993
  166MOL0     C22295   6.539   1.884   3.707 -0.7653  0.3908 -0.1769
  166MOL0     C22296   6.651   1.946   3.782 -0.0648  0.2164  0.3832
  166MOL0     C22297   6.657   2.100   3.766 -0.2943 -1.6164  0.1955
  166MOL0     C22298   6.758   2.148   3.880 -0.2777  0.2602 -0.3347
  166MOL0     O22299   6.885   2.075   3.874  0.2077  0.8411  0.5755
  166MOL0     C22300   6.992   2.132   3.825  0.0956 -0.2949 -0.2623
  166MOL0     C22301   7.083   2.053   3.767 -1.5839 -0.5285 -0.8828
  166MOL0     C22302   7.195   2.096   3.699  0.4330 -0.3160 -0.3510
  166MOL0     C22303   7.226   2.231   3.680 -0.1270  0.1510  0.2031
  166MOL0     C22304   7.347   2.291   3.626  0.0845 -0.1993 -0.5112
  166MOL0     O22305   7.381   2.418   3.667 -0.2992  0.2097  0.3127
  166MOL0     C22306   7.501   2.465   3.626  0.6714  0.0837  0.8053
  166MOL0     C22307   7.551   2.454   3.489  0.9650 -0.2892 -1.2461
  166MOL0     C22308   7.670   2.508   3.468 -1.7083 -0.3289  0.7796
  166MOL0     C22309   7.746   2.574   3.573 -0.5525  1.4650 -0.8445
  166MOL0     O22310   7.865   2.635   3.536 -0.5763 -0.4143 -0.0886
  166MOL0     C22311   7.860   2.782   3.528 -0.1282  0.4275  0.2471
  166MOL0     C22312   7.991   2.852   3.482 -0.0120 -0.4698 -0.1778
  166MOL0     C22313   7.964   3.010   3.491  0.4404  0.4610 -0.4959
  166MOL0     C22314   8.081   3.084   3.427  0.4895  0.3516 -0.8146
  166MOL0     C22315   8.061   3.235   3.433  0.4202 -0.0398 -0.1331
  166MOL0     C22316   8.158   3.295   3.331  0.9357  0.0265  0.5781
  166MOL0     C22317   8.171   3.439   3.356 -0.9528 -0.1167  0.2702
  166MOL0     C22318   8.273   3.500   3.259 -0.6159  0.1417 -0.5560
  166MOL0    Cl22319   8.448   3.472   3.299  0.5258 -0.0456 -0.6597
  166MOL0     C22320   7.707   2.540   3.698  0.6675 -0.7607 -0.6710
  166MOL0     C22321   7.580   2.497   3.736 -0.6057  0.9068  0.3560
  166MOL0     O22322   7.407   2.227   3.540  0.0036 -0.4174  0.2534
  166MOL0     C22323   7.135   2.320   3.737  0.4736  0.7224 -0.1655
  166MOL0     C22324   7.023   2.273   3.815  0.3541 -1.9789  0.6078
  166MOL0     N22325   6.354   2.021   3.831 -0.2252 -0.1705  1.0191
  166MOL0     N22326   6.230   2.046   3.811  0.1919 -0.0899  0.0084
  166MOL0     C22327   5.175   2.136   4.042 -0.8518 -0.4040 -1.2381
  166MOL0     C22328   5.138   2.255   4.115 -0.1049 -0.4018 -0.4509
  166MOL0     C22329   5.199   2.698   4.279 -0.1642 -0.2236 -0.4906
  166MOL0     C22330   5.298   2.798   4.288 -0.2439  0.3176  0.8318
  166MOL0     C22331   5.297   2.879   4.386  1.1514  0.3477 -0.8662
  166MOL0     C22332   5.185   2.881   4.482 -0.6218  0.2969 -0.2679
  166MOL0     O22333   5.191   2.981   4.569  0.0222  0.0256 -0.0908
  166MOL0     C22334   5.102   2.996   4.682  0.2867  0.7460 -0.1593
  166MOL0     C22335   5.106   2.885   4.781 -1.0279  0.1834 -1.0150
  166MOL0     C22336   5.023   2.906   4.913 -0.0430 -0.0999  0.7610
  166MOL0     C22337   4.871   2.935   4.891 -0.1709  0.5869  0.1221
  166MOL0     C22338   4.798   2.824   4.832 -0.1456  0.7338  0.4749
  166MOL0     C22339   4.739   2.738   4.771 -0.0702 -1.1740 -0.4992
  166MOL0     C22340   5.093   2.791   4.474  0.3656 -0.3410  0.3477
  166MOL0     C22341   5.087   2.704   4.366  0.1723  0.8920 -0.7787
  166MOL0     C22342   4.965   2.637   4.338 -0.2613 -0.0579 -0.7332
  166MOL0     H22343   5.421   2.444   4.053 -0.3235  0.1958 -1.5704
  166MOL0     H22344   5.463   2.228   3.914 -1.1586 -3.2112 -0.2103
  166MOL0     H22345   5.238   1.985   3.738 -0.7407  1.4351 -0.6932
  166MOL0     H22346   5.389   2.074   3.738 -2.8717  0.7214 -0.2893
  166MOL0     H22347   5.385   1.821   3.665  0.8269  2.9024 -0.6717
  166MOL0     H22348   5.397   1.793   3.840  1.9835 -1.1956 -0.3093
  166MOL0     H22349   5.609   1.811   3.826  0.2396 -1.1907 -0.7104
  166MOL0     H22350   5.592   1.987   3.796 -4.7165  1.5486 -0.0152
  166MOL0     H22351   5.620   1.784   3.558 -0.7433  2.9679 -2.3008
  166MOL0     H22352   5.596   1.946   3.546  2.8269  1.3640 -1.2147
  166MOL0     H22353   5.792   1.990   3.692 -0.3870 -1.1480  0.0969
  166MOL0     H22354   5.802   1.824   3.738 -0.0128 -1.7922 -0.4897
  166MOL0     H22355   5.836   1.757   3.505 -0.7554 -0.7059  0.6884
  166MOL0     H22356   5.844   1.934   3.456 -2.1198 -0.9146 -0.4159
  166MOL0     H22357   6.061   1.802   3.486  1.4094 -2.0317  1.3860
  166MOL0     H22358   6.008   1.752   3.640  0.0638  0.3897  0.1017
  166MOL0     H22359   6.073   2.038   3.557  1.3061  0.3663  1.2099
  166MOL0     H22360   5.994   1.992   3.717 -2.4801 -2.7016 -1.0432
  166MOL0     H22361   6.322   1.833   3.573  1.0896 -0.8382  0.2936
  166MOL0     H22362   6.540   1.775   3.719  2.6401  0.3056 -0.1275
  166MOL0     H22363   6.556   1.905   3.601  1.4240  0.2360  0.0935
  166MOL0     H22364   6.620   1.916   3.883 -1.0844 -2.9614 -0.7216
  166MOL0     H22365   6.749   1.910   3.750  0.4375  2.9127 -1.4289
  166MOL0     H22366   6.561   2.150   3.786 -1.6096 -2.9245 -2.3741
  166MOL0     H22367   6.692   2.131   3.667 -0.8253 -1.8515 -0.0717
  166MOL0     H22368   6.721   2.112   3.977 -1.3793 -2.4944 -1.6596
  166MOL0     H22369   6.760   2.256   3.895 -3.6982  0.5144 -0.8630
  166MOL0     H22370   7.072   1.948   3.793  1.3698 -0.4732  1.0917
  166MOL0     H22371   7.279   2.032   3.673 -0.4949 -1.6727 -0.1335
  166MOL0     H22372   7.492   2.414   3.407 -1.2483 -1.0765  0.6168
  166MOL0     H22373   7.718   2.512   3.370 -1.0759  0.8196  1.1103
  166MOL0     H22374   7.784   2.814   3.456  2.0106 -0.3898 -2.5884
  166MOL0     H22375   7.823   2.818   3.625 -1.8559 -1.3300  0.2985
  166MOL0     H22376   8.069   2.822   3.552 -2.7179  2.5254  4.7101
  166MOL0     H22377   8.014   2.831   3.377 -0.8501  1.1123 -0.7113
  166MOL0     H22378   7.867   3.031   3.444 -0.9725 -1.5743  1.3038
  166MOL0     H22379   7.970   3.045   3.594 -0.6049 -1.7794  0.4043
  166MOL0     H22380   8.091   3.054   3.323  2.1226  1.9491 -1.1682
  166MOL0     H22381   8.176   3.080   3.480  0.6619 -0.7683 -1.1932
  166MOL0     H22382   8.081   3.278   3.532 -1.5393  2.9643 -0.9116
  166MOL0     H22383   7.955   3.260   3.423  0.3841 -0.3168 -0.4581
  166MOL0     H22384   8.250   3.239   3.352 -0.1447 -0.8961  3.1260
  166MOL0     H22385   8.114   3.261   3.237  0.7218 -2.0474  1.3775
  166MOL0     H22386   8.187   3.470   3.459 -0.1288  0.1814  0.0567
  166MOL0     H22387   8.077   3.487   3.327 -0.7736  0.2753  0.3425
  166MOL0     H22388   8.263   3.464   3.156 -0.8121 -0.5255 -0.3114
  166MOL0     H22389   8.246   3.606   3.259 -0.5567  0.1907 -2.6146
  166MOL0     H22390   7.769   2.565   3.783  1.1992  2.2064 -1.8087
  166MOL0     H22391   7.551   2.468   3.837 -0.2585 -1.2919 -0.1197
  166MOL0     H22392   7.157   2.427   3.738  0.5079  0.7156 -0.2011
  166MOL0     H22393   6.962   2.348   3.864  0.2146 -0.6755 -1.4221
  166MOL0     H22394   5.111   2.054   4.009 -1.1364 -0.2331 -1.1066
  166MOL0     H22395   5.044   2.263   4.168 -1.0243  1.6074 -2.2496
  166MOL0     H22396   5.369   2.812   4.206  1.4427  1.2510  2.3774
  166MOL0     H22397   5.380   2.948   4.395  0.3532  1.2247  0.1733
  166MOL0     H22398   5.001   3.025   4.651  0.5595  0.6127 -1.2101
  166MOL0     H22399   5.147   3.072   4.746  2.8139 -2.0715  1.6719
  166MOL0     H22400   5.212   2.866   4.801 -2.0101 -3.0360  2.4489
  166MOL0     H22401   5.060   2.795   4.738 -2.0147  1.0045 -1.7336
  166MOL0     H22402   5.065   2.997   4.959  0.9613 -0.5456  0.7589
  166MOL0     H22403   5.021   2.835   4.996 -1.5809 -0.8956  0.0864
  166MOL0     H22404   4.820   2.967   4.982  0.5460 -0.9871  1.1170
  166MOL0     H22405   4.870   3.022   4.824 -1.5582  3.0288  3.1020
  166MOL0     H22406   4.688   2.656   4.726  0.7872 -2.0463  0.0559
  166MOL0     H22407   5.010   2.795   4.544  0.7229  1.3600  0.7118
  166MOL0     H22408   4.892   2.668   4.414  0.4117  0.0189 -0.1166
  166MOL0     H22409   4.927   2.646   4.235 -0.8702  2.4466 -0.3557
  166MOL0     H22410   4.980   2.530   4.356 -0.7816 -0.1704 -0.9376
  167MOL0     O22411   1.579   1.259  10.942  0.3095  0.4993  0.2763
  167MOL0     C22412   1.688   1.307  10.898  0.4956 -0.1033 -1.0161
  167MOL0     O22413   1.771   1.384  10.969 -0.1909 -0.4048 -0.3904
  167MOL0     C22414   1.730   1.420  11.095  0.8225 -0.1148  0.3752
  167MOL0     C22415   1.633   1.521  11.109  0.5297  0.0123 -0.1613
  167MOL0     C22416   1.595   1.561  11.233 -0.5420  0.0380 -0.3569
  167MOL0     C22417   1.645   1.507  11.349 -0.3095 -0.6455  0.7614
  167MOL0     O22418   1.610   1.559  11.479 -0.5512 -0.0174  0.8698
  167MOL0     C22419   1.478   1.608  11.497 -0.5642  0.5064  0.3708
  167MOL0     C22420   1.387   1.485  11.521 -0.6241  0.7603  0.4484
  167MOL0     C22421   1.243   1.525  11.525 -0.1706  0.1319 -0.8649
  167MOL0     C22422   1.152   1.401  11.565  0.6149 -0.1075 -0.4326
  167MOL0     C22423   1.006   1.450  11.575  0.6853  0.4390 -0.6307
  167MOL0     C22424   0.910   1.345  11.625  0.4303  0.5347  0.5112
  167MOL0     C22425   0.886   1.336  11.774 -0.7383  0.5376 -1.0694
  167MOL0     C22426   0.857   1.192  11.816 -0.2193 -0.7614 -0.0928
  167MOL0     N22427   0.812   1.176  11.955 -0.0935 -1.1640  0.1890
  167MOL0     C22428   0.899   1.167  12.068 -0.5920  0.0522 -0.1240
  167MOL0     C22429   0.812   1.185  12.178  0.6025 -0.2830  0.4736
  167MOL0     C22430   0.851   1.203  12.318 -0.5368  0.1186 -0.4325
  167MOL0     C22431   0.752   1.160  12.415  0.2001 -0.0125 -0.4997
  167MOL0     C22432   0.671   1.272  12.482 -0.0179  0.1827  0.2797
  167MOL0     C22433   0.594   1.351  12.378  0.0599  0.5737 -0.1310
  167MOL0     O22434   0.504   1.449  12.436 -0.1258  0.2127  0.1210
  167MOL0     C22435   0.517   1.509  12.559  0.8061  0.2012 -0.1444
  167MOL0     C22436   0.420   1.471  12.661  0.9594 -0.2116  0.3941
  167MOL0     C22437   0.432   1.528  12.783  0.8239  0.3490 -1.2944
  167MOL0     C22438   0.521   1.632  12.816  1.0649  0.8582 -0.4375
  167MOL0     C22439   0.531   1.680  12.954 -0.1516 -0.5565 -0.2823
  167MOL0     O22440   0.427   1.635  13.040  0.3749 -0.1525  0.2872
  167MOL0     C22441   0.454   1.647  13.172 -0.5789 -0.9228 -0.4832
  167MOL0     C22442   0.382   1.730  13.257  0.6763 -0.1371  0.5131
  167MOL0     C22443   0.404   1.728  13.395  0.3359  0.0961  0.0556
  167MOL0     C22444   0.493   1.636  13.449  0.4582 -0.2707 -0.9962
  167MOL0     O22445   0.508   1.609  13.588  0.6051 -0.0073 -0.1718
  167MOL0     C22446   0.425   1.671  13.694 -0.5795  0.2412 -0.1187
  167MOL0     C22447   0.454   1.824  13.719 -0.9944  0.6031  0.3767
  167MOL0     C22448   0.337   1.878  13.794 -1.1037  0.5636 -0.1982
  167MOL0     C22449   0.341   2.032  13.790 -0.6581 -0.0141 -0.8538
  167MOL0     C22450   0.271   2.101  13.900  0.0183 -0.5309  0.7919
  167MOL0     C22451   0.127   2.097  13.883  0.2940  0.1721 -0.3785
  167MOL0     C22452   0.055   2.163  13.994 -0.4989 -0.6114 -0.4640
  167MOL0     C22453  -0.070   2.091  14.055  0.3377 -0.0555  0.3569
  167MOL0    Cl22454  -0.216   2.134  13.962  0.2937  0.0769  0.0222
  167MOL0     C22455   0.575   1.556  13.373 -0.2803  0.0643 -0.1327
  167MOL0     C22456   0.547   1.557  13.231  1.0827 -0.1938 -0.8467
  167MOL0     O22457   0.624   1.748  12.981 -0.3304 -0.8029  0.0092
  167MOL0     C22458   0.605   1.670  12.711 -0.5005 -0.4836  0.3169
  167MOL0     C22459   0.607   1.606  12.589  0.3200  0.1634  0.7920
  167MOL0     N22460   0.683   1.189  12.125  0.4521 -0.0855  0.1578
  167MOL0     N22461   0.684   1.189  11.996 -0.2927 -0.1084 -1.5983
  167MOL0     C22462   1.742   1.400  11.329  0.0986 -0.2406 -0.5817
  167MOL0     C22463   1.786   1.359  11.206  0.8643 -0.4621 -0.2964
  167MOL0     C22464   1.728   1.282  10.759 -0.1200 -0.1418 -0.8031
  167MOL0     C22465   1.861   1.234  10.742 -0.6286 -0.2151  0.4099
  167MOL0     C22466   1.915   1.212  10.617 -0.7628  0.3722 -0.3783
  167MOL0     C22467   1.841   1.210  10.493  0.4750  0.7162 -0.3301
  167MOL0     O22468   1.890   1.164  10.376  0.6661 -0.6406 -0.3979
  167MOL0     C22469   2.003   1.225  10.325 -0.6066 -0.8449  0.0989
  167MOL0     C22470   2.137   1.154  10.329 -0.2789 -0.6113 -0.4941
  167MOL0     C22471   2.249   1.205  10.231  0.5932  0.1079  0.9796
  167MOL0     C22472   2.320   1.076  10.169  0.6115 -0.3690 -0.6091
  167MOL0     C22473   2.400   1.115  10.052  0.2295  0.5585  0.1594
  167MOL0     C22474   2.471   1.138   9.952  0.3753  0.2523 -1.1875
  167MOL0     C22475   1.707   1.234  10.516  0.2524 -0.0463  0.1160
  167MOL0     C22476   1.650   1.291  10.637  1.2855  0.3700 -0.6822
  167MOL0     C22477   1.517   1.364  10.629  0.2618 -0.0929 -0.7543
  167MOL0     H22478   1.573   1.568  11.032 -0.8820  2.6756  2.3540
  167MOL0     H22479   1.536   1.650  11.256 -1.9366 -0.1293 -2.9767
  167MOL0     H22480   1.494   1.663  11.591 -0.2236  0.0834  0.5602
  167MOL0     H22481   1.426   1.681  11.433 -3.5113 -2.0629 -0.4040
  167MOL0     H22482   1.419   1.441  11.616  0.5486  2.8432  1.0777
  167MOL0     H22483   1.394   1.404  11.447  0.0099  0.1997  1.1004
  167MOL0     H22484   1.224   1.560  11.423  0.2030 -1.8834 -1.6755
  167MOL0     H22485   1.217   1.609  11.591 -0.8756  2.5357 -3.9693
  167MOL0     H22486   1.157   1.319  11.493 -2.2803 -0.4427 -0.3690
  167MOL0     H22487   1.185   1.357  11.660 -1.1352 -1.0853 -0.2369
  167MOL0     H22488   0.987   1.541  11.632 -1.9942 -0.1115 -0.5161
  167MOL0     H22489   0.976   1.470  11.472  1.4183 -1.6617 -1.2994
  167MOL0     H22490   0.812   1.375  11.587  0.6260 -1.0129 -1.3829
  167MOL0     H22491   0.950   1.251  11.586  3.6075  2.4104 -1.2455
  167MOL0     H22492   0.800   1.398  11.801 -3.5338 -3.3786 -0.1728
  167MOL0     H22493   0.972   1.372  11.831  0.5871 -2.6374 -0.8413
  167MOL0     H22494   0.776   1.156  11.752 -1.3443  1.3468  0.0826
  167MOL0     H22495   0.941   1.122  11.802 -1.9738 -2.5288 -2.7538
  167MOL0     H22496   1.005   1.165  12.089 -0.8955 -4.2043  2.1098
  167MOL0     H22497   0.945   1.153  12.343 -1.2289 -0.9198  0.1750
  167MOL0     H22498   0.882   1.304  12.349 -1.2592  0.0288  0.6385
  167MOL0     H22499   0.688   1.084  12.370  4.0162 -4.1837  0.3769
  167MOL0     H22500   0.792   1.117  12.508  3.1280  1.5549 -0.9198
  167MOL0     H22501   0.742   1.345  12.521  0.0038  1.0641 -1.3160
  167MOL0     H22502   0.614   1.239  12.570 -0.6471 -1.1194 -0.5763
  167MOL0     H22503   0.532   1.290  12.312 -0.0984  2.0589 -1.4252
  167MOL0     H22504   0.664   1.413  12.321 -0.6301  0.6297 -0.9385
  167MOL0     H22505   0.340   1.402  12.638 -0.5388  1.1211  1.3447
  167MOL0     H22506   0.356   1.490  12.849 -0.3754 -1.5089 -3.5828
  167MOL0     H22507   0.303   1.789  13.212 -0.7372 -2.8251 -0.7580
  167MOL0     H22508   0.343   1.782  13.466 -0.6996 -0.1193 -0.6531
  167MOL0     H22509   0.321   1.659  13.661 -1.4946  0.1894  2.4951
  167MOL0     H22510   0.426   1.625  13.793 -3.0179  1.5516  0.6190
  167MOL0     H22511   0.550   1.842  13.768 -0.6936  2.8064 -0.8999
  167MOL0     H22512   0.459   1.872  13.621  0.9137 -2.9661 -1.4873
  167MOL0     H22513   0.245   1.842  13.747 -0.9359  0.0005 -0.1069
  167MOL0     H22514   0.342   1.848  13.899  1.4349  1.9033  0.1533
  167MOL0     H22515   0.292   2.064  13.698 -2.4988 -1.8238 -0.5841
  167MOL0     H22516   0.444   2.067  13.786  0.1568 -2.0410  0.6652
  167MOL0     H22517   0.290   2.209  13.898  0.6011 -0.6203  1.1823
  167MOL0     H22518   0.308   2.078  14.000  2.7507  1.2044  0.2840
  167MOL0     H22519   0.097   2.152  13.793  0.0184  0.8826  0.1407
  167MOL0     H22520   0.104   1.990  13.881  3.4596 -0.6099 -1.0913
  167MOL0     H22521   0.034   2.265  13.959 -2.4884 -0.9760 -0.4356
  167MOL0     H22522   0.125   2.167  14.077 -0.5035  2.3046 -0.5129
  167MOL0     H22523  -0.053   1.983  14.051  2.0512  0.0313  2.7452
  167MOL0     H22524  -0.088   2.125  14.158 -1.0432 -1.6240  0.6610
  167MOL0     H22525   0.651   1.487  13.409 -0.0266  1.0603  1.3073
  167MOL0     H22526   0.594   1.487  13.163  2.0714 -3.1381  2.5164
  167MOL0     H22527   0.681   1.747  12.723 -1.5942  1.1995 -2.4505
  167MOL0     H22528   0.680   1.638  12.516 -0.3442  0.2794  0.1622
  167MOL0     H22529   1.799   1.348  11.406  3.6819  1.6545 -1.6922
  167MOL0     H22530   1.860   1.279  11.215 -0.5126 -1.7632 -0.1702
  167MOL0     H22531   1.920   1.209  10.829 -0.8819 -3.8042 -0.3169
  167MOL0     H22532   2.016   1.171  10.612 -0.7542  0.3213  0.2359
  167MOL0     H22533   2.013   1.323  10.373 -0.1684 -0.0862 -1.4736
  167MOL0     H22534   1.974   1.245  10.221 -2.0179 -1.2929  0.3876
  167MOL0     H22535   2.109   1.050  10.312  0.2756 -0.6434 -1.2549
  167MOL0     H22536   2.181   1.156  10.429  2.6821  1.6201 -1.6879
  167MOL0     H22537   2.313   1.268  10.294  0.4068  0.8078  0.4785
  167MOL0     H22538   2.206   1.259  10.147 -0.2096 -2.1529 -0.1564
  167MOL0     H22539   2.382   1.039  10.251 -0.5753  1.7570  1.3555
  167MOL0     H22540   2.252   1.002  10.127  0.6599 -0.3491 -0.7240
  167MOL0     H22541   2.522   1.176   9.865  2.7349 -0.2141 -0.0873
  167MOL0     H22542   1.648   1.230  10.425 -2.0913 -2.8602  1.6072
  167MOL0     H22543   1.529   1.471  10.605  0.8612  0.5052  1.8752
  167MOL0     H22544   1.460   1.311  10.552 -2.6614  0.8053  0.6068
  167MOL0     H22545   1.456   1.359  10.720  0.8303 -0.7812 -0.4036
  168MOL0     O22546   3.455   0.116   9.822  0.7641 -0.1822  0.3374
  168MOL0     C22547   3.575   0.108   9.864 -0.3304 -0.7605 -0.1549
  168MOL0     O22548   3.636  -0.013   9.882 -0.4481 -0.2073 -0.3109
  168MOL0     C22549   3.577  -0.134   9.836 -0.8182 -0.9111 -0.4414
  168MOL0     C22550   3.462  -0.188   9.885 -0.1345  0.0197 -0.1332
  168MOL0     C22551   3.411  -0.317   9.851  0.5814  0.1261  0.3479
  168MOL0     C22552   3.490  -0.395   9.773  0.5748  1.6686  1.1542
  168MOL0     O22553   3.454  -0.522   9.736 -0.4373 -0.6883  0.5599
  168MOL0     C22554   3.427  -0.611   9.838 -0.4289  0.9324 -0.1096
  168MOL0     C22555   3.402  -0.756   9.778  0.2357  0.3404  0.4175
  168MOL0     C22556   3.444  -0.870   9.872  0.2277 -0.5487  0.3095
  168MOL0     C22557   3.321  -0.947   9.927  0.5845 -0.0769 -0.1654
  168MOL0     C22558   3.240  -0.869  10.028 -0.1732 -0.3252 -0.0843
  168MOL0     C22559   3.109  -0.941  10.054  1.0102  0.8840  0.0423
  168MOL0     C22560   3.015  -0.869  10.150  1.5630  0.7269 -0.3625
  168MOL0     C22561   2.870  -0.908  10.133 -0.0239  0.6372  0.3399
  168MOL0     N22562   2.850  -1.048  10.180 -1.2088  0.3792 -1.0387
  168MOL0     C22563   2.817  -1.069  10.318  0.4686 -0.2193  0.2165
  168MOL0     C22564   2.811  -1.201  10.334 -0.0389 -0.0762  0.0404
  168MOL0     C22565   2.770  -1.286  10.455  0.2296 -1.3815 -0.0758
  168MOL0     C22566   2.892  -1.354  10.525 -0.2039 -0.2453  0.9785
  168MOL0     C22567   2.954  -1.463  10.436 -0.9758  0.8833 -0.3576
  168MOL0     C22568   3.076  -1.532  10.497  1.1675  0.7135 -0.3036
  168MOL0     O22569   3.184  -1.432  10.502 -0.5219  0.1608 -0.1459
  168MOL0     C22570   3.313  -1.481  10.519 -0.5320 -0.5269  0.0681
  168MOL0     C22571   3.343  -1.616  10.537 -0.4224 -0.5003 -0.3841
  168MOL0     C22572   3.478  -1.658  10.539 -0.7984 -0.5094 -0.3394
  168MOL0     C22573   3.580  -1.574  10.515 -0.6052 -0.7319  0.3586
  168MOL0     C22574   3.710  -1.624  10.478 -0.6510 -0.0105 -1.0054
  168MOL0     O22575   3.797  -1.528  10.455 -0.3716  0.2154  0.5083
  168MOL0     C22576   3.942  -1.539  10.458 -0.2236  0.9665 -0.2397
  168MOL0     C22577   4.012  -1.644  10.393 -0.6434 -0.7454 -0.8073
  168MOL0     C22578   4.146  -1.661  10.421  0.5785  0.5769  0.5306
  168MOL0     C22579   4.209  -1.584  10.514 -0.6793 -0.8744 -0.5440
  168MOL0     O22580   4.331  -1.618  10.566  0.1135  0.1360  0.5786
  168MOL0     C22581   4.416  -1.727  10.504  0.2365  0.2770 -0.0080
  168MOL0     C22582   4.486  -1.670  10.378  0.6032  0.1355 -0.1122
  168MOL0     C22583   4.577  -1.560  10.420 -0.2178  0.4245 -0.4248
  168MOL0     C22584   4.653  -1.500  10.295  0.1595  0.5759 -0.3373
  168MOL0     C22585   4.744  -1.373  10.319  0.1362 -0.2577 -0.5622
  168MOL0     C22586   4.819  -1.340  10.193  0.1132 -0.5133 -0.8903
  168MOL0     C22587   4.967  -1.390  10.198  0.7324  0.3404  0.0649
  168MOL0     C22588   5.021  -1.414  10.061  0.2697  0.3745  0.6925
  168MOL0    Cl22589   4.996  -1.261   9.973  0.1031  0.2985  0.3931
  168MOL0     C22590   4.146  -1.475  10.580  0.1565 -0.0199 -0.1005
  168MOL0     C22591   4.015  -1.453  10.544  0.1179 -0.8925  0.9744
  168MOL0     O22592   3.737  -1.744  10.487 -0.3251 -0.5442 -0.5473
  168MOL0     C22593   3.548  -1.439  10.501  0.0137  0.6461 -0.9366
  168MOL0     C22594   3.417  -1.392  10.510  0.0958  0.6060 -1.1663
  168MOL0     N22595   2.823  -1.258  10.203 -0.7244 -0.7422  0.5562
  168MOL0     N22596   2.858  -1.164  10.113  0.6576  0.7963 -0.8862
  168MOL0     C22597   3.605  -0.338   9.709  0.4971  0.3028 -0.1707
  168MOL0     C22598   3.637  -0.203   9.731 -0.7411  0.4224 -1.0451
  168MOL0     C22599   3.668   0.228   9.848 -0.3702  1.0241 -0.1459
  168MOL0     C22600   3.803   0.204   9.895 -0.1806  0.5278  1.0769
  168MOL0     C22601   3.897   0.308   9.886  0.1536 -0.2402  0.1944
  168MOL0     C22602   3.864   0.433   9.846 -0.3576 -0.2780 -0.6665
  168MOL0     O22603   3.953   0.535   9.851 -0.1062  0.7690  0.5159
  168MOL0     C22604   3.921   0.661   9.819 -1.3676  0.0105  0.3537
  168MOL0     C22605   4.051   0.739   9.838 -0.4831 -0.1526 -0.1330
  168MOL0     C22606   4.040   0.873   9.764  0.1670 -0.2340 -1.1492
  168MOL0     C22607   3.962   0.981   9.845  0.3822  0.0538 -0.3373
  168MOL0     C22608   3.956   1.091   9.746 -0.1773 -0.8106 -0.5435
  168MOL0     C22609   3.963   1.196   9.677  0.0865 -0.2476 -0.0986
  168MOL0     C22610   3.729   0.461   9.824  0.0897  0.0240  0.5398
  168MOL0     C22611   3.628   0.358   9.810 -0.0492 -0.5161 -0.8529
  168MOL0     C22612   3.501   0.401   9.743  0.3982 -0.6352  0.2454
  168MOL0     H22613   3.422  -0.127   9.965  1.3885  2.7741 -1.3256
  168MOL0     H22614   3.326  -0.345   9.913  1.0288  2.5937  2.2628
  168MOL0     H22615   3.516  -0.615   9.901  1.1815 -0.7316 -2.3080
  168MOL0     H22616   3.339  -0.581   9.895 -1.6643 -2.1388 -0.1528
  168MOL0     H22617   3.453  -0.765   9.682  0.9370  2.6318  0.4985
  168MOL0     H22618   3.298  -0.773   9.749  0.2846  1.4836 -0.4944
  168MOL0     H22619   3.496  -0.821   9.955  1.3129 -1.3447  0.1163
  168MOL0     H22620   3.521  -0.927   9.820  1.3933 -1.6456  3.0309
  168MOL0     H22621   3.255  -0.977   9.845 -1.0212  0.9813  0.6920
  168MOL0     H22622   3.366  -1.028   9.985  1.2338 -1.0075 -1.8729
  168MOL0     H22623   3.294  -0.854  10.122  0.2269  1.7481 -0.5996
  168MOL0     H22624   3.210  -0.779   9.974  1.9971  0.3317 -0.2776
  168MOL0     H22625   3.057  -0.960   9.960  0.5979 -0.7146  0.5577
  168MOL0     H22626   3.143  -1.035  10.100  1.9912  2.3706  2.5564
  168MOL0     H22627   3.021  -0.761  10.133 -0.6026  1.1669  1.2508
  168MOL0     H22628   3.043  -0.892  10.253  3.9547  1.2850 -0.8414
  168MOL0     H22629   2.807  -0.839  10.190 -1.3142  0.4654 -0.8060
  168MOL0     H22630   2.837  -0.897  10.029  3.4063  1.8719 -0.7583
  168MOL0     H22631   2.794  -1.008  10.405  2.9033 -0.7944  1.3434
  168MOL0     H22632   2.714  -1.233  10.532 -1.2509 -0.2090 -1.8861
  168MOL0     H22633   2.693  -1.356  10.421 -2.5383  1.0760  0.6884
  168MOL0     H22634   2.973  -1.284  10.550 -0.0329 -1.0760  2.8804
  168MOL0     H22635   2.856  -1.390  10.621  1.3295  1.8527  2.4378
  168MOL0     H22636   2.993  -1.416  10.345  2.5906  0.8767  0.9765
  168MOL0     H22637   2.875  -1.532  10.406 -0.4280 -0.0006  0.1684
  168MOL0     H22638   3.109  -1.622  10.444 -1.3288 -0.1750 -0.4828
  168MOL0     H22639   3.051  -1.568  10.597  0.5338  1.1449 -0.3016
  168MOL0     H22640   3.271  -1.693  10.563 -0.3735  0.4100  2.8061
  168MOL0     H22641   3.504  -1.762  10.557 -1.3242 -0.5890 -0.0130
  168MOL0     H22642   3.965  -1.711  10.322 -0.4502  0.5568 -2.2300
  168MOL0     H22643   4.186  -1.737  10.354  0.4704  1.4295 -0.5181
  168MOL0     H22644   4.493  -1.761  10.574 -1.2762  1.8664  2.6087
  168MOL0     H22645   4.360  -1.818  10.482  1.7183 -0.1224 -2.4898
  168MOL0     H22646   4.536  -1.750  10.321  2.4454  1.4426 -0.3975
  168MOL0     H22647   4.414  -1.635  10.303  3.1903  1.6490 -2.0783
  168MOL0     H22648   4.527  -1.473  10.462 -0.7545 -1.5042  3.3270
  168MOL0     H22649   4.661  -1.585  10.486 -0.5716 -0.1448 -0.1861
  168MOL0     H22650   4.573  -1.483  10.222 -0.2361  0.4598  0.0613
  168MOL0     H22651   4.711  -1.581  10.250 -2.3193 -1.3325 -0.3387
  168MOL0     H22652   4.809  -1.392  10.404  3.1692 -0.7712 -2.8210
  168MOL0     H22653   4.668  -1.299  10.347  0.3201  0.1842 -1.2021
  168MOL0     H22654   4.758  -1.375  10.110 -0.0141  0.7091 -1.3323
  168MOL0     H22655   4.829  -1.231  10.183 -2.7949 -0.3062 -2.8370
  168MOL0     H22656   4.972  -1.486  10.251  0.1767 -0.1391 -0.7316
  168MOL0     H22657   5.028  -1.321  10.256  2.1071 -2.0866  1.7271
  168MOL0     H22658   5.125  -1.445  10.053  0.5179  0.6929  2.4161
  168MOL0     H22659   4.960  -1.489  10.009  2.0407 -0.1014 -0.7942
  168MOL0     H22660   4.186  -1.412  10.659 -1.3479 -0.7203  1.2863
  168MOL0     H22661   3.964  -1.384  10.611  2.7760  1.1078  1.1015
  168MOL0     H22662   3.627  -1.366  10.485 -0.6887  1.5857 -0.2597
  168MOL0     H22663   3.409  -1.284  10.520 -0.6254  1.2293 -6.1240
  168MOL0     H22664   3.643  -0.390   9.621 -2.7350  1.1366 -2.2355
  168MOL0     H22665   3.708  -0.147   9.670 -2.1545  1.7202 -1.5615
  168MOL0     H22666   3.837   0.106   9.927 -1.6920 -0.2232  0.4443
  168MOL0     H22667   4.002   0.288   9.905  0.5900  1.2737 -0.4342
  168MOL0     H22668   3.844   0.710   9.880 -0.1905  0.6833  1.3522
  168MOL0     H22669   3.884   0.673   9.717  1.2765  0.3614 -0.6371
  168MOL0     H22670   4.129   0.684   9.784  3.0280  3.6142  0.5430
  168MOL0     H22671   4.088   0.747   9.941  0.3025 -2.5238 -0.1810
  168MOL0     H22672   4.000   0.851   9.665  0.4094  1.3456 -1.6181
  168MOL0     H22673   4.143   0.908   9.753 -0.1391  1.1985  0.2184
  168MOL0     H22674   3.858   0.947   9.851  0.7626 -1.3847 -1.4606
  168MOL0     H22675   4.027   1.006   9.930  3.1312  0.8301 -2.5248
  168MOL0     H22676   3.968   1.283   9.615 -1.4370 -0.6964 -0.9030
  168MOL0     H22677   3.714   0.563   9.793  3.8292  0.8471  0.9611
  168MOL0     H22678   3.498   0.511   9.735 -5.9249 -0.5010 -0.6845
  168MOL0     H22679   3.504   0.357   9.643  0.0894 -2.9951  1.2064
  168MOL0     H22680   3.406   0.373   9.789  1.1074 -1.1079  1.4820
  169MOL0     O22681   6.546   1.815   8.533 -1.0185  0.4507 -0.5721
  169MOL0     C22682   6.638   1.785   8.456  0.2936  0.0471 -0.0104
  169MOL0     O22683   6.770   1.772   8.501  0.5754 -0.1312 -0.1409
  169MOL0     C22684   6.816   1.793   8.621 -0.5262 -0.1649 -0.8986
  169MOL0     C22685   6.948   1.769   8.633 -0.3166 -0.3577  0.0687
  169MOL0     C22686   7.027   1.813   8.741 -0.4530 -0.0252 -0.7872
  169MOL0     C22687   6.962   1.869   8.849  0.0465  0.1623 -0.2304
  169MOL0     O22688   7.038   1.924   8.954  0.8085  0.1433 -0.2842
  169MOL0     C22689   6.978   1.970   9.074  0.4493 -0.7817 -1.0945
  169MOL0     C22690   7.095   1.995   9.178  0.2983  0.5019  0.6507
  169MOL0     C22691   7.087   2.130   9.249 -0.5020 -0.1742 -1.0469
  169MOL0     C22692   7.219   2.192   9.280 -1.0791 -0.3020 -0.3293
  169MOL0     C22693   7.297   2.113   9.379  0.3416 -0.2189  0.7646
  169MOL0     C22694   7.430   2.077   9.338 -0.4071 -0.2700  0.3157
  169MOL0     C22695   7.528   2.188   9.335  0.2113 -0.2697  0.2576
  169MOL0     C22696   7.651   2.141   9.256 -1.2656  0.4060 -0.2838
  169MOL0     N22697   7.719   2.026   9.307 -0.0105 -0.3317 -0.7356
  169MOL0     C22698   7.743   1.994   9.444  1.6885  0.5880 -1.0161
  169MOL0     C22699   7.790   1.864   9.441 -0.0650 -0.5387 -1.1558
  169MOL0     C22700   7.849   1.791   9.562 -0.0375 -0.1747  1.2373
  169MOL0     C22701   7.991   1.850   9.579  0.3546 -0.1009 -0.0659
  169MOL0     C22702   8.106   1.771   9.520 -0.8502  0.5061  0.6019
  169MOL0     C22703   8.237   1.860   9.486 -0.8338 -0.9904 -0.7830
  169MOL0     O22704   8.293   1.888   9.612 -0.3939 -0.6880 -0.0844
  169MOL0     C22705   8.318   2.024   9.653  0.0794  0.7814 -0.0632
  169MOL0     C22706   8.322   2.130   9.563 -0.3377 -0.8180  0.0855
  169MOL0     C22707   8.350   2.262   9.609  0.6300  0.8318  0.2471
  169MOL0     C22708   8.359   2.287   9.748 -0.2952  1.3323 -0.3750
  169MOL0     C22709   8.369   2.424   9.796 -0.2712  0.1389  0.0606
  169MOL0     O22710   8.310   2.459   9.917  0.5744  0.3312 -0.0999
  169MOL0     C22711   8.280   2.586   9.961 -0.2856  0.0972  0.3656
  169MOL0     C22712   8.301   2.614  10.101  0.0434 -0.0892  0.4077
  169MOL0     C22713   8.264   2.745  10.146  0.0914  0.5332 -0.5052
  169MOL0     C22714   8.208   2.837  10.063  0.3182 -0.3260  0.1861
  169MOL0     O22715   8.164   2.955  10.103  0.5832  0.8656  0.0869
  169MOL0     C22716   8.191   2.983  10.242  0.1652 -0.7617  1.2114
  169MOL0     C22717   8.133   3.127  10.262  0.1691 -1.0525 -1.1116
  169MOL0     C22718   8.198   3.228  10.173  0.5317  0.1670  0.8401
  169MOL0     C22719   8.190   3.367  10.222  0.0365  0.6135 -0.2768
  169MOL0     C22720   8.266   3.462  10.129  0.8053  0.8593 -0.4303
  169MOL0     C22721   8.241   3.613  10.150 -0.8347 -0.0811  0.4381
  169MOL0     C22722   8.290   3.694  10.025  0.1619 -1.2584  0.2359
  169MOL0     C22723   8.421   3.656   9.969  1.0609  0.0712  0.1449
  169MOL0    Cl22724   8.466   3.780   9.857  0.1532  0.2058 -0.3393
  169MOL0     C22725   8.179   2.803   9.926  0.1911 -0.0681 -1.1854
  169MOL0     C22726   8.229   2.681   9.879  0.3634 -0.3061 -0.2985
  169MOL0     O22727   8.423   2.501   9.721 -0.5583 -0.3469  0.6560
  169MOL0     C22728   8.361   2.174   9.838  0.3766 -0.0377 -0.2488
  169MOL0     C22729   8.348   2.048   9.792  0.0661 -0.2578 -0.3083
  169MOL0     N22730   7.816   1.824   9.310  0.6355  0.2576 -0.1597
  169MOL0     N22731   7.774   1.922   9.233  0.3044 -0.5063  0.3269
  169MOL0     C22732   6.826   1.883   8.840 -1.0314  1.2738 -0.4131
  169MOL0     C22733   6.752   1.851   8.734  0.5617  0.4999  0.4858
  169MOL0     C22734   6.608   1.771   8.315  0.1899  0.4718  0.8059
  169MOL0     C22735   6.708   1.816   8.221 -0.6697 -0.1654 -0.1756
  169MOL0     C22736   6.681   1.795   8.088 -0.1121 -0.5513  0.8024
  169MOL0     C22737   6.555   1.772   8.037  0.3642  0.6372  0.7668
  169MOL0     O22738   6.538   1.791   7.899 -0.2894 -0.0497  1.0889
  169MOL0     C22739   6.475   1.682   7.824  0.2278 -0.0293  0.2356
  169MOL0     C22740   6.563   1.561   7.842  0.9175  0.7369 -0.7078
  169MOL0     C22741   6.521   1.477   7.712  0.2034 -0.7615  1.1480
  169MOL0     C22742   6.571   1.333   7.721 -0.2150 -1.1347  0.3467
  169MOL0     C22743   6.483   1.245   7.794 -0.3398  0.4806  0.9746
  169MOL0     C22744   6.413   1.168   7.858  0.5980  0.5267  0.2137
  169MOL0     C22745   6.460   1.729   8.125  0.4605  0.3526  0.2616
  169MOL0     C22746   6.488   1.720   8.266 -0.1955  0.1183 -1.3366
  169MOL0     C22747   6.389   1.665   8.362  0.6357 -0.2188 -0.5416
  169MOL0     H22748   7.010   1.722   8.557  0.1062  1.9719 -1.1010
  169MOL0     H22749   7.134   1.796   8.751 -0.3550  1.0130  0.2195
  169MOL0     H22750   6.934   2.066   9.044 -0.5717 -0.0031  2.4178
  169MOL0     H22751   6.903   1.905   9.119  1.3163 -0.0275  1.6554
  169MOL0     H22752   7.188   1.977   9.122  0.4280 -2.7710  1.6883
  169MOL0     H22753   7.091   1.907   9.244  0.2137  1.4064  1.8810
  169MOL0     H22754   7.031   2.117   9.342  1.0974  4.6620  0.9049
  169MOL0     H22755   7.016   2.193   9.194 -1.1284  1.2342  1.2660
  169MOL0     H22756   7.284   2.193   9.192 -1.0707 -2.2197 -0.3924
  169MOL0     H22757   7.193   2.288   9.326 -2.1390  0.3208 -2.1541
  169MOL0     H22758   7.313   2.153   9.479  2.1879  1.0003  0.0535
  169MOL0     H22759   7.255   2.013   9.392 -1.5804 -0.0657 -2.9155
  169MOL0     H22760   7.463   2.003   9.411 -1.3685  1.7576  2.9756
  169MOL0     H22761   7.432   2.029   9.239  1.9108 -1.6511  0.9499
  169MOL0     H22762   7.554   2.210   9.439 -2.1880  0.8224  0.7184
  169MOL0     H22763   7.482   2.274   9.284 -1.2806 -1.1033  0.1574
  169MOL0     H22764   7.639   2.113   9.151 -0.6244  0.6048 -0.4080
  169MOL0     H22765   7.723   2.222   9.246 -2.7150  1.7642 -0.2199
  169MOL0     H22766   7.714   2.063   9.523  3.7443 -1.0656  1.3372
  169MOL0     H22767   7.792   1.819   9.651 -1.1408  3.8228 -0.4969
  169MOL0     H22768   7.850   1.684   9.540  5.7875  0.1944 -2.1865
  169MOL0     H22769   7.992   1.947   9.528 -0.2373  0.9506  1.8481
  169MOL0     H22770   8.016   1.876   9.682 -0.6791  0.7842 -0.0199
  169MOL0     H22771   8.076   1.716   9.430  0.1550 -0.7110  0.9906
  169MOL0     H22772   8.145   1.694   9.587 -0.6061  0.0742 -0.0201
  169MOL0     H22773   8.216   1.950   9.428  0.7446 -0.4421 -0.5591
  169MOL0     H22774   8.310   1.811   9.421  1.4135  0.3928  0.5633
  169MOL0     H22775   8.309   2.099   9.460 -2.9746 -2.6688  0.8761
  169MOL0     H22776   8.350   2.342   9.534  0.6017 -0.6705 -1.4190
  169MOL0     H22777   8.329   2.529  10.162 -2.5926 -1.9014 -0.7184
  169MOL0     H22778   8.264   2.759  10.253  2.1990  4.7359 -0.8377
  169MOL0     H22779   8.127   2.918  10.302 -0.4958 -1.1104  0.1554
  169MOL0     H22780   8.299   2.976  10.261  0.2735  0.9698  1.4385
  169MOL0     H22781   8.024   3.124  10.249 -0.0884 -1.0177  0.8239
  169MOL0     H22782   8.138   3.154  10.367  4.3548 -2.1819 -0.8235
  169MOL0     H22783   8.305   3.209  10.161  0.0069 -5.4760  2.3578
  169MOL0     H22784   8.158   3.213  10.073  2.3622 -2.5955  0.4325
  169MOL0     H22785   8.236   3.372  10.321 -2.1326 -0.8008  0.9032
  169MOL0     H22786   8.085   3.396  10.236  0.1449  0.5193  0.8615
  169MOL0     H22787   8.218   3.437  10.033 -1.2597 -0.7309  0.9236
  169MOL0     H22788   8.372   3.435  10.123  0.7571  0.3262  0.9268
  169MOL0     H22789   8.132   3.615  10.156 -0.9210  1.0944 -1.1593
  169MOL0     H22790   8.280   3.648  10.247  0.3462 -0.1249  0.0004
  169MOL0     H22791   8.276   3.797  10.059  0.1591 -0.7313 -1.3190
  169MOL0     H22792   8.210   3.692   9.950 -1.9135  2.1409  2.0935
  169MOL0     H22793   8.483   3.661  10.058 -2.2527  2.8650  2.5694
  169MOL0     H22794   8.408   3.560   9.917 -0.0700 -0.3302  1.1292
  169MOL0     H22795   8.128   2.885   9.878 -2.3160 -0.7072  0.2244
  169MOL0     H22796   8.204   2.658   9.776 -0.3598  3.3749 -1.0891
  169MOL0     H22797   8.373   2.195   9.944 -0.1390 -0.2382 -0.1440
  169MOL0     H22798   8.347   1.969   9.867 -2.6867 -1.4351 -1.4546
  169MOL0     H22799   6.780   1.931   8.926 -2.9222 -0.4441 -0.3942
  169MOL0     H22800   6.644   1.860   8.748  0.7023 -0.8081  3.0746
  169MOL0     H22801   6.804   1.853   8.258 -1.2774  0.3257  0.9773
  169MOL0     H22802   6.760   1.815   8.016 -0.9233  1.5118  0.4079
  169MOL0     H22803   6.462   1.704   7.717  0.6024 -1.8165 -0.2091
  169MOL0     H22804   6.375   1.661   7.861 -1.0484 -2.0835 -3.7622
  169MOL0     H22805   6.530   1.492   7.920 -1.0525  2.7687  0.3799
  169MOL0     H22806   6.671   1.579   7.841  1.5222 -2.2284  1.1819
  169MOL0     H22807   6.566   1.535   7.631 -3.9911  1.0118 -0.1684
  169MOL0     H22808   6.416   1.474   7.680  0.8611 -1.3945 -1.1351
  169MOL0     H22809   6.581   1.287   7.622 -3.8397 -3.7163  0.9603
  169MOL0     H22810   6.670   1.328   7.768  0.8453  3.0824 -1.0071
  169MOL0     H22811   6.357   1.106   7.926  3.0504 -0.9679  1.0081
  169MOL0     H22812   6.363   1.696   8.090  0.4278  0.6815  0.0410
  169MOL0     H22813   6.431   1.569   8.393 -0.4617 -0.5760 -0.0906
  169MOL0     H22814   6.360   1.734   8.442  0.5068 -1.4638  0.5139
  169MOL0     H22815   6.298   1.635   8.309  0.5856 -2.8755  0.8972
  170MOL0     O22816   1.829   0.627   0.924 -0.9199  0.7410  0.1683
  170MOL0     C22817   1.933   0.667   0.876  0.0659  0.4891  0.1659
  170MOL0     O22818   2.021   0.759   0.930  0.4886  0.5094 -0.4559
  170MOL0     C22819   1.988   0.815   1.052 -0.2993 -0.7807  0.2973
  170MOL0     C22820   2.039   0.744   1.160  0.2222 -0.5658 -0.2725
  170MOL0     C22821   2.030   0.792   1.291  0.9316  0.3402  0.1576
  170MOL0     C22822   1.956   0.906   1.312 -0.5940  0.2309  0.8670
  170MOL0     O22823   1.938   0.941   1.441 -0.3779  0.1861 -0.5591
  170MOL0     C22824   1.815   0.959   1.490  0.4603 -0.8350  0.5211
  170MOL0     C22825   1.797   0.883   1.625  0.6886 -1.3576  0.9270
  170MOL0     C22826   1.660   0.836   1.658  0.1914  0.0164  0.0719
  170MOL0     C22827   1.625   0.841   1.807  0.7960  0.3225  0.4730
  170MOL0     C22828   1.474   0.844   1.831  0.8316  0.0121  0.8536
  170MOL0     C22829   1.398   0.724   1.780 -0.9732 -0.0985 -0.3003
  170MOL0     C22830   1.408   0.592   1.864 -0.9558 -1.0211  0.0473
  170MOL0     C22831   1.337   0.608   1.997  0.6187 -0.6633  0.1726
  170MOL0     N22832   1.316   0.483   2.066  0.6116  0.2844  0.0331
  170MOL0     C22833   1.199   0.415   2.057 -0.5177 -0.4962 -0.5736
  170MOL0     C22834   1.218   0.324   2.153  0.0180  0.3882 -0.5779
  170MOL0     C22835   1.103   0.228   2.190 -0.5415  1.4223 -0.6295
  170MOL0     C22836   0.955   0.239   2.151  0.1236  0.1383  0.2495
  170MOL0     C22837   0.871   0.109   2.169 -0.4954 -0.6272  0.5838
  170MOL0     C22838   0.894   0.017   2.056  0.1739 -0.5397  0.1865
  170MOL0     O22839   0.775  -0.070   2.042 -0.4922 -0.0949 -0.0546
  170MOL0     C22840   0.789  -0.186   1.971  0.2656 -0.7383 -0.0015
  170MOL0     C22841   0.669  -0.232   1.910  0.1399 -0.1858 -1.5315
  170MOL0     C22842   0.656  -0.347   1.835  0.8603  0.1634  0.9965
  170MOL0     C22843   0.775  -0.430   1.810  0.4189 -0.2669  1.1854
  170MOL0     C22844   0.764  -0.557   1.722  0.4098 -0.6849 -0.1318
  170MOL0     O22845   0.892  -0.618   1.701  0.2580  0.1493  0.0991
  170MOL0     C22846   0.904  -0.746   1.645  0.4896  0.3399 -0.7663
  170MOL0     C22847   0.987  -0.843   1.701 -0.5256  0.3223  0.8656
  170MOL0     C22848   1.000  -0.967   1.649 -0.8909 -0.0174  0.6694
  170MOL0     C22849   0.930  -1.008   1.531  0.1553  0.3871  0.4445
  170MOL0     O22850   0.942  -1.145   1.499 -0.7125 -0.0726  0.0528
  170MOL0     C22851   0.900  -1.197   1.366  0.1353 -0.4782 -0.0263
  170MOL0     C22852   0.930  -1.345   1.334 -0.5276  0.1972  0.0013
  170MOL0     C22853   0.903  -1.376   1.186  0.4800  0.2075 -0.0864
  170MOL0     C22854   0.961  -1.518   1.152 -0.1845  0.8949  0.6205
  170MOL0     C22855   0.876  -1.600   1.044  0.0436  0.8572  0.3907
  170MOL0     C22856   0.934  -1.732   1.003 -0.2849 -0.3920 -0.5342
  170MOL0     C22857   0.972  -1.827   1.119 -0.4374  0.2995 -0.0142
  170MOL0     C22858   0.960  -1.966   1.061 -0.8924  0.3066  0.7374
  170MOL0    Cl22859   1.006  -2.087   1.186 -0.4053  0.4625 -0.1044
  170MOL0     C22860   0.838  -0.920   1.480  0.5167 -0.1883 -0.6701
  170MOL0     C22861   0.827  -0.792   1.536 -0.7572  0.6445 -0.3702
  170MOL0     O22862   0.651  -0.598   1.688  0.5901  0.3164 -0.7743
  170MOL0     C22863   0.892  -0.381   1.857  0.2502  0.4696  0.0774
  170MOL0     C22864   0.903  -0.262   1.939  0.7631 -0.1134  0.6421
  170MOL0     N22865   1.337   0.345   2.216  0.2322 -0.0593  0.2900
  170MOL0     N22866   1.408   0.429   2.149  0.0154  0.3036  0.6440
  170MOL0     C22867   1.910   0.990   1.203 -0.6251 -0.5135 -1.1046
  170MOL0     C22868   1.925   0.934   1.072 -0.3036  0.0429 -0.3693
  170MOL0     C22869   1.972   0.609   0.744 -0.5963 -1.1438 -0.2843
  170MOL0     C22870   2.105   0.640   0.692  0.2451 -0.2466 -1.2523
  170MOL0     C22871   2.142   0.586   0.569  0.0863  0.4220 -0.4083
  170MOL0     C22872   2.049   0.531   0.484  0.2623  0.6330 -0.0138
  170MOL0     O22873   2.096   0.500   0.360 -0.3721  0.1144  0.1577
  170MOL0     C22874   2.012   0.424   0.267 -0.0576  0.1169  0.1749
  170MOL0     C22875   2.080   0.411   0.126  0.1518 -0.0466 -0.8378
  170MOL0     C22876   2.015   0.316   0.027  0.8583  0.2256  0.2046
  170MOL0     C22877   1.890   0.380  -0.036 -1.0170  0.1639 -0.4493
  170MOL0     C22878   1.917   0.477  -0.142 -0.7203  0.2006 -0.9621
  170MOL0     C22879   1.932   0.580  -0.206 -0.1747  0.0660  0.2321
  170MOL0     C22880   1.917   0.512   0.533  0.9808 -0.2397 -0.1660
  170MOL0     C22881   1.878   0.548   0.662  0.5983 -0.0045  0.1249
  170MOL0     C22882   1.723   0.520   0.677  0.0156 -0.6298  0.3571
  170MOL0     H22883   2.076   0.647   1.128 -2.6333 -1.0731 -2.4586
  170MOL0     H22884   2.081   0.738   1.371 -0.4338 -1.0503  0.1370
  170MOL0     H22885   1.803   1.066   1.504  1.6629 -0.7922  1.3187
  170MOL0     H22886   1.733   0.927   1.425 -0.2770  0.4582  0.7816
  170MOL0     H22887   1.834   0.953   1.701  2.7867  0.5556 -1.6577
  170MOL0     H22888   1.871   0.804   1.614  0.0940 -1.9532  1.1508
  170MOL0     H22889   1.650   0.737   1.614  1.0497 -0.6530  1.3519
  170MOL0     H22890   1.587   0.903   1.611  0.8287  1.4542  1.0618
  170MOL0     H22891   1.672   0.752   1.850  0.0443 -2.3388 -3.5827
  170MOL0     H22892   1.672   0.927   1.855  2.9431 -1.1549  1.1887
  170MOL0     H22893   1.450   0.844   1.938 -3.0027 -1.4057  0.1191
  170MOL0     H22894   1.433   0.935   1.786  4.5545  3.3776  3.4864
  170MOL0     H22895   1.296   0.761   1.777 -0.6749  0.9920  1.6264
  170MOL0     H22896   1.426   0.704   1.676  2.6856 -0.9550  0.6902
  170MOL0     H22897   1.514   0.570   1.883 -0.6815  0.8894  0.9987
  170MOL0     H22898   1.353   0.513   1.812 -0.0475 -3.7421  2.8829
  170MOL0     H22899   1.390   0.676   2.066 -1.4545  1.9939 -0.6635
  170MOL0     H22900   1.237   0.649   1.982  0.6143 -1.2886 -1.8091
  170MOL0     H22901   1.122   0.450   1.989 -0.3865 -1.2693 -1.1341
  170MOL0     H22902   1.134   0.134   2.144  2.2709  0.6304  2.4649
  170MOL0     H22903   1.108   0.210   2.298 -1.9353  0.4871 -0.7005
  170MOL0     H22904   0.900   0.320   2.200 -1.1714 -1.9763  2.5701
  170MOL0     H22905   0.958   0.260   2.044 -1.0658 -7.5159 -1.8700
  170MOL0     H22906   0.766   0.139   2.160  0.1501  0.9412 -3.6153
  170MOL0     H22907   0.876   0.060   2.267 -1.8951  0.0161  1.0092
  170MOL0     H22908   0.980  -0.049   2.072  1.2317  0.6548 -0.4568
  170MOL0     H22909   0.921   0.071   1.965  1.3253  0.0763  0.8631
  170MOL0     H22910   0.576  -0.177   1.921  2.1206  2.9847  0.8771
  170MOL0     H22911   0.561  -0.379   1.795  2.7593 -1.4110 -2.6756
  170MOL0     H22912   1.035  -0.814   1.794 -0.6429  0.4276  0.8927
  170MOL0     H22913   1.073  -1.029   1.701  0.8652  2.0887  0.8521
  170MOL0     H22914   0.791  -1.182   1.364  0.1538  1.5582  3.7911
  170MOL0     H22915   0.950  -1.137   1.290 -0.2837  0.5467  0.4876
  170MOL0     H22916   1.037  -1.350   1.354 -0.5516  1.8463  0.7547
  170MOL0     H22917   0.871  -1.403   1.405  1.6925 -1.2303  0.8035
  170MOL0     H22918   0.795  -1.370   1.172  0.6073  0.2816 -1.0910
  170MOL0     H22919   0.958  -1.306   1.122  1.5100  1.9510  2.5449
  170MOL0     H22920   0.965  -1.569   1.248 -0.4256  0.3662  0.3506
  170MOL0     H22921   1.061  -1.497   1.112 -0.1741  1.0045  0.7044
  170MOL0     H22922   0.868  -1.544   0.951 -0.5579  1.9791  1.0865
  170MOL0     H22923   0.772  -1.620   1.073  0.4139 -0.4640  0.8885
  170MOL0     H22924   0.855  -1.783   0.948 -0.4871  0.0550 -0.6636
  170MOL0     H22925   1.024  -1.721   0.942  2.8257 -1.7248  3.3321
  170MOL0     H22926   0.898  -1.808   1.197  2.0511  1.7541  2.1475
  170MOL0     H22927   1.064  -1.816   1.177 -0.0144  0.2246 -0.6614
  170MOL0     H22928   0.868  -2.004   1.017  0.5702 -1.8970 -0.6078
  170MOL0     H22929   1.040  -1.962   0.986 -1.3648  0.7304  0.2484
  170MOL0     H22930   0.783  -0.942   1.390  0.2940 -0.6964 -0.4202
  170MOL0     H22931   0.757  -0.726   1.487  0.5051  1.5599 -0.9976
  170MOL0     H22932   0.978  -0.446   1.842 -0.1909  0.0896 -0.8503
  170MOL0     H22933   0.997  -0.225   1.979 -0.6402  2.2622  2.0146
  170MOL0     H22934   1.853   1.079   1.231  1.7604  0.5431  0.7581
  170MOL0     H22935   1.879   0.983   0.987 -1.2098 -0.4283 -0.1579
  170MOL0     H22936   2.172   0.688   0.762 -0.0394 -3.5918  1.6255
  170MOL0     H22937   2.242   0.585   0.526  0.2502 -2.7052 -0.1733
  170MOL0     H22938   1.916   0.473   0.248  0.4157  0.5356 -1.2769
  170MOL0     H22939   2.002   0.321   0.302  3.4080 -0.7357 -0.9741
  170MOL0     H22940   2.178   0.366   0.144 -1.0810 -1.9006  1.9383
  170MOL0     H22941   2.095   0.513   0.088  2.3705  1.6124  3.7915
  170MOL0     H22942   1.983   0.221   0.071  0.5090  1.1920  2.1454
  170MOL0     H22943   2.087   0.289  -0.051 -0.3476 -1.0256 -0.5271
  170MOL0     H22944   1.835   0.297  -0.080 -1.2861 -0.2461  0.6338
  170MOL0     H22945   1.828   0.428   0.041 -1.7177  0.9242 -1.4590
  170MOL0     H22946   1.967   0.672  -0.248  0.6714 -0.6502 -0.6799
  170MOL0     H22947   1.849   0.469   0.460 -0.5192  2.7292 -0.6838
  170MOL0     H22948   1.672   0.525   0.580 -0.2541 -3.0696  0.3056
  170MOL0     H22949   1.703   0.422   0.722  3.2312 -0.1819  3.1186
  170MOL0     H22950   1.681   0.597   0.742 -2.3272 -3.3878  2.4011
  171MOL0     O22951   3.410   5.299   3.973  0.1930 -0.3078 -0.7446
  171MOL0     C22952   3.518   5.314   3.922 -0.3562  0.2228  0.3598
  171MOL0     O22953   3.541   5.319   3.786 -1.1177 -0.4783  0.2925
  171MOL0     C22954   3.434   5.340   3.705 -0.8824  0.1516  0.9569
  171MOL0     C22955   3.333   5.436   3.728  0.0150  0.4720 -0.0465
  171MOL0     C22956   3.248   5.464   3.627  0.2442 -1.3820 -0.3825
  171MOL0     C22957   3.260   5.414   3.502 -0.2810 -0.4598 -0.4996
  171MOL0     O22958   3.173   5.474   3.417 -0.6637  0.2214 -0.4701
  171MOL0     C22959   3.183   5.445   3.278  0.1700  0.7069  0.1428
  171MOL0     C22960   3.081   5.329   3.244  0.0306 -0.2805 -0.7864
  171MOL0     C22961   2.936   5.394   3.251 -0.0957  0.7305  0.5147
  171MOL0     C22962   2.890   5.439   3.110 -0.3080  0.3524 -0.3741
  171MOL0     C22963   2.735   5.449   3.085 -0.8289 -0.0157 -0.4296
  171MOL0     C22964   2.692   5.502   2.945 -0.7037  0.1787 -0.6638
  171MOL0     C22965   2.744   5.429   2.817 -0.2146 -0.1565 -1.1439
  171MOL0     C22966   2.665   5.303   2.815 -0.3601  0.8575  0.2716
  171MOL0     N22967   2.701   5.232   2.686 -0.2033 -0.1019  0.0157
  171MOL0     C22968   2.655   5.261   2.563  0.9066  0.9757 -0.8014
  171MOL0     C22969   2.707   5.166   2.484 -0.2166  0.2871  0.2225
  171MOL0     C22970   2.699   5.142   2.334  0.1037 -0.1546  0.2827
  171MOL0     C22971   2.751   5.249   2.234 -0.6754  0.5049  0.4732
  171MOL0     C22972   2.899   5.288   2.273  0.5317 -0.5835 -0.0067
  171MOL0     C22973   2.950   5.364   2.156 -0.4491  0.1103  0.1560
  171MOL0     O22974   2.910   5.503   2.154 -0.3642 -0.0200 -0.1278
  171MOL0     C22975   2.980   5.596   2.081  0.0316  0.5146 -0.5259
  171MOL0     C22976   3.083   5.574   1.988 -0.3441 -0.4828 -0.3507
  171MOL0     C22977   3.134   5.688   1.912  0.1500 -0.3328 -1.1077
  171MOL0     C22978   3.085   5.819   1.942  0.3715 -0.0810  0.2116
  171MOL0     C22979   3.138   5.934   1.856 -1.1921 -0.2029  0.8560
  171MOL0     O22980   3.064   6.051   1.882 -0.5637  0.0928  0.0477
  171MOL0     C22981   3.069   6.157   1.802  0.0794 -0.2353 -0.4480
  171MOL0     C22982   3.189   6.221   1.759  0.4438  0.3889  0.5863
  171MOL0     C22983   3.180   6.328   1.675  0.1987 -0.0261 -0.5035
  171MOL0     C22984   3.060   6.387   1.619 -0.1017  0.7659  0.3176
  171MOL0     O22985   3.071   6.499   1.539 -0.2625 -0.0943 -0.7784
  171MOL0     C22986   2.982   6.524   1.431 -0.0116 -0.5777 -0.3859
  171MOL0     C22987   3.043   6.598   1.313 -0.2750 -0.6381  0.2004
  171MOL0     C22988   3.155   6.527   1.225  0.7264 -0.2225  0.1091
  171MOL0     C22989   3.218   6.638   1.152 -0.9990 -0.3382 -0.1952
  171MOL0     C22990   3.313   6.592   1.038  0.4554  0.0765 -0.3935
  171MOL0     C22991   3.445   6.526   1.092 -0.0518 -0.4742  0.0326
  171MOL0     C22992   3.554   6.514   0.976 -0.2429  0.5714  0.4471
  171MOL0     C22993   3.609   6.649   0.941  0.0596  0.3139  0.6705
  171MOL0    Cl22994   3.757   6.609   0.829  0.2470 -0.2819 -0.3898
  171MOL0     C22995   2.943   6.320   1.658  0.4489 -0.6370 -0.8541
  171MOL0     C22996   2.951   6.212   1.756 -0.6912  0.9212 -0.5512
  171MOL0     O22997   3.231   5.925   1.772  0.6634  1.0441  0.0097
  171MOL0     C22998   2.990   5.844   2.040  0.4330 -0.1368 -0.0747
  171MOL0     C22999   2.945   5.731   2.105 -0.3258  0.1935  0.2797
  171MOL0     N23000   2.786   5.085   2.559 -1.1215  0.2116  0.3732
  171MOL0     N23001   2.777   5.124   2.681 -0.0804 -0.0103  0.2071
  171MOL0     C23002   3.357   5.313   3.477  0.0772 -0.1662  0.6614
  171MOL0     C23003   3.443   5.281   3.577  0.2049  0.2218  0.0974
  171MOL0     C23004   3.640   5.332   4.005  0.7899  0.6893  0.2710
  171MOL0     C23005   3.764   5.359   3.941 -0.3809 -0.5641 -0.2555
  171MOL0     C23006   3.878   5.386   4.017 -0.2232  0.4261 -0.7169
  171MOL0     C23007   3.879   5.358   4.150  0.3342 -0.4762  0.5386
  171MOL0     O23008   3.994   5.366   4.226 -0.3394  0.7658 -0.1536
  171MOL0     C23009   4.102   5.294   4.174  0.2248  0.4183 -1.2182
  171MOL0     C23010   4.200   5.292   4.286 -0.8084  0.1594  0.4070
  171MOL0     C23011   4.136   5.212   4.402 -0.1792 -0.2604  0.2341
  171MOL0     C23012   4.219   5.218   4.524  0.8489 -0.4973 -0.6552
  171MOL0     C23013   4.328   5.122   4.531  0.4074 -0.2731 -0.0243
  171MOL0     C23014   4.431   5.057   4.517  0.3851  0.3965  0.8251
  171MOL0     C23015   3.762   5.341   4.218  0.4704 -0.4903 -0.1154
  171MOL0     C23016   3.642   5.327   4.154 -0.4127  0.5915  0.0448
  171MOL0     C23017   3.511   5.293   4.237  0.1100  0.2135  0.0325
  171MOL0     H23018   3.326   5.486   3.824 -4.0016 -0.4210  0.2721
  171MOL0     H23019   3.180   5.547   3.647  1.8975  0.5371 -2.2672
  171MOL0     H23020   3.160   5.532   3.215  1.3993  2.0697  1.5044
  171MOL0     H23021   3.289   5.425   3.258 -0.0672 -1.7436  0.9932
  171MOL0     H23022   3.088   5.256   3.324  0.7226  1.6073  0.9657
  171MOL0     H23023   3.097   5.289   3.143 -0.1209 -1.2836 -0.4215
  171MOL0     H23024   2.930   5.475   3.324  2.8300  0.8056  0.7649
  171MOL0     H23025   2.874   5.309   3.282 -0.0086 -1.1349 -3.6934
  171MOL0     H23026   2.931   5.539   3.092 -0.7644  0.1779 -2.6970
  171MOL0     H23027   2.940   5.376   3.036 -0.5907 -0.5815  0.2114
  171MOL0     H23028   2.691   5.349   3.090  3.7228 -2.3422 -1.0351
  171MOL0     H23029   2.695   5.515   3.163 -2.6390 -0.7300 -0.7220
  171MOL0     H23030   2.583   5.509   2.946 -0.8189 -1.3572  0.2369
  171MOL0     H23031   2.740   5.600   2.947  1.7431 -0.8734  3.4578
  171MOL0     H23032   2.851   5.406   2.815  0.3007  1.9808 -1.4445
  171MOL0     H23033   2.727   5.488   2.726  1.6264  1.3664 -0.5720
  171MOL0     H23034   2.676   5.247   2.908  0.1718 -1.7851 -1.2600
  171MOL0     H23035   2.560   5.328   2.830 -0.3282 -0.5351  3.7960
  171MOL0     H23036   2.601   5.350   2.532  2.4599  1.8447 -1.1027
  171MOL0     H23037   2.729   5.039   2.310  2.3964  0.5892 -0.3041
  171MOL0     H23038   2.594   5.154   2.307  0.2920  1.5580  0.2303
  171MOL0     H23039   2.734   5.211   2.133 -2.7397  0.3013  0.8535
  171MOL0     H23040   2.678   5.329   2.248  1.3325  2.3514  0.8915
  171MOL0     H23041   2.967   5.209   2.305  1.3561  1.5105  4.0897
  171MOL0     H23042   2.905   5.365   2.351  0.7319  0.8382 -1.3670
  171MOL0     H23043   2.929   5.323   2.056  0.1626  2.1122 -0.8434
  171MOL0     H23044   3.059   5.366   2.166 -0.3905  3.2628 -0.0739
  171MOL0     H23045   3.141   5.485   1.969  0.5068  0.5738 -3.2797
  171MOL0     H23046   3.218   5.670   1.846  2.1397 -1.6546  1.5825
  171MOL0     H23047   3.289   6.182   1.777  0.2970  0.3374  1.3057
  171MOL0     H23048   3.265   6.381   1.632  1.3511 -1.4902 -0.1165
  171MOL0     H23049   2.943   6.428   1.395  3.0446 -3.0245  2.1924
  171MOL0     H23050   2.896   6.587   1.455  0.1369 -0.8661  1.0305
  171MOL0     H23051   2.958   6.613   1.247  1.6304  1.3006 -2.0142
  171MOL0     H23052   3.084   6.692   1.352 -1.1492  1.3568 -3.2597
  171MOL0     H23053   3.228   6.468   1.282 -0.9884 -1.5338  1.0896
  171MOL0     H23054   3.113   6.462   1.147  0.1711  0.3792 -0.1070
  171MOL0     H23055   3.278   6.712   1.206  0.5617 -0.3819 -1.7870
  171MOL0     H23056   3.144   6.700   1.102 -0.7531  0.6192  0.5745
  171MOL0     H23057   3.314   6.683   0.978  0.5574 -0.6576 -1.5486
  171MOL0     H23058   3.266   6.521   0.969 -0.0934 -0.2748  0.3334
  171MOL0     H23059   3.478   6.585   1.178 -0.1969 -2.1818  1.3006
  171MOL0     H23060   3.415   6.423   1.114  0.5793 -0.9510 -1.2558
  171MOL0     H23061   3.513   6.464   0.887  1.5283 -1.1386  0.5295
  171MOL0     H23062   3.619   6.431   1.005 -1.3196 -1.5337 -2.6108
  171MOL0     H23063   3.541   6.710   0.881  0.7182 -0.9492 -1.4508
  171MOL0     H23064   3.650   6.704   1.027 -0.3163 -0.4674  1.3572
  171MOL0     H23065   2.851   6.351   1.609  2.3849  3.1030 -2.4927
  171MOL0     H23066   2.853   6.176   1.787 -0.1033  1.1949  1.7789
  171MOL0     H23067   2.947   5.939   2.069  0.2933 -0.4885  0.8972
  171MOL0     H23068   2.866   5.731   2.179 -0.1192  0.8552  0.5102
  171MOL0     H23069   3.382   5.258   3.386  1.0647  0.7454  0.3562
  171MOL0     H23070   3.522   5.208   3.560  1.5374  0.4265  4.3435
  171MOL0     H23071   3.743   5.380   3.836 -3.0157 -0.4513  0.2126
  171MOL0     H23072   3.974   5.400   3.967  1.4939 -3.0839  1.1803
  171MOL0     H23073   4.156   5.342   4.091 -2.2608 -0.3495 -3.4191
  171MOL0     H23074   4.070   5.195   4.141 -1.2716  0.4624 -0.0391
  171MOL0     H23075   4.213   5.396   4.317 -3.4698  1.4145 -2.1552
  171MOL0     H23076   4.291   5.242   4.253 -2.0502 -2.9472  1.3551
  171MOL0     H23077   4.117   5.108   4.373  1.6816 -0.7312  0.6022
  171MOL0     H23078   4.034   5.247   4.420  0.2645 -0.2924  3.4363
  171MOL0     H23079   4.248   5.322   4.546 -2.2794 -0.1998  3.1825
  171MOL0     H23080   4.143   5.191   4.598 -1.4491 -1.5135 -3.2448
  171MOL0     H23081   4.523   5.006   4.492 -0.8432 -1.5692  0.0277
  171MOL0     H23082   3.780   5.336   4.325  0.2509  3.3919  0.2570
  171MOL0     H23083   3.488   5.186   4.241  0.4100  0.1669  0.5706
  171MOL0     H23084   3.514   5.334   4.338 -0.7354 -0.6260  0.4201
  171MOL0     H23085   3.418   5.333   4.195 -1.3351 -2.1365  0.8083
  172MOL0     O23086   9.429   3.203   7.776  0.0961  0.6644 -0.2551
  172MOL0     C23087   9.492   3.272   7.692  0.1199 -0.1423  0.1393
  172MOL0     O23088   9.471   3.404   7.675 -0.3305  0.2324  0.0598
  172MOL0     C23089   9.420   3.461   7.787 -0.1265  0.8234 -1.6411
  172MOL0     C23090   9.324   3.556   7.780 -0.1908 -1.1478 -0.1440
  172MOL0     C23091   9.281   3.639   7.888 -0.3801 -0.1806  0.8012
  172MOL0     C23092   9.330   3.616   8.023  0.3408  0.8691 -0.0457
  172MOL0     O23093   9.286   3.699   8.122  0.4638 -0.4695  0.4760
  172MOL0     C23094   9.368   3.706   8.235  0.4211  0.0205  0.1151
  172MOL0     C23095   9.329   3.830   8.309  0.3731  0.1220 -0.4532
  172MOL0     C23096   9.412   3.852   8.442 -0.1728  0.3852 -0.9281
  172MOL0     C23097   9.347   3.757   8.555 -0.0146  0.1282  0.5514
  172MOL0     C23098   9.426   3.756   8.674  0.2760 -0.7093 -1.0309
  172MOL0     C23099   9.407   3.636   8.772  0.1596 -0.2875 -0.3593
  172MOL0     C23100   9.285   3.657   8.855  0.1870  0.1003  0.4180
  172MOL0     C23101   9.237   3.520   8.903  0.7524 -0.2799 -1.6659
  172MOL0     N23102   9.175   3.451   8.790 -0.3060  1.0819 -0.8050
  172MOL0     C23103   9.061   3.480   8.720 -0.9573  0.0985  0.5660
  172MOL0     C23104   9.066   3.392   8.605  0.5162  0.1045 -0.7311
  172MOL0     C23105   8.957   3.359   8.519 -0.8438 -1.1813 -0.2180
  172MOL0     C23106   8.975   3.292   8.394  0.0334  0.4729  0.6009
  172MOL0     C23107   9.040   3.385   8.289 -0.3312  0.7735 -0.8266
  172MOL0     C23108   9.084   3.305   8.175 -0.0024 -0.4098 -0.3155
  172MOL0     O23109   8.973   3.268   8.093  0.1545  0.3857 -0.3222
  172MOL0     C23110   9.003   3.190   7.988  0.6519  0.3889  0.4037
  172MOL0     C23111   8.896   3.133   7.917  0.4730  0.6173 -0.3528
  172MOL0     C23112   8.917   3.039   7.815 -0.4880  0.4786  0.2856
  172MOL0     C23113   9.052   3.005   7.771 -0.1405 -0.0903  0.3722
  172MOL0     C23114   9.078   2.921   7.644  0.4502  0.0518 -0.4477
  172MOL0     O23115   9.209   2.925   7.603  0.0893 -0.3980 -0.2248
  172MOL0     C23116   9.256   2.863   7.489  0.9557  0.3544  0.3520
  172MOL0     C23117   9.195   2.769   7.404 -0.4898  0.0202 -0.3563
  172MOL0     C23118   9.273   2.712   7.305  0.3323  0.3097 -0.0167
  172MOL0     C23119   9.404   2.755   7.278 -0.5569  0.0893  0.3947
  172MOL0     O23120   9.484   2.679   7.200  0.3928 -0.1258  0.3773
  172MOL0     C23121   9.426   2.641   7.069 -0.8260 -0.7331  0.5186
  172MOL0     C23122   9.535   2.639   6.967 -0.5341 -0.1538 -0.5131
  172MOL0     C23123   9.634   2.759   6.944  0.3701 -0.1467  0.0863
  172MOL0     C23124   9.553   2.898   6.945 -0.7521  0.4009 -0.1824
  172MOL0     C23125   9.638   3.019   6.904 -0.3569  0.7133 -0.3731
  172MOL0     C23126   9.665   3.034   6.751 -0.4523  0.7600 -0.2173
  172MOL0     C23127   9.743   3.171   6.729 -0.3870  0.1829 -0.0345
  172MOL0     C23128   9.828   3.152   6.593  0.1548 -0.1681 -0.6251
  172MOL0    Cl23129   9.782   3.268   6.465 -0.2789  0.2235 -0.2810
  172MOL0     C23130   9.462   2.838   7.365 -0.1710  0.7636  0.4642
  172MOL0     C23131   9.386   2.898   7.465 -0.4865  0.8403 -0.2513
  172MOL0     O23132   8.979   2.875   7.589 -0.4518 -1.1816 -0.5472
  172MOL0     C23133   9.157   3.069   7.832 -0.3993 -0.1466  0.9190
  172MOL0     C23134   9.134   3.162   7.936 -0.3929  0.7626 -0.3496
  172MOL0     N23135   9.181   3.306   8.625  0.0717  0.8737 -0.2349
  172MOL0     N23136   9.237   3.344   8.734  0.1693  0.0503 -0.4737
  172MOL0     C23137   9.428   3.520   8.038  0.9087  0.2254 -0.1504
  172MOL0     C23138   9.474   3.443   7.926  0.2174  0.2327  1.1350
  172MOL0     C23139   9.584   3.203   7.594  0.7681 -1.5996 -1.0557
  172MOL0     C23140   9.664   3.109   7.657  0.7050  0.9370  0.7895
  172MOL0     C23141   9.765   3.046   7.592  0.6325 -0.2045  0.0690
  172MOL0     C23142   9.784   3.069   7.450 -0.5074  0.2906  0.2692
  172MOL0     O23143   9.881   3.002   7.380 -0.5001  0.3806 -0.2193
  172MOL0     C23144  10.001   2.974   7.447  1.5951 -0.0238 -0.3249
  172MOL0     C23145  10.128   2.935   7.357  0.8945  0.7580 -0.2155
  172MOL0     C23146  10.196   3.058   7.308 -0.5099  0.2478  0.0077
  172MOL0     C23147  10.108   3.140   7.213 -1.0713 -0.0678 -0.2772
  172MOL0     C23148  10.057   3.076   7.089  0.2279 -0.7934 -0.2435
  172MOL0     C23149  10.016   3.037   6.984 -0.2649  0.7158  0.4719
  172MOL0     C23150   9.692   3.156   7.385 -0.4984  0.8814  0.1694
  172MOL0     C23151   9.590   3.224   7.456  0.5611  0.2180 -0.7123
  172MOL0     C23152   9.492   3.331   7.396  0.7358  0.1378 -0.7766
  172MOL0     H23153   9.295   3.582   7.679 -0.2511  0.9982  0.3915
  172MOL0     H23154   9.209   3.718   7.868 -2.1701 -2.1663 -0.9947
  172MOL0     H23155   9.346   3.611   8.285 -0.1614  0.2440  0.2904
  172MOL0     H23156   9.470   3.717   8.197  0.2347  1.8064  0.0609
  172MOL0     H23157   9.223   3.805   8.323  0.7244 -1.7782 -0.9304
  172MOL0     H23158   9.337   3.918   8.244  1.1930  3.5981  3.8460
  172MOL0     H23159   9.410   3.954   8.480 -0.0030  0.0623 -0.0129
  172MOL0     H23160   9.516   3.822   8.429  0.3199  0.4398  2.1877
  172MOL0     H23161   9.242   3.779   8.577  0.0386  2.1780 -0.9447
  172MOL0     H23162   9.346   3.654   8.517  1.4346  0.8405 -1.5911
  172MOL0     H23163   9.533   3.767   8.658  0.6890 -3.6474 -0.9081
  172MOL0     H23164   9.396   3.844   8.732 -1.2390 -1.2675 -0.9032
  172MOL0     H23165   9.399   3.541   8.719  0.8244 -1.2602  1.2440
  172MOL0     H23166   9.494   3.636   8.838  1.8588 -1.0490 -2.5024
  172MOL0     H23167   9.209   3.708   8.795  0.2212 -2.6559 -2.1791
  172MOL0     H23168   9.305   3.722   8.941 -0.8636 -0.2563  0.9404
  172MOL0     H23169   9.312   3.453   8.947  0.0975  0.5214  0.7940
  172MOL0     H23170   9.161   3.539   8.979  3.8988 -0.5276  1.8778
  172MOL0     H23171   8.994   3.559   8.750 -0.6197  1.6482 -2.3983
  172MOL0     H23172   8.885   3.300   8.577 -1.4613  0.2305  0.4909
  172MOL0     H23173   8.902   3.449   8.490  0.5676 -0.7568 -1.7088
  172MOL0     H23174   9.037   3.204   8.415 -1.5793 -0.9421 -0.2664
  172MOL0     H23175   8.880   3.264   8.349 -0.5110  0.6656  1.6046
  172MOL0     H23176   9.132   3.429   8.329  0.6798 -0.5828 -1.5816
  172MOL0     H23177   8.975   3.466   8.254 -4.2081 -1.3438  0.8925
  172MOL0     H23178   9.133   3.215   8.213 -2.2968 -1.3661  0.5852
  172MOL0     H23179   9.152   3.364   8.113  0.4287 -0.8666 -0.2865
  172MOL0     H23180   8.795   3.140   7.956 -0.5829 -1.1705 -2.5727
  172MOL0     H23181   8.829   2.986   7.780 -1.2716  2.2371 -0.5286
  172MOL0     H23182   9.098   2.723   7.418 -1.3296  0.9773 -2.5631
  172MOL0     H23183   9.225   2.632   7.250 -3.1743  0.8846  1.9031
  172MOL0     H23184   9.369   2.547   7.070 -3.0449  0.5374  0.4597
  172MOL0     H23185   9.361   2.723   7.035 -0.3664 -0.1479  1.0328
  172MOL0     H23186   9.601   2.554   6.984  0.9790  0.8990 -0.9375
  172MOL0     H23187   9.484   2.609   6.875 -0.4898 -5.4731  0.8796
  172MOL0     H23188   9.706   2.777   7.025  0.0509  0.3366  0.2648
  172MOL0     H23189   9.693   2.740   6.854 -0.1729 -1.0138 -0.1016
  172MOL0     H23190   9.502   2.908   7.041 -3.1873 -1.8841 -1.1191
  172MOL0     H23191   9.470   2.900   6.873 -2.2489  2.3996  1.4643
  172MOL0     H23192   9.732   3.018   6.961  0.5397  0.0737 -1.7995
  172MOL0     H23193   9.576   3.105   6.928 -0.1824  0.9212 -0.6714
  172MOL0     H23194   9.723   2.946   6.722  0.0773 -0.0595  2.9052
  172MOL0     H23195   9.572   3.014   6.697 -0.1537  2.4096 -1.4403
  172MOL0     H23196   9.809   3.185   6.815  0.8909  0.0331 -0.9713
  172MOL0     H23197   9.676   3.257   6.717  2.7491  2.3738 -4.2409
  172MOL0     H23198   9.936   3.152   6.614  0.5371  0.1525 -2.4628
  172MOL0     H23199   9.799   3.054   6.553 -0.0528 -0.7740  0.9431
  172MOL0     H23200   9.569   2.852   7.375 -0.1839  0.9617  0.3192
  172MOL0     H23201   9.427   2.967   7.538  0.2415  0.2183 -0.0523
  172MOL0     H23202   9.261   3.055   7.804 -0.9247  0.8521 -1.8543
  172MOL0     H23203   9.215   3.211   7.989 -0.4186  0.4718 -0.0351
  172MOL0     H23204   9.442   3.481   8.139 -5.4708 -0.6153  0.8398
  172MOL0     H23205   9.553   3.370   7.937 -0.1661 -0.1298  1.5045
  172MOL0     H23206   9.682   3.086   7.761  4.3278 -1.6539 -0.1857
  172MOL0     H23207   9.829   2.988   7.658 -0.3755 -0.3789  0.9105
  172MOL0     H23208   9.969   2.887   7.504 -0.3983  0.6089 -0.3917
  172MOL0     H23209  10.031   3.045   7.525 -0.5586  1.0585 -0.3918
  172MOL0     H23210  10.101   2.876   7.269  0.8462  0.9042 -0.2987
  172MOL0     H23211  10.195   2.869   7.413  3.5292  1.4824 -2.3118
  172MOL0     H23212  10.282   3.021   7.251  0.2426  1.8384  0.0660
  172MOL0     H23213  10.226   3.118   7.394  0.4970 -3.7542  2.7491
  172MOL0     H23214  10.021   3.180   7.265 -3.4206 -1.2078 -3.0748
  172MOL0     H23215  10.170   3.225   7.183 -0.8601 -0.5403 -1.2244
  172MOL0     H23216   9.966   3.013   6.893 -0.7115  2.6696  0.1449
  172MOL0     H23217   9.720   3.177   7.282 -0.0553 -1.1297 -0.1626
  172MOL0     H23218   9.517   3.432   7.430 -1.0612 -0.1640  1.7058
  172MOL0     H23219   9.493   3.333   7.287  1.4831  1.3864 -0.7735
  172MOL0     H23220   9.390   3.311   7.428  0.5584  2.3527  0.2138
  173MOL0     O23221  11.231   9.488   3.669  0.0784  0.8593 -0.8707
  173MOL0     C23222  11.114   9.521   3.666  0.5551  0.1038 -0.7443
  173MOL0     O23223  11.073   9.651   3.660  0.3466 -0.1963  0.0853
  173MOL0     C23224  11.158   9.748   3.703 -0.0497 -0.6442  0.5005
  173MOL0     C23225  11.250   9.827   3.620  1.4133 -0.3484 -0.8759
  173MOL0     C23226  11.348   9.905   3.687 -0.3093 -0.2926 -0.6955
  173MOL0     C23227  11.365   9.909   3.828  0.1637  1.3846 -0.2854
  173MOL0     O23228  11.467   9.973   3.892  0.2209  0.3389 -0.6048
  173MOL0     C23229  11.502  10.101   3.836  0.6318 -0.5725  0.1916
  173MOL0     C23230  11.565  10.198   3.925  0.6216  0.2563 -0.2233
  173MOL0     C23231  11.467  10.259   4.017 -0.4332  0.5247  0.4847
  173MOL0     C23232  11.535  10.337   4.129  0.4430 -0.6715 -0.5284
  173MOL0     C23233  11.435  10.434   4.188  0.4556  0.5938  0.5492
  173MOL0     C23234  11.318  10.369   4.258  0.4921  0.7846 -0.1584
  173MOL0     C23235  11.364  10.276   4.369  0.0097 -1.1543  0.3444
  173MOL0     C23236  11.237  10.213   4.420 -0.6744  0.2030  0.5476
  173MOL0     N23237  11.261  10.130   4.542 -0.1426  0.1344  0.1215
  173MOL0     C23238  11.189  10.162   4.652  0.4830  0.0285 -0.5654
  173MOL0     C23239  11.190  10.047   4.724  0.1271 -0.3294  0.7349
  173MOL0     C23240  11.114  10.012   4.855  0.3072  0.5551  0.3596
  173MOL0     C23241  11.188  10.056   4.987 -0.2604 -0.0035  0.8040
  173MOL0     C23242  11.107  10.011   5.115 -0.5315 -0.1267 -0.0440
  173MOL0     C23243  11.184  10.014   5.248 -1.1081 -0.5461  0.6187
  173MOL0     O23244  11.271  10.131   5.268 -0.2272 -0.5981  0.2050
  173MOL0     C23245  11.236  10.225   5.362 -0.6781  0.2067  0.0274
  173MOL0     C23246  11.334  10.285   5.448 -0.3607 -0.5526 -0.1145
  173MOL0     C23247  11.295  10.380   5.543  0.3207  0.2921  0.2521
  173MOL0     C23248  11.158  10.410   5.564 -1.1535 -0.1314 -0.6868
  173MOL0     C23249  11.118  10.485   5.688  0.7511 -0.1867 -0.6020
  173MOL0     O23250  11.207  10.507   5.786  0.5571 -0.6344 -0.3196
  173MOL0     C23251  11.162  10.561   5.901 -0.0401  0.3259  0.0040
  173MOL0     C23252  11.127  10.702   5.905 -0.3755 -0.8630  0.6629
  173MOL0     C23253  11.094  10.757   6.028 -0.2438  0.0119 -0.6876
  173MOL0     C23254  11.104  10.677   6.147  0.2875  1.4348  0.4979
  173MOL0     O23255  11.074  10.728   6.268  0.2452 -0.1948 -0.1929
  173MOL0     C23256  11.138  10.856   6.299  0.0273 -0.4409  0.5610
  173MOL0     C23257  11.103  10.892   6.442  0.7039 -1.1255  1.0735
  173MOL0     C23258  11.163  10.792   6.544 -0.6439 -0.6895  0.1094
  173MOL0     C23259  11.076  10.761   6.667 -0.9318  0.0277  0.1126
  173MOL0     C23260  11.130  10.835   6.787  0.0767  0.5240  0.8626
  173MOL0     C23261  11.264  10.780   6.852 -0.2098  0.7539 -0.0116
  173MOL0     C23262  11.317  10.880   6.965  0.1581  0.8140 -0.0013
  173MOL0     C23263  11.225  10.889   7.079  0.4933 -1.0007  0.8003
  173MOL0    Cl23264  11.300  10.967   7.220 -0.4412  0.6331 -0.0078
  173MOL0     C23265  11.144  10.545   6.136  0.1559 -0.3673 -0.3251
  173MOL0     C23266  11.167  10.488   6.018  0.5319  0.6189  0.3604
  173MOL0     O23267  11.001  10.518   5.686 -0.6468  0.2661 -0.1904
  173MOL0     C23268  11.066  10.357   5.470 -0.5225 -0.3052 -0.9421
  173MOL0     C23269  11.105  10.279   5.368 -0.2413  0.3339 -0.3631
  173MOL0     N23270  11.247   9.952   4.645 -0.5707  0.8121 -0.7524
  173MOL0     N23271  11.297   9.998   4.538 -0.5451  0.7468 -0.4639
  173MOL0     C23272  11.271   9.833   3.901 -0.2776  0.1946 -0.0283
  173MOL0     C23273  11.174   9.756   3.840 -0.1592  0.5514  0.1366
  173MOL0     C23274  11.016   9.410   3.663  0.3375  0.2849  0.3428
  173MOL0     C23275  11.067   9.274   3.664 -0.7104  0.3320 -0.3301
  173MOL0     C23276  10.982   9.159   3.670  0.4736  0.3771  1.9152
  173MOL0     C23277  10.839   9.183   3.680 -0.3290 -0.0026 -0.2554
  173MOL0     O23278  10.750   9.091   3.717  1.2613  0.1888  0.0112
  173MOL0     C23279  10.792   8.963   3.762 -0.5410  0.1603  0.5576
  173MOL0     C23280  10.844   8.950   3.909  0.5718  0.2214  0.9672
  173MOL0     C23281  10.710   8.961   3.989  1.0701 -0.2461 -0.1446
  173MOL0     C23282  10.706   8.959   4.147  0.0640  1.5724 -0.6858
  173MOL0     C23283  10.765   9.069   4.231 -0.8579  0.5735 -0.4496
  173MOL0     C23284  10.810   9.144   4.316 -0.2400  0.0340 -0.0982
  173MOL0     C23285  10.801   9.314   3.662  0.0789 -0.0918  0.4195
  173MOL0     C23286  10.881   9.426   3.642  0.5754 -0.0566  0.2754
  173MOL0     C23287  10.815   9.560   3.601  0.3199  0.6603 -0.4211
  173MOL0     H23288  11.239   9.829   3.512 -1.3355 -0.7556 -0.6765
  173MOL0     H23289  11.422   9.958   3.628 -1.9791  2.5698 -0.4223
  173MOL0     H23290  11.566  10.083   3.748  0.5343 -0.1805  0.0372
  173MOL0     H23291  11.411  10.142   3.792  0.3409  0.8611  2.0238
  173MOL0     H23292  11.614  10.259   3.849  2.8595 -0.7559  0.3172
  173MOL0     H23293  11.642  10.142   3.979 -1.2268 -0.2958  2.0086
  173MOL0     H23294  11.410  10.179   4.065 -1.8763  0.3172 -1.4360
  173MOL0     H23295  11.398  10.317   3.954 -0.4074 -0.7332 -0.7505
  173MOL0     H23296  11.576  10.273   4.208  2.0167 -0.4729 -1.1390
  173MOL0     H23297  11.623  10.390   4.091 -0.6773  2.0124  0.3914
  173MOL0     H23298  11.477  10.503   4.262 -0.0325  3.2795 -1.4913
  173MOL0     H23299  11.397  10.501   4.110  1.4666 -0.2532 -0.7112
  173MOL0     H23300  11.251  10.445   4.299 -2.7752 -1.6046 -0.6934
  173MOL0     H23301  11.254  10.316   4.187 -1.2120  3.0078 -0.3763
  173MOL0     H23302  11.409  10.335   4.450  0.0294  0.8337 -1.0221
  173MOL0     H23303  11.432  10.199   4.332  0.6587  0.3876 -1.9567
  173MOL0     H23304  11.156  10.284   4.437 -1.8355 -1.5937  3.3433
  173MOL0     H23305  11.207  10.142   4.343  1.6849 -1.4287  1.0154
  173MOL0     H23306  11.144  10.254   4.687 -0.4151 -0.8910  0.7910
  173MOL0     H23307  11.012  10.052   4.860  0.0127 -0.1422  0.0905
  173MOL0     H23308  11.096   9.904   4.850  0.2234  0.5526  0.6800
  173MOL0     H23309  11.283  10.005   5.003 -0.3743 -0.4506  0.1238
  173MOL0     H23310  11.200  10.164   4.989 -0.0224 -0.0305  3.6354
  173MOL0     H23311  11.072   9.908   5.100  3.2417 -1.6646  0.5595
  173MOL0     H23312  11.022  10.079   5.120 -0.2197  0.2462  0.1514
  173MOL0     H23313  11.233   9.916   5.244 -0.4893 -0.2182 -0.0197
  173MOL0     H23314  11.115   9.995   5.330  1.4426  0.3312  3.1377
  173MOL0     H23315  11.438  10.253   5.451  0.3796  1.7458  1.2269
  173MOL0     H23316  11.377  10.423   5.600  0.1928  0.1679  0.5321
  173MOL0     H23317  11.114  10.763   5.816  1.3187  1.5536  1.9708
  173MOL0     H23318  11.045  10.854   6.030 -0.5740 -0.1499 -0.8248
  173MOL0     H23319  11.245  10.862   6.277 -0.4018 -1.0484 -1.9732
  173MOL0     H23320  11.088  10.933   6.239 -1.5668 -2.6554 -1.0961
  173MOL0     H23321  11.126  10.997   6.460  2.0940 -0.9879 -1.0994
  173MOL0     H23322  10.994  10.892   6.449  0.4429  2.8116 -0.4682
  173MOL0     H23323  11.183  10.699   6.491  1.8343  0.4570 -1.1329
  173MOL0     H23324  11.258  10.830   6.582 -0.6136 -0.9361  0.2812
  173MOL0     H23325  11.080  10.653   6.682 -3.3614 -0.0529  0.5199
  173MOL0     H23326  10.974  10.799   6.658  0.3236  3.3712 -2.4028
  173MOL0     H23327  11.051  10.830   6.862  0.1628 -0.9787  0.8708
  173MOL0     H23328  11.135  10.939   6.754  1.7006  0.1767 -0.0921
  173MOL0     H23329  11.248  10.683   6.898  0.0899 -0.0734 -1.5633
  173MOL0     H23330  11.345  10.758   6.781 -2.1658 -1.9851 -1.6033
  173MOL0     H23331  11.351  10.979   6.935 -0.5128  1.9847  2.8071
  173MOL0     H23332  11.403  10.830   7.012 -0.3891  1.8003  2.1857
  173MOL0     H23333  11.134  10.945   7.058 -0.8805 -3.0588  0.9795
  173MOL0     H23334  11.195  10.785   7.092 -0.3227 -1.3819 -3.0041
  173MOL0     H23335  11.142  10.475   6.219 -0.5029  3.0745  2.7925
  173MOL0     H23336  11.212  10.389   6.025  2.9485  1.6701  0.5702
  173MOL0     H23337  10.960  10.370   5.489 -0.0402  1.3753  0.8495
  173MOL0     H23338  11.030  10.249   5.295 -1.0901  0.6799  0.3503
  173MOL0     H23339  11.280   9.824   4.009  1.1394 -5.6875 -0.2653
  173MOL0     H23340  11.112   9.690   3.900 -0.6869  0.3426 -0.6194
  173MOL0     H23341  11.172   9.254   3.684 -1.3079 -0.0618  2.8786
  173MOL0     H23342  11.036   9.064   3.666  0.9200  0.4772 -4.3465
  173MOL0     H23343  10.865   8.930   3.689 -2.9606  0.7877 -2.3368
  173MOL0     H23344  10.706   8.895   3.751 -0.4550  0.1845 -0.2980
  173MOL0     H23345  10.906   9.037   3.937 -1.6927  2.5326 -0.7649
  173MOL0     H23346  10.893   8.854   3.928 -1.9396 -1.1792  0.8297
  173MOL0     H23347  10.631   8.894   3.954  1.3791 -1.8247  2.0012
  173MOL0     H23348  10.666   9.059   3.968  0.9051 -0.1704  0.5229
  173MOL0     H23349  10.600   8.958   4.172  0.4536 -2.8833  1.8856
  173MOL0     H23350  10.742   8.863   4.186 -2.1015  1.3802  1.0117
  173MOL0     H23351  10.847   9.205   4.396  0.5851 -3.5614  2.5373
  173MOL0     H23352  10.696   9.342   3.664  0.5244  1.6770  1.0982
  173MOL0     H23353  10.885   9.630   3.554  3.6225 -3.9955 -3.3393
  173MOL0     H23354  10.729   9.539   3.537 -2.4725  2.0131  2.5925
  173MOL0     H23355  10.783   9.610   3.693 -2.0781 -1.9591  0.3172
  174MOL0     O23356   6.920   6.755  10.082  0.1026 -0.1146 -0.1698
  174MOL0     C23357   6.824   6.735  10.008 -0.1602  0.6588 -0.3925
  174MOL0     O23358   6.742   6.829   9.966 -0.5866 -0.6069  0.2395
  174MOL0     C23359   6.755   6.965   9.989  0.3687  0.5905  1.3976
  174MOL0     C23360   6.725   7.053   9.888 -0.1495  0.3466  0.1247
  174MOL0     C23361   6.714   7.184   9.927 -0.1298  0.4441  0.3663
  174MOL0     C23362   6.743   7.243  10.053 -0.0743  0.2835 -0.3258
  174MOL0     O23363   6.717   7.374  10.077 -0.6497 -0.2317  0.4275
  174MOL0     C23364   6.775   7.436  10.193  0.5831  0.2437 -0.5283
  174MOL0     C23365   6.792   7.587  10.185 -0.4678  0.6851 -0.2230
  174MOL0     C23366   6.653   7.666  10.165 -0.1528  0.2395  0.4661
  174MOL0     C23367   6.567   7.661  10.277  0.1326 -1.0748 -0.7205
  174MOL0     C23368   6.448   7.758  10.270  0.4250 -0.6672  0.3654
  174MOL0     C23369   6.397   7.787  10.410  0.1059  0.4827  0.1949
  174MOL0     C23370   6.480   7.885  10.503 -0.0900 -0.4813  0.7856
  174MOL0     C23371   6.440   8.045  10.514  0.4362  0.5247 -0.1419
  174MOL0     N23372   6.523   8.120  10.608  0.5034 -0.2516  0.1979
  174MOL0     C23373   6.658   8.127  10.604 -0.3271 -0.4973 -0.8016
  174MOL0     C23374   6.693   8.225  10.694  0.3731  0.6322  0.2166
  174MOL0     C23375   6.820   8.281  10.731 -0.3871  1.2357 -0.2149
  174MOL0     C23376   6.858   8.419  10.686  0.2637  0.4210 -0.4915
  174MOL0     C23377   6.977   8.494  10.760 -0.2630  0.8970  1.0797
  174MOL0     C23378   6.980   8.643  10.731 -0.5845  0.4809 -0.4114
  174MOL0     O23379   6.997   8.666  10.595  0.2665 -0.2028  0.2835
  174MOL0     C23380   7.118   8.623  10.537  0.2185  0.9387 -0.1478
  174MOL0     C23381   7.112   8.595  10.396  0.5152  0.0937  0.2764
  174MOL0     C23382   7.218   8.538  10.333 -0.1704 -0.1962  1.5265
  174MOL0     C23383   7.338   8.537  10.394 -0.8823  0.5041 -0.8166
  174MOL0     C23384   7.464   8.510  10.306 -0.3195 -0.8767  0.7924
  174MOL0     O23385   7.577   8.582  10.345  0.3399  0.5952  0.5722
  174MOL0     C23386   7.687   8.581  10.270 -0.4261  0.5203  0.0461
  174MOL0     C23387   7.801   8.551  10.336 -0.8025  0.2591 -0.5514
  174MOL0     C23388   7.929   8.569  10.274  0.1584  0.1776 -0.2850
  174MOL0     C23389   7.944   8.581  10.138 -0.1382 -0.9722  0.1439
  174MOL0     O23390   8.068   8.598  10.081  0.5142 -0.3995  0.0366
  174MOL0     C23391   8.186   8.558  10.147  0.5278  0.6090  0.4493
  174MOL0     C23392   8.310   8.545  10.046  0.1814 -0.1323 -0.1914
  174MOL0     C23393   8.428   8.469  10.120 -0.0651 -0.0346  0.3270
  174MOL0     C23394   8.538   8.434  10.013  0.0178 -0.0303 -0.1745
  174MOL0     C23395   8.681   8.371  10.052 -0.8127  0.1814  0.1557
  174MOL0     C23396   8.749   8.447  10.174  0.6157 -0.0173  0.1936
  174MOL0     C23397   8.897   8.418  10.171 -0.0903 -0.1133  0.3618
  174MOL0     C23398   8.929   8.276  10.221 -0.6668  0.0868 -0.2809
  174MOL0    Cl23399   8.894   8.290  10.390  0.3906  0.6879  0.1074
  174MOL0     C23400   7.823   8.594  10.059 -0.0623  0.4886 -0.7545
  174MOL0     C23401   7.695   8.599  10.128  0.6190  0.2524  1.1290
  174MOL0     O23402   7.457   8.441  10.204 -0.2550 -0.9195 -0.5007
  174MOL0     C23403   7.349   8.567  10.529  0.3255 -0.4243  0.0279
  174MOL0     C23404   7.240   8.612  10.601  0.1091  0.1806 -0.2918
  174MOL0     N23405   6.574   8.280  10.755  0.5719 -0.1178  0.4228
  174MOL0     N23406   6.482   8.213  10.698  0.9376 -0.0001 -0.1606
  174MOL0     C23407   6.774   7.151  10.146 -0.2080  0.5886  0.2871
  174MOL0     C23408   6.788   7.019  10.111 -0.6660  0.5446  0.0985
  174MOL0     C23409   6.804   6.605   9.938 -0.0265  0.3225 -0.4632
  174MOL0     C23410   6.702   6.599   9.846  0.0364  0.3772  0.8533
  174MOL0     C23411   6.674   6.472   9.777 -0.1062 -0.5320  0.6367
  174MOL0     C23412   6.749   6.361   9.797 -0.1233  0.4644 -0.5711
  174MOL0     O23413   6.735   6.235   9.739  0.5432 -0.2190 -0.1662
  174MOL0     C23414   6.617   6.199   9.654  0.4279  0.0077 -0.0872
  174MOL0     C23415   6.619   6.051   9.630  0.3147  0.2376 -0.5437
  174MOL0     C23416   6.762   6.009   9.607  0.4942 -0.3714  0.8235
  174MOL0     C23417   6.773   5.867   9.540  0.4265  0.3651 -0.2436
  174MOL0     C23418   6.904   5.813   9.538 -0.0053  0.7660  0.4100
  174MOL0     C23419   7.020   5.782   9.531  0.2945 -0.1529  0.2641
  174MOL0     C23420   6.848   6.376   9.880 -0.6975 -0.5439 -0.6807
  174MOL0     C23421   6.877   6.485   9.958  0.0380  0.4130  0.5413
  174MOL0     C23422   7.004   6.479  10.052 -0.7913  0.8832  0.1975
  174MOL0     H23423   6.703   7.032   9.784 -0.4935  3.7176 -0.5943
  174MOL0     H23424   6.683   7.254   9.849 -0.0365  1.6866  1.4105
  174MOL0     H23425   6.710   7.411  10.278 -2.2653 -0.4658 -2.7632
  174MOL0     H23426   6.872   7.387  10.204 -0.2179 -1.2596  0.1976
  174MOL0     H23427   6.846   7.603  10.091  0.7748 -3.6455 -0.4801
  174MOL0     H23428   6.848   7.632  10.267 -1.5082  1.2400  0.2031
  174MOL0     H23429   6.603   7.631  10.074  2.7805 -0.5898 -0.9744
  174MOL0     H23430   6.679   7.770  10.144  0.3631  0.2334  1.0424
  174MOL0     H23431   6.521   7.562  10.286 -2.2902  0.1266  1.3374
  174MOL0     H23432   6.633   7.682  10.361  0.8318  0.0612 -1.5245
  174MOL0     H23433   6.476   7.857  10.232 -2.3084  1.8542  4.1876
  174MOL0     H23434   6.371   7.708  10.210  3.2193 -2.3979 -2.0528
  174MOL0     H23435   6.298   7.833  10.400  0.4498  1.2566  0.3088
  174MOL0     H23436   6.384   7.698  10.473  2.0655 -0.5318 -0.7249
  174MOL0     H23437   6.577   7.889  10.451 -0.7834  2.3623 -0.4884
  174MOL0     H23438   6.492   7.845  10.604 -2.1531 -0.9280  0.8848
  174MOL0     H23439   6.442   8.086  10.413 -1.6299 -2.3623 -1.5109
  174MOL0     H23440   6.335   8.057  10.540 -1.0596 -3.5482 -3.1306
  174MOL0     H23441   6.712   8.069  10.531 -1.3307  1.4556 -3.2681
  174MOL0     H23442   6.796   8.291  10.837  0.6115  2.4873 -0.0742
  174MOL0     H23443   6.901   8.209  10.718 -0.9545  0.3913  0.7896
  174MOL0     H23444   6.864   8.420  10.576 -0.9778  3.1890 -0.6293
  174MOL0     H23445   6.767   8.476  10.706  0.0662 -0.0281 -0.0920
  174MOL0     H23446   7.076   8.455  10.736 -1.4349 -2.1664  0.7468
  174MOL0     H23447   6.969   8.480  10.868 -1.4784  1.6477  1.1071
  174MOL0     H23448   7.065   8.681  10.789  1.2493 -0.9834 -2.0135
  174MOL0     H23449   6.899   8.707  10.766  0.5755  3.4060 -2.6812
  174MOL0     H23450   7.016   8.623  10.353  0.7919  1.6509  0.6246
  174MOL0     H23451   7.209   8.515  10.228 -2.3874 -0.7668  1.7953
  174MOL0     H23452   7.794   8.537  10.444 -0.9771 -1.5021 -0.7743
  174MOL0     H23453   8.011   8.563  10.344 -2.1155  1.0525  2.6507
  174MOL0     H23454   8.213   8.635  10.220 -3.1499  1.6561  0.9231
  174MOL0     H23455   8.174   8.465  10.204 -0.8553  0.8048  0.5195
  174MOL0     H23456   8.280   8.499   9.952 -4.1580  0.2722  0.7751
  174MOL0     H23457   8.350   8.639  10.005  2.7722 -0.9607  0.2431
  174MOL0     H23458   8.476   8.534  10.193  0.0531  0.7233 -0.4184
  174MOL0     H23459   8.387   8.383  10.173 -2.1510  3.2632  4.6360
  174MOL0     H23460   8.555   8.530   9.965  1.0198  0.2500  0.7167
  174MOL0     H23461   8.509   8.367   9.931 -1.2000  1.0418 -0.6475
  174MOL0     H23462   8.752   8.383   9.970  2.1888 -0.6602  2.4461
  174MOL0     H23463   8.667   8.264  10.069  0.6723  0.2875  2.4597
  174MOL0     H23464   8.720   8.552  10.170 -0.5792 -0.3575 -0.9983
  174MOL0     H23465   8.711   8.408  10.269  0.8196 -1.0217 -0.1305
  174MOL0     H23466   8.939   8.495  10.236  0.8420  0.0490 -0.4134
  174MOL0     H23467   8.944   8.435  10.074 -1.3209 -2.5248 -0.7247
  174MOL0     H23468   8.876   8.189  10.180  3.2185 -2.6629 -0.0015
  174MOL0     H23469   9.035   8.254  10.202 -1.0810 -0.5438 -2.0871
  174MOL0     H23470   7.834   8.599   9.951  3.3212  1.7111 -0.4714
  174MOL0     H23471   7.600   8.608  10.075  1.4615 -2.2341 -1.0786
  174MOL0     H23472   7.446   8.559  10.578 -0.3061  0.1682  1.4375
  174MOL0     H23473   7.245   8.627  10.708 -0.4187 -1.3252 -0.0396
  174MOL0     H23474   6.804   7.178  10.246  2.5264  1.2094 -0.6057
  174MOL0     H23475   6.798   6.951  10.195 -0.7956 -1.9165 -1.7911
  174MOL0     H23476   6.632   6.675   9.814  0.3516  0.5479  0.5667
  174MOL0     H23477   6.600   6.455   9.701 -0.1839  0.5319  0.4631
  174MOL0     H23478   6.640   6.253   9.561 -0.5395  2.5079  1.0275
  174MOL0     H23479   6.519   6.235   9.688 -1.2186 -3.6532 -0.4838
  174MOL0     H23480   6.549   6.010   9.556  1.8713 -2.3035 -0.7138
  174MOL0     H23481   6.583   6.004   9.722  0.4419  0.1160 -0.5561
  174MOL0     H23482   6.808   6.000   9.705  0.5447  0.8943  0.9231
  174MOL0     H23483   6.813   6.091   9.556 -1.8855  2.3720  2.5322
  174MOL0     H23484   6.704   5.796   9.588  1.8717  1.8429  4.6060
  174MOL0     H23485   6.736   5.863   9.437  0.8648 -3.1596 -0.4000
  174MOL0     H23486   7.126   5.769   9.529  0.9040  0.9343  6.2086
  174MOL0     H23487   6.912   6.293   9.910  1.2814  1.4685  1.0084
  174MOL0     H23488   7.078   6.555  10.025 -0.3224  0.4732  0.3361
  174MOL0     H23489   6.976   6.488  10.157  2.5851  0.6991  1.2068
  174MOL0     H23490   7.048   6.380  10.036  0.2204  1.2708  0.5370
  175MOL0     O23491  11.434   1.264   4.932 -0.6480  0.2428 -0.0088
  175MOL0     C23492  11.416   1.378   4.896 -0.7001 -0.3680  0.2782
  175MOL0     O23493  11.369   1.416   4.777 -0.5742  0.9010 -0.0297
  175MOL0     C23494  11.331   1.310   4.690 -0.3463 -0.0453 -0.0970
  175MOL0     C23495  11.231   1.215   4.723  0.1686 -0.4402 -0.1446
  175MOL0     C23496  11.186   1.108   4.638 -0.3780  0.2786  0.3748
  175MOL0     C23497  11.256   1.091   4.518  0.8427  0.3268  0.1816
  175MOL0     O23498  11.214   1.003   4.428  0.1345  0.2226 -0.9545
  175MOL0     C23499  11.231   1.044   4.293 -0.3436 -0.0134 -0.8638
  175MOL0     C23500  11.160   0.940   4.205 -0.1999 -0.0155  0.5259
  175MOL0     C23501  11.009   0.968   4.214 -1.1716 -0.1947 -0.7785
  175MOL0     C23502  10.924   0.907   4.098 -0.0469 -0.3275 -0.4584
  175MOL0     C23503  10.939   0.979   3.968 -0.1725  0.0049  0.9345
  175MOL0     C23504  10.883   1.124   3.967  0.2859 -0.1679  0.9190
  175MOL0     C23505  10.833   1.153   3.823  0.0780  0.1133  0.4126
  175MOL0     C23506  10.815   1.307   3.791 -1.3576  0.1318  0.1250
  175MOL0     N23507  10.746   1.379   3.900 -0.6585  0.8560  0.2791
  175MOL0     C23508  10.786   1.441   4.017 -0.1987 -1.1067 -0.0834
  175MOL0     C23509  10.682   1.504   4.070 -0.1956 -0.0090  0.4529
  175MOL0     C23510  10.680   1.577   4.194  0.0041  0.3301  0.4281
  175MOL0     C23511  10.811   1.618   4.258 -0.0683  0.4717 -0.3173
  175MOL0     C23512  10.879   1.513   4.357  0.1760 -0.3506 -1.4413
  175MOL0     C23513  11.006   1.575   4.431  0.4104  0.1003 -0.3835
  175MOL0     O23514  10.962   1.686   4.498  0.8232  0.2275 -0.9236
  175MOL0     C23515  11.039   1.730   4.598 -1.5595  0.2057  0.8023
  175MOL0     C23516  11.172   1.695   4.623 -0.2307  0.0460  0.5734
  175MOL0     C23517  11.251   1.774   4.713 -0.3464  0.0188 -0.3218
  175MOL0     C23518  11.191   1.872   4.794 -0.3454 -0.1887 -0.5359
  175MOL0     C23519  11.265   1.939   4.899  0.6733 -0.6530 -0.1229
  175MOL0     O23520  11.396   1.913   4.901  0.4508  0.1821  0.0326
  175MOL0     C23521  11.483   2.014   4.953  0.2171 -0.0886  0.5105
  175MOL0     C23522  11.472   2.043   5.089  0.7502  0.4932  0.8972
  175MOL0     C23523  11.562   2.136   5.141  0.2105 -0.0171 -1.1716
  175MOL0     C23524  11.658   2.210   5.073  0.0364  0.5569  0.0997
  175MOL0     O23525  11.746   2.285   5.145  0.2359  0.4889  0.1075
  175MOL0     C23526  11.843   2.373   5.087 -0.0963 -1.1104  0.7295
  175MOL0     C23527  11.777   2.504   5.044 -1.0312 -0.2357 -0.6254
  175MOL0     C23528  11.692   2.571   5.153  0.4450 -0.0325  1.5288
  175MOL0     C23529  11.775   2.618   5.272 -0.1510 -0.0469 -0.7640
  175MOL0     C23530  11.710   2.741   5.331 -0.6899 -0.8841  0.2712
  175MOL0     C23531  11.814   2.817   5.414  0.6353  1.1526 -0.0676
  175MOL0     C23532  11.748   2.943   5.472  0.1669 -0.8180  0.7482
  175MOL0     C23533  11.846   3.022   5.537 -1.1704  0.7394 -0.3863
  175MOL0    Cl23534  11.774   3.124   5.666 -0.4213 -0.5598 -0.2205
  175MOL0     C23535  11.656   2.192   4.932  0.6608 -0.3335 -0.4580
  175MOL0     C23536  11.571   2.093   4.874 -0.3439  0.2783  0.5522
  175MOL0     O23537  11.210   2.027   4.968  0.4954 -0.1877 -0.6996
  175MOL0     C23538  11.056   1.893   4.777 -0.4083  0.2326  0.8238
  175MOL0     C23539  10.983   1.831   4.678 -0.1499  0.0514 -0.1106
  175MOL0     N23540  10.577   1.482   3.981  0.6336  0.1553 -0.9984
  175MOL0     N23541  10.620   1.419   3.879 -0.0601 -0.3006 -0.2266
  175MOL0     C23542  11.363   1.188   4.489 -0.0736  0.4979  0.0664
  175MOL0     C23543  11.408   1.285   4.577 -0.2033 -0.3588 -0.0742
  175MOL0     C23544  11.426   1.466   5.017  0.0126 -1.1796  0.2699
  175MOL0     C23545  11.311   1.541   5.042  0.6461 -0.9017 -0.3808
  175MOL0     C23546  11.310   1.628   5.154  0.2111 -0.9318  0.2107
  175MOL0     C23547  11.422   1.652   5.228 -1.6761  0.2069 -0.6502
  175MOL0     O23548  11.419   1.748   5.323  0.8072  0.1448  0.3383
  175MOL0     C23549  11.505   1.737   5.436 -0.8115  0.0798 -0.4559
  175MOL0     C23550  11.433   1.758   5.574  0.4263  0.3859 -0.8199
  175MOL0     C23551  11.343   1.639   5.603 -0.3668 -0.4433 -0.2177
  175MOL0     C23552  11.416   1.502   5.625 -0.8211 -0.3412  0.3880
  175MOL0     C23553  11.498   1.488   5.757  0.0072  0.4514  0.2076
  175MOL0     C23554  11.562   1.454   5.857  0.5926  1.3278  0.4693
  175MOL0     C23555  11.540   1.580   5.203 -0.1956  0.0355 -0.4709
  175MOL0     C23556  11.545   1.493   5.085 -0.0302 -0.3977 -0.4130
  175MOL0     C23557  11.673   1.413   5.056 -1.0053 -0.0320 -0.1300
  175MOL0     H23558  11.191   1.217   4.823  0.5721 -1.0150  0.0304
  175MOL0     H23559  11.118   1.026   4.660  0.6710 -0.5572  0.5659
  175MOL0     H23560  11.195   1.144   4.271 -0.4712 -0.2388 -1.7042
  175MOL0     H23561  11.337   1.040   4.266 -0.0607 -0.1010  0.1865
  175MOL0     H23562  11.185   0.839   4.237  2.0295  0.9508  2.0591
  175MOL0     H23563  11.199   0.947   4.104 -0.4185  1.2775  0.5058
  175MOL0     H23564  10.977   1.073   4.219  2.6086  1.0642  2.0108
  175MOL0     H23565  10.964   0.912   4.296 -1.4828  2.5237  1.0488
  175MOL0     H23566  10.958   0.804   4.081 -2.2123 -0.9768 -1.1728
  175MOL0     H23567  10.820   0.908   4.131  0.6754 -2.5364  2.3002
  175MOL0     H23568  11.043   0.994   3.938 -0.1853 -1.3770  0.0674
  175MOL0     H23569  10.887   0.914   3.896 -2.1767 -1.1293  3.2795
  175MOL0     H23570  10.799   1.127   4.037 -1.4902  0.6488 -1.1139
  175MOL0     H23571  10.961   1.198   3.989  0.2197 -0.1190  0.9909
  175MOL0     H23572  10.740   1.104   3.793  0.9405 -1.3381  0.0208
  175MOL0     H23573  10.908   1.106   3.758 -0.6866 -0.7671  0.1504
  175MOL0     H23574  10.915   1.352   3.788 -0.3656 -1.8049  1.4830
  175MOL0     H23575  10.767   1.308   3.693 -2.2164 -2.2585  0.4395
  175MOL0     H23576  10.885   1.447   4.062 -0.0622  4.2960 -0.5364
  175MOL0     H23577  10.633   1.668   4.156  1.8279  0.2957 -2.1800
  175MOL0     H23578  10.609   1.526   4.260 -0.9538  1.1772  0.0732
  175MOL0     H23579  10.883   1.647   4.181 -1.7905 -2.4238 -3.2482
  175MOL0     H23580  10.792   1.714   4.308 -0.3387 -0.4930  1.5304
  175MOL0     H23581  10.912   1.427   4.298  1.0063  0.4280 -2.1446
  175MOL0     H23582  10.808   1.469   4.428  3.1637 -1.3379  1.1429
  175MOL0     H23583  11.083   1.597   4.358  0.0477  0.4462 -0.6668
  175MOL0     H23584  11.044   1.490   4.488  0.4161 -1.2537 -2.3023
  175MOL0     H23585  11.213   1.619   4.557  1.8210  2.2825 -0.9318
  175MOL0     H23586  11.352   1.734   4.718 -1.8931 -4.7040 -1.5208
  175MOL0     H23587  11.407   1.982   5.151 -1.2990  0.1808 -1.4086
  175MOL0     H23588  11.564   2.161   5.247 -0.8461  1.9654 -1.5613
  175MOL0     H23589  11.917   2.400   5.163 -0.0186  1.3743 -0.1467
  175MOL0     H23590  11.906   2.334   5.006  0.3711  1.1631 -0.0613
  175MOL0     H23591  11.856   2.572   5.013  0.2489 -1.8589 -1.0605
  175MOL0     H23592  11.717   2.492   4.953 -1.3677 -1.2376 -0.2815
  175MOL0     H23593  11.639   2.653   5.105  1.2825 -0.8692 -0.9806
  175MOL0     H23594  11.614   2.500   5.185 -1.5477  1.9093  1.2040
  175MOL0     H23595  11.878   2.634   5.239 -0.6037 -0.5064 -2.5050
  175MOL0     H23596  11.773   2.545   5.354  1.0814 -0.2683 -0.9134
  175MOL0     H23597  11.624   2.710   5.391 -1.0624 -1.1517 -0.3865
  175MOL0     H23598  11.660   2.813   5.266 -1.2869  0.5576  2.2273
  175MOL0     H23599  11.854   2.755   5.494 -0.4528  1.0636  0.4202
  175MOL0     H23600  11.895   2.845   5.345  1.3079 -0.6507 -0.0727
  175MOL0     H23601  11.656   2.923   5.529 -1.4043 -0.7054 -1.5778
  175MOL0     H23602  11.710   3.002   5.388  1.8908 -2.6625 -1.4544
  175MOL0     H23603  11.921   2.955   5.578  0.4897  0.3083 -3.7419
  175MOL0     H23604  11.889   3.096   5.469 -2.3166  1.2178 -0.6175
  175MOL0     H23605  11.723   2.252   4.871 -1.0266  1.6589 -0.4604
  175MOL0     H23606  11.565   2.079   4.766 -0.7580 -3.0784  0.9121
  175MOL0     H23607  11.000   1.963   4.839 -2.3595  0.7282 -1.3494
  175MOL0     H23608  10.881   1.859   4.654  0.7004  2.2662 -1.4054
  175MOL0     H23609  11.415   1.178   4.394  2.5535  3.9913  0.9558
  175MOL0     H23610  11.494   1.348   4.560  2.2624 -3.3997  0.3780
  175MOL0     H23611  11.220   1.534   4.984 -0.6936 -1.1216  1.6773
  175MOL0     H23612  11.228   1.696   5.178  2.1248  2.2759 -1.5175
  175MOL0     H23613  11.586   1.809   5.417  0.1660 -1.6869 -3.6089
  175MOL0     H23614  11.559   1.644   5.458 -1.9224  0.1156  3.1619
  175MOL0     H23615  11.376   1.851   5.564  0.1087  0.0223 -2.6156
  175MOL0     H23616  11.507   1.757   5.655 -4.0494 -1.9097  3.8711
  175MOL0     H23617  11.274   1.636   5.518  1.0366  3.0125 -1.6855
  175MOL0     H23618  11.275   1.668   5.683 -0.8402 -2.6386  0.2305
  175MOL0     H23619  11.337   1.427   5.632  2.1572 -3.6223  1.6978
  175MOL0     H23620  11.470   1.477   5.533 -3.6219 -0.0221 -1.4641
  175MOL0     H23621  11.635   1.439   5.933  1.1223  3.1548  0.3738
  175MOL0     H23622  11.630   1.610   5.256  1.7151  0.0673 -3.4513
  175MOL0     H23623  11.728   1.404   5.150  0.4826  1.2882 -0.8156
  175MOL0     H23624  11.652   1.315   5.012 -0.1077  0.7174 -2.3574
  175MOL0     H23625  11.751   1.455   4.991  1.4169 -0.8649  2.0415
  176MOL0     O23626  10.768   8.080   6.772  0.0728  0.2324  0.3978
  176MOL0     C23627  10.669   8.143   6.807 -0.8906  0.1630 -0.2314
  176MOL0     O23628  10.560   8.088   6.857  0.3504  0.4498 -0.5592
  176MOL0     C23629  10.557   7.949   6.854  0.5581 -0.1473  0.1993
  176MOL0     C23630  10.523   7.877   6.738 -0.0151 -0.4043 -0.3448
  176MOL0     C23631  10.523   7.738   6.739  0.8982  0.1489 -0.4583
  176MOL0     C23632  10.560   7.669   6.856  0.0349 -0.0708 -0.4779
  176MOL0     O23633  10.544   7.531   6.864 -0.6226 -0.4423  0.2781
  176MOL0     C23634  10.611   7.465   6.969  0.5714 -0.2195 -0.4036
  176MOL0     C23635  10.639   7.324   6.921  0.5990 -0.9805  0.9503
  176MOL0     C23636  10.733   7.253   7.018 -0.7636  0.2198  0.6750
  176MOL0     C23637  10.716   7.099   6.997  0.1226 -0.4994 -0.6547
  176MOL0     C23638  10.769   7.023   7.122  0.2175  0.1568 -1.0111
  176MOL0     C23639  10.917   7.046   7.152  0.1641 -0.3107 -0.0760
  176MOL0     C23640  10.966   6.943   7.243 -0.1540  0.0800  0.6555
  176MOL0     C23641  11.118   6.979   7.273 -0.2592  0.5339  0.1044
  176MOL0     N23642  11.135   7.042   7.402 -0.7954  0.6700 -0.1555
  176MOL0     C23643  11.057   7.154   7.431 -0.2312  0.8990 -0.3558
  176MOL0     C23644  11.086   7.184   7.561  0.6337 -0.1661  0.5017
  176MOL0     C23645  11.006   7.280   7.651  0.6263  0.2500 -0.0459
  176MOL0     C23646  10.943   7.194   7.756  0.2965  0.6444  0.6711
  176MOL0     C23647  10.811   7.150   7.701  0.2192 -0.5869 -0.0941
  176MOL0     C23648  10.705   7.263   7.718 -0.4233  0.3854 -0.6042
  176MOL0     O23649  10.688   7.284   7.856  1.1465 -0.4959  0.7153
  176MOL0     C23650  10.683   7.407   7.910 -0.5069  0.7306 -0.5140
  176MOL0     C23651  10.722   7.523   7.847  0.4571 -0.5414  0.0307
  176MOL0     C23652  10.696   7.647   7.911 -0.3811  0.0836  0.1186
  176MOL0     C23653  10.637   7.658   8.046 -0.1609 -0.7507  0.0768
  176MOL0     C23654  10.604   7.786   8.108 -0.8943  0.1392 -0.0787
  176MOL0     O23655  10.601   7.894   8.018 -0.4546  1.5172  0.3076
  176MOL0     C23656  10.550   8.016   8.050  0.2763  0.4669  0.7985
  176MOL0     C23657  10.455   8.038   8.149 -0.4275  0.7322  0.4240
  176MOL0     C23658  10.397   8.159   8.162 -0.1204 -0.9970  0.1346
  176MOL0     C23659  10.441   8.265   8.092  0.6731 -0.2143 -0.2529
  176MOL0     O23660  10.390   8.397   8.110 -0.9649  0.3715 -0.0133
  176MOL0     C23661  10.348   8.431   8.239 -0.2508  0.1010 -0.7482
  176MOL0     C23662  10.297   8.572   8.237 -0.4638  0.6613 -0.3818
  176MOL0     C23663  10.436   8.666   8.243 -1.5607 -0.2258  0.3723
  176MOL0     C23664  10.476   8.722   8.393 -0.2297  0.0603  0.2681
  176MOL0     C23665  10.590   8.825   8.386 -0.2698 -0.1830  0.0056
  176MOL0     C23666  10.569   8.944   8.294 -0.4843  0.3630 -0.5671
  176MOL0     C23667  10.448   9.031   8.330 -0.6573  0.4343  0.2265
  176MOL0     C23668  10.423   9.137   8.228  0.3317  0.2064 -0.4860
  176MOL0    Cl23669  10.566   9.244   8.234  0.1668 -0.0848 -0.0980
  176MOL0     C23670  10.536   8.252   7.992 -0.5423  0.8433  0.5990
  176MOL0     C23671  10.588   8.123   7.967 -1.1010  0.3650  0.2306
  176MOL0     O23672  10.602   7.793   8.233 -0.4160  0.0029 -0.6938
  176MOL0     C23673  10.625   7.534   8.115  0.4494 -0.6948  0.6405
  176MOL0     C23674  10.650   7.418   8.046  1.0352  0.0144  0.8012
  176MOL0     N23675  11.176   7.082   7.598 -0.6492 -0.5828 -0.3324
  176MOL0     N23676  11.214   7.010   7.507  0.0916 -0.3204  0.4300
  176MOL0     C23677  10.608   7.745   6.974 -0.4559 -0.5301  0.2402
  176MOL0     C23678  10.611   7.887   6.963 -0.6320  0.3384  0.0020
  176MOL0     C23679  10.665   8.287   6.783  0.5681 -0.5065 -0.5807
  176MOL0     C23680  10.539   8.351   6.768  0.2866 -0.0987  0.0678
  176MOL0     C23681  10.531   8.490   6.761 -0.2223 -0.2106 -0.3484
  176MOL0     C23682  10.641   8.573   6.764  0.2443  0.2835  0.3770
  176MOL0     O23683  10.643   8.714   6.759 -1.2229  0.7174 -0.3612
  176MOL0     C23684  10.532   8.799   6.761  0.4084  0.3593  0.4595
  176MOL0     C23685  10.482   8.856   6.893  0.1378 -1.1448  1.1333
  176MOL0     C23686  10.417   8.750   6.981  0.1632  0.5501  0.0243
  176MOL0     C23687  10.392   8.802   7.125  0.0978  0.3938 -0.2486
  176MOL0     C23688  10.343   8.695   7.211  0.3266  0.0491 -0.2763
  176MOL0     C23689  10.291   8.609   7.277  0.3006  0.1614  0.0465
  176MOL0     C23690  10.769   8.508   6.777 -0.0407 -0.3740  0.1326
  176MOL0     C23691  10.787   8.369   6.775  0.5957  1.0401 -0.2914
  176MOL0     C23692  10.925   8.312   6.777 -0.1487 -0.1451 -0.7105
  176MOL0     H23693  10.491   7.924   6.646 -0.2251  0.4568  0.1554
  176MOL0     H23694  10.516   7.675   6.651 -3.7159 -1.2177  0.5738
  176MOL0     H23695  10.702   7.514   7.005 -0.9028  0.4496  2.7525
  176MOL0     H23696  10.541   7.452   7.052  1.0941 -0.1273  0.0531
  176MOL0     H23697  10.676   7.331   6.818  2.9571  1.0430  1.8263
  176MOL0     H23698  10.539   7.281   6.919  0.8077 -1.4963 -0.7942
  176MOL0     H23699  10.697   7.295   7.113  0.2445  0.5044  0.9359
  176MOL0     H23700  10.837   7.286   7.014 -1.1798  1.6568  0.9359
  176MOL0     H23701  10.610   7.085   6.973  0.2406 -2.0838 -0.3496
  176MOL0     H23702  10.777   7.059   6.916  1.3323 -2.5880  1.1833
  176MOL0     H23703  10.711   7.050   7.210 -1.9830 -3.8976 -0.9971
  176MOL0     H23704  10.737   6.919   7.112 -0.2822  0.2098 -0.0867
  176MOL0     H23705  10.968   7.031   7.057 -1.8304 -3.7505 -0.7668
  176MOL0     H23706  10.929   7.146   7.196 -0.1081 -0.6780  0.8409
  176MOL0     H23707  10.955   6.841   7.204 -0.9584 -0.4363  2.1725
  176MOL0     H23708  10.913   6.934   7.338 -0.6932 -0.6296  0.3019
  176MOL0     H23709  11.155   6.879   7.297 -1.1321  1.1421  4.9766
  176MOL0     H23710  11.175   7.026   7.193  0.1341  2.2578  1.3434
  176MOL0     H23711  10.977   7.211   7.386 -0.7333  0.6638  0.2327
  176MOL0     H23712  11.070   7.347   7.708  0.2770 -0.6782  1.4877
  176MOL0     H23713  10.942   7.343   7.588  0.0731 -1.4270 -1.2308
  176MOL0     H23714  10.992   7.103   7.791 -1.8490  0.0637  2.3597
  176MOL0     H23715  10.949   7.246   7.852 -0.3361  0.9408  0.5578
  176MOL0     H23716  10.777   7.068   7.766 -1.8675 -0.0276 -0.4134
  176MOL0     H23717  10.814   7.109   7.600  0.9794  2.6145 -1.5026
  176MOL0     H23718  10.608   7.226   7.682  0.5656 -1.0795 -1.8905
  176MOL0     H23719  10.725   7.351   7.656 -0.3842  1.5933  1.0700
  176MOL0     H23720  10.761   7.519   7.745 -1.3446 -1.7208 -0.6584
  176MOL0     H23721  10.706   7.737   7.852 -1.0283 -0.7752 -1.3282
  176MOL0     H23722  10.411   7.956   8.205 -1.5106  0.3162 -0.9623
  176MOL0     H23723  10.329   8.165   8.247  0.9586  0.3192  0.9426
  176MOL0     H23724  10.266   8.367   8.270  0.9804 -0.1233  2.4367
  176MOL0     H23725  10.430   8.421   8.311 -0.7816 -1.5984 -0.3526
  176MOL0     H23726  10.247   8.591   8.142  1.9124 -0.3344 -1.9327
  176MOL0     H23727  10.240   8.592   8.328 -0.5136  0.6264 -0.4055
  176MOL0     H23728  10.520   8.625   8.187 -2.2621  1.5991 -2.2228
  176MOL0     H23729  10.408   8.752   8.181 -0.8188 -0.9883 -1.0664
  176MOL0     H23730  10.506   8.634   8.451 -0.0753 -1.6282 -2.2147
  176MOL0     H23731  10.385   8.758   8.442 -0.6014 -0.9872  0.3788
  176MOL0     H23732  10.675   8.764   8.353  1.3568  1.5505  0.7807
  176MOL0     H23733  10.612   8.864   8.485  1.9366  0.6233 -0.7313
  176MOL0     H23734  10.663   8.997   8.309  0.8834 -2.3945  1.5422
  176MOL0     H23735  10.568   8.917   8.188 -0.5672  1.6083 -0.8995
  176MOL0     H23736  10.472   9.080   8.425 -0.2652 -0.0134  0.3621
  176MOL0     H23737  10.357   8.971   8.340 -1.2663  1.7044  3.2565
  176MOL0     H23738  10.418   9.090   8.129 -1.3112 -1.7847  0.4751
  176MOL0     H23739  10.331   9.195   8.239  1.1369  2.1961 -3.0694
  176MOL0     H23740  10.579   8.340   7.946  0.7125 -1.0552 -2.1692
  176MOL0     H23741  10.662   8.102   7.890  1.9112  0.3987  2.8984
  176MOL0     H23742  10.585   7.544   8.215 -3.4439 -0.4943 -0.7714
  176MOL0     H23743  10.644   7.322   8.098 -0.4500  1.3799  3.3725
  176MOL0     H23744  10.625   7.696   7.069 -1.7896 -2.4904 -0.4805
  176MOL0     H23745  10.638   7.940   7.053  0.3349 -1.4457  0.8038
  176MOL0     H23746  10.447   8.293   6.768  0.6375 -0.7777 -2.2633
  176MOL0     H23747  10.433   8.536   6.748  0.5595  1.2165 -1.5473
  176MOL0     H23748  10.459   8.737   6.707  0.1546 -2.4190  3.6578
  176MOL0     H23749  10.560   8.880   6.692 -0.4981 -0.2353 -0.6493
  176MOL0     H23750  10.407   8.928   6.861 -1.8667 -1.4345  4.6609
  176MOL0     H23751  10.564   8.911   6.940  2.2695 -2.7517 -0.4571
  176MOL0     H23752  10.482   8.661   6.979  1.7889  1.6778 -1.9644
  176MOL0     H23753  10.326   8.729   6.925 -0.8270 -2.2563  2.4760
  176MOL0     H23754  10.490   8.836   7.160 -0.1095  2.2588 -1.3627
  176MOL0     H23755  10.323   8.886   7.117 -0.6696 -0.3219 -1.4303
  176MOL0     H23756  10.243   8.534   7.337 -0.9573  0.6289 -0.3552
  176MOL0     H23757  10.853   8.577   6.783 -0.6219  0.2823  1.0716
  176MOL0     H23758  10.943   8.239   6.697  0.3902  1.9779 -2.6352
  176MOL0     H23759  10.992   8.397   6.761 -0.8251  0.5571  0.0941
  176MOL0     H23760  10.933   8.261   6.873  0.8463 -1.7413 -1.6014
  177MOL0     O23761   8.323   2.247   2.403 -0.7359 -0.1421 -0.4464
  177MOL0     C23762   8.306   2.215   2.522  0.1272  0.1602 -0.2995
  177MOL0     O23763   8.251   2.296   2.619 -0.5000  0.0186  0.4813
  177MOL0     C23764   8.201   2.423   2.597 -0.8403 -1.0585 -0.3848
  177MOL0     C23765   8.250   2.516   2.500  0.4949 -0.3599  0.2478
  177MOL0     C23766   8.198   2.649   2.503 -0.4044 -0.2264  0.4302
  177MOL0     C23767   8.094   2.686   2.577 -0.6016  0.2235  0.3334
  177MOL0     O23768   8.048   2.812   2.558  0.9374 -0.9480 -0.3139
  177MOL0     C23769   8.070   2.885   2.682 -0.7120 -0.0879  0.6333
  177MOL0     C23770   7.970   3.000   2.680  0.5245  0.0446 -0.2519
  177MOL0     C23771   7.822   2.954   2.700 -0.1650  0.1764 -0.5540
  177MOL0     C23772   7.730   3.068   2.673  0.9046 -0.4086 -0.6387
  177MOL0     C23773   7.728   3.171   2.791  0.1512  1.6011  0.6228
  177MOL0     C23774   7.615   3.139   2.892  1.4013  0.0948  0.1505
  177MOL0     C23775   7.607   3.245   3.003 -1.0809 -0.2762  0.9009
  177MOL0     C23776   7.461   3.298   3.047  0.1697  0.4344 -0.3844
  177MOL0     N23777   7.386   3.344   2.921 -0.2389 -0.0885 -0.1115
  177MOL0     C23778   7.431   3.457   2.858  0.6301 -0.3858  0.9540
  177MOL0     C23779   7.348   3.475   2.751  0.3554 -0.1014 -0.5206
  177MOL0     C23780   7.378   3.584   2.648 -0.7920  0.4740  0.0151
  177MOL0     C23781   7.268   3.682   2.627  0.2400  0.3569  0.6171
  177MOL0     C23782   7.153   3.621   2.543 -0.0359  0.3579 -1.9201
  177MOL0     C23783   7.174   3.599   2.395  0.7507 -0.6058  0.1670
  177MOL0     O23784   7.189   3.733   2.342 -0.2862 -0.4153 -0.2330
  177MOL0     C23785   7.140   3.752   2.219  0.6117  0.7004 -0.1280
  177MOL0     C23786   7.222   3.781   2.107 -0.3233 -0.8338 -0.7079
  177MOL0     C23787   7.164   3.807   1.983 -0.1105  1.1911 -0.6679
  177MOL0     C23788   7.021   3.792   1.959  0.6645  0.2553  0.1816
  177MOL0     C23789   6.957   3.817   1.824 -0.0077  0.6419 -0.8554
  177MOL0     O23790   7.037   3.836   1.722 -0.2988 -0.7387 -0.0629
  177MOL0     C23791   6.993   3.836   1.598 -0.5836  0.1467  0.6436
  177MOL0     C23792   6.910   3.935   1.544  0.4622  0.2154  0.2877
  177MOL0     C23793   6.870   3.921   1.407  0.0586  0.4514  0.3964
  177MOL0     C23794   6.936   3.829   1.322 -0.3237 -0.8153  0.2621
  177MOL0     O23795   6.912   3.813   1.188 -0.6156  1.2350  0.6920
  177MOL0     C23796   6.863   3.927   1.108  0.1402  0.7776  0.4692
  177MOL0     C23797   6.865   3.920   0.959  0.2376 -0.7333  0.0830
  177MOL0     C23798   6.793   4.048   0.909  0.0476 -0.0779  1.0349
  177MOL0     C23799   6.772   4.047   0.760 -0.0471  0.3947 -0.8281
  177MOL0     C23800   6.889   4.102   0.674  0.0313 -0.6598  0.4381
  177MOL0     C23801   6.883   4.062   0.528 -0.1662  1.1858 -1.0007
  177MOL0     C23802   6.738   4.061   0.466  1.0047 -0.2082  0.6111
  177MOL0     C23803   6.739   4.056   0.310  0.4626  0.0518 -0.7222
  177MOL0    Cl23804   6.807   4.208   0.253  0.0695 -0.1948  0.1887
  177MOL0     C23805   7.021   3.739   1.381 -0.2402  0.9365  1.0282
  177MOL0     C23806   7.049   3.735   1.518 -0.3058 -1.3824 -0.1909
  177MOL0     O23807   6.836   3.800   1.809 -0.4508 -0.7532 -0.3768
  177MOL0     C23808   6.940   3.752   2.070 -0.5906 -0.5821  0.3813
  177MOL0     C23809   7.000   3.732   2.195 -1.3622 -1.6910 -0.5466
  177MOL0     N23810   7.251   3.378   2.758 -0.2828  0.5250  0.4517
  177MOL0     N23811   7.274   3.298   2.861 -0.2071 -0.9722 -0.0666
  177MOL0     C23812   8.023   2.586   2.651  0.9440  0.4585 -0.5103
  177MOL0     C23813   8.078   2.457   2.659 -1.2657 -0.0620 -0.2400
  177MOL0     C23814   8.345   2.079   2.570  0.3454 -0.4636 -0.3149
  177MOL0     C23815   8.302   2.036   2.700  0.6082 -0.1134  0.0372
  177MOL0     C23816   8.338   1.912   2.745  0.2506 -0.1916 -0.1277
  177MOL0     C23817   8.413   1.826   2.673  0.1702 -0.0064 -0.2425
  177MOL0     O23818   8.443   1.704   2.729 -0.0508 -0.4756  0.1840
  177MOL0     C23819   8.590   1.698   2.768  0.5010 -0.2139  0.7481
  177MOL0     C23820   8.607   1.758   2.909  0.6127  0.9187  0.0499
  177MOL0     C23821   8.579   1.653   3.017 -0.1638  0.1991 -0.3560
  177MOL0     C23822   8.429   1.630   3.035 -0.1955 -0.4647 -0.0285
  177MOL0     C23823   8.335   1.744   3.050 -0.3636  1.1337  0.0973
  177MOL0     C23824   8.254   1.825   3.073 -0.1572 -0.7177  0.5045
  177MOL0     C23825   8.461   1.860   2.556  0.1359  0.3641 -0.2356
  177MOL0     C23826   8.435   1.984   2.500  0.5182 -0.2355 -0.2638
  177MOL0     C23827   8.502   2.015   2.368  0.0017  0.4513 -0.5070
  177MOL0     H23828   8.344   2.490   2.452 -0.5547 -0.3517 -1.9137
  177MOL0     H23829   8.239   2.729   2.441 -0.2983 -3.0973 -3.5587
  177MOL0     H23830   8.075   2.829   2.776  1.4551 -2.6777 -0.8734
  177MOL0     H23831   8.172   2.924   2.671 -0.2657 -1.5682 -1.0443
  177MOL0     H23832   7.976   3.052   2.584 -0.4486  1.4573  0.4103
  177MOL0     H23833   8.001   3.067   2.761 -0.8174 -4.3523  4.4753
  177MOL0     H23834   7.813   2.901   2.795 -0.1725 -0.4822 -0.9175
  177MOL0     H23835   7.804   2.872   2.630  1.3921 -1.1746  0.5512
  177MOL0     H23836   7.768   3.118   2.584  3.2176 -1.7540 -0.4969
  177MOL0     H23837   7.630   3.025   2.672 -0.1945  1.8510  1.0893
  177MOL0     H23838   7.832   3.167   2.827  1.3159 -2.6585 -2.4174
  177MOL0     H23839   7.712   3.271   2.752 -0.1995  2.3088  2.4571
  177MOL0     H23840   7.533   3.144   2.819  0.9875  1.1235  0.6743
  177MOL0     H23841   7.625   3.035   2.927  0.2066 -1.1727 -2.8945
  177MOL0     H23842   7.652   3.335   2.961  3.1793 -3.2281 -1.7137
  177MOL0     H23843   7.674   3.215   3.084  0.9345 -2.7958 -1.4774
  177MOL0     H23844   7.404   3.219   3.096  1.5508  1.3612  2.9815
  177MOL0     H23845   7.462   3.376   3.124 -0.2457 -0.3892  0.4614
  177MOL0     H23846   7.523   3.503   2.893  0.9259 -2.1982  2.7037
  177MOL0     H23847   7.463   3.648   2.676  0.5877 -2.5646  3.7828
  177MOL0     H23848   7.411   3.533   2.557  2.0239 -0.4497  1.4325
  177MOL0     H23849   7.236   3.711   2.728 -0.4349 -1.8658  1.0909
  177MOL0     H23850   7.295   3.769   2.567 -1.3947 -0.6206 -1.6957
  177MOL0     H23851   7.063   3.684   2.546 -0.1756  0.1058  0.5141
  177MOL0     H23852   7.130   3.524   2.586  0.7177  1.1168  0.3225
  177MOL0     H23853   7.078   3.551   2.375 -1.4840  1.8167  3.8214
  177MOL0     H23854   7.264   3.540   2.374 -0.0853 -1.1860 -2.0649
  177MOL0     H23855   7.329   3.791   2.121  0.1793  0.4671 -4.2501
  177MOL0     H23856   7.236   3.820   1.903 -0.2042  1.4514 -0.7119
  177MOL0     H23857   6.853   4.001   1.609 -0.2662  0.4870 -0.6070
  177MOL0     H23858   6.811   3.999   1.360  0.9879  0.4814 -0.7632
  177MOL0     H23859   6.758   3.935   1.136 -0.0350  0.0190  0.0293
  177MOL0     H23860   6.912   4.019   1.144  0.9503  0.9999 -1.1242
  177MOL0     H23861   6.971   3.912   0.933 -0.1863 -1.1710 -1.6931
  177MOL0     H23862   6.813   3.828   0.930 -0.1849 -1.4038  2.6697
  177MOL0     H23863   6.689   4.050   0.946 -0.0341 -0.9420  0.8570
  177MOL0     H23864   6.842   4.142   0.935  1.0422 -0.8438  2.0471
  177MOL0     H23865   6.674   4.090   0.739 -1.2473 -1.2112  1.0841
  177MOL0     H23866   6.763   3.942   0.731 -0.0661  1.2956 -4.5313
  177MOL0     H23867   6.983   4.073   0.723  2.3168  3.1097 -1.2700
  177MOL0     H23868   6.883   4.211   0.685  2.7860 -0.3645 -0.2884
  177MOL0     H23869   6.948   4.121   0.464  1.2750 -1.0750 -1.7502
  177MOL0     H23870   6.933   3.964   0.524  0.9901  1.7577 -0.8290
  177MOL0     H23871   6.683   4.152   0.489 -2.2443 -2.1579  1.1761
  177MOL0     H23872   6.690   3.969   0.500  1.7038  0.5086  3.7859
  177MOL0     H23873   6.793   3.966   0.280  1.7260  0.6378 -0.2760
  177MOL0     H23874   6.638   4.048   0.270  0.2250  0.9097 -0.3398
  177MOL0     H23875   7.066   3.662   1.320 -0.4482  0.9563  0.8498
  177MOL0     H23876   7.119   3.665   1.561 -0.6364 -1.8982 -0.4901
  177MOL0     H23877   6.834   3.742   2.049 -0.5007 -1.5592  0.3744
  177MOL0     H23878   6.939   3.711   2.282 -2.3277 -0.4556 -0.8985
  177MOL0     H23879   7.932   2.595   2.708  1.1103  1.8975 -0.4255
  177MOL0     H23880   8.022   2.383   2.715 -1.1340  1.6707  2.3680
  177MOL0     H23881   8.243   2.101   2.765  0.2864  1.6435 -1.9073
  177MOL0     H23882   8.298   1.877   2.840  1.3931 -0.1675  0.3792
  177MOL0     H23883   8.648   1.762   2.702 -2.3439  0.1952 -1.5306
  177MOL0     H23884   8.626   1.598   2.743  0.7486  0.6219 -2.7376
  177MOL0     H23885   8.556   1.851   2.933  0.7608  0.1622  3.9385
  177MOL0     H23886   8.713   1.781   2.921  1.2319 -1.2251 -0.7801
  177MOL0     H23887   8.636   1.679   3.106 -1.7641  2.6203  0.0509
  177MOL0     H23888   8.620   1.557   2.984  0.0556  1.0768 -2.8273
  177MOL0     H23889   8.389   1.587   2.943 -1.2713 -1.6099  0.9264
  177MOL0     H23890   8.414   1.551   3.110  1.3720  0.6086  1.5029
  177MOL0     H23891   8.199   1.911   3.105  0.7025  0.9658 -2.2249
  177MOL0     H23892   8.524   1.787   2.507  4.1068  3.0547  0.3959
  177MOL0     H23893   8.505   2.110   2.314  0.0071  0.3328 -0.7177
  177MOL0     H23894   8.608   1.989   2.369 -0.1095 -0.4739 -3.7341
  177MOL0     H23895   8.458   1.953   2.289  1.1908 -0.1001 -0.7542
  178MOL0     O23896   2.351  11.215   7.611 -0.2069 -0.2684  0.3366
  178MOL0     C23897   2.347  11.143   7.513  0.0256 -0.4012  0.2629
  178MOL0     O23898   2.447  11.137   7.425  0.3880 -0.1434 -0.2110
  178MOL0     C23899   2.560  11.223   7.436  0.3503  0.4812 -0.2141
  178MOL0     C23900   2.558  11.357   7.402  0.3196  0.3971 -0.2544
  178MOL0     C23901   2.677  11.426   7.421 -0.3425 -0.7314 -0.8551
  178MOL0     C23902   2.788  11.376   7.475  0.1538  0.8799  0.8635
  178MOL0     O23903   2.895  11.457   7.461 -0.1289  0.2877  0.7163
  178MOL0     C23904   3.014  11.389   7.412  0.7699 -0.3390 -0.4635
  178MOL0     C23905   3.002  11.336   7.268  0.5752 -0.7044  0.2555
  178MOL0     C23906   2.984  11.455   7.167  0.1899  0.2780  0.2461
  178MOL0     C23907   3.003  11.393   7.025 -1.3986  0.1372  0.2963
  178MOL0     C23908   3.006  11.477   6.901 -0.0427 -0.0364 -0.6137
  178MOL0     C23909   3.048  11.399   6.778 -0.6240 -0.1121  0.1728
  178MOL0     C23910   3.080  11.500   6.662  0.4426 -0.0693 -0.5061
  178MOL0     C23911   3.089  11.427   6.533 -0.9550 -0.3220 -0.7808
  178MOL0     N23912   3.222  11.375   6.507 -0.1064 -0.2886 -0.0956
  178MOL0     C23913   3.336  11.458   6.491  1.4670  0.8171  0.2089
  178MOL0     C23914   3.448  11.373   6.485  0.0696 -0.6323 -1.1839
  178MOL0     C23915   3.591  11.419   6.497 -0.5226 -0.1086  0.0630
  178MOL0     C23916   3.626  11.535   6.406  0.0692 -0.1129 -0.2975
  178MOL0     C23917   3.760  11.600   6.451 -0.5779  0.0082  0.2280
  178MOL0     C23918   3.828  11.691   6.340  0.1015  0.7382 -1.3319
  178MOL0     O23919   3.908  11.792   6.407 -0.0760  0.3670  0.7185
  178MOL0     C23920   3.867  11.919   6.369 -0.3445  0.2241 -0.3626
  178MOL0     C23921   3.739  11.970   6.394 -0.1756  0.2023 -0.3657
  178MOL0     C23922   3.705  12.099   6.381 -0.3416 -1.5891  0.9860
  178MOL0     C23923   3.802  12.197   6.334 -0.5902  0.6908 -0.4883
  178MOL0     C23924   3.763  12.332   6.293 -0.0277  0.1269 -0.2932
  178MOL0     O23925   3.839  12.397   6.196 -0.3869  0.9017 -0.5076
  178MOL0     C23926   3.799  12.509   6.133 -0.1365  0.0512  0.1155
  178MOL0     C23927   3.891  12.610   6.121  0.4560  0.1473  0.2664
  178MOL0     C23928   3.854  12.729   6.059 -0.4921  0.2418  0.0172
  178MOL0     C23929   3.721  12.737   6.011  0.1784 -0.7386  0.2314
  178MOL0     O23930   3.694  12.856   5.945  0.3099  0.3735  0.7143
  178MOL0     C23931   3.687  12.837   5.797  0.0619  0.0038  0.0023
  178MOL0     C23932   3.558  12.905   5.749 -0.1763 -0.0395  0.4537
  178MOL0     C23933   3.433  12.838   5.802 -0.2183  0.3738 -0.9699
  178MOL0     C23934   3.308  12.913   5.749 -0.2574  0.2392 -0.8618
  178MOL0     C23935   3.279  12.894   5.603  0.0392  0.2356 -0.1889
  178MOL0     C23936   3.137  12.926   5.564  0.4330 -0.7829 -0.2498
  178MOL0     C23937   3.106  13.065   5.500 -1.0156 -0.1262  0.0507
  178MOL0     C23938   3.160  13.193   5.562 -0.8814  0.6413 -0.4124
  178MOL0    Cl23939   3.096  13.237   5.716  0.2922 -0.2509  0.5523
  178MOL0     C23940   3.626  12.636   6.028  0.3490  0.3465 -0.2677
  178MOL0     C23941   3.660  12.528   6.095 -0.4993 -0.0650 -0.8764
  178MOL0     O23942   3.677  12.384   6.357  0.1436  0.4894 -0.3404
  178MOL0     C23943   3.930  12.145   6.309 -0.5178 -0.2127 -0.3761
  178MOL0     C23944   3.969  12.002   6.333 -0.7491  0.3331  0.3329
  178MOL0     N23945   3.399  11.243   6.507  0.6521  0.1088 -0.5120
  178MOL0     N23946   3.268  11.245   6.513  0.6182 -0.1677  0.1321
  178MOL0     C23947   2.789  11.240   7.493 -0.3399 -0.2841 -0.4938
  178MOL0     C23948   2.674  11.174   7.491  0.9399  0.0661  0.1030
  178MOL0     C23949   2.240  11.052   7.499 -0.0428  0.1847  0.3485
  178MOL0     C23950   2.253  10.942   7.410 -0.6358  0.1770  0.6476
  178MOL0     C23951   2.159  10.846   7.389 -0.1242  0.3810  0.0613
  178MOL0     C23952   2.049  10.845   7.477 -0.5629 -0.4421 -1.3022
  178MOL0     O23953   1.954  10.752   7.457  1.0817  0.0765 -0.0717
  178MOL0     C23954   1.817  10.789   7.478 -0.6974  0.0202 -0.2339
  178MOL0     C23955   1.760  10.704   7.587 -0.1522 -0.5527 -0.0976
  178MOL0     C23956   1.661  10.778   7.672 -0.2092 -0.5914 -1.2035
  178MOL0     C23957   1.522  10.777   7.610 -0.2700  0.0374  0.4217
  178MOL0     C23958   1.515  10.850   7.487  0.0521 -1.0405  1.2200
  178MOL0     C23959   1.491  10.912   7.383  0.1799  0.8218  0.2206
  178MOL0     C23960   2.039  10.941   7.573 -0.1742  0.8736 -0.8682
  178MOL0     C23961   2.119  11.056   7.573 -0.6271  0.0486 -0.7472
  178MOL0     C23962   2.077  11.167   7.663  0.5946  0.6119 -0.4751
  178MOL0     H23963   2.461  11.393   7.371  0.2938 -1.7207 -3.0605
  178MOL0     H23964   2.679  11.534   7.410  0.0666 -0.7375 -0.8464
  178MOL0     H23965   3.100  11.456   7.416  1.6973 -1.4489 -1.1331
  178MOL0     H23966   3.039  11.310   7.483 -2.6327 -0.0116  1.2888
  178MOL0     H23967   2.918  11.266   7.266 -0.7105  0.8001 -0.5843
  178MOL0     H23968   3.090  11.276   7.243  0.3415 -0.7267 -0.5325
  178MOL0     H23969   3.070  11.517   7.195 -0.1201 -0.4686  3.1936
  178MOL0     H23970   2.887  11.502   7.188 -0.0571 -0.2888  0.3819
  178MOL0     H23971   3.105  11.353   7.019 -1.2114  0.7388 -0.6665
  178MOL0     H23972   2.941  11.303   7.019  2.1657 -2.4844 -0.1846
  178MOL0     H23973   2.906  11.514   6.875 -1.2206 -2.3684  0.3139
  178MOL0     H23974   3.065  11.568   6.915  0.4252 -0.1515 -1.7205
  178MOL0     H23975   3.134  11.337   6.803  0.9363  2.5830  1.9969
  178MOL0     H23976   2.964  11.336   6.747 -1.1959  0.1010  1.2361
  178MOL0     H23977   3.170  11.560   6.680 -0.8746  1.6353  0.7435
  178MOL0     H23978   3.005  11.579   6.655  2.7330  2.0931 -3.2635
  178MOL0     H23979   3.016  11.346   6.527  0.7921 -2.1957  1.4903
  178MOL0     H23980   3.071  11.497   6.450 -1.8101 -0.4688 -0.7309
  178MOL0     H23981   3.319  11.565   6.495 -3.4745  0.2344  1.7080
  178MOL0     H23982   3.606  11.438   6.604 -0.3242 -0.1849  0.0501
  178MOL0     H23983   3.645  11.334   6.454 -0.9697  0.6257 -2.0449
  178MOL0     H23984   3.649  11.511   6.302  2.5241  1.0187 -0.0879
  178MOL0     H23985   3.544  11.608   6.402 -0.2529 -0.3632  1.1781
  178MOL0     H23986   3.825  11.513   6.461 -1.4394 -0.6556  0.1613
  178MOL0     H23987   3.734  11.649   6.545 -0.0255 -2.1169  1.5407
  178MOL0     H23988   3.749  11.730   6.277 -0.6475 -0.4720 -1.1771
  178MOL0     H23989   3.889  11.641   6.264  1.3073  0.7873 -0.4378
  178MOL0     H23990   3.669  11.890   6.414  1.1287 -0.3569  2.6313
  178MOL0     H23991   3.599  12.120   6.395  0.2170  2.8751  0.1161
  178MOL0     H23992   3.989  12.584   6.159  0.7916 -0.7727 -1.1678
  178MOL0     H23993   3.917  12.812   6.029 -0.5610 -0.4463 -2.1570
  178MOL0     H23994   3.773  12.882   5.747  1.3912  0.5235  2.6172
  178MOL0     H23995   3.683  12.731   5.772  1.0957 -0.5785  2.0980
  178MOL0     H23996   3.562  13.015   5.754 -0.1681  0.1468 -2.0338
  178MOL0     H23997   3.547  12.884   5.642  0.6293  0.2750  0.2996
  178MOL0     H23998   3.418  12.737   5.762 -4.2637  0.1312  0.7366
  178MOL0     H23999   3.439  12.837   5.911 -1.4460 -3.8195 -0.7378
  178MOL0     H24000   3.319  13.020   5.771  0.5564 -0.0719  0.3533
  178MOL0     H24001   3.224  12.887   5.814  2.2562 -0.1363  2.5247
  178MOL0     H24002   3.280  12.787   5.581 -2.4453 -0.3271  2.0740
  178MOL0     H24003   3.348  12.934   5.528 -1.5372  0.6164 -1.4956
  178MOL0     H24004   3.104  12.851   5.492 -0.8089 -2.0817  1.5832
  178MOL0     H24005   3.074  12.906   5.651 -1.0021 -2.5278 -1.6061
  178MOL0     H24006   2.997  13.075   5.504 -1.1503 -1.1567 -0.6590
  178MOL0     H24007   3.129  13.040   5.396  2.0119  0.3148  0.5053
  178MOL0     H24008   3.269  13.194   5.567 -0.8875 -0.7543  0.5791
  178MOL0     H24009   3.138  13.272   5.489 -2.1595  0.9214  0.2373
  178MOL0     H24010   3.521  12.638   6.003  0.8689 -2.3919 -3.4039
  178MOL0     H24011   3.579  12.462   6.125 -1.2508  0.4244 -1.7806
  178MOL0     H24012   4.009  12.199   6.257  0.9450 -0.1582  1.7798
  178MOL0     H24013   4.072  11.979   6.308 -1.0702  1.7511 -2.6663
  178MOL0     H24014   2.871  11.178   7.528 -0.8381 -0.2499  0.8042
  178MOL0     H24015   2.670  11.072   7.530  1.1315 -0.6220 -1.5990
  178MOL0     H24016   2.348  10.919   7.361 -0.7799 -2.2685  1.4199
  178MOL0     H24017   2.171  10.748   7.344 -5.3888 -1.9984  2.8864
  178MOL0     H24018   1.762  10.773   7.385  1.7955  1.0203 -1.9945
  178MOL0     H24019   1.818  10.895   7.504  2.8484  0.0785 -0.1787
  178MOL0     H24020   1.844  10.670   7.648 -0.5608  1.6218  1.8217
  178MOL0     H24021   1.712  10.618   7.541  0.2800 -1.1045  0.4608
  178MOL0     H24022   1.706  10.874   7.700  0.0716  0.4802 -4.7497
  178MOL0     H24023   1.647  10.741   7.773  0.9017 -0.5100 -1.0079
  178MOL0     H24024   1.488  10.674   7.595  1.7115 -0.7830  1.2059
  178MOL0     H24025   1.454  10.825   7.682  2.1609  1.8167  1.7056
  178MOL0     H24026   1.463  10.946   7.285 -1.9260  1.9527  1.1584
  178MOL0     H24027   1.957  10.927   7.644  1.2458 -3.3307  0.2474
  178MOL0     H24028   2.097  11.260   7.610 -3.0956 -0.0991 -3.5626
  178MOL0     H24029   1.967  11.170   7.670  0.2945 -4.6948  3.8982
  178MOL0     H24030   2.120  11.169   7.764 -1.4237  0.5483  0.4433
  179MOL0     O24031   3.172   5.266   4.627 -0.0051  0.4798 -0.3033
  179MOL0     C24032   3.135   5.161   4.579 -0.4212 -0.4400  0.0451
  179MOL0     O24033   3.039   5.152   4.479 -0.2466 -0.0029  0.2887
  179MOL0     C24034   3.001   5.262   4.407 -0.6273  0.4602 -0.8959
  179MOL0     C24035   3.028   5.263   4.261 -1.4117 -0.3614  0.1304
  179MOL0     C24036   2.985   5.364   4.182 -0.4970  0.1439  0.5619
  179MOL0     C24037   2.902   5.465   4.233 -0.2417  0.0332 -0.2752
  179MOL0     O24038   2.867   5.545   4.136  0.2281 -0.7239 -0.8264
  179MOL0     C24039   2.791   5.667   4.164 -0.2178  0.3598  0.3369
  179MOL0     C24040   2.807   5.770   4.053  0.1393 -0.0381 -0.0120
  179MOL0     C24041   2.725   5.891   4.086  0.5341  0.0720 -0.7223
  179MOL0     C24042   2.699   5.980   3.973  0.1695 -0.3319  0.0356
  179MOL0     C24043   2.817   6.076   3.960 -0.2668 -0.3288  0.8170
  179MOL0     C24044   2.785   6.185   3.863  0.2707 -0.2759  0.6330
  179MOL0     C24045   2.903   6.288   3.845 -0.1953  0.6116 -0.9054
  179MOL0     C24046   2.873   6.426   3.779 -0.0248 -0.0412  0.4692
  179MOL0     N24047   2.979   6.530   3.792  0.4943  0.1370  0.8109
  179MOL0     C24048   3.039   6.567   3.906  0.4698 -0.0282  0.2200
  179MOL0     C24049   3.141   6.647   3.866 -0.0114 -0.2693  0.5771
  179MOL0     C24050   3.237   6.707   3.968  0.7283  0.6815  0.5910
  179MOL0     C24051   3.287   6.852   3.950 -0.4056  0.0125 -0.1665
  179MOL0     C24052   3.414   6.890   4.034 -1.3785 -0.3375  0.5291
  179MOL0     C24053   3.486   7.015   3.977  0.5100 -0.3135  0.0560
  179MOL0     O24054   3.393   7.126   3.989 -0.4289 -0.0690  0.5040
  179MOL0     C24055   3.443   7.249   4.028  0.2753  0.4994  0.4908
  179MOL0     C24056   3.583   7.278   4.036 -0.1439 -0.0959 -0.0446
  179MOL0     C24057   3.617   7.404   4.084 -0.3151 -0.4975  0.7595
  179MOL0     C24058   3.523   7.503   4.115 -0.4816 -0.0892  1.1671
  179MOL0     C24059   3.575   7.635   4.134  0.0029 -0.4594  0.3311
  179MOL0     O24060   3.477   7.735   4.118  0.5292  0.6917  0.3100
  179MOL0     C24061   3.509   7.860   4.142 -0.4682 -0.9106  0.1012
  179MOL0     C24062   3.539   7.904   4.271 -0.2444  0.9545  0.5465
  179MOL0     C24063   3.587   8.034   4.290  0.4492 -0.4732 -0.7946
  179MOL0     C24064   3.570   8.129   4.189 -0.3463 -0.9648  0.1857
  179MOL0     O24065   3.597   8.261   4.227 -0.4638  0.1223 -0.1406
  179MOL0     C24066   3.620   8.344   4.117  0.4657  0.9974 -0.7364
  179MOL0     C24067   3.666   8.488   4.150 -0.2869 -0.0971 -1.1352
  179MOL0     C24068   3.796   8.476   4.242  0.1530  0.1312  0.3193
  179MOL0     C24069   3.763   8.457   4.388 -1.5792 -0.1541 -0.4155
  179MOL0     C24070   3.816   8.320   4.445  0.4882  0.1245 -0.1928
  179MOL0     C24071   3.750   8.298   4.592 -0.8633  1.3530  0.1485
  179MOL0     C24072   3.812   8.369   4.714  0.1987 -0.7133 -0.9290
  179MOL0     C24073   3.963   8.341   4.738  0.7562  0.6187  0.4496
  179MOL0    Cl24074   3.993   8.393   4.908  0.1995  0.2252  0.0116
  179MOL0     C24075   3.520   8.091   4.063 -0.8783  0.2484  0.1280
  179MOL0     C24076   3.501   7.952   4.033 -0.5939  0.0195 -1.0394
  179MOL0     O24077   3.692   7.648   4.182 -0.1395  0.1168  0.4637
  179MOL0     C24078   3.393   7.465   4.113 -0.1649  0.1108 -0.4459
  179MOL0     C24079   3.358   7.338   4.075  0.2846 -0.1964  0.6662
  179MOL0     N24080   3.139   6.664   3.725 -0.7703  0.1492  0.0888
  179MOL0     N24081   3.037   6.595   3.687  0.2056  0.2735  0.3583
  179MOL0     C24082   2.849   5.453   4.367 -0.7708 -0.5866  0.3739
  179MOL0     C24083   2.912   5.367   4.459  0.4592  0.5119 -0.6059
  179MOL0     C24084   3.176   5.032   4.643  0.5300  0.1583  0.4394
  179MOL0     C24085   3.085   4.925   4.622 -0.5479 -0.1684 -0.0642
  179MOL0     C24086   3.115   4.795   4.675 -0.2781 -0.4538  0.4806
  179MOL0     C24087   3.222   4.779   4.763  0.5064  0.2166  0.9875
  179MOL0     O24088   3.245   4.662   4.836  1.0764 -0.8230  0.8504
  179MOL0     C24089   3.136   4.562   4.837 -0.4705  0.2558  0.0877
  179MOL0     C24090   3.165   4.461   4.955  0.1565 -0.7753 -0.6588
  179MOL0     C24091   3.120   4.507   5.092  0.5114 -0.0625 -0.0266
  179MOL0     C24092   3.094   4.376   5.189  0.1318 -0.3783 -0.8413
  179MOL0     C24093   2.961   4.321   5.191  0.5136  0.1384  0.2989
  179MOL0     C24094   2.851   4.280   5.180  0.5566 -0.1630  0.0412
  179MOL0     C24095   3.311   4.885   4.778 -0.1616 -0.0070  0.3750
  179MOL0     C24096   3.290   5.010   4.725  0.0819 -0.3044 -0.3884
  179MOL0     C24097   3.403   5.105   4.766  0.0018 -0.1990  0.6675
  179MOL0     H24098   3.087   5.185   4.215 -0.1982  1.1257 -0.9391
  179MOL0     H24099   3.014   5.377   4.078 -0.2887  1.6122  0.7835
  179MOL0     H24100   2.692   5.633   4.193 -0.5584 -0.2883 -1.4587
  179MOL0     H24101   2.829   5.721   4.252 -1.5419  1.2170  0.4066
  179MOL0     H24102   2.772   5.721   3.961  3.2228 -0.2367 -1.2258
  179MOL0     H24103   2.912   5.800   4.037 -0.4306  5.5499  3.6721
  179MOL0     H24104   2.773   5.944   4.169 -1.2211 -1.8498  1.6727
  179MOL0     H24105   2.629   5.866   4.132  0.6702  3.7204  1.9410
  179MOL0     H24106   2.698   5.928   3.876  2.8335 -1.3490  0.4683
  179MOL0     H24107   2.611   6.038   4.002 -0.4099 -1.7879  1.2715
  179MOL0     H24108   2.846   6.118   4.056  1.0015 -0.0595  0.3418
  179MOL0     H24109   2.903   6.027   3.913  0.4463 -0.5410  2.3001
  179MOL0     H24110   2.765   6.146   3.762  0.3101  0.0713  0.4916
  179MOL0     H24111   2.696   6.237   3.898  1.1229  0.9885  0.9815
  179MOL0     H24112   2.975   6.239   3.778  0.7352  1.6993 -0.7399
  179MOL0     H24113   2.963   6.298   3.937  0.2597  1.8268 -1.3129
  179MOL0     H24114   2.852   6.414   3.672 -1.6974 -0.6569  0.8250
  179MOL0     H24115   2.778   6.466   3.817  0.8062  1.3178  1.1673
  179MOL0     H24116   3.019   6.536   4.009 -4.8219  3.1604  0.5544
  179MOL0     H24117   3.203   6.711   4.072  2.1409 -1.1295  1.1741
  179MOL0     H24118   3.324   6.642   3.956 -0.6129 -0.9924 -0.4798
  179MOL0     H24119   3.329   6.857   3.849  2.7187 -1.9900  0.8827
  179MOL0     H24120   3.198   6.913   3.967 -1.2489 -0.7008 -1.7747
  179MOL0     H24121   3.490   6.811   4.037  0.2316  1.0751 -0.4402
  179MOL0     H24122   3.399   6.905   4.141  0.8947 -2.2546  1.1967
  179MOL0     H24123   3.531   7.013   3.878  0.8748  0.3543  0.2004
  179MOL0     H24124   3.575   7.030   4.039  0.3465  0.0676  0.2072
  179MOL0     H24125   3.660   7.218   3.988 -0.0066  1.4619 -1.8876
  179MOL0     H24126   3.723   7.428   4.082 -0.0590 -1.5993 -1.7921
  179MOL0     H24127   3.559   7.836   4.353  0.2515  0.0896 -0.2550
  179MOL0     H24128   3.634   8.059   4.384  1.9436 -1.8056 -1.1523
  179MOL0     H24129   3.696   8.307   4.048  3.7287  2.7246  1.6255
  179MOL0     H24130   3.523   8.345   4.067 -0.2763 -1.4721  0.5005
  179MOL0     H24131   3.695   8.529   4.053  0.1582  3.9190  0.4862
  179MOL0     H24132   3.588   8.551   4.194 -1.0246  0.4534 -3.1262
  179MOL0     H24133   3.845   8.388   4.199  3.4191  0.3731  3.1304
  179MOL0     H24134   3.861   8.561   4.220  0.9589 -0.2565  1.1060
  179MOL0     H24135   3.655   8.447   4.406 -1.6693  1.2254 -0.0910
  179MOL0     H24136   3.799   8.541   4.447 -0.2472  0.0481 -1.4710
  179MOL0     H24137   3.925   8.321   4.455  0.5615 -0.2631 -0.8873
  179MOL0     H24138   3.800   8.231   4.384 -2.5776  0.5538 -0.1663
  179MOL0     H24139   3.642   8.313   4.586 -0.9001  1.4327  0.8923
  179MOL0     H24140   3.762   8.197   4.634  0.1351  1.8492  1.1140
  179MOL0     H24141   3.759   8.338   4.805  0.0496  3.5230  0.6818
  179MOL0     H24142   3.784   8.475   4.711 -4.1494 -1.6154  0.6262
  179MOL0     H24143   3.988   8.236   4.719  1.2678  0.7008  0.6480
  179MOL0     H24144   4.031   8.405   4.681  1.2747  1.7429  2.2606
  179MOL0     H24145   3.500   8.161   3.983 -5.6025  3.1053  3.3079
  179MOL0     H24146   3.479   7.919   3.932  1.2706  0.6056 -1.6780
  179MOL0     H24147   3.325   7.543   4.146 -0.3413 -0.0626 -0.4011
  179MOL0     H24148   3.251   7.322   4.073  0.3926 -0.9294 -1.0141
  179MOL0     H24149   2.770   5.518   4.402  1.9133  1.8559  2.3500
  179MOL0     H24150   2.867   5.363   4.558 -0.2442  0.7696 -0.9087
  179MOL0     H24151   3.000   4.928   4.554  1.5832 -2.1811 -3.0343
  179MOL0     H24152   3.045   4.715   4.652  0.9539 -1.1324 -1.0857
  179MOL0     H24153   3.143   4.506   4.743  2.7435  0.8674 -0.1280
  179MOL0     H24154   3.037   4.609   4.847 -0.7052 -0.4406  1.1848
  179MOL0     H24155   3.271   4.436   4.952  0.9702  2.0053 -4.9409
  179MOL0     H24156   3.103   4.374   4.934 -1.1351 -0.2339  0.7374
  179MOL0     H24157   3.027   4.563   5.080  0.3942 -0.3968 -0.7563
  179MOL0     H24158   3.199   4.566   5.140 -0.2233  2.3705 -1.6535
  179MOL0     H24159   3.167   4.298   5.165  2.7686  0.5034  3.2983
  179MOL0     H24160   3.108   4.396   5.296 -1.7726 -0.3443 -0.5732
  179MOL0     H24161   2.751   4.254   5.152 -1.3080  3.8783  2.1002
  179MOL0     H24162   3.402   4.860   4.833  0.8524 -0.1966 -1.3148
  179MOL0     H24163   3.491   5.046   4.793 -0.4647 -1.2117  0.0778
  179MOL0     H24164   3.433   5.152   4.672 -0.6835 -2.3906 -0.7350
  179MOL0     H24165   3.372   5.171   4.847 -0.2527  0.9736 -0.3557
  180MOL0     O24166   9.568   8.710   9.450 -0.1232 -0.5529 -0.2258
  180MOL0     C24167   9.531   8.773   9.354  0.1140 -0.2839  0.4174
  180MOL0     O24168   9.412   8.830   9.343 -0.3196  0.6632  0.5073
  180MOL0     C24169   9.306   8.818   9.429  0.1731  0.6534  0.7971
  180MOL0     C24170   9.198   8.899   9.398 -0.1614  0.1791  0.7873
  180MOL0     C24171   9.092   8.906   9.490  0.4805  0.5162 -0.7020
  180MOL0     C24172   9.090   8.826   9.613 -0.2971 -0.4712 -0.3804
  180MOL0     O24173   8.980   8.841   9.703 -0.3012  0.2321  0.1485
  180MOL0     C24174   8.909   8.722   9.731 -0.8864 -1.1509  0.0948
  180MOL0     C24175   8.788   8.772   9.819 -0.2814 -0.9593  0.0815
  180MOL0     C24176   8.682   8.818   9.723  1.2655  0.0038  1.2466
  180MOL0     C24177   8.550   8.853   9.791  0.7435  0.2775 -0.1075
  180MOL0     C24178   8.464   8.945   9.713  0.8667 -0.1413  0.4760
  180MOL0     C24179   8.352   8.995   9.797  0.1007 -0.1416 -0.2202
  180MOL0     C24180   8.246   8.891   9.840  0.4646 -0.1306 -0.5339
  180MOL0     C24181   8.131   8.938   9.939 -0.2772 -0.4442 -0.4919
  180MOL0     N24182   8.048   9.054   9.889 -0.0033  0.3834 -0.7478
  180MOL0     C24183   7.908   9.062   9.895 -0.1821  0.2905  0.4986
  180MOL0     C24184   7.877   9.169   9.807  0.5992  0.2687 -0.5242
  180MOL0     C24185   7.745   9.228   9.763  0.1588 -0.1344  0.1249
  180MOL0     C24186   7.629   9.131   9.768 -0.1961  0.7027 -0.3969
  180MOL0     C24187   7.633   9.047   9.643  0.6261 -0.1983  0.0616
  180MOL0     C24188   7.517   8.945   9.644  0.2307 -0.4857 -0.6675
  180MOL0     O24189   7.512   8.865   9.766 -0.2384 -0.2326 -0.1237
  180MOL0     C24190   7.413   8.894   9.861  0.3669  0.0145 -0.1257
  180MOL0     C24191   7.403   8.814   9.973 -0.5099 -0.1270 -0.3315
  180MOL0     C24192   7.307   8.821  10.072  0.1176 -0.4701 -1.0328
  180MOL0     C24193   7.227   8.940  10.070  0.2612 -0.2129  0.8422
  180MOL0     C24194   7.129   8.960  10.175  0.7090 -0.0523  0.2183
  180MOL0     O24195   7.137   8.903  10.300 -0.5654 -0.3715  0.3503
  180MOL0     C24196   7.036   8.922  10.389  0.2664  0.6487  0.1597
  180MOL0     C24197   6.911   8.861  10.392  0.0543  0.7931  0.3761
  180MOL0     C24198   6.826   8.867  10.506 -0.4725  0.2135  0.6900
  180MOL0     C24199   6.850   8.946  10.613 -0.1693  0.2218  0.4213
  180MOL0     O24200   6.766   8.948  10.722 -0.6820  0.2571 -0.0425
  180MOL0     C24201   6.819   8.996  10.852  0.2519 -0.5418  0.7680
  180MOL0     C24202   6.700   8.966  10.955 -1.4057  0.4010 -0.0881
  180MOL0     C24203   6.744   9.004  11.103  1.0356  0.1364  0.3298
  180MOL0     C24204   6.607   9.025  11.175  0.9652  0.6535 -0.5783
  180MOL0     C24205   6.641   9.046  11.319  0.3659  0.7667 -0.5984
  180MOL0     C24206   6.515   9.034  11.415 -0.9195 -0.0698  0.5315
  180MOL0     C24207   6.388   9.116  11.367  0.4085  0.8762  0.4885
  180MOL0     C24208   6.411   9.266  11.386 -0.8853  0.1794  0.7573
  180MOL0    Cl24209   6.262   9.361  11.367 -0.2275  0.3989 -0.2743
  180MOL0     C24210   6.973   9.021  10.611  0.6531 -0.3248  1.0727
  180MOL0     C24211   7.060   9.011  10.494  0.6365 -0.2335  0.0970
  180MOL0     O24212   7.031   9.037  10.143 -0.6866 -0.6096 -0.2073
  180MOL0     C24213   7.236   9.027   9.961  0.1073  0.5741  0.3225
  180MOL0     C24214   7.314   9.002   9.853 -0.6372 -0.2295 -0.3373
  180MOL0     N24215   7.996   9.227   9.767 -0.5891  0.3034  0.2557
  180MOL0     N24216   8.093   9.165   9.820 -0.3778  1.0064  0.4418
  180MOL0     C24217   9.200   8.739   9.633  0.1463  0.2093 -0.5858
  180MOL0     C24218   9.300   8.738   9.538  0.3364  0.6299  0.9493
  180MOL0     C24219   9.627   8.796   9.235  0.6385 -0.7192  0.2158
  180MOL0     C24220   9.569   8.852   9.117 -0.0966  1.3248  0.5307
  180MOL0     C24221   9.631   8.864   8.990 -0.2106 -0.2334 -0.5663
  180MOL0     C24222   9.764   8.822   8.978  0.0148 -0.2350 -0.4679
  180MOL0     O24223   9.815   8.831   8.855 -0.1531 -0.1298  0.1702
  180MOL0     C24224   9.955   8.805   8.836  0.2328 -0.8296  0.1006
  180MOL0     C24225   9.991   8.814   8.690 -0.1303 -0.5893  0.9188
  180MOL0     C24226   9.939   8.953   8.642 -0.3550 -0.3644  0.2001
  180MOL0     C24227   9.969   8.979   8.492  0.0628  0.0731  0.2993
  180MOL0     C24228   9.866   9.086   8.451  0.2989  1.4587 -0.4431
  180MOL0     C24229   9.791   9.172   8.413 -0.5044  0.8202 -0.2491
  180MOL0     C24230   9.828   8.779   9.100 -0.6499 -0.2820 -0.0196
  180MOL0     C24231   9.765   8.758   9.225  0.5340  0.9128  0.6326
  180MOL0     C24232   9.840   8.712   9.346  0.4843  0.2894  0.7599
  180MOL0     H24233   9.198   8.943   9.299 -2.2104 -2.7165 -0.6520
  180MOL0     H24234   9.004   8.965   9.467 -0.3020 -0.8757 -1.3994
  180MOL0     H24235   8.877   8.676   9.636  0.6096 -3.7535  0.7543
  180MOL0     H24236   8.978   8.663   9.792  3.1345  3.3340  0.4611
  180MOL0     H24237   8.820   8.849   9.889 -1.4877  1.2536 -1.6466
  180MOL0     H24238   8.746   8.691   9.880 -1.5109 -0.6522 -0.3292
  180MOL0     H24239   8.670   8.740   9.648  1.2863  0.8809  0.3115
  180MOL0     H24240   8.710   8.904   9.662 -2.7686 -0.0068 -0.9029
  180MOL0     H24241   8.488   8.764   9.810 -1.4748  1.6699 -0.3885
  180MOL0     H24242   8.580   8.903   9.883  1.2608  0.9241 -0.6208
  180MOL0     H24243   8.525   9.029   9.678 -1.3373  1.5684  0.5067
  180MOL0     H24244   8.424   8.908   9.618  3.4205 -0.2711 -0.6257
  180MOL0     H24245   8.390   9.060   9.875  2.0405  0.1349 -1.3360
  180MOL0     H24246   8.298   9.063   9.731 -2.6339 -0.9360  1.0405
  180MOL0     H24247   8.305   8.808   9.879 -1.5114 -2.2416 -1.8285
  180MOL0     H24248   8.203   8.857   9.745 -2.3188 -0.6287  0.8193
  180MOL0     H24249   8.073   8.848   9.961  0.3230 -1.0760 -1.4385
  180MOL0     H24250   8.174   8.979  10.031  1.2576  2.1888 -2.2489
  180MOL0     H24251   7.836   8.995   9.942 -1.8008  2.1515  0.8056
  180MOL0     H24252   7.728   9.317   9.825 -1.8993  1.2098 -2.1747
  180MOL0     H24253   7.744   9.271   9.663  3.5975  2.3102  0.9833
  180MOL0     H24254   7.631   9.070   9.858  0.0616 -0.2276 -1.0135
  180MOL0     H24255   7.531   9.180   9.763 -0.1353  0.7164 -2.1810
  180MOL0     H24256   7.731   8.998   9.641 -1.0710 -4.0904  1.9038
  180MOL0     H24257   7.612   9.101   9.550  0.5861 -1.8599 -0.9519
  180MOL0     H24258   7.528   8.880   9.557 -0.3818  1.3591 -2.1940
  180MOL0     H24259   7.426   9.003   9.630 -1.0073 -1.5918  2.2134
  180MOL0     H24260   7.475   8.733   9.977 -0.6586 -0.4405 -2.5629
  180MOL0     H24261   7.314   8.753  10.156  1.1731 -0.4627 -1.1072
  180MOL0     H24262   6.873   8.803  10.307  0.3325  0.0508  0.7483
  180MOL0     H24263   6.739   8.802  10.514 -0.8179  0.5278 -0.3002
  180MOL0     H24264   6.915   8.952  10.879 -1.6848 -4.1636  2.5641
  180MOL0     H24265   6.842   9.102  10.862  1.3011 -0.8570  1.8722
  180MOL0     H24266   6.614   9.025  10.924 -1.3618  0.9064  0.7246
  180MOL0     H24267   6.682   8.859  10.940  1.4977  0.0889 -2.3528
  180MOL0     H24268   6.792   8.918  11.151 -1.5472 -1.4688  0.2290
  180MOL0     H24269   6.803   9.096  11.101  1.2180  0.0689  1.6412
  180MOL0     H24270   6.540   8.939  11.170  0.2260  1.0459  1.6312
  180MOL0     H24271   6.564   9.116  11.133 -2.3637 -1.0593 -1.1912
  180MOL0     H24272   6.687   9.144  11.330 -0.6983  1.3971 -1.5225
  180MOL0     H24273   6.714   8.975  11.359  0.5913  2.4046  2.1869
  180MOL0     H24274   6.485   8.929  11.422  2.7737 -1.4154 -1.2663
  180MOL0     H24275   6.552   9.060  11.515  1.0326  0.3036 -0.2552
  180MOL0     H24276   6.309   9.081  11.433 -0.9512 -2.5175 -2.6602
  180MOL0     H24277   6.341   9.086  11.274 -1.4023 -2.1654  2.2488
  180MOL0     H24278   6.450   9.289  11.486 -0.5573 -1.9042  1.1416
  180MOL0     H24279   6.470   9.293  11.298 -0.3824  0.0846  1.0665
  180MOL0     H24280   6.990   9.090  10.693 -2.1003  0.1302  1.3539
  180MOL0     H24281   7.159   9.057  10.492 -0.6321  2.8386  1.0518
  180MOL0     H24282   7.178   9.118   9.966  2.9423  2.5712  5.6720
  180MOL0     H24283   7.306   9.070   9.768  0.3171 -1.2173 -1.2499
  180MOL0     H24284   9.218   8.683   9.725 -2.1267  2.6158  1.4765
  180MOL0     H24285   9.369   8.659   9.567 -4.8817 -4.2512  2.0591
  180MOL0     H24286   9.462   8.847   9.103  0.1456 -1.6797 -1.1276
  180MOL0     H24287   9.574   8.878   8.899  0.0412 -0.0114 -0.6920
  180MOL0     H24288   9.980   8.707   8.877  0.1143 -2.4593 -3.4300
  180MOL0     H24289  10.017   8.879   8.888  1.4439  2.2705 -5.0424
  180MOL0     H24290   9.940   8.740   8.628  1.8296 -2.3589  1.3349
  180MOL0     H24291  10.099   8.802   8.683 -0.1169 -0.5655  1.0756
  180MOL0     H24292   9.987   9.034   8.697 -0.9394 -0.3025  0.6281
  180MOL0     H24293   9.830   8.956   8.650 -0.4083 -0.3986 -0.4384
  180MOL0     H24294  10.062   9.036   8.484  0.4587 -0.6246 -0.2166
  180MOL0     H24295   9.986   8.894   8.425  2.4885  0.9345 -0.2872
  180MOL0     H24296   9.707   9.236   8.396 -1.1778 -0.0267 -0.1649
  180MOL0     H24297   9.936   8.766   9.100 -1.0017 -5.3699  1.9979
  180MOL0     H24298   9.947   8.699   9.333  0.2655 -0.5160 -0.3532
  180MOL0     H24299   9.827   8.781   9.431  3.6942  0.4141  1.2477
  180MOL0     H24300   9.790   8.617   9.365  3.0839 -1.7712 -1.9335
  181MOL0     O24301   0.109  11.105   5.325  0.0349  0.6672  0.2418
  181MOL0     C24302   0.163  11.005   5.358 -0.0765 -0.0893 -1.1143
  181MOL0     O24303   0.207  10.981   5.486 -0.5334 -0.1976 -0.2001
  181MOL0     C24304   0.187  11.065   5.589 -0.3608 -0.3426  0.2788
  181MOL0     C24305   0.169  11.004   5.709  1.0008 -0.6615  0.4303
  181MOL0     C24306   0.166  11.081   5.830 -0.4567 -0.9870  0.4177
  181MOL0     C24307   0.157  11.226   5.819  0.0659 -0.0368  0.0654
  181MOL0     O24308   0.126  11.293   5.931 -0.2075  0.4020 -0.4958
  181MOL0     C24309   0.223  11.382   5.976 -0.8916  0.6161 -0.3811
  181MOL0     C24310   0.338  11.301   6.052 -0.2813  0.3871 -0.2535
  181MOL0     C24311   0.283  11.228   6.175 -0.6282 -0.0844  0.3571
  181MOL0     C24312   0.401  11.141   6.229  0.2241  0.2103 -0.2414
  181MOL0     C24313   0.418  11.140   6.388 -0.2917 -0.5520 -1.1542
  181MOL0     C24314   0.474  11.281   6.452  0.8907  0.0970  0.2407
  181MOL0     C24315   0.621  11.285   6.408 -0.9166  0.6723  0.5863
  181MOL0     C24316   0.675  11.427   6.427 -0.8148  0.9500  0.3072
  181MOL0     N24317   0.825  11.445   6.431  0.0870 -0.5301 -0.5210
  181MOL0     C24318   0.918  11.379   6.360  0.1816  0.2400  0.5810
  181MOL0     C24319   1.034  11.448   6.363  0.6011 -0.1485  0.0852
  181MOL0     C24320   1.159  11.404   6.297  0.8309  0.0531  0.3624
  181MOL0     C24321   1.283  11.497   6.337  0.5169 -0.1427  0.8665
  181MOL0     C24322   1.427  11.464   6.294 -0.8100 -0.0461 -0.1528
  181MOL0     C24323   1.475  11.321   6.345 -0.7635 -0.3710 -0.0633
  181MOL0     O24324   1.470  11.329   6.489 -0.1337 -0.0704  0.2750
  181MOL0     C24325   1.475  11.213   6.568 -0.8241 -1.0680 -0.1170
  181MOL0     C24326   1.442  11.216   6.706 -0.8621 -0.6282  0.1598
  181MOL0     C24327   1.461  11.106   6.784 -0.0963  0.5025  0.9644
  181MOL0     C24328   1.523  10.987   6.731 -0.0772  0.4806 -0.1844
  181MOL0     C24329   1.547  10.867   6.821 -1.0208  0.5076 -0.7031
  181MOL0     O24330   1.494  10.857   6.948 -0.2035  0.4564  0.1978
  181MOL0     C24331   1.473  10.735   6.998 -0.0332  0.3039 -0.3809
  181MOL0     C24332   1.543  10.693   7.111 -0.2144  0.8595  0.2846
  181MOL0     C24333   1.523  10.568   7.178  0.0574 -0.9729 -0.1589
  181MOL0     C24334   1.430  10.486   7.129  0.5542  0.8046 -0.3531
  181MOL0     O24335   1.402  10.372   7.209 -0.1584 -0.9776 -0.4061
  181MOL0     C24336   1.312  10.274   7.154  0.1609  0.5822 -0.0339
  181MOL0     C24337   1.281  10.165   7.257  0.0213  0.9610  0.3119
  181MOL0     C24338   1.398  10.073   7.292 -0.3252  0.7964 -0.5700
  181MOL0     C24339   1.349   9.936   7.357  0.2682 -0.0235  1.1413
  181MOL0     C24340   1.458   9.863   7.422 -0.3735 -0.2460 -0.3901
  181MOL0     C24341   1.576   9.829   7.323 -0.7470  0.1154  0.2954
  181MOL0     C24342   1.673   9.730   7.387 -0.0482 -0.9823  0.0915
  181MOL0     C24343   1.773   9.803   7.484  0.1137  0.4793  0.2380
  181MOL0    Cl24344   1.721   9.790   7.654  0.6757  0.4641  0.0114
  181MOL0     C24345   1.346  10.532   7.021  0.4914  0.9016  0.6400
  181MOL0     C24346   1.377  10.653   6.955  0.5182 -0.2697 -0.9046
  181MOL0     O24347   1.625  10.783   6.772  0.2237  0.2845  0.3573
  181MOL0     C24348   1.565  10.987   6.595 -0.3547  0.4463  0.3333
  181MOL0     C24349   1.537  11.098   6.517 -0.0507  0.5626 -0.5426
  181MOL0     N24350   1.002  11.553   6.450 -0.7225  0.8219  0.0491
  181MOL0     N24351   0.883  11.552   6.486  0.5823 -0.1252  0.0009
  181MOL0     C24352   0.177  11.282   5.687 -0.1280  0.1684 -1.0538
  181MOL0     C24353   0.191  11.202   5.577 -0.2418  0.2885 -0.4763
  181MOL0     C24354   0.184  10.911   5.244 -0.0634 -0.6066 -0.9358
  181MOL0     C24355   0.307  10.849   5.247 -0.2128  0.0766 -0.9423
  181MOL0     C24356   0.345  10.774   5.138  0.4797 -0.1278  0.4318
  181MOL0     C24357   0.266  10.752   5.019 -0.1652  0.7432 -0.0468
  181MOL0     O24358   0.311  10.676   4.907 -0.0281  0.0790 -0.5033
  181MOL0     C24359   0.371  10.552   4.927  0.0841 -0.0877  0.5411
  181MOL0     C24360   0.349  10.469   4.806 -0.2366 -0.2235  0.4883
  181MOL0     C24361   0.443  10.359   4.803  0.0350 -0.9098  0.4556
  181MOL0     C24362   0.456  10.271   4.671 -0.4419 -0.4784  0.1414
  181MOL0     C24363   0.563  10.173   4.694  0.2372 -0.5002 -0.2612
  181MOL0     C24364   0.645  10.094   4.738  1.3335 -0.1078  0.7760
  181MOL0     C24365   0.137  10.800   5.027  0.1064  0.5704 -0.5645
  181MOL0     C24366   0.093  10.890   5.130 -0.1801 -1.1469 -0.1779
  181MOL0     C24367  -0.046  10.945   5.127 -0.1999 -0.2264  0.3108
  181MOL0     H24368   0.179  10.897   5.726  1.6998 -1.2243 -2.9110
  181MOL0     H24369   0.164  11.014   5.915 -3.8879 -1.2006  0.2975
  181MOL0     H24370   0.263  11.441   5.894  2.7305  1.8211  1.9881
  181MOL0     H24371   0.171  11.441   6.051 -1.3988 -0.9842  0.5854
  181MOL0     H24372   0.402  11.378   6.094  3.4247 -2.3705 -0.3176
  181MOL0     H24373   0.403  11.241   5.987  0.8702  1.5136 -0.1743
  181MOL0     H24374   0.197  11.161   6.161  1.0529 -2.0611 -1.1150
  181MOL0     H24375   0.245  11.307   6.240  0.5766 -0.3109  1.3785
  181MOL0     H24376   0.387  11.035   6.207  2.3181 -0.8926  3.0643
  181MOL0     H24377   0.496  11.176   6.188  0.3058  3.1787  2.1347
  181MOL0     H24378   0.333  11.124   6.455  1.2960  0.0216  1.1301
  181MOL0     H24379   0.494  11.062   6.399 -0.0082 -0.1275  0.1713
  181MOL0     H24380   0.405  11.361   6.424 -2.1830 -2.2738  0.4946
  181MOL0     H24381   0.468  11.272   6.561 -1.2329  0.0969  0.1626
  181MOL0     H24382   0.631  11.248   6.306  0.9046  0.3657  0.8470
  181MOL0     H24383   0.684  11.216   6.465  0.0934 -0.5749 -1.8913
  181MOL0     H24384   0.633  11.478   6.340 -2.6848  0.4897  0.9110
  181MOL0     H24385   0.623  11.480   6.507 -1.5958 -1.3394  1.3774
  181MOL0     H24386   0.896  11.295   6.295 -2.3591  1.1972  0.0966
  181MOL0     H24387   1.178  11.304   6.338 -0.3208  0.5685  2.3243
  181MOL0     H24388   1.137  11.415   6.191  0.6758  1.2914  0.5026
  181MOL0     H24389   1.267  11.600   6.303 -2.2573 -1.1342 -1.0913
  181MOL0     H24390   1.280  11.504   6.446  2.3664  1.0173  0.8946
  181MOL0     H24391   1.501  11.540   6.319  1.8053 -2.1263 -1.0815
  181MOL0     H24392   1.422  11.456   6.185  2.5785 -4.1587 -0.2791
  181MOL0     H24393   1.575  11.293   6.312  0.0394 -0.3030  2.1248
  181MOL0     H24394   1.406  11.242   6.313 -0.2759 -0.8861  0.1380
  181MOL0     H24395   1.414  11.311   6.752 -3.2526 -0.2150 -1.9133
  181MOL0     H24396   1.436  11.110   6.890  0.0095  1.2133  0.9668
  181MOL0     H24397   1.594  10.773   7.164 -2.4187  1.8093  1.1138
  181MOL0     H24398   1.577  10.547   7.270 -3.4620 -2.0718  1.8231
  181MOL0     H24399   1.213  10.314   7.131  0.0512 -0.9871 -2.7264
  181MOL0     H24400   1.359  10.224   7.068  1.3759  2.7511 -0.7022
  181MOL0     H24401   1.246  10.205   7.352  1.2471  1.5735  0.5265
  181MOL0     H24402   1.207  10.093   7.222  1.6531 -1.3338  1.3178
  181MOL0     H24403   1.455  10.037   7.206 -0.2752  1.2811 -0.7457
  181MOL0     H24404   1.462  10.117   7.369  1.6673 -0.8305 -1.2134
  181MOL0     H24405   1.296   9.875   7.284  1.3006  2.0618 -1.5578
  181MOL0     H24406   1.279   9.968   7.434 -2.2417  5.3673 -2.7403
  181MOL0     H24407   1.411   9.773   7.465  0.8431 -0.7306 -0.0390
  181MOL0     H24408   1.497   9.929   7.500  1.1560 -0.4478 -0.9577
  181MOL0     H24409   1.523   9.768   7.249 -0.0901 -0.3103  0.1600
  181MOL0     H24410   1.618   9.918   7.277 -3.1038  0.6249 -0.9919
  181MOL0     H24411   1.716   9.676   7.302  1.6062  0.2228  0.1270
  181MOL0     H24412   1.613   9.657   7.442 -1.9302  0.2986 -0.1677
  181MOL0     H24413   1.869   9.750   7.483 -0.0246  0.1468  2.2044
  181MOL0     H24414   1.806   9.903   7.455 -0.4797  0.0778 -2.0284
  181MOL0     H24415   1.267  10.459   7.006  2.4100 -1.4551  1.4685
  181MOL0     H24416   1.302  10.688   6.884  0.7211  3.1670  0.3596
  181MOL0     H24417   1.607  10.907   6.535 -3.8050  0.2546 -2.1043
  181MOL0     H24418   1.574  11.085   6.416  2.0215  2.1535 -0.0576
  181MOL0     H24419   0.158  11.386   5.663  3.5101  1.4206  0.6292
  181MOL0     H24420   0.210  11.240   5.477  0.9691  0.8882 -0.0380
  181MOL0     H24421   0.374  10.844   5.332  2.6243 -1.0926 -3.1081
  181MOL0     H24422   0.442  10.725   5.135  1.2075  1.2915 -0.3931
  181MOL0     H24423   0.313  10.499   5.003  1.2994 -0.9405  0.8960
  181MOL0     H24424   0.475  10.563   4.958 -0.2334  0.9154  1.3130
  181MOL0     H24425   0.337  10.535   4.719 -2.3452 -0.0310  0.8572
  181MOL0     H24426   0.252  10.419   4.809  0.5567 -1.9091 -0.6053
  181MOL0     H24427   0.426  10.304   4.896  2.0965  1.0375  2.1012
  181MOL0     H24428   0.541  10.406   4.815 -1.8127  3.3329  0.4198
  181MOL0     H24429   0.366  10.211   4.654 -0.6593  0.0587 -0.6499
  181MOL0     H24430   0.483  10.328   4.582  2.4091 -2.1282 -0.1808
  181MOL0     H24431   0.714  10.023   4.779  1.6201  0.2404  0.9067
  181MOL0     H24432   0.073  10.762   4.949  1.5308 -4.0664  0.2263
  181MOL0     H24433  -0.101  10.898   5.045  3.5856 -1.0187 -1.9779
  181MOL0     H24434  -0.089  10.933   5.227 -0.6143 -2.0987 -0.0524
  181MOL0     H24435  -0.053  11.045   5.084 -0.7097 -0.6807 -0.6984
  182MOL0     O24436  10.099   4.258   8.532 -0.1365 -0.4876  0.2583
  182MOL0     C24437  10.123   4.147   8.577  0.1898 -0.5171 -0.1499
  182MOL0     O24438  10.139   4.117   8.709  0.3452 -0.2874  0.8570
  182MOL0     C24439  10.210   4.195   8.788 -0.1782 -0.4814 -0.1659
  182MOL0     C24440  10.260   4.124   8.902  0.5589 -0.7851  0.0012
  182MOL0     C24441  10.340   4.192   9.001  0.2872 -0.3698 -0.5145
  182MOL0     C24442  10.372   4.325   8.988 -0.1497 -0.7613 -0.4336
  182MOL0     O24443  10.445   4.394   9.084  0.1140 -0.0376  0.0839
  182MOL0     C24444  10.541   4.499   9.049 -0.3733  0.0054 -0.9703
  182MOL0     C24445  10.640   4.510   9.163  0.4484  1.1862 -0.8340
  182MOL0     C24446  10.552   4.576   9.270 -0.4589  0.5285  0.2776
  182MOL0     C24447  10.644   4.595   9.398  0.4066 -0.6434  1.0623
  182MOL0     C24448  10.568   4.680   9.504  0.4783 -0.4112  0.6825
  182MOL0     C24449  10.414   4.641   9.521 -0.0194 -0.1762  0.1310
  182MOL0     C24450  10.335   4.706   9.649 -0.4217 -0.4983 -0.0014
  182MOL0     C24451  10.207   4.630   9.680  0.4927 -0.1080  0.8960
  182MOL0     N24452  10.092   4.721   9.673  0.5105 -0.3770  0.2348
  182MOL0     C24453  10.072   4.794   9.556 -0.7464  1.1721 -0.1603
  182MOL0     C24454   9.966   4.875   9.576 -0.2297  0.3990  0.0822
  182MOL0     C24455   9.898   4.978   9.484  0.5454  1.2557 -0.3105
  182MOL0     C24456   9.744   4.956   9.477  0.2980  0.6794  0.3997
  182MOL0     C24457   9.687   4.820   9.431 -0.3997  0.7436  1.0001
  182MOL0     C24458   9.533   4.813   9.423  0.0759 -0.6180 -0.3367
  182MOL0     O24459   9.473   4.912   9.344  0.0609  0.3644 -0.0741
  182MOL0     C24460   9.340   4.896   9.295 -0.5780 -0.4804  1.1903
  182MOL0     C24461   9.287   4.978   9.192 -0.7502 -0.6476 -0.3216
  182MOL0     C24462   9.152   4.974   9.151 -0.2666  0.1860 -0.1582
  182MOL0     C24463   9.067   4.882   9.232  0.6851 -0.1468 -0.2345
  182MOL0     C24464   8.917   4.885   9.224  0.1787 -0.3479  0.9979
  182MOL0     O24465   8.857   4.780   9.289  0.4699  0.4859  0.3800
  182MOL0     C24466   8.730   4.726   9.260  0.4061 -0.1599  0.4567
  182MOL0     C24467   8.699   4.601   9.323 -0.0270 -0.1159 -0.4892
  182MOL0     C24468   8.579   4.533   9.296 -0.1238 -0.2134 -0.1858
  182MOL0     C24469   8.485   4.594   9.211  0.2303  0.6289  0.2502
  182MOL0     O24470   8.362   4.540   9.189 -0.2870  0.4453  0.0999
  182MOL0     C24471   8.323   4.511   9.053 -0.3841  0.6397  0.9129
  182MOL0     C24472   8.183   4.443   9.047  0.8584  0.0310  0.0270
  182MOL0     C24473   8.170   4.373   8.902 -0.3692  0.0678 -0.7644
  182MOL0     C24474   8.035   4.323   8.881 -0.0179 -0.1202 -0.7983
  182MOL0     C24475   8.025   4.278   8.737 -0.0317 -0.5714 -0.2997
  182MOL0     C24476   8.106   4.152   8.700  0.7024  0.3827 -0.3724
  182MOL0     C24477   8.066   4.079   8.568 -0.5087  0.1590  0.0443
  182MOL0     C24478   8.203   4.043   8.501  0.5251 -0.0278 -0.3756
  182MOL0    Cl24479   8.264   4.197   8.435 -0.7420  0.2703 -0.3288
  182MOL0     C24480   8.509   4.721   9.150 -0.5951 -0.7927  0.3975
  182MOL0     C24481   8.637   4.776   9.167  0.1741 -0.7399  0.0102
  182MOL0     O24482   8.860   4.975   9.163 -0.1376 -0.6275  0.4989
  182MOL0     C24483   9.127   4.801   9.327  0.1979 -0.6195  0.6640
  182MOL0     C24484   9.261   4.806   9.358  0.8568 -0.9289 -1.0640
  182MOL0     N24485   9.927   4.845   9.710  0.6833  0.3927 -0.7092
  182MOL0     N24486   9.997   4.754   9.760  0.3438  0.9201 -0.2850
  182MOL0     C24487  10.320   4.394   8.883 -0.6403  0.2897 -0.5255
  182MOL0     C24488  10.241   4.333   8.787 -0.3364 -0.8715 -0.2237
  182MOL0     C24489  10.115   4.039   8.481 -0.4450  1.1111 -0.4650
  182MOL0     C24490   9.991   4.026   8.418  0.6611  0.0033 -0.6175
  182MOL0     C24491   9.976   3.933   8.314 -0.1705  0.0093 -0.4423
  182MOL0     C24492  10.087   3.849   8.279 -0.4492 -0.0159 -0.1620
  182MOL0     O24493  10.066   3.764   8.173 -0.0993  0.3769 -0.3482
  182MOL0     C24494   9.975   3.660   8.221 -0.1572 -0.4593 -0.1337
  182MOL0     C24495   9.949   3.560   8.106 -0.5908  0.0296 -0.0365
  182MOL0     C24496   9.859   3.442   8.138  0.4828 -0.2782  0.6078
  182MOL0     C24497   9.845   3.353   8.005 -0.8069  0.5281  0.0859
  182MOL0     C24498   9.800   3.210   8.016 -0.6786  0.3197 -0.1731
  182MOL0     C24499   9.771   3.093   8.042  0.3847 -0.4803  0.8054
  182MOL0     C24500  10.210   3.861   8.351  0.2338 -0.3425 -0.3400
  182MOL0     C24501  10.225   3.952   8.455  1.3193  0.2611 -0.3658
  182MOL0     C24502  10.359   3.959   8.528  0.9148  0.6811 -0.6153
  182MOL0     H24503  10.239   4.018   8.894 -0.7207 -0.3988 -2.6634
  182MOL0     H24504  10.374   4.144   9.093 -2.2695  1.3139  1.4577
  182MOL0     H24505  10.589   4.488   8.952 -0.6165  1.6530 -1.3141
  182MOL0     H24506  10.496   4.597   9.027  0.7055  0.2052 -2.4711
  182MOL0     H24507  10.725   4.567   9.123  0.1720  1.2287 -1.3785
  182MOL0     H24508  10.670   4.413   9.202 -1.1008  1.5127  1.3812
  182MOL0     H24509  10.467   4.510   9.290 -2.6151  3.1870  0.3257
  182MOL0     H24510  10.513   4.672   9.237  2.1204  0.7363 -2.6755
  182MOL0     H24511  10.658   4.492   9.433 -0.5299 -1.0564  0.2593
  182MOL0     H24512  10.745   4.632   9.382 -0.4258  2.7936  2.7339
  182MOL0     H24513  10.623   4.665   9.598  1.2326  0.0913  0.3331
  182MOL0     H24514  10.570   4.788   9.486  2.3233 -0.3810  0.8644
  182MOL0     H24515  10.348   4.660   9.436 -1.0758  1.0234  1.1764
  182MOL0     H24516  10.399   4.533   9.527  1.7900 -0.6890 -2.8885
  182MOL0     H24517  10.312   4.812   9.636 -0.6967 -0.3105  1.7029
  182MOL0     H24518  10.388   4.701   9.745 -0.7209  2.5629  0.4316
  182MOL0     H24519  10.177   4.557   9.604 -2.1751  0.1842  1.5608
  182MOL0     H24520  10.219   4.573   9.773  1.0280 -2.2169 -0.4053
  182MOL0     H24521  10.125   4.784   9.462  0.1227  0.0761  0.4166
  182MOL0     H24522   9.917   5.082   9.512  1.6605  1.5584 -2.0310
  182MOL0     H24523   9.936   4.966   9.382 -0.4869  0.8146 -0.6533
  182MOL0     H24524   9.695   4.971   9.573 -2.1088 -0.2461 -0.6118
  182MOL0     H24525   9.709   5.031   9.405  0.3235  1.5099  1.2309
  182MOL0     H24526   9.726   4.750   9.506  1.9555  2.3232  1.3544
  182MOL0     H24527   9.728   4.793   9.333  0.0141 -0.6743  1.5419
  182MOL0     H24528   9.484   4.818   9.521  0.9456  0.4252  0.0666
  182MOL0     H24529   9.524   4.714   9.377 -0.2505 -0.5723 -0.3689
  182MOL0     H24530   9.350   5.049   9.140 -1.5880 -0.6837 -1.4183
  182MOL0     H24531   9.105   5.019   9.064  0.9115  0.9267 -0.4371
  182MOL0     H24532   8.760   4.559   9.403 -0.6510  0.9567  0.5878
  182MOL0     H24533   8.551   4.449   9.359  1.4047  0.3536  1.3313
  182MOL0     H24534   8.314   4.608   9.002  1.9903  1.4947  1.9541
  182MOL0     H24535   8.403   4.450   9.010 -1.1436 -0.9364  1.6799
  182MOL0     H24536   8.169   4.375   9.131 -3.1752  0.3016 -0.2587
  182MOL0     H24537   8.107   4.521   9.051 -1.3651 -1.9958 -0.4139
  182MOL0     H24538   8.197   4.449   8.829  0.5701  1.0709  0.5612
  182MOL0     H24539   8.238   4.288   8.915 -0.3771 -0.2877 -2.7873
  182MOL0     H24540   7.965   4.405   8.893  1.7740  1.1714  1.9095
  182MOL0     H24541   8.015   4.245   8.955 -1.0210 -0.8399 -1.7938
  182MOL0     H24542   8.072   4.346   8.665  2.2609 -3.0314 -1.2724
  182MOL0     H24543   7.920   4.261   8.715 -0.8790  3.1805  0.0853
  182MOL0     H24544   8.212   4.175   8.687  1.6601 -2.4944  1.3550
  182MOL0     H24545   8.097   4.077   8.780 -1.3611  0.1487 -0.7494
  182MOL0     H24546   8.016   4.140   8.492  3.6175  0.6071 -2.6433
  182MOL0     H24547   8.023   3.981   8.590  1.4285 -0.6740  0.2997
  182MOL0     H24548   8.285   4.016   8.569  2.1127  3.9702 -0.4087
  182MOL0     H24549   8.191   3.960   8.430  1.4767 -0.5088  0.0003
  182MOL0     H24550   8.438   4.772   9.086  1.5352 -0.0278 -1.5360
  182MOL0     H24551   8.651   4.865   9.106 -3.6349 -0.6102 -0.9258
  182MOL0     H24552   9.065   4.747   9.398  0.5899 -1.4948  0.3570
  182MOL0     H24553   9.298   4.749   9.442  1.2760  2.3017  1.1238
  182MOL0     H24554  10.337   4.501   8.877  0.4865  0.0615 -3.7399
  182MOL0     H24555  10.189   4.388   8.709  2.9564  0.6250 -1.5543
  182MOL0     H24556   9.910   4.086   8.459  0.5620 -1.0843  0.9068
  182MOL0     H24557   9.881   3.927   8.262 -0.3050  0.8768 -0.3116
  182MOL0     H24558   9.877   3.701   8.247 -0.2841 -1.7194  1.5453
  182MOL0     H24559  10.034   3.602   8.293  1.2104 -2.8927 -2.9797
  182MOL0     H24560  10.049   3.526   8.077 -0.0534  0.5736  1.1257
  182MOL0     H24561   9.897   3.618   8.030 -1.2689 -1.5906 -0.8579
  182MOL0     H24562   9.769   3.490   8.177  1.5223  1.9727  0.4233
  182MOL0     H24563   9.902   3.375   8.212  3.2548  1.2100  0.4958
  182MOL0     H24564   9.780   3.400   7.930  1.3951 -0.8952 -2.9345
  182MOL0     H24565   9.947   3.363   7.967  0.7976  0.5096  3.9246
  182MOL0     H24566   9.744   2.992   8.063 -0.5398 -1.1422 -2.8557
  182MOL0     H24567  10.300   3.813   8.313  0.1599 -0.3855 -0.4617
  182MOL0     H24568  10.447   3.955   8.464  0.0504  1.4945 -1.9051
  182MOL0     H24569  10.371   4.044   8.596  0.7360 -1.2648  2.0222
  182MOL0     H24570  10.360   3.875   8.598 -0.4619 -0.4403 -1.8691
  183MOL0     O24571   9.060   1.027   3.489 -0.7229  0.9895  0.6832
  183MOL0     C24572   9.084   1.063   3.599  1.3015 -0.1155  0.0641
  183MOL0     O24573   9.168   1.166   3.632  0.2557  0.4029  0.0080
  183MOL0     C24574   9.231   1.251   3.536  0.0527  0.1593 -0.0397
  183MOL0     C24575   9.262   1.221   3.404  0.1952  0.5617  0.0917
  183MOL0     C24576   9.323   1.315   3.318 -0.9471  0.2525 -0.8706
  183MOL0     C24577   9.374   1.434   3.378 -0.0032  0.1953 -0.3898
  183MOL0     O24578   9.451   1.530   3.310 -0.2320  0.4276  0.0980
  183MOL0     C24579   9.480   1.507   3.175 -0.5915  1.4019  0.3957
  183MOL0     C24580   9.569   1.610   3.123  0.8325  0.5910 -0.6092
  183MOL0     C24581   9.605   1.591   2.979 -0.6044  0.2461  0.0346
  183MOL0     C24582   9.721   1.482   2.981 -0.3713 -1.5333 -0.0067
  183MOL0     C24583   9.735   1.393   2.850  0.1072 -1.1082 -0.2883
  183MOL0     C24584   9.778   1.486   2.731 -0.5507  0.6138 -0.2560
  183MOL0     C24585   9.774   1.408   2.594 -0.1186 -0.0866 -0.0984
  183MOL0     C24586   9.904   1.343   2.567  0.2248  1.0162  0.6069
  183MOL0     N24587   9.899   1.206   2.626  0.5783  0.1771  0.1268
  183MOL0     C24588   9.806   1.104   2.588  0.5848  0.1296  0.4528
  183MOL0     C24589   9.821   1.001   2.668  0.4586  0.0031 -0.5137
  183MOL0     C24590   9.747   0.867   2.649 -0.3494  0.9152 -0.6408
  183MOL0     C24591   9.821   0.747   2.702 -0.4568 -1.0424  0.1830
  183MOL0     C24592   9.956   0.718   2.627  0.8017 -0.2153  0.1946
  183MOL0     C24593  10.007   0.589   2.689  0.1845  0.7739 -0.4346
  183MOL0     O24594  10.038   0.497   2.584 -0.5752 -0.5302  0.1566
  183MOL0     C24595   9.942   0.409   2.544  0.8729  0.4516 -0.3385
  183MOL0     C24596   9.811   0.386   2.596  0.1172  0.1107  0.0101
  183MOL0     C24597   9.733   0.283   2.549  0.1497 -1.0948 -0.2186
  183MOL0     C24598   9.778   0.207   2.444 -0.4761 -0.5640 -0.5872
  183MOL0     C24599   9.704   0.095   2.401 -0.0390 -0.0896 -0.0854
  183MOL0     O24600   9.710   0.077   2.269  0.2041  0.5776  0.3978
  183MOL0     C24601   9.628  -0.017   2.203  0.4478 -0.3236  0.5867
  183MOL0     C24602   9.509  -0.072   2.239  0.2528  0.5308 -0.8465
  183MOL0     C24603   9.441  -0.162   2.164 -0.2286  0.5906 -0.7620
  183MOL0     C24604   9.483  -0.199   2.037 -0.5310  0.2432  0.9327
  183MOL0     O24605   9.422  -0.295   1.954  0.6650 -0.3212 -0.3035
  183MOL0     C24606   9.319  -0.381   2.009  0.5109 -0.8041 -0.8064
  183MOL0     C24607   9.279  -0.487   1.920  0.5435  0.5286 -0.5003
  183MOL0     C24608   9.405  -0.568   1.882 -0.0999 -0.4989  0.0207
  183MOL0     C24609   9.363  -0.689   1.803  0.6310 -0.1221 -0.8595
  183MOL0     C24610   9.488  -0.790   1.797 -0.4902 -1.1399 -0.1621
  183MOL0     C24611   9.603  -0.726   1.731 -0.3409  0.5065 -0.2320
  183MOL0     C24612   9.571  -0.654   1.599 -0.1363 -0.2563 -0.2516
  183MOL0     C24613   9.700  -0.616   1.527  0.1026  0.4618  0.3320
  183MOL0    Cl24614   9.676  -0.559   1.359 -0.0715 -0.2237 -0.1022
  183MOL0     C24615   9.600  -0.137   1.991 -0.5135 -0.4076 -0.1007
  183MOL0     C24616   9.677  -0.051   2.072 -0.3673 -0.5633  0.2060
  183MOL0     O24617   9.639   0.030   2.483  0.1374 -0.7592  0.1342
  183MOL0     C24618   9.904   0.238   2.383 -0.3754 -0.0468 -0.9145
  183MOL0     C24619   9.989   0.335   2.434  0.1082  0.8404 -0.6643
  183MOL0     N24620   9.933   1.033   2.754 -0.0922 -0.2573 -0.6474
  183MOL0     N24621   9.963   1.159   2.735 -0.3590 -0.4301  0.4069
  183MOL0     C24622   9.343   1.464   3.515  0.8707 -0.4977 -0.5952
  183MOL0     C24623   9.269   1.371   3.597 -0.5714  0.3949 -0.1580
  183MOL0     C24624   9.006   1.000   3.711 -0.3840  0.2506 -1.0375
  183MOL0     C24625   8.905   0.908   3.669  0.6942  1.3596 -0.2420
  183MOL0     C24626   8.830   0.841   3.764  0.0237  0.9883 -1.6477
  183MOL0     C24627   8.845   0.872   3.898 -0.4103 -0.0341 -0.8786
  183MOL0     O24628   8.783   0.822   4.008  0.3826  0.3130  0.4235
  183MOL0     C24629   8.723   0.693   3.995 -0.4201  0.6548 -0.1691
  183MOL0     C24630   8.686   0.642   4.129 -0.3523  0.1944  0.2724
  183MOL0     C24631   8.575   0.724   4.188  0.5697 -1.0692  0.8381
  183MOL0     C24632   8.561   0.656   4.334 -0.4188  0.1316  0.1294
  183MOL0     C24633   8.445   0.567   4.345 -0.1853  0.3768  0.7379
  183MOL0     C24634   8.362   0.477   4.339 -0.3441 -0.3183 -0.5020
  183MOL0     C24635   8.935   0.965   3.943 -0.4307  0.3274  0.1472
  183MOL0     C24636   9.017   1.034   3.849  0.2599  0.0040 -0.8771
  183MOL0     C24637   9.122   1.130   3.911  0.6149 -0.0668 -0.3254
  183MOL0     H24638   9.223   1.132   3.355  0.3853  0.2421  0.5103
  183MOL0     H24639   9.317   1.306   3.210 -0.2713 -0.0706 -0.8881
  183MOL0     H24640   9.527   1.409   3.165 -2.2532  0.2860  2.5628
  183MOL0     H24641   9.387   1.511   3.117  0.4549  2.7017 -1.2782
  183MOL0     H24642   9.661   1.602   3.183 -0.5026 -0.6693  1.3807
  183MOL0     H24643   9.523   1.707   3.145  1.3801  0.8334 -0.4981
  183MOL0     H24644   9.637   1.685   2.934 -1.4998  0.8909  0.7205
  183MOL0     H24645   9.516   1.550   2.930 -3.2069  2.2796  2.7328
  183MOL0     H24646   9.813   1.540   2.990 -0.8366 -0.8362  0.2987
  183MOL0     H24647   9.718   1.421   3.071 -2.1615  0.5304  1.4343
  183MOL0     H24648   9.817   1.322   2.861  1.8243  0.7037 -0.6977
  183MOL0     H24649   9.638   1.347   2.831 -1.5038  1.5634  0.9170
  183MOL0     H24650   9.713   1.574   2.718 -1.6394 -0.6605 -5.8095
  183MOL0     H24651   9.877   1.526   2.755 -0.6905  1.3398 -0.8337
  183MOL0     H24652   9.759   1.483   2.515 -1.2412  1.0232  1.1056
  183MOL0     H24653   9.693   1.335   2.588 -0.6831  0.5703 -0.6969
  183MOL0     H24654   9.913   1.334   2.458 -1.2934  2.2499  0.3466
  183MOL0     H24655   9.997   1.390   2.602  0.8812  0.9258 -0.9326
  183MOL0     H24656   9.751   1.116   2.495  3.2860  0.1725 -1.2355
  183MOL0     H24657   9.654   0.859   2.705  1.2429 -2.7441  1.8473
  183MOL0     H24658   9.720   0.844   2.545  0.7898  2.4233 -1.3149
  183MOL0     H24659   9.845   0.742   2.809  3.1699 -1.2970 -0.5163
  183MOL0     H24660   9.759   0.659   2.682 -1.7552 -0.6212  2.1410
  183MOL0     H24661  10.032   0.797   2.631  0.1080  0.4998 -0.4275
  183MOL0     H24662   9.935   0.716   2.520 -0.4787 -3.1094  0.4017
  183MOL0     H24663   9.941   0.546   2.765  1.4910 -0.4521  0.0494
  183MOL0     H24664  10.100   0.604   2.745  0.2565 -1.6905  0.2156
  183MOL0     H24665   9.773   0.448   2.677  3.0014  1.4131  0.4880
  183MOL0     H24666   9.632   0.264   2.585 -1.2196  5.2672  0.6117
  183MOL0     H24667   9.460  -0.036   2.329 -1.2330 -0.6381 -1.1539
  183MOL0     H24668   9.345  -0.200   2.198  0.7114  0.0003  1.4319
  183MOL0     H24669   9.351  -0.424   2.105 -0.9904 -1.4537 -0.5599
  183MOL0     H24670   9.224  -0.330   2.032  0.4794 -0.5789 -1.4270
  183MOL0     H24671   9.204  -0.549   1.971  1.7139 -0.0261  0.6038
  183MOL0     H24672   9.232  -0.446   1.831  1.5610 -1.0617 -1.8488
  183MOL0     H24673   9.486  -0.509   1.838 -1.4525  0.5586 -1.1613
  183MOL0     H24674   9.449  -0.610   1.973  1.1918 -2.0773 -1.2670
  183MOL0     H24675   9.334  -0.671   1.699  1.9180  0.3731 -1.1547
  183MOL0     H24676   9.285  -0.738   1.862 -0.3041  1.8693 -0.3743
  183MOL0     H24677   9.459  -0.878   1.738  0.9935 -0.7599 -1.5080
  183MOL0     H24678   9.507  -0.825   1.899 -3.4893  0.3117  1.0300
  183MOL0     H24679   9.648  -0.668   1.813  2.5664 -1.5867 -0.2129
  183MOL0     H24680   9.682  -0.795   1.699 -0.9492  0.6323 -2.0743
  183MOL0     H24681   9.505  -0.568   1.615 -1.6033 -1.7584  2.8820
  183MOL0     H24682   9.514  -0.727   1.540 -0.7137 -2.8924  3.1816
  183MOL0     H24683   9.739  -0.528   1.579 -1.0314  0.7849  0.6874
  183MOL0     H24684   9.764  -0.704   1.534 -4.1637 -2.9158  1.7089
  183MOL0     H24685   9.638  -0.144   1.890 -0.0067  1.6393 -0.0877
  183MOL0     H24686   9.775  -0.017   2.040  0.5642 -2.5028  0.7784
  183MOL0     H24687   9.926   0.197   2.285 -2.7924  1.9816 -2.4308
  183MOL0     H24688  10.076   0.367   2.378 -0.7658  2.8929 -0.9510
  183MOL0     H24689   9.372   1.563   3.551  3.8279 -1.8632  1.1257
  183MOL0     H24690   9.258   1.383   3.704  5.4130 -5.5593  1.8316
  183MOL0     H24691   8.874   0.872   3.572 -2.3005  1.4426  0.5729
  183MOL0     H24692   8.765   0.760   3.732 -1.1387  1.0272  0.4631
  183MOL0     H24693   8.800   0.626   3.953 -1.4235 -1.7220  1.5178
  183MOL0     H24694   8.642   0.688   3.922  2.6540 -1.2577 -3.8376
  183MOL0     H24695   8.775   0.639   4.192  1.3871 -2.7377 -2.0234
  183MOL0     H24696   8.660   0.537   4.111  1.9500  0.1198 -3.9199
  183MOL0     H24697   8.478   0.718   4.139  0.3226  0.8975  1.0128
  183MOL0     H24698   8.600   0.831   4.182  1.1408 -1.2564 -0.4117
  183MOL0     H24699   8.648   0.598   4.366  1.1962  0.2548 -3.5625
  183MOL0     H24700   8.531   0.729   4.409  1.5137 -1.3315  2.4943
  183MOL0     H24701   8.292   0.396   4.333 -1.3690  0.6255 -1.9548
  183MOL0     H24702   8.958   0.967   4.049  1.0371 -0.2895 -0.1388
  183MOL0     H24703   9.210   1.107   3.849 -2.2089 -3.6650 -3.4720
  183MOL0     H24704   9.109   1.239   3.911  0.1123 -0.1266 -0.2611
  183MOL0     H24705   9.140   1.097   4.013 -1.5814 -3.3470 -0.8515
  184MOL0     O24706   2.940   4.039   3.278  1.6513  0.3533 -0.4129
  184MOL0     C24707   2.875   4.140   3.257 -0.7373 -0.4050 -0.4670
  184MOL0     O24708   2.805   4.219   3.352 -1.0006  0.9738  0.7886
  184MOL0     C24709   2.859   4.216   3.476 -0.4162 -0.4804 -0.3358
  184MOL0     C24710   2.928   4.326   3.530  0.5053 -0.2262  1.6360
  184MOL0     C24711   2.989   4.328   3.658 -0.4811  0.1899  0.3421
  184MOL0     C24712   2.976   4.219   3.732  1.1857 -0.0316 -0.3379
  184MOL0     O24713   3.039   4.208   3.850 -0.1031  0.7449  0.4052
  184MOL0     C24714   3.176   4.234   3.847 -0.4803 -0.4419 -1.1121
  184MOL0     C24715   3.254   4.167   3.967  0.0151  0.3981  1.4495
  184MOL0     C24716   3.208   4.190   4.113  0.2298 -0.3861 -0.0569
  184MOL0     C24717   3.084   4.102   4.143 -0.3897  0.1558 -0.1686
  184MOL0     C24718   2.996   4.148   4.257  1.1541  0.7199 -0.8666
  184MOL0     C24719   2.917   4.275   4.245  0.4334 -0.1734  0.6474
  184MOL0     C24720   2.813   4.269   4.137  0.2978  0.4070  1.2336
  184MOL0     C24721   2.804   4.387   4.052 -0.8347 -0.7297  0.2065
  184MOL0     N24722   2.674   4.378   3.976 -0.9121  0.4210  0.1106
  184MOL0     C24723   2.657   4.324   3.857  0.7180  0.8101  0.0259
  184MOL0     C24724   2.519   4.333   3.831 -0.3623 -0.5052 -0.0272
  184MOL0     C24725   2.456   4.268   3.711 -0.1203 -0.4561 -0.5167
  184MOL0     C24726   2.475   4.359   3.587  0.0877  0.4408  0.3602
  184MOL0     C24727   2.427   4.507   3.609  0.3483 -0.4241 -0.0938
  184MOL0     C24728   2.278   4.530   3.649 -0.4206 -0.6426  0.1781
  184MOL0     O24729   2.187   4.456   3.559 -0.0523 -0.7204  0.1552
  184MOL0     C24730   2.149   4.510   3.439 -0.6254 -0.1080 -0.0931
  184MOL0     C24731   2.190   4.648   3.399 -0.4158 -0.4092  0.4605
  184MOL0     C24732   2.148   4.705   3.279  0.1579 -0.6643 -0.4863
  184MOL0     C24733   2.065   4.632   3.190  0.3441  0.4439 -0.3648
  184MOL0     C24734   2.033   4.702   3.062 -0.9030  0.3205  0.1357
  184MOL0     O24735   1.943   4.633   2.977 -0.2823  0.2208 -0.1043
  184MOL0     C24736   1.901   4.702   2.861  0.0904  0.8809  0.1160
  184MOL0     C24737   1.906   4.641   2.738  0.5808  0.8209 -0.6767
  184MOL0     C24738   1.851   4.704   2.624  1.0496  0.9176  0.1937
  184MOL0     C24739   1.787   4.828   2.637  0.5310  0.3989 -0.0232
  184MOL0     O24740   1.731   4.902   2.534 -0.7646 -0.5313  0.3180
  184MOL0     C24741   1.730   4.847   2.399  0.1638 -1.4188  0.0214
  184MOL0     C24742   1.675   4.946   2.304 -1.2459  0.2671 -0.4421
  184MOL0     C24743   1.664   4.879   2.164  0.8199 -0.0671 -0.2041
  184MOL0     C24744   1.795   4.851   2.086  1.2510 -0.6531 -0.3259
  184MOL0     C24745   1.773   4.840   1.936  0.3714  0.1748  0.1071
  184MOL0     C24746   1.889   4.756   1.872  0.5537  0.1343 -0.7077
  184MOL0     C24747   1.855   4.603   1.880  0.1681  0.4721  0.8440
  184MOL0     C24748   1.979   4.525   1.846  0.0852 -0.9244  0.3593
  184MOL0    Cl24749   1.965   4.349   1.860 -0.1101 -0.2002  0.1694
  184MOL0     C24750   1.774   4.887   2.761  0.3317 -1.2560 -0.6327
  184MOL0     C24751   1.836   4.828   2.871  0.9852 -0.0444  0.2164
  184MOL0     O24752   2.085   4.818   3.027 -0.2981 -0.6062  0.0920
  184MOL0     C24753   2.017   4.502   3.224  0.5266  0.2037 -0.5066
  184MOL0     C24754   2.072   4.432   3.344 -0.2507 -0.8685  1.2393
  184MOL0     N24755   2.458   4.414   3.932  0.2102  0.4023  1.2350
  184MOL0     N24756   2.551   4.419   4.016 -0.3798 -0.4025  0.5139
  184MOL0     C24757   2.902   4.104   3.681 -0.2790 -0.3401  0.5957
  184MOL0     C24758   2.840   4.106   3.559 -0.7134  0.1005  1.3340
  184MOL0     C24759   2.853   4.173   3.117  0.1285 -0.7170 -0.2394
  184MOL0     C24760   2.882   4.066   3.021  0.4252 -0.2407  0.0673
  184MOL0     C24761   2.874   4.090   2.883  0.5518 -2.0990 -0.3253
  184MOL0     C24762   2.831   4.217   2.837  0.7023  0.2734 -1.2131
  184MOL0     O24763   2.828   4.239   2.703  0.1811 -0.4794  0.3279
  184MOL0     C24764   2.785   4.358   2.638 -0.5101  0.9274 -0.4329
  184MOL0     C24765   2.636   4.327   2.603  1.1625  1.1323 -0.2316
  184MOL0     C24766   2.634   4.223   2.484  0.7401  0.5142  0.2154
  184MOL0     C24767   2.570   4.284   2.360 -0.4346 -0.7076 -0.3933
  184MOL0     C24768   2.538   4.192   2.247  0.1928  0.8856  0.0313
  184MOL0     C24769   2.504   4.099   2.177 -0.9471  1.0905 -0.5962
  184MOL0     C24770   2.796   4.312   2.929  0.2067  0.8359 -0.9564
  184MOL0     C24771   2.813   4.299   3.068 -0.5074 -0.3124 -0.7396
  184MOL0     C24772   2.787   4.425   3.143  0.1887 -0.3955  0.0539
  184MOL0     H24773   2.931   4.413   3.465  1.3750  0.1551  2.1739
  184MOL0     H24774   3.035   4.411   3.711 -0.1643 -0.3718  0.9667
  184MOL0     H24775   3.225   4.204   3.754  3.2934 -1.2638  0.9560
  184MOL0     H24776   3.192   4.341   3.859  0.0628 -0.7333  1.3869
  184MOL0     H24777   3.363   4.174   3.959 -0.1429  1.8968  0.1609
  184MOL0     H24778   3.231   4.061   3.951  0.3809  0.1353  2.5814
  184MOL0     H24779   3.190   4.296   4.136 -2.8930 -0.3086 -2.1917
  184MOL0     H24780   3.290   4.161   4.180  0.3274  1.2586  0.6035
  184MOL0     H24781   3.032   4.094   4.047  3.8153 -3.1650 -2.4979
  184MOL0     H24782   3.124   4.009   4.183  0.1678  0.6057  0.3338
  184MOL0     H24783   2.943   4.062   4.300  2.1265  0.3054 -0.4564
  184MOL0     H24784   3.068   4.168   4.337  1.8589  2.2739 -1.8576
  184MOL0     H24785   2.855   4.284   4.335 -2.9731  0.9223 -1.6580
  184MOL0     H24786   2.969   4.371   4.231 -2.4328  1.3908 -0.0114
  184MOL0     H24787   2.711   4.259   4.177  0.0419 -0.5888  0.3670
  184MOL0     H24788   2.834   4.179   4.079  0.5547  1.0141  0.3665
  184MOL0     H24789   2.802   4.475   4.117 -0.4228  0.9711 -1.9597
  184MOL0     H24790   2.889   4.391   3.983 -0.1438 -0.8021  1.0271
  184MOL0     H24791   2.723   4.269   3.791  0.6030  0.1698  0.4351
  184MOL0     H24792   2.503   4.172   3.686 -1.1296 -1.1650  0.2151
  184MOL0     H24793   2.350   4.247   3.729 -0.2368  1.1363  0.8948
  184MOL0     H24794   2.580   4.368   3.557 -0.4676  0.2729 -1.8077
  184MOL0     H24795   2.407   4.320   3.511  1.1417  0.6207 -0.7081
  184MOL0     H24796   2.433   4.556   3.511  2.9136 -1.9361 -0.7956
  184MOL0     H24797   2.485   4.562   3.684 -0.3165 -1.1592  0.9812
  184MOL0     H24798   2.253   4.633   3.674 -2.2434 -1.1645  0.6179
  184MOL0     H24799   2.268   4.480   3.746 -0.0641 -0.1983  0.4469
  184MOL0     H24800   2.256   4.706   3.463  1.2974 -0.8870 -0.7909
  184MOL0     H24801   2.182   4.798   3.234 -2.4489 -0.6655 -2.7167
  184MOL0     H24802   1.935   4.539   2.714  1.2528  0.8707 -0.0871
  184MOL0     H24803   1.868   4.657   2.528  2.3878 -1.1555  1.3609
  184MOL0     H24804   1.834   4.831   2.371  0.4057  0.8699 -0.5904
  184MOL0     H24805   1.684   4.748   2.392 -0.0748 -1.2676 -0.6782
  184MOL0     H24806   1.577   4.984   2.334 -0.4437  0.9784  1.4672
  184MOL0     H24807   1.741   5.033   2.295  2.1689 -1.7580  2.2208
  184MOL0     H24808   1.614   4.782   2.172  0.9605 -0.0772  0.6856
  184MOL0     H24809   1.600   4.950   2.110 -1.6946  0.0931  2.6961
  184MOL0     H24810   1.849   4.766   2.129  0.0392 -0.2040  2.3349
  184MOL0     H24811   1.863   4.933   2.108 -2.4935  1.9621  3.1619
  184MOL0     H24812   1.782   4.941   1.894  1.5336  0.2210  0.4367
  184MOL0     H24813   1.680   4.788   1.910  0.3500 -0.3914  1.2423
  184MOL0     H24814   1.906   4.781   1.767  1.2708  1.4649 -0.2971
  184MOL0     H24815   1.983   4.782   1.921 -0.9578  3.9745  0.5042
  184MOL0     H24816   1.779   4.581   1.804  0.9637 -2.6617  0.8281
  184MOL0     H24817   1.816   4.565   1.975 -2.2259 -2.8946 -1.2605
  184MOL0     H24818   1.991   4.544   1.740  1.9701 -2.5786  0.2066
  184MOL0     H24819   2.064   4.564   1.903  1.5477 -1.9753 -1.0368
  184MOL0     H24820   1.727   4.983   2.777 -1.5866 -2.0917 -1.0660
  184MOL0     H24821   1.828   4.878   2.968  1.0183 -0.3598  0.3820
  184MOL0     H24822   1.961   4.452   3.145  1.6049  1.2973 -2.0216
  184MOL0     H24823   2.032   4.336   3.375  1.2302 -2.1636 -0.6300
  184MOL0     H24824   2.913   4.011   3.736  3.9560 -0.3066  0.0849
  184MOL0     H24825   2.796   4.021   3.508 -0.3581 -0.0520  1.2801
  184MOL0     H24826   2.934   3.978   3.057  0.9610  0.0211 -0.0637
  184MOL0     H24827   2.915   4.020   2.811 -0.3163 -2.9320 -0.0423
  184MOL0     H24828   2.843   4.355   2.545  1.3227 -0.7742  0.6877
  184MOL0     H24829   2.803   4.452   2.691  2.0577  0.3209 -0.0844
  184MOL0     H24830   2.588   4.421   2.574  3.1003  1.7988 -1.5153
  184MOL0     H24831   2.585   4.285   2.690 -0.3439  1.1942 -1.0403
  184MOL0     H24832   2.578   4.132   2.510 -1.9514  1.5860 -1.4025
  184MOL0     H24833   2.735   4.184   2.474  1.4990  0.2876  5.5546
  184MOL0     H24834   2.482   4.344   2.385  0.1365 -0.4042  0.9945
  184MOL0     H24835   2.639   4.363   2.329 -1.9393  0.9630  0.3732
  184MOL0     H24836   2.476   4.015   2.116  1.2208 -0.6832  0.6764
  184MOL0     H24837   2.768   4.408   2.888 -2.5492 -0.6659 -2.9402
  184MOL0     H24838   2.874   4.448   3.206 -0.3548  2.4215 -0.0787
  184MOL0     H24839   2.774   4.513   3.079 -3.1852 -0.2148  0.7790
  184MOL0     H24840   2.698   4.416   3.206  1.3656 -0.1284  1.8605
  185MOL0     O24841   2.482   3.453   9.507  0.0142 -0.4546 -0.7628
  185MOL0     C24842   2.535   3.431   9.614 -0.8299 -0.2483 -0.3694
  185MOL0     O24843   2.568   3.313   9.664 -0.1378  0.3267  0.2124
  185MOL0     C24844   2.590   3.199   9.594  0.2546  0.9268  0.5827
  185MOL0     C24845   2.595   3.194   9.453 -0.6207  0.3358 -0.6302
  185MOL0     C24846   2.606   3.083   9.373  0.2710  0.1195 -0.6627
  185MOL0     C24847   2.624   2.963   9.450  0.1520 -0.0175  1.2663
  185MOL0     O24848   2.641   2.839   9.395  0.9528 -0.0662  0.3938
  185MOL0     C24849   2.623   2.818   9.250  0.1894  1.0742  0.9141
  185MOL0     C24850   2.650   2.670   9.231 -0.0054 -0.5193  0.7276
  185MOL0     C24851   2.595   2.621   9.102  0.4379 -0.7826  0.0597
  185MOL0     C24852   2.703   2.637   8.989  0.0795 -0.6362  0.2155
  185MOL0     C24853   2.648   2.595   8.851 -0.4707 -0.0669 -0.0862
  185MOL0     C24854   2.572   2.468   8.837  0.9977  0.8938 -0.3265
  185MOL0     C24855   2.502   2.455   8.705  0.2509  0.7949  0.5715
  185MOL0     C24856   2.383   2.352   8.684  0.1772  0.1858  0.4375
  185MOL0     N24857   2.402   2.209   8.730  0.3314 -1.1887 -0.5233
  185MOL0     C24858   2.460   2.108   8.663 -0.0658  0.3357 -0.4712
  185MOL0     C24859   2.454   1.997   8.742 -0.7725 -0.5957  0.3317
  185MOL0     C24860   2.500   1.859   8.711  0.0243  0.3538  0.3872
  185MOL0     C24861   2.658   1.836   8.718 -0.4787 -0.3096 -1.1248
  185MOL0     C24862   2.678   1.695   8.681 -0.0383 -0.2754 -0.2237
  185MOL0     C24863   2.831   1.664   8.666  0.4692  0.5163  0.2783
  185MOL0     O24864   2.893   1.727   8.782  0.5613 -0.3204 -0.0996
  185MOL0     C24865   3.032   1.737   8.771  0.9880 -0.3093  1.2924
  185MOL0     C24866   3.119   1.805   8.863 -0.1874  0.0195 -0.3606
  185MOL0     C24867   3.254   1.827   8.851  0.0774 -0.2624 -0.4565
  185MOL0     C24868   3.330   1.775   8.744  0.7440 -0.9783  0.1859
  185MOL0     C24869   3.473   1.781   8.729  0.1518  0.2408  0.5347
  185MOL0     O24870   3.552   1.858   8.816  0.9012  0.3879  0.0321
  185MOL0     C24871   3.675   1.902   8.776 -0.3143 -0.4353  0.1943
  185MOL0     C24872   3.768   1.913   8.877 -0.0470 -0.9469 -0.2924
  185MOL0     C24873   3.894   1.978   8.857  0.2449 -0.2400  0.0209
  185MOL0     C24874   3.928   2.008   8.725  0.8818  0.5842 -0.4599
  185MOL0     O24875   4.046   2.064   8.694  0.6904 -0.4160 -0.8010
  185MOL0     C24876   4.026   2.199   8.647  0.4410  0.1164 -0.3208
  185MOL0     C24877   4.158   2.277   8.650  0.7525  1.4780  1.3887
  185MOL0     C24878   4.178   2.339   8.791  0.3168 -0.4889 -1.5571
  185MOL0     C24879   4.135   2.491   8.792  1.1030  0.1149 -0.6739
  185MOL0     C24880   4.155   2.562   8.929 -0.7596 -0.0370 -0.2747
  185MOL0     C24881   4.076   2.696   8.929 -0.5996 -0.3696 -0.6297
  185MOL0     C24882   4.128   2.786   9.044  0.6758 -1.0951 -0.8764
  185MOL0     C24883   4.042   2.911   9.063  0.6024  0.0233  0.5699
  185MOL0    Cl24884   4.097   3.021   8.924  0.2977 -0.4106 -0.8521
  185MOL0     C24885   3.841   1.972   8.614 -0.0710  0.4395 -0.6744
  185MOL0     C24886   3.714   1.935   8.645 -0.0520  0.7461  0.5965
  185MOL0     O24887   3.519   1.715   8.633 -0.3497  0.0887  0.3003
  185MOL0     C24888   3.247   1.715   8.645  0.3262  0.0135  0.5853
  185MOL0     C24889   3.108   1.696   8.654 -0.6296  0.1353 -1.2394
  185MOL0     N24890   2.402   2.034   8.862  0.0545 -0.0446  0.6767
  185MOL0     N24891   2.369   2.157   8.855  0.4531  0.6142 -1.1044
  185MOL0     C24892   2.631   2.957   9.589  0.7397  0.0147 -0.5944
  185MOL0     C24893   2.616   3.075   9.663  1.1169  1.2801  0.8791
  185MOL0     C24894   2.561   3.538   9.714  0.4071 -0.8919 -0.1398
  185MOL0     C24895   2.486   3.544   9.832 -0.5672 -0.8648 -0.5051
  185MOL0     C24896   2.478   3.659   9.909  0.1397  0.5476  0.2591
  185MOL0     C24897   2.557   3.771   9.887 -0.9192  0.5105  0.7472
  185MOL0     O24898   2.544   3.874   9.971  1.0659  0.7754  0.5923
  185MOL0     C24899   2.596   4.004   9.941 -0.4185 -0.3871  0.0246
  185MOL0     C24900   2.721   4.036  10.027  1.3218 -0.0734 -0.3636
  185MOL0     C24901   2.694   4.043  10.175  0.6268 -0.1553 -0.8683
  185MOL0     C24902   2.586   4.149  10.223 -0.6496 -0.2235  0.0814
  185MOL0     C24903   2.634   4.280  10.194  0.0300 -0.1876  0.4514
  185MOL0     C24904   2.677   4.389  10.167  0.4613  0.0903 -0.0894
  185MOL0     C24905   2.643   3.761   9.777  0.7324  0.2234  0.3104
  185MOL0     C24906   2.636   3.662   9.684 -0.5476  1.7575  0.2759
  185MOL0     C24907   2.719   3.680   9.553  0.6407 -0.4287 -0.2797
  185MOL0     H24908   2.570   3.284   9.398  0.8257 -0.5216 -2.8475
  185MOL0     H24909   2.597   3.080   9.265 -4.1002 -1.0592 -0.4733
  185MOL0     H24910   2.526   2.844   9.206  0.6570 -0.1801 -0.9736
  185MOL0     H24911   2.701   2.872   9.194  2.9147 -1.0211  2.4387
  185MOL0     H24912   2.620   2.603   9.312  0.2481 -1.5304  0.0044
  185MOL0     H24913   2.759   2.665   9.231  0.4998  4.9793  0.7163
  185MOL0     H24914   2.501   2.671   9.078  0.5535  0.8811  2.7166
  185MOL0     H24915   2.565   2.517   9.119 -0.6324 -0.5034 -0.0709
  185MOL0     H24916   2.749   2.736   8.979  0.5251 -1.0004 -1.8420
  185MOL0     H24917   2.785   2.569   9.012 -0.7676 -1.6820  0.2245
  185MOL0     H24918   2.586   2.676   8.812 -4.2356 -2.6474  0.0024
  185MOL0     H24919   2.744   2.584   8.799  0.7340  0.7621  1.8500
  185MOL0     H24920   2.617   2.372   8.864  2.7511  2.0300  1.0748
  185MOL0     H24921   2.491   2.465   8.910  0.4607  1.1762 -0.9016
  185MOL0     H24922   2.576   2.434   8.628  1.2008  1.9829  1.1100
  185MOL0     H24923   2.451   2.550   8.686  0.0958  0.0244 -3.7992
  185MOL0     H24924   2.299   2.401   8.735  1.9028  2.8588  0.9316
  185MOL0     H24925   2.346   2.352   8.581 -1.2377  0.9581  0.9123
  185MOL0     H24926   2.499   2.096   8.562  0.3144 -1.4663 -0.1400
  185MOL0     H24927   2.450   1.790   8.780  3.1306 -2.5068  0.0450
  185MOL0     H24928   2.459   1.845   8.611  0.9918 -0.2875  0.0768
  185MOL0     H24929   2.698   1.914   8.652  0.0795  0.5877  0.2463
  185MOL0     H24930   2.680   1.855   8.823  2.2782  0.6205 -1.7843
  185MOL0     H24931   2.638   1.669   8.582 -0.0449  1.2783 -0.6552
  185MOL0     H24932   2.647   1.616   8.751  2.7687 -0.9030  0.4382
  185MOL0     H24933   2.863   1.717   8.575 -0.5668 -0.0564 -0.4385
  185MOL0     H24934   2.854   1.557   8.669  0.2941  0.5017  3.1064
  185MOL0     H24935   3.078   1.856   8.950 -0.7329  1.9336 -1.6922
  185MOL0     H24936   3.307   1.892   8.919  0.5550 -1.0356 -0.0691
  185MOL0     H24937   3.740   1.873   8.974 -2.0210  0.4366 -0.2113
  185MOL0     H24938   3.966   1.994   8.937 -0.2574  1.2575  0.1882
  185MOL0     H24939   3.994   2.190   8.543 -3.2364 -0.6259  0.7124
  185MOL0     H24940   3.951   2.255   8.704  2.3248  1.0988  1.3140
  185MOL0     H24941   4.242   2.213   8.622 -1.3204 -0.3384 -1.2207
  185MOL0     H24942   4.153   2.347   8.566 -0.4646  0.2790  0.4269
  185MOL0     H24943   4.133   2.283   8.874  3.6497 -1.1541 -0.0262
  185MOL0     H24944   4.283   2.334   8.822 -0.3812 -1.7199  0.9297
  185MOL0     H24945   4.033   2.497   8.753  0.8443  1.0407  0.1327
  185MOL0     H24946   4.207   2.540   8.725  1.1093  0.3451 -0.4990
  185MOL0     H24947   4.261   2.585   8.940 -0.7180 -0.4590  0.2065
  185MOL0     H24948   4.126   2.500   9.014  3.5293 -1.3590  0.4098
  185MOL0     H24949   4.098   2.746   8.834  1.8010  0.1794  0.1289
  185MOL0     H24950   3.967   2.693   8.922 -0.5136 -0.3327 -2.5568
  185MOL0     H24951   4.230   2.814   9.017 -0.5792  1.6287 -3.5066
  185MOL0     H24952   4.115   2.741   9.143 -2.1201 -0.7759 -0.9999
  185MOL0     H24953   3.933   2.905   9.059  0.6925 -2.6613  0.3735
  185MOL0     H24954   4.070   2.956   9.159  3.0819  3.1468 -1.4030
  185MOL0     H24955   3.884   1.983   8.515  5.1142  0.4282  1.2384
  185MOL0     H24956   3.659   1.914   8.553  1.7996  0.8897 -0.6073
  185MOL0     H24957   3.295   1.682   8.553  1.4179 -0.8204  1.4247
  185MOL0     H24958   3.070   1.636   8.572  0.6644 -4.0183  0.8867
  185MOL0     H24959   2.658   2.869   9.647  0.5303  2.1163  2.9640
  185MOL0     H24960   2.629   3.070   9.771 -0.3953  2.3642  1.1475
  185MOL0     H24961   2.433   3.462   9.879  0.4532  0.8853  4.2769
  185MOL0     H24962   2.413   3.660   9.996  1.8225  2.1403  1.5717
  185MOL0     H24963   2.514   4.075   9.955 -0.0998  0.8601 -3.4482
  185MOL0     H24964   2.618   4.013   9.834  0.2225  0.4097  0.2083
  185MOL0     H24965   2.757   4.136  10.001 -0.4459  0.9288  0.8945
  185MOL0     H24966   2.796   3.960  10.002 -0.9954 -2.2066 -1.2903
  185MOL0     H24967   2.787   4.071  10.225  0.6349 -3.3712  1.2353
  185MOL0     H24968   2.685   3.940  10.212 -1.1794  0.6938  1.2846
  185MOL0     H24969   2.484   4.127  10.191 -1.3639 -0.3416  2.2777
  185MOL0     H24970   2.574   4.141  10.332  2.2931 -2.7218  0.3776
  185MOL0     H24971   2.689   4.493  10.145 -0.0675  0.4052  1.0578
  185MOL0     H24972   2.711   3.837   9.742  2.2260 -0.2415  2.0957
  185MOL0     H24973   2.675   3.760   9.492  2.0512  0.8785  0.3430
  185MOL0     H24974   2.826   3.697   9.573  0.6606  0.8647 -1.3089
  185MOL0     H24975   2.714   3.591   9.490  4.0686  0.8663 -2.7370
  186MOL0     O24976   0.471  11.463   9.768  0.2682  0.8633 -0.0276
  186MOL0     C24977   0.528  11.509   9.871  0.6251  0.2625  0.3019
  186MOL0     O24978   0.644  11.469   9.927 -0.0379  0.5306  0.3430
  186MOL0     C24979   0.712  11.376   9.850 -0.5541 -0.1238  1.5490
  186MOL0     C24980   0.687  11.235   9.848 -0.1908  0.5995  0.0399
  186MOL0     C24981   0.770  11.157   9.771  0.1307  0.2022  0.6746
  186MOL0     C24982   0.877  11.202   9.692  0.1978 -0.2236  0.3428
  186MOL0     O24983   0.945  11.106   9.617 -0.1433 -1.0066  0.0262
  186MOL0     C24984   1.055  11.156   9.535  0.2339  0.1261 -0.4632
  186MOL0     C24985   1.179  11.188   9.624  0.5128  0.3815 -0.1067
  186MOL0     C24986   1.260  11.051   9.649 -0.0811  0.0849  0.0463
  186MOL0     C24987   1.376  11.082   9.744 -0.8912 -0.4218  0.7070
  186MOL0     C24988   1.455  10.953   9.774 -1.0297  0.4536  1.0328
  186MOL0     C24989   1.548  10.921   9.660  0.9256 -0.1251 -0.2763
  186MOL0     C24990   1.613  10.792   9.685  0.3593  0.2571 -0.1265
  186MOL0     C24991   1.712  10.781   9.801  0.4478  0.0802  0.0654
  186MOL0     N24992   1.783  10.657   9.781  0.1892  0.9118 -0.2733
  186MOL0     C24993   1.901  10.647   9.705  0.1997  0.0564 -0.7548
  186MOL0     C24994   1.945  10.524   9.716 -0.3902 -0.5559  1.3212
  186MOL0     C24995   2.077  10.462   9.656  0.1480 -0.8784 -0.6497
  186MOL0     C24996   2.054  10.432   9.517  0.3085 -0.0234 -0.2106
  186MOL0     C24997   1.973  10.301   9.510 -0.9903 -0.0196  0.1195
  186MOL0     C24998   1.954  10.252   9.370  0.3721 -0.1704  0.8327
  186MOL0     O24999   1.887  10.125   9.374  0.0507  0.3435  0.0909
  186MOL0     C25000   1.850  10.062   9.263 -0.3871  0.7731  0.6867
  186MOL0     C25001   1.844  10.121   9.139  1.0516 -0.3750  0.6696
  186MOL0     C25002   1.782  10.059   9.029  0.0535  0.5578  0.6259
  186MOL0     C25003   1.721   9.932   9.045 -0.6607  1.4073  0.9293
  186MOL0     C25004   1.643   9.876   8.932 -0.2615  0.1775  0.4097
  186MOL0     O25005   1.639   9.952   8.822 -0.3187  0.6211  0.0237
  186MOL0     C25006   1.582   9.909   8.705 -0.1511 -0.7516  0.1805
  186MOL0     C25007   1.669   9.897   8.593  0.2180 -0.2306 -0.1100
  186MOL0     C25008   1.620   9.857   8.471 -0.1476 -1.0670  0.5277
  186MOL0     C25009   1.488   9.838   8.454  0.0549 -0.5332  0.7052
  186MOL0     O25010   1.434   9.807   8.327 -0.4298  0.9087 -0.1450
  186MOL0     C25011   1.480   9.703   8.239  0.3644 -0.4570 -1.1846
  186MOL0     C25012   1.393   9.706   8.114  0.8547 -0.1871 -0.6187
  186MOL0     C25013   1.431   9.829   8.034  1.2371  0.3437 -0.1410
  186MOL0     C25014   1.344   9.850   7.910  0.7027  1.5646  0.0187
  186MOL0     C25015   1.323  10.002   7.879  0.1794  0.0920 -0.1554
  186MOL0     C25016   1.436  10.078   7.806 -0.5420 -0.3766  0.2334
  186MOL0     C25017   1.452  10.224   7.841  0.0110  0.9854 -0.0486
  186MOL0     C25018   1.565  10.306   7.764  0.4493 -0.1545 -0.2914
  186MOL0    Cl25019   1.516  10.321   7.594 -0.0275 -0.1952 -0.2496
  186MOL0     C25020   1.400   9.853   8.559 -0.4260 -0.4350 -0.9632
  186MOL0     C25021   1.444   9.882   8.689  0.0675  0.4092 -0.3475
  186MOL0     O25022   1.586   9.770   8.945  0.0009 -0.1374 -1.1470
  186MOL0     C25023   1.741   9.860   9.168 -0.3763 -0.0943 -0.8478
  186MOL0     C25024   1.800   9.932   9.275 -0.4401  0.5871 -0.2079
  186MOL0     N25025   1.862  10.450   9.795  0.3818  0.5262 -0.8536
  186MOL0     N25026   1.761  10.530   9.829  0.0625  0.3630 -1.0344
  186MOL0     C25027   0.898  11.336   9.691 -0.0120  0.6969  0.6836
  186MOL0     C25028   0.823  11.418   9.779  0.0361 -0.3352 -0.1104
  186MOL0     C25029   0.461  11.623   9.953 -0.5811  0.6101  1.3564
  186MOL0     C25030   0.511  11.669  10.076  0.3203  0.8452  0.5813
  186MOL0     C25031   0.458  11.768  10.155 -0.5794  0.3385 -0.2040
  186MOL0     C25032   0.345  11.845  10.110 -1.4973  0.1896  0.5418
  186MOL0     O25033   0.282  11.922  10.197  0.2466 -0.2966 -0.3989
  186MOL0     C25034   0.280  12.061  10.166  0.1673  0.0945  0.2306
  186MOL0     C25035   0.154  12.127  10.207  0.1945 -0.6109 -0.2428
  186MOL0     C25036   0.128  12.250  10.115 -0.3477  0.8582 -0.3156
  186MOL0     C25037  -0.010  12.319  10.139  0.3097 -0.5235  0.6252
  186MOL0     C25038  -0.018  12.378  10.276 -0.0228  0.5568 -0.0667
  186MOL0     C25039  -0.021  12.432  10.381  0.1910 -0.1364 -0.1678
  186MOL0     C25040   0.295  11.808   9.986 -0.8788 -0.4471  0.4201
  186MOL0     C25041   0.348  11.699   9.910  0.6730 -0.9670  0.2733
  186MOL0     C25042   0.259  11.668   9.793  0.4982  0.0880 -0.1922
  186MOL0     H25043   0.624  11.202   9.931  0.1504  2.5757  1.1426
  186MOL0     H25044   0.773  11.049   9.782 -2.2756 -0.0253 -0.3408
  186MOL0     H25045   1.085  11.076   9.466  0.4498 -0.2601  0.0700
  186MOL0     H25046   1.031  11.241   9.470 -0.7815  0.3781  0.2113
  186MOL0     H25047   1.136  11.236   9.713  0.0443 -0.2909  0.0359
  186MOL0     H25048   1.246  11.262   9.580  1.7251 -0.1115  0.8646
  186MOL0     H25049   1.296  11.016   9.552 -0.7189 -2.8781  0.7684
  186MOL0     H25050   1.187  10.985   9.696 -1.7817  2.7623  1.4113
  186MOL0     H25051   1.441  11.162   9.707 -1.0718  2.4529  5.6334
  186MOL0     H25052   1.315  11.120   9.827 -1.3759  0.2352  0.0565
  186MOL0     H25053   1.519  10.971   9.861  2.5863  0.9064 -1.4637
  186MOL0     H25054   1.393  10.868   9.804 -1.0674  0.9990  2.6105
  186MOL0     H25055   1.488  10.923   9.569 -6.2239 -0.9631  3.6212
  186MOL0     H25056   1.620  11.003   9.653  1.2785 -0.4597 -0.5484
  186MOL0     H25057   1.671  10.789   9.592 -1.2361 -0.2421 -1.1533
  186MOL0     H25058   1.549  10.703   9.686 -0.1314  0.5408 -2.1732
  186MOL0     H25059   1.774  10.870   9.800 -1.4903  1.5203  0.9653
  186MOL0     H25060   1.661  10.792   9.897  4.1088  4.1600  1.8702
  186MOL0     H25061   1.944  10.728   9.647  5.1218 -2.4805 -1.1837
  186MOL0     H25062   2.149  10.544   9.669 -1.1106  0.0166  1.2207
  186MOL0     H25063   2.113  10.375   9.711 -3.1294 -0.5834  2.3146
  186MOL0     H25064   2.007  10.521   9.476  1.2532  0.4654 -0.2684
  186MOL0     H25065   2.150  10.427   9.465  1.8126  0.1317  2.3279
  186MOL0     H25066   1.877  10.303   9.563  0.2360 -3.4887  2.8591
  186MOL0     H25067   2.028  10.224   9.564 -2.1815 -0.4856  0.6940
  186MOL0     H25068   2.046  10.251   9.311 -0.0239 -3.4186  0.0754
  186MOL0     H25069   1.884  10.326   9.328 -0.4366 -0.3561  1.8124
  186MOL0     H25070   1.891  10.217   9.117  0.4189 -0.2704 -0.2803
  186MOL0     H25071   1.767  10.126   8.945  1.1843  2.4090  1.8412
  186MOL0     H25072   1.774   9.923   8.595  0.4304 -0.7896 -2.1748
  186MOL0     H25073   1.680   9.848   8.381  0.6152 -0.1741  0.9235
  186MOL0     H25074   1.587   9.714   8.217  1.0210  0.3898  1.8989
  186MOL0     H25075   1.465   9.614   8.300  2.8801  1.0163  1.8971
  186MOL0     H25076   1.414   9.623   8.047 -2.1158 -0.0083 -1.9449
  186MOL0     H25077   1.285   9.698   8.128  0.3542 -0.5358 -3.9535
  186MOL0     H25078   1.419   9.920   8.093 -0.9283 -0.0862  0.1812
  186MOL0     H25079   1.529   9.814   7.987  1.2085  0.0201 -0.1030
  186MOL0     H25080   1.247   9.809   7.938  0.9515 -0.0548 -1.3107
  186MOL0     H25081   1.390   9.792   7.829 -2.4630 -2.6548  0.8863
  186MOL0     H25082   1.300  10.056   7.971  0.1489  0.8529 -0.5995
  186MOL0     H25083   1.242  10.020   7.808 -0.0725  0.5497  0.2398
  186MOL0     H25084   1.533  10.033   7.832  0.2773 -0.4081 -2.6276
  186MOL0     H25085   1.430  10.059   7.699  3.0566 -4.6131  0.4561
  186MOL0     H25086   1.463  10.241   7.949 -1.9248  1.8605  0.0603
  186MOL0     H25087   1.358  10.267   7.805 -1.2105 -0.1252  1.6869
  186MOL0     H25088   1.573  10.405   7.808 -0.7628 -0.8223  1.5518
  186MOL0     H25089   1.655  10.247   7.783  1.4507  1.1697 -0.8245
  186MOL0     H25090   1.302   9.817   8.529 -0.0970 -4.2173  1.7843
  186MOL0     H25091   1.386   9.897   8.780  2.7881  0.1804  1.5460
  186MOL0     H25092   1.685   9.768   9.184 -1.4351  0.4508 -1.2937
  186MOL0     H25093   1.812   9.893   9.376  3.6666 -0.6466 -0.9906
  186MOL0     H25094   0.987  11.368   9.638  0.1506 -0.9763 -0.1202
  186MOL0     H25095   0.855  11.521   9.775  1.1058 -0.6818 -1.4350
  186MOL0     H25096   0.601  11.620  10.112 -0.9423 -2.9373 -0.9679
  186MOL0     H25097   0.503  11.781  10.253  0.3526 -1.9038 -0.2760
  186MOL0     H25098   0.297  12.069  10.058 -0.2165 -1.5890  0.0247
  186MOL0     H25099   0.367  12.112  10.210  0.6631 -0.8739  0.4001
  186MOL0     H25100   0.167  12.155  10.312 -1.9592 -2.5951  0.6235
  186MOL0     H25101   0.075  12.051  10.200  0.3845 -1.5799  4.4914
  186MOL0     H25102   0.133  12.222  10.010  0.2033  1.6800 -0.5198
  186MOL0     H25103   0.205  12.328  10.127  0.5490 -0.3143  2.4489
  186MOL0     H25104  -0.025  12.387  10.054 -1.2437 -1.0458  0.4507
  186MOL0     H25105  -0.094  12.254  10.113 -0.3596  1.3582 -2.6047
  186MOL0     H25106  -0.006  12.479  10.476 -1.2718 -0.6231  0.3241
  186MOL0     H25107   0.215  11.868   9.944 -0.3544 -0.3135 -0.4036
  186MOL0     H25108   0.159  11.710   9.805  0.1497 -0.9842  0.9506
  186MOL0     H25109   0.300  11.718   9.706 -4.0745  1.7180 -1.7178
  186MOL0     H25110   0.247  11.560   9.783  0.0302  0.1955 -0.8078
  187MOL0     O25111   0.265   8.142   5.925  0.4995  0.3106 -0.6371
  187MOL0     C25112   0.321   8.212   5.842  0.2765  1.4388  0.4034
  187MOL0     O25113   0.445   8.211   5.809  0.1101 -0.9432  0.4354
  187MOL0     C25114   0.523   8.099   5.833  0.5583  0.3012  0.8418
  187MOL0     C25115   0.553   8.005   5.743  0.5503 -0.2549  0.3371
  187MOL0     C25116   0.611   7.887   5.779 -0.0233 -0.1990  0.4668
  187MOL0     C25117   0.627   7.866   5.918 -0.3424 -0.2477 -0.2616
  187MOL0     O25118   0.658   7.739   5.959  0.3971 -0.5735  1.2597
  187MOL0     C25119   0.588   7.676   6.061 -0.5349 -0.0610  0.1975
  187MOL0     C25120   0.552   7.535   6.028 -0.5210 -0.4460 -1.0870
  187MOL0     C25121   0.493   7.448   6.145 -0.0786 -0.1740 -0.7765
  187MOL0     C25122   0.357   7.496   6.194 -0.2356 -0.4878  0.9896
  187MOL0     C25123   0.305   7.428   6.317 -0.4555  0.4054 -0.5834
  187MOL0     C25124   0.187   7.495   6.379 -0.2765  0.3493 -0.0878
  187MOL0     C25125   0.142   7.453   6.523  0.3767  1.1935 -0.4973
  187MOL0     C25126   0.040   7.550   6.584  0.6414 -0.6628  0.2234
  187MOL0     N25127   0.111   7.648   6.662  0.8419 -0.0477 -0.8747
  187MOL0     C25128   0.187   7.759   6.617 -0.4490 -0.6421  0.7979
  187MOL0     C25129   0.231   7.823   6.730  0.2958  0.4486 -0.6419
  187MOL0     C25130   0.332   7.942   6.737 -0.1155  0.1121 -0.2374
  187MOL0     C25131   0.469   7.884   6.758 -0.3483 -0.1737 -0.9574
  187MOL0     C25132   0.565   7.991   6.826 -0.8956  0.7036  0.7799
  187MOL0     C25133   0.684   7.911   6.879 -0.4505  0.8694 -0.0599
  187MOL0     O25134   0.754   7.855   6.773  0.5248  1.0604 -0.7018
  187MOL0     C25135   0.813   7.731   6.784 -0.1208  0.2013 -0.1618
  187MOL0     C25136   0.828   7.651   6.898 -0.4068 -0.2627  0.8892
  187MOL0     C25137   0.917   7.542   6.897 -0.1760 -0.4622  0.4095
  187MOL0     C25138   0.980   7.506   6.769 -0.3231  0.4013 -0.4078
  187MOL0     C25139   1.086   7.402   6.762  0.1397 -0.2529  0.2894
  187MOL0     O25140   1.143   7.371   6.881  0.5469  0.6185  1.1313
  187MOL0     C25141   1.237   7.264   6.887  0.5000 -0.1626  0.9478
  187MOL0     C25142   1.322   7.274   6.993 -1.1131  0.1514  0.0912
  187MOL0     C25143   1.428   7.189   7.010  0.4507  0.6625  0.0734
  187MOL0     C25144   1.457   7.096   6.910 -0.0575  0.2950  0.1464
  187MOL0     O25145   1.566   7.012   6.907  0.5740 -0.4777  0.4945
  187MOL0     C25146   1.643   6.983   7.022  0.8767 -0.1674  0.5686
  187MOL0     C25147   1.578   6.874   7.105 -0.1171  0.1560  0.2076
  187MOL0     C25148   1.669   6.840   7.218  0.7814 -0.4352 -0.1670
  187MOL0     C25149   1.623   6.718   7.305  0.0243 -0.3150 -0.5334
  187MOL0     C25150   1.621   6.593   7.213  0.2002 -0.4133 -0.2259
  187MOL0     C25151   1.646   6.482   7.312  0.3981  0.5795 -0.6468
  187MOL0     C25152   1.612   6.351   7.236 -0.2872  0.2862  0.1473
  187MOL0     C25153   1.647   6.216   7.308  0.0521 -0.5466 -0.8453
  187MOL0    Cl25154   1.545   6.229   7.448 -0.2077 -0.2609  0.2954
  187MOL0     C25155   1.368   7.073   6.807  0.4435 -0.0965  0.3759
  187MOL0     C25156   1.253   7.156   6.798  0.2985 -0.2946  0.4916
  187MOL0     O25157   1.119   7.355   6.651  0.1238  0.4624  0.0124
  187MOL0     C25158   0.945   7.575   6.651 -0.3839 -0.1006 -0.5779
  187MOL0     C25159   0.867   7.693   6.669  0.2486  0.5463  0.6403
  187MOL0     N25160   0.161   7.765   6.835  0.9538  0.1708 -0.1076
  187MOL0     N25161   0.104   7.655   6.801  1.0371  0.5616  0.7883
  187MOL0     C25162   0.616   7.969   6.010 -0.2095  1.3002 -0.0284
  187MOL0     C25163   0.562   8.079   5.968  0.1121  0.4630  0.0759
  187MOL0     C25164   0.237   8.327   5.786 -0.5050 -0.7300  0.6032
  187MOL0     C25165   0.306   8.445   5.746  0.1620 -0.1753  0.4073
  187MOL0     C25166   0.218   8.559   5.718 -1.0401  0.2413  0.6596
  187MOL0     C25167   0.080   8.557   5.702  0.1313 -0.3036  0.0840
  187MOL0     O25168   0.012   8.675   5.660  0.0550  0.5079  0.4500
  187MOL0     C25169  -0.093   8.718   5.750 -0.6329  0.7193 -0.0002
  187MOL0     C25170  -0.126   8.856   5.697  0.0392 -0.2604  0.0899
  187MOL0     C25171  -0.243   8.910   5.768 -0.1073  0.8008 -0.2353
  187MOL0     C25172  -0.259   9.062   5.741  0.5378 -0.4865  0.1017
  187MOL0     C25173  -0.372   9.115   5.824  0.1915  0.4797 -0.7439
  187MOL0     C25174  -0.461   9.171   5.876  0.1499 -0.7901  0.0909
  187MOL0     C25175   0.020   8.436   5.735  0.0743 -0.3706  0.0272
  187MOL0     C25176   0.093   8.319   5.769  0.1221  0.0701  0.8547
  187MOL0     C25177   0.007   8.191   5.781  0.5525  0.4532 -0.9619
  187MOL0     H25178   0.532   8.015   5.638 -2.4995  4.4754  1.1262
  187MOL0     H25179   0.645   7.818   5.702  2.8435  2.2400 -0.6632
  187MOL0     H25180   0.651   7.669   6.150  1.4234 -2.8278 -1.2477
  187MOL0     H25181   0.489   7.719   6.076 -1.3602 -2.1630  1.0923
  187MOL0     H25182   0.633   7.488   5.969  1.0239  0.6104  0.1194
  187MOL0     H25183   0.481   7.546   5.946  0.6588  1.2813 -1.9366
  187MOL0     H25184   0.563   7.449   6.228 -1.5032 -2.7389  0.5764
  187MOL0     H25185   0.494   7.344   6.112  2.2439  0.3744 -2.6976
  187MOL0     H25186   0.381   7.600   6.216 -2.0850 -0.0649  1.1022
  187MOL0     H25187   0.289   7.485   6.109  2.4020  0.5942 -1.4532
  187MOL0     H25188   0.297   7.322   6.293  1.2861  0.0140  0.3769
  187MOL0     H25189   0.384   7.439   6.393  1.7826  1.3197 -2.8837
  187MOL0     H25190   0.207   7.603   6.382 -0.5413  0.5424 -2.7710
  187MOL0     H25191   0.107   7.482   6.306 -0.3456  1.8840 -0.3175
  187MOL0     H25192   0.228   7.451   6.591  1.6454  4.1756 -1.8042
  187MOL0     H25193   0.112   7.348   6.515 -1.5403  1.7838 -1.6258
  187MOL0     H25194  -0.032   7.580   6.507 -0.9926  1.0742  2.3205
  187MOL0     H25195  -0.020   7.505   6.663  1.6985 -1.4293  0.6117
  187MOL0     H25196   0.218   7.774   6.514 -0.3292  2.0776  1.1491
  187MOL0     H25197   0.317   7.999   6.644 -0.2441  2.4542  1.1487
  187MOL0     H25198   0.311   8.009   6.820  3.3271  1.0690 -0.0159
  187MOL0     H25199   0.467   7.790   6.814  3.5715  1.6297  2.8031
  187MOL0     H25200   0.515   7.871   6.660  2.0557  3.5670 -0.5170
  187MOL0     H25201   0.533   8.041   6.918 -1.6701  2.2993 -0.2951
  187MOL0     H25202   0.591   8.065   6.749 -0.6489  0.9649  1.1115
  187MOL0     H25203   0.656   7.838   6.956 -0.1477  0.0690 -0.6914
  187MOL0     H25204   0.772   7.963   6.919  2.3444 -3.2283 -0.2323
  187MOL0     H25205   0.804   7.696   6.994  1.4291  2.0456  0.3684
  187MOL0     H25206   0.931   7.484   6.988  0.7357  0.5480  0.9312
  187MOL0     H25207   1.306   7.359   7.058 -1.2292  0.1777  0.0277
  187MOL0     H25208   1.479   7.205   7.104 -1.0989 -0.3229  1.1208
  187MOL0     H25209   1.743   6.956   6.987  1.7047  0.8646  2.0147
  187MOL0     H25210   1.638   7.068   7.091  1.8328 -0.6012  1.1987
  187MOL0     H25211   1.484   6.914   7.145 -0.0212 -0.6517  1.2860
  187MOL0     H25212   1.545   6.789   7.045 -1.8703  1.9446 -1.5098
  187MOL0     H25213   1.767   6.823   7.174  1.6350 -2.6922  2.3046
  187MOL0     H25214   1.681   6.922   7.289 -0.2812  1.4922 -2.1183
  187MOL0     H25215   1.525   6.753   7.340  0.1316  0.3556 -0.9007
  187MOL0     H25216   1.692   6.711   7.389  1.5318  2.0277 -1.4697
  187MOL0     H25217   1.703   6.590   7.141  1.4700  2.1037  0.9853
  187MOL0     H25218   1.529   6.577   7.156  0.4689  1.3477 -1.2144
  187MOL0     H25219   1.744   6.492   7.360 -1.3140  1.8827  2.9390
  187MOL0     H25220   1.576   6.485   7.396  0.3886 -2.1006 -0.4812
  187MOL0     H25221   1.658   6.339   7.138  1.5642  1.7269  0.7796
  187MOL0     H25222   1.504   6.360   7.220 -0.2775  2.4290  0.9454
  187MOL0     H25223   1.610   6.126   7.257 -0.2264  0.4736 -2.5296
  187MOL0     H25224   1.751   6.192   7.329 -0.6770 -1.3149  2.4070
  187MOL0     H25225   1.394   6.988   6.745  1.8167 -1.5482  2.7878
  187MOL0     H25226   1.189   7.145   6.711  3.0324  3.5724 -2.3852
  187MOL0     H25227   0.975   7.548   6.550 -1.5218 -0.0643 -0.9367
  187MOL0     H25228   0.869   7.769   6.592 -2.0541  0.1202  0.1009
  187MOL0     H25229   0.651   7.951   6.111 -0.5995  1.7880  0.1995
  187MOL0     H25230   0.548   8.155   6.045  0.1412 -0.1253  0.6750
  187MOL0     H25231   0.415   8.450   5.748  0.2058  0.1154 -1.1796
  187MOL0     H25232   0.269   8.653   5.696  1.5172 -1.4676 -1.3804
  187MOL0     H25233  -0.067   8.731   5.855  1.4246  2.4525 -0.6467
  187MOL0     H25234  -0.182   8.655   5.745  1.5855 -3.2363  3.7526
  187MOL0     H25235  -0.140   8.844   5.589  3.6079 -0.3292 -0.4931
  187MOL0     H25236  -0.051   8.936   5.700 -1.4355  1.5618 -3.8412
  187MOL0     H25237  -0.213   8.894   5.872  0.3752  2.9531  0.0179
  187MOL0     H25238  -0.335   8.859   5.739  0.0813 -0.9999  2.1098
  187MOL0     H25239  -0.164   9.104   5.774 -0.6381  2.4971 -0.0386
  187MOL0     H25240  -0.275   9.100   5.640  0.8787 -1.2271 -0.2434
  187MOL0     H25241  -0.556   9.194   5.920  0.0187  2.2867 -1.5030
  187MOL0     H25242  -0.086   8.434   5.715  0.3653  0.5943 -1.7113
  187MOL0     H25243   0.037   8.111   5.713 -0.7278 -2.1596  1.3415
  187MOL0     H25244   0.005   8.156   5.884  2.9886  3.4106  0.2578
  187MOL0     H25245  -0.096   8.209   5.750 -0.3750  1.0509  2.1334
  188MOL0     O25246   3.578  10.145   7.201  0.2619  0.4793  0.6179
  188MOL0     C25247   3.631  10.035   7.227  0.5001  0.6453 -0.1592
  188MOL0     O25248   3.734   9.968   7.153  0.1064 -0.4873 -0.9327
  188MOL0     C25249   3.770  10.025   7.036 -0.1868  1.0154 -0.1927
  188MOL0     C25250   3.674  10.039   6.925  0.3996  0.2720 -0.3619
  188MOL0     C25251   3.717  10.104   6.809  0.2695 -0.5966 -0.7818
  188MOL0     C25252   3.831  10.181   6.801 -0.4886  0.4883 -0.1784
  188MOL0     O25253   3.876  10.257   6.697 -0.9353 -0.1800 -0.8269
  188MOL0     C25254   3.783  10.297   6.597  0.1547  0.2365 -0.4080
  188MOL0     C25255   3.847  10.383   6.483 -0.0927  0.4873  0.6356
  188MOL0     C25256   3.937  10.294   6.392  0.2824  0.6252 -0.8554
  188MOL0     C25257   3.936  10.334   6.248  0.7718  0.2659 -0.4767
  188MOL0     C25258   4.056  10.273   6.171 -0.3618  0.2933 -0.6362
  188MOL0     C25259   4.108  10.363   6.057 -0.4457  0.7976 -0.1269
  188MOL0     C25260   4.253  10.348   6.017 -0.3536 -0.6340  0.5861
  188MOL0     C25261   4.309  10.471   5.950 -0.1943  1.0753  0.0832
  188MOL0     N25262   4.236  10.528   5.831  0.4315 -0.1175 -0.0702
  188MOL0     C25263   4.148  10.465   5.760  0.4040 -0.2284  0.4172
  188MOL0     C25264   4.115  10.542   5.647 -0.9110 -0.0083 -0.1250
  188MOL0     C25265   4.020  10.518   5.527  0.5156  1.0928 -0.3475
  188MOL0     C25266   4.124  10.522   5.409  1.5744 -0.3644  0.2966
  188MOL0     C25267   4.045  10.495   5.268 -0.7238  0.7143  0.7226
  188MOL0     C25268   4.034  10.339   5.236  0.3911 -0.1055  0.3241
  188MOL0     O25269   4.159  10.275   5.219 -0.3657 -0.3096  0.5465
  188MOL0     C25270   4.164  10.175   5.123  0.1410  0.2467  0.0985
  188MOL0     C25271   4.290  10.137   5.071 -1.1534  0.4455 -0.0271
  188MOL0     C25272   4.313  10.052   4.957  0.9114 -0.1666 -0.1486
  188MOL0     C25273   4.202  10.000   4.889  0.5205  1.2023  0.1023
  188MOL0     C25274   4.215   9.913   4.773 -0.2945 -1.1425 -0.9130
  188MOL0     O25275   4.334   9.893   4.729 -0.5396 -0.2939  0.2750
  188MOL0     C25276   4.359   9.840   4.607 -0.1618  0.4899  0.5470
  188MOL0     C25277   4.266   9.829   4.501 -0.1644 -0.1381 -0.0413
  188MOL0     C25278   4.297   9.772   4.376  0.1116 -0.6790 -0.4545
  188MOL0     C25279   4.422   9.720   4.354 -0.1353  0.7424  0.0745
  188MOL0     O25280   4.461   9.653   4.237 -0.8895 -0.4420 -0.2278
  188MOL0     C25281   4.368   9.654   4.127 -0.1391  0.1541 -0.8543
  188MOL0     C25282   4.416   9.601   3.999 -0.1136  0.0314  0.2644
  188MOL0     C25283   4.551   9.659   3.953  0.4603  0.7207 -0.1553
  188MOL0     C25284   4.554   9.813   3.946 -0.2398  0.3296  0.3118
  188MOL0     C25285   4.682   9.862   3.878  1.0239  0.0770  0.1082
  188MOL0     C25286   4.679   9.835   3.722 -0.7805  0.4208 -0.5959
  188MOL0     C25287   4.811   9.882   3.660  0.0227  0.1698 -0.6548
  188MOL0     C25288   4.811  10.041   3.638 -0.2519  0.2770 -1.0878
  188MOL0    Cl25289   4.675  10.098   3.532 -0.4515 -0.2905  0.2232
  188MOL0     C25290   4.516   9.736   4.457 -0.3020 -0.9234  0.4748
  188MOL0     C25291   4.487   9.798   4.576 -0.2006  0.7872 -0.0421
  188MOL0     O25292   4.111   9.861   4.728  0.9916 -0.1876  0.1694
  188MOL0     C25293   4.077  10.039   4.936 -0.7982  0.2553  0.1480
  188MOL0     C25294   4.057  10.126   5.046 -0.1555  0.6377 -0.1162
  188MOL0     N25295   4.179  10.662   5.680  0.6091 -0.2123 -0.4755
  188MOL0     N25296   4.253  10.649   5.789 -0.6376 -0.2198 -0.0508
  188MOL0     C25297   3.929  10.150   6.900 -0.5703 -0.0794 -0.2405
  188MOL0     C25298   3.897  10.070   7.010  0.1191  1.1081  0.5413
  188MOL0     C25299   3.557   9.950   7.328 -0.0362  1.3018  0.2708
  188MOL0     C25300   3.645   9.874   7.416 -0.8690  0.7061  0.3422
  188MOL0     C25301   3.587   9.797   7.522  0.0541 -0.1970  0.2308
  188MOL0     C25302   3.463   9.810   7.557  0.4407  0.2307 -0.9050
  188MOL0     O25303   3.416   9.745   7.670 -0.1219  0.2571 -0.2736
  188MOL0     C25304   3.297   9.666   7.660  0.9384 -0.0387  0.6415
  188MOL0     C25305   3.227   9.668   7.792 -0.1159  0.3942  0.5781
  188MOL0     C25306   3.098   9.597   7.793 -0.3741 -0.2397 -0.0598
  188MOL0     C25307   3.028   9.586   7.930 -0.1688 -0.9584  0.6877
  188MOL0     C25308   2.890   9.531   7.916  0.7458  0.2093  0.1718
  188MOL0     C25309   2.777   9.487   7.894  0.1560  0.5155  0.6886
  188MOL0     C25310   3.377   9.880   7.472  0.5856 -0.4141 -0.4672
  188MOL0     C25311   3.419   9.947   7.361 -0.3661 -0.4678  0.1893
  188MOL0     C25312   3.318  10.022   7.272  0.5106 -1.5316 -0.4154
  188MOL0     H25313   3.575   9.995   6.926 -0.1638  1.4833 -0.4856
  188MOL0     H25314   3.649  10.088   6.725  1.4069 -3.7323 -1.2206
  188MOL0     H25315   3.735  10.209   6.554 -0.6745  0.8503 -0.7621
  188MOL0     H25316   3.705  10.361   6.641 -1.2502  0.7518 -3.3977
  188MOL0     H25317   3.912  10.461   6.525 -2.0148  1.0365  2.7721
  188MOL0     H25318   3.763  10.417   6.422  1.8498 -0.5531 -2.8985
  188MOL0     H25319   3.901  10.191   6.402 -2.2639  1.3893 -1.4716
  188MOL0     H25320   4.040  10.297   6.428  0.3328 -2.8249 -0.3157
  188MOL0     H25321   3.850  10.284   6.203 -0.1373 -0.7439  2.1742
  188MOL0     H25322   3.928  10.439   6.219 -2.7232 -0.7694 -4.2645
  188MOL0     H25323   4.139  10.267   6.242 -1.7141  0.0748  0.9696
  188MOL0     H25324   4.037  10.172   6.134 -0.9853 -0.1298  0.7745
  188MOL0     H25325   4.047  10.310   5.983 -1.7821  0.7267  0.9893
  188MOL0     H25326   4.063  10.462   6.059 -1.9790  0.1151  1.2589
  188MOL0     H25327   4.272  10.261   5.953 -1.3560 -1.1080  0.9194
  188MOL0     H25328   4.309  10.333   6.109 -1.3008  0.2846  1.3264
  188MOL0     H25329   4.295  10.551   6.023 -2.1640 -1.8942  3.2671
  188MOL0     H25330   4.417  10.462   5.933 -0.6791 -2.6330 -2.2158
  188MOL0     H25331   4.117  10.361   5.769 -0.7313 -0.3241 -3.0542
  188MOL0     H25332   3.975  10.421   5.549  0.2711  1.5619  1.3816
  188MOL0     H25333   3.943  10.593   5.513  1.5948  2.1566 -0.7570
  188MOL0     H25334   4.156  10.626   5.395 -2.4607  1.2880  1.8306
  188MOL0     H25335   4.215  10.465   5.428  1.0505 -1.4513 -0.3066
  188MOL0     H25336   4.128  10.528   5.205  1.1636  0.5052  2.9660
  188MOL0     H25337   3.951  10.547   5.248 -1.6425 -0.9064  0.6822
  188MOL0     H25338   3.961  10.331   5.155 -2.5791  1.0225  2.6924
  188MOL0     H25339   3.993  10.300   5.330 -0.2258 -1.4358 -0.4682
  188MOL0     H25340   4.370  10.187   5.125 -1.7644  1.8459 -0.3820
  188MOL0     H25341   4.413  10.032   4.920  1.7830 -0.4070  2.2063
  188MOL0     H25342   4.163   9.863   4.495  0.9452  3.6504 -0.1857
  188MOL0     H25343   4.219   9.769   4.300  1.3911 -3.9282 -1.8244
  188MOL0     H25344   4.286   9.595   4.169  0.1549  0.2565 -0.1080
  188MOL0     H25345   4.328   9.754   4.106 -1.8436 -0.0012  1.2330
  188MOL0     H25346   4.429   9.493   4.010 -1.7650 -0.0033  2.5466
  188MOL0     H25347   4.338   9.619   3.925 -2.3569 -3.0455  1.6867
  188MOL0     H25348   4.622   9.616   4.024 -0.3552  1.5125  1.1767
  188MOL0     H25349   4.568   9.618   3.853 -0.7923  0.4379 -0.2714
  188MOL0     H25350   4.540   9.855   4.046 -0.3796 -0.7255  0.7594
  188MOL0     H25351   4.464   9.827   3.884  0.9028 -0.8527 -1.7411
  188MOL0     H25352   4.767   9.811   3.923  0.6373 -2.2356 -1.5855
  188MOL0     H25353   4.693   9.970   3.892 -2.0796  0.3862  0.8829
  188MOL0     H25354   4.682   9.728   3.699 -0.0593  0.4469 -0.6607
  188MOL0     H25355   4.591   9.887   3.683  1.6443  5.0268 -0.5994
  188MOL0     H25356   4.814   9.840   3.559 -4.2880  0.3902 -1.0504
  188MOL0     H25357   4.896   9.857   3.724 -0.9399  3.1818  2.0798
  188MOL0     H25358   4.799  10.087   3.736 -1.7041  1.8108 -1.9322
  188MOL0     H25359   4.903  10.076   3.591 -0.8689  2.2575 -0.9327
  188MOL0     H25360   4.620   9.710   4.444  1.8072  4.6811  2.7067
  188MOL0     H25361   4.565   9.809   4.650  1.2151 -0.7764 -1.2336
  188MOL0     H25362   3.992  10.003   4.879 -1.7576  0.8355  1.1707
  188MOL0     H25363   3.955  10.137   5.083  0.3828 -1.0160  2.0745
  188MOL0     H25364   4.027  10.193   6.888 -1.7262  2.0606 -3.1425
  188MOL0     H25365   3.983  10.041   7.069  0.2635  2.4275  1.0338
  188MOL0     H25366   3.746   9.864   7.380 -1.8938 -0.4534 -2.4914
  188MOL0     H25367   3.660   9.750   7.588  3.8374  2.7745 -1.4294
  188MOL0     H25368   3.331   9.564   7.643  0.6588  0.1476 -1.2179
  188MOL0     H25369   3.223   9.689   7.583 -1.7559 -1.2009  2.7175
  188MOL0     H25370   3.215   9.772   7.824  2.1941  1.1036 -0.6487
  188MOL0     H25371   3.299   9.620   7.858  0.6581 -1.3466 -1.4446
  188MOL0     H25372   3.106   9.493   7.760 -0.2999 -0.6787  1.2690
  188MOL0     H25373   3.034   9.651   7.723 -0.4680  1.9897  1.6380
  188MOL0     H25374   3.084   9.530   8.006 -1.3520 -0.8228  1.6861
  188MOL0     H25375   3.016   9.684   7.975  4.1585 -0.6227  1.5842
  188MOL0     H25376   2.676   9.453   7.880 -0.8578  2.3705  2.8637
  188MOL0     H25377   3.273   9.894   7.499  1.4262  0.9001  2.5583
  188MOL0     H25378   3.332   9.986   7.170 -2.3804 -2.1774 -0.6844
  188MOL0     H25379   3.211  10.026   7.297  1.0937  1.6784  2.2660
  188MOL0     H25380   3.350  10.126   7.282 -0.3504 -1.3011  0.1421
  189MOL0     O25381   4.244   4.598   9.971 -0.9360 -0.1356 -0.5050
  189MOL0     C25382   4.241   4.725   9.976 -0.6211  0.8422 -0.1387
  189MOL0     O25383   4.214   4.800  10.083 -0.6730 -0.4792 -0.4630
  189MOL0     C25384   4.136   4.745  10.186  0.0134 -0.9167 -0.2123
  189MOL0     C25385   4.041   4.828  10.252  0.8396 -0.6151 -0.9876
  189MOL0     C25386   3.978   4.781  10.372 -0.7169 -0.3084 -0.7813
  189MOL0     C25387   4.002   4.650  10.420  0.6869  0.4158  0.8586
  189MOL0     O25388   3.947   4.594  10.535  0.3636  0.9841 -0.2889
  189MOL0     C25389   3.824   4.647  10.588 -0.5294  0.1183  0.0136
  189MOL0     C25390   3.775   4.595  10.727  0.2846 -0.0226  0.1296
  189MOL0     C25391   3.829   4.684  10.842 -0.3001  0.7449 -0.1851
  189MOL0     C25392   3.805   4.614  10.975  0.3475  0.3919 -0.1224
  189MOL0     C25393   3.810   4.721  11.087 -0.6884 -0.3098 -0.0074
  189MOL0     C25394   3.759   4.652  11.207  0.5841  0.4931  0.3596
  189MOL0     C25395   3.822   4.698  11.328 -0.4272  0.0530  0.1172
  189MOL0     C25396   3.956   4.622  11.353 -0.2493  1.0018 -0.4181
  189MOL0     N25397   3.962   4.471  11.375  0.6669 -0.5352 -0.5623
  189MOL0     C25398   3.874   4.410  11.461 -0.0674  0.5581  0.6918
  189MOL0     C25399   3.890   4.281  11.439  0.9022 -0.3364 -0.4673
  189MOL0     C25400   3.797   4.192  11.514 -0.1326 -0.5991  0.2181
  189MOL0     C25401   3.830   4.178  11.658  0.0129  0.0703 -0.1239
  189MOL0     C25402   3.762   4.267  11.764  0.1435 -0.6178  0.0812
  189MOL0     C25403   3.808   4.245  11.909 -0.7711 -0.2920  0.4484
  189MOL0     O25404   3.740   4.131  11.971 -0.0047  0.8058  0.0951
  189MOL0     C25405   3.827   4.027  11.993 -0.1965  0.3394 -0.3184
  189MOL0     C25406   3.847   3.920  11.907  0.4779 -0.0216 -0.5033
  189MOL0     C25407   3.949   3.820  11.939  0.4785 -0.5916  0.3358
  189MOL0     C25408   4.030   3.835  12.052  1.2141  0.0588 -0.6768
  189MOL0     C25409   4.119   3.729  12.076 -0.1434  0.1826 -0.0298
  189MOL0     O25410   4.164   3.726  12.201  0.3749  0.3892 -0.4506
  189MOL0     C25411   4.239   3.622  12.248 -0.4836 -0.5796  0.2573
  189MOL0     C25412   4.350   3.567  12.182  0.8176 -0.3055  1.2805
  189MOL0     C25413   4.419   3.452  12.217 -0.4773 -0.0372 -0.3758
  189MOL0     C25414   4.380   3.400  12.338  0.2467 -0.1826  0.2297
  189MOL0     O25415   4.436   3.284  12.380 -0.6150 -0.0916 -0.3957
  189MOL0     C25416   4.374   3.162  12.407  0.3492 -1.8123 -0.0109
  189MOL0     C25417   4.353   3.083  12.277 -0.7284  0.0860 -0.1549
  189MOL0     C25418   4.290   2.955  12.300  0.0979  0.2698  0.4015
  189MOL0     C25419   4.362   2.853  12.390  0.9831  1.0870  0.2471
  189MOL0     C25420   4.339   2.707  12.334  0.0737  0.0667 -0.3726
  189MOL0     C25421   4.396   2.606  12.431  0.2174 -0.1448  0.4280
  189MOL0     C25422   4.385   2.461  12.361 -1.3683 -0.1268 -0.1158
  189MOL0     C25423   4.259   2.438  12.285 -0.3199 -0.9518  0.2897
  189MOL0    Cl25424   4.215   2.272  12.256 -0.0666 -0.3005 -0.0864
  189MOL0     C25425   4.268   3.448  12.417 -0.0888 -0.5282 -0.1246
  189MOL0     C25426   4.197   3.567  12.368  0.3491  0.6124 -0.6690
  189MOL0     O25427   4.144   3.643  11.992 -0.2335 -0.2204  0.1480
  189MOL0     C25428   4.013   3.951  12.132 -0.2679 -0.5785  0.9049
  189MOL0     C25429   3.906   4.035  12.110 -0.3658  0.5248  0.3591
  189MOL0     N25430   3.974   4.260  11.337 -0.1996 -0.1312 -0.6324
  189MOL0     N25431   4.018   4.372  11.301 -0.0356 -0.7316  0.6207
  189MOL0     C25432   4.100   4.570  10.354  1.1327 -0.4409 -0.0242
  189MOL0     C25433   4.151   4.618  10.237  0.5377  0.3309  0.3029
  189MOL0     C25434   4.260   4.791   9.842 -0.3584 -0.2781  0.4163
  189MOL0     C25435   4.245   4.934   9.842 -0.0650 -0.6100  0.2422
  189MOL0     C25436   4.272   5.011   9.736  0.1198 -0.2874 -0.6533
  189MOL0     C25437   4.312   4.962   9.613  0.2254 -0.0580 -0.6757
  189MOL0     O25438   4.318   5.060   9.517 -0.6084  0.7183 -0.7244
  189MOL0     C25439   4.369   5.031   9.391 -0.0804 -0.4813 -0.1554
  189MOL0     C25440   4.257   4.981   9.294 -0.9875 -0.7696 -0.4466
  189MOL0     C25441   4.303   4.911   9.171  0.5069 -0.0781 -0.1905
  189MOL0     C25442   4.369   5.008   9.067 -0.2681  0.2807 -0.5246
  189MOL0     C25443   4.380   4.922   8.944  0.2466  0.1851 -0.0612
  189MOL0     C25444   4.369   4.843   8.843 -0.2580 -0.3109 -0.4601
  189MOL0     C25445   4.330   4.821   9.610  0.0222 -0.0607  0.3930
  189MOL0     C25446   4.303   4.734   9.721  0.6328 -0.0169  0.7528
  189MOL0     C25447   4.355   4.588   9.705  0.0107 -1.0858  0.2280
  189MOL0     H25448   4.038   4.932  10.219  1.6877 -0.8324 -1.7975
  189MOL0     H25449   3.926   4.848  10.440 -1.1269  1.6618 -2.9146
  189MOL0     H25450   3.848   4.753  10.599  0.3865  0.1190 -1.7511
  189MOL0     H25451   3.742   4.632  10.517  0.8867 -2.1534 -1.2679
  189MOL0     H25452   3.795   4.487  10.735  1.1908  0.2444  2.1455
  189MOL0     H25453   3.667   4.603  10.714  0.4550  0.0169 -1.5495
  189MOL0     H25454   3.778   4.781  10.839  0.3184  1.1616  1.6065
  189MOL0     H25455   3.935   4.710  10.833 -1.0492  3.4116 -3.5417
  189MOL0     H25456   3.707   4.567  10.964 -0.4954  2.5083 -2.3982
  189MOL0     H25457   3.881   4.536  10.987  0.3464  0.3475 -0.4104
  189MOL0     H25458   3.911   4.759  11.105 -1.6586  1.9645  0.9542
  189MOL0     H25459   3.743   4.806  11.069 -1.4832 -0.6729  1.1029
  189MOL0     H25460   3.652   4.673  11.215  0.5705  0.3669  0.5287
  189MOL0     H25461   3.766   4.543  11.196  0.9689  0.6260 -0.7811
  189MOL0     H25462   3.756   4.694  11.416  0.4616  1.5271  0.8990
  189MOL0     H25463   3.838   4.806  11.315  1.0059 -0.1952 -0.3655
  189MOL0     H25464   4.023   4.640  11.268 -0.7710 -0.2228 -1.1226
  189MOL0     H25465   4.011   4.664  11.437  0.8804  1.5502 -1.3978
  189MOL0     H25466   3.806   4.465  11.525  0.1917  0.7236  0.8263
  189MOL0     H25467   3.701   4.234  11.486 -0.9782 -2.5593 -0.0058
  189MOL0     H25468   3.802   4.099  11.455 -1.4320 -0.3377 -0.3276
  189MOL0     H25469   3.790   4.076  11.666 -1.9047  0.3216 -4.1371
  189MOL0     H25470   3.938   4.187  11.677  0.1424 -0.2805 -0.6876
  189MOL0     H25471   3.653   4.258  11.755  0.4306 -2.2756 -3.9933
  189MOL0     H25472   3.768   4.370  11.729 -2.8714 -1.1352 -2.3842
  189MOL0     H25473   3.785   4.326  11.978  0.3989 -2.1117  3.1428
  189MOL0     H25474   3.916   4.226  11.904 -0.3699  1.9740 -0.7038
  189MOL0     H25475   3.796   3.914  11.811  2.5690  0.9912 -1.7567
  189MOL0     H25476   3.964   3.733  11.876  0.4100 -2.4264  2.7026
  189MOL0     H25477   4.380   3.612  12.088  0.8392  1.9363  2.2870
  189MOL0     H25478   4.505   3.410  12.165  0.8974 -0.5838  2.1757
  189MOL0     H25479   4.444   3.109  12.472 -0.3022  1.4688  3.7095
  189MOL0     H25480   4.283   3.183  12.465  0.9043 -0.4447  0.3968
  189MOL0     H25481   4.282   3.143  12.219 -0.1542 -0.1987 -1.1665
  189MOL0     H25482   4.433   3.071  12.203 -2.1367 -0.6376 -1.6209
  189MOL0     H25483   4.194   2.979  12.346  0.1728 -1.6556  1.6665
  189MOL0     H25484   4.272   2.913  12.200  1.3733  2.2147 -0.7153
  189MOL0     H25485   4.316   2.863  12.488 -1.7687  0.8506 -0.9212
  189MOL0     H25486   4.470   2.868  12.397  1.4078 -1.7553  0.5901
  189MOL0     H25487   4.398   2.706  12.242  0.4016  0.6530 -0.1709
  189MOL0     H25488   4.231   2.697  12.319 -0.5676  1.1948  2.7461
  189MOL0     H25489   4.502   2.629  12.447  0.0118  1.8133 -0.6403
  189MOL0     H25490   4.342   2.598  12.526  0.1749 -0.6181  0.3634
  189MOL0     H25491   4.399   2.383  12.436 -0.1644  0.2446  0.0671
  189MOL0     H25492   4.472   2.457  12.295 -1.3352  4.3554 -0.6501
  189MOL0     H25493   4.182   2.489  12.343  0.0735  2.6345 -2.0378
  189MOL0     H25494   4.272   2.501  12.197  4.2991  0.1663  1.5001
  189MOL0     H25495   4.258   3.398  12.513  0.0359 -0.5432 -0.1196
  189MOL0     H25496   4.104   3.596  12.416 -1.9287 -2.2856 -2.9287
  189MOL0     H25497   4.078   3.982  12.212  1.5371  2.3212 -1.4745
  189MOL0     H25498   3.870   4.120  12.166  1.7756  2.3543 -0.8580
  189MOL0     H25499   4.122   4.471  10.394  3.9244  0.4882  1.0359
  189MOL0     H25500   4.232   4.559  10.197  0.0472  0.2811 -0.6325
  189MOL0     H25501   4.220   5.004   9.921  1.9364  1.0234 -0.4814
  189MOL0     H25502   4.267   5.118   9.749  2.1125 -0.3310  1.0968
  189MOL0     H25503   4.454   4.965   9.409 -1.3194 -2.1399 -0.1935
  189MOL0     H25504   4.418   5.121   9.353 -0.2818 -0.6481 -0.8245
  189MOL0     H25505   4.181   5.056   9.269 -1.6983 -0.0457  3.3429
  189MOL0     H25506   4.200   4.908   9.353 -0.9593  1.2836  2.3007
  189MOL0     H25507   4.218   4.872   9.114 -2.1108  3.3870  0.9555
  189MOL0     H25508   4.383   4.839   9.190  1.3208  0.5998 -0.9264
  189MOL0     H25509   4.314   5.102   9.059  1.8535  1.7126  0.5881
  189MOL0     H25510   4.467   5.036   9.106 -0.0420  1.7005 -2.0003
  189MOL0     H25511   4.344   4.799   8.749  1.0879 -1.4883 -0.3038
  189MOL0     H25512   4.368   4.783   9.516 -4.2658  0.4455 -1.7653
  189MOL0     H25513   4.393   4.587   9.602 -0.8691  0.6632 -0.1568
  189MOL0     H25514   4.430   4.564   9.781  1.0947 -3.8074 -1.5597
  189MOL0     H25515   4.267   4.523   9.710 -0.2208 -0.7367  0.7653
  190MOL0     O25516   7.556   4.484  10.042  0.3402 -0.1164 -0.2318
  190MOL0     C25517   7.603   4.427   9.947 -0.5587  0.1550  0.2132
  190MOL0     O25518   7.706   4.344   9.958  0.0419 -0.0089  0.3116
  190MOL0     C25519   7.742   4.308  10.086  0.3068  0.0921  0.6102
  190MOL0     C25520   7.812   4.392  10.162 -0.2178 -0.1232 -0.3438
  190MOL0     C25521   7.838   4.362  10.300  0.0157  0.4761  1.0171
  190MOL0     C25522   7.799   4.245  10.358 -0.5401  1.8653 -0.1954
  190MOL0     O25523   7.827   4.210  10.492  0.3432 -0.0117 -0.0966
  190MOL0     C25524   7.930   4.270  10.574 -0.3321  0.0709 -0.0746
  190MOL0     C25525   7.906   4.198  10.703  1.0520 -0.0283 -0.1326
  190MOL0     C25526   7.772   4.237  10.771 -1.0891  0.7447 -0.3333
  190MOL0     C25527   7.790   4.174  10.910  0.4002  0.8855  0.3506
  190MOL0     C25528   7.680   4.211  11.000  0.5308  0.2598 -0.6430
  190MOL0     C25529   7.712   4.325  11.085  0.5317  0.5434 -0.0721
  190MOL0     C25530   7.607   4.365  11.190  0.0841 -0.0028 -0.5546
  190MOL0     C25531   7.581   4.262  11.301  0.3160 -0.7707 -0.0634
  190MOL0     N25532   7.697   4.210  11.378  0.3520 -0.2388 -0.3656
  190MOL0     C25533   7.782   4.109  11.349  1.0097 -0.3332  0.4268
  190MOL0     C25534   7.865   4.113  11.460 -0.2992 -0.5343  0.2121
  190MOL0     C25535   7.965   4.002  11.489  0.2277  0.4706 -0.5079
  190MOL0     C25536   8.105   4.035  11.551 -0.8583 -0.3026 -0.1364
  190MOL0     C25537   8.089   4.091  11.681 -0.1997  0.2540 -0.2723
  190MOL0     C25538   8.051   3.980  11.788 -0.4854 -0.3342  0.1549
  190MOL0     O25539   8.131   3.999  11.907 -0.6027  0.2387 -0.0293
  190MOL0     C25540   8.093   4.108  11.989  0.3893 -0.4731  0.1106
  190MOL0     C25541   8.192   4.170  12.065 -0.5972 -0.9350  0.1919
  190MOL0     C25542   8.159   4.267  12.163  0.4799  0.6989  0.0923
  190MOL0     C25543   8.022   4.306  12.183  0.3062  0.4813  0.2166
  190MOL0     C25544   7.980   4.382  12.308 -0.5771 -0.4450  0.3479
  190MOL0     O25545   8.069   4.408  12.415 -0.0570  0.0828 -0.0355
  190MOL0     C25546   8.043   4.470  12.532 -0.0016 -0.6764 -0.7929
  190MOL0     C25547   7.918   4.511  12.590 -0.4118 -0.2003 -0.0881
  190MOL0     C25548   7.913   4.546  12.723  0.4701 -1.0209  1.0951
  190MOL0     C25549   8.021   4.564  12.802 -0.1171  0.1023 -0.5013
  190MOL0     O25550   7.993   4.603  12.925 -0.2919 -0.1287 -0.0017
  190MOL0     C25551   8.098   4.633  13.021 -0.7274  0.2511  0.3591
  190MOL0     C25552   8.042   4.728  13.127  0.3539  1.0311  0.2378
  190MOL0     C25553   8.158   4.795  13.195 -0.7729  0.5572  1.1195
  190MOL0     C25554   8.117   4.894  13.315 -0.3675  0.7112  0.2066
  190MOL0     C25555   8.045   5.024  13.259  0.3794  0.3027  0.3645
  190MOL0     C25556   8.062   5.142  13.359 -0.0305 -0.5077  0.1157
  190MOL0     C25557   7.989   5.120  13.490 -0.4966 -0.0313  0.3815
  190MOL0     C25558   8.001   5.246  13.581 -0.2503  0.9950  0.0489
  190MOL0    Cl25559   8.169   5.322  13.578  0.5240  0.1301 -0.5216
  190MOL0     C25560   8.146   4.526  12.752  0.2464 -0.2278  0.1835
  190MOL0     C25561   8.153   4.490  12.616  0.0848  0.8447 -0.4723
  190MOL0     O25562   7.880   4.445  12.290  0.0900  0.6540 -0.3412
  190MOL0     C25563   7.932   4.264  12.084 -0.2500 -0.8057  0.2314
  190MOL0     C25564   7.970   4.164  11.990 -0.3129 -0.5373 -0.7236
  190MOL0     N25565   7.810   4.195  11.556 -0.1760  0.0272  0.0380
  190MOL0     N25566   7.729   4.266  11.493 -0.3794  0.4687  0.0838
  190MOL0     C25567   7.745   4.144  10.274 -1.0127 -0.2383  1.1329
  190MOL0     C25568   7.711   4.176  10.134  0.0513 -0.2483  0.2426
  190MOL0     C25569   7.553   4.438   9.808 -0.5691 -0.7640 -0.2642
  190MOL0     C25570   7.582   4.329   9.722 -0.8250 -0.9030  0.2009
  190MOL0     C25571   7.525   4.320   9.591  0.3947  0.0619 -0.1195
  190MOL0     C25572   7.427   4.417   9.551 -0.1911  0.6632 -0.4179
  190MOL0     O25573   7.361   4.417   9.431  0.2534 -0.2324  0.6588
  190MOL0     C25574   7.364   4.302   9.345 -0.5081  0.7666  0.3218
  190MOL0     C25575   7.266   4.200   9.395  0.2988  0.2622  0.1206
  190MOL0     C25576   7.248   4.085   9.300  0.2711  0.5019 -0.8312
  190MOL0     C25577   7.352   3.971   9.295 -0.0169  0.4480  0.1554
  190MOL0     C25578   7.392   3.917   9.428  0.3785 -0.1740  0.5594
  190MOL0     C25579   7.435   3.867   9.528  0.1226 -0.1757 -0.1870
  190MOL0     C25580   7.406   4.517   9.634  0.1783 -1.1880  0.2089
  190MOL0     C25581   7.462   4.531   9.763 -1.1931 -0.0272 -1.0109
  190MOL0     C25582   7.414   4.657   9.835  0.0230  0.6865  0.2362
  190MOL0     H25583   7.839   4.489  10.121 -1.1429 -0.5059 -1.9455
  190MOL0     H25584   7.893   4.434  10.358 -0.0371  1.4936 -0.1529
  190MOL0     H25585   8.033   4.256  10.540 -0.1338  0.6923  0.2421
  190MOL0     H25586   7.913   4.378  10.580  2.3434  0.4972  1.3148
  190MOL0     H25587   7.996   4.214  10.764  2.2266 -0.7428 -1.6152
  190MOL0     H25588   7.900   4.094  10.669 -3.3686  0.5722 -1.8122
  190MOL0     H25589   7.681   4.204  10.720 -0.5203 -1.3639 -0.0783
  190MOL0     H25590   7.775   4.346  10.776 -1.3176  0.7191  0.4177
  190MOL0     H25591   7.782   4.065  10.913 -1.7664  1.0081  2.2430
  190MOL0     H25592   7.891   4.193  10.945  1.3723  0.1419 -1.8747
  190MOL0     H25593   7.586   4.228  10.946 -1.9905 -1.2904  2.8595
  190MOL0     H25594   7.671   4.128  11.071  0.1418  0.1155 -0.8606
  190MOL0     H25595   7.804   4.304  11.141  0.0081  1.7879  1.3295
  190MOL0     H25596   7.734   4.417  11.031 -2.2107  0.3247 -1.7358
  190MOL0     H25597   7.507   4.395  11.156 -0.9470 -2.0425  0.4706
  190MOL0     H25598   7.648   4.456  11.235 -0.9303 -0.3877  1.2373
  190MOL0     H25599   7.513   4.303  11.376  0.2947 -1.1655  0.1363
  190MOL0     H25600   7.531   4.176  11.256 -0.4232 -0.1686 -0.4266
  190MOL0     H25601   7.794   4.036  11.269  1.3764  1.4177 -1.1913
  190MOL0     H25602   7.911   3.934  11.556  2.6758  1.8927  3.1897
  190MOL0     H25603   7.970   3.953  11.391  1.1000  1.8403 -1.1813
  190MOL0     H25604   8.151   3.937  11.542  0.0723  0.3427 -4.2160
  190MOL0     H25605   8.167   4.106  11.496  0.3047  0.8986  2.5247
  190MOL0     H25606   8.020   4.176  11.679  0.7856  1.1136  0.7720
  190MOL0     H25607   8.185   4.132  11.714  1.8699 -1.8887 -3.1050
  190MOL0     H25608   8.070   3.879  11.752 -1.8005 -1.1103  1.5037
  190MOL0     H25609   7.944   3.976  11.810 -0.0482  0.5357  2.9304
  190MOL0     H25610   8.295   4.142  12.047 -0.2114  1.6531 -2.2759
  190MOL0     H25611   8.230   4.314  12.230 -2.8318  2.1518  2.9097
  190MOL0     H25612   7.834   4.501  12.521 -2.2347 -2.2019  2.2369
  190MOL0     H25613   7.821   4.575  12.773 -0.0517  2.6167 -1.5325
  190MOL0     H25614   8.133   4.542  13.069  0.5018  1.0611  1.0733
  190MOL0     H25615   8.183   4.687  12.977 -0.8795  0.9768  0.9407
  190MOL0     H25616   7.980   4.797  13.069  1.8377  0.0933 -2.6354
  190MOL0     H25617   7.983   4.676  13.204 -2.0550 -0.0302 -2.1493
  190MOL0     H25618   8.217   4.716  13.243 -0.2369  0.3051  0.0792
  190MOL0     H25619   8.203   4.866  13.125 -1.8612  1.1086  0.9556
  190MOL0     H25620   8.212   4.918  13.364 -1.3035  1.5555  1.6674
  190MOL0     H25621   8.055   4.832  13.381  2.6036 -2.6516  0.1513
  190MOL0     H25622   7.937   5.013  13.241  0.1173  2.9534 -0.1221
  190MOL0     H25623   8.092   5.048  13.163  1.3750  0.1109  0.8018
  190MOL0     H25624   8.168   5.136  13.384 -0.4913 -3.3888  1.8315
  190MOL0     H25625   8.042   5.235  13.305 -0.0202  0.5948  1.9342
  190MOL0     H25626   8.043   5.041  13.542 -0.2578  1.5615  2.7018
  190MOL0     H25627   7.881   5.108  13.479 -0.9218  1.9371  1.8535
  190MOL0     H25628   7.939   5.329  13.545 -0.0347  1.0429 -0.2128
  190MOL0     H25629   7.966   5.219  13.681 -0.4517  1.6186  0.1500
  190MOL0     H25630   8.236   4.534  12.813  0.5912 -1.6653 -0.1040
  190MOL0     H25631   8.251   4.457  12.581 -0.2360  0.0064 -0.6173
  190MOL0     H25632   7.831   4.303  12.079  0.9178  2.3991 -0.8151
  190MOL0     H25633   7.887   4.130  11.929  0.7202 -0.2862 -2.3534
  190MOL0     H25634   7.713   4.050  10.318  0.8937 -1.3292  0.2918
  190MOL0     H25635   7.674   4.095  10.073  2.4256 -0.7478 -0.6221
  190MOL0     H25636   7.653   4.249   9.738 -0.4562 -0.6603 -0.2318
  190MOL0     H25637   7.542   4.236   9.524  0.6024 -0.4350  0.5463
  190MOL0     H25638   7.461   4.265   9.312  0.4695  4.1899 -1.0653
  190MOL0     H25639   7.327   4.345   9.251  1.1529  1.1272 -0.1930
  190MOL0     H25640   7.168   4.242   9.420 -0.7190 -3.3915  3.2009
  190MOL0     H25641   7.299   4.166   9.494 -2.0407  2.3080  1.7315
  190MOL0     H25642   7.227   4.134   9.204 -2.4236  0.4245 -0.3487
  190MOL0     H25643   7.151   4.037   9.319  0.7212 -1.3999 -2.9114
  190MOL0     H25644   7.330   3.899   9.216  1.1753 -0.7811  0.9069
  190MOL0     H25645   7.448   4.015   9.268  2.0894 -4.0882 -0.6750
  190MOL0     H25646   7.480   3.817   9.612  3.1914  1.5493 -0.6466
  190MOL0     H25647   7.344   4.600   9.602  0.1052  0.0473  3.2492
  190MOL0     H25648   7.319   4.637   9.887 -1.8476 -3.1463 -3.9422
  190MOL0     H25649   7.486   4.693   9.909 -0.9058  1.2780  0.8715
  190MOL0     H25650   7.386   4.741   9.771 -0.8696 -1.5978 -2.6272
  191MOL0     O25651   6.410   7.158   5.761 -0.3337  1.0672 -0.7969
  191MOL0     C25652   6.442   7.201   5.873  0.2669  0.1551  0.4823
  191MOL0     O25653   6.572   7.242   5.915  0.2289 -0.2680 -0.9848
  191MOL0     C25654   6.684   7.227   5.838 -0.9192  1.0950  0.6256
  191MOL0     C25655   6.803   7.167   5.892 -0.3560 -0.4324 -0.3363
  191MOL0     C25656   6.922   7.144   5.817 -0.0188  0.1387  1.0557
  191MOL0     C25657   6.929   7.178   5.687  0.1489 -0.6047  0.1316
  191MOL0     O25658   7.044   7.159   5.620  0.2385  0.7095  0.2992
  191MOL0     C25659   7.018   7.112   5.490  0.1430 -0.2920  0.1890
  191MOL0     C25660   7.147   7.068   5.418 -0.7954  0.2213  1.2569
  191MOL0     C25661   7.125   6.979   5.292  0.7234  0.1594 -0.1605
  191MOL0     C25662   7.109   6.828   5.321 -0.6365 -0.7949 -0.6713
  191MOL0     C25663   7.088   6.759   5.194  0.4444 -0.4558  0.2098
  191MOL0     C25664   6.966   6.798   5.114  0.2643 -0.5562 -0.3637
  191MOL0     C25665   6.921   6.694   5.005  0.7360  0.1623  0.3149
  191MOL0     C25666   7.015   6.677   4.889  0.0537 -0.6649 -0.3987
  191MOL0     N25667   6.952   6.573   4.806 -0.4419 -0.2637 -0.3247
  191MOL0     C25668   6.890   6.587   4.687  0.6065 -0.5036 -0.4480
  191MOL0     C25669   6.894   6.461   4.631 -0.0687  0.7763  0.2191
  191MOL0     C25670   6.842   6.423   4.492 -0.7414  0.7430 -0.0290
  191MOL0     C25671   6.936   6.468   4.380  0.2198 -0.2198  0.1771
  191MOL0     C25672   7.092   6.436   4.408 -0.4776  0.1660 -0.0055
  191MOL0     C25673   7.151   6.446   4.255 -0.3463  0.1264  0.2906
  191MOL0     O25674   7.129   6.334   4.163  0.5434  0.1423 -0.2892
  191MOL0     C25675   7.226   6.262   4.107 -0.3253  0.0242  0.1550
  191MOL0     C25676   7.318   6.183   4.182  0.0578 -0.0484 -0.4056
  191MOL0     C25677   7.422   6.112   4.113 -0.0285  0.2725 -0.2799
  191MOL0     C25678   7.430   6.121   3.969 -0.7664  0.1446  1.1610
  191MOL0     C25679   7.543   6.049   3.902 -1.1381 -0.0111 -0.0280
  191MOL0     O25680   7.562   5.922   3.954  0.1667 -0.5527 -0.2036
  191MOL0     C25681   7.654   5.826   3.917 -0.1721 -0.7735 -0.0231
  191MOL0     C25682   7.628   5.692   3.943 -0.4450  0.9589 -0.2408
  191MOL0     C25683   7.725   5.591   3.920  0.3367 -0.5116  0.5142
  191MOL0     C25684   7.854   5.624   3.882 -0.4606  0.2167  0.1216
  191MOL0     O25685   7.942   5.518   3.901 -0.1979  0.2794  0.3127
  191MOL0     C25686   8.086   5.531   3.860  0.3857 -0.3422  0.0658
  191MOL0     C25687   8.181   5.449   3.949 -0.1075  0.3998 -0.6648
  191MOL0     C25688   8.325   5.487   3.917 -0.2007 -0.2767 -0.6279
  191MOL0     C25689   8.427   5.402   3.985  0.2880  0.5517  1.3465
  191MOL0     C25690   8.573   5.446   3.940 -0.5423 -1.1741 -0.3891
  191MOL0     C25691   8.615   5.357   3.835  0.1510  0.4497 -0.7177
  191MOL0     C25692   8.757   5.382   3.803 -0.5159 -0.1791 -0.6953
  191MOL0     C25693   8.815   5.311   3.681  0.4483  0.5767 -1.0580
  191MOL0    Cl25694   8.963   5.381   3.629  0.5844  0.0247  0.0811
  191MOL0     C25695   7.888   5.756   3.853  0.2931  0.1001  0.1383
  191MOL0     C25696   7.785   5.855   3.872  0.2742 -0.2038 -0.8446
  191MOL0     O25697   7.598   6.098   3.801  0.3303  0.1375  0.2263
  191MOL0     C25698   7.324   6.183   3.893 -0.1473 -0.0645  0.0139
  191MOL0     C25699   7.237   6.259   3.964  0.1312 -0.5762  0.0461
  191MOL0     N25700   6.965   6.378   4.723  0.7962 -0.0727  0.5468
  191MOL0     N25701   6.991   6.446   4.828 -0.1500 -0.6406 -0.9305
  191MOL0     C25702   6.808   7.230   5.632 -0.6147 -0.8963  0.3467
  191MOL0     C25703   6.689   7.240   5.701 -0.3957 -1.5619  0.6140
  191MOL0     C25704   6.331   7.218   5.965  0.1343  0.2952 -0.6964
  191MOL0     C25705   6.330   7.336   6.044  0.8194  0.4334 -0.2141
  191MOL0     C25706   6.218   7.373   6.126 -0.0083 -0.3481 -0.4619
  191MOL0     C25707   6.108   7.290   6.122  0.6704 -0.3068 -0.9869
  191MOL0     O25708   5.991   7.308   6.205  0.3529  0.1106  1.3315
  191MOL0     C25709   5.969   7.450   6.259  0.6696  0.6802 -0.2317
  191MOL0     C25710   5.825   7.481   6.283  0.3149  0.2392 -0.0148
  191MOL0     C25711   5.724   7.473   6.170  0.2779 -0.0157 -0.5732
  191MOL0     C25712   5.744   7.542   6.031  0.3064 -0.3840 -0.0003
  191MOL0     C25713   5.835   7.472   5.941  0.3537 -0.1092 -0.3497
  191MOL0     C25714   5.916   7.410   5.881  0.8738  1.1133  0.0072
  191MOL0     C25715   6.113   7.170   6.054  0.0322 -0.5423 -1.1173
  191MOL0     C25716   6.221   7.123   5.979  0.1283 -0.9061 -0.0073
  191MOL0     C25717   6.213   6.990   5.917 -0.1012 -0.4915 -1.0266
  191MOL0     H25718   6.804   7.130   5.994 -0.3938 -1.5464 -0.7269
  191MOL0     H25719   7.003   7.105   5.878 -0.5405 -2.3315  0.2888
  191MOL0     H25720   6.954   7.024   5.500 -1.7148  1.1739  2.6309
  191MOL0     H25721   6.964   7.189   5.434 -1.1388  0.1333  1.9150
  191MOL0     H25722   7.201   7.007   5.491 -2.0014 -2.3435  0.1399
  191MOL0     H25723   7.204   7.153   5.379  0.5920 -2.9542 -4.7715
  191MOL0     H25724   7.206   6.993   5.221  2.4090  0.4007  1.7439
  191MOL0     H25725   7.030   7.018   5.253  0.3025  0.3578  1.0283
  191MOL0     H25726   7.198   6.800   5.378 -0.8710  0.2022  0.2166
  191MOL0     H25727   7.021   6.811   5.384 -1.3532  1.1675 -1.0641
  191MOL0     H25728   7.179   6.782   5.137  1.3975 -0.7665  1.5557
  191MOL0     H25729   7.090   6.650   5.202 -0.8711 -0.5911 -1.0032
  191MOL0     H25730   6.891   6.790   5.193  2.2594  2.4439  2.0679
  191MOL0     H25731   6.975   6.901   5.078  0.4015 -0.4438 -0.0165
  191MOL0     H25732   6.821   6.719   4.968  0.7365  0.4486  0.5075
  191MOL0     H25733   6.894   6.601   5.056 -2.1382 -0.0191 -1.3125
  191MOL0     H25734   7.017   6.769   4.829  2.9235 -0.6044 -0.3596
  191MOL0     H25735   7.117   6.660   4.923  0.4168 -0.2232 -1.2248
  191MOL0     H25736   6.844   6.678   4.648 -0.6966  0.3818  2.8232
  191MOL0     H25737   6.813   6.318   4.483 -1.7522  1.1056 -1.4071
  191MOL0     H25738   6.750   6.480   4.472 -0.1745  1.1923 -1.4858
  191MOL0     H25739   6.904   6.402   4.299  2.0891  0.5400 -1.2650
  191MOL0     H25740   6.927   6.575   4.359  1.0578  1.0654  5.1390
  191MOL0     H25741   7.112   6.341   4.458 -2.7792  0.5383  1.7631
  191MOL0     H25742   7.141   6.510   4.471 -1.3134 -0.4815  1.4497
  191MOL0     H25743   7.259   6.464   4.259 -0.0616 -1.6609  2.9984
  191MOL0     H25744   7.109   6.538   4.215 -1.5761 -1.9353 -3.7250
  191MOL0     H25745   7.311   6.196   4.289  1.3679  1.6151 -0.4959
  191MOL0     H25746   7.494   6.060   4.175 -0.6084  0.1243  0.2794
  191MOL0     H25747   7.540   5.650   3.991 -0.9552  2.2450 -0.0158
  191MOL0     H25748   7.700   5.486   3.932  2.4614 -1.1146 -0.0062
  191MOL0     H25749   8.101   5.515   3.753  0.1530  1.1040 -0.1980
  191MOL0     H25750   8.117   5.635   3.871 -1.5510  0.4330 -1.2987
  191MOL0     H25751   8.152   5.493   4.045  0.5931  1.6384 -0.9952
  191MOL0     H25752   8.175   5.340   3.962  2.6503  0.3614  1.2827
  191MOL0     H25753   8.336   5.458   3.812  1.1372  3.0847 -1.5441
  191MOL0     H25754   8.346   5.593   3.931 -1.4250 -0.1735  0.6286
  191MOL0     H25755   8.413   5.294   3.971  0.9719  0.2523  2.7757
  191MOL0     H25756   8.423   5.422   4.092 -1.7220 -2.5413  1.9621
  191MOL0     H25757   8.641   5.437   4.025 -0.4123 -1.0328 -0.4781
  191MOL0     H25758   8.565   5.548   3.902  3.4771 -0.6779 -0.2440
  191MOL0     H25759   8.605   5.250   3.858 -0.3795  0.0559 -2.5846
  191MOL0     H25760   8.562   5.377   3.741  1.7544 -1.3690 -2.0991
  191MOL0     H25761   8.818   5.365   3.892 -2.3479 -1.2123  0.4333
  191MOL0     H25762   8.759   5.491   3.798 -0.2635 -0.1785 -0.6378
  191MOL0     H25763   8.818   5.202   3.688  3.0793  0.6760  0.7114
  191MOL0     H25764   8.747   5.347   3.604 -0.2559  2.1103  0.2151
  191MOL0     H25765   7.988   5.791   3.829  1.3496 -1.6837  1.7244
  191MOL0     H25766   7.790   5.963   3.864 -1.4822  0.1288  1.3479
  191MOL0     H25767   7.309   6.193   3.786 -1.6689 -1.3798  0.0790
  191MOL0     H25768   7.162   6.319   3.915  0.6269 -1.9767 -2.5982
  191MOL0     H25769   6.792   7.257   5.528  0.8396 -1.0195  0.0747
  191MOL0     H25770   6.600   7.272   5.649  0.5048 -0.5207 -0.3604
  191MOL0     H25771   6.415   7.403   6.048  2.9389 -2.0775  4.3544
  191MOL0     H25772   6.211   7.469   6.176 -1.0910 -0.2046 -0.8804
  191MOL0     H25773   6.007   7.534   6.198  0.7037  0.6691 -0.2259
  191MOL0     H25774   6.025   7.452   6.353 -2.4554  0.1784  1.7645
  191MOL0     H25775   5.817   7.583   6.324 -0.6284 -0.4634  1.6319
  191MOL0     H25776   5.794   7.413   6.363  1.9193 -0.5903 -0.0595
  191MOL0     H25777   5.630   7.515   6.206  1.2858 -0.0991  2.4613
  191MOL0     H25778   5.716   7.367   6.146  2.0714  0.6442 -5.0509
  191MOL0     H25779   5.643   7.546   5.988 -0.5778  0.1022  1.9997
  191MOL0     H25780   5.784   7.643   6.044  0.5747 -0.7894  3.0204
  191MOL0     H25781   5.978   7.348   5.818 -1.1908 -0.0351 -0.9845
  191MOL0     H25782   6.028   7.103   6.062  1.3856 -2.1482  0.5410
  191MOL0     H25783   6.149   6.932   5.984 -0.9302  3.5940  2.1316
  191MOL0     H25784   6.166   7.000   5.818  1.7891 -5.1199 -2.6522
  191MOL0     H25785   6.312   6.952   5.893  0.9963 -0.3181  2.6640
  192MOL0     O25786   0.165   0.878   9.599 -0.5961 -0.4982 -0.2749
  192MOL0     C25787   0.088   0.912   9.509 -0.3641  0.6703 -1.0332
  192MOL0     O25788   0.126   0.979   9.400 -0.3558  0.9427 -0.0387
  192MOL0     C25789   0.260   1.025   9.402 -0.1797  1.4707 -0.2229
  192MOL0     C25790   0.283   1.164   9.409  0.0561  0.4765 -0.5548
  192MOL0     C25791   0.414   1.206   9.436  0.4467  0.2190  0.1277
  192MOL0     C25792   0.523   1.111   9.441 -0.2047 -0.9049 -0.2591
  192MOL0     O25793   0.643   1.166   9.489  0.6728  0.4522 -0.5940
  192MOL0     C25794   0.750   1.086   9.508  0.4246  1.3224  0.1579
  192MOL0     C25795   0.745   1.039   9.657  0.0307  0.3053  0.7017
  192MOL0     C25796   0.733   1.154   9.756 -0.1598  0.6741 -0.0954
  192MOL0     C25797   0.855   1.175   9.843  0.2481  0.0421 -0.5010
  192MOL0     C25798   0.857   1.315   9.915  0.9641  0.4263  0.3709
  192MOL0     C25799   0.829   1.444   9.834  0.0151 -0.8673  0.2224
  192MOL0     C25800   0.917   1.469   9.698  0.9569 -0.0665 -0.6596
  192MOL0     C25801   1.066   1.426   9.711 -0.9905 -0.5359 -0.1366
  192MOL0     N25802   1.144   1.517   9.791  0.7237  0.9397  0.5919
  192MOL0     C25803   1.151   1.509   9.926 -1.0765 -0.2848  0.5038
  192MOL0     C25804   1.202   1.619   9.970 -0.5674  1.0015  0.2679
  192MOL0     C25805   1.198   1.637  10.120  0.7015  0.2812 -0.2916
  192MOL0     C25806   1.201   1.787  10.157 -0.2532 -0.2246 -0.3186
  192MOL0     C25807   1.268   1.791  10.290 -0.6599  0.8065 -0.0035
  192MOL0     C25808   1.267   1.922  10.361  1.1996  0.2942  0.0360
  192MOL0     O25809   1.325   1.908  10.499 -0.9114  0.9060  0.1753
  192MOL0     C25810   1.461   1.894  10.497  1.2949  0.1058  0.0523
  192MOL0     C25811   1.554   1.995  10.465 -0.1628 -0.3160  0.2546
  192MOL0     C25812   1.690   1.971  10.479  0.6949 -0.3238 -0.3178
  192MOL0     C25813   1.741   1.851  10.533 -0.2963 -0.8509  0.0084
  192MOL0     C25814   1.889   1.848  10.550  0.4900  0.2292 -0.8275
  192MOL0     O25815   1.961   1.962  10.561 -0.9188  0.0730  0.3065
  192MOL0     C25816   2.099   1.946  10.551 -0.0793  0.5919  0.1404
  192MOL0     C25817   2.157   1.916  10.422  1.0037  0.1173  0.6719
  192MOL0     C25818   2.301   1.917  10.408  0.6812  0.7864  0.4780
  192MOL0     C25819   2.378   1.939  10.521 -0.8515  0.0037 -0.2824
  192MOL0     O25820   2.512   1.947  10.490 -0.1279 -0.2255 -0.7994
  192MOL0     C25821   2.595   2.039  10.562 -0.3147 -0.0827  0.3691
  192MOL0     C25822   2.725   2.061  10.486 -0.0159 -0.0547 -0.1561
  192MOL0     C25823   2.824   2.121  10.594  0.1321  0.3761 -0.2244
  192MOL0     C25824   2.938   2.184  10.528 -0.2625 -0.0386 -0.9910
  192MOL0     C25825   3.041   2.083  10.483 -0.0399  0.6905  0.0373
  192MOL0     C25826   3.157   2.157  10.414 -0.2561  0.9078  0.5197
  192MOL0     C25827   3.283   2.073  10.418 -0.3290  0.0410 -0.7683
  192MOL0     C25828   3.398   2.123  10.342  0.2682  0.0933 -0.6837
  192MOL0    Cl25829   3.458   2.290  10.415  0.1670  0.0345  0.3569
  192MOL0     C25830   2.317   1.966  10.652  0.6146  0.7272 -0.2460
  192MOL0     C25831   2.180   1.966  10.667 -0.5041  0.0508 -0.3893
  192MOL0     O25832   1.934   1.735  10.552  0.4574 -0.5364  0.6309
  192MOL0     C25833   1.648   1.743  10.558 -1.1236  0.1952  0.1661
  192MOL0     C25834   1.510   1.770  10.539 -0.3791  0.2011  0.1056
  192MOL0     N25835   1.222   1.695   9.855 -0.5441 -0.5755 -0.4416
  192MOL0     N25836   1.206   1.627   9.749 -0.0830 -0.5374 -0.0673
  192MOL0     C25837   0.496   0.975   9.420 -1.2044 -1.3217  0.3463
  192MOL0     C25838   0.365   0.930   9.405 -0.0038 -0.1727 -0.3948
  192MOL0     C25839  -0.055   0.886   9.521  1.3836  0.7228  0.1376
  192MOL0     C25840  -0.137   0.947   9.433 -0.2862 -0.7618  0.5086
  192MOL0     C25841  -0.276   0.917   9.419  0.1180  0.1322 -0.2464
  192MOL0     C25842  -0.328   0.823   9.497  0.6044 -0.3076 -0.4768
  192MOL0     O25843  -0.465   0.811   9.478 -0.1828 -0.2900  0.7425
  192MOL0     C25844  -0.551   0.719   9.546  0.4330 -0.2254 -0.3834
  192MOL0     C25845  -0.690   0.716   9.479 -0.6588 -0.5013 -0.1230
  192MOL0     C25846  -0.761   0.843   9.482  0.8924 -0.2750  0.4346
  192MOL0     C25847  -0.907   0.842   9.427  0.2040 -0.4009 -0.7970
  192MOL0     C25848  -0.955   0.987   9.430 -0.4508  0.1085  0.5234
  192MOL0     C25849  -1.003   1.099   9.429  0.2772  0.3873 -1.3083
  192MOL0     C25850  -0.255   0.748   9.588  0.0753 -0.3646  0.7652
  192MOL0     C25851  -0.121   0.786   9.600  0.2353  0.8236 -1.5128
  192MOL0     C25852  -0.042   0.711   9.717  0.7154  0.1910  0.3344
  192MOL0     H25853   0.199   1.232   9.402 -2.3021 -1.9830  1.4074
  192MOL0     H25854   0.434   1.312   9.436  0.5787  0.1973  0.4618
  192MOL0     H25855   0.763   1.005   9.436  0.5246  1.8469 -0.4192
  192MOL0     H25856   0.843   1.144   9.512  0.0775  1.9035 -0.0804
  192MOL0     H25857   0.838   0.987   9.683 -0.0249  0.5034  1.3177
  192MOL0     H25858   0.651   0.983   9.653 -1.5800  2.7138  1.8785
  192MOL0     H25859   0.641   1.143   9.815 -0.0422 -0.1493 -0.0431
  192MOL0     H25860   0.716   1.242   9.695 -1.5003  0.5769  0.0961
  192MOL0     H25861   0.863   1.100   9.922  5.5886  2.2603  1.6056
  192MOL0     H25862   0.946   1.171   9.782 -0.7261 -0.7310 -1.9529
  192MOL0     H25863   0.769   1.300   9.979 -0.6801  1.1596 -1.6146
  192MOL0     H25864   0.948   1.330   9.974 -1.6473  1.4012  4.6508
  192MOL0     H25865   0.726   1.426   9.804 -0.4058  1.0979  0.3653
  192MOL0     H25866   0.855   1.528   9.899 -0.7963  0.2696 -0.8731
  192MOL0     H25867   0.904   1.574   9.673  1.8513  0.5876  1.4377
  192MOL0     H25868   0.867   1.402   9.626  1.2888  0.3172 -1.2546
  192MOL0     H25869   1.075   1.328   9.758  0.6740  0.5849  2.0534
  192MOL0     H25870   1.119   1.413   9.617 -0.4546 -0.1677  0.1119
  192MOL0     H25871   1.140   1.425   9.994  4.3264 -1.0492  0.9374
  192MOL0     H25872   1.110   1.593  10.168  0.9108 -0.1723 -0.3152
  192MOL0     H25873   1.274   1.572  10.166 -0.5822 -1.2428 -0.2309
  192MOL0     H25874   1.262   1.847  10.089  1.7284  0.7028  2.1413
  192MOL0     H25875   1.105   1.838  10.146 -1.0214 -1.1470  1.7607
  192MOL0     H25876   1.368   1.749  10.302 -1.5837 -1.4007  0.6251
  192MOL0     H25877   1.216   1.728  10.363  0.7716  1.0685  1.3083
  192MOL0     H25878   1.162   1.944  10.378  0.7898 -0.9342 -0.7917
  192MOL0     H25879   1.315   2.007  10.310 -0.6041  1.5521  0.3463
  192MOL0     H25880   1.524   2.093  10.428 -0.3375 -0.2779  0.4903
  192MOL0     H25881   1.757   2.052  10.452  0.4949 -0.2332 -0.5483
  192MOL0     H25882   2.088   1.915  10.339  0.8770  0.9058  0.7664
  192MOL0     H25883   2.344   1.902  10.309  0.3587 -0.4757  0.5066
  192MOL0     H25884   2.556   2.140  10.576  1.5057  1.1572 -2.4464
  192MOL0     H25885   2.625   1.989  10.654  0.9356  2.0048  1.1790
  192MOL0     H25886   2.769   1.964  10.461  2.0998  0.8740 -0.2381
  192MOL0     H25887   2.702   2.119  10.396 -0.0511 -2.4800 -1.8328
  192MOL0     H25888   2.778   2.194  10.661  2.3161  0.2849  1.4998
  192MOL0     H25889   2.854   2.034  10.653  1.2471 -1.0020 -2.6952
  192MOL0     H25890   2.978   2.265  10.590 -1.0429  1.3226 -2.1946
  192MOL0     H25891   2.901   2.225  10.433  0.2588  0.5120 -0.9615
  192MOL0     H25892   3.001   2.010  10.411  0.7720  1.7186 -1.5099
  192MOL0     H25893   3.065   2.030  10.576  2.4686 -1.1352 -1.5117
  192MOL0     H25894   3.131   2.170  10.308  0.5172  2.1487  0.4577
  192MOL0     H25895   3.187   2.256  10.451 -0.3199  0.8455  0.7412
  192MOL0     H25896   3.268   1.970  10.384 -1.1631 -0.4976  1.1193
  192MOL0     H25897   3.311   2.068  10.523  0.2502  0.4623 -0.9023
  192MOL0     H25898   3.475   2.046  10.357 -2.8127 -3.2009 -0.3803
  192MOL0     H25899   3.378   2.137  10.236  0.3014 -0.4436 -0.7639
  192MOL0     H25900   2.379   1.979  10.740  1.7486  2.6124 -1.2691
  192MOL0     H25901   2.138   1.986  10.765  2.4598  1.6651  0.6733
  192MOL0     H25902   1.690   1.644  10.573 -1.2464 -0.6312 -3.8137
  192MOL0     H25903   1.456   1.676  10.543 -0.2462  0.1481  0.9570
  192MOL0     H25904   0.569   0.895   9.418 -0.1334 -0.3590 -0.0921
  192MOL0     H25905   0.342   0.826   9.381 -1.3805 -0.4336  1.6881
  192MOL0     H25906  -0.098   1.016   9.357  1.6455 -0.1350  1.9874
  192MOL0     H25907  -0.333   0.983   9.354 -2.1453  0.2369  1.7162
  192MOL0     H25908  -0.565   0.732   9.654  3.8134 -2.9025  0.5990
  192MOL0     H25909  -0.514   0.616   9.547 -0.9997 -0.7678 -0.8810
  192MOL0     H25910  -0.755   0.638   9.520 -1.0891 -0.2974 -0.4225
  192MOL0     H25911  -0.674   0.694   9.373 -1.5993 -3.1532  0.2218
  192MOL0     H25912  -0.704   0.924   9.436  1.4160  0.7426  2.7432
  192MOL0     H25913  -0.777   0.879   9.584  1.2333  0.5180  0.2108
  192MOL0     H25914  -0.920   0.801   9.326  1.2994  0.0988 -1.1581
  192MOL0     H25915  -0.968   0.771   9.484  2.1735 -2.6889 -1.3409
  192MOL0     H25916  -1.049   1.196   9.426  1.0476  1.0343  2.4715
  192MOL0     H25917  -0.302   0.664   9.640 -0.9215 -0.2759  0.0457
  192MOL0     H25918  -0.100   0.623   9.749  1.6057 -0.2003  0.9078
  192MOL0     H25919   0.059   0.682   9.688  2.0593  2.8139  2.0948
  192MOL0     H25920  -0.040   0.785   9.797 -0.0564  1.9484 -1.1984
  193MOL0     O25921   7.635   7.189   6.329  0.1936 -0.0951  0.3971
  193MOL0     C25922   7.531   7.196   6.391  0.9083 -0.2401 -0.6151
  193MOL0     O25923   7.409   7.200   6.323  0.3177 -0.0752 -0.0930
  193MOL0     C25924   7.393   7.119   6.222  0.4972 -0.0245  0.1029
  193MOL0     C25925   7.351   7.169   6.093 -0.7328  0.6899 -0.3504
  193MOL0     C25926   7.288   7.083   6.002  0.6339  0.8016  0.0605
  193MOL0     C25927   7.295   6.938   6.015 -0.4511  0.0694 -0.3324
  193MOL0     O25928   7.253   6.850   5.922  0.1168 -0.1204  0.2482
  193MOL0     C25929   7.317   6.870   5.795  0.3871 -0.4936 -0.1794
  193MOL0     C25930   7.303   6.745   5.716  0.1125  0.1003  1.1117
  193MOL0     C25931   7.400   6.640   5.736 -0.9538  0.2277  0.5473
  193MOL0     C25932   7.380   6.508   5.662 -0.6269 -0.5319  0.0349
  193MOL0     C25933   7.368   6.520   5.509 -0.5206 -0.2742 -0.1498
  193MOL0     C25934   7.346   6.383   5.451 -0.5135 -0.4735  0.5317
  193MOL0     C25935   7.347   6.401   5.299  0.7779  0.3095 -0.4055
  193MOL0     C25936   7.480   6.388   5.227 -0.0076 -0.8537  0.2362
  193MOL0     N25937   7.454   6.409   5.085 -0.4630  0.4230 -0.3713
  193MOL0     C25938   7.337   6.404   5.010 -0.7602 -0.2206 -0.5168
  193MOL0     C25939   7.375   6.433   4.871 -0.6128 -0.2251 -0.4710
  193MOL0     C25940   7.306   6.430   4.735  0.3904  0.1695 -1.3570
  193MOL0     C25941   7.277   6.288   4.703  0.6517 -0.8927 -0.2916
  193MOL0     C25942   7.389   6.218   4.623 -1.6551 -1.5548  0.0418
  193MOL0     C25943   7.360   6.076   4.584 -0.4250 -0.2757 -1.1405
  193MOL0     O25944   7.452   6.030   4.492  0.1006  1.0315  0.5679
  193MOL0     C25945   7.444   5.892   4.482 -0.5015  0.0870  0.5149
  193MOL0     C25946   7.400   5.829   4.369  0.4601 -0.0870 -0.1378
  193MOL0     C25947   7.367   5.693   4.380 -0.2092 -0.8453  0.6786
  193MOL0     C25948   7.383   5.630   4.506  0.2239 -0.2204 -0.5236
  193MOL0     C25949   7.325   5.496   4.520 -0.7864 -0.0810 -0.0860
  193MOL0     O25950   7.394   5.396   4.593 -0.0824  0.0492 -0.3389
  193MOL0     C25951   7.347   5.270   4.603  0.2450  0.0850  0.0098
  193MOL0     C25952   7.450   5.178   4.632 -0.3081 -0.7255  0.7342
  193MOL0     C25953   7.436   5.039   4.634 -0.9052  0.7358  0.3371
  193MOL0     C25954   7.317   4.976   4.613 -0.5556 -0.0726 -0.2858
  193MOL0     O25955   7.301   4.841   4.596 -1.0864 -0.1525 -0.5533
  193MOL0     C25956   7.175   4.790   4.561  0.1215  0.2512 -0.2073
  193MOL0     C25957   7.189   4.634   4.546  0.1653  0.5359  0.8495
  193MOL0     C25958   7.085   4.576   4.448  0.0633 -0.4870 -0.0377
  193MOL0     C25959   6.940   4.583   4.513 -0.2730  0.7281  0.6925
  193MOL0     C25960   6.837   4.477   4.442  0.9051  0.3456  0.4558
  193MOL0     C25961   6.865   4.326   4.453  0.5266  0.4208  0.3342
  193MOL0     C25962   6.741   4.243   4.414 -0.3237  0.5442 -0.3778
  193MOL0     C25963   6.791   4.096   4.412  0.8156 -0.0347 -0.5460
  193MOL0    Cl25964   6.651   3.981   4.437 -0.0562  0.5159 -0.5382
  193MOL0     C25965   7.211   5.070   4.587 -0.4258 -0.3843 -0.1240
  193MOL0     C25966   7.221   5.210   4.572  0.1272 -0.2778 -0.4226
  193MOL0     O25967   7.212   5.482   4.477 -0.2143 -0.6809  0.2347
  193MOL0     C25968   7.454   5.693   4.614  0.5584  1.3392  0.4428
  193MOL0     C25969   7.478   5.827   4.606 -0.0991 -0.3336  0.6099
  193MOL0     N25970   7.512   6.457   4.879  0.4695  0.0141  0.7119
  193MOL0     N25971   7.552   6.455   5.001 -0.2935  0.4381 -0.1978
  193MOL0     C25972   7.340   6.893   6.138 -0.3894  0.2146  0.2159
  193MOL0     C25973   7.393   6.980   6.235 -0.1630 -0.0012  0.1971
  193MOL0     C25974   7.525   7.231   6.533 -0.0068 -0.7398 -1.5934
  193MOL0     C25975   7.650   7.212   6.606  0.6864 -0.1542  0.2783
  193MOL0     C25976   7.656   7.270   6.733  0.2224  0.1144  0.0640
  193MOL0     C25977   7.546   7.331   6.790 -0.6021 -0.6003 -0.4562
  193MOL0     O25978   7.536   7.385   6.920  0.7366  0.3341 -0.1416
  193MOL0     C25979   7.631   7.332   7.008 -0.1437  0.4153  0.4721
  193MOL0     C25980   7.615   7.360   7.160  0.3961  0.8420  0.5119
  193MOL0     C25981   7.464   7.346   7.200 -0.6763 -0.6539 -0.3607
  193MOL0     C25982   7.442   7.371   7.354 -0.6582  0.3152  0.3417
  193MOL0     C25983   7.497   7.486   7.408 -0.4752 -0.0227 -0.3553
  193MOL0     C25984   7.527   7.601   7.436  0.5787  0.7142 -0.0988
  193MOL0     C25985   7.429   7.336   6.721  0.3503  0.5977 -0.0831
  193MOL0     C25986   7.416   7.292   6.593  0.4347 -0.3280  0.5981
  193MOL0     C25987   7.291   7.329   6.526  0.3865  0.3464  0.4133
  193MOL0     H25988   7.346   7.277   6.107 -1.7197  0.3446  2.8225
  193MOL0     H25989   7.253   7.129   5.910  3.3610  3.1405  0.0417
  193MOL0     H25990   7.272   6.948   5.732  2.9593 -0.6765 -2.4351
  193MOL0     H25991   7.423   6.895   5.803  0.4401  0.5733 -2.9946
  193MOL0     H25992   7.322   6.778   5.614 -2.8321  0.1418  0.4901
  193MOL0     H25993   7.198   6.714   5.711 -0.4359  2.0084 -1.0916
  193MOL0     H25994   7.397   6.607   5.841  0.3450 -3.0672 -0.3434
  193MOL0     H25995   7.501   6.681   5.723 -0.5281 -1.6415 -3.0263
  193MOL0     H25996   7.460   6.442   5.697  0.0999 -0.1868 -0.9371
  193MOL0     H25997   7.282   6.471   5.695 -3.1857  0.3773 -5.4552
  193MOL0     H25998   7.275   6.574   5.489 -0.5864 -0.4750 -0.3873
  193MOL0     H25999   7.445   6.585   5.466  0.8567  1.5801  4.4866
  193MOL0     H26000   7.441   6.331   5.463  3.3715  4.0982 -5.0753
  193MOL0     H26001   7.258   6.333   5.495  1.1968 -4.6622 -0.3384
  193MOL0     H26002   7.304   6.500   5.279 -0.6032 -0.2630 -0.3788
  193MOL0     H26003   7.275   6.323   5.274  0.8326  0.0337  0.2715
  193MOL0     H26004   7.552   6.464   5.259  0.3429 -0.5475 -1.2108
  193MOL0     H26005   7.529   6.292   5.245  1.6181 -0.2453 -0.7928
  193MOL0     H26006   7.240   6.385   5.053  0.3012 -1.2850  1.5641
  193MOL0     H26007   7.222   6.496   4.758  2.3518  2.3856 -0.1337
  193MOL0     H26008   7.374   6.481   4.666  1.5019  1.3730  0.5337
  193MOL0     H26009   7.250   6.231   4.792 -1.5524  0.7949  0.2278
  193MOL0     H26010   7.191   6.301   4.636  1.1850 -1.7995 -1.1720
  193MOL0     H26011   7.489   6.231   4.667 -2.9225  0.7088  2.5382
  193MOL0     H26012   7.402   6.263   4.524 -2.5439 -0.9391  0.2021
  193MOL0     H26013   7.261   6.081   4.538 -0.4917 -0.3698 -1.0081
  193MOL0     H26014   7.355   6.018   4.676  1.8941  1.3111  0.0870
  193MOL0     H26015   7.372   5.894   4.287 -0.6281 -0.4282 -0.0572
  193MOL0     H26016   7.306   5.648   4.303 -1.9113  0.8181  0.9728
  193MOL0     H26017   7.545   5.223   4.660 -0.2950  0.0589 -0.5008
  193MOL0     H26018   7.525   4.979   4.648  1.9436  4.4642 -0.1623
  193MOL0     H26019   7.105   4.814   4.641  1.2959  0.5658  0.7645
  193MOL0     H26020   7.144   4.825   4.462  1.5917 -3.7961 -2.3119
  193MOL0     H26021   7.290   4.606   4.513  0.8230  1.2839  2.1216
  193MOL0     H26022   7.181   4.580   4.640 -0.6198 -0.0301  0.4660
  193MOL0     H26023   7.075   4.635   4.357 -0.0456  1.3067  1.0872
  193MOL0     H26024   7.114   4.474   4.420 -1.1341 -2.0055  3.5930
  193MOL0     H26025   6.900   4.685   4.520  3.1273  2.2561 -0.0564
  193MOL0     H26026   6.947   4.558   4.619  2.3257  0.6261  0.5505
  193MOL0     H26027   6.843   4.506   4.336  2.7876  2.1406  0.9850
  193MOL0     H26028   6.738   4.495   4.485  1.3547  1.7308  0.9646
  193MOL0     H26029   6.943   4.286   4.387 -0.7801 -0.1791 -0.9181
  193MOL0     H26030   6.888   4.306   4.558 -2.2714 -1.7879  0.6587
  193MOL0     H26031   6.706   4.280   4.317  0.7327  1.1357 -0.5486
  193MOL0     H26032   6.671   4.252   4.497  0.9183  1.3932  0.6179
  193MOL0     H26033   6.828   4.069   4.313  0.1704  0.5330 -0.9532
  193MOL0     H26034   6.862   4.066   4.490 -1.9520 -0.8733  1.8436
  193MOL0     H26035   7.112   5.026   4.575 -0.7030 -0.1132  1.0524
  193MOL0     H26036   7.126   5.253   4.539 -0.3620 -1.5751 -0.7709
  193MOL0     H26037   7.467   5.633   4.703 -2.0977  0.0792  0.0933
  193MOL0     H26038   7.517   5.871   4.697  1.6668 -1.5372  0.4838
  193MOL0     H26039   7.325   6.789   6.166 -1.7266  0.3271  0.0013
  193MOL0     H26040   7.420   6.935   6.330  0.6861  0.7781  0.3362
  193MOL0     H26041   7.745   7.185   6.562  0.8342  0.6212  0.1092
  193MOL0     H26042   7.754   7.262   6.780  2.2326 -4.1579 -4.0534
  193MOL0     H26043   7.735   7.355   6.987 -0.2427 -0.2015 -0.7843
  193MOL0     H26044   7.624   7.223   7.019 -2.2657  0.5601  1.0720
  193MOL0     H26045   7.658   7.456   7.190 -0.1087  0.4104  2.8558
  193MOL0     H26046   7.659   7.287   7.228 -2.8186  1.1636  3.2209
  193MOL0     H26047   7.427   7.246   7.174 -0.7940 -0.6870 -0.0712
  193MOL0     H26048   7.410   7.425   7.149 -0.6851 -1.1128 -1.0712
  193MOL0     H26049   7.334   7.382   7.370 -0.9446  1.1492 -1.7868
  193MOL0     H26050   7.478   7.283   7.408  2.3011  0.2885 -1.4933
  193MOL0     H26051   7.560   7.697   7.469 -0.1023  1.8105 -2.4146
  193MOL0     H26052   7.345   7.371   6.781 -0.8447 -0.3616 -1.1281
  193MOL0     H26053   7.223   7.247   6.501 -1.0307  2.1624 -2.1608
  193MOL0     H26054   7.224   7.390   6.587 -2.3565 -1.8173 -0.2142
  193MOL0     H26055   7.313   7.388   6.436  0.4052  0.8188  0.7251
  194MOL0     O26056  10.319   2.161   2.994 -0.8819  0.3245  0.3757
  194MOL0     C26057  10.431   2.125   3.051 -0.0394 -1.5219  0.2542
  194MOL0     O26058  10.552   2.153   2.999  0.7314 -0.0300  0.0349
  194MOL0     C26059  10.563   2.249   2.901  0.2306 -0.0036 -0.2187
  194MOL0     C26060  10.511   2.245   2.772 -0.3303  0.0888  0.1186
  194MOL0     C26061  10.542   2.331   2.668  0.2232  0.0557  0.0548
  194MOL0     C26062  10.621   2.444   2.687 -0.0238 -0.4986 -0.3180
  194MOL0     O26063  10.652   2.518   2.574  0.1517  0.0898 -0.2449
  194MOL0     C26064  10.733   2.640   2.584 -1.0940 -1.8513  0.2495
  194MOL0     C26065  10.754   2.718   2.450 -0.0917  0.6018  0.0745
  194MOL0     C26066  10.833   2.848   2.482  0.4631 -0.7458  0.1325
  194MOL0     C26067  10.860   2.927   2.348  0.5642  0.6002  0.1816
  194MOL0     C26068  10.923   3.062   2.380  0.1427  0.8113  1.0229
  194MOL0     C26069  11.036   3.057   2.484  0.0570 -0.3362 -0.3135
  194MOL0     C26070  11.114   3.188   2.489  0.4571 -0.4638  0.5163
  194MOL0     C26071  11.241   3.171   2.577 -0.3689 -0.6870 -0.1762
  194MOL0     N26072  11.295   3.306   2.592  0.4709 -0.0405  1.0062
  194MOL0     C26073  11.304   3.401   2.490 -0.1477 -0.3938  0.1227
  194MOL0     C26074  11.353   3.515   2.539  1.1461  0.2093 -0.4155
  194MOL0     C26075  11.375   3.649   2.488  0.1503 -0.1026 -0.5407
  194MOL0     C26076  11.499   3.630   2.402  0.5793  0.0129 -0.7348
  194MOL0     C26077  11.540   3.760   2.332 -0.6442  0.0351  0.1146
  194MOL0     C26078  11.613   3.861   2.421  0.0386  0.4788 -0.1688
  194MOL0     O26079  11.640   3.971   2.338 -0.1135 -0.3499  0.1011
  194MOL0     C26080  11.704   4.079   2.399  0.3940  0.6142  0.4135
  194MOL0     C26081  11.809   4.069   2.493 -1.1130 -0.2967  0.1489
  194MOL0     C26082  11.887   4.180   2.533  0.2618 -0.3901  0.4076
  194MOL0     C26083  11.864   4.309   2.477  0.3380  0.3725  0.1724
  194MOL0     C26084  11.966   4.421   2.506 -0.7803 -0.1728  0.4048
  194MOL0     O26085  12.057   4.398   2.615  0.8830 -0.1557 -0.0457
  194MOL0     C26086  12.171   4.470   2.600 -1.2852  0.2926  0.8568
  194MOL0     C26087  12.248   4.483   2.479 -0.1548 -0.4650  0.1883
  194MOL0     C26088  12.370   4.554   2.478 -0.1942  0.6660 -0.6100
  194MOL0     C26089  12.413   4.622   2.599  0.0498  0.2006  0.2729
  194MOL0     O26090  12.513   4.717   2.611  0.0131  0.4842 -0.8819
  194MOL0     C26091  12.568   4.781   2.495 -0.2566  0.3054  0.7904
  194MOL0     C26092  12.693   4.863   2.536  0.6732  0.3454  0.2909
  194MOL0     C26093  12.795   4.860   2.419  0.4065  0.2806 -0.0037
  194MOL0     C26094  12.732   4.879   2.276 -0.0533 -0.0624  0.5132
  194MOL0     C26095  12.836   4.889   2.169  0.4234  0.1900 -0.1517
  194MOL0     C26096  12.770   4.927   2.031  0.2431  0.0702  0.1749
  194MOL0     C26097  12.710   4.802   1.951 -0.8880 -0.7539  0.6467
  194MOL0     C26098  12.675   4.843   1.804 -0.4438 -0.3929 -0.3814
  194MOL0    Cl26099  12.792   4.955   1.717 -0.2240 -0.8371 -0.3576
  194MOL0     C26100  12.332   4.608   2.714  0.1260  1.0406  0.7936
  194MOL0     C26101  12.218   4.530   2.715  0.0532 -0.6062 -0.0271
  194MOL0     O26102  11.969   4.502   2.414 -1.0073  0.2463 -0.4597
  194MOL0     C26103  11.767   4.314   2.374 -0.1166  0.1894 -0.2723
  194MOL0     C26104  11.690   4.205   2.342  0.0504 -0.1418  0.8600
  194MOL0     N26105  11.367   3.491   2.674 -0.6149  0.4601 -0.2445
  194MOL0     N26106  11.331   3.371   2.707  0.7829  0.1293 -0.1780
  194MOL0     C26107  10.667   2.458   2.820  0.3645  0.4536  0.3193
  194MOL0     C26108  10.644   2.362   2.918  0.8137 -0.5845  0.4389
  194MOL0     C26109  10.421   2.047   3.172  0.7377  1.5724 -0.8690
  194MOL0     C26110  10.333   1.937   3.174 -0.4384 -0.0535 -0.2819
  194MOL0     C26111  10.314   1.857   3.290  0.4183  0.2572 -0.6401
  194MOL0     C26112  10.387   1.881   3.404 -0.2760  0.7158  0.6591
  194MOL0     O26113  10.365   1.827   3.526  0.7008 -0.4320  0.5390
  194MOL0     C26114  10.298   1.704   3.549  0.3298 -0.2522 -0.3004
  194MOL0     C26115  10.322   1.665   3.697 -0.5442  0.0101 -0.5221
  194MOL0     C26116  10.254   1.742   3.811 -0.2230  0.9225  0.2519
  194MOL0     C26117  10.310   1.700   3.951 -0.5705 -0.1351  0.2685
  194MOL0     C26118  10.249   1.791   4.049  0.3652  0.3926  0.2889
  194MOL0     C26119  10.201   1.860   4.133  0.3245 -0.9043  0.0992
  194MOL0     C26120  10.468   1.992   3.404  0.5055 -0.7315 -0.6148
  194MOL0     C26121  10.488   2.073   3.293  0.1137  0.4437  1.2496
  194MOL0     C26122  10.580   2.189   3.310 -0.4677  0.9273 -0.1963
  194MOL0     H26123  10.452   2.156   2.748  1.5145 -0.3846 -3.2875
  194MOL0     H26124  10.516   2.300   2.567  0.1614 -1.0722  0.3970
  194MOL0     H26125  10.704   2.700   2.671  2.2476  0.1756  0.1672
  194MOL0     H26126  10.837   2.616   2.609  0.1495  1.7391 -0.8273
  194MOL0     H26127  10.655   2.745   2.411  0.0342 -1.5358 -1.9953
  194MOL0     H26128  10.803   2.649   2.381  1.0665 -0.0064  1.4708
  194MOL0     H26129  10.928   2.820   2.528  1.0984  0.2789 -0.5109
  194MOL0     H26130  10.768   2.907   2.547  0.2327  0.4742 -1.1571
  194MOL0     H26131  10.929   2.873   2.283 -0.3214  0.6376 -0.8165
  194MOL0     H26132  10.776   2.950   2.282 -0.1672 -3.1323 -0.4432
  194MOL0     H26133  10.952   3.119   2.291 -2.0329 -3.2121 -2.6363
  194MOL0     H26134  10.837   3.118   2.418 -3.6998 -2.8923 -1.3173
  194MOL0     H26135  10.999   3.042   2.586 -1.7228 -0.0338 -0.8802
  194MOL0     H26136  11.100   2.976   2.447 -0.0373  0.2039 -1.6951
  194MOL0     H26137  11.056   3.270   2.532 -0.1046 -0.7785  0.3664
  194MOL0     H26138  11.132   3.204   2.382 -4.4855 -1.3519 -0.6949
  194MOL0     H26139  11.225   3.138   2.680  3.0275  0.7728  0.9653
  194MOL0     H26140  11.328   3.119   2.537  2.5989  2.1943  2.0296
  194MOL0     H26141  11.297   3.382   2.383 -1.5170 -0.1251  0.1415
  194MOL0     H26142  11.288   3.691   2.436 -1.1407 -2.7838 -0.7635
  194MOL0     H26143  11.393   3.709   2.577  1.7886  1.3282 -1.7576
  194MOL0     H26144  11.583   3.598   2.464  0.2058  2.8565  1.4566
  194MOL0     H26145  11.480   3.562   2.319  0.9054  1.9573 -2.4773
  194MOL0     H26146  11.458   3.807   2.276 -0.6227  1.1077  0.9689
  194MOL0     H26147  11.618   3.735   2.259 -0.9954 -0.5159 -0.0865
  194MOL0     H26148  11.700   3.818   2.471  0.0166  1.3834  0.6794
  194MOL0     H26149  11.555   3.912   2.499  1.5477  2.7120 -0.4361
  194MOL0     H26150  11.846   3.971   2.524 -0.6265 -0.5326 -1.1339
  194MOL0     H26151  11.962   4.173   2.611  0.3780  5.5655  1.3226
  194MOL0     H26152  12.213   4.436   2.387  0.0138 -2.1793  0.9690
  194MOL0     H26153  12.424   4.572   2.386  0.6728  1.3777  0.0222
  194MOL0     H26154  12.586   4.710   2.414  0.2451  2.1080 -0.7497
  194MOL0     H26155  12.493   4.848   2.453  0.8387 -0.5958 -2.9496
  194MOL0     H26156  12.657   4.964   2.555  0.5596  0.2126  0.7925
  194MOL0     H26157  12.725   4.827   2.634 -4.7836 -0.3261  2.1645
  194MOL0     H26158  12.875   4.928   2.446  2.8501 -2.6090  0.5773
  194MOL0     H26159  12.851   4.766   2.415  2.7037  1.5573  0.3379
  194MOL0     H26160  12.677   4.973   2.288  0.6562  0.3031  0.9645
  194MOL0     H26161  12.665   4.797   2.248 -0.4573  0.3220  0.3372
  194MOL0     H26162  12.898   4.800   2.158  2.7014  1.9283 -2.7456
  194MOL0     H26163  12.899   4.974   2.196 -2.3808  2.6391 -0.8225
  194MOL0     H26164  12.677   4.980   2.054  1.0832  0.4245  3.0988
  194MOL0     H26165  12.836   4.987   1.967 -3.8109  2.6291 -2.0648
  194MOL0     H26166  12.633   4.746   2.004 -0.5591 -2.6139 -0.7398
  194MOL0     H26167  12.788   4.726   1.940  0.3685  0.4757  0.7549
  194MOL0     H26168  12.664   4.750   1.747  1.0796 -1.5515  1.1202
  194MOL0     H26169  12.572   4.878   1.813 -1.1354 -1.1668 -3.9138
  194MOL0     H26170  12.358   4.653   2.809  3.8339 -1.0965  0.9713
  194MOL0     H26171  12.159   4.508   2.803 -0.8938  3.2428  0.4746
  194MOL0     H26172  11.760   4.408   2.320  0.8077  0.6505  0.3828
  194MOL0     H26173  11.615   4.214   2.264  1.0397 -1.8396 -0.3406
  194MOL0     H26174  10.731   2.544   2.840 -0.6827  1.5828 -0.9730
  194MOL0     H26175  10.688   2.363   3.018 -0.4658  3.1879  1.1331
  194MOL0     H26176  10.278   1.910   3.085 -2.8706 -1.3920  1.4972
  194MOL0     H26177  10.246   1.774   3.274  2.5760 -1.6109 -0.6610
  194MOL0     H26178  10.345   1.635   3.479  2.2408 -0.2813  0.9454
  194MOL0     H26179  10.190   1.700   3.528  0.3062  0.1708 -0.2773
  194MOL0     H26180  10.427   1.675   3.725 -0.2310 -1.0213 -1.2694
  194MOL0     H26181  10.290   1.560   3.703  0.5194 -0.2918  0.2084
  194MOL0     H26182  10.150   1.707   3.816  0.4644 -1.1179  3.1250
  194MOL0     H26183  10.261   1.849   3.792 -1.8124  1.1229  0.6840
  194MOL0     H26184  10.268   1.604   3.985 -2.0514  0.3374 -0.1329
  194MOL0     H26185  10.418   1.687   3.963 -0.8777 -1.8040  1.7262
  194MOL0     H26186  10.178   1.915   4.221 -1.5290 -1.1762 -0.1716
  194MOL0     H26187  10.523   2.029   3.490  1.4289  0.9720 -1.8872
  194MOL0     H26188  10.603   2.216   3.414  0.0405 -1.7127  0.4470
  194MOL0     H26189  10.676   2.164   3.264 -0.7579 -0.7811  0.0796
  194MOL0     H26190  10.536   2.269   3.250 -0.0751 -1.2543 -3.6804
  195MOL0     O26191   1.441   0.158  10.002  0.0091 -0.8509 -0.9194
  195MOL0     C26192   1.482   0.041  10.007  0.2022  0.7410  0.0756
  195MOL0     O26193   1.541  -0.020   9.894  0.5159  0.0851  0.3227
  195MOL0     C26194   1.549   0.042   9.765 -0.4157  0.4026 -0.5214
  195MOL0     C26195   1.447   0.113   9.712  0.8131 -0.3468 -0.2214
  195MOL0     C26196   1.452   0.148   9.577  0.2681 -0.7903 -0.2988
  195MOL0     C26197   1.561   0.115   9.493  0.4190  0.6287 -0.1162
  195MOL0     O26198   1.564   0.156   9.366  0.6602 -0.2199 -0.0566
  195MOL0     C26199   1.612   0.292   9.351 -1.0678  0.4994  0.2706
  195MOL0     C26200   1.752   0.294   9.307 -0.8984 -0.0772  0.5192
  195MOL0     C26201   1.767   0.215   9.172  1.1172  0.0716  0.2004
  195MOL0     C26202   1.909   0.156   9.154  0.0676 -0.2072  0.4624
  195MOL0     C26203   2.025   0.248   9.099 -0.4063  0.0827 -0.1517
  195MOL0     C26204   2.001   0.321   8.968  0.4221  0.7491  0.7959
  195MOL0     C26205   2.132   0.387   8.940  0.0373 -0.5788  0.9111
  195MOL0     C26206   2.113   0.504   8.832 -0.4013  0.1721  1.0267
  195MOL0     N26207   2.253   0.539   8.787  0.3451  0.1620 -0.3864
  195MOL0     C26208   2.362   0.572   8.855  0.0025 -0.1997 -0.7864
  195MOL0     C26209   2.463   0.587   8.767 -0.0663  0.7751  0.4381
  195MOL0     C26210   2.613   0.611   8.802 -0.1778  0.0711 -0.5359
  195MOL0     C26211   2.675   0.494   8.859  0.5111 -0.4985 -0.1403
  195MOL0     C26212   2.819   0.525   8.884  0.6645 -0.2609  1.0394
  195MOL0     C26213   2.898   0.404   8.932 -0.0797  0.5192 -1.0056
  195MOL0     O26214   3.040   0.430   8.956  0.0109 -0.3019  0.2900
  195MOL0     C26215   3.126   0.342   8.895  0.7588 -0.4647 -1.3225
  195MOL0     C26216   3.211   0.279   8.987 -0.2944  0.0274 -0.2345
  195MOL0     C26217   3.301   0.193   8.942 -0.5416  0.2427 -0.4390
  195MOL0     C26218   3.295   0.145   8.807 -0.4145  0.8419  0.0095
  195MOL0     C26219   3.400   0.048   8.765 -0.1875  0.4986  0.0779
  195MOL0     O26220   3.396   0.016   8.634  0.3280  0.3462 -0.9118
  195MOL0     C26221   3.500  -0.065   8.585 -0.4671 -0.1478  0.4132
  195MOL0     C26222   3.640  -0.055   8.621  0.4619 -0.1884  1.0600
  195MOL0     C26223   3.740  -0.136   8.555  0.1147  0.8691  0.2960
  195MOL0     C26224   3.698  -0.234   8.466  0.2610  0.9520  0.8941
  195MOL0     O26225   3.794  -0.307   8.402  0.0219 -0.2125  0.4856
  195MOL0     C26226   3.780  -0.444   8.416 -0.4028 -0.0336 -0.3936
  195MOL0     C26227   3.875  -0.502   8.313  0.3394 -0.3877  0.2287
  195MOL0     C26228   4.022  -0.452   8.313 -0.6596  0.1821  0.2652
  195MOL0     C26229   4.093  -0.476   8.449 -0.5481 -0.0312  0.6078
  195MOL0     C26230   4.217  -0.568   8.442 -0.9407 -0.5462  0.1745
  195MOL0     C26231   4.332  -0.502   8.363 -0.0178 -0.4138 -0.0602
  195MOL0     C26232   4.417  -0.596   8.282  0.9533 -0.5903  0.5089
  195MOL0     C26233   4.495  -0.539   8.162 -0.9114 -0.6796  1.0383
  195MOL0    Cl26234   4.648  -0.625   8.145 -0.0149 -0.3370  0.0368
  195MOL0     C26235   3.568  -0.242   8.430  0.4295  0.8820 -0.9033
  195MOL0     C26236   3.464  -0.156   8.482 -0.4971  0.0601  0.3979
  195MOL0     O26237   3.482   0.008   8.852 -0.2341  0.6170  0.0890
  195MOL0     C26238   3.196   0.201   8.720  0.0133 -0.5039 -0.7726
  195MOL0     C26239   3.110   0.300   8.758 -0.1668 -0.6392 -0.9833
  195MOL0     N26240   2.413   0.583   8.637 -0.5086  0.0789  0.0801
  195MOL0     N26241   2.289   0.547   8.648  0.4408 -0.1481 -0.2829
  195MOL0     C26242   1.669   0.041   9.543 -0.1680 -0.1175  0.6474
  195MOL0     C26243   1.660  -0.001   9.685 -1.0154  0.2199  0.8383
  195MOL0     C26244   1.451  -0.042  10.130 -0.7655  0.7091  0.7158
  195MOL0     C26245   1.372   0.018  10.231 -0.8873 -0.0074 -0.1742
  195MOL0     C26246   1.349  -0.048  10.346 -0.4345  0.3621  0.5401
  195MOL0     C26247   1.390  -0.182  10.368  0.4929 -0.0798  0.7242
  195MOL0     O26248   1.360  -0.251  10.489  0.0899 -0.1281 -0.0250
  195MOL0     C26249   1.217  -0.272  10.509  0.3681 -0.5622  0.5728
  195MOL0     C26250   1.210  -0.324  10.647 -0.1496  0.0545  0.1481
  195MOL0     C26251   1.208  -0.214  10.761  0.0032 -0.0377 -0.2804
  195MOL0     C26252   1.072  -0.129  10.775 -0.0516  0.2381  0.0964
  195MOL0     C26253   0.952  -0.214  10.766  0.0425  0.2522  0.5342
  195MOL0     C26254   0.847  -0.279  10.766 -0.2720 -0.7043  0.4380
  195MOL0     C26255   1.461  -0.247  10.267  0.1837 -0.3620  0.2327
  195MOL0     C26256   1.500  -0.178  10.151 -0.0603  0.3902 -1.1927
  195MOL0     C26257   1.566  -0.259  10.036 -0.3219 -0.3641 -1.2185
  195MOL0     H26258   1.361   0.150   9.767  2.9894  4.4317  0.4903
  195MOL0     H26259   1.367   0.200   9.535  0.6003 -1.1269 -1.4302
  195MOL0     H26260   1.562   0.341   9.267 -0.1946 -1.0852 -1.2464
  195MOL0     H26261   1.605   0.343   9.448  2.2129  2.1329 -0.2023
  195MOL0     H26262   1.819   0.262   9.387 -1.7814 -2.0759  0.5293
  195MOL0     H26263   1.772   0.401   9.299  2.6302 -0.7184 -0.9531
  195MOL0     H26264   1.731   0.275   9.087  0.6289  0.2389  0.5250
  195MOL0     H26265   1.702   0.128   9.167  1.5386 -0.2832  0.7809
  195MOL0     H26266   1.936   0.100   9.245 -4.4772 -4.5445 -0.4763
  195MOL0     H26267   1.896   0.071   9.087  1.0118 -1.5558  1.9126
  195MOL0     H26268   2.048   0.307   9.188  1.5368 -2.8415  1.4639
  195MOL0     H26269   2.107   0.176   9.094 -2.4928 -2.3933 -1.2312
  195MOL0     H26270   1.957   0.262   8.887  1.8865  0.5246  0.1281
  195MOL0     H26271   1.933   0.404   8.991  0.3619  0.4716  1.6872
  195MOL0     H26272   2.204   0.319   8.895  1.9107  1.6321  0.3742
  195MOL0     H26273   2.182   0.426   9.029  2.3604  2.3226 -1.4922
  195MOL0     H26274   2.051   0.467   8.750  1.2179 -3.6621  1.3084
  195MOL0     H26275   2.072   0.595   8.877  2.4078  1.1849  1.7422
  195MOL0     H26276   2.370   0.573   8.963 -1.1567 -1.0819 -0.6832
  195MOL0     H26277   2.661   0.615   8.704 -0.1378 -3.9843 -0.8539
  195MOL0     H26278   2.635   0.695   8.868 -0.8583 -0.9224  0.9949
  195MOL0     H26279   2.623   0.463   8.951 -0.3905 -0.4381 -0.6213
  195MOL0     H26280   2.665   0.418   8.781  1.9057  1.0880 -1.9268
  195MOL0     H26281   2.831   0.617   8.942  1.1418 -0.0287  0.5886
  195MOL0     H26282   2.861   0.553   8.787 -3.2783  2.5653 -0.1225
  195MOL0     H26283   2.890   0.316   8.868 -0.9322  0.7679 -1.2548
  195MOL0     H26284   2.858   0.379   9.031  0.7801  1.9503 -0.2564
  195MOL0     H26285   3.197   0.311   9.090 -0.5115  0.0027 -0.2559
  195MOL0     H26286   3.360   0.146   9.020 -2.3590 -1.9769 -0.2750
  195MOL0     H26287   3.676   0.009   8.701 -1.4074  0.6901  1.2512
  195MOL0     H26288   3.843  -0.114   8.578  0.5121  1.0437 -1.4587
  195MOL0     H26289   3.811  -0.475   8.516  1.8716 -1.7949 -1.5412
  195MOL0     H26290   3.678  -0.481   8.398 -0.0428 -2.1415  1.4325
  195MOL0     H26291   3.871  -0.610   8.329 -0.1592 -0.6582 -1.4966
  195MOL0     H26292   3.854  -0.478   8.208  2.7183  0.2530 -0.1367
  195MOL0     H26293   4.078  -0.500   8.232 -0.8157  3.4408 -1.9859
  195MOL0     H26294   4.045  -0.346   8.299 -0.1468  0.2265  1.3900
  195MOL0     H26295   4.029  -0.525   8.524 -1.3691 -1.5632 -1.0199
  195MOL0     H26296   4.124  -0.375   8.476 -1.0154 -0.1800  1.7806
  195MOL0     H26297   4.183  -0.663   8.400 -1.8814 -0.9846  1.8160
  195MOL0     H26298   4.255  -0.593   8.542 -1.2258  1.8121  0.9373
  195MOL0     H26299   4.291  -0.426   8.295  1.4580  2.4463  2.0322
  195MOL0     H26300   4.396  -0.447   8.432 -0.1095  2.4376 -2.0613
  195MOL0     H26301   4.362  -0.683   8.245  3.8490 -1.9632 -0.9176
  195MOL0     H26302   4.499  -0.639   8.342 -0.2488 -1.2879  1.7029
  195MOL0     H26303   4.428  -0.534   8.076  0.1400 -1.8438  0.1127
  195MOL0     H26304   4.519  -0.437   8.194 -1.4829  0.0412 -0.7185
  195MOL0     H26305   3.522  -0.316   8.366 -0.1605 -1.2044  1.7653
  195MOL0     H26306   3.363  -0.160   8.442 -0.2631  1.0118 -0.3129
  195MOL0     H26307   3.196   0.160   8.619 -2.6224  2.1026 -1.9896
  195MOL0     H26308   3.040   0.345   8.689  1.7365  2.4275 -1.1176
  195MOL0     H26309   1.759   0.019   9.486 -0.2292 -1.8516  1.1536
  195MOL0     H26310   1.740  -0.063   9.725  1.4450  2.9391  0.4667
  195MOL0     H26311   1.335   0.119  10.220 -0.1335  0.3290  0.3242
  195MOL0     H26312   1.296  -0.002  10.429 -0.1414 -0.5722  1.2653
  195MOL0     H26313   1.178  -0.340  10.432 -1.2817  0.7506  0.1798
  195MOL0     H26314   1.164  -0.177  10.495 -0.6145 -0.9892  1.2084
  195MOL0     H26315   1.301  -0.384  10.651  0.5439  1.1457  1.1624
  195MOL0     H26316   1.117  -0.381  10.659 -1.2824  2.2079  2.5506
  195MOL0     H26317   1.287  -0.138  10.758 -2.5086  2.8045  0.2418
  195MOL0     H26318   1.232  -0.266  10.854  2.3187  0.9378 -0.2666
  195MOL0     H26319   1.074  -0.054  10.855 -1.5048  1.0716 -0.6012
  195MOL0     H26320   1.078  -0.076  10.680  2.0225  0.6804  0.4226
  195MOL0     H26321   0.752  -0.328  10.761 -1.0188  0.8184 -1.7208
  195MOL0     H26322   1.490  -0.352  10.272 -0.9930 -0.8231 -1.4692
  195MOL0     H26323   1.663  -0.221  10.003 -0.3536 -1.5013 -2.6869
  195MOL0     H26324   1.551  -0.367  10.046 -0.7176 -0.2026  0.1521
  195MOL0     H26325   1.504  -0.247   9.947 -1.7748  3.7748  0.1194
  196MOL0     O26326   8.128   5.051   3.523 -0.3406 -0.1070  0.3488
  196MOL0     C26327   8.136   5.086   3.408  1.0632  0.4148 -0.1438
  196MOL0     O26328   8.042   5.055   3.311 -0.1519 -0.2022 -0.2687
  196MOL0     C26329   7.920   5.001   3.331 -0.5171  0.8679 -0.2161
  196MOL0     C26330   7.812   5.087   3.296 -0.1871 -0.4775  0.3009
  196MOL0     C26331   7.683   5.041   3.321  0.3048 -0.1536  0.3883
  196MOL0     C26332   7.658   4.909   3.349 -0.3787 -0.0070  1.3816
  196MOL0     O26333   7.529   4.858   3.337  0.5732  0.5582  0.7058
  196MOL0     C26334   7.509   4.714   3.327 -0.2452 -0.0257 -0.0924
  196MOL0     C26335   7.374   4.685   3.294  0.1965  0.0988 -0.1343
  196MOL0     C26336   7.333   4.542   3.326 -0.5939  0.9879  0.2100
  196MOL0     C26337   7.195   4.525   3.260 -0.0208  0.2726  1.7338
  196MOL0     C26338   7.117   4.410   3.323  0.7808  0.2543 -0.2438
  196MOL0     C26339   6.972   4.426   3.290  0.6023 -0.2569 -0.0995
  196MOL0     C26340   6.886   4.324   3.351  0.7245  1.2960  0.4283
  196MOL0     C26341   6.944   4.181   3.343 -0.2733  0.2529  0.3467
  196MOL0     N26342   6.840   4.092   3.396 -0.3891 -0.5097  1.0222
  196MOL0     C26343   6.717   4.065   3.339  0.2111  0.7658  0.5759
  196MOL0     C26344   6.656   3.972   3.420 -1.0694 -0.4005  0.1171
  196MOL0     C26345   6.519   3.913   3.416  0.0093  0.2554  0.3270
  196MOL0     C26346   6.442   3.997   3.510 -0.3113  0.6617 -0.2405
  196MOL0     C26347   6.288   3.984   3.512  0.1101  1.1313 -1.1671
  196MOL0     C26348   6.204   4.037   3.390 -0.1187 -0.0796 -0.5940
  196MOL0     O26349   6.236   4.173   3.367  0.1622  0.3068 -0.1011
  196MOL0     C26350   6.199   4.280   3.440  0.4384  0.1776 -0.1998
  196MOL0     C26351   6.097   4.360   3.396 -0.0610  0.8575  0.1622
  196MOL0     C26352   6.048   4.462   3.476 -0.6908 -0.4456  0.6061
  196MOL0     C26353   6.117   4.506   3.590  0.0790 -0.2116 -0.0144
  196MOL0     C26354   6.070   4.634   3.652  0.4543  0.1430  0.4174
  196MOL0     O26355   6.133   4.671   3.767 -0.3825 -0.0902  0.0426
  196MOL0     C26356   6.091   4.782   3.825  0.0875  0.3486  0.3619
  196MOL0     C26357   6.170   4.899   3.827 -0.0162 -0.0741 -0.5682
  196MOL0     C26358   6.128   4.999   3.905  0.3630  0.1296 -0.5145
  196MOL0     C26359   6.012   4.992   3.986  0.3439 -0.1863 -0.0589
  196MOL0     O26360   5.949   5.095   4.047 -0.2865 -0.2069 -0.4846
  196MOL0     C26361   5.838   5.154   3.974 -0.1101  0.0348  0.6072
  196MOL0     C26362   5.799   5.289   4.030  0.8761  0.0641 -0.1377
  196MOL0     C26363   5.688   5.351   3.937 -0.7190  0.0635 -0.7049
  196MOL0     C26364   5.605   5.462   4.006  0.2236 -0.7051  0.5993
  196MOL0     C26365   5.697   5.593   4.030 -0.3150 -0.0845  0.2620
  196MOL0     C26366   5.619   5.713   4.067  0.2786 -0.8487 -0.9431
  196MOL0     C26367   5.568   5.693   4.207 -1.1545 -0.0163 -0.3160
  196MOL0     C26368   5.491   5.820   4.245  0.2647  0.4845 -0.6956
  196MOL0    Cl26369   5.387   5.787   4.393 -0.0876 -0.0748  0.1040
  196MOL0     C26370   5.941   4.873   3.989  0.2454 -0.5759  0.1473
  196MOL0     C26371   5.978   4.770   3.913  0.0424 -0.0609  0.4337
  196MOL0     O26372   5.965   4.685   3.608 -0.6183  0.2666 -0.9155
  196MOL0     C26373   6.231   4.428   3.636 -0.1823  0.5368 -0.0628
  196MOL0     C26374   6.270   4.320   3.551  0.2958  0.8138 -0.1270
  196MOL0     N26375   6.758   3.923   3.508 -0.0022  0.3304  0.9079
  196MOL0     N26376   6.862   4.002   3.499 -0.9602  0.4287 -0.6138
  196MOL0     C26377   7.769   4.832   3.385 -0.8609 -0.6710 -0.2567
  196MOL0     C26378   7.895   4.880   3.381 -0.0809  0.9132 -0.0340
  196MOL0     C26379   8.261   5.149   3.368 -0.0964 -0.3348  0.7694
  196MOL0     C26380   8.244   5.236   3.252  0.4558  0.5716  0.5196
  196MOL0     C26381   8.352   5.304   3.192  0.2558 -0.8324  0.3287
  196MOL0     C26382   8.480   5.299   3.252  0.0364 -0.1479  0.0073
  196MOL0     O26383   8.579   5.390   3.216 -0.5941  0.3376 -0.1794
  196MOL0     C26384   8.683   5.433   3.300 -0.0474 -0.3936 -0.2108
  196MOL0     C26385   8.622   5.532   3.384 -0.2095 -0.0572 -0.2244
  196MOL0     C26386   8.715   5.627   3.448  0.3922 -0.2170  1.2087
  196MOL0     C26387   8.641   5.737   3.526 -0.2804  0.1475 -0.5251
  196MOL0     C26388   8.741   5.823   3.585  0.8502  0.2300 -0.0871
  196MOL0     C26389   8.808   5.908   3.637 -0.4999 -0.2540 -0.3277
  196MOL0     C26390   8.491   5.211   3.360  0.8742 -0.1492  0.0274
  196MOL0     C26391   8.390   5.136   3.428 -0.1377  0.9740 -0.0235
  196MOL0     C26392   8.414   5.032   3.536 -0.6603 -0.6600 -0.1433
  196MOL0     H26393   7.831   5.191   3.270  0.2664 -0.9310 -1.2955
  196MOL0     H26394   7.600   5.106   3.295 -0.1356 -1.5870 -2.1582
  196MOL0     H26395   7.564   4.661   3.249 -1.8088 -3.6032  1.0253
  196MOL0     H26396   7.535   4.655   3.415  0.2353 -0.8614 -0.7756
  196MOL0     H26397   7.355   4.699   3.187  0.6002  3.1910  0.1111
  196MOL0     H26398   7.303   4.749   3.347  1.8869 -1.3567  4.3670
  196MOL0     H26399   7.344   4.531   3.434  3.0840  2.3972  0.1428
  196MOL0     H26400   7.406   4.479   3.274  0.7504  3.2139 -0.7874
  196MOL0     H26401   7.130   4.611   3.280 -0.8528 -0.2045  1.1426
  196MOL0     H26402   7.201   4.503   3.153  1.3697 -0.3258  1.9145
  196MOL0     H26403   7.169   4.320   3.286  1.0104 -0.0434  0.7774
  196MOL0     H26404   7.126   4.424   3.431  2.9352 -0.1685 -0.3189
  196MOL0     H26405   6.938   4.526   3.318  0.0304 -0.5639  0.3129
  196MOL0     H26406   6.960   4.423   3.181  3.1052  0.5131 -0.4674
  196MOL0     H26407   6.787   4.336   3.306 -0.4394  1.0464  2.7402
  196MOL0     H26408   6.864   4.344   3.456 -2.0308  1.4694 -0.1164
  196MOL0     H26409   6.966   4.154   3.239 -0.1767  4.4196 -0.9027
  196MOL0     H26410   7.041   4.168   3.391  0.6315  1.2086 -1.1692
  196MOL0     H26411   6.670   4.102   3.248  1.0202  0.9077  0.2048
  196MOL0     H26412   6.483   3.924   3.314  0.4254  1.0023  0.2521
  196MOL0     H26413   6.518   3.807   3.444  3.5656  0.2143  0.7876
  196MOL0     H26414   6.488   3.960   3.602 -1.5795  1.1135  0.6008
  196MOL0     H26415   6.466   4.102   3.490 -0.2630  0.6143 -0.4419
  196MOL0     H26416   6.260   4.036   3.604  0.1889 -2.0965  0.8524
  196MOL0     H26417   6.269   3.877   3.524  1.4206  1.1832  2.9181
  196MOL0     H26418   6.101   4.027   3.426  1.4677  1.2387  5.4568
  196MOL0     H26419   6.208   3.987   3.293  3.9857  0.6870 -1.0011
  196MOL0     H26420   6.041   4.319   3.313  0.0855  1.4901 -0.2524
  196MOL0     H26421   5.953   4.507   3.450  0.1208  3.1190  2.9990
  196MOL0     H26422   6.258   4.918   3.766  1.9638  1.7493  2.5703
  196MOL0     H26423   6.175   5.097   3.898  1.3492 -0.0602  2.1625
  196MOL0     H26424   5.881   5.168   3.875 -0.3563 -0.7789  0.3743
  196MOL0     H26425   5.752   5.087   3.963  0.1816 -0.1213 -0.8388
  196MOL0     H26426   5.760   5.281   4.132 -0.8863  0.1578 -0.7732
  196MOL0     H26427   5.884   5.359   4.029  0.0511  1.0897 -1.4104
  196MOL0     H26428   5.736   5.392   3.848 -1.1555  1.0163 -0.5138
  196MOL0     H26429   5.615   5.280   3.898  0.1063 -2.4490  1.9229
  196MOL0     H26430   5.560   5.426   4.099  0.7817 -2.0319  0.3729
  196MOL0     H26431   5.527   5.498   3.938  1.2280  2.4349  0.9703
  196MOL0     H26432   5.743   5.615   3.934 -1.3587 -3.4721 -1.1435
  196MOL0     H26433   5.776   5.572   4.104  1.5878  0.1716 -1.6046
  196MOL0     H26434   5.687   5.799   4.061 -1.9632  1.1288  0.4471
  196MOL0     H26435   5.539   5.732   3.994  0.1719  1.2354 -0.3529
  196MOL0     H26436   5.649   5.672   4.278  0.1988 -1.9252 -2.2783
  196MOL0     H26437   5.491   5.616   4.205 -0.8761 -0.3173 -3.5552
  196MOL0     H26438   5.557   5.907   4.250 -1.0858  1.5126  0.4527
  196MOL0     H26439   5.425   5.837   4.159 -1.8498  0.1633  0.7871
  196MOL0     H26440   5.845   4.872   4.040  0.0961 -2.1848 -0.1305
  196MOL0     H26441   5.921   4.678   3.921 -1.0645  0.7509  2.8917
  196MOL0     H26442   6.298   4.465   3.713 -0.3366  4.5536 -1.5832
  196MOL0     H26443   6.364   4.270   3.574 -1.2110 -2.5014 -0.5678
  196MOL0     H26444   7.752   4.734   3.427  1.2883 -0.6212  0.8765
  196MOL0     H26445   7.966   4.809   3.422  0.0144  1.2317  0.3597
  196MOL0     H26446   8.154   5.249   3.193  0.3966 -2.1550 -0.1277
  196MOL0     H26447   8.331   5.380   3.118  1.4962 -0.0936  0.7126
  196MOL0     H26448   8.759   5.494   3.250 -0.3361  3.2330  3.2728
  196MOL0     H26449   8.725   5.355   3.365  0.1438 -1.0059 -1.0437
  196MOL0     H26450   8.570   5.488   3.470  1.8747  0.6328  1.4779
  196MOL0     H26451   8.550   5.591   3.325 -2.0599 -2.1039 -0.1482
  196MOL0     H26452   8.783   5.672   3.375 -0.1612  1.8632  1.8952
  196MOL0     H26453   8.778   5.575   3.521 -0.8067 -3.4264  0.0963
  196MOL0     H26454   8.575   5.799   3.465 -1.1930  2.1266  2.2582
  196MOL0     H26455   8.583   5.694   3.607  0.4286  2.9455  1.6174
  196MOL0     H26456   8.868   5.988   3.675 -1.1353  1.8714 -3.4175
  196MOL0     H26457   8.594   5.193   3.390  0.7391  1.0632  1.3223
  196MOL0     H26458   8.372   5.063   3.632  0.1537  0.8327 -0.2386
  196MOL0     H26459   8.367   4.938   3.504 -1.6521  0.4781 -2.3066
  196MOL0     H26460   8.522   5.016   3.546 -0.3203  0.9552 -0.8074
  197MOL0     O26461   2.981   9.509   6.765 -0.0558  0.9875  0.0119
  197MOL0     C26462   3.040   9.451   6.856 -0.2394 -0.3998  0.0009
  197MOL0     O26463   3.145   9.502   6.921  0.0157  0.4015 -0.1972
  197MOL0     C26464   3.201   9.618   6.878 -0.6051 -0.1622  0.2409
  197MOL0     C26465   3.287   9.635   6.771  1.4360  1.2065 -0.0384
  197MOL0     C26466   3.336   9.763   6.732 -0.2484 -0.1081  0.1557
  197MOL0     C26467   3.289   9.881   6.792 -0.0933  0.2283  0.6108
  197MOL0     O26468   3.338  10.004   6.744  0.5334  0.7343 -0.4048
  197MOL0     C26469   3.260  10.124   6.752  0.3553 -1.1560  0.7079
  197MOL0     C26470   3.318  10.239   6.662 -0.5832  0.2358  0.1014
  197MOL0     C26471   3.276  10.380   6.701 -0.2213  0.0434  0.1535
  197MOL0     C26472   3.366  10.482   6.648 -0.0008 -0.4206 -0.4369
  197MOL0     C26473   3.305  10.614   6.623  0.2270 -0.3213 -0.2869
  197MOL0     C26474   3.385  10.698   6.523 -0.2922  0.8235 -0.6188
  197MOL0     C26475   3.314  10.832   6.487 -0.0898  0.6768 -0.1566
  197MOL0     C26476   3.391  10.909   6.379 -0.0052 -0.5673 -0.4744
  197MOL0     N26477   3.351  10.873   6.238  0.8419  0.1098  0.2654
  197MOL0     C26478   3.353  10.972   6.146  0.7907 -0.8118 -0.1074
  197MOL0     C26479   3.305  10.912   6.033 -0.5978 -0.2622  0.0491
  197MOL0     C26480   3.263  10.979   5.903 -0.1923  0.3447  0.0813
  197MOL0     C26481   3.222  10.874   5.792 -0.2963  0.5897  1.6016
  197MOL0     C26482   3.347  10.806   5.735  0.2926  1.4458  0.4016
  197MOL0     C26483   3.295  10.696   5.632 -0.7257  0.2407 -0.0942
  197MOL0     O26484   3.213  10.741   5.525  0.2200 -0.3545  0.7443
  197MOL0     C26485   3.121  10.652   5.482 -1.1563 -0.1491  0.5841
  197MOL0     C26486   3.163  10.549   5.391  0.1341  0.3562  0.0280
  197MOL0     C26487   3.060  10.473   5.336  0.1346  0.1409  0.4488
  197MOL0     C26488   2.922  10.488   5.363 -0.5353  0.2165 -0.9515
  197MOL0     C26489   2.827  10.417   5.281 -0.6535  1.1830  0.2930
  197MOL0     O26490   2.882  10.320   5.192  0.0456  1.0456 -0.5553
  197MOL0     C26491   2.827  10.266   5.080  1.2172 -0.0943 -1.4801
  197MOL0     C26492   2.693  10.255   5.044 -0.8166  0.5520  0.9393
  197MOL0     C26493   2.653  10.164   4.954  0.7824  0.2864 -0.9455
  197MOL0     C26494   2.732  10.084   4.876 -0.4298 -0.0185 -0.5923
  197MOL0     O26495   2.673   9.993   4.790 -0.3653 -0.2649 -0.2879
  197MOL0     C26496   2.734   9.866   4.745  0.3915  0.7359 -0.4149
  197MOL0     C26497   2.634   9.779   4.684 -0.8290 -0.1473  0.1656
  197MOL0     C26498   2.684   9.656   4.615 -0.0884  0.4480  0.3949
  197MOL0     C26499   2.670   9.537   4.719  0.0649 -0.1833  0.4853
  197MOL0     C26500   2.730   9.418   4.644  0.5886 -0.8684 -0.2786
  197MOL0     C26501   2.706   9.281   4.717  1.0986  0.4059 -0.2707
  197MOL0     C26502   2.765   9.156   4.659  1.3505  1.3005 -0.2993
  197MOL0     C26503   2.681   9.032   4.708  1.0089 -0.8770 -0.3644
  197MOL0    Cl26504   2.758   8.878   4.665  0.5333 -0.2826 -0.3310
  197MOL0     C26505   2.870  10.099   4.910 -0.5057  0.1326 -0.1895
  197MOL0     C26506   2.914  10.178   5.023  0.2731  0.7782  0.8970
  197MOL0     O26507   2.709  10.435   5.294 -0.5074  0.0951 -0.1289
  197MOL0     C26508   2.885  10.578   5.460  0.8203 -1.0281 -0.5914
  197MOL0     C26509   2.983  10.664   5.518  0.6693  0.0572 -0.3779
  197MOL0     N26510   3.273  10.784   6.067  0.3171  0.6627  0.6358
  197MOL0     N26511   3.298  10.763   6.194 -0.3760  0.1027 -0.7603
  197MOL0     C26512   3.200   9.862   6.893  0.6185  0.6955  0.1009
  197MOL0     C26513   3.163   9.736   6.937 -0.6994 -0.7505  0.4942
  197MOL0     C26514   2.990   9.315   6.896  0.3552  0.8288 -0.2009
  197MOL0     C26515   3.025   9.267   7.022 -0.5539 -0.9827  0.4739
  197MOL0     C26516   2.987   9.143   7.085 -0.3185 -0.9651 -0.2398
  197MOL0     C26517   2.922   9.053   7.002  0.3862 -0.8617  0.2645
  197MOL0     O26518   2.897   8.920   7.032  0.1186  0.6266  0.6546
  197MOL0     C26519   2.972   8.853   7.132 -0.2091 -0.6890  0.3001
  197MOL0     C26520   2.939   8.700   7.110  0.1148 -0.0588  0.2656
  197MOL0     C26521   2.968   8.638   6.974  1.0577 -0.1668  0.6781
  197MOL0     C26522   3.111   8.659   6.933  0.2591  0.0737  0.5004
  197MOL0     C26523   3.118   8.786   6.857  0.4920  0.2733 -0.2546
  197MOL0     C26524   3.116   8.879   6.783 -0.7996  0.3626 -0.4570
  197MOL0     C26525   2.892   9.094   6.872 -0.4344  0.8503  0.6410
  197MOL0     C26526   2.919   9.218   6.814  0.4763  0.1234 -0.6866
  197MOL0     C26527   2.875   9.232   6.678  1.0202  0.4001  0.4975
  197MOL0     H26528   3.312   9.540   6.725  0.0997  0.6843  0.2701
  197MOL0     H26529   3.413   9.768   6.656  2.6477 -0.7589  2.8138
  197MOL0     H26530   3.155  10.115   6.725  1.2297 -1.4951 -3.0500
  197MOL0     H26531   3.255  10.172   6.851  0.3442  3.6266 -1.3334
  197MOL0     H26532   3.290  10.214   6.559 -0.2604  0.8415 -0.1390
  197MOL0     H26533   3.427  10.249   6.662 -0.4267 -0.6611  2.4879
  197MOL0     H26534   3.264  10.410   6.805 -0.4985  0.1625  0.0890
  197MOL0     H26535   3.172  10.395   6.670  0.3533  1.8208 -1.0702
  197MOL0     H26536   3.463  10.484   6.698 -1.2181 -2.1477  2.2468
  197MOL0     H26537   3.398  10.437   6.553  0.7565 -0.4145 -0.1833
  197MOL0     H26538   3.205  10.607   6.579  0.7007 -4.4991 -1.1826
  197MOL0     H26539   3.300  10.668   6.718  0.7208  0.6163 -0.7777
  197MOL0     H26540   3.489  10.715   6.551 -0.1945  1.4427 -1.3191
  197MOL0     H26541   3.386  10.644   6.428  0.1826  1.2480 -0.8610
  197MOL0     H26542   3.306  10.882   6.583  1.6849 -0.5719  0.7042
  197MOL0     H26543   3.213  10.815   6.447 -0.1191 -2.7849  1.0633
  197MOL0     H26544   3.371  11.014   6.401 -0.6897 -1.2233  2.5494
  197MOL0     H26545   3.499  10.903   6.390  0.3344 -1.3332 -3.4014
  197MOL0     H26546   3.383  11.072   6.174  0.4453 -0.7174 -0.0802
  197MOL0     H26547   3.186  11.053   5.924  1.3711  1.8966  0.6025
  197MOL0     H26548   3.344  11.036   5.857 -0.2048 -2.2117 -3.4588
  197MOL0     H26549   3.157  10.794   5.830 -0.3035 -0.9474 -1.3271
  197MOL0     H26550   3.169  10.926   5.712 -0.3062 -0.1709  1.1013
  197MOL0     H26551   3.404  10.768   5.820 -1.5038  2.0715  1.9520
  197MOL0     H26552   3.414  10.877   5.685  1.7031 -0.4473 -0.4790
  197MOL0     H26553   3.235  10.622   5.687 -0.5927 -0.1002 -0.4022
  197MOL0     H26554   3.379  10.638   5.593 -0.6530  0.9850 -1.0683
  197MOL0     H26555   3.262  10.537   5.350 -0.4633  1.5216 -1.8498
  197MOL0     H26556   3.093  10.398   5.265  1.0276  0.2939  0.6846
  197MOL0     H26557   2.632  10.325   5.100 -0.5514  0.1617  1.7453
  197MOL0     H26558   2.545  10.175   4.941  0.9430 -0.1221 -2.9971
  197MOL0     H26559   2.815   9.889   4.675 -0.4738  1.5621 -1.1715
  197MOL0     H26560   2.777   9.812   4.830 -1.3168 -1.6344 -0.9319
  197MOL0     H26561   2.558   9.749   4.756 -0.6080 -1.6924 -0.2090
  197MOL0     H26562   2.584   9.839   4.608  1.3342  1.4377 -0.1078
  197MOL0     H26563   2.623   9.628   4.528 -1.8424 -0.3746  1.8208
  197MOL0     H26564   2.787   9.680   4.588  0.3872  0.3526  2.0346
  197MOL0     H26565   2.565   9.512   4.735  0.2235 -0.2715  1.4651
  197MOL0     H26566   2.725   9.557   4.811  0.3728 -0.9913  0.4869
  197MOL0     H26567   2.839   9.424   4.633  0.3239  0.7640 -3.1124
  197MOL0     H26568   2.676   9.411   4.549 -0.0924 -2.0735  0.1742
  197MOL0     H26569   2.761   9.281   4.811  3.7579 -1.7547 -1.6604
  197MOL0     H26570   2.598   9.267   4.730  1.1497 -0.3724 -0.6203
  197MOL0     H26571   2.870   9.148   4.690  1.7334  1.4684 -1.4892
  197MOL0     H26572   2.752   9.157   4.551  4.6895  1.1686 -0.7993
  197MOL0     H26573   2.673   9.051   4.815  2.9698 -1.2877 -0.1137
  197MOL0     H26574   2.582   9.032   4.661  1.4730 -0.7851 -1.3664
  197MOL0     H26575   2.941  10.041   4.852  0.7822  1.6912 -0.2699
  197MOL0     H26576   3.018  10.165   5.051  0.0845 -0.8323  0.9582
  197MOL0     H26577   2.778  10.588   5.474  1.2277  0.8461  1.7080
  197MOL0     H26578   2.966  10.742   5.592  1.1660 -0.7925  0.6554
  197MOL0     H26579   3.165   9.953   6.940 -0.4963  0.7383 -0.7731
  197MOL0     H26580   3.085   9.737   7.012  1.4236  1.0666  2.8359
  197MOL0     H26581   3.084   9.335   7.083 -0.0431 -1.1526  0.1757
  197MOL0     H26582   3.017   9.105   7.183 -0.6364 -1.4197 -0.3173
  197MOL0     H26583   2.944   8.891   7.231  3.1049 -0.6311  1.3395
  197MOL0     H26584   3.080   8.871   7.122 -0.3738  2.0709  2.3646
  197MOL0     H26585   2.835   8.687   7.140 -1.1041  2.0463 -2.5456
  197MOL0     H26586   2.993   8.634   7.178 -2.0413 -2.4782 -0.2207
  197MOL0     H26587   2.906   8.668   6.889 -1.9192 -2.5454  1.7829
  197MOL0     H26588   2.945   8.531   6.985 -0.5577  0.0807 -0.0368
  197MOL0     H26589   3.170   8.659   7.025 -0.0441  1.8044  0.7140
  197MOL0     H26590   3.139   8.581   6.861  1.9483  2.4382 -1.5664
  197MOL0     H26591   3.131   8.965   6.722  0.2318 -0.6454 -1.6884
  197MOL0     H26592   2.863   9.012   6.807  2.5850 -1.3992  1.8739
  197MOL0     H26593   2.842   9.146   6.619  2.2605  0.5683 -0.4663
  197MOL0     H26594   2.782   9.288   6.684  0.7568 -0.0689  0.8676
  197MOL0     H26595   2.940   9.301   6.624  2.8603 -2.1058 -0.6947
  198MOL0     O26596   1.309   7.636   7.868  1.1048  0.5961 -0.5761
  198MOL0     C26597   1.357   7.533   7.831 -0.4279  0.3243 -0.7675
  198MOL0     O26598   1.492   7.515   7.806 -0.3138  1.0769 -0.8969
  198MOL0     C26599   1.574   7.621   7.848 -0.3876  0.2914  0.3499
  198MOL0     C26600   1.642   7.693   7.748  0.2228 -1.4320  0.1974
  198MOL0     C26601   1.712   7.806   7.784 -0.2946  0.2177 -0.5794
  198MOL0     C26602   1.708   7.853   7.917 -0.5049  0.5639 -0.1528
  198MOL0     O26603   1.771   7.963   7.951  0.6791 -0.1532 -0.7738
  198MOL0     C26604   1.910   7.974   7.914 -0.6690 -0.7279  0.8610
  198MOL0     C26605   1.937   8.118   7.857  0.4762  0.1830  0.0200
  198MOL0     C26606   1.903   8.233   7.951  0.4170 -0.1234  0.5967
  198MOL0     C26607   1.992   8.250   8.068  0.1671  0.1489 -0.5385
  198MOL0     C26608   1.964   8.380   8.145 -0.0583  0.4818  0.0351
  198MOL0     C26609   2.050   8.387   8.269 -0.0612  0.4614 -0.1046
  198MOL0     C26610   2.038   8.529   8.352 -0.0667  0.4718  0.1357
  198MOL0     C26611   2.136   8.523   8.470 -0.2630  0.9414  0.6883
  198MOL0     N26612   2.271   8.530   8.427 -0.4708 -0.5756  0.5317
  198MOL0     C26613   2.352   8.644   8.432 -0.0942  0.6250 -0.2751
  198MOL0     C26614   2.481   8.599   8.413  0.3983 -0.2682 -0.5372
  198MOL0     C26615   2.587   8.703   8.434 -0.9458 -1.2165  1.0925
  198MOL0     C26616   2.653   8.753   8.292 -0.1675 -0.0005 -0.3777
  198MOL0     C26617   2.701   8.643   8.199  0.3102  0.5053 -0.2826
  198MOL0     C26618   2.734   8.688   8.065  0.1757  0.2737 -1.1388
  198MOL0     O26619   2.831   8.786   8.084 -0.8978  0.3522 -0.5483
  198MOL0     C26620   2.877   8.865   7.976  0.4815  0.3592 -0.3743
  198MOL0     C26621   2.837   8.846   7.842  0.0026 -0.8108 -0.3246
  198MOL0     C26622   2.897   8.924   7.743 -0.8400 -0.0884  0.1390
  198MOL0     C26623   2.985   9.031   7.772 -0.6664 -0.9616  0.3727
  198MOL0     C26624   3.058   9.104   7.671 -0.3963  0.2395  0.7823
  198MOL0     O26625   3.174   9.177   7.707  0.4336 -0.6708  0.4047
  198MOL0     C26626   3.258   9.210   7.601 -0.2365  0.6647  1.0839
  198MOL0     C26627   3.225   9.303   7.500 -0.3913 -0.5072 -0.8348
  198MOL0     C26628   3.313   9.333   7.403  0.2311  0.1422  0.7159
  198MOL0     C26629   3.452   9.297   7.416  0.1230 -0.2430 -0.6305
  198MOL0     O26630   3.560   9.341   7.346 -0.2520 -0.6213  0.2289
  198MOL0     C26631   3.545   9.467   7.281  0.5955 -0.2470  1.3890
  198MOL0     C26632   3.670   9.513   7.207 -0.0432 -0.3976  0.6668
  198MOL0     C26633   3.617   9.617   7.110 -0.5771 -0.5025  0.1218
  198MOL0     C26634   3.717   9.670   7.014 -0.7390 -0.2204 -0.8374
  198MOL0     C26635   3.773   9.568   6.909 -0.8112  0.6209 -0.4252
  198MOL0     C26636   3.928   9.584   6.891  0.3050 -0.4766 -0.2313
  198MOL0     C26637   3.958   9.711   6.813 -0.5929 -0.9920 -0.9928
  198MOL0     C26638   4.105   9.737   6.793  0.3419  0.6465 -0.8720
  198MOL0    Cl26639   4.148   9.858   6.656 -0.0546 -0.1038  0.3587
  198MOL0     C26640   3.489   9.206   7.518 -0.1268 -0.2464 -0.0042
  198MOL0     C26641   3.389   9.161   7.608  0.5608 -0.2014  0.6669
  198MOL0     O26642   3.029   9.092   7.555  0.1228 -0.4704  0.4723
  198MOL0     C26643   3.023   9.048   7.911 -0.5101 -0.2218  0.2237
  198MOL0     C26644   2.965   8.968   8.006 -0.1714  0.2395 -0.4091
  198MOL0     N26645   2.480   8.458   8.418 -0.2280  0.1783 -1.1850
  198MOL0     N26646   2.354   8.418   8.424  0.8427 -0.0875  0.0478
  198MOL0     C26647   1.646   7.776   8.012 -0.0213 -0.3393  0.3149
  198MOL0     C26648   1.577   7.661   7.979  1.2179  0.0656 -0.0541
  198MOL0     C26649   1.254   7.431   7.790 -0.4057  0.2954 -0.0397
  198MOL0     C26650   1.130   7.470   7.746  0.4625  1.2393 -0.9539
  198MOL0     C26651   1.028   7.371   7.739 -0.3471  1.0655  1.0002
  198MOL0     C26652   1.054   7.228   7.766 -0.3429  0.3596  0.2252
  198MOL0     O26653   0.960   7.138   7.737  0.4632  0.6778  0.6096
  198MOL0     C26654   0.968   6.992   7.769 -0.1354 -0.3652  0.2412
  198MOL0     C26655   0.833   6.927   7.737  0.0526 -0.8450  0.1227
  198MOL0     C26656   0.818   6.796   7.811  0.3993 -0.8405  0.8901
  198MOL0     C26657   0.910   6.684   7.764 -0.0639 -0.4968 -0.3211
  198MOL0     C26658   0.889   6.654   7.619  0.1431  0.7533  0.1569
  198MOL0     C26659   0.835   6.628   7.509 -0.8248  0.0421  0.5519
  198MOL0     C26660   1.173   7.196   7.821 -0.5757  0.5875 -0.0180
  198MOL0     C26661   1.277   7.299   7.827 -0.1483 -0.1770 -0.8966
  198MOL0     C26662   1.406   7.242   7.886  0.3070  0.2284 -0.3284
  198MOL0     H26663   1.656   7.656   7.648  0.7587 -2.2422  0.5648
  198MOL0     H26664   1.768   7.869   7.715 -1.0888  0.1150 -1.3322
  198MOL0     H26665   1.990   7.963   7.987  2.5840  1.8452 -2.0111
  198MOL0     H26666   1.936   7.902   7.836  0.9546  0.8797 -0.1562
  198MOL0     H26667   1.873   8.125   7.768 -1.2943 -3.6224  0.7949
  198MOL0     H26668   2.039   8.123   7.819 -0.0849 -3.9592 -2.6174
  198MOL0     H26669   1.799   8.220   7.983  0.9913  1.4331  3.4108
  198MOL0     H26670   1.902   8.325   7.891  0.1408 -0.5163 -0.0113
  198MOL0     H26671   1.988   8.165   8.137 -0.8371 -0.3800 -1.2146
  198MOL0     H26672   2.095   8.254   8.031  0.1537 -1.5426 -0.8600
  198MOL0     H26673   1.996   8.467   8.087  4.0771  2.4562  4.5727
  198MOL0     H26674   1.857   8.399   8.157 -0.0538  0.2329  0.5135
  198MOL0     H26675   2.023   8.305   8.337 -0.4781 -1.6534 -2.6694
  198MOL0     H26676   2.151   8.370   8.232  0.4440  0.1145  1.3579
  198MOL0     H26677   1.935   8.519   8.388 -1.8055  3.2303 -3.4906
  198MOL0     H26678   2.042   8.623   8.297 -0.0636  2.4912  3.3747
  198MOL0     H26679   2.114   8.617   8.522 -0.1322  2.8253 -2.4120
  198MOL0     H26680   2.108   8.431   8.522 -0.4099  1.0402  0.7817
  198MOL0     H26681   2.318   8.747   8.442 -0.0709  0.7575 -1.4729
  198MOL0     H26682   2.557   8.786   8.499 -2.0475 -1.7426  1.2755
  198MOL0     H26683   2.664   8.665   8.502 -1.1393 -2.7879  0.4658
  198MOL0     H26684   2.575   8.811   8.243  0.6808 -0.2184 -2.0508
  198MOL0     H26685   2.737   8.820   8.315  0.0173 -0.1562 -0.5936
  198MOL0     H26686   2.628   8.563   8.179  0.9346 -0.2312  0.3257
  198MOL0     H26687   2.775   8.575   8.243 -0.2162  0.3720  0.4118
  198MOL0     H26688   2.643   8.728   8.020  0.8668  0.1180 -2.7117
  198MOL0     H26689   2.781   8.611   8.004 -0.1679 -2.4304  1.7728
  198MOL0     H26690   2.758   8.776   7.815  0.1308  0.2607 -3.8855
  198MOL0     H26691   2.877   8.898   7.639  1.2154 -0.7955 -0.1173
  198MOL0     H26692   3.127   9.351   7.501 -0.2253 -0.0670 -2.4261
  198MOL0     H26693   3.260   9.386   7.325  0.8770  0.7830  0.6963
  198MOL0     H26694   3.458   9.461   7.215  0.5390 -1.3153  1.5374
  198MOL0     H26695   3.512   9.538   7.357  1.0636  0.2163  1.1667
  198MOL0     H26696   3.728   9.570   7.280 -2.4091  1.5452  1.1601
  198MOL0     H26697   3.722   9.430   7.158  1.7579  1.0021  0.1003
  198MOL0     H26698   3.534   9.575   7.053 -1.6062 -1.0109  1.9135
  198MOL0     H26699   3.581   9.711   7.152  2.9341  2.4807 -2.8171
  198MOL0     H26700   3.801   9.717   7.067 -1.3391  2.1876 -1.8739
  198MOL0     H26701   3.672   9.747   6.951 -1.5943  0.2656  0.3314
  198MOL0     H26702   3.728   9.595   6.813 -0.3735 -1.8743 -1.4160
  198MOL0     H26703   3.735   9.470   6.938 -0.0685  1.0707  2.3120
  198MOL0     H26704   3.977   9.585   6.989 -2.6379 -0.4502  1.3640
  198MOL0     H26705   3.968   9.491   6.848  1.0926 -1.8822  3.2001
  198MOL0     H26706   3.921   9.805   6.855  0.9857 -0.8588  0.1994
  198MOL0     H26707   3.919   9.695   6.712  0.2866 -1.1376 -1.3262
  198MOL0     H26708   4.142   9.777   6.888  2.2958 -1.7906 -0.5098
  198MOL0     H26709   4.160   9.644   6.774  3.0097  2.8170 -5.6796
  198MOL0     H26710   3.593   9.174   7.510  0.4171  1.7376 -2.0784
  198MOL0     H26711   3.424   9.092   7.684  1.3622 -1.2803 -0.6139
  198MOL0     H26712   3.097   9.122   7.939 -2.2972  1.1476  1.5438
  198MOL0     H26713   2.989   8.998   8.107 -1.4253  3.5996 -0.9747
  198MOL0     H26714   1.639   7.809   8.115  1.4973  3.0104 -0.5122
  198MOL0     H26715   1.512   7.620   8.056  4.2529 -0.9126  2.1726
  198MOL0     H26716   1.112   7.574   7.724 -3.6967  2.2663  5.0040
  198MOL0     H26717   0.931   7.388   7.693  0.2916  4.9995  0.6815
  198MOL0     H26718   0.998   6.975   7.873 -3.1876 -2.2392  0.9355
  198MOL0     H26719   1.050   6.954   7.706  2.1448  0.0928  2.7578
  198MOL0     H26720   0.840   6.924   7.628 -0.3124  3.5528 -0.2110
  198MOL0     H26721   0.754   6.999   7.762 -0.9859 -1.8138 -0.2545
  198MOL0     H26722   0.709   6.785   7.802 -0.0185  2.8167 -0.1304
  198MOL0     H26723   0.828   6.812   7.919 -2.0542 -0.5969  1.1396
  198MOL0     H26724   1.016   6.689   7.792  0.1001 -1.2690 -0.7797
  198MOL0     H26725   0.877   6.594   7.816  0.6648 -0.0469  0.9597
  198MOL0     H26726   0.769   6.607   7.427  0.4184  0.8890 -0.7091
  198MOL0     H26727   1.190   7.098   7.866  1.5271  1.1066  0.4079
  198MOL0     H26728   1.404   7.132   7.885 -0.2196  0.2422 -1.1019
  198MOL0     H26729   1.498   7.271   7.834  0.5756 -2.9052 -1.8613
  198MOL0     H26730   1.418   7.262   7.993  2.6979 -6.0396  1.0503
  199MOL0     O26731   9.476   8.070  10.165  0.4120  0.4028  0.1297
  199MOL0     C26732   9.352   8.098  10.169 -0.2463  0.4301  0.6118
  199MOL0     O26733   9.264   8.065  10.072 -0.1848 -0.5126  0.5595
  199MOL0     C26734   9.301   7.976   9.976 -0.4641 -0.4840  0.4884
  199MOL0     C26735   9.334   8.022   9.836  0.0965  0.2063 -0.0782
  199MOL0     C26736   9.362   7.925   9.727 -0.6375 -0.4153 -0.4303
  199MOL0     C26737   9.365   7.792   9.758 -1.0180  0.5525 -0.2414
  199MOL0     O26738   9.390   7.693   9.659 -0.1535 -0.2535 -0.0099
  199MOL0     C26739   9.391   7.716   9.511 -0.5825  0.2517 -0.6899
  199MOL0     C26740   9.521   7.772   9.459  0.0215  0.2496 -0.1773
  199MOL0     C26741   9.490   7.874   9.351 -0.0059  0.7950 -0.1781
  199MOL0     C26742   9.620   7.915   9.279 -0.3698 -0.9251 -0.1513
  199MOL0     C26743   9.600   7.984   9.145 -0.2820  0.0080  0.4178
  199MOL0     C26744   9.733   8.031   9.091  0.1328  0.8351 -0.6342
  199MOL0     C26745   9.825   7.920   9.044  0.0465  0.3486 -0.2368
  199MOL0     C26746   9.948   7.975   8.975  0.9651 -0.0928  0.0226
  199MOL0     N26747  10.045   8.033   9.066  0.8584  0.6801 -0.1945
  199MOL0     C26748  10.139   7.969   9.146 -0.6155 -0.4579  0.2539
  199MOL0     C26749  10.212   8.074   9.196 -0.6629  1.2918 -0.1937
  199MOL0     C26750  10.325   8.058   9.296 -0.9455  0.1156 -0.0648
  199MOL0     C26751  10.278   8.103   9.430  0.1256  0.0165 -0.6176
  199MOL0     C26752  10.188   8.000   9.504 -0.5418  0.8215  0.1632
  199MOL0     C26753  10.223   7.854   9.502 -0.2100 -0.1877 -0.4541
  199MOL0     O26754  10.139   7.786   9.415  0.1136 -0.5448  0.3445
  199MOL0     C26755  10.091   7.668   9.450  0.2889 -0.1119 -0.3887
  199MOL0     C26756  10.186   7.564   9.479 -0.0560 -0.7981 -0.9023
  199MOL0     C26757  10.143   7.441   9.513  0.4068 -0.4546  1.2058
  199MOL0     C26758  10.007   7.413   9.516 -0.1082  0.2133  0.3825
  199MOL0     C26759   9.958   7.286   9.528  0.2769  0.5708 -0.5866
  199MOL0     O26760   9.823   7.265   9.505 -0.5192 -0.0876 -0.8192
  199MOL0     C26761   9.741   7.164   9.545 -0.9902  0.2517 -0.0747
  199MOL0     C26762   9.791   7.062   9.638  0.2969  0.4003  0.2598
  199MOL0     C26763   9.702   6.953   9.674 -0.3612 -0.2054  0.0440
  199MOL0     C26764   9.582   6.941   9.611  0.2638  0.4142 -0.4533
  199MOL0     O26765   9.515   6.822   9.634 -0.2384  0.4545  0.0716
  199MOL0     C26766   9.410   6.820   9.733 -0.6639  0.2754 -0.2873
  199MOL0     C26767   9.353   6.678   9.735  0.3180 -0.7486  0.3817
  199MOL0     C26768   9.260   6.632   9.628  0.8920 -0.4458  1.2981
  199MOL0     C26769   9.117   6.687   9.646  0.3414  0.6888 -0.0829
  199MOL0     C26770   9.026   6.635   9.527 -0.1784  0.7351 -0.7300
  199MOL0     C26771   8.878   6.680   9.528 -0.2603  0.6802 -0.2420
  199MOL0     C26772   8.821   6.651   9.395  0.7878  0.5131  0.5881
  199MOL0     C26773   8.677   6.676   9.417  0.2616 -0.3119 -0.1417
  199MOL0    Cl26774   8.578   6.567   9.515 -0.4043 -0.3718  0.1582
  199MOL0     C26775   9.540   7.030   9.516 -0.1878  0.1412 -0.7584
  199MOL0     C26776   9.614   7.142   9.489 -0.6242  0.3739  0.4790
  199MOL0     O26777  10.034   7.196   9.566 -0.6313  0.5243  0.3385
  199MOL0     C26778   9.916   7.516   9.493 -0.0742  0.1593  0.3874
  199MOL0     C26779   9.953   7.642   9.461  0.0455  0.0285 -0.2513
  199MOL0     N26780  10.159   8.191   9.137  0.1545  1.2553 -0.2150
  199MOL0     N26781  10.053   8.163   9.066 -0.3648  0.2235  0.7215
  199MOL0     C26782   9.342   7.747   9.892  0.0494  0.5074  0.9288
  199MOL0     C26783   9.312   7.837  10.001 -1.3109 -0.2166  0.3280
  199MOL0     C26784   9.291   8.188  10.275 -0.3490 -0.7486 -0.0747
  199MOL0     C26785   9.208   8.129  10.368 -1.0441 -0.1820  0.9996
  199MOL0     C26786   9.186   8.192  10.497 -0.1921 -0.0160  0.5317
  199MOL0     C26787   9.237   8.320  10.520 -1.1450  0.0441 -1.3769
  199MOL0     O26788   9.196   8.372  10.644 -0.3771  0.2332  0.1523
  199MOL0     C26789   9.165   8.509  10.647 -0.2258  0.2652 -0.4114
  199MOL0     C26790   9.114   8.544  10.788 -1.5856 -0.4380 -1.0480
  199MOL0     C26791   8.957   8.556  10.803 -0.6283 -0.1897 -0.5039
  199MOL0     C26792   8.901   8.533  10.945  0.6862 -1.6339  0.9757
  199MOL0     C26793   8.914   8.650  11.032 -0.6073 -0.4335 -0.8013
  199MOL0     C26794   8.920   8.753  11.103  0.3017 -0.5448 -0.0316
  199MOL0     C26795   9.325   8.383  10.432  0.1964 -0.2104  0.8148
  199MOL0     C26796   9.357   8.315  10.306 -0.1838  1.7494  0.3999
  199MOL0     C26797   9.451   8.388  10.214 -0.1081  0.0282 -0.6009
  199MOL0     H26798   9.320   8.128   9.814 -0.4434  0.5565  1.7537
  199MOL0     H26799   9.374   7.959   9.625 -0.7950  0.9847 -0.0031
  199MOL0     H26800   9.366   7.622   9.461  0.1793 -1.2882  1.6720
  199MOL0     H26801   9.303   7.779   9.498 -2.5729 -2.0271  0.8097
  199MOL0     H26802   9.587   7.692   9.427  0.3876 -0.3826  2.0008
  199MOL0     H26803   9.561   7.829   9.544  0.4207 -0.7442  0.3061
  199MOL0     H26804   9.453   7.967   9.395  1.5803  1.1524  0.4486
  199MOL0     H26805   9.416   7.829   9.283 -1.4354  1.7168  0.7015
  199MOL0     H26806   9.677   7.979   9.348 -0.2964 -0.3973 -0.6990
  199MOL0     H26807   9.680   7.826   9.257  3.8860  2.0794 -2.1481
  199MOL0     H26808   9.542   7.919   9.078  1.9469  0.6956 -2.3632
  199MOL0     H26809   9.529   8.067   9.151  0.2536  0.3699  2.6559
  199MOL0     H26810   9.702   8.093   9.006 -0.8187  0.6435 -0.4451
  199MOL0     H26811   9.788   8.092   9.163  0.6497  0.2396 -0.5202
  199MOL0     H26812   9.767   7.873   8.963 -3.4138  2.8574  0.5635
  199MOL0     H26813   9.862   7.858   9.126 -1.5362  3.1838  2.8483
  199MOL0     H26814   9.999   7.893   8.924  2.7444  0.9757 -0.0280
  199MOL0     H26815   9.917   8.056   8.907 -1.9309  0.2752  1.6455
  199MOL0     H26816  10.156   7.862   9.145  3.1165 -0.0471 -2.2722
  199MOL0     H26817  10.351   7.952   9.299  1.0026  0.5724  0.4114
  199MOL0     H26818  10.406   8.107   9.242 -2.9144  0.2142 -3.1655
  199MOL0     H26819  10.355   8.126   9.504  1.7498 -3.2891 -1.1202
  199MOL0     H26820  10.218   8.193   9.413 -2.3647 -1.9015 -2.9185
  199MOL0     H26821  10.084   8.009   9.472 -0.4529 -0.7819 -0.6538
  199MOL0     H26822  10.208   8.023   9.609  2.7859  0.6337 -0.3134
  199MOL0     H26823  10.202   7.828   9.606 -1.6179  4.4858  0.6974
  199MOL0     H26824  10.331   7.838   9.494  0.4012  0.7592  3.4321
  199MOL0     H26825  10.290   7.590   9.464 -0.4640  3.3503  1.8461
  199MOL0     H26826  10.219   7.365   9.530 -0.1517 -1.0662  0.9952
  199MOL0     H26827   9.888   7.063   9.685  1.1864  0.1666 -1.4903
  199MOL0     H26828   9.745   6.874   9.734 -0.2980 -1.5356 -1.6753
  199MOL0     H26829   9.461   6.833   9.829  4.2151 -3.3805 -1.9915
  199MOL0     H26830   9.333   6.894   9.711  0.5380  1.5259 -0.4600
  199MOL0     H26831   9.433   6.605   9.749 -0.8095 -1.8636  1.2740
  199MOL0     H26832   9.293   6.677   9.827 -0.1830 -1.7863  0.0631
  199MOL0     H26833   9.294   6.679   9.535  0.9137  0.0197  1.5382
  199MOL0     H26834   9.259   6.525   9.603  0.9253  0.0403 -1.0052
  199MOL0     H26835   9.118   6.796   9.663  1.2219  0.6982 -0.1493
  199MOL0     H26836   9.078   6.635   9.734 -0.9168 -0.0449 -1.0432
  199MOL0     H26837   9.029   6.526   9.527  1.4356  0.7568  0.2820
  199MOL0     H26838   9.059   6.660   9.426 -4.9812  2.3795 -2.1458
  199MOL0     H26839   8.824   6.616   9.599 -0.5909  0.5139 -0.6448
  199MOL0     H26840   8.859   6.782   9.564 -0.8720 -0.4257  2.9564
  199MOL0     H26841   8.836   6.551   9.352  2.5907  0.4409  1.2671
  199MOL0     H26842   8.863   6.711   9.314 -2.9562 -0.8615 -2.7040
  199MOL0     H26843   8.671   6.770   9.473  2.7919  0.3728 -0.8576
  199MOL0     H26844   8.632   6.682   9.317  1.6670  0.0926 -0.7860
  199MOL0     H26845   9.440   7.009   9.477 -0.0459 -3.0278  0.2739
  199MOL0     H26846   9.586   7.216   9.415 -2.4269 -0.7226  0.0053
  199MOL0     H26847   9.808   7.501   9.499 -0.5772  3.5924  2.2835
  199MOL0     H26848   9.888   7.729   9.459  1.7079  1.3085 -1.2745
  199MOL0     H26849   9.370   7.643   9.903  1.7751  0.9276  0.8597
  199MOL0     H26850   9.297   7.811  10.105 -2.6370  0.3877  0.3056
  199MOL0     H26851   9.171   8.029  10.350  0.6774 -0.5893 -0.6058
  199MOL0     H26852   9.108   8.144  10.555 -2.6525 -0.7600 -3.0691
  199MOL0     H26853   9.080   8.530  10.582 -2.2178  0.0276  1.9503
  199MOL0     H26854   9.249   8.578  10.634  0.0605 -0.0343 -0.1618
  199MOL0     H26855   9.164   8.638  10.814 -1.1383 -1.1935  1.0814
  199MOL0     H26856   9.151   8.474  10.864 -0.8098  2.6087  1.6237
  199MOL0     H26857   8.916   8.485  10.730  1.5798  0.0640 -2.0965
  199MOL0     H26858   8.923   8.656  10.776  0.5265  0.4335  0.2416
  199MOL0     H26859   8.799   8.494  10.944  1.0656 -2.8259  2.9021
  199MOL0     H26860   8.966   8.452  10.980  4.1291 -0.0886 -1.2157
  199MOL0     H26861   8.925   8.848  11.154 -2.2401 -0.1695 -0.3038
  199MOL0     H26862   9.376   8.473  10.465  1.6365 -0.4483 -0.6444
  199MOL0     H26863   9.453   8.496  10.234 -2.5093 -0.2389  1.6018
  199MOL0     H26864   9.550   8.342  10.225 -1.0664 -2.1240 -0.5145
  199MOL0     H26865   9.418   8.389  10.110  1.7531  1.1957 -1.2396
  200MOL0     O26866   1.078   3.004  10.978 -0.4208  0.5648 -0.3987
  200MOL0     C26867   1.054   2.887  10.942  0.3409 -0.1749 -0.5740
  200MOL0     O26868   1.143   2.790  10.927 -0.5336 -0.1407 -0.3942
  200MOL0     C26869   1.269   2.812  10.980  0.8791 -0.3355  0.0630
  200MOL0     C26870   1.378   2.759  10.909  0.6535  0.0982 -0.6178
  200MOL0     C26871   1.503   2.748  10.967 -0.1817 -0.6181  0.4641
  200MOL0     C26872   1.537   2.819  11.083  0.0999 -0.5019  0.7227
  200MOL0     O26873   1.664   2.826  11.132  0.2914  0.1839 -0.1272
  200MOL0     C26874   1.763   2.851  11.032  0.1515  0.1463 -1.2950
  200MOL0     C26875   1.907   2.879  11.105  0.2787 -0.3690  0.4563
  200MOL0     C26876   2.000   2.757  11.107  0.6255 -0.0747  0.6831
  200MOL0     C26877   2.086   2.723  10.986  0.8847  0.2124  0.7096
  200MOL0     C26878   2.203   2.634  11.009 -0.1495 -0.2115  0.4538
  200MOL0     C26879   2.333   2.695  11.068  0.1728 -0.2342  0.0753
  200MOL0     C26880   2.335   2.681  11.215  0.6310  0.3689 -0.0618
  200MOL0     C26881   2.445   2.765  11.269  0.2172 -0.7434  0.0110
  200MOL0     N26882   2.453   2.759  11.417 -0.6020  0.1940  0.3807
  200MOL0     C26883   2.350   2.761  11.503 -0.7600  0.2791 -1.2239
  200MOL0     C26884   2.403   2.732  11.629  0.0166 -0.2096 -0.4135
  200MOL0     C26885   2.323   2.702  11.761 -0.0806 -0.3937  0.0597
  200MOL0     C26886   2.402   2.640  11.879  0.1699 -0.7004  0.8498
  200MOL0     C26887   2.304   2.593  11.988 -0.5478 -0.1239 -0.6718
  200MOL0     C26888   2.369   2.559  12.121  0.4162  0.6988 -0.2505
  200MOL0     O26889   2.487   2.470  12.110  0.8596 -0.4211 -0.2301
  200MOL0     C26890   2.534   2.459  12.231 -0.5916 -0.3029  0.0757
  200MOL0     C26891   2.485   2.366  12.327 -0.5388 -0.8385  0.7667
  200MOL0     C26892   2.556   2.342  12.449 -0.6638  0.5795  0.3266
  200MOL0     C26893   2.668   2.428  12.487  1.0112  0.6956  0.1058
  200MOL0     C26894   2.733   2.416  12.610 -0.0352  0.6133 -0.8777
  200MOL0     O26895   2.843   2.504  12.628  0.1753 -0.3070 -0.3426
  200MOL0     C26896   2.937   2.486  12.728  0.8835 -1.4621 -0.6546
  200MOL0     C26897   3.071   2.473  12.699 -0.4922 -0.2448 -1.1301
  200MOL0     C26898   3.165   2.431  12.801 -1.2040  0.7054  0.4482
  200MOL0     C26899   3.127   2.416  12.934  0.2234 -0.5432 -0.7326
  200MOL0     O26900   3.217   2.382  13.031  1.1532  0.3290 -0.0386
  200MOL0     C26901   3.196   2.467  13.156  0.0745  0.7499  0.7804
  200MOL0     C26902   3.299   2.407  13.247 -0.9377 -0.1364 -0.2097
  200MOL0     C26903   3.301   2.475  13.386 -0.7759  0.0469  0.6416
  200MOL0     C26904   3.375   2.405  13.490  0.4424 -0.4005 -0.5911
  200MOL0     C26905   3.299   2.298  13.567  0.6002 -0.0822 -0.0237
  200MOL0     C26906   3.390   2.206  13.639  0.2409 -0.4886 -0.4297
  200MOL0     C26907   3.319   2.083  13.692 -0.5021 -0.2698 -0.2046
  200MOL0     C26908   3.387   2.020  13.817  1.3298  0.0284  0.7584
  200MOL0    Cl26909   3.527   1.928  13.754  0.3834 -0.1748 -0.3044
  200MOL0     C26910   2.997   2.459  12.967  1.3059 -0.8243  0.0728
  200MOL0     C26911   2.900   2.489  12.865  0.2008  0.4209  1.0763
  200MOL0     O26912   2.711   2.323  12.686 -0.4786  0.4785 -0.7158
  200MOL0     C26913   2.712   2.523  12.396 -0.4015  0.3527  0.0512
  200MOL0     C26914   2.656   2.533  12.266  0.9380  0.1997  0.1375
  200MOL0     N26915   2.541   2.709  11.614  0.6862  0.0466 -0.2296
  200MOL0     N26916   2.568   2.723  11.488  0.1338 -0.5899  0.1080
  200MOL0     C26917   1.431   2.889  11.146 -0.4220  0.4439  0.1383
  200MOL0     C26918   1.301   2.880  11.102  1.0201  0.6375 -0.0032
  200MOL0     C26919   0.904   2.855  10.931  0.2277  0.9571 -0.8848
  200MOL0     C26920   0.871   2.720  10.945 -0.3933  0.4563  0.0669
  200MOL0     C26921   0.736   2.685  10.934 -0.5706 -0.0462 -0.3806
  200MOL0     C26922   0.627   2.771  10.911  0.9572 -1.1336 -0.9981
  200MOL0     O26923   0.499   2.715  10.898  0.7193 -0.7093 -0.1169
  200MOL0     C26924   0.396   2.795  10.831 -0.5373 -0.3848 -0.1285
  200MOL0     C26925   0.267   2.721  10.805 -1.1262 -0.2917 -0.5436
  200MOL0     C26926   0.145   2.808  10.794  0.3217 -0.2024 -0.9069
  200MOL0     C26927   0.058   2.758  10.679  0.4747  0.4330  0.2418
  200MOL0     C26928   0.126   2.793  10.552  0.5585 -0.3668 -0.1348
  200MOL0     C26929   0.173   2.826  10.442  0.4224  0.0090 -1.4339
  200MOL0     C26930   0.659   2.907  10.899 -0.1887  0.1591  0.6512
  200MOL0     C26931   0.795   2.950  10.896 -0.3106 -0.2839  0.3847
  200MOL0     C26932   0.831   3.098  10.880  0.4273  0.2729 -0.3334
  200MOL0     H26933   1.378   2.723  10.807  4.2015  1.7370 -1.3680
  200MOL0     H26934   1.574   2.679  10.922  0.4509  0.0387  0.4527
  200MOL0     H26935   1.780   2.762  10.971  2.5729  1.1796 -2.2883
  200MOL0     H26936   1.744   2.936  10.965 -0.4461 -0.3142 -1.7151
  200MOL0     H26937   1.900   2.906  11.211 -0.1443 -0.6170  0.4946
  200MOL0     H26938   1.951   2.961  11.048 -0.0482  2.8798  4.3997
  200MOL0     H26939   1.937   2.672  11.134  2.8033 -2.1570 -0.4749
  200MOL0     H26940   2.066   2.794  11.186 -0.6598 -0.1881  1.8546
  200MOL0     H26941   2.025   2.684  10.904  2.3362  1.3039 -0.9555
  200MOL0     H26942   2.122   2.820  10.949  2.5632  0.0204  1.7585
  200MOL0     H26943   2.158   2.553  11.067 -2.1676 -0.7737 -1.6949
  200MOL0     H26944   2.235   2.599  10.910  3.3615 -0.3170  1.5109
  200MOL0     H26945   2.420   2.645  11.024  1.2287  3.0198 -1.8392
  200MOL0     H26946   2.349   2.795  11.026 -0.6190 -0.5322 -1.0009
  200MOL0     H26947   2.362   2.579  11.244  3.9124  0.6667 -1.6199
  200MOL0     H26948   2.242   2.712  11.263 -0.1425  0.0017 -1.2859
  200MOL0     H26949   2.539   2.730  11.225 -1.3272 -2.3571 -2.1982
  200MOL0     H26950   2.429   2.871  11.248  0.7833 -0.2571  1.8151
  200MOL0     H26951   2.248   2.797  11.488 -0.9065 -0.4803 -2.2060
  200MOL0     H26952   2.290   2.801  11.792 -2.0547 -0.9700 -0.0707
  200MOL0     H26953   2.243   2.640  11.721  0.0098  0.4005 -1.4454
  200MOL0     H26954   2.463   2.557  11.842  0.1130 -0.7684  0.9069
  200MOL0     H26955   2.473   2.714  11.916 -0.5142  2.3973 -3.2605
  200MOL0     H26956   2.246   2.507  11.951 -0.5006 -0.9388  1.0236
  200MOL0     H26957   2.238   2.677  12.011  0.2973  0.5825 -0.8032
  200MOL0     H26958   2.296   2.508  12.185  0.4821  0.0431 -0.6905
  200MOL0     H26959   2.410   2.646  12.174  2.8494 -0.2675 -0.4272
  200MOL0     H26960   2.392   2.315  12.304 -0.7387  0.0983 -0.6178
  200MOL0     H26961   2.530   2.257  12.512  0.1740 -0.8049 -1.0896
  200MOL0     H26962   3.091   2.488  12.594 -0.3821  0.6088 -0.9890
  200MOL0     H26963   3.268   2.403  12.784 -1.6824 -1.2867  0.6072
  200MOL0     H26964   3.215   2.573  13.139 -4.0106  1.4498 -0.2951
  200MOL0     H26965   3.095   2.473  13.196 -0.9212  0.3614 -1.5516
  200MOL0     H26966   3.288   2.299  13.261 -0.2460 -0.1798  0.0180
  200MOL0     H26967   3.397   2.427  13.203 -2.4765 -0.9391 -4.5198
  200MOL0     H26968   3.332   2.580  13.376 -1.3615  0.3168  1.4841
  200MOL0     H26969   3.196   2.474  13.418 -1.5049 -2.2571 -1.5359
  200MOL0     H26970   3.415   2.475  13.564 -0.4562  0.2581 -0.7156
  200MOL0     H26971   3.463   2.359  13.445  0.1688 -1.0338 -0.4830
  200MOL0     H26972   3.232   2.248  13.496 -0.3514  1.9284 -0.6484
  200MOL0     H26973   3.238   2.346  13.644 -1.7384 -1.3189 -0.9733
  200MOL0     H26974   3.458   2.173  13.559  0.6069  1.6268 -1.0436
  200MOL0     H26975   3.447   2.245  13.723  3.1239  0.6352 -2.7218
  200MOL0     H26976   3.320   2.005  13.615  1.6906  1.3105 -1.8902
  200MOL0     H26977   3.223   2.120  13.729  0.5399  0.5034  1.8699
  200MOL0     H26978   3.407   2.087  13.902  0.0009  0.4765  0.7383
  200MOL0     H26979   3.305   1.959  13.855  0.6421  0.5519  0.1598
  200MOL0     H26980   2.955   2.466  13.067  1.2428 -0.2197  0.0023
  200MOL0     H26981   2.806   2.533  12.895  0.8708  2.0684  0.8815
  200MOL0     H26982   2.792   2.597  12.398  1.4312 -0.8629 -6.3569
  200MOL0     H26983   2.702   2.606  12.202 -0.0569  1.3596  0.7001
  200MOL0     H26984   1.457   2.951  11.230 -1.4081  2.0758 -0.7098
  200MOL0     H26985   1.217   2.918  11.160  2.9799  0.3899  3.2418
  200MOL0     H26986   0.944   2.646  10.976  3.4751  3.8154 -0.2564
  200MOL0     H26987   0.714   2.581  10.957  0.7107 -0.6643 -1.7435
  200MOL0     H26988   0.438   2.845  10.743  1.8055  0.4818  1.3679
  200MOL0     H26989   0.389   2.870  10.911 -0.1925 -0.3538 -0.1260
  200MOL0     H26990   0.264   2.630  10.865  2.1820 -0.9558 -1.1815
  200MOL0     H26991   0.281   2.675  10.707 -0.9135  2.1633 -1.7589
  200MOL0     H26992   0.173   2.913  10.786  1.7954 -0.5247 -0.3900
  200MOL0     H26993   0.082   2.790  10.881 -2.3928 -1.8412 -3.0628
  200MOL0     H26994   0.048   2.649  10.683  1.2488  0.3478  0.1446
  200MOL0     H26995  -0.042   2.801  10.674 -0.3226 -1.1552  1.7471
  200MOL0     H26996   0.218   2.860  10.352  1.6737 -3.2043 -2.1357
  200MOL0     H26997   0.579   2.980  10.898  0.0089  0.4957 -2.3734
  200MOL0     H26998   0.752   3.164  10.844  1.4144  0.8204 -1.5482
  200MOL0     H26999   0.861   3.133  10.980 -0.3211 -0.5743  0.2063
  200MOL0     H27000   0.905   3.121  10.803 -0.0001  3.7755  0.1285
  201MOL0     O27001   4.511   7.847   9.067  0.2154 -0.5856  0.1435
  201MOL0     C27002   4.483   7.730   9.054  0.5565  0.1479  0.3740
  201MOL0     O27003   4.526   7.657   8.943  0.3614 -0.2612  0.0117
  201MOL0     C27004   4.507   7.709   8.818 -0.1105 -0.3189 -0.8558
  201MOL0     C27005   4.429   7.823   8.775  0.3297 -0.5530  1.0643
  201MOL0     C27006   4.398   7.839   8.636  0.7642 -0.1035  1.1148
  201MOL0     C27007   4.452   7.746   8.535 -0.5456  0.5943 -0.3029
  201MOL0     O27008   4.418   7.763   8.399  0.2073  0.9959 -0.5771
  201MOL0     C27009   4.526   7.768   8.301 -0.5007  0.8767  0.8746
  201MOL0     C27010   4.470   7.828   8.174  0.4133 -0.9435  0.5511
  201MOL0     C27011   4.387   7.955   8.205  0.4196  0.7769  0.3474
  201MOL0     C27012   4.373   8.060   8.096 -0.6771  0.8338 -0.3933
  201MOL0     C27013   4.284   8.162   8.152  0.5900  0.5451 -0.8788
  201MOL0     C27014   4.144   8.155   8.073  0.3684 -0.3289  0.5516
  201MOL0     C27015   4.144   8.270   7.964 -1.6287  0.2650 -0.3654
  201MOL0     C27016   4.006   8.299   7.876  0.4936 -0.5376 -0.4001
  201MOL0     N27017   3.894   8.345   7.961 -0.2904 -0.2561  0.5813
  201MOL0     C27018   3.834   8.275   8.059 -0.3054 -0.3026  0.3058
  201MOL0     C27019   3.764   8.363   8.128  0.0746 -0.2940  0.3783
  201MOL0     C27020   3.685   8.329   8.250  0.3614  0.6142 -0.3027
  201MOL0     C27021   3.765   8.233   8.351 -1.6098 -0.3752  0.3459
  201MOL0     C27022   3.882   8.317   8.412  1.1007 -0.2449  0.7153
  201MOL0     C27023   3.947   8.237   8.521 -0.1659 -0.3059 -0.7704
  201MOL0     O27024   3.863   8.196   8.622  0.1852 -0.4026 -0.0673
  201MOL0     C27025   3.912   8.145   8.742 -0.0910  0.9248  0.7198
  201MOL0     C27026   3.817   8.133   8.844  0.3444 -1.0816  0.5375
  201MOL0     C27027   3.846   8.073   8.963 -0.5146  0.0258 -1.1399
  201MOL0     C27028   3.973   8.016   8.984 -0.8037  0.1957  0.5267
  201MOL0     C27029   4.002   7.946   9.110  0.1784 -0.6810  0.7594
  201MOL0     O27030   3.919   7.990   9.209 -0.2003  0.2577 -1.0897
  201MOL0     C27031   3.929   7.914   9.323  0.6974 -0.1532 -0.1168
  201MOL0     C27032   3.981   7.967   9.438 -0.0936 -0.4768 -0.3731
  201MOL0     C27033   3.960   7.914   9.563  0.1218  0.1920  0.3044
  201MOL0     C27034   3.886   7.793   9.579 -0.1602  0.1723  0.0597
  201MOL0     O27035   3.861   7.734   9.701  0.2241  0.3707 -0.0212
  201MOL0     C27036   3.899   7.805   9.817 -0.1179 -0.4609  0.8715
  201MOL0     C27037   3.886   7.706   9.933 -0.0763  0.3374  1.1435
  201MOL0     C27038   4.013   7.622   9.942 -0.0737  0.6773  0.4738
  201MOL0     C27039   4.000   7.485  10.005  0.5599  0.7371 -0.0407
  201MOL0     C27040   4.136   7.419  10.036  0.4204  1.0742  0.0808
  201MOL0     C27041   4.117   7.281  10.102  0.1383 -0.1205 -0.8081
  201MOL0     C27042   4.061   7.169  10.017  0.2042  0.5070  0.4188
  201MOL0     C27043   4.049   7.043  10.103 -0.5688  0.6717  1.0346
  201MOL0    Cl27044   3.991   6.899  10.007  0.2414 -0.2366  0.0297
  201MOL0     C27045   3.852   7.732   9.459  0.3940  0.7253 -0.0894
  201MOL0     C27046   3.871   7.785   9.332  1.3672 -0.4844 -1.1562
  201MOL0     O27047   4.085   7.854   9.108  0.6790 -0.1346 -0.1839
  201MOL0     C27048   4.070   8.028   8.884 -0.1950  0.3749 -0.2622
  201MOL0     C27049   4.040   8.089   8.768  0.1947  0.2301  0.4061
  201MOL0     N27050   3.774   8.487   8.073 -0.5850  0.6863  0.7209
  201MOL0     N27051   3.864   8.473   7.975 -0.0065  0.5056  0.3639
  201MOL0     C27052   4.529   7.640   8.586 -0.9453  0.0282  0.6689
  201MOL0     C27053   4.555   7.618   8.723  0.5968 -0.3214  0.0925
  201MOL0     C27054   4.400   7.658   9.157 -0.8241 -0.1224 -0.7122
  201MOL0     C27055   4.302   7.733   9.232 -0.6120 -0.3359  0.6556
  201MOL0     C27056   4.235   7.676   9.341 -0.6708  0.2184 -0.0009
  201MOL0     C27057   4.250   7.536   9.352 -0.3492  0.1459 -0.3881
  201MOL0     O27058   4.189   7.464   9.449 -0.3561 -0.5609 -0.2131
  201MOL0     C27059   4.043   7.434   9.422  0.2032 -1.3457  0.1655
  201MOL0     C27060   3.976   7.408   9.558 -0.2490 -0.0632 -0.1776
  201MOL0     C27061   4.030   7.286   9.635 -0.1365 -0.2889  0.4563
  201MOL0     C27062   4.000   7.136   9.585 -0.8017 -0.0114  1.4865
  201MOL0     C27063   3.855   7.116   9.570 -0.4675  0.4101 -0.1268
  201MOL0     C27064   3.739   7.105   9.554  0.4485 -1.1528 -0.1395
  201MOL0     C27065   4.334   7.460   9.267  1.0398  0.3948 -0.6601
  201MOL0     C27066   4.418   7.516   9.176 -0.9782 -0.8685  0.6284
  201MOL0     C27067   4.523   7.416   9.110 -0.0843 -0.3544 -0.1448
  201MOL0     H27068   4.400   7.910   8.834  0.6082  0.4026 -0.1603
  201MOL0     H27069   4.349   7.929   8.599  3.8090  0.2772 -2.5887
  201MOL0     H27070   4.606   7.839   8.324  1.6108 -0.0310 -2.7631
  201MOL0     H27071   4.575   7.672   8.281  3.9923  2.4746  2.7141
  201MOL0     H27072   4.391   7.761   8.138 -1.5785  2.3067 -1.7022
  201MOL0     H27073   4.555   7.846   8.108  1.6862 -2.3410  1.7509
  201MOL0     H27074   4.435   7.995   8.295 -0.9476  2.6569  0.2850
  201MOL0     H27075   4.292   7.916   8.243  0.9852 -0.4730  0.5415
  201MOL0     H27076   4.476   8.093   8.084  0.7037 -2.0844  2.1272
  201MOL0     H27077   4.333   8.030   7.999 -1.8885 -2.7820  1.0691
  201MOL0     H27078   4.262   8.159   8.259 -0.2713 -1.4788 -1.0738
  201MOL0     H27079   4.331   8.260   8.138  2.0619 -0.1367 -0.9165
  201MOL0     H27080   4.121   8.063   8.018  1.1245 -0.3438  0.2449
  201MOL0     H27081   4.066   8.174   8.148  1.1186  0.4501  1.1568
  201MOL0     H27082   4.217   8.250   7.886 -1.7481  1.9370 -0.9457
  201MOL0     H27083   4.160   8.372   8.002 -1.3711  0.5556 -1.2373
  201MOL0     H27084   4.015   8.367   7.791 -2.3541 -0.8051 -0.9940
  201MOL0     H27085   3.975   8.199   7.843 -1.0830 -1.4818  3.4036
  201MOL0     H27086   3.833   8.170   8.088  1.6214 -1.1875 -2.3783
  201MOL0     H27087   3.644   8.417   8.302 -1.9389 -0.3398 -0.3592
  201MOL0     H27088   3.596   8.277   8.213  0.6214 -0.5947  0.7324
  201MOL0     H27089   3.704   8.204   8.436  0.1212 -2.4624  0.9707
  201MOL0     H27090   3.800   8.138   8.310 -0.7835  0.0680 -0.0070
  201MOL0     H27091   3.832   8.403   8.459 -0.2632  0.5473 -1.9748
  201MOL0     H27092   3.952   8.354   8.337  0.1973  0.1604  0.0506
  201MOL0     H27093   4.025   8.297   8.569 -1.2919 -1.1786  2.3274
  201MOL0     H27094   4.001   8.155   8.471 -0.2846  0.2943 -1.9305
  201MOL0     H27095   3.717   8.160   8.812  0.5816 -2.5467 -1.5970
  201MOL0     H27096   3.781   8.058   9.049  0.2821 -1.8668 -0.8200
  201MOL0     H27097   4.042   8.056   9.448 -0.1349 -0.6695  2.1746
  201MOL0     H27098   3.991   7.973   9.648  4.0680 -0.4616 -0.5046
  201MOL0     H27099   4.004   7.835   9.808 -0.5014  0.9632  0.9264
  201MOL0     H27100   3.838   7.893   9.839  0.2469  0.4623 -1.5430
  201MOL0     H27101   3.880   7.759  10.028  2.6782 -1.0390  2.1873
  201MOL0     H27102   3.802   7.637   9.922  2.7602 -3.1114 -1.1494
  201MOL0     H27103   4.071   7.613   9.850 -0.3375  1.0678  0.2634
  201MOL0     H27104   4.082   7.675  10.008 -2.5795  1.0072  3.0596
  201MOL0     H27105   3.947   7.419   9.935  0.7031 -1.6610  1.9743
  201MOL0     H27106   3.937   7.479  10.094 -2.7580 -0.7030 -2.2876
  201MOL0     H27107   4.199   7.478  10.102  1.6697 -0.9994  0.8172
  201MOL0     H27108   4.190   7.408   9.941 -0.7104 -1.2732 -0.3692
  201MOL0     H27109   4.212   7.257  10.150  1.1858 -0.4389 -2.9325
  201MOL0     H27110   4.053   7.298  10.190 -1.2145 -0.1625 -1.7470
  201MOL0     H27111   4.138   7.159   9.940  2.5714  4.8173  1.9058
  201MOL0     H27112   3.957   7.187   9.990  0.6030  2.9038  0.2621
  201MOL0     H27113   4.152   7.023  10.133 -1.0207 -2.3211  0.8121
  201MOL0     H27114   3.981   7.049  10.189 -2.6897  0.1826 -0.5478
  201MOL0     H27115   3.820   7.629   9.462 -1.9551  1.3247 -1.8023
  201MOL0     H27116   3.853   7.723   9.245  4.2150 -1.4356 -1.1546
  201MOL0     H27117   4.172   7.996   8.904 -0.4545  0.4633  1.3220
  201MOL0     H27118   4.107   8.088   8.683 -0.1600 -3.1141  0.0563
  201MOL0     H27119   4.574   7.580   8.508 -2.3587  0.7495 -0.7473
  201MOL0     H27120   4.616   7.534   8.754  1.9177  0.3454 -0.6443
  201MOL0     H27121   4.309   7.840   9.215  0.9406 -0.7903 -2.2468
  201MOL0     H27122   4.172   7.741   9.400  1.5867  2.8969 -0.3078
  201MOL0     H27123   4.027   7.346   9.358  2.0437 -0.8088 -1.0987
  201MOL0     H27124   3.990   7.519   9.378 -0.9858 -1.9198  0.4229
  201MOL0     H27125   3.870   7.392   9.538  0.0457 -1.8583 -0.4337
  201MOL0     H27126   3.989   7.501   9.615  2.1773 -1.1689  1.2497
  201MOL0     H27127   3.993   7.298   9.737 -0.4654 -1.0621  0.4334
  201MOL0     H27128   4.139   7.288   9.643  0.2272 -0.7120 -2.9612
  201MOL0     H27129   4.043   7.110   9.489 -2.2733 -0.8334  1.0279
  201MOL0     H27130   4.047   7.070   9.659  0.7141  0.2033  0.7518
  201MOL0     H27131   3.632   7.107   9.555  0.4106  1.8289 -0.8803
  201MOL0     H27132   4.340   7.353   9.286  4.5804  0.1137 -2.5837
  201MOL0     H27133   4.526   7.319   9.159 -0.9233 -0.0709  0.5027
  201MOL0     H27134   4.523   7.409   9.001 -0.2588  2.3498 -0.3873
  201MOL0     H27135   4.619   7.464   9.133 -0.7354  0.5377  0.8242
  202MOL0     O27136   0.037   8.742   0.364  0.0255 -0.8854  0.1108
  202MOL0     C27137   0.012   8.733   0.243 -1.0063 -0.3614  0.0756
  202MOL0     O27138  -0.098   8.777   0.179 -0.5143  0.4206 -0.5413
  202MOL0     C27139  -0.199   8.822   0.265  0.5885  0.0998 -0.5978
  202MOL0     C27140  -0.203   8.954   0.310  0.2859  0.9642 -0.0550
  202MOL0     C27141  -0.297   8.993   0.408 -0.0101 -1.4115  0.5437
  202MOL0     C27142  -0.392   8.903   0.458 -0.2710 -0.6077  1.1080
  202MOL0     O27143  -0.490   8.960   0.536  0.5522 -0.3254 -0.3855
  202MOL0     C27144  -0.575   8.860   0.608 -0.7883 -0.3886 -0.0036
  202MOL0     C27145  -0.692   8.944   0.652 -0.7711  0.1885 -1.2517
  202MOL0     C27146  -0.666   9.019   0.785  0.6471 -0.2448  0.2549
  202MOL0     C27147  -0.745   8.957   0.905 -0.5978  0.2694  0.1306
  202MOL0     C27148  -0.696   8.974   1.050  0.8840  0.2800 -0.8327
  202MOL0     C27149  -0.796   8.958   1.164  1.3739 -0.3368 -0.7489
  202MOL0     C27150  -0.729   8.953   1.310 -0.7920 -1.0327  0.1153
  202MOL0     C27151  -0.813   8.878   1.417  0.0816  0.3426  0.0439
  202MOL0     N27152  -0.824   8.934   1.554 -0.1354 -0.4715  1.0544
  202MOL0     C27153  -0.764   8.879   1.655  0.3768  0.0062  0.1860
  202MOL0     C27154  -0.805   8.936   1.767 -0.6261  0.6394 -0.4008
  202MOL0     C27155  -0.767   8.905   1.905  0.0032 -0.4519 -0.2173
  202MOL0     C27156  -0.889   8.897   1.993  0.6373  0.6985 -0.0426
  202MOL0     C27157  -0.850   8.851   2.136  0.2617  0.4350  0.0925
  202MOL0     C27158  -0.981   8.856   2.230 -0.3295 -0.3968 -0.5084
  202MOL0     O27159  -0.952   8.803   2.352 -0.0098  0.1870 -0.3203
  202MOL0     C27160  -1.043   8.722   2.407 -0.3679  1.1454 -0.0361
  202MOL0     C27161  -1.160   8.778   2.459  1.3639  0.2567  0.4067
  202MOL0     C27162  -1.266   8.691   2.491 -0.6736  0.7114  0.1367
  202MOL0     C27163  -1.248   8.552   2.465  0.1245 -0.0441  0.9935
  202MOL0     C27164  -1.369   8.472   2.483 -0.1901  0.0524  0.1984
  202MOL0     O27165  -1.342   8.344   2.527  0.2732  0.8191  0.5836
  202MOL0     C27166  -1.440   8.255   2.549 -0.4511  0.0469  0.6798
  202MOL0     C27167  -1.560   8.252   2.477  0.3287 -0.3218 -0.4825
  202MOL0     C27168  -1.657   8.161   2.526 -0.6887 -0.3966  0.5872
  202MOL0     C27169  -1.635   8.067   2.619  0.2366  0.0347 -0.5524
  202MOL0     O27170  -1.731   7.980   2.646  0.1049  0.1697 -0.7243
  202MOL0     C27171  -1.768   7.955   2.779  0.1546  1.1152  0.1281
  202MOL0     C27172  -1.918   7.914   2.810  0.5922  0.7726  0.0664
  202MOL0     C27173  -1.983   7.967   2.935 -0.6366 -0.0511  0.5149
  202MOL0     C27174  -1.925   7.898   3.060 -0.0408 -0.7024  0.1686
  202MOL0     C27175  -2.035   7.818   3.128  0.7227 -0.5446  0.9980
  202MOL0     C27176  -1.994   7.736   3.248  0.0206 -0.5376  1.1332
  202MOL0     C27177  -1.958   7.805   3.378 -0.3490  0.6842 -0.0157
  202MOL0     C27178  -1.812   7.834   3.408  0.7878 -0.3984  0.4786
  202MOL0    Cl27179  -1.803   8.009   3.376  0.3425  0.3693 -0.1298
  202MOL0     C27180  -1.514   8.069   2.688 -0.6621  0.3477 -0.5751
  202MOL0     C27181  -1.417   8.162   2.653  0.1914  0.0597  1.0089
  202MOL0     O27182  -1.474   8.518   2.459 -0.4831 -0.4596 -0.0823
  202MOL0     C27183  -1.127   8.496   2.418  0.6099 -0.1913  1.1984
  202MOL0     C27184  -1.021   8.582   2.400 -0.1488 -0.0279  0.1207
  202MOL0     N27185  -0.887   9.040   1.732  0.4111  0.3905 -0.5177
  202MOL0     N27186  -0.892   9.044   1.604  0.8852  0.3520 -0.7400
  202MOL0     C27187  -0.379   8.774   0.420  0.2804 -0.2687  0.0566
  202MOL0     C27188  -0.290   8.734   0.324 -0.4147  0.3685  0.4405
  202MOL0     C27189   0.114   8.679   0.163 -0.1380  0.4351  1.0348
  202MOL0     C27190   0.093   8.547   0.126 -1.1811  0.0361 -0.1345
  202MOL0     C27191   0.186   8.489   0.038  0.0193  0.1234 -0.3724
  202MOL0     C27192   0.298   8.565  -0.014 -0.7267 -0.4632 -0.3672
  202MOL0     O27193   0.385   8.513  -0.104  0.1956 -0.5569 -0.3604
  202MOL0     C27194   0.370   8.540  -0.243  0.1820  0.0767 -0.2530
  202MOL0     C27195   0.265   8.458  -0.310 -0.6914 -0.1553 -0.1039
  202MOL0     C27196   0.172   8.533  -0.403 -0.1053 -0.5865  0.4349
  202MOL0     C27197   0.080   8.643  -0.349  0.9510  0.8638  0.7167
  202MOL0     C27198  -0.008   8.574  -0.260  0.5243  0.3479 -0.6131
  202MOL0     C27199  -0.085   8.540  -0.178  0.1150  0.7515  0.5231
  202MOL0     C27200   0.319   8.699   0.027 -0.1343  0.5955 -1.1143
  202MOL0     C27201   0.224   8.750   0.107  0.0442 -0.4813 -0.4513
  202MOL0     C27202   0.243   8.894   0.144  0.1987  0.1279 -0.7720
  202MOL0     H27203  -0.134   9.031   0.277 -0.5074  2.0143  0.6501
  202MOL0     H27204  -0.284   9.090   0.456  0.0379 -1.9044  1.5534
  202MOL0     H27205  -0.606   8.775   0.547 -0.5204 -0.0705 -0.5995
  202MOL0     H27206  -0.512   8.813   0.684 -3.9203  0.0836  3.1164
  202MOL0     H27207  -0.778   8.876   0.655 -0.0758 -0.6616  0.0356
  202MOL0     H27208  -0.720   9.023   0.581  0.5213 -0.2283 -2.2665
  202MOL0     H27209  -0.713   9.118   0.775  1.0071  0.1530  2.1172
  202MOL0     H27210  -0.559   9.041   0.795  1.0950 -1.1589 -1.8814
  202MOL0     H27211  -0.836   9.016   0.891  0.4353  2.3526  1.5803
  202MOL0     H27212  -0.768   8.852   0.883  0.4528  0.1632 -0.5205
  202MOL0     H27213  -0.610   8.907   1.052  1.4463  0.8836 -2.5347
  202MOL0     H27214  -0.663   9.078   1.056 -1.4559  0.9859  2.2382
  202MOL0     H27215  -0.860   9.046   1.168  0.7971 -0.7097 -1.5673
  202MOL0     H27216  -0.853   8.866   1.147 -0.4944  0.6865 -0.3764
  202MOL0     H27217  -0.730   9.058   1.342  2.9288 -0.2830 -1.6878
  202MOL0     H27218  -0.624   8.923   1.306  0.2979  2.2874  0.1737
  202MOL0     H27219  -0.920   8.880   1.395  0.1210  0.3679 -0.1465
  202MOL0     H27220  -0.779   8.774   1.417  1.4887  0.7748 -1.0336
  202MOL0     H27221  -0.711   8.784   1.658 -0.0894 -0.2605  0.0826
  202MOL0     H27222  -0.710   8.812   1.903 -0.8603 -1.1346  2.8281
  202MOL0     H27223  -0.697   8.981   1.942 -2.7312  1.1206  2.1918
  202MOL0     H27224  -0.937   8.995   1.997 -0.8264 -0.0059  0.3447
  202MOL0     H27225  -0.960   8.826   1.949  1.9403 -1.8116  1.7058
  202MOL0     H27226  -0.774   8.923   2.167 -1.5036  1.3393  2.6377
  202MOL0     H27227  -0.803   8.753   2.138 -0.6527 -0.1393 -2.5537
  202MOL0     H27228  -1.069   8.805   2.191 -2.0159  0.1270  2.3265
  202MOL0     H27229  -1.006   8.962   2.237 -3.5365 -0.8648 -2.6130
  202MOL0     H27230  -1.165   8.887   2.460 -0.2572  0.2134  0.2358
  202MOL0     H27231  -1.359   8.730   2.533 -0.8852  3.5452 -2.6217
  202MOL0     H27232  -1.584   8.328   2.403 -2.9662 -0.0239  0.7122
  202MOL0     H27233  -1.750   8.161   2.471  0.8751 -3.7984 -2.3758
  202MOL0     H27234  -1.714   7.873   2.826  0.5324  1.3578  0.1212
  202MOL0     H27235  -1.753   8.044   2.841  1.4537 -0.8918  2.8936
  202MOL0     H27236  -1.986   7.960   2.737  0.1539  1.0051  0.6137
  202MOL0     H27237  -1.934   7.805   2.806  4.0422  0.0820  1.5749
  202MOL0     H27238  -1.962   8.074   2.933  3.3650 -0.7146 -0.1433
  202MOL0     H27239  -2.092   7.957   2.943 -0.4158 -0.7524  4.1180
  202MOL0     H27240  -1.877   7.984   3.106 -0.1405  1.1620 -2.8963
  202MOL0     H27241  -1.843   7.829   3.039 -0.1347 -0.5521 -0.7788
  202MOL0     H27242  -2.062   7.753   3.044 -1.2010  2.4037 -0.8472
  202MOL0     H27243  -2.124   7.875   3.156 -2.1309 -4.1925  0.1350
  202MOL0     H27244  -2.086   7.680   3.270  0.6865 -1.9317  0.5001
  202MOL0     H27245  -1.914   7.673   3.208  1.8263  0.7184  2.5874
  202MOL0     H27246  -1.986   7.721   3.444 -0.8947  2.7358  2.5277
  202MOL0     H27247  -2.024   7.885   3.414 -1.8183 -0.5010  0.0568
  202MOL0     H27248  -1.783   7.805   3.509  2.5345 -1.9524 -0.4052
  202MOL0     H27249  -1.745   7.777   3.343  0.0230 -2.7644  1.6582
  202MOL0     H27250  -1.493   8.001   2.770  1.8393  0.1887 -1.2561
  202MOL0     H27251  -1.323   8.158   2.707  0.7987  0.4238  0.0043
  202MOL0     H27252  -1.126   8.390   2.393 -1.6109  0.3021 -1.4087
  202MOL0     H27253  -0.934   8.536   2.354 -0.8042 -1.3798  0.1949
  202MOL0     H27254  -0.440   8.694   0.461 -1.6528  0.9194 -0.3836
  202MOL0     H27255  -0.284   8.630   0.293  3.0410  0.6529 -0.2697
  202MOL0     H27256   0.003   8.501   0.165  0.5944 -0.3977  3.9574
  202MOL0     H27257   0.177   8.390  -0.005  4.9579 -0.2551 -1.1568
  202MOL0     H27258   0.468   8.507  -0.278 -0.1805 -1.0265 -0.2554
  202MOL0     H27259   0.366   8.644  -0.277 -0.6753  0.3553  0.6431
  202MOL0     H27260   0.205   8.398  -0.241 -3.8881  1.2249 -1.4503
  202MOL0     H27261   0.314   8.383  -0.373  3.5951  0.9478  1.5626
  202MOL0     H27262   0.106   8.466  -0.460 -0.8065 -0.7649  1.4264
  202MOL0     H27263   0.236   8.584  -0.475 -0.8203 -0.1084  0.1225
  202MOL0     H27264   0.130   8.722  -0.293  2.2633  0.3053  0.3668
  202MOL0     H27265   0.022   8.685  -0.431 -0.0146 -1.4052  0.1473
  202MOL0     H27266  -0.160   8.513  -0.107 -2.6816  1.1150 -2.0717
  202MOL0     H27267   0.413   8.747   0.003  1.8475 -1.0797  2.3908
  202MOL0     H27268   0.180   8.959   0.081  1.1008 -0.7970 -2.7282
  202MOL0     H27269   0.211   8.917   0.246 -2.2160  2.7385 -1.9398
  202MOL0     H27270   0.345   8.932   0.133 -0.7914  2.7102 -1.8982
  203MOL0     O27271   3.905   3.536   7.304 -0.0970 -0.0817  0.5094
  203MOL0     C27272   3.797   3.532   7.355 -0.8472 -0.7986  0.1243
  203MOL0     O27273   3.775   3.528   7.489  0.4790 -0.4517 -0.6435
  203MOL0     C27274   3.870   3.546   7.584 -0.5744 -0.2694  0.4148
  203MOL0     C27275   3.929   3.432   7.631  0.2429 -1.2292  0.1826
  203MOL0     C27276   4.030   3.438   7.727  0.1503  0.8721 -0.1967
  203MOL0     C27277   4.077   3.563   7.766  0.0852 -0.2739 -0.4600
  203MOL0     O27278   4.173   3.577   7.862  0.6218 -0.3052 -0.2351
  203MOL0     C27279   4.239   3.464   7.920 -0.5872 -0.2384  0.0459
  203MOL0     C27280   4.308   3.502   8.052 -0.3804 -0.4084 -0.5824
  203MOL0     C27281   4.431   3.594   8.040 -0.8310  0.7758  0.6907
  203MOL0     C27282   4.480   3.665   8.166  0.9465  0.2873  0.5128
  203MOL0     C27283   4.630   3.701   8.164 -0.4140 -0.7289 -1.0099
  203MOL0     C27284   4.665   3.764   8.303  0.4326 -1.2603 -0.3412
  203MOL0     C27285   4.817   3.781   8.324  0.7248  0.3666  0.6821
  203MOL0     C27286   4.869   3.887   8.222 -1.0392  0.1139  0.3675
  203MOL0     N27287   4.992   3.951   8.265  0.5300 -0.2256 -0.5026
  203MOL0     C27288   5.102   3.961   8.183  0.3973 -0.1760  0.9850
  203MOL0     C27289   5.179   4.045   8.253 -0.6925 -0.0973  0.4422
  203MOL0     C27290   5.301   4.096   8.189  0.0596  0.7061  0.0091
  203MOL0     C27291   5.262   4.222   8.101  0.5710  0.2588  0.3213
  203MOL0     C27292   5.372   4.278   8.013 -0.4498  0.5202 -0.7119
  203MOL0     C27293   5.341   4.414   7.947  0.4038  0.8660  0.0610
  203MOL0     O27294   5.233   4.383   7.861  0.1201 -1.0826  0.6367
  203MOL0     C27295   5.244   4.399   7.724 -0.4396  0.3031  0.1986
  203MOL0     C27296   5.365   4.399   7.646  0.0218 -0.7363 -0.1864
  203MOL0     C27297   5.357   4.436   7.511  0.0465  1.2724 -0.4451
  203MOL0     C27298   5.234   4.439   7.442  0.2963 -0.6791  0.5441
  203MOL0     C27299   5.231   4.455   7.290 -0.2406  0.2668 -0.0052
  203MOL0     O27300   5.104   4.494   7.249 -0.0020 -0.0812  0.4096
  203MOL0     C27301   5.063   4.532   7.116  0.8705 -0.4584 -0.5285
  203MOL0     C27302   4.949   4.611   7.110 -0.2627  0.9835 -0.3171
  203MOL0     C27303   4.891   4.642   6.985  0.0784 -0.1761 -1.0760
  203MOL0     C27304   4.957   4.600   6.868  0.4688 -0.9312  0.7522
  203MOL0     O27305   4.883   4.628   6.753 -0.1073  0.4019 -1.0022
  203MOL0     C27306   4.933   4.570   6.630  0.5400 -0.2931  0.6846
  203MOL0     C27307   4.819   4.579   6.530  0.2588  0.7240 -0.5615
  203MOL0     C27308   4.693   4.506   6.595  0.7635 -0.2709  0.2276
  203MOL0     C27309   4.598   4.437   6.490 -0.2666  0.6795 -0.2616
  203MOL0     C27310   4.665   4.321   6.406  0.7700  0.9344 -0.7185
  203MOL0     C27311   4.556   4.230   6.341 -0.5802 -1.0062 -0.1401
  203MOL0     C27312   4.611   4.158   6.219  0.1726 -0.5486  0.5481
  203MOL0     C27313   4.508   4.065   6.155 -0.5182 -0.4922  0.4127
  203MOL0    Cl27314   4.597   3.952   6.052 -0.2688  0.4268  0.1446
  203MOL0     C27315   5.076   4.537   6.870 -0.2951  0.0107  0.3054
  203MOL0     C27316   5.126   4.493   6.997 -0.4824 -0.0775 -0.3952
  203MOL0     O27317   5.327   4.431   7.214 -0.9593 -0.1284  0.3466
  203MOL0     C27318   5.120   4.426   7.513 -0.4342  0.4004  0.4135
  203MOL0     C27319   5.118   4.402   7.660  0.0510  0.9457  0.8232
  203MOL0     N27320   5.124   4.081   8.370 -0.4266  0.0669 -0.6784
  203MOL0     N27321   5.013   4.022   8.379 -0.6470 -0.5692 -0.0576
  203MOL0     C27322   4.020   3.675   7.712  0.5576  0.4471 -0.1583
  203MOL0     C27323   3.906   3.671   7.624 -0.1659 -0.1377  0.4573
  203MOL0     C27324   3.670   3.515   7.279  0.4787 -0.3521 -0.2081
  203MOL0     C27325   3.570   3.426   7.315 -0.3174  1.2500  0.6770
  203MOL0     C27326   3.459   3.407   7.240  0.1555 -0.0239  0.9480
  203MOL0     C27327   3.444   3.479   7.123  0.8514 -1.0513 -0.3548
  203MOL0     O27328   3.327   3.462   7.061 -0.3064  0.5317 -0.3890
  203MOL0     C27329   3.279   3.563   6.967  0.6718 -0.2316 -0.2873
  203MOL0     C27330   3.320   3.528   6.823  1.3214  0.6096 -0.4955
  203MOL0     C27331   3.287   3.660   6.729  0.0357  0.4574 -0.6244
  203MOL0     C27332   3.330   3.637   6.584 -0.6355 -0.5043  0.8857
  203MOL0     C27333   3.340   3.773   6.514 -0.1785 -0.5173 -0.6543
  203MOL0     C27334   3.352   3.882   6.459 -0.6556  0.0858 -0.6230
  203MOL0     C27335   3.538   3.574   7.086  0.3966 -0.3122  0.6138
  203MOL0     C27336   3.654   3.593   7.160 -0.6661 -0.5311 -1.1178
  203MOL0     C27337   3.745   3.713   7.125 -0.0929 -0.0858 -0.3137
  203MOL0     H27338   3.889   3.336   7.601  2.0043 -1.8149 -0.3809
  203MOL0     H27339   4.055   3.343   7.775  1.9903  1.7420  0.6869
  203MOL0     H27340   4.156   3.398   7.947 -1.2336  0.0486 -1.1360
  203MOL0     H27341   4.299   3.417   7.842 -2.5907  1.7879 -2.9871
  203MOL0     H27342   4.352   3.412   8.097  0.3270  0.4694  0.5305
  203MOL0     H27343   4.235   3.533   8.127 -3.2350 -1.0620 -2.9245
  203MOL0     H27344   4.429   3.667   7.959  0.3990  2.5470  2.1670
  203MOL0     H27345   4.511   3.523   8.016 -0.7156  1.2999 -0.5064
  203MOL0     H27346   4.415   3.753   8.175 -0.6502 -0.6102 -1.5176
  203MOL0     H27347   4.453   3.605   8.253 -1.8768  0.6048 -0.0357
  203MOL0     H27348   4.689   3.611   8.142  1.4910 -0.3203  1.8952
  203MOL0     H27349   4.647   3.768   8.079 -0.9384 -0.4320 -0.8843
  203MOL0     H27350   4.608   3.856   8.314 -0.0198 -1.5926  0.0862
  203MOL0     H27351   4.639   3.693   8.381 -1.4605  1.9152  2.1806
  203MOL0     H27352   4.868   3.689   8.295 -0.3250 -0.6838  2.0484
  203MOL0     H27353   4.842   3.807   8.427  0.9094 -1.7990  1.2277
  203MOL0     H27354   4.900   3.829   8.135 -0.5210 -0.1116  0.6962
  203MOL0     H27355   4.787   3.952   8.191  0.8775  2.3491 -0.3050
  203MOL0     H27356   5.124   3.926   8.083 -1.0805  1.7011 -0.0638
  203MOL0     H27357   5.365   4.105   8.277 -1.9754 -0.6725  1.6998
  203MOL0     H27358   5.338   4.014   8.127 -1.9897 -0.5403  0.3686
  203MOL0     H27359   5.177   4.192   8.040 -0.0956  0.6516  1.0432
  203MOL0     H27360   5.238   4.308   8.164 -0.5907  1.1819 -1.3272
  203MOL0     H27361   5.383   4.202   7.934  1.2022  1.6522 -1.6325
  203MOL0     H27362   5.458   4.279   8.080 -1.7691 -1.5917  1.1592
  203MOL0     H27363   5.432   4.457   7.903  0.1560  1.7095  0.3607
  203MOL0     H27364   5.321   4.486   8.026  3.2192  1.8238  0.0025
  203MOL0     H27365   5.467   4.392   7.684  0.9450 -1.1660 -2.5739
  203MOL0     H27366   5.455   4.463   7.471  0.4172 -1.3420 -1.4757
  203MOL0     H27367   4.898   4.651   7.197 -3.7419 -0.9595 -1.2611
  203MOL0     H27368   4.798   4.697   6.978 -0.2659  0.1102  2.9816
  203MOL0     H27369   5.022   4.618   6.589  0.2233  2.3427  2.7922
  203MOL0     H27370   4.956   4.464   6.638 -1.4399 -0.6983  1.5204
  203MOL0     H27371   4.801   4.686   6.511 -0.9948 -0.0380 -4.5504
  203MOL0     H27372   4.843   4.547   6.429 -0.3759 -0.9930 -0.1990
  203MOL0     H27373   4.738   4.428   6.658  1.5254  0.5931  0.7903
  203MOL0     H27374   4.634   4.575   6.656 -0.6508 -0.0191 -1.3839
  203MOL0     H27375   4.580   4.512   6.413 -1.6658 -1.7905 -2.5129
  203MOL0     H27376   4.503   4.401   6.530 -0.1694 -1.2426 -1.5980
  203MOL0     H27377   4.737   4.268   6.470  1.4279  2.8472  0.1988
  203MOL0     H27378   4.729   4.364   6.328 -0.3532  2.6453 -0.7494
  203MOL0     H27379   4.509   4.170   6.419 -2.6969 -0.8401 -1.2011
  203MOL0     H27380   4.471   4.291   6.308 -0.5767 -0.5082  0.7451
  203MOL0     H27381   4.695   4.093   6.246  1.5143  1.7081  2.2259
  203MOL0     H27382   4.648   4.232   6.147 -0.9681  2.1388  2.5477
  203MOL0     H27383   4.449   4.014   6.232 -0.8859 -2.1805 -0.9301
  203MOL0     H27384   4.432   4.108   6.089 -0.0418  0.2091  0.3005
  203MOL0     H27385   5.122   4.496   6.781 -1.4132 -2.5768  0.8171
  203MOL0     H27386   5.213   4.429   7.004  1.2837  2.1855 -0.5290
  203MOL0     H27387   5.022   4.425   7.466 -0.2720  1.9099 -0.0171
  203MOL0     H27388   5.026   4.388   7.716 -0.7634  1.7849 -0.2672
  203MOL0     H27389   4.055   3.776   7.733 -0.8747  1.5465 -2.5549
  203MOL0     H27390   3.871   3.761   7.575 -0.5105  0.3713  1.6064
  203MOL0     H27391   3.580   3.358   7.398 -1.3186  0.3611  0.0935
  203MOL0     H27392   3.380   3.337   7.267  0.1774 -0.9817 -1.2474
  203MOL0     H27393   3.316   3.661   6.996  1.5597 -0.5240 -0.4030
  203MOL0     H27394   3.170   3.573   6.977  1.0844  3.3373  2.7634
  203MOL0     H27395   3.260   3.442   6.791 -0.0796  1.0768  0.7823
  203MOL0     H27396   3.427   3.505   6.813  2.0971  2.2257  2.8324
  203MOL0     H27397   3.341   3.742   6.777 -0.5296  1.2072 -1.2398
  203MOL0     H27398   3.177   3.661   6.727  0.0046 -0.4904 -3.4153
  203MOL0     H27399   3.432   3.600   6.573  0.2181  1.9231 -0.1258
  203MOL0     H27400   3.259   3.587   6.518 -2.2477  2.9142 -0.2036
  203MOL0     H27401   3.334   3.961   6.390 -2.3477  1.5071  1.3201
  203MOL0     H27402   3.519   3.631   6.996 -1.5379 -1.5979  0.1494
  203MOL0     H27403   3.697   3.781   7.054  3.1722 -0.2681 -2.9701
  203MOL0     H27404   3.759   3.773   7.215  2.2958 -0.9932 -0.0023
  203MOL0     H27405   3.839   3.686   7.076 -0.7889  0.4381 -2.0216
  204MOL0     O27406  11.002   9.845   0.649  0.4118 -0.4821 -0.0458
  204MOL0     C27407  11.043   9.933   0.577 -1.2985 -0.2937  0.0044
  204MOL0     O27408  10.985  10.056   0.572 -0.4539 -0.0177  0.2762
  204MOL0     C27409  10.918  10.097   0.686 -1.0347 -0.0761 -0.9902
  204MOL0     C27410  10.972  10.078   0.814 -0.5536 -0.1459 -0.1469
  204MOL0     C27411  10.905  10.104   0.931 -0.5785  0.0991  0.1941
  204MOL0     C27412  10.787  10.181   0.929 -0.0751 -0.5854 -0.2062
  204MOL0     O27413  10.730  10.238   1.045 -0.4748 -0.1685  0.1882
  204MOL0     C27414  10.634  10.348   1.025  0.2142  0.5405 -0.0010
  204MOL0     C27415  10.589  10.392   1.171  0.3821  0.0654 -0.6065
  204MOL0     C27416  10.461  10.460   1.160  0.1881  0.5599 -0.7487
  204MOL0     C27417  10.404  10.478   1.300  0.4720 -0.4527 -1.3228
  204MOL0     C27418  10.287  10.577   1.320 -0.5634  0.7001  1.1154
  204MOL0     C27419  10.311  10.711   1.251  0.3348  0.1834 -0.6768
  204MOL0     C27420  10.204  10.812   1.294  0.2740 -0.8053  0.1003
  204MOL0     C27421  10.180  10.846   1.444  0.2735  0.3966  0.2280
  204MOL0     N27422  10.114  10.971   1.467  0.4512  0.1368  0.6440
  204MOL0     C27423  10.041  11.048   1.375  0.2829  1.0516 -1.3728
  204MOL0     C27424  10.000  11.157   1.449  0.8584  0.1849  0.1793
  204MOL0     C27425   9.902  11.255   1.405  0.0828  0.7153  1.0408
  204MOL0     C27426   9.959  11.395   1.386 -0.2808  0.3237 -0.7927
  204MOL0     C27427   9.969  11.467   1.518 -0.0525  0.7457 -0.5926
  204MOL0     C27428   9.917  11.605   1.535 -0.3278 -1.2126  1.0771
  204MOL0     O27429  10.013  11.696   1.465  0.5278  0.4415 -0.7181
  204MOL0     C27430   9.998  11.833   1.475 -0.2993  0.4756 -0.3674
  204MOL0     C27431   9.881  11.891   1.528  0.8467 -0.2330  0.6462
  204MOL0     C27432   9.882  12.023   1.531  0.5091  0.2811 -0.1696
  204MOL0     C27433   9.990  12.110   1.498 -0.0705 -0.2874 -0.0468
  204MOL0     C27434   9.972  12.257   1.515 -0.0897  0.8343  0.1425
  204MOL0     O27435   9.846  12.298   1.529  0.1819 -0.1427 -0.7885
  204MOL0     C27436   9.808  12.423   1.558 -0.1212 -0.2221  0.4953
  204MOL0     C27437   9.880  12.531   1.607  0.2486  0.5910  0.5472
  204MOL0     C27438   9.819  12.647   1.652 -0.3043  0.4965 -0.9409
  204MOL0     C27439   9.681  12.661   1.645  0.7075  0.7687  0.0448
  204MOL0     O27440   9.620  12.772   1.690 -0.0768  0.6876 -0.6336
  204MOL0     C27441   9.664  12.843   1.807 -0.7057  0.7032 -1.2315
  204MOL0     C27442   9.643  12.760   1.942 -0.5119 -0.6950  0.5455
  204MOL0     C27443   9.710  12.845   2.054 -0.1991 -0.2476  0.2524
  204MOL0     C27444   9.690  12.798   2.198 -0.0671 -0.1987  0.4192
  204MOL0     C27445   9.580  12.872   2.274  0.5950 -0.3754  0.3292
  204MOL0     C27446   9.435  12.849   2.216 -0.1121  0.3977  0.0901
  204MOL0     C27447   9.387  12.697   2.212  1.1427  0.8451  0.3130
  204MOL0     C27448   9.353  12.630   2.343  0.1914 -0.2693  0.7100
  204MOL0    Cl27449   9.497  12.579   2.429  0.1974 -0.5079 -0.0932
  204MOL0     C27450   9.603  12.556   1.590  0.3112  0.0906  0.6619
  204MOL0     C27451   9.669  12.441   1.553  0.7084  0.4060  1.1365
  204MOL0     O27452  10.072  12.328   1.526  0.6019 -0.1530 -0.0404
  204MOL0     C27453  10.106  12.058   1.451 -0.5485  0.3526 -0.2747
  204MOL0     C27454  10.113  11.916   1.447  0.6736  0.5091  0.2200
  204MOL0     N27455  10.048  11.154   1.573 -0.6941 -0.5593  0.5983
  204MOL0     N27456  10.124  11.040   1.579  0.1541 -0.2812 -0.5083
  204MOL0     C27457  10.737  10.203   0.803  0.6749  0.4815 -0.6216
  204MOL0     C27458  10.793  10.155   0.688  0.2191 -0.1882 -0.3938
  204MOL0     C27459  11.155   9.907   0.481 -0.8143  0.5849  0.5364
  204MOL0     C27460  11.150   9.783   0.410 -0.0458 -0.5072  0.1806
  204MOL0     C27461  11.242   9.753   0.313 -0.1450  0.9306 -0.8419
  204MOL0     C27462  11.347   9.842   0.282 -0.2345 -1.0874  1.0399
  204MOL0     O27463  11.438   9.819   0.185 -0.3246  0.1345  0.4548
  204MOL0     C27464  11.460   9.679   0.142 -0.1382  0.5933  0.0309
  204MOL0     C27465  11.566   9.664   0.028  0.1892  0.0196 -0.2916
  204MOL0     C27466  11.529   9.734  -0.093 -0.4048 -0.3967 -0.5173
  204MOL0     C27467  11.612   9.681  -0.213  0.4910  0.2747  0.6005
  204MOL0     C27468  11.759   9.715  -0.215  0.5455  0.0559  0.4802
  204MOL0     C27469  11.880   9.726  -0.220  0.3072 -0.1980 -0.7424
  204MOL0     C27470  11.352   9.965   0.350 -0.0603 -0.0330 -0.0779
  204MOL0     C27471  11.256   9.997   0.451 -0.1795  0.3705  0.1406
  204MOL0     C27472  11.269  10.125   0.534 -0.1639  0.0923  0.2482
  204MOL0     H27473  11.070  10.041   0.842 -0.7271 -0.3262  0.2348
  204MOL0     H27474  10.960  10.084   1.022 -0.2621  2.6146  0.6252
  204MOL0     H27475  10.680  10.428   0.966  1.9026 -0.9734 -0.8651
  204MOL0     H27476  10.552  10.302   0.968 -0.2362  0.0568  1.0176
  204MOL0     H27477  10.658  10.466   1.214 -1.3813  1.3700  0.1242
  204MOL0     H27478  10.579  10.310   1.242 -1.3722  2.3458  1.9637
  204MOL0     H27479  10.390  10.396   1.106 -0.2402  0.1426  0.2864
  204MOL0     H27480  10.474  10.551   1.102  1.6672 -0.7144 -2.5722
  204MOL0     H27481  10.372  10.383   1.344  1.2612 -0.4826 -0.7959
  204MOL0     H27482  10.482  10.519   1.365 -4.9940  2.8705  4.3348
  204MOL0     H27483  10.198  10.538   1.271 -0.5866 -0.7134  2.2287
  204MOL0     H27484  10.264  10.593   1.426  2.6005  1.9008  1.7500
  204MOL0     H27485  10.405  10.751   1.291 -0.0501  0.0250  0.4417
  204MOL0     H27486  10.323  10.694   1.144 -0.2525 -1.8139 -0.4672
  204MOL0     H27487  10.113  10.770   1.249  0.3635  0.3631 -1.2245
  204MOL0     H27488  10.237  10.905   1.248 -3.4188  0.8316  0.3821
  204MOL0     H27489  10.113  10.772   1.490 -1.5919  1.0016 -1.3701
  204MOL0     H27490  10.276  10.849   1.496  0.7004 -1.8158 -0.3744
  204MOL0     H27491  10.003  11.004   1.283  1.0279 -0.6242 -0.9157
  204MOL0     H27492   9.863  11.234   1.305 -1.1948  6.5626 -0.0969
  204MOL0     H27493   9.823  11.252   1.480  0.6073  2.4850  1.7123
  204MOL0     H27494  10.058  11.394   1.339 -0.4411  1.9650 -1.2114
  204MOL0     H27495   9.893  11.457   1.325 -1.7969  0.0618  0.5153
  204MOL0     H27496  10.070  11.491   1.555 -0.7886  2.3291  0.5290
  204MOL0     H27497   9.929  11.409   1.602  4.6349  0.5571  1.8635
  204MOL0     H27498   9.922  11.643   1.637 -0.3754 -1.7942  1.2983
  204MOL0     H27499   9.816  11.605   1.492  0.2665 -0.1022 -0.4088
  204MOL0     H27500   9.781  11.850   1.539 -0.1320  1.4224 -1.2880
  204MOL0     H27501   9.789  12.069   1.565  2.0243  1.6016  2.5206
  204MOL0     H27502   9.988  12.523   1.610  0.3027  0.1344 -1.4827
  204MOL0     H27503   9.893  12.716   1.690  0.1902 -0.0444 -0.9150
  204MOL0     H27504   9.769  12.871   1.791 -0.1030 -0.4576  0.3346
  204MOL0     H27505   9.612  12.938   1.822 -1.8669 -0.1634  0.4769
  204MOL0     H27506   9.538  12.742   1.967 -0.2100 -2.6832  0.5941
  204MOL0     H27507   9.697  12.664   1.937 -0.1761 -0.4602 -1.3991
  204MOL0     H27508   9.818  12.849   2.032 -0.2848  1.3703  0.0160
  204MOL0     H27509   9.663  12.942   2.037 -0.8080 -0.8031 -1.3562
  204MOL0     H27510   9.785  12.798   2.252  1.3911  1.3075 -1.9702
  204MOL0     H27511   9.673  12.689   2.198  1.3069 -0.4264  0.9926
  204MOL0     H27512   9.592  12.981   2.266 -2.7022  0.0700 -0.2929
  204MOL0     H27513   9.573  12.841   2.378 -0.9549  0.5674  0.5512
  204MOL0     H27514   9.358  12.906   2.270 -2.7410 -2.3188 -0.5278
  204MOL0     H27515   9.440  12.885   2.113 -0.4183 -4.3297 -1.8237
  204MOL0     H27516   9.454  12.623   2.167  0.3205  1.1269 -1.4599
  204MOL0     H27517   9.290  12.698   2.160  0.8425 -3.2447  0.5061
  204MOL0     H27518   9.303  12.707   2.401 -5.9599 -2.2798 -1.1700
  204MOL0     H27519   9.289  12.542   2.334 -0.8977  0.3763  2.0194
  204MOL0     H27520   9.499  12.573   1.566  0.9107  1.6628 -1.0704
  204MOL0     H27521   9.602  12.371   1.503  0.6365  1.0103  0.3632
  204MOL0     H27522  10.195  12.120   1.452  1.8788 -2.6677  3.7991
  204MOL0     H27523  10.201  11.856   1.430 -0.7383 -1.3868 -0.8145
  204MOL0     H27524  10.637  10.241   0.781 -0.1477 -2.4018 -2.3934
  204MOL0     H27525  10.744  10.175   0.593  0.3024 -2.1127 -0.8804
  204MOL0     H27526  11.065   9.718   0.430 -2.2876  1.7094 -1.4441
  204MOL0     H27527  11.236   9.659   0.258  2.6587  1.6055 -2.4848
  204MOL0     H27528  11.373   9.625   0.106  0.6956 -0.0166 -1.1219
  204MOL0     H27529  11.506   9.615   0.218 -1.0813 -3.0549 -2.2584
  204MOL0     H27530  11.563   9.556   0.011 -2.0620  0.4047 -3.1596
  204MOL0     H27531  11.667   9.695   0.056 -0.6818  1.7485  1.1683
  204MOL0     H27532  11.529   9.843  -0.089 -2.8438 -0.3833  2.1783
  204MOL0     H27533  11.424   9.711  -0.110 -1.0584  0.7677  1.5320
  204MOL0     H27534  11.599   9.572  -0.214 -0.4484  0.3795  0.3114
  204MOL0     H27535  11.561   9.727  -0.298  0.9309 -0.1819  0.0849
  204MOL0     H27536  11.986   9.730  -0.226  0.4262 -1.3258  0.2560
  204MOL0     H27537  11.434  10.035   0.344 -0.5541  0.4671 -1.7021
  204MOL0     H27538  11.197  10.200   0.500  0.1938 -1.2653 -4.0089
  204MOL0     H27539  11.265  10.104   0.642 -0.0501  3.5777  1.0638
  204MOL0     H27540  11.364  10.172   0.511  0.3984 -1.8662 -1.6985
  205MOL0     O27541   7.853  10.098   6.012 -0.2897 -0.6917 -0.7741
  205MOL0     C27542   7.882  10.032   6.115  0.6187  0.0020  0.1058
  205MOL0     O27543   7.998   9.969   6.135  0.1912 -0.7597  0.3033
  205MOL0     C27544   8.084   9.971   6.030  0.6401 -0.0150  0.0554
  205MOL0     C27545   8.125   9.845   5.984  0.3115 -0.1398 -0.0313
  205MOL0     C27546   8.246   9.826   5.908  0.0219 -0.0246 -1.3791
  205MOL0     C27547   8.337   9.936   5.891  0.0345 -0.0703 -0.7912
  205MOL0     O27548   8.471   9.906   5.846  0.6816 -0.0770  0.5416
  205MOL0     C27549   8.559   9.847   5.946 -1.0090  0.0091 -0.0765
  205MOL0     C27550   8.703   9.910   5.925 -0.0754  0.3966 -0.9536
  205MOL0     C27551   8.795   9.806   5.854 -0.5712 -0.2396 -0.3890
  205MOL0     C27552   8.946   9.850   5.862  0.3806  1.2854  0.1360
  205MOL0     C27553   9.045   9.750   5.812  0.5211 -0.5402  0.3898
  205MOL0     C27554   9.156   9.746   5.910  1.1216  0.0257 -0.2121
  205MOL0     C27555   9.268   9.656   5.866 -0.3713 -0.7864  0.2926
  205MOL0     C27556   9.350   9.600   5.990 -0.0069  0.8402  1.0739
  205MOL0     N27557   9.450   9.502   5.958 -0.1381 -0.4049 -0.1001
  205MOL0     C27558   9.567   9.541   5.905  0.7883  1.0261  0.2965
  205MOL0     C27559   9.642   9.430   5.914  0.0965  0.8936 -0.4273
  205MOL0     C27560   9.787   9.401   5.872 -0.0808 -0.4301  0.7319
  205MOL0     C27561   9.897   9.433   5.973  0.0700  0.4792  0.4614
  205MOL0     C27562   9.934   9.571   6.004 -0.2896 -0.9331  0.2231
  205MOL0     C27563  10.066   9.590   6.080 -0.2171 -0.1446  0.4046
  205MOL0     O27564  10.085   9.722   6.128 -0.0808  0.1323  0.2633
  205MOL0     C27565  10.025   9.763   6.248  1.0524 -0.0057 -0.0604
  205MOL0     C27566  10.033   9.899   6.287  0.2043  0.0174 -0.0965
  205MOL0     C27567   9.986   9.950   6.405  0.6527 -0.9466 -0.7766
  205MOL0     C27568   9.930   9.870   6.498  0.3363  0.4702  0.4647
  205MOL0     C27569   9.877   9.910   6.635  0.1071  0.1311 -0.5868
  205MOL0     O27570   9.831   9.810   6.714  0.2982 -0.1863 -0.0852
  205MOL0     C27571   9.743   9.836   6.811  0.5993 -0.5068 -0.6607
  205MOL0     C27572   9.751   9.936   6.913 -0.5581 -0.9116  0.0261
  205MOL0     C27573   9.652   9.944   7.006  1.5661  0.1818  0.8913
  205MOL0     C27574   9.544   9.857   7.000 -0.5689  0.2794 -0.3346
  205MOL0     O27575   9.436   9.852   7.094 -0.1657 -0.5718 -0.8109
  205MOL0     C27576   9.393   9.980   7.144  0.6712 -0.7156 -0.0617
  205MOL0     C27577   9.249   9.979   7.209 -0.4935  0.0825  0.7500
  205MOL0     C27578   9.223  10.118   7.269 -0.4605  0.3845  0.7966
  205MOL0     C27579   9.088  10.107   7.347 -0.1930 -0.6167  0.0023
  205MOL0     C27580   9.031  10.242   7.408 -0.1371  0.5051 -0.0622
  205MOL0     C27581   8.886  10.207   7.454  0.0106  0.3817  0.1375
  205MOL0     C27582   8.817  10.281   7.573  0.0730 -0.0634  0.3250
  205MOL0     C27583   8.671  10.250   7.586 -0.1670  0.1310  0.0825
  205MOL0    Cl27584   8.615  10.083   7.555 -0.3433 -0.0221 -0.1068
  205MOL0     C27585   9.530   9.761   6.892  1.2161  1.0987 -0.4008
  205MOL0     C27586   9.629   9.752   6.800 -0.0926 -0.1299 -0.1578
  205MOL0     O27587   9.859  10.031   6.649 -0.4489 -0.5481  0.5188
  205MOL0     C27588   9.925   9.731   6.465  0.9898  0.0192  0.4746
  205MOL0     C27589   9.955   9.686   6.333 -0.6485  0.2002 -0.5961
  205MOL0     N27590   9.571   9.333   5.982  0.0622  0.3365  0.4633
  205MOL0     N27591   9.445   9.374   6.002  0.0229 -0.2877  0.8156
  205MOL0     C27592   8.305  10.054   5.948  0.4554  0.0016  0.1536
  205MOL0     C27593   8.179  10.082   6.009  0.5645  0.8925  0.0559
  205MOL0     C27594   7.767  10.014   6.213 -0.1631 -0.1568  0.0649
  205MOL0     C27595   7.646  10.090   6.200 -0.5123  0.3963  0.0712
  205MOL0     C27596   7.542  10.071   6.284  0.9393 -0.5297  0.1027
  205MOL0     C27597   7.555   9.971   6.385  0.0234 -0.7825  0.4184
  205MOL0     O27598   7.452   9.943   6.465 -0.6719 -0.3505 -0.7388
  205MOL0     C27599   7.395   9.810   6.454  0.9889  1.0953 -0.1445
  205MOL0     C27600   7.274   9.779   6.531  1.1794  0.5518  0.4378
  205MOL0     C27601   7.143   9.822   6.450 -0.4082  0.0284 -1.1016
  205MOL0     C27602   7.030   9.847   6.547 -0.6772  0.6251 -0.4306
  205MOL0     C27603   6.911   9.891   6.466 -0.0617  0.1171  1.4198
  205MOL0     C27604   6.816   9.915   6.392  0.6148 -0.4360 -0.6468
  205MOL0     C27605   7.668   9.898   6.403 -0.1948  0.6975  0.8986
  205MOL0     C27606   7.778   9.933   6.330 -0.7557 -0.3999  0.0041
  205MOL0     C27607   7.896   9.849   6.362 -0.4843  0.4643 -0.7787
  205MOL0     H27608   8.068   9.762   6.025 -0.5480 -0.3528 -1.5568
  205MOL0     H27609   8.276   9.724   5.886 -0.1787 -0.8679  1.7742
  205MOL0     H27610   8.539   9.881   6.048  0.3084  1.6484 -0.3149
  205MOL0     H27611   8.553   9.738   5.953 -0.1301  0.0545  1.9599
  205MOL0     H27612   8.741   9.929   6.026  0.6785 -4.1740 -0.1491
  205MOL0     H27613   8.683  10.002   5.869 -2.7242  1.9970  2.2339
  205MOL0     H27614   8.773   9.800   5.747  3.5531 -0.0474 -1.4099
  205MOL0     H27615   8.785   9.720   5.921  3.6260 -0.0067  0.8362
  205MOL0     H27616   8.946   9.938   5.796  1.8165  1.2725  0.0886
  205MOL0     H27617   8.959   9.888   5.963  2.4852  0.4793  0.2249
  205MOL0     H27618   9.004   9.650   5.795  0.3379 -0.0608 -2.3852
  205MOL0     H27619   9.090   9.787   5.720 -1.7916  0.0881 -0.5661
  205MOL0     H27620   9.196   9.847   5.928  0.7946 -0.4139  3.8423
  205MOL0     H27621   9.118   9.711   6.006  1.2944 -2.1896 -0.9027
  205MOL0     H27622   9.323   9.725   5.802 -2.2989  2.2754  1.7265
  205MOL0     H27623   9.222   9.572   5.814  1.4743 -1.6798 -0.0090
  205MOL0     H27624   9.394   9.689   6.035  0.4158  1.0630  0.2502
  205MOL0     H27625   9.288   9.562   6.072 -1.3635 -1.2421 -0.8111
  205MOL0     H27626   9.589   9.638   5.860  2.7710  0.6612  0.3684
  205MOL0     H27627   9.799   9.295   5.848 -3.3800 -0.6263 -0.5008
  205MOL0     H27628   9.811   9.453   5.779 -3.7933  1.3665  0.5828
  205MOL0     H27629   9.857   9.386   6.063 -2.5681 -0.4476 -1.0854
  205MOL0     H27630   9.988   9.383   5.937 -2.0388 -1.3632 -2.8242
  205MOL0     H27631   9.857   9.608   6.072  2.2918  1.7923  1.9316
  205MOL0     H27632   9.944   9.641   5.920  1.7349 -0.1910  1.0210
  205MOL0     H27633  10.138   9.579   5.998 -1.9370  1.2665 -1.4148
  205MOL0     H27634  10.065   9.511   6.155 -0.7218  1.7443  2.4681
  205MOL0     H27635  10.095   9.966   6.227  2.0298 -3.9215 -3.0522
  205MOL0     H27636   9.991  10.056   6.430  2.8625 -0.8013 -1.6068
  205MOL0     H27637   9.834  10.005   6.902 -2.2855  0.9451 -2.9948
  205MOL0     H27638   9.670  10.024   7.078  0.7220  0.3965  0.8734
  205MOL0     H27639   9.450  10.018   7.228 -1.5570 -0.6667  1.5266
  205MOL0     H27640   9.387  10.050   7.060 -2.9213 -0.1560  0.4944
  205MOL0     H27641   9.175   9.953   7.133 -1.2709  0.5107  1.3544
  205MOL0     H27642   9.239   9.910   7.293 -1.2614  1.0575  1.4825
  205MOL0     H27643   9.312  10.143   7.329 -0.4434  1.5653  0.3175
  205MOL0     H27644   9.225  10.198   7.194 -1.4195 -0.2464  0.0890
  205MOL0     H27645   9.091  10.036   7.430 -1.3630  1.5880  2.0394
  205MOL0     H27646   9.016  10.064   7.277 -0.1420 -0.1855 -0.3172
  205MOL0     H27647   9.028  10.300   7.315  2.5714 -2.2207 -2.0686
  205MOL0     H27648   9.101  10.273   7.485  1.1462  0.5698 -1.2131
  205MOL0     H27649   8.821  10.219   7.367 -2.1295  0.6309  1.6872
  205MOL0     H27650   8.886  10.105   7.492 -0.1032  0.7694  1.2021
  205MOL0     H27651   8.818  10.389   7.557 -1.8783 -0.1830 -1.0216
  205MOL0     H27652   8.878  10.258   7.660  4.4513 -0.5311 -2.5553
  205MOL0     H27653   8.640  10.282   7.687  1.0860 -0.3358  0.6354
  205MOL0     H27654   8.629  10.310   7.504  0.2976  2.0872  1.1962
  205MOL0     H27655   9.456   9.682   6.888  2.5193 -0.2093  0.2744
  205MOL0     H27656   9.639   9.675   6.725 -2.7053 -0.2289 -0.4924
  205MOL0     H27657   9.874   9.656   6.524 -0.5458  1.4636  1.0730
  205MOL0     H27658   9.947   9.583   6.298 -3.1942 -0.0905  0.6741
  205MOL0     H27659   8.379  10.132   5.962 -0.8458  1.0996  1.2046
  205MOL0     H27660   8.160  10.184   6.043 -0.9350 -0.0641  2.2960
  205MOL0     H27661   7.627  10.143   6.108 -4.9128 -1.6471 -0.4387
  205MOL0     H27662   7.453  10.134   6.279  1.1745 -0.1068  0.9865
  205MOL0     H27663   7.466   9.740   6.500  2.0747  2.0874 -0.2525
  205MOL0     H27664   7.387   9.775   6.350 -0.0899 -0.2888  0.3809
  205MOL0     H27665   7.268   9.811   6.636 -1.2354 -1.3021  0.9800
  205MOL0     H27666   7.255   9.671   6.541 -1.3336  0.9930  1.1632
  205MOL0     H27667   7.134   9.749   6.368 -0.3553 -1.7745  0.4320
  205MOL0     H27668   7.168   9.914   6.396 -0.5722  0.7325  0.0032
  205MOL0     H27669   6.999   9.754   6.596  0.6945  0.3784  0.0072
  205MOL0     H27670   7.052   9.934   6.609 -1.1754  1.6416 -1.6412
  205MOL0     H27671   6.738   9.931   6.321  1.5903  0.5806 -1.5392
  205MOL0     H27672   7.677   9.818   6.475  1.6924 -1.1518 -1.2310
  205MOL0     H27673   7.878   9.775   6.441  1.4617  0.0608 -0.6671
  205MOL0     H27674   7.934   9.794   6.276  2.4325 -0.1908  0.7928
  205MOL0     H27675   7.976   9.912   6.402 -2.0497  2.1713 -0.1297
  206MOL0     O27676   3.190   0.120   2.323 -0.3075 -0.4852  0.7097
  206MOL0     C27677   3.197   0.226   2.380 -0.4814  0.0847  0.6450
  206MOL0     O27678   3.145   0.256   2.502 -0.2180 -0.2374 -0.7301
  206MOL0     C27679   3.038   0.179   2.535 -0.5055  0.1152 -0.9451
  206MOL0     C27680   2.911   0.214   2.496 -0.4468 -0.6532 -1.2806
  206MOL0     C27681   2.806   0.136   2.528 -0.1883 -0.2810  0.3155
  206MOL0     C27682   2.832   0.005   2.589 -1.4047 -0.5118  0.0398
  206MOL0     O27683   2.738  -0.094   2.599  0.1953  0.2210 -0.3074
  206MOL0     C27684   2.601  -0.059   2.613 -0.3133 -0.3028 -0.3563
  206MOL0     C27685   2.506  -0.171   2.647 -0.1558 -0.2075 -0.4495
  206MOL0     C27686   2.358  -0.133   2.624 -1.0643 -0.1313 -0.0612
  206MOL0     C27687   2.265  -0.253   2.640 -0.0425  0.1459  0.1601
  206MOL0     C27688   2.127  -0.218   2.572  0.6241 -0.0324  0.0395
  206MOL0     C27689   2.030  -0.142   2.666  0.0293 -0.4033 -0.1362
  206MOL0     C27690   1.901  -0.119   2.592  0.0086  0.8807 -1.0079
  206MOL0     C27691   1.761  -0.072   2.660  1.1205  0.1651 -0.5010
  206MOL0     N27692   1.798   0.038   2.747  0.3428  0.5441  1.0534
  206MOL0     C27693   1.812   0.165   2.694 -0.7729  0.7465 -0.2316
  206MOL0     C27694   1.881   0.228   2.797 -0.5044 -0.3268 -0.2520
  206MOL0     C27695   1.937   0.373   2.811 -0.2083 -0.2944  1.3979
  206MOL0     C27696   2.044   0.408   2.715 -0.6171 -0.4727  0.0181
  206MOL0     C27697   2.001   0.435   2.574 -0.3553  0.8189  0.0530
  206MOL0     C27698   1.938   0.579   2.555 -0.0841  0.2197 -0.4128
  206MOL0     O27699   1.799   0.566   2.545 -0.5480 -0.8545 -0.4327
  206MOL0     C27700   1.720   0.682   2.554 -0.3946 -0.2519  0.3472
  206MOL0     C27701   1.779   0.813   2.549 -0.0914  0.4584 -0.1742
  206MOL0     C27702   1.710   0.929   2.560  0.6173 -0.7477  0.2378
  206MOL0     C27703   1.570   0.927   2.552 -0.7295 -0.3662 -0.5419
  206MOL0     C27704   1.488   1.053   2.550 -0.1475 -0.5014  0.1605
  206MOL0     O27705   1.552   1.173   2.531  0.4706 -0.1650 -0.3441
  206MOL0     C27706   1.464   1.284   2.516 -0.3945  0.7828  0.1585
  206MOL0     C27707   1.465   1.376   2.627 -0.2757  0.8069 -0.6098
  206MOL0     C27708   1.379   1.481   2.642  0.9333 -0.1094 -0.1599
  206MOL0     C27709   1.294   1.506   2.537 -0.6496  1.2179 -0.7020
  206MOL0     O27710   1.220   1.624   2.549 -0.4332 -0.7664  0.2067
  206MOL0     C27711   1.190   1.687   2.423  0.2276 -0.4965  0.3038
  206MOL0     C27712   1.146   1.832   2.443 -0.0809  0.2581  0.6391
  206MOL0     C27713   1.267   1.925   2.482  0.0542 -0.1393  0.2246
  206MOL0     C27714   1.224   2.076   2.481  0.4257 -0.7039 -0.1615
  206MOL0     C27715   1.324   2.169   2.546  0.7951 -1.1502  1.0961
  206MOL0     C27716   1.290   2.238   2.676 -0.1402 -0.6378 -0.4408
  206MOL0     C27717   1.333   2.141   2.790 -0.0339  0.1288 -0.1064
  206MOL0     C27718   1.371   2.210   2.919  0.6994 -0.5081  0.0722
  206MOL0    Cl27719   1.442   2.090   3.039  0.0057 -0.2127 -0.0629
  206MOL0     C27720   1.280   1.411   2.426 -0.2108 -0.3188 -0.7299
  206MOL0     C27721   1.374   1.300   2.413  0.6742 -0.0189 -0.7181
  206MOL0     O27722   1.368   1.038   2.546  0.7134 -0.2607 -0.1460
  206MOL0     C27723   1.510   0.796   2.543 -0.6127  0.8256 -0.7733
  206MOL0     C27724   1.584   0.676   2.554 -0.4345 -0.5959  0.0948
  206MOL0     N27725   1.879   0.139   2.906  0.2763  0.1079  0.9320
  206MOL0     N27726   1.831   0.029   2.874 -0.6625  0.9356  0.0114
  206MOL0     C27727   2.961  -0.034   2.620  0.1366  0.5272 -0.1003
  206MOL0     C27728   3.063   0.055   2.589  0.0772 -0.4838  0.8938
  206MOL0     C27729   3.262   0.339   2.320 -0.6669 -0.2701 -0.7885
  206MOL0     C27730   3.323   0.433   2.407  0.1502  0.3799  1.0826
  206MOL0     C27731   3.382   0.544   2.349 -0.3246  0.6417 -0.9010
  206MOL0     C27732   3.394   0.557   2.206 -0.0173 -0.8425 -1.0766
  206MOL0     O27733   3.435   0.676   2.151 -0.1653  0.2080  0.0078
  206MOL0     C27734   3.518   0.678   2.031  0.1483  0.3785  0.3030
  206MOL0     C27735   3.444   0.725   1.900  0.2975  1.4537  0.2692
  206MOL0     C27736   3.532   0.715   1.778  0.1120 -1.6370 -0.7768
  206MOL0     C27737   3.542   0.582   1.706  1.0812 -0.0327 -0.6324
  206MOL0     C27738   3.666   0.518   1.751  0.7767 -0.7428 -0.6180
  206MOL0     C27739   3.768   0.454   1.784  0.4081 -0.3441 -0.2900
  206MOL0     C27740   3.332   0.472   2.125 -0.6729  0.0311  0.0011
  206MOL0     C27741   3.276   0.359   2.181 -0.0932  0.6236  1.3148
  206MOL0     C27742   3.203   0.261   2.084 -0.3751  0.1730  0.6767
  206MOL0     H27743   2.884   0.305   2.445 -2.3804 -2.1284 -3.0939
  206MOL0     H27744   2.708   0.174   2.502 -0.3158 -0.2959  0.7543
  206MOL0     H27745   2.588   0.022   2.686 -0.0025  2.4686 -3.1532
  206MOL0     H27746   2.564  -0.012   2.522  3.4726  3.4441 -0.2771
  206MOL0     H27747   2.526  -0.185   2.754 -2.0151 -2.4909 -0.3172
  206MOL0     H27748   2.529  -0.269   2.604 -2.4038 -1.3419  0.7427
  206MOL0     H27749   2.345  -0.094   2.523  1.0643  1.1492  0.0996
  206MOL0     H27750   2.339  -0.049   2.691  1.3322 -0.3743  1.0365
  206MOL0     H27751   2.306  -0.343   2.593 -0.7829 -1.5301  2.5478
  206MOL0     H27752   2.256  -0.271   2.748  1.9839 -0.1909  0.3171
  206MOL0     H27753   2.141  -0.158   2.481 -1.0495 -0.9796 -0.8974
  206MOL0     H27754   2.086  -0.315   2.541 -0.3032 -0.1369  1.5263
  206MOL0     H27755   2.024  -0.214   2.748  3.0371  0.4691  0.9840
  206MOL0     H27756   2.061  -0.048   2.711  3.5755 -2.1122  1.3966
  206MOL0     H27757   1.877  -0.220   2.559 -0.5029  0.2346  1.1768
  206MOL0     H27758   1.920  -0.046   2.512  0.3659  1.0731 -0.7491
  206MOL0     H27759   1.686  -0.050   2.583 -0.8859 -0.7330  1.0896
  206MOL0     H27760   1.725  -0.158   2.716  1.7889  0.8537  1.0576
  206MOL0     H27761   1.791   0.198   2.593 -3.6972 -3.9313 -1.4894
  206MOL0     H27762   1.848   0.435   2.795 -2.2010 -2.2437  4.1103
  206MOL0     H27763   1.975   0.383   2.913 -0.8113 -1.8871  1.7974
  206MOL0     H27764   2.107   0.492   2.744  1.3850 -1.4696 -1.1786
  206MOL0     H27765   2.108   0.319   2.713  0.2982  0.0183  2.8344
  206MOL0     H27766   1.937   0.361   2.526  2.9242 -1.4764 -1.2093
  206MOL0     H27767   2.086   0.428   2.505 -0.0398  3.8590 -0.0236
  206MOL0     H27768   1.984   0.604   2.459 -1.4206 -1.6974 -1.6283
  206MOL0     H27769   1.965   0.652   2.632  1.4640 -0.7106 -0.0322
  206MOL0     H27770   1.886   0.821   2.534  0.5828 -3.0483  1.6237
  206MOL0     H27771   1.751   1.029   2.563 -2.4645  0.6187  2.3286
  206MOL0     H27772   1.536   1.375   2.709 -1.8003  0.3986  0.7671
  206MOL0     H27773   1.373   1.540   2.733 -1.6362 -2.4754  1.3877
  206MOL0     H27774   1.278   1.692   2.358 -0.1761  3.3538 -0.1844
  206MOL0     H27775   1.114   1.626   2.373  1.6582 -1.8048 -0.3656
  206MOL0     H27776   1.095   1.849   2.347 -0.6377 -0.3159  0.8283
  206MOL0     H27777   1.076   1.824   2.526  1.7446 -0.2160  2.2153
  206MOL0     H27778   1.302   1.898   2.582 -0.1561  1.3874  0.7400
  206MOL0     H27779   1.349   1.907   2.412  1.3948  0.3280  1.6075
  206MOL0     H27780   1.127   2.082   2.532 -1.8892 -4.0787 -3.5858
  206MOL0     H27781   1.202   2.090   2.374  2.8150 -2.5644 -0.9814
  206MOL0     H27782   1.348   2.253   2.481 -2.9069  0.0985  1.0846
  206MOL0     H27783   1.416   2.109   2.551 -0.2976 -3.0275 -0.0434
  206MOL0     H27784   1.342   2.333   2.693 -1.5874  0.0957  0.1334
  206MOL0     H27785   1.181   2.244   2.678 -0.1460 -0.1204  2.5868
  206MOL0     H27786   1.423   2.082   2.772 -1.1968 -1.9598  0.5893
  206MOL0     H27787   1.253   2.067   2.804 -1.7989  2.3293  2.3932
  206MOL0     H27788   1.448   2.283   2.891  0.9821 -1.0993 -0.7068
  206MOL0     H27789   1.301   2.263   2.984  0.5769  1.7110 -1.7147
  206MOL0     H27790   1.196   1.425   2.358  1.7010  0.2068 -3.1212
  206MOL0     H27791   1.357   1.219   2.342 -2.5614 -0.2345  0.1174
  206MOL0     H27792   1.402   0.782   2.542 -0.2423 -3.5964  0.5010
  206MOL0     H27793   1.534   0.580   2.546 -0.2952 -0.6970  0.4276
  206MOL0     H27794   2.998  -0.135   2.630 -1.0122 -0.2425 -2.6473
  206MOL0     H27795   3.168   0.040   2.615 -0.4018 -3.1896  1.6532
  206MOL0     H27796   3.323   0.425   2.516  0.8599  1.1904  1.1570
  206MOL0     H27797   3.418   0.623   2.414 -0.8444  1.4987 -1.6303
  206MOL0     H27798   3.560   0.578   2.017  1.7962  1.1341 -0.3495
  206MOL0     H27799   3.596   0.754   2.045  1.3076  0.2421 -4.1028
  206MOL0     H27800   3.423   0.829   1.924 -0.2809  0.4477  5.5146
  206MOL0     H27801   3.348   0.675   1.888 -1.1665  4.1409  0.1330
  206MOL0     H27802   3.626   0.765   1.803 -1.5359  0.7243  1.1852
  206MOL0     H27803   3.490   0.791   1.712  1.2430  1.2141  1.5585
  206MOL0     H27804   3.453   0.519   1.720 -2.7125  4.0841 -3.4462
  206MOL0     H27805   3.545   0.583   1.597  1.2864 -0.1150 -0.6279
  206MOL0     H27806   3.852   0.396   1.817  1.9305  1.2036 -1.2586
  206MOL0     H27807   3.317   0.491   2.019 -1.3860  0.7465  0.2122
  206MOL0     H27808   3.224   0.296   1.982  1.5768  1.4640  1.4706
  206MOL0     H27809   3.234   0.156   2.079 -0.4781  0.1826 -1.8878
  206MOL0     H27810   3.094   0.268   2.097 -0.6702  1.3376 -1.7389
  207MOL0     O27811  10.039   2.080  11.385 -0.3056  0.0212  0.4806
  207MOL0     C27812   9.970   2.068  11.288  0.8027 -0.0461  0.1689
  207MOL0     O27813   9.974   1.960  11.207 -0.2054  0.6677  0.6152
  207MOL0     C27814  10.037   1.833  11.230  0.1182  0.3736  0.2392
  207MOL0     C27815  10.002   1.736  11.135  0.1620 -0.3508  0.0182
  207MOL0     C27816  10.061   1.614  11.134  0.0185  0.2115 -0.0627
  207MOL0     C27817  10.154   1.585  11.234 -0.0666 -0.5672 -0.2697
  207MOL0     O27818  10.205   1.456  11.239  0.0595  0.5961 -0.0107
  207MOL0     C27819  10.347   1.453  11.230  0.1786  0.6991 -0.1960
  207MOL0     C27820  10.401   1.426  11.098  0.7133  0.6252  0.8581
  207MOL0     C27821  10.423   1.272  11.078  0.0761 -0.5937 -0.5771
  207MOL0     C27822  10.472   1.239  10.942 -0.2693  1.0072  0.4791
  207MOL0     C27823  10.539   1.097  10.929 -0.0222  1.7782  0.1722
  207MOL0     C27824  10.596   1.080  10.790  0.2523 -0.0331 -1.0340
  207MOL0     C27825  10.622   0.932  10.776 -0.0544  1.2600  0.4545
  207MOL0     C27826  10.764   0.893  10.816  0.0678 -0.8633 -1.0901
  207MOL0     N27827  10.784   0.838  10.952 -0.9333  0.0337 -0.2327
  207MOL0     C27828  10.911   0.805  10.992 -0.3242  0.2178  0.0886
  207MOL0     C27829  10.890   0.694  11.072  0.0146  0.5630  0.6821
  207MOL0     C27830  10.998   0.606  11.129  0.6053 -0.8197 -0.1824
  207MOL0     C27831  11.112   0.686  11.193  0.0557  0.0260 -0.0189
  207MOL0     C27832  11.053   0.766  11.307 -0.5110 -0.5305  0.9723
  207MOL0     C27833  11.155   0.883  11.355  0.8293  0.0294  0.7017
  207MOL0     O27834  11.107   0.935  11.484  0.6323  0.5252 -0.3750
  207MOL0     C27835  10.990   1.010  11.480 -0.3042  0.9286 -0.1149
  207MOL0     C27836  10.934   1.028  11.607  0.0930 -0.4686  0.8528
  207MOL0     C27837  10.812   1.106  11.617 -0.2063 -0.0494 -0.3269
  207MOL0     C27838  10.763   1.170  11.503  0.6617 -0.4086 -0.1312
  207MOL0     C27839  10.646   1.257  11.516 -0.5615 -1.3035 -0.7759
  207MOL0     O27840  10.602   1.279  11.644 -0.4192 -0.3182 -0.3333
  207MOL0     C27841  10.491   1.359  11.649  0.8262 -1.0428 -0.5258
  207MOL0     C27842  10.375   1.330  11.577  0.5931  0.7969 -0.4954
  207MOL0     C27843  10.249   1.394  11.597  0.8294 -0.1238 -0.2491
  207MOL0     C27844  10.251   1.512  11.684 -0.2788 -0.0129  0.0787
  207MOL0     O27845  10.131   1.581  11.700 -0.0093 -0.1337 -0.0300
  207MOL0     C27846  10.128   1.722  11.717 -0.2556 -1.3029  0.2044
  207MOL0     C27847   9.986   1.778  11.722  0.2106 -1.4523 -0.7274
  207MOL0     C27848   9.905   1.734  11.840  1.1654  0.1854 -0.8489
  207MOL0     C27849   9.760   1.794  11.850 -0.7538 -0.3198 -0.2202
  207MOL0     C27850   9.688   1.763  11.987 -0.5549 -0.3653  1.1106
  207MOL0     C27851   9.749   1.835  12.108 -0.6621 -1.0579  0.4588
  207MOL0     C27852   9.675   1.798  12.231 -0.1200 -0.7649 -0.4598
  207MOL0     C27853   9.732   1.868  12.356 -0.3897 -0.5410 -0.7669
  207MOL0    Cl27854   9.656   1.783  12.480  0.0802 -0.0796  0.1346
  207MOL0     C27855  10.375   1.555  11.740  0.2067  0.2133 -0.8393
  207MOL0     C27856  10.491   1.481  11.728 -0.0651 -0.5006  0.0897
  207MOL0     O27857  10.599   1.303  11.415 -0.0986 -0.5915  0.3186
  207MOL0     C27858  10.831   1.148  11.382  0.4196 -0.0895 -0.5754
  207MOL0     C27859  10.946   1.070  11.367  0.3798  1.0495 -0.6771
  207MOL0     N27860  10.757   0.673  11.098 -0.7922 -0.9214 -0.5849
  207MOL0     N27861  10.697   0.761  11.026 -0.6709  0.1457  0.0421
  207MOL0     C27862  10.184   1.677  11.337  0.0394 -0.2975  0.1836
  207MOL0     C27863  10.124   1.804  11.340 -1.7200 -0.1813 -0.4900
  207MOL0     C27864   9.862   2.180  11.264  0.6157  0.5805  0.2131
  207MOL0     C27865   9.788   2.177  11.142  0.5306  1.0141  0.9414
  207MOL0     C27866   9.679   2.258  11.116  0.3973  0.0608  0.8148
  207MOL0     C27867   9.644   2.360  11.205 -1.2351  0.1178 -0.4853
  207MOL0     O27868   9.530   2.434  11.178  0.3108  0.1114 -0.1383
  207MOL0     C27869   9.505   2.559  11.244 -0.0587 -0.2412 -0.7487
  207MOL0     C27870   9.424   2.648  11.139  0.5248 -0.6017  0.1549
  207MOL0     C27871   9.436   2.795  11.171 -0.2162 -0.1216 -0.1395
  207MOL0     C27872   9.571   2.863  11.139 -0.3450 -0.1681  0.0715
  207MOL0     C27873   9.590   3.001  11.186 -0.0336 -0.5129  0.0385
  207MOL0     C27874   9.609   3.115  11.236 -0.2803 -0.0062  0.4760
  207MOL0     C27875   9.721   2.368  11.321  0.0737 -0.2545 -0.7898
  207MOL0     C27876   9.829   2.286  11.357 -0.4775 -0.6509  1.1336
  207MOL0     C27877   9.895   2.310  11.486  0.0040  0.1146  0.3547
  207MOL0     H27878   9.939   1.754  11.048 -2.6725 -0.1304  1.9813
  207MOL0     H27879  10.037   1.545  11.054 -1.6149  2.5117 -1.6938
  207MOL0     H27880  10.397   1.543  11.265 -0.5010  0.2729  2.0256
  207MOL0     H27881  10.389   1.373  11.291 -1.2788 -0.3081 -0.4569
  207MOL0     H27882  10.496   1.481  11.099  0.8127  0.4896  2.4975
  207MOL0     H27883  10.335   1.472  11.025  1.4541 -0.0319 -0.2767
  207MOL0     H27884  10.330   1.215  11.089 -0.7321  0.3732 -2.0702
  207MOL0     H27885  10.504   1.243  11.145  1.5859  2.2831 -1.0078
  207MOL0     H27886  10.380   1.243  10.883  0.3804  0.2590 -0.6303
  207MOL0     H27887  10.533   1.319  10.899 -2.3253  1.5299 -1.6640
  207MOL0     H27888  10.605   1.074  11.013 -1.3809  0.2206  0.8913
  207MOL0     H27889  10.461   1.020  10.933  3.5005 -2.3687 -1.8912
  207MOL0     H27890  10.522   1.121  10.721 -2.3992  1.2373  2.2859
  207MOL0     H27891  10.690   1.136  10.789 -1.2423  2.7276  0.7390
  207MOL0     H27892  10.612   0.920  10.667  5.1377  0.3224 -0.1903
  207MOL0     H27893  10.544   0.868  10.815  1.1072  1.0208  2.5028
  207MOL0     H27894  10.818   0.816  10.759  3.6486 -0.1209  0.9634
  207MOL0     H27895  10.832   0.975  10.793 -1.0059  0.9479  1.7235
  207MOL0     H27896  11.006   0.850  10.967  0.0577 -1.1962 -1.1340
  207MOL0     H27897  10.947   0.549  11.207 -1.0762  2.6032  1.4343
  207MOL0     H27898  11.042   0.531  11.063  1.0883 -0.3047 -0.4666
  207MOL0     H27899  11.198   0.631  11.232  0.9445  0.0834 -1.8142
  207MOL0     H27900  11.168   0.752  11.126  2.0301 -1.7260 -0.1766
  207MOL0     H27901  11.019   0.694  11.382 -0.2645 -1.9395 -0.2296
  207MOL0     H27902  10.960   0.816  11.276 -1.0726 -0.7268  2.2450
  207MOL0     H27903  11.184   0.958  11.280 -2.1104  1.1584  0.5464
  207MOL0     H27904  11.253   0.842  11.380  0.8154  0.8473  2.2487
  207MOL0     H27905  10.989   0.985  11.690  1.1556 -1.9773 -0.5737
  207MOL0     H27906  10.759   1.111  11.711 -0.8354  1.3317 -0.7235
  207MOL0     H27907  10.371   1.239  11.518  1.2046 -0.5259  1.4219
  207MOL0     H27908  10.159   1.358  11.549 -0.7531  0.4020  2.1640
  207MOL0     H27909  10.187   1.747  11.806  1.5223  1.1420 -1.5476
  207MOL0     H27910  10.178   1.775  11.636 -2.0544 -0.2793 -0.2888
  207MOL0     H27911  10.003   1.885  11.733  0.6518 -1.7913  4.6859
  207MOL0     H27912   9.933   1.772  11.626 -0.1950  1.9683 -0.8371
  207MOL0     H27913   9.898   1.626  11.827  1.3713  0.5258 -4.9275
  207MOL0     H27914   9.959   1.746  11.935 -1.5887  1.6633  0.6867
  207MOL0     H27915   9.702   1.758  11.764 -0.6095 -0.6470 -0.1859
  207MOL0     H27916   9.771   1.902  11.839  0.5093 -0.5131 -1.0667
  207MOL0     H27917   9.688   1.654  11.999  0.1501 -0.3394  1.3936
  207MOL0     H27918   9.582   1.791  11.977 -0.6414 -0.9490  0.3746
  207MOL0     H27919   9.850   1.799  12.131  0.3961  1.9063  0.9988
  207MOL0     H27920   9.748   1.944  12.093 -0.8833 -0.8826  1.6141
  207MOL0     H27921   9.684   1.689  12.236  1.1606 -0.7200 -1.2421
  207MOL0     H27922   9.570   1.825  12.218  0.4993  1.7740 -0.6110
  207MOL0     H27923   9.841   1.862  12.367 -0.0470  2.1139 -1.9098
  207MOL0     H27924   9.696   1.971  12.348  0.8698  0.2615  2.3435
  207MOL0     H27925  10.378   1.640  11.807  0.1973  1.4537 -2.3697
  207MOL0     H27926  10.584   1.503  11.779 -0.8459 -1.4996  2.0430
  207MOL0     H27927  10.801   1.197  11.290  4.1210  1.6601 -1.0369
  207MOL0     H27928  10.994   1.059  11.271 -1.1158  1.4025 -1.4849
  207MOL0     H27929  10.242   1.653  11.425  1.3806 -4.0012 -1.4804
  207MOL0     H27930  10.142   1.871  11.423 -0.5785 -0.8361 -0.1872
  207MOL0     H27931   9.822   2.109  11.064  0.3376  2.1704 -0.1817
  207MOL0     H27932   9.637   2.253  11.016  0.1868 -1.3223  0.9476
  207MOL0     H27933   9.601   2.607  11.267 -1.7891  3.2338 -0.1341
  207MOL0     H27934   9.451   2.551  11.339  2.8236  0.3699  1.0669
  207MOL0     H27935   9.321   2.615  11.158  0.4860 -0.4724  0.1694
  207MOL0     H27936   9.454   2.624  11.037  2.6755 -1.5903  0.9472
  207MOL0     H27937   9.407   2.814  11.275 -1.4789  0.1616 -0.5211
  207MOL0     H27938   9.365   2.838  11.100  0.2094  2.1883  0.7337
  207MOL0     H27939   9.648   2.816  11.201 -0.7007  1.0848  1.5228
  207MOL0     H27940   9.599   2.849  11.034 -0.4981 -0.2934  0.0461
  207MOL0     H27941   9.635   3.212  11.273 -0.1822 -0.8622  2.8821
  207MOL0     H27942   9.693   2.434  11.402 -0.4857  0.9640 -1.9397
  207MOL0     H27943   9.849   2.390  11.546 -1.0708 -0.7275  0.6954
  207MOL0     H27944   9.900   2.216  11.543  1.7342 -0.0887 -0.0901
  207MOL0     H27945   9.999   2.331  11.459  0.2018 -2.0140 -0.8023
  208MOL0     O27946   3.348   6.121   4.117 -0.4493 -0.7955 -0.7462
  208MOL0     C27947   3.403   6.011   4.136 -0.8627  0.2125  0.6605
  208MOL0     O27948   3.425   5.951   4.261 -0.3044  0.5810  0.2185
  208MOL0     C27949   3.367   6.020   4.365 -0.4982  0.4898 -0.6245
  208MOL0     C27950   3.450   6.070   4.477  0.4588  0.1221  0.9532
  208MOL0     C27951   3.391   6.138   4.577  0.6837  1.1165 -0.5231
  208MOL0     C27952   3.251   6.151   4.576 -0.0287 -0.2865  0.1804
  208MOL0     O27953   3.183   6.202   4.679 -0.5132  0.7593  0.1525
  208MOL0     C27954   3.253   6.259   4.791  0.5453 -0.7283  0.1604
  208MOL0     C27955   3.267   6.414   4.768 -0.0272 -0.0939  0.2048
  208MOL0     C27956   3.301   6.502   4.893  0.1912  1.0443  0.0224
  208MOL0     C27957   3.303   6.652   4.852  0.3722  1.6041 -0.4069
  208MOL0     C27958   3.270   6.736   4.981  0.6018  0.5001  0.1456
  208MOL0     C27959   3.212   6.870   4.943  0.6436  0.3938  0.4508
  208MOL0     C27960   3.302   6.951   4.849 -0.1025  0.3672  1.5446
  208MOL0     C27961   3.424   7.005   4.912 -0.2582  0.3499  0.7352
  208MOL0     N27962   3.535   6.921   4.950  0.6322  0.7900 -0.8957
  208MOL0     C27963   3.619   6.938   5.059  0.0651  1.0378 -0.3267
  208MOL0     C27964   3.724   6.864   5.042  0.2833 -0.4387 -0.1581
  208MOL0     C27965   3.838   6.845   5.136 -0.1171  0.4326 -0.4182
  208MOL0     C27966   3.812   6.733   5.225 -0.6072 -0.6426 -0.5042
  208MOL0     C27967   3.794   6.596   5.164 -0.6155 -0.1654 -0.0494
  208MOL0     C27968   3.910   6.564   5.072  0.3308  0.4094  0.0350
  208MOL0     O27969   4.030   6.590   5.143 -0.8407  0.2705  0.4467
  208MOL0     C27970   4.144   6.506   5.139  0.6362  0.5069 -0.6520
  208MOL0     C27971   4.242   6.522   5.241 -0.0382  0.5335  0.6839
  208MOL0     C27972   4.361   6.450   5.239 -0.0857 -0.3313  0.3202
  208MOL0     C27973   4.395   6.362   5.128  0.1184 -0.3728 -0.9158
  208MOL0     C27974   4.522   6.295   5.132 -0.6027  0.6049  0.4430
  208MOL0     O27975   4.545   6.210   5.022  0.4492  0.7132  0.8640
  208MOL0     C27976   4.667   6.141   5.028 -0.5801 -0.1503  0.8311
  208MOL0     C27977   4.661   6.015   5.089 -0.6812 -1.0956 -0.6074
  208MOL0     C27978   4.784   5.956   5.120 -0.4106  0.5534  0.1457
  208MOL0     C27979   4.909   6.019   5.084  0.2924  0.1689  0.7875
  208MOL0     O27980   5.034   5.967   5.096  0.6934 -0.0299 -0.0453
  208MOL0     C27981   5.057   5.864   5.191 -0.6810  0.9421  1.1363
  208MOL0     C27982   5.205   5.890   5.236  0.0669  0.4995  0.2922
  208MOL0     C27983   5.253   5.781   5.333 -0.5908 -0.7095  0.2053
  208MOL0     C27984   5.379   5.826   5.392  1.4079  0.5171  0.0217
  208MOL0     C27985   5.457   5.714   5.478  1.2003  0.6606  0.5568
  208MOL0     C27986   5.385   5.680   5.610  0.4986  0.5644  0.0221
  208MOL0     C27987   5.478   5.649   5.730 -0.3084  0.0373  0.1536
  208MOL0     C27988   5.587   5.748   5.760 -1.0120  0.0916  0.9214
  208MOL0    Cl27989   5.643   5.761   5.925 -0.6276  0.3882  0.1308
  208MOL0     C27990   4.908   6.145   5.018  0.5302 -0.4606 -0.8359
  208MOL0     C27991   4.785   6.204   4.992  0.6026 -0.4378  0.3310
  208MOL0     O27992   4.601   6.310   5.230  0.3187  0.1092  0.6154
  208MOL0     C27993   4.299   6.366   5.017 -0.5849 -0.0244 -0.0031
  208MOL0     C27994   4.173   6.421   5.028 -0.3100  0.3727 -0.0411
  208MOL0     N27995   3.710   6.812   4.917 -0.7913  1.7459 -0.0471
  208MOL0     N27996   3.606   6.850   4.864  0.4134  1.9301  0.3460
  208MOL0     C27997   3.168   6.106   4.468  0.4811  0.3950 -0.6035
  208MOL0     C27998   3.231   6.046   4.367  0.9117  0.0398 -0.1950
  208MOL0     C27999   3.470   5.935   4.024  0.3953 -1.2277 -0.0928
  208MOL0     C28000   3.529   5.810   4.048  0.4948  0.1136 -0.6644
  208MOL0     C28001   3.561   5.720   3.943  1.0033 -0.2938 -0.1299
  208MOL0     C28002   3.554   5.767   3.809 -0.8919 -0.3643  0.9208
  208MOL0     O28003   3.606   5.677   3.713 -0.3635 -0.1453  0.2115
  208MOL0     C28004   3.560   5.712   3.581  0.0045 -0.1686  0.4365
  208MOL0     C28005   3.589   5.595   3.480 -0.0731  0.2144  0.2636
  208MOL0     C28006   3.531   5.605   3.335  0.1357 -0.2535  0.9384
  208MOL0     C28007   3.571   5.723   3.257 -0.2754  0.1105 -0.6182
  208MOL0     C28008   3.457   5.797   3.205  0.1639 -1.3716 -1.2881
  208MOL0     C28009   3.356   5.850   3.181 -0.6166  0.0881 -0.6045
  208MOL0     C28010   3.496   5.891   3.790  0.1247  0.1130  0.5902
  208MOL0     C28011   3.451   5.972   3.889 -0.4431  0.1009 -0.8584
  208MOL0     C28012   3.380   6.096   3.842 -1.0443 -0.3852 -0.0411
  208MOL0     H28013   3.557   6.063   4.464  0.0609 -0.2574 -4.2606
  208MOL0     H28014   3.455   6.178   4.654 -1.3906  1.4346  1.1177
  208MOL0     H28015   3.187   6.255   4.878  0.9388 -0.2691  0.4876
  208MOL0     H28016   3.344   6.211   4.827 -0.5346 -1.1154  2.5718
  208MOL0     H28017   3.179   6.457   4.719  1.5143  3.0670 -0.0583
  208MOL0     H28018   3.354   6.426   4.702 -0.3802  1.4115 -0.0179
  208MOL0     H28019   3.406   6.484   4.920  1.7283  3.0119 -3.8121
  208MOL0     H28020   3.236   6.477   4.977  1.1689  1.0910  0.8073
  208MOL0     H28021   3.391   6.679   4.793  2.0887 -0.6252  0.9708
  208MOL0     H28022   3.217   6.669   4.787  2.0672  0.9281 -2.9834
  208MOL0     H28023   3.202   6.679   5.046 -0.2645 -0.8526 -1.8482
  208MOL0     H28024   3.358   6.742   5.045  1.0870 -1.0444 -0.3232
  208MOL0     H28025   3.118   6.844   4.892  1.6818 -2.2519 -0.3260
  208MOL0     H28026   3.190   6.924   5.035 -3.9778  0.4755 -0.4656
  208MOL0     H28027   3.240   7.040   4.835  2.0804  1.6849 -0.4885
  208MOL0     H28028   3.312   6.899   4.753  0.3549  3.3282 -0.1430
  208MOL0     H28029   3.456   7.088   4.848 -1.2674 -0.8166 -1.3682
  208MOL0     H28030   3.390   7.064   4.998 -2.3393 -0.1371  0.2857
  208MOL0     H28031   3.617   7.005   5.145  0.6420  1.1276 -0.3743
  208MOL0     H28032   3.927   6.829   5.075 -0.5804  0.5903 -1.1496
  208MOL0     H28033   3.850   6.935   5.196  0.1967  1.6650 -2.2662
  208MOL0     H28034   3.888   6.723   5.303  1.4403 -3.4102 -2.6640
  208MOL0     H28035   3.714   6.746   5.272  0.5684 -2.6369  2.7956
  208MOL0     H28036   3.695   6.589   5.116 -1.1176  0.0735  0.9273
  208MOL0     H28037   3.796   6.514   5.236 -1.8264 -1.6193 -1.5747
  208MOL0     H28038   3.922   6.622   4.980 -1.1245  0.9420  0.1610
  208MOL0     H28039   3.906   6.459   5.040 -2.3714 -0.0161  1.4959
  208MOL0     H28040   4.235   6.594   5.322  1.1730  0.3667  0.9603
  208MOL0     H28041   4.428   6.458   5.323  0.0570  2.4394  0.0347
  208MOL0     H28042   4.567   5.973   5.121 -0.9062 -0.4578 -0.4079
  208MOL0     H28043   4.804   5.866   5.177  2.3628  1.1622  0.3090
  208MOL0     H28044   4.988   5.881   5.275 -4.2650  2.5165 -1.8524
  208MOL0     H28045   5.045   5.761   5.155  0.3030  0.1832  2.8458
  208MOL0     H28046   5.249   5.882   5.136 -0.7315  0.8458 -0.0906
  208MOL0     H28047   5.229   5.989   5.276 -0.1310 -0.1647  2.1906
  208MOL0     H28048   5.182   5.760   5.413 -2.0383 -0.0448 -0.8746
  208MOL0     H28049   5.263   5.684   5.284 -0.7354 -1.1219  0.9713
  208MOL0     H28050   5.371   5.908   5.464  0.2365  0.4628 -0.0276
  208MOL0     H28051   5.434   5.861   5.304 -0.3533  0.0064 -1.3424
  208MOL0     H28052   5.551   5.764   5.503 -0.9377  4.1451  2.3781
  208MOL0     H28053   5.481   5.619   5.429  0.8673  0.2958  1.0884
  208MOL0     H28054   5.312   5.757   5.637 -3.5221 -2.2039 -1.9328
  208MOL0     H28055   5.323   5.593   5.585 -0.5966  1.6670 -1.2511
  208MOL0     H28056   5.526   5.553   5.709  0.4158  0.1701  1.1435
  208MOL0     H28057   5.424   5.640   5.825 -1.5140  0.1511 -0.4912
  208MOL0     H28058   5.676   5.724   5.700 -1.5997 -0.6662  0.3249
  208MOL0     H28059   5.561   5.847   5.723 -4.4754 -1.8837 -2.6296
  208MOL0     H28060   5.004   6.192   5.000 -0.0488  1.2622  0.3597
  208MOL0     H28061   4.757   6.300   4.950 -2.6853 -1.4094 -0.0267
  208MOL0     H28062   4.322   6.306   4.930 -0.6178 -1.4782  0.9607
  208MOL0     H28063   4.093   6.409   4.955 -0.4314  3.2665 -0.4906
  208MOL0     H28064   3.062   6.124   4.482  0.3318  0.6201 -1.8896
  208MOL0     H28065   3.175   6.011   4.280  1.3218 -0.7467 -0.1498
  208MOL0     H28066   3.529   5.765   4.147 -5.5428 -1.3967 -0.9153
  208MOL0     H28067   3.606   5.623   3.960  1.8519  0.0850 -0.1616
  208MOL0     H28068   3.604   5.806   3.548 -0.8988  0.0385 -0.2274
  208MOL0     H28069   3.451   5.724   3.587 -0.0205 -0.9556  2.4680
  208MOL0     H28070   3.544   5.503   3.518 -0.8610  0.4669 -0.0387
  208MOL0     H28071   3.698   5.600   3.478 -0.0592  1.7774  2.1819
  208MOL0     H28072   3.422   5.599   3.345  0.2247 -1.1759  1.4688
  208MOL0     H28073   3.555   5.519   3.273  0.4650  0.6790 -0.2663
  208MOL0     H28074   3.624   5.793   3.323 -1.3702 -1.8546  2.5615
  208MOL0     H28075   3.637   5.693   3.175 -2.1805 -0.6680 -1.9181
  208MOL0     H28076   3.267   5.890   3.137 -1.7441 -1.1602  0.4538
  208MOL0     H28077   3.472   5.922   3.689  1.9922 -2.2641 -0.6886
  208MOL0     H28078   3.436   6.179   3.886 -1.1863 -1.7736  3.0412
  208MOL0     H28079   3.373   6.106   3.733  0.4165 -0.7706 -0.1883
  208MOL0     H28080   3.280   6.120   3.881 -1.3915  2.7994 -2.4994
  209MOL0     O28081   8.985  11.401   6.740 -0.8290  0.4088 -0.7114
  209MOL0     C28082   9.072  11.395   6.831 -0.0985  0.0026  0.6747
  209MOL0     O28083   9.195  11.450   6.818 -0.5400  0.4287  0.3218
  209MOL0     C28084   9.298  11.414   6.903  0.4991 -0.8051 -0.1786
  209MOL0     C28085   9.395  11.320   6.869 -0.2920 -0.7387  0.2729
  209MOL0     C28086   9.495  11.295   6.964 -0.1551  0.1400  0.9555
  209MOL0     C28087   9.505  11.339   7.092 -0.7252  0.4241 -0.5796
  209MOL0     O28088   9.601  11.285   7.176  0.5423 -0.2792 -0.4265
  209MOL0     C28089   9.668  11.362   7.273  0.4923  0.3030 -0.5910
  209MOL0     C28090   9.816  11.325   7.284 -0.3471  0.5518 -0.0876
  209MOL0     C28091   9.888  11.352   7.151  0.1445 -1.2250  0.5144
  209MOL0     C28092   9.857  11.500   7.109 -0.0780  0.3341 -0.4145
  209MOL0     C28093   9.947  11.518   6.988 -0.7672 -0.2265  0.1682
  209MOL0     C28094   9.948  11.658   6.926 -0.0017 -0.0491 -0.2874
  209MOL0     C28095   9.993  11.768   7.022 -0.6614 -0.0350  0.6567
  209MOL0     C28096  10.127  11.740   7.091 -1.0344 -1.0351  0.1427
  209MOL0     N28097  10.238  11.705   6.995 -0.8874  0.6486 -0.3353
  209MOL0     C28098  10.313  11.791   6.926 -0.5348 -0.2517 -0.2257
  209MOL0     C28099  10.420  11.706   6.878  0.9621 -0.3793 -0.0322
  209MOL0     C28100  10.537  11.752   6.793  0.5236 -0.0331  0.8388
  209MOL0     C28101  10.548  11.911   6.787 -0.1819  0.4097 -0.4312
  209MOL0     C28102  10.682  11.936   6.712 -0.3384  0.0641  0.4418
  209MOL0     C28103  10.719  12.079   6.709 -0.2675 -1.1903 -0.6761
  209MOL0     O28104  10.739  12.130   6.848 -0.2791 -0.7890 -0.3976
  209MOL0     C28105  10.780  12.258   6.869 -0.8398  0.5774  1.2106
  209MOL0     C28106  10.777  12.308   6.997 -0.7587 -0.4431 -0.3104
  209MOL0     C28107  10.788  12.445   7.018 -0.0596 -1.0145  0.0490
  209MOL0     C28108  10.835  12.530   6.913  0.1192  0.0784 -0.3018
  209MOL0     C28109  10.873  12.672   6.930 -0.7876  0.5196 -0.3417
  209MOL0     O28110  10.908  12.710   7.056  0.4442 -0.6344  0.8576
  209MOL0     C28111  10.952  12.836   7.081 -0.1783 -0.3257  0.9873
  209MOL0     C28112  11.079  12.869   7.033  0.3234 -0.6336  0.4498
  209MOL0     C28113  11.136  12.996   7.057 -0.7656  0.5243 -0.3440
  209MOL0     C28114  11.053  13.094   7.124  0.3113 -0.2997  0.5837
  209MOL0     O28115  11.102  13.223   7.145 -0.4437  0.1451 -0.3403
  209MOL0     C28116  11.081  13.293   7.274  0.0349 -1.4642  0.2505
  209MOL0     C28117  11.158  13.421   7.291 -0.9856 -0.4156 -0.5478
  209MOL0     C28118  11.139  13.494   7.422 -0.5640  0.1881 -0.0918
  209MOL0     C28119  11.197  13.636   7.409  0.2478  0.4394  0.4401
  209MOL0     C28120  11.099  13.745   7.359  0.2524  0.3630 -0.5633
  209MOL0     C28121  11.170  13.885   7.350  0.4306  0.3640 -0.6490
  209MOL0     C28122  11.085  13.979   7.282 -0.5776  0.2138  1.0493
  209MOL0     C28123  11.015  14.089   7.366  0.2135  0.3790  0.6342
  209MOL0    Cl28124  10.943  14.213   7.266  0.9186 -0.1674  0.5251
  209MOL0     C28125  10.934  13.054   7.193 -0.9254  0.9778  1.4185
  209MOL0     C28126  10.885  12.924   7.166  0.9020 -0.2385 -0.4208
  209MOL0     O28127  10.893  12.736   6.830 -0.1736 -0.0881  0.1149
  209MOL0     C28128  10.851  12.467   6.785  0.7712 -1.3531 -0.8086
  209MOL0     C28129  10.814  12.342   6.766 -0.8982 -0.2819 -0.0897
  209MOL0     N28130  10.393  11.577   6.918  0.4870  0.0621  0.3919
  209MOL0     N28131  10.277  11.576   6.983 -0.2204  0.0076 -0.0701
  209MOL0     C28132   9.409  11.428   7.129 -0.9724 -0.9443 -0.5113
  209MOL0     C28133   9.304  11.466   7.035 -0.0231  0.4374  0.1452
  209MOL0     C28134   9.040  11.301   6.932  0.0441 -0.2351 -1.0626
  209MOL0     C28135   8.992  11.351   7.052  0.0302  0.6067 -0.1266
  209MOL0     C28136   8.965  11.270   7.155  0.3375 -0.2182  0.8380
  209MOL0     C28137   8.993  11.132   7.151  0.1738 -0.5247  0.2565
  209MOL0     O28138   8.966  11.070   7.270  0.4215  0.0657 -0.1269
  209MOL0     C28139   8.907  10.938   7.271  0.4577  0.0596  0.8062
  209MOL0     C28140   8.767  10.961   7.329 -1.5154  0.2623 -0.4999
  209MOL0     C28141   8.678  11.042   7.239  0.0742 -0.9133 -0.2700
  209MOL0     C28142   8.532  11.049   7.293 -0.2235  0.0995  0.4828
  209MOL0     C28143   8.447  11.152   7.235 -0.4309  0.0928  0.3227
  209MOL0     C28144   8.390  11.252   7.187 -0.1078 -0.4383  0.5111
  209MOL0     C28145   9.043  11.073   7.035 -0.8082  0.7952  0.2639
  209MOL0     C28146   9.067  11.163   6.923 -0.3317  0.6054  0.7044
  209MOL0     C28147   9.133  11.105   6.799  0.5355  0.0659 -0.3003
  209MOL0     H28148   9.398  11.267   6.775 -0.7616 -2.8720  1.3928
  209MOL0     H28149   9.570  11.221   6.938 -0.2126  0.6850 -0.9738
  209MOL0     H28150   9.645  11.469   7.270  0.2044  0.3852  2.1969
  209MOL0     H28151   9.647  11.333   7.376 -0.7273 -1.5353 -1.2946
  209MOL0     H28152   9.821  11.217   7.300  2.0039  0.9848  3.0827
  209MOL0     H28153   9.866  11.376   7.367 -1.0589  2.9960 -1.0817
  209MOL0     H28154   9.858  11.277   7.077 -0.1170 -3.9825  3.2246
  209MOL0     H28155   9.994  11.346   7.174  0.2757 -1.2697 -0.0862
  209MOL0     H28156   9.754  11.506   7.073  0.4749 -2.3618 -2.8599
  209MOL0     H28157   9.884  11.579   7.180 -0.2480  1.6819 -1.8015
  209MOL0     H28158  10.049  11.481   7.003 -0.8489 -0.3605  0.4009
  209MOL0     H28159   9.914  11.455   6.905  1.8275  0.7280 -1.7178
  209MOL0     H28160  10.019  11.653   6.842 -1.5292 -0.5406 -1.5968
  209MOL0     H28161   9.844  11.683   6.906  0.3467  2.0160  0.2834
  209MOL0     H28162   9.906  11.794   7.082  0.4232  3.9392  0.7583
  209MOL0     H28163   9.999  11.859   6.962 -0.0594 -1.6716 -1.9348
  209MOL0     H28164  10.163  11.825   7.150 -0.0391 -0.6002 -1.0526
  209MOL0     H28165  10.106  11.659   7.162 -5.8068 -0.2792 -0.0880
  209MOL0     H28166  10.291  11.894   6.899 -2.9364 -0.8334 -0.7688
  209MOL0     H28167  10.625  11.697   6.827  1.8644  0.5791 -1.4073
  209MOL0     H28168  10.522  11.711   6.692  0.6152  3.6480 -0.8684
  209MOL0     H28169  10.461  11.952   6.735  0.2173  2.7057  0.5538
  209MOL0     H28170  10.546  11.948   6.891 -3.3916 -1.2406  0.2167
  209MOL0     H28171  10.694  11.901   6.610  2.9013  0.3157  0.6232
  209MOL0     H28172  10.761  11.884   6.766 -1.8802 -0.9347  1.8462
  209MOL0     H28173  10.640  12.133   6.657  0.4350  0.4795 -0.0750
  209MOL0     H28174  10.814  12.098   6.657  0.9312 -1.1836  1.4123
  209MOL0     H28175  10.757  12.237   7.077  1.1421 -1.0589 -0.3213
  209MOL0     H28176  10.781  12.489   7.117  3.0159  0.5141 -0.3147
  209MOL0     H28177  11.146  12.812   6.969  0.0740  2.0122 -2.4150
  209MOL0     H28178  11.235  13.029   7.029 -1.5683  1.8442 -1.8427
  209MOL0     H28179  10.980  13.329   7.254  0.7670 -0.1969 -1.4685
  209MOL0     H28180  11.087  13.217   7.352 -1.0318  0.2696  2.1145
  209MOL0     H28181  11.264  13.391   7.290 -1.2779 -1.8093  1.8221
  209MOL0     H28182  11.139  13.487   7.206  2.8187  1.4226 -0.1970
  209MOL0     H28183  11.030  13.505   7.429 -0.8742 -1.3554 -1.8345
  209MOL0     H28184  11.186  13.430   7.497 -0.8405 -0.7272 -0.6955
  209MOL0     H28185  11.290  13.639   7.351  0.4144 -0.0123  0.6759
  209MOL0     H28186  11.232  13.674   7.505  5.2396  0.9073 -1.2381
  209MOL0     H28187  11.023  13.743   7.438  2.5915  0.4903  1.8406
  209MOL0     H28188  11.072  13.722   7.256 -2.0652 -0.1528  0.0994
  209MOL0     H28189  11.188  13.914   7.454  2.1787 -2.9182  0.0979
  209MOL0     H28190  11.272  13.879   7.311  0.6202 -2.1139  0.0831
  209MOL0     H28191  11.010  13.922   7.226 -1.2454  0.2963  1.8506
  209MOL0     H28192  11.150  14.018   7.203  2.3390 -0.9525  2.6959
  209MOL0     H28193  10.939  14.051   7.435  1.9492  0.6878  2.8078
  209MOL0     H28194  11.097  14.139   7.418 -0.6379  3.0060 -0.3527
  209MOL0     H28195  10.883  13.129   7.252 -1.6455 -0.0593  2.1454
  209MOL0     H28196  10.798  12.887   7.220  0.9523 -0.1658 -0.2877
  209MOL0     H28197  10.879  12.523   6.696  2.6608  1.5287  1.3851
  209MOL0     H28198  10.832  12.307   6.664 -1.0580  1.8986 -0.9285
  209MOL0     H28199   9.414  11.486   7.220 -2.1215 -0.1387 -0.9417
  209MOL0     H28200   9.229  11.536   7.070  0.4742  0.7559  0.5926
  209MOL0     H28201   8.975  11.457   7.066  1.5706  1.0628 -1.3546
  209MOL0     H28202   8.943  11.317   7.251 -0.2498  1.7720 -0.2135
  209MOL0     H28203   8.974  10.868   7.322 -1.5255 -2.8352 -0.2802
  209MOL0     H28204   8.899  10.907   7.167  0.8481  1.0193  0.4821
  209MOL0     H28205   8.769  11.007   7.428 -0.4818  0.0417 -0.4123
  209MOL0     H28206   8.712  10.868   7.351  0.7559 -1.9200 -3.2779
  209MOL0     H28207   8.671  10.982   7.147  2.3536  0.6910 -1.5881
  209MOL0     H28208   8.720  11.141   7.220 -0.5645 -0.8624 -1.5087
  209MOL0     H28209   8.484  10.952   7.274 -1.1294  0.9833 -2.1045
  209MOL0     H28210   8.512  11.064   7.399 -2.9193  2.5804 -0.2660
  209MOL0     H28211   8.338  11.337   7.149  0.3453 -1.4617 -2.7911
  209MOL0     H28212   9.062  10.966   7.041 -4.3102  0.0092 -0.5098
  209MOL0     H28213   9.124  10.999   6.777  0.0340 -0.7174  3.1277
  209MOL0     H28214   9.102  11.149   6.703 -1.5088 -4.0521 -1.7699
  209MOL0     H28215   9.241  11.117   6.809  0.3374 -0.2344  5.0349
  210MOL0     O28216   5.374   7.274   4.410  0.1718  0.0214 -0.2165
  210MOL0     C28217   5.400   7.385   4.368  0.4280  0.0497 -0.5316
  210MOL0     O28218   5.414   7.428   4.236 -0.0579 -0.3989 -0.0804
  210MOL0     C28219   5.367   7.340   4.131 -0.0072  0.3364 -0.0242
  210MOL0     C28220   5.367   7.411   4.011  0.6646  0.5674  0.5471
  210MOL0     C28221   5.306   7.359   3.898 -1.0100 -0.2354  0.2358
  210MOL0     C28222   5.307   7.217   3.884 -0.1090  0.4791 -0.0616
  210MOL0     O28223   5.291   7.148   3.771 -0.7405 -0.3117  0.5677
  210MOL0     C28224   5.203   7.212   3.674 -0.1865  0.5563 -0.3467
  210MOL0     C28225   5.144   7.119   3.574  0.3737 -0.5489 -0.8604
  210MOL0     C28226   5.244   7.009   3.534  0.8502  0.1016  0.2100
  210MOL0     C28227   5.180   6.874   3.556 -0.1154 -0.4423  0.0871
  210MOL0     C28228   5.176   6.837   3.712 -0.6727  0.0667  0.4407
  210MOL0     C28229   5.311   6.767   3.757  0.3720 -1.1920  0.5997
  210MOL0     C28230   5.303   6.730   3.909 -0.5279 -0.0661  0.7360
  210MOL0     C28231   5.198   6.618   3.930  1.0462  0.1796  1.0137
  210MOL0     N28232   5.208   6.540   4.054 -0.4243  0.2848  0.4014
  210MOL0     C28233   5.283   6.426   4.088  0.3984  0.5037 -0.1192
  210MOL0     C28234   5.225   6.385   4.208 -0.2407 -1.0416  0.4358
  210MOL0     C28235   5.245   6.248   4.279  0.1698  0.2914 -0.3843
  210MOL0     C28236   5.389   6.198   4.267  0.2680 -0.2724 -0.9516
  210MOL0     C28237   5.482   6.288   4.350 -0.2058 -0.5110  1.6180
  210MOL0     C28238   5.614   6.217   4.372  1.0157  0.3483 -0.8540
  210MOL0     O28239   5.606   6.120   4.474  0.5002  0.0609  0.7106
  210MOL0     C28240   5.684   6.009   4.453  0.1672 -0.2793 -0.2160
  210MOL0     C28241   5.795   6.005   4.367  0.1765  0.0261  0.3337
  210MOL0     C28242   5.867   5.880   4.373 -0.0359 -0.0051 -0.0040
  210MOL0     C28243   5.843   5.775   4.459  0.1796 -0.7573  0.4404
  210MOL0     C28244   5.913   5.638   4.453 -0.1214 -0.1933  0.5686
  210MOL0     O28245   5.880   5.545   4.550 -0.0499  0.0966  0.6339
  210MOL0     C28246   5.943   5.419   4.537  1.0514  0.0248 -0.2837
  210MOL0     C28247   6.050   5.377   4.617  0.2927 -0.3744 -1.0599
  210MOL0     C28248   6.096   5.251   4.616 -0.3524  0.6005  0.1840
  210MOL0     C28249   6.034   5.152   4.533 -0.7817 -0.8712 -0.8871
  210MOL0     O28250   6.090   5.028   4.509  0.5466 -0.0111 -0.5411
  210MOL0     C28251   6.138   5.014   4.375  0.0279  0.3262 -0.1684
  210MOL0     C28252   6.204   4.883   4.367  0.0189  1.0476 -0.6128
  210MOL0     C28253   6.233   4.843   4.222 -0.3752 -0.4366  0.6446
  210MOL0     C28254   6.377   4.782   4.210  0.9296  0.5067  0.8687
  210MOL0     C28255   6.403   4.703   4.082  0.0982  0.5701 -0.4757
  210MOL0     C28256   6.306   4.581   4.087 -0.4351 -0.3307 -0.3572
  210MOL0     C28257   6.361   4.457   4.005 -0.5340 -1.0774  0.4215
  210MOL0     C28258   6.261   4.342   3.994  0.0504 -0.0319 -0.0814
  210MOL0    Cl28259   6.330   4.206   3.890 -0.0559  0.6806 -0.2495
  210MOL0     C28260   5.924   5.195   4.456 -0.2342 -0.8035  0.7839
  210MOL0     C28261   5.886   5.331   4.452  0.0858 -0.1353  0.6385
  210MOL0     O28262   5.988   5.613   4.359 -0.2574 -0.2877  0.4539
  210MOL0     C28263   5.742   5.790   4.554  0.4607 -0.8333 -0.5069
  210MOL0     C28264   5.672   5.912   4.556  0.7740  0.1775  0.2476
  210MOL0     N28265   5.138   6.483   4.249 -0.5010  1.2170  0.3838
  210MOL0     N28266   5.129   6.562   4.151  0.1853  0.1189  0.7099
  210MOL0     C28267   5.334   7.139   3.998 -0.9345  0.0664 -0.3934
  210MOL0     C28268   5.357   7.204   4.120  0.0103 -0.2625 -0.7170
  210MOL0     C28269   5.428   7.494   4.472  0.4566 -0.2799 -0.2316
  210MOL0     C28270   5.438   7.630   4.418 -1.2396  0.9084  0.2849
  210MOL0     C28271   5.454   7.733   4.512 -0.7967 -0.5972 -0.4918
  210MOL0     C28272   5.473   7.706   4.647  0.9949 -0.0416  0.2775
  210MOL0     O28273   5.488   7.810   4.737 -0.4008  0.3861  0.1660
  210MOL0     C28274   5.491   7.947   4.700  0.0502  0.6497  0.5714
  210MOL0     C28275   5.486   8.025   4.838  0.0021  0.1009 -0.4335
  210MOL0     C28276   5.497   8.185   4.827  0.5137  0.9008 -0.4773
  210MOL0     C28277   5.488   8.259   4.964  0.5307 -0.2924 -0.3778
  210MOL0     C28278   5.350   8.275   5.001 -0.8072 -0.6345 -0.5595
  210MOL0     C28279   5.227   8.290   5.018 -0.5051  1.1695 -0.4137
  210MOL0     C28280   5.456   7.581   4.699  0.0338  0.4702  0.0275
  210MOL0     C28281   5.409   7.472   4.614  0.8196 -0.6181  0.2854
  210MOL0     C28282   5.362   7.344   4.681  0.4609  0.7665  0.6864
  210MOL0     H28283   5.380   7.519   4.009  1.7251  0.5130  2.3880
  210MOL0     H28284   5.280   7.427   3.817 -2.7509  1.0225  1.7676
  210MOL0     H28285   5.124   7.262   3.729  0.6175  2.4558 -0.8484
  210MOL0     H28286   5.265   7.294   3.638 -1.7644  2.0686  0.2725
  210MOL0     H28287   5.118   7.176   3.485 -0.2446  0.2232 -0.2074
  210MOL0     H28288   5.055   7.066   3.610  0.5191  0.2284  0.7709
  210MOL0     H28289   5.336   7.001   3.593 -0.6494 -1.9509  2.4561
  210MOL0     H28290   5.267   7.033   3.430 -2.5246  3.2590 -0.0222
  210MOL0     H28291   5.076   6.868   3.524  0.6657 -4.9309 -2.5115
  210MOL0     H28292   5.241   6.798   3.505  1.3810  1.6327 -1.3829
  210MOL0     H28293   5.155   6.915   3.786  3.6161  1.1058  0.8168
  210MOL0     H28294   5.091   6.770   3.722 -2.6789  2.3274 -0.4931
  210MOL0     H28295   5.340   6.681   3.697 -0.2745 -1.0996  0.1516
  210MOL0     H28296   5.394   6.838   3.740  1.9285 -3.0549  0.0778
  210MOL0     H28297   5.272   6.816   3.969  3.0201  1.5005  0.6169
  210MOL0     H28298   5.404   6.698   3.937 -0.2104  0.1490 -0.1313
  210MOL0     H28299   5.100   6.667   3.928 -0.7973 -3.1317  1.7096
  210MOL0     H28300   5.202   6.552   3.843 -2.1744  0.0595  0.8426
  210MOL0     H28301   5.367   6.375   4.041  0.8763  0.3222  0.9075
  210MOL0     H28302   5.221   6.246   4.385  0.8986  0.7702 -0.2056
  210MOL0     H28303   5.172   6.178   4.236  0.0845  0.9610 -1.3630
  210MOL0     H28304   5.384   6.093   4.298 -0.2595 -0.0670 -0.3246
  210MOL0     H28305   5.412   6.196   4.160  2.2612  3.1837 -0.7593
  210MOL0     H28306   5.436   6.321   4.444 -2.9519  1.1162 -0.1522
  210MOL0     H28307   5.488   6.380   4.292 -0.1800 -2.3105 -1.4497
  210MOL0     H28308   5.689   6.282   4.418 -0.7604  0.4461  2.1707
  210MOL0     H28309   5.637   6.176   4.273  0.9105 -1.9263  0.0111
  210MOL0     H28310   5.837   6.080   4.301  1.3851  0.2815  1.3553
  210MOL0     H28311   5.947   5.868   4.301 -0.4770 -0.0769 -0.4877
  210MOL0     H28312   6.086   5.445   4.693 -1.9604  1.9874 -1.9450
  210MOL0     H28313   6.190   5.217   4.658  0.1050 -1.1235 -2.0639
  210MOL0     H28314   6.065   5.033   4.296 -0.0749 -1.8181 -0.6630
  210MOL0     H28315   6.211   5.095   4.371  1.4878 -0.6415  3.2536
  210MOL0     H28316   6.292   4.897   4.430 -2.0530  1.1310  2.4520
  210MOL0     H28317   6.136   4.814   4.419  1.8564 -1.7285 -1.6267
  210MOL0     H28318   6.155   4.770   4.198  0.0051 -1.0049  1.1129
  210MOL0     H28319   6.215   4.930   4.159 -2.3357 -1.6048 -0.5227
  210MOL0     H28320   6.393   4.714   4.294  0.3995  1.4052  1.7135
  210MOL0     H28321   6.455   4.858   4.205  1.8367 -0.2334  2.7055
  210MOL0     H28322   6.505   4.667   4.070 -0.8855 -1.9831 -1.9346
  210MOL0     H28323   6.377   4.770   4.000  2.0178  3.1947  0.9047
  210MOL0     H28324   6.297   4.552   4.192 -1.5868  0.7811 -0.1253
  210MOL0     H28325   6.216   4.621   4.039 -0.6892  1.7098  1.6623
  210MOL0     H28326   6.455   4.416   4.042  1.2500  2.8846  0.7079
  210MOL0     H28327   6.374   4.490   3.901 -0.1618  0.3916  0.9098
  210MOL0     H28328   6.244   4.312   4.098  0.9514 -0.1054  0.0606
  210MOL0     H28329   6.166   4.372   3.950 -2.7880  2.3989  6.4500
  210MOL0     H28330   5.860   5.144   4.386  1.7702  0.9021 -2.5825
  210MOL0     H28331   5.801   5.359   4.391  0.7222 -2.7547 -1.6837
  210MOL0     H28332   5.727   5.716   4.633 -0.5416  0.2771  0.3825
  210MOL0     H28333   5.613   5.941   4.643 -0.5782 -2.1063  0.1657
  210MOL0     H28334   5.336   7.030   4.002  0.2782  0.0558 -0.9695
  210MOL0     H28335   5.379   7.151   4.212  3.7170  0.1519 -1.1794
  210MOL0     H28336   5.432   7.655   4.313 -1.0854  0.5758  0.1937
  210MOL0     H28337   5.461   7.835   4.473  0.1172 -0.1851  0.7080
  210MOL0     H28338   5.412   7.966   4.627  1.7263 -0.1729 -1.5545
  210MOL0     H28339   5.585   7.964   4.646 -0.3641 -2.4451 -1.3406
  210MOL0     H28340   5.562   7.984   4.905 -3.1198 -6.3755 -0.0992
  210MOL0     H28341   5.394   7.993   4.889  0.3139 -0.1785 -0.0369
  210MOL0     H28342   5.424   8.216   4.752 -1.3274 -0.4232  0.6981
  210MOL0     H28343   5.587   8.204   4.767  1.5220 -2.1996 -0.1214
  210MOL0     H28344   5.532   8.198   5.043  1.2592 -1.0177 -1.3247
  210MOL0     H28345   5.547   8.351   4.963 -3.6920  2.8624  2.6292
  210MOL0     H28346   5.129   8.307   5.057 -1.3184 -0.4736 -1.6381
  210MOL0     H28347   5.482   7.561   4.803 -2.8065  1.4049  1.0257
  210MOL0     H28348   5.438   7.265   4.681 -0.8559 -0.6137  2.5082
  210MOL0     H28349   5.348   7.369   4.787 -1.7544 -0.9372  0.8796
  210MOL0     H28350   5.261   7.315   4.649  0.5675  0.9024  0.2255
  211MOL0     O28351   8.419   5.345   9.681  0.2696  0.0188 -0.3033
  211MOL0     C28352   8.407   5.312   9.561  0.5805  0.7752 -1.0081
  211MOL0     O28353   8.295   5.245   9.519 -0.0460 -1.2012 -0.4826
  211MOL0     C28354   8.201   5.211   9.615 -0.1778 -0.2394  0.4565
  211MOL0     C28355   8.224   5.152   9.747  0.1609  0.6643 -0.6602
  211MOL0     C28356   8.113   5.145   9.838 -0.4453  0.1107 -0.0541
  211MOL0     C28357   7.990   5.210   9.807 -0.1508  1.3291 -0.4197
  211MOL0     O28358   7.882   5.231   9.891  0.3115  0.0751 -0.5571
  211MOL0     C28359   7.895   5.209  10.030 -0.4067  0.1641 -0.4945
  211MOL0     C28360   7.916   5.337  10.112  0.1200  0.4286 -0.2190
  211MOL0     C28361   8.026   5.431  10.073  1.0880  0.3746 -0.9232
  211MOL0     C28362   8.002   5.581  10.121  0.2208  0.2764 -0.0550
  211MOL0     C28363   8.127   5.665  10.130 -0.7850 -0.1679 -0.9992
  211MOL0     C28364   8.087   5.810  10.154  0.3478 -0.0656  0.2484
  211MOL0     C28365   8.210   5.902  10.177  0.0495  0.5286 -0.3648
  211MOL0     C28366   8.222   6.025  10.080 -0.9533  0.1011 -0.0026
  211MOL0     N28367   8.333   6.113  10.123 -0.4822  0.6245  0.0377
  211MOL0     C28368   8.336   6.186  10.234 -0.4091 -0.0961 -0.1089
  211MOL0     C28369   8.468   6.222  10.262  0.7067 -0.0005  0.2545
  211MOL0     C28370   8.517   6.324  10.372  0.1034  0.4268  0.3572
  211MOL0     C28371   8.671   6.321  10.390  0.5619 -0.3027  0.8257
  211MOL0     C28372   8.727   6.467  10.408 -0.2138 -0.3386 -1.0046
  211MOL0     C28373   8.684   6.535  10.539  0.4045 -0.4248  0.1111
  211MOL0     O28374   8.671   6.678  10.523 -0.0504 -0.3098 -0.6105
  211MOL0     C28375   8.780   6.752  10.546 -0.0519 -0.5436 -0.4874
  211MOL0     C28376   8.750   6.895  10.561 -0.1610  0.1666 -0.7544
  211MOL0     C28377   8.859   6.984  10.581  0.0219 -0.5374 -0.2149
  211MOL0     C28378   8.988   6.936  10.600  0.1927  0.0970 -0.5620
  211MOL0     C28379   9.084   7.049  10.642 -0.6548  0.5193 -0.3077
  211MOL0     O28380   9.217   7.015  10.629  0.0048  0.5972 -0.2408
  211MOL0     C28381   9.301   7.119  10.636  0.1454 -0.5017 -0.5869
  211MOL0     C28382   9.379   7.140  10.514  0.1024  0.7463  0.4380
  211MOL0     C28383   9.481   7.235  10.518 -0.3223 -0.0615 -0.7042
  211MOL0     C28384   9.492   7.324  10.632 -0.1551  1.0220  0.1617
  211MOL0     O28385   9.587   7.412  10.638 -0.4984  0.0304 -0.4895
  211MOL0     C28386   9.698   7.367  10.722  0.4251 -1.1429 -0.2957
  211MOL0     C28387   9.808   7.476  10.721  0.2634  0.0906 -0.8437
  211MOL0     C28388   9.900   7.475  10.600 -0.7273 -0.4133  0.6967
  211MOL0     C28389  10.015   7.574  10.626  0.1779 -0.1057  0.3926
  211MOL0     C28390  10.105   7.571  10.503  0.1665  0.1029 -0.0329
  211MOL0     C28391  10.226   7.661  10.509 -0.7734  0.9179  0.5886
  211MOL0     C28392  10.286   7.683  10.367 -0.0889 -0.3847 -0.3160
  211MOL0     C28393  10.388   7.801  10.368 -0.0744  1.2293  0.0246
  211MOL0    Cl28394  10.533   7.747  10.467  0.3653  0.6011  0.1399
  211MOL0     C28395   9.411   7.304  10.741 -0.4000  0.1304 -0.0031
  211MOL0     C28396   9.312   7.208  10.748  0.3357 -1.0314  0.4966
  211MOL0     O28397   9.042   7.161  10.655  1.0371 -0.1930 -0.1576
  211MOL0     C28398   9.017   6.797  10.592  0.5714  0.3174 -0.3295
  211MOL0     C28399   8.909   6.710  10.554 -0.0674  0.0236 -0.9023
  211MOL0     N28400   8.547   6.168  10.160  0.0474  0.3944 -0.1810
  211MOL0     N28401   8.465   6.106  10.079  0.1771  0.1850  0.3349
  211MOL0     C28402   7.971   5.251   9.672  1.3420 -1.1337  0.3399
  211MOL0     C28403   8.074   5.251   9.575  0.2347  0.1565 -0.7108
  211MOL0     C28404   8.517   5.335   9.471  0.7589 -0.5542 -0.6831
  211MOL0     C28405   8.579   5.461   9.464  0.2265 -0.6894  0.7325
  211MOL0     C28406   8.683   5.497   9.383 -0.7824  0.0733  0.0226
  211MOL0     C28407   8.725   5.400   9.291 -0.0996  0.3202 -0.6578
  211MOL0     O28408   8.843   5.418   9.215 -0.0632  0.0548 -0.5237
  211MOL0     C28409   8.920   5.311   9.153 -1.4654 -0.2300 -0.9361
  211MOL0     C28410   9.052   5.352   9.077  0.1942  0.9109  0.3458
  211MOL0     C28411   9.055   5.314   8.927  0.1727  0.4925  1.4956
  211MOL0     C28412   9.205   5.336   8.880  0.1028 -0.4581  0.1168
  211MOL0     C28413   9.223   5.320   8.732 -1.3872 -0.3079 -0.6731
  211MOL0     C28414   9.225   5.300   8.612  0.3122 -0.6135 -0.1342
  211MOL0     C28415   8.667   5.271   9.299  0.3105 -1.0191  0.0469
  211MOL0     C28416   8.573   5.234   9.396  0.7468  0.1214  0.4317
  211MOL0     C28417   8.530   5.093   9.409 -0.7933  0.2967 -0.9677
  211MOL0     H28418   8.320   5.115   9.779 -0.5863  1.2120  2.6197
  211MOL0     H28419   8.133   5.096   9.934  1.0682  1.9735  0.6435
  211MOL0     H28420   7.798   5.162  10.049 -0.3530  0.0099 -0.5930
  211MOL0     H28421   7.968   5.134  10.064  1.3086  1.4960 -1.0964
  211MOL0     H28422   7.936   5.299  10.213  3.7498  0.5674 -0.7542
  211MOL0     H28423   7.828   5.400  10.100  0.9482  1.2882 -2.2502
  211MOL0     H28424   8.009   5.426   9.965 -5.9895 -1.0351 -0.2715
  211MOL0     H28425   8.121   5.389  10.107  1.3920  0.2784 -1.8755
  211MOL0     H28426   7.939   5.616  10.039  1.1420  0.4523 -0.6917
  211MOL0     H28427   7.947   5.585  10.216 -1.0743 -0.2344 -0.7595
  211MOL0     H28428   8.183   5.617  10.211 -0.4877  2.2276  0.3416
  211MOL0     H28429   8.184   5.671  10.037  2.5914 -2.4296  0.7323
  211MOL0     H28430   8.039   5.842  10.061  1.7444  0.8976 -0.1650
  211MOL0     H28431   8.012   5.822  10.232  2.0510  1.3259  1.7583
  211MOL0     H28432   8.302   5.847  10.152 -1.3739 -1.0318 -2.5281
  211MOL0     H28433   8.202   5.943  10.278 -2.6988  3.1869 -1.5005
  211MOL0     H28434   8.237   5.988   9.978 -1.2002 -0.2859  0.0993
  211MOL0     H28435   8.124   6.074  10.082 -2.4279 -2.6842  0.7187
  211MOL0     H28436   8.256   6.195  10.307  1.7012 -0.2518  2.3774
  211MOL0     H28437   8.483   6.420  10.333 -1.2075 -1.0071 -2.2582
  211MOL0     H28438   8.473   6.316  10.472  2.0240 -2.4168  1.0960
  211MOL0     H28439   8.711   6.261  10.472  1.6603  1.5872  1.7477
  211MOL0     H28440   8.729   6.282  10.305 -0.1471  3.6878 -1.7429
  211MOL0     H28441   8.687   6.522  10.323 -3.4030  1.4853  1.4061
  211MOL0     H28442   8.836   6.462  10.406 -0.2179 -1.7206  0.1300
  211MOL0     H28443   8.748   6.501  10.620 -0.4734 -1.9078  0.2273
  211MOL0     H28444   8.582   6.495  10.546 -1.6811  3.8038 -1.9514
  211MOL0     H28445   8.647   6.926  10.546 -0.9062 -2.3409 -1.2246
  211MOL0     H28446   8.839   7.088  10.605 -1.3397 -1.4862  3.7496
  211MOL0     H28447   9.366   7.071  10.432  0.7658 -1.2329  1.9226
  211MOL0     H28448   9.541   7.247  10.428 -0.4642  0.7555 -0.6923
  211MOL0     H28449   9.667   7.354  10.826  1.3103  2.9722  0.6288
  211MOL0     H28450   9.741   7.271  10.692  0.7409 -0.6644 -1.4296
  211MOL0     H28451   9.756   7.573  10.727  1.6448  0.8347 -0.3830
  211MOL0     H28452   9.871   7.470  10.810 -0.5740  2.2279 -0.0354
  211MOL0     H28453   9.945   7.376  10.591 -0.4897 -0.2920  0.5590
  211MOL0     H28454   9.833   7.489  10.514  1.4568  1.1991 -0.8498
  211MOL0     H28455  10.073   7.534  10.710  2.0051 -0.5302 -1.0097
  211MOL0     H28456   9.979   7.675  10.649  1.7583  0.5741  0.0311
  211MOL0     H28457  10.048   7.596  10.412  0.9889 -1.8354 -1.1443
  211MOL0     H28458  10.136   7.467  10.496 -1.1764 -0.3768  0.7827
  211MOL0     H28459  10.203   7.761  10.545 -0.1274  1.5713 -0.7262
  211MOL0     H28460  10.306   7.618  10.569  1.7755  0.0617 -3.0461
  211MOL0     H28461  10.207   7.700  10.293 -1.2997  1.6943  1.3481
  211MOL0     H28462  10.332   7.590  10.332 -1.2249 -0.5269 -1.5457
  211MOL0     H28463  10.409   7.830  10.264 -1.6182  1.2542 -0.2966
  211MOL0     H28464  10.334   7.882  10.417 -0.6690  1.3134 -0.7494
  211MOL0     H28465   9.410   7.378  10.820 -1.2461  2.3848 -2.0287
  211MOL0     H28466   9.261   7.178  10.839 -0.5744 -0.6699  0.1198
  211MOL0     H28467   9.118   6.767  10.620  0.8143  0.2654 -1.2204
  211MOL0     H28468   8.922   6.605  10.575 -5.0553 -0.4115  1.1955
  211MOL0     H28469   7.876   5.294   9.640 -0.1663 -1.5155  3.7946
  211MOL0     H28470   8.038   5.267   9.474 -0.2207 -0.3484 -0.6332
  211MOL0     H28471   8.540   5.538   9.529 -1.2800  0.8608 -1.8351
  211MOL0     H28472   8.730   5.594   9.380  0.1969 -0.1773 -5.9277
  211MOL0     H28473   8.858   5.262   9.077 -1.7927 -2.8786  0.9056
  211MOL0     H28474   8.958   5.236   9.221 -0.0905  1.5685  0.3655
  211MOL0     H28475   9.134   5.295   9.121  1.5629  1.8975 -0.8560
  211MOL0     H28476   9.075   5.458   9.092 -3.0958  1.5169  2.0579
  211MOL0     H28477   8.979   5.379   8.883 -2.5523 -3.4740 -0.2477
  211MOL0     H28478   9.008   5.221   8.895 -0.5201  1.1897  0.4238
  211MOL0     H28479   9.236   5.438   8.903  0.3185 -0.9012  1.9800
  211MOL0     H28480   9.278   5.283   8.942  1.3803 -1.5818 -2.2317
  211MOL0     H28481   9.228   5.281   8.506  1.4675  0.2406 -0.2631
  211MOL0     H28482   8.714   5.203   9.229  1.8406  1.4029 -1.4209
  211MOL0     H28483   8.615   5.024   9.403 -0.9723 -0.3205  1.9708
  211MOL0     H28484   8.487   5.078   9.509 -1.6930  2.4782 -0.9819
  211MOL0     H28485   8.456   5.064   9.333 -0.5534 -1.9158 -0.4331
  212MOL0     O28486  10.492   8.565   3.329 -0.1378 -0.3906 -0.2387
  212MOL0     C28487  10.618   8.575   3.360  0.1712  0.0884 -0.0600
  212MOL0     O28488  10.711   8.469   3.353  0.2288  0.3178 -0.0952
  212MOL0     C28489  10.648   8.346   3.352  0.2098 -0.0096  0.6526
  212MOL0     C28490  10.552   8.289   3.264 -0.2513  0.7686 -0.0691
  212MOL0     C28491  10.503   8.159   3.267 -0.5868  0.0455 -0.9094
  212MOL0     C28492  10.572   8.069   3.358  0.0925 -0.7926 -1.2893
  212MOL0     O28493  10.530   7.941   3.349  0.0328  0.5975  0.6558
  212MOL0     C28494  10.598   7.831   3.414 -0.9270 -0.2995  0.3990
  212MOL0     C28495  10.532   7.791   3.551 -0.5823  0.4516  0.7656
  212MOL0     C28496  10.385   7.766   3.549  1.0228  0.4078 -1.1003
  212MOL0     C28497  10.337   7.652   3.467 -0.6911 -0.8437  0.2233
  212MOL0     C28498  10.289   7.528   3.535  0.2627 -1.1536  0.1333
  212MOL0     C28499  10.199   7.445   3.450  0.1395  1.0897  0.2387
  212MOL0     C28500  10.149   7.313   3.527  0.4209  0.4125 -0.8300
  212MOL0     C28501  10.069   7.326   3.661 -0.1546  0.3063  0.4414
  212MOL0     N28502   9.940   7.390   3.642  0.7274  0.2975  0.2067
  212MOL0     C28503   9.817   7.321   3.625 -0.3425 -0.0925  0.2252
  212MOL0     C28504   9.727   7.420   3.604 -0.5868  0.2492  0.4055
  212MOL0     C28505   9.583   7.408   3.557 -0.1021 -0.6778  0.3211
  212MOL0     C28506   9.489   7.398   3.671  0.2557  0.2323  0.7034
  212MOL0     C28507   9.483   7.517   3.763 -0.5477  0.6687  0.5660
  212MOL0     C28508   9.376   7.497   3.868 -0.7007 -0.0473  1.2018
  212MOL0     O28509   9.346   7.631   3.906  0.0187  0.1163 -0.9969
  212MOL0     C28510   9.248   7.645   3.996 -0.2732  0.1933  0.2254
  212MOL0     C28511   9.127   7.563   4.005 -0.2664 -0.7954  0.5141
  212MOL0     C28512   9.038   7.577   4.110  0.5185  0.1224 -0.3772
  212MOL0     C28513   9.066   7.668   4.218  0.1595  0.1625 -0.1015
  212MOL0     C28514   8.983   7.664   4.336  0.2453 -1.0683  0.5209
  212MOL0     O28515   8.844   7.702   4.312  0.0700 -0.2016 -1.0465
  212MOL0     C28516   8.739   7.667   4.396 -0.0032 -0.0299  0.3259
  212MOL0     C28517   8.742   7.592   4.512  0.6530 -0.2583  0.7753
  212MOL0     C28518   8.638   7.581   4.593 -0.1476 -0.7661 -0.1425
  212MOL0     C28519   8.506   7.633   4.566 -0.4090 -0.9929  0.2264
  212MOL0     O28520   8.395   7.601   4.642  1.0522  0.5828  0.0452
  212MOL0     C28521   8.282   7.657   4.590  0.9332 -0.6613 -0.7866
  212MOL0     C28522   8.159   7.612   4.679  0.5249 -0.2078 -0.0008
  212MOL0     C28523   8.141   7.459   4.645  0.7106 -0.2352 -0.3678
  212MOL0     C28524   8.024   7.389   4.719 -0.3906  0.1878  0.7014
  212MOL0     C28525   8.017   7.238   4.690 -0.1816 -0.9498  1.0655
  212MOL0     C28526   7.990   7.200   4.545 -0.2133  0.2651 -1.0732
  212MOL0     C28527   7.862   7.246   4.483 -0.1039 -0.7795  0.4023
  212MOL0     C28528   7.853   7.173   4.349 -0.8741  0.6093 -0.2442
  212MOL0    Cl28529   7.702   7.232   4.257 -0.2951  0.1503  0.1150
  212MOL0     C28530   8.499   7.700   4.438 -0.6056  0.2231 -0.2968
  212MOL0     C28531   8.614   7.718   4.350  0.6008 -0.0291 -0.0248
  212MOL0     O28532   9.028   7.653   4.450  0.1402  0.1469  0.2984
  212MOL0     C28533   9.181   7.753   4.206  0.9803 -0.2412 -0.2235
  212MOL0     C28534   9.265   7.738   4.098 -0.1234 -0.4783 -0.1573
  212MOL0     N28535   9.804   7.544   3.598  0.9069 -0.3790 -0.5150
  212MOL0     N28536   9.927   7.519   3.616  0.1770 -0.1365  0.1566
  212MOL0     C28537  10.656   8.124   3.447  0.5409 -0.8593  0.1691
  212MOL0     C28538  10.691   8.259   3.450  0.1659 -0.4168 -0.1177
  212MOL0     C28539  10.679   8.713   3.370 -0.2711 -0.4745 -0.1126
  212MOL0     C28540  10.797   8.746   3.293  0.1022  0.2474  0.2299
  212MOL0     C28541  10.840   8.878   3.289  0.0392  0.1600  0.4587
  212MOL0     C28542  10.778   8.979   3.367 -0.4639 -0.4317  1.2436
  212MOL0     O28543  10.813   9.106   3.351 -0.4603  1.0891 -0.2916
  212MOL0     C28544  10.950   9.133   3.306 -0.0463  0.1779 -0.2545
  212MOL0     C28545  10.975   9.278   3.307  0.1171 -0.6757 -0.2268
  212MOL0     C28546  11.130   9.298   3.297  0.4938  0.3338  0.3730
  212MOL0     C28547  11.161   9.376   3.166  0.2822  0.4985  0.9056
  212MOL0     C28548  11.298   9.427   3.154  0.1125 -0.1322 -0.1721
  212MOL0     C28549  11.409   9.485   3.170 -0.1522 -0.5511  0.0874
  212MOL0     C28550  10.672   8.946   3.443 -0.3051  0.5935  0.2894
  212MOL0     C28551  10.619   8.817   3.448  0.0873 -0.3188  0.1217
  212MOL0     C28552  10.511   8.789   3.542  0.5201 -0.5792 -0.0229
  212MOL0     H28553  10.508   8.353   3.187 -1.4427 -2.4587 -2.2874
  212MOL0     H28554  10.425   8.120   3.202 -0.6728  0.3506 -0.9885
  212MOL0     H28555  10.597   7.747   3.344 -1.4808  0.4725 -0.5487
  212MOL0     H28556  10.704   7.853   3.425 -1.2653  1.1741  0.8560
  212MOL0     H28557  10.552   7.865   3.629 -0.6504  1.2412  0.0486
  212MOL0     H28558  10.587   7.699   3.577  4.6712  2.7151 -0.8660
  212MOL0     H28559  10.336   7.861   3.525 -2.5794  0.4187  4.3949
  212MOL0     H28560  10.358   7.755   3.654 -1.6796 -0.4727 -1.8102
  212MOL0     H28561  10.256   7.693   3.407  2.4984 -0.8044 -4.6111
  212MOL0     H28562  10.415   7.628   3.394 -0.8246 -0.6568  0.0212
  212MOL0     H28563  10.370   7.462   3.565 -1.3261 -2.0713  2.7409
  212MOL0     H28564  10.235   7.568   3.621  1.3961  4.3837 -1.3395
  212MOL0     H28565  10.114   7.506   3.419 -0.2533 -0.3467 -1.7173
  212MOL0     H28566  10.230   7.407   3.352 -0.1067 -1.7741  1.1844
  212MOL0     H28567  10.239   7.253   3.545  0.5323  0.3735 -1.5033
  212MOL0     H28568  10.085   7.246   3.469  2.5272 -0.6913 -2.0411
  212MOL0     H28569  10.064   7.228   3.710  0.9430  0.0208  0.0123
  212MOL0     H28570  10.122   7.394   3.729 -1.3407  0.5106  1.1995
  212MOL0     H28571   9.794   7.215   3.628  1.5875 -0.6500 -1.9153
  212MOL0     H28572   9.555   7.501   3.505 -0.6698 -0.1844  1.4844
  212MOL0     H28573   9.566   7.337   3.475 -2.3299  1.0012 -0.7644
  212MOL0     H28574   9.391   7.376   3.628 -0.1523  0.0289  1.7085
  212MOL0     H28575   9.511   7.304   3.723  0.8969 -0.0297 -0.0247
  212MOL0     H28576   9.457   7.608   3.709  3.9031  2.3241  0.7656
  212MOL0     H28577   9.579   7.545   3.807 -0.9679  3.9408 -0.3621
  212MOL0     H28578   9.400   7.441   3.959 -1.4039  1.9835  2.7310
  212MOL0     H28579   9.297   7.438   3.820 -1.6994  2.7074 -0.7989
  212MOL0     H28580   9.113   7.485   3.932  1.0019 -1.6610  1.1629
  212MOL0     H28581   8.950   7.513   4.108 -1.2674  2.1967  2.9549
  212MOL0     H28582   8.830   7.557   4.564 -0.8874 -1.9075  2.4254
  212MOL0     H28583   8.634   7.521   4.683  2.7120 -6.2053 -3.1410
  212MOL0     H28584   8.294   7.765   4.603 -0.0227 -0.7843  1.8096
  212MOL0     H28585   8.252   7.626   4.490 -1.0394  1.7808 -1.0473
  212MOL0     H28586   8.174   7.612   4.787  0.0102 -1.0264  0.0801
  212MOL0     H28587   8.068   7.663   4.647 -0.5667 -1.3778  1.1246
  212MOL0     H28588   8.105   7.467   4.542  1.2978  0.2300 -0.5407
  212MOL0     H28589   8.231   7.398   4.652  0.7094 -0.0812  1.2869
  212MOL0     H28590   7.938   7.446   4.681  1.4839  3.8246  1.3848
  212MOL0     H28591   8.025   7.400   4.828 -3.3167 -0.9106  0.9187
  212MOL0     H28592   7.924   7.204   4.738 -2.1143 -0.1344 -1.8338
  212MOL0     H28593   8.107   7.195   4.735  1.2625  1.8541  1.1202
  212MOL0     H28594   8.083   7.226   4.494  1.2066  0.8945  1.6268
  212MOL0     H28595   7.998   7.091   4.547  2.8786  0.4056 -1.5988
  212MOL0     H28596   7.855   7.355   4.477  1.1693 -0.3897  3.6959
  212MOL0     H28597   7.781   7.220   4.551  0.0948  0.7816  1.2719
  212MOL0     H28598   7.936   7.179   4.278  0.1537 -1.6759  0.6693
  212MOL0     H28599   7.828   7.071   4.379 -2.0630  1.8222  3.4818
  212MOL0     H28600   8.410   7.744   4.396 -0.1905  2.3543  0.9127
  212MOL0     H28601   8.599   7.768   4.255 -0.8732  1.5381  0.9659
  212MOL0     H28602   9.203   7.822   4.286  3.7253  0.5951 -1.5834
  212MOL0     H28603   9.350   7.805   4.094 -0.2000 -0.4154 -1.2295
  212MOL0     H28604  10.700   8.060   3.523  0.4853 -0.3657  0.6181
  212MOL0     H28605  10.756   8.283   3.534  0.3466 -1.2771 -0.0103
  212MOL0     H28606  10.853   8.682   3.225  0.3002 -0.4726  1.0481
  212MOL0     H28607  10.917   8.910   3.219 -0.2614  1.4248  0.6724
  212MOL0     H28608  10.964   9.100   3.203 -0.7707  0.8382 -0.5686
  212MOL0     H28609  11.026   9.084   3.367 -1.8238 -0.6217  1.4343
  212MOL0     H28610  10.947   9.313   3.407  0.1411 -1.2657 -0.0100
  212MOL0     H28611  10.920   9.322   3.223  2.7696  1.4324 -0.9684
  212MOL0     H28612  11.180   9.201   3.288 -5.1914 -2.9744 -1.2741
  212MOL0     H28613  11.155   9.354   3.386 -0.1012  0.2378  0.6090
  212MOL0     H28614  11.133   9.315   3.079  2.2196  0.6868  0.0884
  212MOL0     H28615  11.091   9.460   3.155  0.1169  0.0594 -2.9894
  212MOL0     H28616  11.510   9.520   3.168 -0.4235  0.2208 -1.4074
  212MOL0     H28617  10.628   9.032   3.493 -0.9185  0.7612 -0.5090
  212MOL0     H28618  10.526   8.699   3.603  2.7120  1.3677  2.5651
  212MOL0     H28619  10.498   8.874   3.610  1.2631  0.4573 -1.1396
  212MOL0     H28620  10.423   8.786   3.478 -0.8277 -1.4278  1.7565
  213MOL0     O28621   1.457  10.112   6.801  0.3008 -0.4497 -0.4420
  213MOL0     C28622   1.569  10.064   6.765  0.4394 -0.6444 -0.6710
  213MOL0     O28623   1.600   9.934   6.754  0.0736 -0.2271  0.2824
  213MOL0     C28624   1.505   9.854   6.805  0.2519  0.2873 -0.0300
  213MOL0     C28625   1.505   9.814   6.940 -0.5488  0.4647 -0.0753
  213MOL0     C28626   1.392   9.744   6.987  0.4867 -0.1551  0.0752
  213MOL0     C28627   1.282   9.687   6.910 -0.8832  0.0147  1.5608
  213MOL0     O28628   1.192   9.603   6.977 -0.0537 -0.4437  0.4117
  213MOL0     C28629   1.074   9.579   6.901  0.4667  1.2384  0.5700
  213MOL0     C28630   0.985   9.474   6.977  0.2612 -0.3892  0.3284
  213MOL0     C28631   0.956   9.532   7.120 -0.6968  0.3632  0.2688
  213MOL0     C28632   0.874   9.426   7.198 -0.2654 -0.5209 -1.1031
  213MOL0     C28633   0.898   9.446   7.342  0.1869 -0.1353 -0.1771
  213MOL0     C28634   0.834   9.341   7.425  0.5656 -0.1495 -0.3669
  213MOL0     C28635   0.871   9.348   7.576 -0.5408  0.2083 -0.8785
  213MOL0     C28636   0.792   9.245   7.658 -0.3452 -0.0435  0.5946
  213MOL0     N28637   0.808   9.259   7.805 -0.2531 -0.1315 -0.4969
  213MOL0     C28638   0.738   9.348   7.880  0.1288  0.4607  0.2148
  213MOL0     C28639   0.790   9.347   8.000  0.5421  0.7245  0.8253
  213MOL0     C28640   0.734   9.429   8.115 -0.7427  1.1444  0.3919
  213MOL0     C28641   0.586   9.444   8.134  0.4172 -0.1953 -0.1911
  213MOL0     C28642   0.543   9.505   8.274 -0.5812 -1.1815 -1.2903
  213MOL0     C28643   0.407   9.581   8.288  0.7788 -1.0387  0.3401
  213MOL0     O28644   0.299   9.480   8.288  0.1914  0.4398 -0.8866
  213MOL0     C28645   0.185   9.540   8.245  1.2683  0.2982  1.3465
  213MOL0     C28646   0.173   9.575   8.105 -0.0587  0.0865 -1.7393
  213MOL0     C28647   0.058   9.634   8.054  0.2332  0.6828  0.0053
  213MOL0     C28648  -0.042   9.673   8.146  0.1722 -0.0720  0.2326
  213MOL0     C28649  -0.148   9.760   8.092  0.0848  0.8462  0.2895
  213MOL0     O28650  -0.159   9.760   7.961  0.7647  0.5874 -0.5434
  213MOL0     C28651  -0.243   9.837   7.894  0.9687 -1.1937 -0.1158
  213MOL0     C28652  -0.364   9.883   7.945  0.3695 -0.8078  0.9699
  213MOL0     C28653  -0.425   9.992   7.883 -0.1847 -1.4619 -0.6892
  213MOL0     C28654  -0.377  10.033   7.756  0.1450  0.8254  0.2141
  213MOL0     O28655  -0.440  10.126   7.671  0.2054  0.1413  0.6379
  213MOL0     C28656  -0.584  10.116   7.669 -0.3434  0.3524  0.1956
  213MOL0     C28657  -0.626  10.218   7.558  0.8539  0.2619  0.3962
  213MOL0     C28658  -0.649  10.347   7.628  0.2706  0.5596  0.0222
  213MOL0     C28659  -0.771  10.426   7.564 -0.1859 -0.0920  0.1018
  213MOL0     C28660  -0.811  10.549   7.644 -0.9895  0.1981 -0.4217
  213MOL0     C28661  -0.946  10.609   7.607 -0.4267 -0.5727 -0.4681
  213MOL0     C28662  -0.978  10.705   7.724 -0.0562 -0.8290  0.0242
  213MOL0     C28663  -1.117  10.766   7.714 -0.5718  0.1998  0.9971
  213MOL0    Cl28664  -1.169  10.825   7.876  0.3093  0.0859 -0.4794
  213MOL0     C28665  -0.260   9.976   7.703  0.1519  0.1256 -0.7040
  213MOL0     C28666  -0.191   9.883   7.773 -0.7367  0.6467  0.1017
  213MOL0     O28667  -0.229   9.805   8.173 -0.5840 -0.2530  0.1534
  213MOL0     C28668  -0.032   9.638   8.285 -0.2240  0.5436  0.2315
  213MOL0     C28669   0.080   9.568   8.330 -0.0958  0.1396  0.3735
  213MOL0     N28670   0.885   9.253   8.005 -0.6529 -0.4986  0.1164
  213MOL0     N28671   0.899   9.193   7.882 -0.3515 -0.5225  0.0396
  213MOL0     C28672   1.299   9.725   6.781  0.3685  0.1190  1.1439
  213MOL0     C28673   1.399   9.800   6.722  0.2905  0.4070 -0.3582
  213MOL0     C28674   1.673  10.156   6.732 -0.4114 -0.2422  0.2551
  213MOL0     C28675   1.788  10.111   6.662 -0.3474  0.7212 -0.6262
  213MOL0     C28676   1.900  10.190   6.628 -0.6840  0.2556 -0.0297
  213MOL0     C28677   1.898  10.324   6.645 -0.3394  0.0789  0.6029
  213MOL0     O28678   2.001  10.413   6.621  0.8914  0.3330 -0.7722
  213MOL0     C28679   2.121  10.354   6.568 -0.1227 -0.3596 -0.3259
  213MOL0     C28680   2.228  10.461   6.548 -0.0458 -0.4940  0.9114
  213MOL0     C28681   2.226  10.573   6.645  0.5893 -0.0937  0.3895
  213MOL0     C28682   2.360  10.654   6.652  0.2209 -0.1465 -0.5704
  213MOL0     C28683   2.466  10.582   6.713 -0.5892 -0.3715  0.3667
  213MOL0     C28684   2.563  10.536   6.758  0.3786 -0.2180  0.5633
  213MOL0     C28685   1.785  10.369   6.723 -0.5660 -0.3010  0.0496
  213MOL0     C28686   1.672  10.290   6.770 -0.2030  0.1906  1.0893
  213MOL0     C28687   1.582  10.365   6.868  0.5585  0.1866  0.3327
  213MOL0     H28688   1.592   9.848   6.995 -0.4130 -3.0688  2.2234
  213MOL0     H28689   1.392   9.730   7.095  5.3952  1.3365  0.4944
  213MOL0     H28690   1.010   9.664   6.875 -0.2549  0.3985 -0.4520
  213MOL0     H28691   1.106   9.538   6.805 -1.3767 -0.2485  0.5644
  213MOL0     H28692   1.034   9.381   7.008 -2.5864 -2.0674  0.1334
  213MOL0     H28693   0.896   9.432   6.929 -1.3498  1.7887  1.2217
  213MOL0     H28694   0.898   9.625   7.117 -1.0542  0.2174  1.6582
  213MOL0     H28695   1.050   9.538   7.176 -1.4041 -1.5994  1.7864
  213MOL0     H28696   0.771   9.443   7.165 -0.1914 -0.9528 -1.5750
  213MOL0     H28697   0.898   9.324   7.165 -2.6371 -1.3469 -0.5356
  213MOL0     H28698   1.005   9.445   7.367 -0.3849 -0.0918  2.5015
  213MOL0     H28699   0.859   9.544   7.372 -0.8263 -1.4952  3.3721
  213MOL0     H28700   0.728   9.346   7.399  0.2641 -2.1012  0.3346
  213MOL0     H28701   0.878   9.245   7.393  1.1073  0.5938 -1.9954
  213MOL0     H28702   0.839   9.448   7.606  0.9428 -0.1713  2.4034
  213MOL0     H28703   0.978   9.338   7.598 -0.5204  1.0817 -0.5429
  213MOL0     H28704   0.687   9.249   7.629 -0.7799 -5.2034  0.4646
  213MOL0     H28705   0.825   9.148   7.620 -1.0783 -0.5745  1.2737
  213MOL0     H28706   0.649   9.408   7.861 -2.1784 -0.9987  4.9514
  213MOL0     H28707   0.786   9.376   8.196  0.9473 -2.7137 -2.8621
  213MOL0     H28708   0.789   9.524   8.118 -0.2338  0.8699 -0.0403
  213MOL0     H28709   0.541   9.512   8.062 -0.1673 -1.0558 -0.6543
  213MOL0     H28710   0.529   9.354   8.112  0.4806  0.4936 -3.7185
  213MOL0     H28711   0.619   9.572   8.315 -0.0258 -2.6344  0.1883
  213MOL0     H28712   0.543   9.421   8.344 -2.8442 -0.4646 -0.3141
  213MOL0     H28713   0.395   9.657   8.211 -4.1855 -0.5988  1.1913
  213MOL0     H28714   0.412   9.628   8.387  4.0728 -0.2546 -0.0821
  213MOL0     H28715   0.252   9.556   8.034  1.1670 -0.3912 -0.3072
  213MOL0     H28716   0.054   9.648   7.946 -2.3779  0.2553 -0.0339
  213MOL0     H28717  -0.403   9.834   8.034 -0.0993 -0.0489  1.1951
  213MOL0     H28718  -0.510  10.030   7.938  1.3061 -0.1142  0.8012
  213MOL0     H28719  -0.623  10.019   7.639 -1.1387 -1.1061  5.1223
  213MOL0     H28720  -0.631  10.137   7.765  0.3108  1.2629  0.3423
  213MOL0     H28721  -0.549  10.235   7.482 -0.7259  3.3544 -0.6875
  213MOL0     H28722  -0.715  10.188   7.502 -0.0872 -0.8215  2.3957
  213MOL0     H28723  -0.672  10.337   7.735 -3.0938  0.6128 -0.5718
  213MOL0     H28724  -0.556  10.405   7.623  2.5864 -2.9360 -1.1059
  213MOL0     H28725  -0.842  10.343   7.560  0.7954 -1.2186  3.0575
  213MOL0     H28726  -0.749  10.460   7.463 -2.2745  2.3288  0.3424
  213MOL0     H28727  -0.729  10.615   7.617 -0.5343  0.6005  1.7624
  213MOL0     H28728  -0.803  10.533   7.752 -1.4072  1.4783 -0.1894
  213MOL0     H28729  -0.930  10.663   7.513  1.0189 -0.6057 -0.2567
  213MOL0     H28730  -1.032  10.544   7.590  0.3423 -1.0794 -2.8870
  213MOL0     H28731  -0.910  10.791   7.714  0.0121 -0.5726  2.3010
  213MOL0     H28732  -0.963  10.649   7.816  2.4359 -3.3145 -1.7418
  213MOL0     H28733  -1.122  10.838   7.632 -0.6549 -1.2259 -0.2864
  213MOL0     H28734  -1.187  10.684   7.697  1.6332 -1.8960  1.4815
  213MOL0     H28735  -0.215  10.026   7.618  0.2581  1.3800  0.0488
  213MOL0     H28736  -0.092   9.847   7.749 -0.6736 -0.7376  2.2145
  213MOL0     H28737  -0.107   9.672   8.355  0.7856 -0.8497  2.1268
  213MOL0     H28738   0.087   9.536   8.433 -1.2484 -1.6864 -0.0662
  213MOL0     H28739   1.219   9.698   6.713 -0.2067  0.7673  1.5436
  213MOL0     H28740   1.392   9.820   6.616  0.8838 -0.1063 -0.4981
  213MOL0     H28741   1.802  10.005   6.640  0.9577  0.0298  2.7783
  213MOL0     H28742   1.981  10.153   6.567 -1.8441  2.2988 -3.0757
  213MOL0     H28743   2.098  10.310   6.470 -0.3498 -1.4101  0.1847
  213MOL0     H28744   2.160  10.271   6.627  0.0161 -1.3028 -1.6794
  213MOL0     H28745   2.215  10.479   6.441 -0.4480 -0.5855  0.9421
  213MOL0     H28746   2.326  10.412   6.549  0.9763  1.3573 -0.8120
  213MOL0     H28747   2.192  10.535   6.741  1.9665  1.7228  1.6743
  213MOL0     H28748   2.154  10.644   6.601  1.7412  0.8733 -0.0116
  213MOL0     H28749   2.396  10.691   6.555  1.6660 -0.6439 -0.2507
  213MOL0     H28750   2.342  10.748   6.706  1.3805 -0.7344  0.9175
  213MOL0     H28751   2.659  10.511   6.799  1.3465  1.4741 -0.5336
  213MOL0     H28752   1.774  10.476   6.741  2.1058 -0.4254  3.2972
  213MOL0     H28753   1.560  10.302   6.954  0.7514 -0.5120 -0.1240
  213MOL0     H28754   1.626  10.459   6.903  0.7998 -0.2284  1.1665
  213MOL0     H28755   1.490  10.382   6.812  1.5644  2.0925 -0.8534
  214MOL0     O28756   1.425   3.527   5.504 -0.0635  0.2508  0.2458
  214MOL0     C28757   1.495   3.606   5.558 -0.1723  0.0894  0.0136
  214MOL0     O28758   1.581   3.578   5.659 -0.1776 -0.1302  0.6428
  214MOL0     C28759   1.593   3.447   5.704 -0.5327 -0.5137 -1.0047
  214MOL0     C28760   1.549   3.437   5.836 -0.5044  0.7045 -0.3992
  214MOL0     C28761   1.555   3.316   5.907  0.0220 -0.1321 -0.3202
  214MOL0     C28762   1.602   3.203   5.845  0.4960  0.3884  0.2399
  214MOL0     O28763   1.633   3.088   5.917  0.2010  0.1432 -0.0757
  214MOL0     C28764   1.734   2.997   5.874 -0.4397 -0.1297 -0.1852
  214MOL0     C28765   1.777   2.933   6.005  0.9089  0.4277  0.2199
  214MOL0     C28766   1.680   2.869   6.101  0.4670  0.8814  0.4972
  214MOL0     C28767   1.731   2.816   6.229  0.0894 -0.8867  0.5003
  214MOL0     C28768   1.626   2.752   6.312  0.7656  0.1851 -0.0402
  214MOL0     C28769   1.687   2.719   6.452 -0.3650 -0.1613  0.0899
  214MOL0     C28770   1.685   2.851   6.538 -0.7168 -0.9534 -0.6610
  214MOL0     C28771   1.767   2.832   6.666  0.1594  0.1921  0.1226
  214MOL0     N28772   1.731   2.950   6.743  0.6451  0.4093 -0.3195
  214MOL0     C28773   1.723   2.963   6.874  0.6628  0.4288  0.0046
  214MOL0     C28774   1.755   3.084   6.909 -0.4495 -0.6120  0.6936
  214MOL0     C28775   1.773   3.130   7.044 -0.4991 -0.0482  0.5514
  214MOL0     C28776   1.913   3.128   7.107  0.4131 -0.1467  0.9104
  214MOL0     C28777   1.972   2.983   7.090  0.4164 -0.6757  0.1192
  214MOL0     C28778   2.092   2.967   7.174  0.4391 -0.0745  0.4050
  214MOL0     O28779   2.156   2.846   7.158  0.4301  0.0621 -0.0602
  214MOL0     C28780   2.213   2.803   7.267 -0.2504 -0.8890  0.3467
  214MOL0     C28781   2.327   2.848   7.327  0.1423  0.0733 -0.3067
  214MOL0     C28782   2.372   2.789   7.447  0.6307 -0.8755  0.8280
  214MOL0     C28783   2.287   2.698   7.510  0.1406 -0.1570 -0.1413
  214MOL0     C28784   2.307   2.667   7.658 -0.1676 -0.3013  0.8124
  214MOL0     O28785   2.218   2.567   7.694 -0.7729  0.3455 -0.5923
  214MOL0     C28786   2.246   2.515   7.817 -0.4255  1.0310 -0.1944
  214MOL0     C28787   2.208   2.578   7.925  0.5056 -0.6248 -0.6760
  214MOL0     C28788   2.246   2.543   8.055  0.9669  0.1532  0.5775
  214MOL0     C28789   2.331   2.433   8.073 -0.3335 -0.2913  0.5122
  214MOL0     O28790   2.374   2.415   8.198  0.8840  0.6691 -0.2689
  214MOL0     C28791   2.508   2.418   8.219 -1.2283 -0.5103 -0.6009
  214MOL0     C28792   2.568   2.523   8.315  1.3115  0.8470 -0.6326
  214MOL0     C28793   2.518   2.657   8.281  0.0397  0.4412 -0.4811
  214MOL0     C28794   2.578   2.708   8.150  0.6945 -0.0556  0.2163
  214MOL0     C28795   2.520   2.853   8.101  0.3968  0.4175 -0.6096
  214MOL0     C28796   2.467   2.940   8.218 -0.2976 -0.1866 -0.6996
  214MOL0     C28797   2.596   3.007   8.284  0.7135 -0.3718  0.3356
  214MOL0     C28798   2.576   3.107   8.401 -0.3869  0.4639 -0.6563
  214MOL0    Cl28799   2.543   3.270   8.350 -0.1849 -0.5144  0.3802
  214MOL0     C28800   2.368   2.349   7.963  0.6965  0.0092 -0.3335
  214MOL0     C28801   2.326   2.396   7.835 -0.7885 -0.4044  0.0478
  214MOL0     O28802   2.391   2.725   7.725  0.0128 -0.9284 -1.1290
  214MOL0     C28803   2.166   2.659   7.453  0.1522  0.0592  0.9140
  214MOL0     C28804   2.127   2.707   7.332 -0.3274 -1.1963  0.0857
  214MOL0     N28805   1.750   3.158   6.797  0.1861 -0.1948 -0.1765
  214MOL0     N28806   1.742   3.081   6.703 -0.8282 -0.0218 -0.0940
  214MOL0     C28807   1.630   3.209   5.700  0.3060 -1.1494  0.0220
  214MOL0     C28808   1.630   3.333   5.634 -0.4647  0.3617  0.7100
  214MOL0     C28809   1.496   3.745   5.514 -0.0682  0.9841  0.2057
  214MOL0     C28810   1.470   3.763   5.375 -0.4145  0.7679 -0.4355
  214MOL0     C28811   1.482   3.888   5.322  0.7086  0.1889 -0.8774
  214MOL0     C28812   1.495   4.001   5.405  0.2024  0.4631 -1.0054
  214MOL0     O28813   1.501   4.133   5.359  0.4969 -0.7109  0.9502
  214MOL0     C28814   1.514   4.154   5.219  0.3757  0.6001  0.1056
  214MOL0     C28815   1.651   4.097   5.180 -0.4952 -0.8247 -0.2880
  214MOL0     C28816   1.737   4.188   5.093  1.4128 -0.1923  0.5091
  214MOL0     C28817   1.852   4.100   5.031 -0.7595  0.3810  0.0488
  214MOL0     C28818   1.928   4.177   4.929  0.7732  0.0570 -0.6364
  214MOL0     C28819   1.984   4.219   4.832 -0.6204 -1.1687  0.2427
  214MOL0     C28820   1.515   3.989   5.539 -1.2777 -0.0290 -0.0548
  214MOL0     C28821   1.516   3.858   5.597  0.5103  0.8689 -0.1781
  214MOL0     C28822   1.524   3.857   5.745  0.1441  0.0605 -0.0668
  214MOL0     H28823   1.492   3.522   5.873  0.4224  1.3336 -0.3784
  214MOL0     H28824   1.513   3.304   6.007 -1.6218  0.1853 -0.9565
  214MOL0     H28825   1.696   2.916   5.811 -3.2579 -2.0818  3.6518
  214MOL0     H28826   1.822   3.038   5.824 -0.5581 -2.7421 -2.8907
  214MOL0     H28827   1.857   2.972   6.069 -1.0817 -1.4326  4.2083
  214MOL0     H28828   1.825   2.841   5.970  0.4396 -1.2273  3.4796
  214MOL0     H28829   1.615   2.801   6.046 -1.6658  1.6303  1.9698
  214MOL0     H28830   1.619   2.953   6.136  0.8793  0.2994  2.7654
  214MOL0     H28831   1.803   2.736   6.209 -0.6170 -2.4002  3.4945
  214MOL0     H28832   1.776   2.903   6.278 -0.4911  1.1273 -2.3297
  214MOL0     H28833   1.539   2.817   6.327 -0.4043 -1.4250  0.4525
  214MOL0     H28834   1.581   2.663   6.266 -0.0340  2.2411 -3.6316
  214MOL0     H28835   1.629   2.647   6.510 -0.6913  1.5635  2.0045
  214MOL0     H28836   1.791   2.685   6.443  0.9552  3.0871  1.5333
  214MOL0     H28837   1.580   2.876   6.559 -0.1474  0.1139  1.1513
  214MOL0     H28838   1.718   2.936   6.479 -3.4340  1.5271  1.1268
  214MOL0     H28839   1.736   2.743   6.721  0.0678  0.9714  1.3780
  214MOL0     H28840   1.871   2.839   6.633  0.3088  1.5133  0.8078
  214MOL0     H28841   1.701   2.882   6.943  1.0223  1.3366  1.2247
  214MOL0     H28842   1.729   3.230   7.048  0.0252  0.2036  0.1824
  214MOL0     H28843   1.717   3.068   7.115 -1.1293 -2.0655 -1.5717
  214MOL0     H28844   1.978   3.206   7.065  0.9349 -0.0254  1.9097
  214MOL0     H28845   1.899   3.154   7.212 -1.1945  0.1131  0.6469
  214MOL0     H28846   1.984   2.948   6.987 -2.2682 -0.8604 -0.2010
  214MOL0     H28847   1.890   2.925   7.134 -2.6896  1.7073 -2.0533
  214MOL0     H28848   2.066   2.972   7.280  1.6925 -1.6855  0.8416
  214MOL0     H28849   2.158   3.051   7.154 -0.0816  0.4348  0.7990
  214MOL0     H28850   2.375   2.935   7.284 -0.3792  1.2321  1.3136
  214MOL0     H28851   2.463   2.830   7.488  0.8170 -0.2158 -0.2049
  214MOL0     H28852   2.170   2.679   7.914 -0.3142 -1.1364 -3.0908
  214MOL0     H28853   2.199   2.583   8.145 -1.7561 -2.4546  0.4834
  214MOL0     H28854   2.536   2.324   8.266  2.4246  0.1218 -1.1990
  214MOL0     H28855   2.566   2.428   8.127  0.1517 -3.2229 -0.1296
  214MOL0     H28856   2.538   2.495   8.417 -2.2120  0.0259 -1.7671
  214MOL0     H28857   2.677   2.520   8.309  1.3315  1.3512 -0.5748
  214MOL0     H28858   2.409   2.660   8.273 -0.0068 -2.4721 -2.7865
  214MOL0     H28859   2.568   2.711   8.361  0.8129  1.4157 -1.5868
  214MOL0     H28860   2.569   2.630   8.074  3.4985 -1.3579  1.0602
  214MOL0     H28861   2.686   2.722   8.158  0.1676  4.6535  1.9468
  214MOL0     H28862   2.431   2.838   8.039  0.2056 -1.2360  0.0093
  214MOL0     H28863   2.590   2.910   8.040 -0.1890  0.5024 -1.2097
  214MOL0     H28864   2.406   3.023   8.180  0.2863  0.5445 -0.0566
  214MOL0     H28865   2.408   2.879   8.288  1.2207  0.3514  1.1067
  214MOL0     H28866   2.649   3.067   8.209 -4.3572  0.3106 -3.2659
  214MOL0     H28867   2.662   2.936   8.335  0.6935  0.6181  1.7999
  214MOL0     H28868   2.494   3.057   8.452 -0.3040  0.4491 -0.5376
  214MOL0     H28869   2.669   3.108   8.459 -1.5995  0.3187  1.3646
  214MOL0     H28870   2.423   2.256   7.963 -0.2361 -0.7156  3.2018
  214MOL0     H28871   2.377   2.353   7.750  4.1720  0.0874  2.4043
  214MOL0     H28872   2.096   2.602   7.514 -1.5108 -0.9976 -1.7964
  214MOL0     H28873   2.031   2.686   7.287 -1.5684  0.2713  1.9133
  214MOL0     H28874   1.644   3.128   5.630 -0.2280 -1.2148 -0.0135
  214MOL0     H28875   1.674   3.345   5.535 -0.9683 -1.7385  0.1642
  214MOL0     H28876   1.450   3.681   5.307  2.4700 -0.5735  0.1770
  214MOL0     H28877   1.477   3.889   5.214 -1.2566  0.0844 -0.8114
  214MOL0     H28878   1.521   4.262   5.200 -0.5250  0.4735 -1.0639
  214MOL0     H28879   1.428   4.108   5.170 -0.5817 -0.9455  3.0251
  214MOL0     H28880   1.629   4.006   5.123  1.8914 -2.7752  1.6868
  214MOL0     H28881   1.699   4.065   5.273 -3.6775 -2.8544  0.8297
  214MOL0     H28882   1.766   4.283   5.139  0.7253 -0.3211  1.2414
  214MOL0     H28883   1.679   4.204   5.001  3.3531  2.0844 -0.4052
  214MOL0     H28884   1.924   4.077   5.109  4.1409 -1.8117 -4.4938
  214MOL0     H28885   1.819   4.013   4.974 -1.7989  1.5932 -1.2978
  214MOL0     H28886   2.029   4.260   4.744 -1.1803  0.7785  0.8088
  214MOL0     H28887   1.520   4.082   5.596  0.4905  0.5341 -1.0549
  214MOL0     H28888   1.465   3.778   5.793  0.2295  1.6636  2.8913
  214MOL0     H28889   1.631   3.851   5.764  1.2660  2.1725 -4.3383
  214MOL0     H28890   1.495   3.951   5.792 -0.5031 -0.2927  0.2617
  215MOL0     O28891   4.367   3.229   7.195 -1.2936 -0.3251 -0.1800
  215MOL0     C28892   4.479   3.216   7.240 -0.5049  0.2661 -0.5009
  215MOL0     O28893   4.587   3.271   7.186 -0.3556 -0.2968  0.0800
  215MOL0     C28894   4.565   3.312   7.055 -0.2435  0.3132 -0.8976
  215MOL0     C28895   4.492   3.425   7.025  0.0879 -1.0668 -0.5899
  215MOL0     C28896   4.497   3.481   6.898  0.4270  0.3326  0.5061
  215MOL0     C28897   4.559   3.415   6.790  0.0908 -0.2727  0.2539
  215MOL0     O28898   4.551   3.449   6.655 -0.6083  0.2205 -0.2743
  215MOL0     C28899   4.504   3.582   6.623  0.0520  0.1804 -0.2987
  215MOL0     C28900   4.375   3.558   6.537  0.3507 -0.6670  0.5058
  215MOL0     C28901   4.416   3.502   6.390  0.6259 -0.1076 -0.3635
  215MOL0     C28902   4.529   3.570   6.317 -0.8779 -0.7467 -0.7869
  215MOL0     C28903   4.563   3.492   6.197 -0.6002 -0.9505  0.3911
  215MOL0     C28904   4.677   3.572   6.124  0.5807  0.6543 -0.3288
  215MOL0     C28905   4.733   3.484   6.012  0.3198 -0.0888 -0.1976
  215MOL0     C28906   4.645   3.487   5.887  0.1185 -0.1517 -0.2881
  215MOL0     N28907   4.675   3.611   5.801  0.3274  0.3898 -0.6865
  215MOL0     C28908   4.602   3.730   5.811  0.4952  0.4442  0.3736
  215MOL0     C28909   4.624   3.784   5.686 -0.1165  0.5944  0.6580
  215MOL0     C28910   4.585   3.922   5.664 -0.0411 -0.3009  0.8580
  215MOL0     C28911   4.684   4.018   5.728 -0.1115 -0.3427 -0.3459
  215MOL0     C28912   4.650   4.166   5.714 -0.5401  0.3226 -0.0408
  215MOL0     C28913   4.731   4.236   5.821 -0.1184  0.9405  0.7055
  215MOL0     O28914   4.865   4.235   5.774 -0.7894 -0.4964  0.2731
  215MOL0     C28915   4.954   4.278   5.873 -0.2873  0.8945  0.0598
  215MOL0     C28916   4.935   4.379   5.971 -0.6238  0.5408  0.7344
  215MOL0     C28917   5.029   4.402   6.070  0.4051 -0.0344 -0.1245
  215MOL0     C28918   5.151   4.333   6.075 -0.0559  0.1251 -0.0635
  215MOL0     C28919   5.262   4.371   6.175 -0.3712 -0.8950  0.6537
  215MOL0     O28920   5.224   4.478   6.265  0.3165  0.6576 -0.4979
  215MOL0     C28921   5.289   4.523   6.385 -0.7134  0.0418 -0.9544
  215MOL0     C28922   5.385   4.443   6.452 -0.2107 -0.3674  0.2461
  215MOL0     C28923   5.448   4.491   6.572 -0.4966  0.0308 -0.4112
  215MOL0     C28924   5.421   4.623   6.612 -0.1034  0.3351  0.9143
  215MOL0     O28925   5.516   4.681   6.696  0.6469 -0.1706  0.6534
  215MOL0     C28926   5.479   4.696   6.833  0.3519  0.8429  0.0320
  215MOL0     C28927   5.379   4.815   6.858 -0.3009 -0.3286 -0.3040
  215MOL0     C28928   5.403   4.889   6.991 -0.8143  0.7009  0.1032
  215MOL0     C28929   5.317   5.012   6.990 -0.1829  0.2340 -0.5637
  215MOL0     C28930   5.395   5.119   7.079  0.3446 -0.8299  0.1851
  215MOL0     C28931   5.294   5.236   7.113  0.3529 -0.1437 -0.3396
  215MOL0     C28932   5.288   5.336   6.997 -1.4959  0.3825  0.5199
  215MOL0     C28933   5.266   5.469   7.055  0.0312 -0.2848 -0.1636
  215MOL0    Cl28934   5.103   5.489   7.123  0.3922 -0.0055  0.1930
  215MOL0     C28935   5.331   4.697   6.545  0.2600 -0.6519 -0.0651
  215MOL0     C28936   5.256   4.643   6.447  0.7868 -0.0570  0.5581
  215MOL0     O28937   5.372   4.317   6.166 -0.2846  0.1880 -0.4353
  215MOL0     C28938   5.183   4.242   5.969  0.1378  1.1414 -0.5404
  215MOL0     C28939   5.081   4.210   5.872 -0.2503 -0.5030 -0.1445
  215MOL0     N28940   4.705   3.703   5.612 -0.0481  0.0796 -0.2308
  215MOL0     N28941   4.730   3.601   5.680 -0.2731  0.1534 -0.6324
  215MOL0     C28942   4.625   3.290   6.819  0.5177 -0.0829 -0.1930
  215MOL0     C28943   4.628   3.246   6.948  0.0112  0.4936 -0.1621
  215MOL0     C28944   4.522   3.122   7.348 -0.1214  0.3515 -0.0596
  215MOL0     C28945   4.631   3.163   7.425  0.7669  0.6111 -0.3858
  215MOL0     C28946   4.687   3.083   7.516 -0.0504 -0.0247 -0.1307
  215MOL0     C28947   4.632   2.957   7.544  1.7443 -0.2033 -0.5133
  215MOL0     O28948   4.666   2.866   7.642  0.9275 -0.1479  0.2759
  215MOL0     C28949   4.797   2.825   7.654 -0.2431 -0.4564  0.0679
  215MOL0     C28950   4.871   2.749   7.525 -0.7690  0.1222  0.0785
  215MOL0     C28951   4.968   2.650   7.570  0.0714  0.2678  0.1210
  215MOL0     C28952   5.043   2.587   7.450  0.4081 -0.3168  0.2844
  215MOL0     C28953   5.119   2.689   7.376  0.8161  0.9534  0.1812
  215MOL0     C28954   5.182   2.764   7.301 -0.1434 -0.7837  0.1667
  215MOL0     C28955   4.511   2.917   7.484 -0.4985  0.1600 -0.6031
  215MOL0     C28956   4.458   2.992   7.381  0.4234 -0.0261 -0.5795
  215MOL0     C28957   4.326   2.936   7.336  0.0860 -0.6473  0.8916
  215MOL0     H28958   4.458   3.488   7.106 -3.2299  2.3668 -4.2207
  215MOL0     H28959   4.437   3.572   6.890 -1.0588 -0.6669 -0.1752
  215MOL0     H28960   4.479   3.643   6.710 -2.9586  2.3922 -2.4943
  215MOL0     H28961   4.587   3.628   6.570 -0.3712  1.5125  0.1562
  215MOL0     H28962   4.313   3.648   6.531 -1.9892 -2.2787 -0.8764
  215MOL0     H28963   4.308   3.487   6.587  1.2917 -1.1971  1.0504
  215MOL0     H28964   4.326   3.499   6.327  0.3356 -0.8661  0.0676
  215MOL0     H28965   4.454   3.402   6.411 -0.0682 -0.0246  1.5541
  215MOL0     H28966   4.505   3.675   6.297  2.7201  0.1442 -1.0856
  215MOL0     H28967   4.615   3.563   6.384 -0.6876 -0.9908 -1.0529
  215MOL0     H28968   4.582   3.387   6.220  1.2286 -1.4815 -2.8061
  215MOL0     H28969   4.482   3.481   6.124 -0.1604 -4.4863  0.2395
  215MOL0     H28970   4.652   3.665   6.072 -0.1389  1.8501  2.0187
  215MOL0     H28971   4.751   3.607   6.196  0.5330 -0.9838  0.5867
  215MOL0     H28972   4.758   3.385   6.051 -1.0784 -0.3520  0.0790
  215MOL0     H28973   4.822   3.539   5.981 -1.3290  2.3407 -0.9731
  215MOL0     H28974   4.666   3.399   5.826 -1.9178 -1.6476  1.0819
  215MOL0     H28975   4.539   3.501   5.907  0.3172 -1.4569  1.9729
  215MOL0     H28976   4.556   3.764   5.904  1.6260 -0.0106  1.1140
  215MOL0     H28977   4.589   3.934   5.555 -0.8096 -2.8429  0.4991
  215MOL0     H28978   4.486   3.938   5.706 -0.1948 -0.6119  0.6176
  215MOL0     H28979   4.711   3.982   5.827  2.2228 -1.9959 -1.4891
  215MOL0     H28980   4.778   4.018   5.671 -1.3697 -2.1794 -2.5873
  215MOL0     H28981   4.545   4.183   5.736 -0.5801  1.3262 -0.8894
  215MOL0     H28982   4.683   4.210   5.619 -1.2354  1.0814  0.0645
  215MOL0     H28983   4.707   4.192   5.919 -2.5143 -0.7725 -0.5551
  215MOL0     H28984   4.686   4.335   5.820 -1.4989  0.3554  1.4859
  215MOL0     H28985   4.842   4.434   5.977 -2.0689 -1.7448  0.4916
  215MOL0     H28986   4.996   4.480   6.138  0.0798  0.9051 -1.3104
  215MOL0     H28987   5.411   4.347   6.409 -0.7459  0.2422 -1.5149
  215MOL0     H28988   5.523   4.424   6.613  0.5254  0.8951 -0.8115
  215MOL0     H28989   5.427   4.606   6.866  0.7075  0.0680 -1.4464
  215MOL0     H28990   5.571   4.698   6.892  0.2384 -2.2592  0.4975
  215MOL0     H28991   5.390   4.883   6.773 -1.3348 -0.7182 -0.7612
  215MOL0     H28992   5.288   4.755   6.853  1.9209 -3.9360 -1.2045
  215MOL0     H28993   5.377   4.826   7.077  0.1660 -0.3147 -0.3134
  215MOL0     H28994   5.506   4.924   7.007 -1.4929  3.1312 -0.5036
  215MOL0     H28995   5.217   5.000   7.033 -0.2783 -2.2063 -1.3130
  215MOL0     H28996   5.311   5.055   6.890  1.9164  1.4978 -0.2113
  215MOL0     H28997   5.495   5.152   7.049 -0.0682  2.9202  2.2887
  215MOL0     H28998   5.414   5.066   7.173  1.4685  0.1439  0.5323
  215MOL0     H28999   5.194   5.208   7.146 -0.5846  1.8022 -1.3859
  215MOL0     H29000   5.336   5.286   7.200  1.0045  0.2223 -0.8528
  215MOL0     H29001   5.205   5.317   6.930  0.8775 -0.2389 -2.4511
  215MOL0     H29002   5.371   5.336   6.926 -0.8791 -4.4721  0.9062
  215MOL0     H29003   5.342   5.482   7.132  1.1525 -2.9918 -0.7035
  215MOL0     H29004   5.279   5.556   6.989  0.4309 -0.2416 -0.0300
  215MOL0     H29005   5.314   4.804   6.552 -1.0239 -0.5594 -2.9674
  215MOL0     H29006   5.175   4.707   6.412 -0.1912 -0.4203  2.0654
  215MOL0     H29007   5.286   4.209   5.958 -0.5022 -0.8434 -0.9984
  215MOL0     H29008   5.110   4.135   5.799 -2.3793 -3.0268  1.4414
  215MOL0     H29009   4.692   3.256   6.741 -0.8393 -1.1904 -0.9177
  215MOL0     H29010   4.676   3.151   6.969 -0.6757 -0.0561 -0.9815
  215MOL0     H29011   4.668   3.263   7.409 -1.6798  1.0900 -4.4784
  215MOL0     H29012   4.785   3.115   7.551 -0.4666  2.4927 -1.0626
  215MOL0     H29013   4.792   2.746   7.729 -1.0845 -1.3741 -0.9238
  215MOL0     H29014   4.867   2.906   7.679  0.0929 -0.4749 -0.7701
  215MOL0     H29015   4.917   2.823   7.458 -0.0480 -1.0445 -0.7488
  215MOL0     H29016   4.795   2.701   7.463  0.2056  1.3309 -2.1598
  215MOL0     H29017   4.922   2.565   7.621 -1.8618  0.4994 -1.1615
  215MOL0     H29018   5.040   2.700   7.635 -1.6023  0.1921  2.1183
  215MOL0     H29019   5.110   2.511   7.491  0.5892  0.5081  1.6124
  215MOL0     H29020   4.972   2.533   7.388 -2.1049  0.8171  1.9916
  215MOL0     H29021   5.241   2.822   7.232 -0.3641  0.1846  0.7735
  215MOL0     H29022   4.466   2.827   7.525  1.5227 -0.5361  0.2678
  215MOL0     H29023   4.296   2.982   7.241  1.5056  1.9086  1.5766
  215MOL0     H29024   4.322   2.827   7.333 -0.6974 -0.6736  2.2017
  215MOL0     H29025   4.252   2.974   7.408 -2.7665 -1.3518 -1.4940
  216MOL0     O29026   4.696  10.539   6.748 -0.5807 -0.2804 -0.4533
  216MOL0     C29027   4.667  10.658   6.735 -0.5956  0.3914  0.1639
  216MOL0     O29028   4.665  10.733   6.625 -0.1302 -0.0172  0.3999
  216MOL0     C29029   4.749  10.719   6.521  1.2045 -0.3973  0.3949
  216MOL0     C29030   4.881  10.665   6.530 -0.3252  0.3248 -0.6980
  216MOL0     C29031   4.959  10.660   6.412  0.6392  0.3766  0.7505
  216MOL0     C29032   4.900  10.693   6.289  0.5156 -0.3752  0.3411
  216MOL0     O29033   4.968  10.684   6.175 -1.1719  0.3464 -0.2914
  216MOL0     C29034   4.989  10.552   6.126  0.5655 -0.7857 -0.7013
  216MOL0     C29035   5.093  10.544   6.014  0.1084 -0.0403  0.7788
  216MOL0     C29036   5.133  10.403   5.995 -0.5569 -0.1853 -0.3073
  216MOL0     C29037   5.244  10.392   5.903  0.7862  0.1870 -0.5460
  216MOL0     C29038   5.245  10.260   5.836  1.3252  0.1522  0.5850
  216MOL0     C29039   5.134  10.225   5.733 -0.3188  0.4740 -0.0975
  216MOL0     C29040   5.160  10.289   5.595 -0.3137  1.0757 -0.3582
  216MOL0     C29041   5.068  10.207   5.502 -0.0023  0.7109  0.5527
  216MOL0     N29042   5.037  10.277   5.384 -0.4156 -0.2059  0.6949
  216MOL0     C29043   5.131  10.322   5.293  0.4306 -0.8568 -0.3679
  216MOL0     C29044   5.058  10.384   5.201  0.0560 -0.7121  0.3305
  216MOL0     C29045   5.123  10.439   5.072  0.2978 -0.9540 -0.8093
  216MOL0     C29046   5.098  10.342   4.959 -0.6144  0.2886 -0.0151
  216MOL0     C29047   5.174  10.379   4.832 -0.4320 -0.2019  0.1105
  216MOL0     C29048   5.125  10.300   4.713  0.1326  0.1348 -0.5557
  216MOL0     O29049   5.173  10.161   4.735 -0.0210 -0.5387  0.0535
  216MOL0     C29050   5.115  10.083   4.642 -0.5903 -0.8695  0.4970
  216MOL0     C29051   5.200  10.025   4.549 -0.2379 -0.7487 -0.0925
  216MOL0     C29052   5.161   9.922   4.460 -0.3508 -0.3937 -0.4800
  216MOL0     C29053   5.020   9.890   4.456 -0.4738 -0.0548  1.6078
  216MOL0     C29054   4.981   9.785   4.354 -1.1630  0.2578 -1.5321
  216MOL0     O29055   5.093   9.737   4.279 -0.0297 -0.5573 -0.1124
  216MOL0     C29056   5.062   9.648   4.180  0.1239  0.1125  0.7077
  216MOL0     C29057   4.966   9.662   4.081 -1.0913  0.4871  0.3937
  216MOL0     C29058   4.940   9.555   3.987  1.1782  0.6439 -0.5880
  216MOL0     C29059   5.019   9.448   3.982 -0.0389  0.0675 -0.8924
  216MOL0     O29060   5.007   9.367   3.868  0.7134 -0.8335  0.2851
  216MOL0     C29061   5.057   9.228   3.873  1.1934  0.1251 -0.4634
  216MOL0     C29062   4.986   9.141   3.776 -0.1927 -0.4277  0.3441
  216MOL0     C29063   5.020   8.991   3.815 -0.0721  0.1167 -0.0938
  216MOL0     C29064   4.920   8.896   3.738 -0.8670 -0.2251  0.7671
  216MOL0     C29065   4.790   8.878   3.818  0.3211  1.0513 -1.0386
  216MOL0     C29066   4.685   8.798   3.731 -0.6315 -0.4157  0.0544
  216MOL0     C29067   4.641   8.667   3.791  0.4282  0.3033 -0.2025
  216MOL0     C29068   4.752   8.557   3.816 -0.6557 -0.2697  0.0405
  216MOL0    Cl29069   4.792   8.465   3.670  0.3568 -0.0027 -0.3190
  216MOL0     C29070   5.108   9.428   4.093 -0.2382  1.5718  0.3551
  216MOL0     C29071   5.144   9.528   4.174  0.4245  0.3908 -0.3640
  216MOL0     O29072   4.861   9.763   4.345  0.1770 -0.2745 -0.2734
  216MOL0     C29073   4.935   9.939   4.556  0.0390 -0.6709 -0.1021
  216MOL0     C29074   4.983  10.035   4.653  0.8664 -0.6071 -0.1445
  216MOL0     N29075   4.926  10.394   5.240  0.1203  0.5390 -0.2964
  216MOL0     N29076   4.922  10.341   5.354 -0.2290  1.1214 -0.4360
  216MOL0     C29077   4.775  10.740   6.281  0.8782  0.8881 -0.2597
  216MOL0     C29078   4.692  10.747   6.395 -0.1886 -0.2825  0.2290
  216MOL0     C29079   4.624  10.723   6.858 -0.5844  0.4204  0.5679
  216MOL0     C29080   4.696  10.706   6.971  0.3728  1.0791 -0.6249
  216MOL0     C29081   4.655  10.766   7.086 -0.3121 -0.2508  0.4492
  216MOL0     C29082   4.551  10.857   7.096 -1.3436  0.2116 -0.1489
  216MOL0     O29083   4.509  10.889   7.227  0.3909 -0.7000  0.1625
  216MOL0     C29084   4.402  10.973   7.253 -0.6082  0.7381  0.3021
  216MOL0     C29085   4.410  11.008   7.405  0.2910  0.2671  0.1740
  216MOL0     C29086   4.294  11.085   7.449  0.0389  0.1812 -0.1456
  216MOL0     C29087   4.310  11.132   7.601  0.4857  0.3367 -0.5948
  216MOL0     C29088   4.410  11.237   7.611 -0.0796  0.3582 -0.1980
  216MOL0     C29089   4.480  11.328   7.627 -0.3976  0.1445 -0.7521
  216MOL0     C29090   4.473  10.882   6.984 -0.7873 -0.1289 -0.1176
  216MOL0     C29091   4.505  10.802   6.867  0.2552 -0.1323  0.6768
  216MOL0     C29092   4.406  10.824   6.750  0.1874 -0.5513  0.2837
  216MOL0     H29093   4.925  10.630   6.622  2.7624  0.2322 -2.0833
  216MOL0     H29094   5.061  10.625   6.423  1.1892  2.3709  2.4186
  216MOL0     H29095   5.014  10.483   6.208 -5.1755 -0.4016  1.9431
  216MOL0     H29096   4.898  10.508   6.083 -0.9063  1.7939 -0.4901
  216MOL0     H29097   5.180  10.600   6.048  0.5299 -1.2085  1.7412
  216MOL0     H29098   5.054  10.579   5.919 -1.9885 -1.3217  1.0881
  216MOL0     H29099   5.043  10.348   5.967  0.3001 -0.5992 -2.3912
  216MOL0     H29100   5.157  10.345   6.085 -2.4601  0.3295  0.5776
  216MOL0     H29101   5.228  10.471   5.829  1.9769  0.3663 -0.6314
  216MOL0     H29102   5.334  10.403   5.964  1.9740  1.0872 -2.3851
  216MOL0     H29103   5.342  10.251   5.785  1.4517  3.0512  0.1642
  216MOL0     H29104   5.231  10.173   5.901 -1.8517 -1.8718 -2.4617
  216MOL0     H29105   5.120  10.117   5.731 -1.9807  0.5387  2.6049
  216MOL0     H29106   5.046  10.275   5.775 -1.4497  1.2847 -3.1277
  216MOL0     H29107   5.264  10.269   5.567 -0.3762 -3.9278  1.8591
  216MOL0     H29108   5.134  10.395   5.596 -2.4873  0.6144 -1.4166
  216MOL0     H29109   5.090  10.099   5.498 -1.5054  0.4307 -1.2379
  216MOL0     H29110   4.977  10.204   5.563  0.7431  0.8013  1.7150
  216MOL0     H29111   5.238  10.307   5.284  0.4505 -0.1275 -1.3960
  216MOL0     H29112   5.072  10.534   5.056  0.2165 -0.3828  2.3369
  216MOL0     H29113   5.226  10.454   5.102  0.8139 -2.5043 -1.6762
  216MOL0     H29114   5.139  10.245   4.991  1.0700  0.9847  0.0642
  216MOL0     H29115   4.992  10.340   4.933  0.2129  0.2502 -4.0028
  216MOL0     H29116   5.281  10.365   4.854  0.0714 -2.1471 -3.0099
  216MOL0     H29117   5.164  10.485   4.808 -1.0440  0.0640  1.4549
  216MOL0     H29118   5.174  10.332   4.620  0.1248  1.0148 -0.2605
  216MOL0     H29119   5.017  10.311   4.699  0.1192  0.5367 -0.1626
  216MOL0     H29120   5.307  10.035   4.569 -0.4491  3.4350 -0.2622
  216MOL0     H29121   5.244   9.867   4.417  0.6628 -0.0106  0.9101
  216MOL0     H29122   4.915   9.758   4.084  1.5216  1.9941  0.3845
  216MOL0     H29123   4.867   9.560   3.906  1.5599 -2.4544 -1.2589
  216MOL0     H29124   5.162   9.231   3.843  1.2485  1.6170 -0.2069
  216MOL0     H29125   5.042   9.186   3.974 -1.2026  0.4013 -0.6338
  216MOL0     H29126   4.879   9.162   3.786 -0.6404 -1.2372 -2.0875
  216MOL0     H29127   5.013   9.162   3.672 -3.5627 -1.9535 -0.9935
  216MOL0     H29128   5.122   8.972   3.781 -0.4685 -0.7122 -0.8488
  216MOL0     H29129   5.017   8.976   3.924 -1.2967 -2.4866 -0.3966
  216MOL0     H29130   4.965   8.797   3.725  1.4405  0.8970 -0.4965
  216MOL0     H29131   4.911   8.944   3.641  0.2256 -2.2533 -0.4177
  216MOL0     H29132   4.740   8.973   3.836  1.5482  1.4998  0.1182
  216MOL0     H29133   4.813   8.831   3.913 -0.6345  0.6399 -1.0020
  216MOL0     H29134   4.594   8.857   3.721 -0.9400 -0.3302  2.5723
  216MOL0     H29135   4.725   8.782   3.631  3.7760  1.0463  1.3353
  216MOL0     H29136   4.562   8.615   3.736  0.4800  2.0977 -2.0738
  216MOL0     H29137   4.584   8.698   3.879  0.2955 -1.3754  0.3545
  216MOL0     H29138   4.844   8.605   3.851 -0.8695  1.0854 -1.1865
  216MOL0     H29139   4.713   8.490   3.894 -0.5062 -1.3782 -0.8206
  216MOL0     H29140   5.174   9.343   4.083  0.1221  1.7373  1.2107
  216MOL0     H29141   5.224   9.510   4.246  2.4935 -1.9619 -3.0026
  216MOL0     H29142   4.829   9.915   4.548  0.1259 -0.6976 -1.5459
  216MOL0     H29143   4.912  10.075   4.725  2.6245 -0.5113  1.6278
  216MOL0     H29144   4.716  10.774   6.196 -0.2538 -0.5659 -0.0814
  216MOL0     H29145   4.592  10.789   6.390 -0.3851 -0.5275 -5.9469
  216MOL0     H29146   4.783  10.643   6.984 -0.3129  0.3003  0.2902
  216MOL0     H29147   4.723  10.767   7.171 -0.3704 -0.3825  0.4986
  216MOL0     H29148   4.308  10.918   7.239  0.1337 -1.1180  2.0291
  216MOL0     H29149   4.425  11.060   7.191  2.3901  0.4882  0.8824
  216MOL0     H29150   4.498  11.074   7.413 -0.8291  1.7185  0.8921
  216MOL0     H29151   4.423  10.919   7.467  0.2465 -0.5333 -0.9247
  216MOL0     H29152   4.206  11.021   7.437  1.3057 -1.5738 -0.6822
  216MOL0     H29153   4.285  11.172   7.384  0.2484  1.4439  1.4478
  216MOL0     H29154   4.212  11.179   7.614 -0.0306 -0.4569 -1.4153
  216MOL0     H29155   4.319  11.043   7.665 -1.2258  0.2031 -0.4741
  216MOL0     H29156   4.541  11.414   7.642 -0.3932  0.0419 -0.1732
  216MOL0     H29157   4.390  10.952   6.989 -1.4119 -0.8495 -0.1835
  216MOL0     H29158   4.398  10.730   6.694 -1.3426 -1.4274  1.8671
  216MOL0     H29159   4.309  10.844   6.797 -0.2027  0.8219 -1.0418
  216MOL0     H29160   4.423  10.911   6.686 -0.5310 -1.1716 -0.7645
  217MOL0     O29161   6.933   3.485   7.238 -0.0984  0.7327  0.3654
  217MOL0     C29162   6.922   3.575   7.164  0.0254 -0.6451  0.7901
  217MOL0     O29163   6.810   3.599   7.091 -0.2818 -0.1071  1.0541
  217MOL0     C29164   6.704   3.508   7.069  0.5363  0.0062  0.1420
  217MOL0     C29165   6.572   3.538   7.125 -1.1359 -0.5305 -0.2740
  217MOL0     C29166   6.475   3.436   7.122 -0.2601 -1.2567  0.0300
  217MOL0     C29167   6.506   3.307   7.073 -0.9619  0.4483 -0.1556
  217MOL0     O29168   6.417   3.196   7.079 -0.9287 -0.5060 -0.2819
  217MOL0     C29169   6.273   3.222   7.079 -0.6379  0.5232  0.0697
  217MOL0     C29170   6.213   3.081   7.091  0.3725  0.1426  0.0602
  217MOL0     C29171   6.066   3.094   7.127  0.2110 -0.6975  0.5058
  217MOL0     C29172   5.984   2.960   7.125  0.3170  0.3184 -0.1322
  217MOL0     C29173   5.843   2.972   7.179  0.3271  0.0435 -1.4127
  217MOL0     C29174   5.761   3.072   7.104  0.2769 -0.3684 -0.3277
  217MOL0     C29175   5.762   3.031   6.951  0.5417  0.4078  1.2135
  217MOL0     C29176   5.646   3.103   6.895 -0.0328 -0.5770 -0.2415
  217MOL0     N29177   5.527   3.014   6.879 -0.4248 -0.6689  0.0137
  217MOL0     C29178   5.511   2.931   6.765 -0.2079  0.2063  0.3950
  217MOL0     C29179   5.391   2.858   6.798 -0.2255  0.3248 -0.1746
  217MOL0     C29180   5.314   2.749   6.715 -0.2414 -0.8822  0.1272
  217MOL0     C29181   5.362   2.611   6.762 -0.1497  0.9119  1.3124
  217MOL0     C29182   5.280   2.499   6.701 -0.4790 -0.1807  0.4963
  217MOL0     C29183   5.263   2.500   6.547 -0.6013  0.2908 -0.9763
  217MOL0     O29184   5.189   2.375   6.510  0.4925 -0.1591 -0.0261
  217MOL0     C29185   5.250   2.269   6.446  0.4461  0.2745  0.0686
  217MOL0     C29186   5.156   2.183   6.388  0.0876 -0.3885  0.4112
  217MOL0     C29187   5.184   2.077   6.307 -0.0748 -0.9781  0.2658
  217MOL0     C29188   5.322   2.034   6.307 -0.2508  0.1341  0.4412
  217MOL0     C29189   5.350   1.912   6.237 -0.5083  0.0008 -0.2185
  217MOL0     O29190   5.254   1.804   6.218 -0.0666 -0.4314  0.1212
  217MOL0     C29191   5.267   1.710   6.125  0.0757 -0.3610  1.0570
  217MOL0     C29192   5.344   1.712   6.005 -0.5033  0.1308  0.1165
  217MOL0     C29193   5.333   1.610   5.904  0.2492 -0.3568  0.6312
  217MOL0     C29194   5.251   1.505   5.930  0.5628  0.0219 -1.0298
  217MOL0     O29195   5.249   1.395   5.845 -0.0015  0.6254 -0.7416
  217MOL0     C29196   5.306   1.408   5.714 -0.2084  0.1418  0.2736
  217MOL0     C29197   5.276   1.280   5.642  0.1017 -0.3002  0.5781
  217MOL0     C29198   5.343   1.159   5.693 -0.1470 -0.0342  1.0072
  217MOL0     C29199   5.325   1.039   5.583 -0.3407  0.4384 -1.0828
  217MOL0     C29200   5.436   0.936   5.615 -0.5763 -0.1731 -0.1754
  217MOL0     C29201   5.416   0.851   5.741 -0.0228 -0.2058 -0.9834
  217MOL0     C29202   5.514   0.734   5.753 -0.3600 -0.3480 -0.4084
  217MOL0     C29203   5.520   0.679   5.901  0.6408 -0.0127  0.0125
  217MOL0    Cl29204   5.644   0.555   5.917  0.2029 -0.0180  0.3685
  217MOL0     C29205   5.171   1.502   6.046  0.0604 -0.1869 -0.3740
  217MOL0     C29206   5.179   1.604   6.136 -0.0668  0.7154  0.5775
  217MOL0     O29207   5.462   1.916   6.184 -0.0052 -0.2388  0.6570
  217MOL0     C29208   5.414   2.109   6.372  0.1388 -0.7935  0.8141
  217MOL0     C29209   5.385   2.237   6.434 -0.2340  0.0786  0.0530
  217MOL0     N29210   5.346   2.905   6.922 -0.3187  0.4700 -0.0587
  217MOL0     N29211   5.427   3.005   6.964  0.1295 -0.3051  0.2310
  217MOL0     C29212   6.629   3.284   7.017  0.4915 -0.2786  0.2767
  217MOL0     C29213   6.733   3.384   7.021  0.5172  0.4597 -0.0103
  217MOL0     C29214   7.047   3.659   7.150  0.1035 -0.0452 -0.4350
  217MOL0     C29215   7.125   3.689   7.263  0.6892  0.5897 -0.1158
  217MOL0     C29216   7.234   3.767   7.258  0.0747  0.2827  0.6744
  217MOL0     C29217   7.278   3.827   7.141  0.6707  0.1314 -0.2389
  217MOL0     O29218   7.385   3.914   7.112 -0.2013 -0.0881  0.1989
  217MOL0     C29219   7.451   3.954   7.232 -0.2186  0.0167 -0.0943
  217MOL0     C29220   7.564   4.058   7.192  0.2614  1.0190 -1.1139
  217MOL0     C29221   7.615   4.131   7.319  0.9345  0.6223 -0.1951
  217MOL0     C29222   7.689   4.264   7.300 -0.6038  0.4539  0.1678
  217MOL0     C29223   7.598   4.375   7.261 -1.1209  0.6119 -0.1009
  217MOL0     C29224   7.530   4.471   7.222 -0.9046 -0.8666  0.7351
  217MOL0     C29225   7.203   3.787   7.025 -0.0713 -0.1404  0.3446
  217MOL0     C29226   7.082   3.714   7.027 -0.0162 -0.2735 -0.4751
  217MOL0     C29227   7.007   3.676   6.901  0.5261 -0.7902  0.0519
  217MOL0     H29228   6.540   3.624   7.183  0.1538 -0.5494  0.4948
  217MOL0     H29229   6.383   3.449   7.179 -0.0570  0.2284  0.0566
  217MOL0     H29230   6.241   3.289   7.160 -1.6331  0.8192 -0.5591
  217MOL0     H29231   6.247   3.271   6.985  1.1071  0.3646 -0.5363
  217MOL0     H29232   6.266   3.039   7.177  2.3161  0.8422 -0.7548
  217MOL0     H29233   6.218   3.015   7.004  1.3123  1.5135 -0.9506
  217MOL0     H29234   6.022   3.163   7.055  2.8215 -1.5889 -2.1762
  217MOL0     H29235   6.066   3.128   7.231  0.6318  0.1341  0.2484
  217MOL0     H29236   5.993   2.915   7.026  2.6912  0.1530  0.1030
  217MOL0     H29237   6.037   2.885   7.185  2.9878  2.0207 -0.1968
  217MOL0     H29238   5.806   2.870   7.161  1.5144 -0.4511 -1.1443
  217MOL0     H29239   5.841   2.983   7.288  3.4880  3.0419 -1.4827
  217MOL0     H29240   5.659   3.073   7.145 -0.4823  0.4178 -2.1213
  217MOL0     H29241   5.798   3.174   7.109 -3.8901  1.3175  0.7879
  217MOL0     H29242   5.756   2.926   6.922 -3.2272  0.7989  0.0605
  217MOL0     H29243   5.852   3.061   6.896  1.0740 -2.0180  0.6446
  217MOL0     H29244   5.612   3.192   6.949  0.3402 -0.9528  0.6181
  217MOL0     H29245   5.674   3.140   6.795 -3.3090 -2.7237 -2.1473
  217MOL0     H29246   5.572   2.942   6.675 -1.1906  0.1942 -0.2818
  217MOL0     H29247   5.209   2.779   6.721 -0.6225 -1.6529 -1.8383
  217MOL0     H29248   5.356   2.765   6.615 -1.6508 -0.0843 -0.3751
  217MOL0     H29249   5.465   2.616   6.727 -0.2680 -0.0786  0.7635
  217MOL0     H29250   5.367   2.596   6.870  1.4025  2.7126  1.5474
  217MOL0     H29251   5.179   2.509   6.743 -0.0801  3.1800  0.8783
  217MOL0     H29252   5.313   2.397   6.726  1.2055 -0.2874 -1.8845
  217MOL0     H29253   5.365   2.506   6.509  0.1263  2.9098  1.1370
  217MOL0     H29254   5.213   2.591   6.512  4.6623  3.5226 -1.1934
  217MOL0     H29255   5.049   2.202   6.399  0.4370  3.2199 -1.0520
  217MOL0     H29256   5.101   2.025   6.260  0.8646 -2.1373 -0.1690
  217MOL0     H29257   5.401   1.801   5.982 -1.4113  0.4948 -0.7605
  217MOL0     H29258   5.399   1.621   5.819 -0.7970 -0.3692 -0.2120
  217MOL0     H29259   5.256   1.485   5.655 -0.4766 -1.9219 -2.3637
  217MOL0     H29260   5.413   1.421   5.729  0.2980 -3.4447  0.5480
  217MOL0     H29261   5.170   1.255   5.634  0.1099 -0.4024  0.7935
  217MOL0     H29262   5.301   1.300   5.537  1.6531 -0.0064  0.9878
  217MOL0     H29263   5.451   1.175   5.704  0.0429  0.2894 -0.9894
  217MOL0     H29264   5.299   1.109   5.779 -1.1213 -1.2765 -0.1646
  217MOL0     H29265   5.331   1.074   5.479 -2.5949  3.9919 -0.2397
  217MOL0     H29266   5.229   0.987   5.591 -0.1175  0.3091  1.4302
  217MOL0     H29267   5.536   0.980   5.624 -0.8725  0.3231  0.9501
  217MOL0     H29268   5.435   0.871   5.528 -5.4522  0.7323 -1.1325
  217MOL0     H29269   5.443   0.922   5.820  1.5447 -1.6139 -0.1930
  217MOL0     H29270   5.308   0.835   5.755 -0.6038  2.7439 -1.4645
  217MOL0     H29271   5.616   0.759   5.721 -1.4148  2.3725 -1.9471
  217MOL0     H29272   5.480   0.649   5.693 -0.1224  0.1497 -1.2635
  217MOL0     H29273   5.554   0.769   5.953 -0.2532 -0.0591  0.6955
  217MOL0     H29274   5.420   0.646   5.930  1.0827 -2.7252 -1.3006
  217MOL0     H29275   5.118   1.410   6.066 -0.0269  0.3127  1.9574
  217MOL0     H29276   5.113   1.583   6.219  0.3014 -2.3397  0.2384
  217MOL0     H29277   5.519   2.084   6.367  0.3029 -0.0759  0.5555
  217MOL0     H29278   5.462   2.298   6.479  0.5324 -0.0356 -1.0649
  217MOL0     H29279   6.645   3.188   6.968  1.1580  0.2441 -0.5575
  217MOL0     H29280   6.823   3.341   6.980  0.0993 -0.8841  0.4389
  217MOL0     H29281   7.099   3.652   7.362  0.6206  1.7239  0.3020
  217MOL0     H29282   7.274   3.788   7.356 -0.2665  3.0473  0.3014
  217MOL0     H29283   7.501   3.871   7.285  2.6274 -0.0802 -2.6609
  217MOL0     H29284   7.378   4.006   7.295  1.1515  2.2965 -0.2802
  217MOL0     H29285   7.517   4.133   7.128 -1.5205  0.3268 -0.6779
  217MOL0     H29286   7.649   4.010   7.141 -0.6451 -0.1500 -1.5731
  217MOL0     H29287   7.683   4.065   7.375  0.3678  0.4444  0.2890
  217MOL0     H29288   7.528   4.146   7.383 -1.5725 -0.9872 -2.9944
  217MOL0     H29289   7.737   4.287   7.395  0.2484  1.0980 -0.4117
  217MOL0     H29290   7.774   4.260   7.232  1.7848  0.6141  2.9867
  217MOL0     H29291   7.473   4.552   7.180 -0.8603 -1.5278 -0.6555
  217MOL0     H29292   7.241   3.797   6.923 -0.9602 -1.2007 -0.1168
  217MOL0     H29293   7.053   3.735   6.821  0.1690  0.2198  0.5776
  217MOL0     H29294   7.019   3.567   6.898 -0.9226 -0.9751 -3.1298
  217MOL0     H29295   6.905   3.716   6.906  0.2077 -1.7289  2.5385
  218MOL0     O29296   9.286   0.528  10.418 -0.5838 -1.0504 -0.0326
  218MOL0     C29297   9.172   0.538  10.381  0.7554  0.0649 -0.0019
  218MOL0     O29298   9.138   0.633  10.285 -0.3202  0.2631  0.6296
  218MOL0     C29299   9.219   0.744  10.263 -0.0595  0.0738 -0.8061
  218MOL0     C29300   9.350   0.724  10.207  0.0497 -0.3372  0.1108
  218MOL0     C29301   9.436   0.834  10.193 -0.0131  0.5125  0.5336
  218MOL0     C29302   9.388   0.958  10.201 -0.1839  0.8079 -0.1529
  218MOL0     O29303   9.474   1.062  10.185  0.2790  0.2099 -0.3852
  218MOL0     C29304   9.413   1.184  10.157  0.5372  0.1661  0.2691
  218MOL0     C29305   9.505   1.267  10.071  0.0885 -0.3772 -1.0534
  218MOL0     C29306   9.471   1.404  10.031 -0.6777 -0.0025 -0.1396
  218MOL0     C29307   9.412   1.493  10.143 -0.4529  0.1716  0.2459
  218MOL0     C29308   9.383   1.618  10.079 -0.0579 -0.9488  0.3103
  218MOL0     C29309   9.326   1.725  10.177  0.3251 -0.1395 -0.0761
  218MOL0     C29310   9.441   1.792  10.261  0.6703 -0.3914 -0.4712
  218MOL0     C29311   9.366   1.887  10.366 -0.7338 -0.0948 -0.1797
  218MOL0     N29312   9.471   1.956  10.441  0.7202 -0.1005  0.6669
  218MOL0     C29313   9.467   2.089  10.454  0.8102 -0.2128 -0.0370
  218MOL0     C29314   9.571   2.119  10.536 -0.0767  0.4022 -1.1017
  218MOL0     C29315   9.589   2.255  10.588 -0.7859  0.3975  0.9227
  218MOL0     C29316   9.719   2.319  10.514  0.1968  0.2572 -1.0401
  218MOL0     C29317   9.679   2.349  10.372  0.3134 -0.6542 -0.1880
  218MOL0     C29318   9.800   2.386  10.292 -0.1104 -0.0027  0.7282
  218MOL0     O29319   9.857   2.511  10.329 -0.3371 -0.1936 -0.1852
  218MOL0     C29320   9.944   2.586  10.253  0.3715  0.7650 -0.0167
  218MOL0     C29321   9.990   2.550  10.121 -0.3211 -0.4676 -0.5494
  218MOL0     C29322  10.101   2.608  10.065 -0.3536  0.2547 -1.0160
  218MOL0     C29323  10.163   2.721  10.122  1.1177  0.3901 -0.9986
  218MOL0     C29324  10.267   2.801  10.054  0.4182  0.2209 -0.7922
  218MOL0     O29325  10.333   2.886  10.144  0.3334  0.3178  0.0064
  218MOL0     C29326  10.435   2.972  10.113 -0.7369 -0.2504  0.2508
  218MOL0     C29327  10.477   3.042  10.224 -0.0913  0.5444 -0.2427
  218MOL0     C29328  10.578   3.129  10.211  0.3111  0.4045  0.6895
  218MOL0     C29329  10.641   3.155  10.091  1.6879 -0.8335  1.0938
  218MOL0     O29330  10.724   3.263  10.079  0.6059  0.1014  0.1033
  218MOL0     C29331  10.819   3.290  10.190  0.3554  1.8791  0.3806
  218MOL0     C29332  10.935   3.365  10.134 -0.7051  0.0731  0.0981
  218MOL0     C29333  10.912   3.500  10.081  0.3287 -0.3460 -0.6384
  218MOL0     C29334  10.865   3.599  10.189  0.1930 -0.3127  0.4209
  218MOL0     C29335  10.825   3.734  10.119  0.0015  0.9194  0.1947
  218MOL0     C29336  10.771   3.831  10.206  0.2815 -1.0147 -0.3254
  218MOL0     C29337  10.708   3.956  10.123  0.0085  0.4306  0.4085
  218MOL0     C29338  10.641   4.052  10.207 -0.9088 -0.0045 -0.3365
  218MOL0    Cl29339  10.589   4.191  10.100 -0.4443  0.4649 -0.1095
  218MOL0     C29340  10.605   3.082   9.976  0.2363 -1.4560 -0.4703
  218MOL0     C29341  10.498   2.995   9.986  1.0853  0.7724  0.1537
  218MOL0     O29342  10.300   2.790   9.935 -0.3841  0.6780 -0.3309
  218MOL0     C29343  10.110   2.759  10.254 -0.4598 -0.3015 -0.0097
  218MOL0     C29344  10.005   2.685  10.318 -0.4184 -0.2480 -0.7024
  218MOL0     N29345   9.655   2.007  10.538  0.5196 -0.7575  0.2208
  218MOL0     N29346   9.586   1.909  10.482 -0.1830  0.8911  1.1827
  218MOL0     C29347   9.252   0.976  10.253  0.1755  0.3989  0.1862
  218MOL0     C29348   9.169   0.874  10.276 -1.0087 -0.2553  0.7655
  218MOL0     C29349   9.073   0.440  10.417  0.6381 -0.1383  0.1383
  218MOL0     C29350   9.034   0.424  10.551 -0.7798  0.9605 -0.0783
  218MOL0     C29351   8.929   0.337  10.577 -0.4538 -0.5807 -0.1684
  218MOL0     C29352   8.885   0.245  10.483 -0.0877 -0.0269  0.6111
  218MOL0     O29353   8.808   0.145  10.533 -0.4841 -0.2321 -0.3614
  218MOL0     C29354   8.738   0.062  10.441 -0.4156 -0.0893  0.4759
  218MOL0     C29355   8.616   0.133  10.376  1.2299  0.0151 -0.4141
  218MOL0     C29356   8.504   0.177  10.469  0.2693 -0.8555 -0.6148
  218MOL0     C29357   8.381   0.229  10.393 -0.5429  0.1363  0.1237
  218MOL0     C29358   8.284   0.127  10.354  0.0044  0.7089  1.3220
  218MOL0     C29359   8.207   0.034  10.330  0.8005 -0.5791 -0.3381
  218MOL0     C29360   8.918   0.267  10.351  0.7377  0.4231  0.3088
  218MOL0     C29361   9.008   0.366  10.320 -0.7409  0.9151  0.2509
  218MOL0     C29362   9.046   0.374  10.178 -0.1257 -0.5053  0.5998
  218MOL0     H29363   9.378   0.621  10.190 -3.6655 -1.8888  2.0127
  218MOL0     H29364   9.540   0.819  10.164 -0.6783 -1.2504 -1.1154
  218MOL0     H29365   9.314   1.168  10.114  0.5824 -1.5032  0.7332
  218MOL0     H29366   9.416   1.249  10.245 -4.6265  3.2781 -1.3672
  218MOL0     H29367   9.529   1.211   9.981 -0.3887 -0.1622 -1.3172
  218MOL0     H29368   9.587   1.285  10.142 -1.2212 -0.2377  0.4875
  218MOL0     H29369   9.397   1.399   9.951 -1.5056 -0.2367  0.6276
  218MOL0     H29370   9.561   1.457   9.998  0.1985 -0.7228  1.0354
  218MOL0     H29371   9.326   1.429  10.167  0.0499 -1.2707 -1.6082
  218MOL0     H29372   9.485   1.511  10.223  0.3579  0.4092 -0.5413
  218MOL0     H29373   9.474   1.655  10.031 -0.3004 -2.9342 -1.9209
  218MOL0     H29374   9.310   1.606   9.998 -1.0062  1.9072  0.6462
  218MOL0     H29375   9.273   1.796  10.112  0.4867 -1.2298 -1.4618
  218MOL0     H29376   9.257   1.663  10.234 -0.9248  0.7925 -0.5096
  218MOL0     H29377   9.504   1.845  10.188 -0.5904 -1.2122 -2.2367
  218MOL0     H29378   9.506   1.721  10.313 -0.7872 -0.8682  0.7499
  218MOL0     H29379   9.298   1.958  10.316 -2.3161 -1.0403  0.5421
  218MOL0     H29380   9.311   1.828  10.438 -1.2099 -1.1288 -1.3538
  218MOL0     H29381   9.382   2.148  10.420 -0.5723 -2.6442 -1.0999
  218MOL0     H29382   9.500   2.316  10.571 -1.3051 -0.1158  1.7422
  218MOL0     H29383   9.612   2.253  10.695  1.0261 -1.4728  0.5660
  218MOL0     H29384   9.751   2.403  10.577 -3.5239  1.2137 -0.1637
  218MOL0     H29385   9.806   2.253  10.510  0.0731 -0.1707  1.5850
  218MOL0     H29386   9.602   2.427  10.371  2.0783  1.1789 -0.9460
  218MOL0     H29387   9.651   2.250  10.336 -1.7160 -0.2582  0.1845
  218MOL0     H29388   9.765   2.404  10.190 -1.1384 -0.5305  0.9723
  218MOL0     H29389   9.877   2.309  10.283  1.2812  1.3690  0.5105
  218MOL0     H29390   9.930   2.475  10.071 -1.0071 -0.2812 -0.0130
  218MOL0     H29391  10.134   2.591   9.963 -1.0197 -1.4888 -0.9699
  218MOL0     H29392  10.405   3.041  10.305 -2.5439  2.3944 -2.2272
  218MOL0     H29393  10.589   3.204  10.289 -1.5320  0.8850  0.5368
  218MOL0     H29394  10.778   3.355  10.268 -1.9836  1.9400 -0.8392
  218MOL0     H29395  10.844   3.196  10.242  0.4271  2.0198  0.6026
  218MOL0     H29396  11.002   3.376  10.220 -0.4499  1.6677 -0.2766
  218MOL0     H29397  10.990   3.298  10.068 -1.2641  0.0878 -0.3889
  218MOL0     H29398  10.997   3.542  10.026 -0.8023  2.0144 -0.7223
  218MOL0     H29399  10.825   3.494  10.015 -0.4296 -2.4034  0.4678
  218MOL0     H29400  10.953   3.624  10.249  0.4657  0.6008 -0.3383
  218MOL0     H29401  10.790   3.562  10.259 -0.6100 -0.7657 -0.6549
  218MOL0     H29402  10.749   3.717  10.042 -0.2002 -4.1212  1.1504
  218MOL0     H29403  10.912   3.785  10.077 -0.2919  0.7594 -0.6134
  218MOL0     H29404  10.691   3.789  10.268 -1.0961  0.6206 -0.9211
  218MOL0     H29405  10.850   3.866  10.273  1.2354 -2.8720 -0.4285
  218MOL0     H29406  10.642   3.914  10.047 -3.6958  3.3402  1.7267
  218MOL0     H29407  10.794   4.008  10.079 -3.0402  1.3682 -5.4210
  218MOL0     H29408  10.557   4.002  10.255 -1.2226 -1.1045 -1.9434
  218MOL0     H29409  10.706   4.082  10.289  0.7462 -3.7088 -0.1345
  218MOL0     H29410  10.675   3.089   9.894 -1.5688 -2.9009 -2.2402
  218MOL0     H29411  10.470   2.940   9.897  2.6503 -3.0204  1.7725
  218MOL0     H29412  10.152   2.848  10.301  0.0236  0.3626 -1.5932
  218MOL0     H29413   9.971   2.712  10.417 -2.2884  0.8673 -1.5771
  218MOL0     H29414   9.202   1.072  10.252 -0.9764 -0.1189 -2.4386
  218MOL0     H29415   9.064   0.890  10.293 -1.1714  2.0810 -1.7883
  218MOL0     H29416   9.068   0.496  10.625 -0.2547  1.0733 -0.4237
  218MOL0     H29417   8.912   0.308  10.680  4.0272  0.7364  1.1782
  218MOL0     H29418   8.694  -0.033  10.473 -1.9957  0.0082 -1.2406
  218MOL0     H29419   8.800   0.028  10.357 -2.9927 -0.6986 -1.3193
  218MOL0     H29420   8.569   0.072  10.298  0.1289 -1.5826  1.4229
  218MOL0     H29421   8.647   0.219  10.316 -2.1618  0.3977 -1.8083
  218MOL0     H29422   8.541   0.266  10.520  2.0116 -1.6635 -0.3926
  218MOL0     H29423   8.478   0.101  10.543  2.9293  1.4692  3.0664
  218MOL0     H29424   8.331   0.295  10.464  1.2184  0.4116  1.1696
  218MOL0     H29425   8.418   0.280  10.303  0.3975  0.2602  0.5706
  218MOL0     H29426   8.132  -0.042  10.318  0.0298 -0.0393  0.8594
  218MOL0     H29427   8.874   0.198  10.279  0.9237 -1.1013  1.6046
  218MOL0     H29428   9.011   0.285  10.124  0.8573 -1.3754  1.3553
  218MOL0     H29429   9.014   0.468  10.133  2.5134  0.7229  1.0841
  218MOL0     H29430   9.153   0.387  10.163 -0.5330  0.7448 -1.7156
  219MOL0     O29431   8.249   4.031   9.009  0.2056 -0.3152  0.5460
  219MOL0     C29432   8.251   3.925   9.067 -0.3194 -0.4290 -0.2014
  219MOL0     O29433   8.299   3.821   9.023 -0.2609 -0.0824  0.3764
  219MOL0     C29434   8.305   3.797   8.892  0.0272  0.0734 -0.2805
  219MOL0     C29435   8.194   3.764   8.810 -0.3695 -0.6448 -0.5278
  219MOL0     C29436   8.209   3.732   8.676  0.0419  0.0322 -0.6987
  219MOL0     C29437   8.334   3.749   8.613 -0.2754 -0.8618 -1.1998
  219MOL0     O29438   8.329   3.742   8.477  0.4102  0.3448 -0.1379
  219MOL0     C29439   8.445   3.732   8.393 -0.4330 -0.3205  0.6521
  219MOL0     C29440   8.498   3.597   8.417 -0.5541  0.1334  0.1906
  219MOL0     C29441   8.619   3.567   8.324  0.1008  0.0493 -0.1713
  219MOL0     C29442   8.597   3.593   8.172 -0.3355  0.1791  0.2791
  219MOL0     C29443   8.709   3.524   8.080  0.6795  0.0359  1.0158
  219MOL0     C29444   8.664   3.531   7.931  0.7080  0.4164  0.2293
  219MOL0     C29445   8.740   3.463   7.816 -0.2348 -0.1094  0.0600
  219MOL0     C29446   8.883   3.515   7.806 -0.5366  0.5853  0.6002
  219MOL0     N29447   8.926   3.489   7.669  0.2083 -0.0134  0.8769
  219MOL0     C29448   8.990   3.374   7.627 -0.2557 -0.2136  0.4043
  219MOL0     C29449   8.983   3.358   7.492  0.0625  0.0065  0.2683
  219MOL0     C29450   9.021   3.253   7.401 -0.2649  0.1932 -0.1997
  219MOL0     C29451   9.063   3.306   7.264  1.3471 -0.2022 -1.0954
  219MOL0     C29452   9.113   3.203   7.167 -0.9960  0.1902 -0.7909
  219MOL0     C29453   9.176   3.259   7.044 -0.2646 -0.5406  1.2455
  219MOL0     O29454   9.304   3.329   7.056 -0.8022  0.8151  0.2389
  219MOL0     C29455   9.354   3.391   6.951  0.1297 -0.1569 -0.1574
  219MOL0     C29456   9.438   3.506   6.973  0.6112 -0.4493 -1.1337
  219MOL0     C29457   9.492   3.573   6.868 -1.0466 -0.4968  0.0877
  219MOL0     C29458   9.465   3.543   6.733 -0.3999 -0.5428 -0.9123
  219MOL0     C29459   9.500   3.635   6.620 -0.6561  0.2448  0.3987
  219MOL0     O29460   9.540   3.560   6.508  0.4784  0.2649  0.8620
  219MOL0     C29461   9.560   3.608   6.381 -1.0303 -0.0265  0.9190
  219MOL0     C29462   9.545   3.739   6.340  0.3971  0.1083 -1.4706
  219MOL0     C29463   9.579   3.785   6.214 -0.8296  0.3470  0.8227
  219MOL0     C29464   9.635   3.696   6.117  0.0948 -0.3824 -0.4033
  219MOL0     O29465   9.669   3.719   5.985  0.3119  0.4106 -0.4365
  219MOL0     C29466   9.680   3.845   5.945  0.2942 -0.5036  0.4652
  219MOL0     C29467   9.552   3.872   5.867  0.3613  0.3651 -1.2692
  219MOL0     C29468   9.534   4.013   5.800  0.4174 -0.2963 -0.2909
  219MOL0     C29469   9.634   4.007   5.682 -0.4693 -0.0411 -0.6245
  219MOL0     C29470   9.653   4.139   5.604  0.2606  0.5653 -0.3727
  219MOL0     C29471   9.697   4.109   5.455  0.2727 -0.2738 -0.8079
  219MOL0     C29472   9.734   4.242   5.380 -0.0629  0.6891 -0.4334
  219MOL0     C29473   9.745   4.225   5.225 -0.4277 -0.6780 -0.3692
  219MOL0    Cl29474   9.847   4.080   5.197  0.1761 -0.3820 -0.2820
  219MOL0     C29475   9.653   3.562   6.154 -0.0590 -1.1103  0.0036
  219MOL0     C29476   9.615   3.516   6.289  0.0091 -0.0373  0.2429
  219MOL0     O29477   9.498   3.759   6.629 -0.7563 -0.1492  0.4977
  219MOL0     C29478   9.391   3.434   6.713  0.1776  0.2529  0.2684
  219MOL0     C29479   9.331   3.352   6.815  0.5572 -0.5545 -1.0418
  219MOL0     N29480   8.930   3.475   7.451  0.4848  0.0409  0.0814
  219MOL0     N29481   8.897   3.554   7.557  0.2011 -0.2472 -0.9633
  219MOL0     C29482   8.445   3.777   8.682  0.3139 -0.2231 -1.6893
  219MOL0     C29483   8.428   3.791   8.827 -0.1982 -0.4302 -0.2902
  219MOL0     C29484   8.199   3.909   9.203  0.4575  0.5331 -0.6336
  219MOL0     C29485   8.196   4.019   9.296 -0.4844 -0.0041 -0.1615
  219MOL0     C29486   8.156   4.011   9.435  0.2026 -0.0329  0.2283
  219MOL0     C29487   8.108   3.887   9.487  0.6390 -0.5217  0.4244
  219MOL0     O29488   8.083   3.888   9.619 -0.0023  0.8876 -0.6786
  219MOL0     C29489   7.960   3.828   9.664  0.2745  0.0223 -0.3556
  219MOL0     C29490   7.832   3.904   9.640  0.2577 -0.1895  1.0639
  219MOL0     C29491   7.732   3.931   9.757 -0.2307 -0.8918  0.8537
  219MOL0     C29492   7.679   3.819   9.856  0.4168  0.4944  0.2514
  219MOL0     C29493   7.556   3.869   9.928  0.1085 -0.1451 -0.9308
  219MOL0     C29494   7.472   3.931   9.994  0.0873  0.2972  0.1268
  219MOL0     C29495   8.105   3.777   9.400  1.2603 -1.0981 -0.3700
  219MOL0     C29496   8.146   3.791   9.268 -0.2007  0.9777 -0.0599
  219MOL0     C29497   8.126   3.657   9.194 -0.4996  0.0736 -0.3175
  219MOL0     H29498   8.095   3.757   8.854 -0.3531  0.6869 -0.2282
  219MOL0     H29499   8.132   3.685   8.617 -0.9156  0.3387  0.2646
  219MOL0     H29500   8.418   3.730   8.288  0.4545 -0.2312  0.4162
  219MOL0     H29501   8.521   3.809   8.401 -0.5365  0.0611 -1.5912
  219MOL0     H29502   8.415   3.527   8.402 -1.6424  1.2472  0.8411
  219MOL0     H29503   8.521   3.590   8.524  1.1562 -1.7013 -0.2318
  219MOL0     H29504   8.629   3.458   8.328 -2.9583 -0.3603 -0.9586
  219MOL0     H29505   8.709   3.624   8.349  2.1666 -1.6321 -3.1744
  219MOL0     H29506   8.497   3.574   8.130  0.4055  2.8011 -3.2237
  219MOL0     H29507   8.610   3.701   8.157 -0.3414  0.2689  0.9194
  219MOL0     H29508   8.812   3.562   8.077  1.1248 -1.0539 -3.2591
  219MOL0     H29509   8.704   3.416   8.102 -1.2756 -0.2189 -0.4555
  219MOL0     H29510   8.563   3.492   7.917  1.5960 -2.0820  0.3258
  219MOL0     H29511   8.667   3.639   7.909  1.9230 -0.0381 -2.2598
  219MOL0     H29512   8.692   3.502   7.725  0.4613  1.1297  0.1936
  219MOL0     H29513   8.745   3.354   7.808  1.8712 -0.6939  5.3423
  219MOL0     H29514   8.902   3.620   7.829  0.9889  1.0633 -2.4148
  219MOL0     H29515   8.942   3.452   7.874  1.1537  1.1926 -0.2492
  219MOL0     H29516   9.043   3.303   7.689 -0.9959 -0.3855  0.8590
  219MOL0     H29517   9.104   3.196   7.444 -1.6233 -0.4393  1.7650
  219MOL0     H29518   8.940   3.179   7.395  2.7702 -3.8051  2.4674
  219MOL0     H29519   8.978   3.344   7.206 -0.8688 -2.0119  0.7440
  219MOL0     H29520   9.145   3.377   7.281  0.3286  0.7186  0.2121
  219MOL0     H29521   9.033   3.130   7.151 -0.7119 -0.4720  0.6509
  219MOL0     H29522   9.199   3.160   7.220  0.8051  2.8948 -1.2925
  219MOL0     H29523   9.105   3.314   6.981 -0.6206 -1.8665  0.4422
  219MOL0     H29524   9.182   3.170   6.980  2.4752  1.4924 -1.6775
  219MOL0     H29525   9.461   3.532   7.076  0.8778  3.2154 -1.9793
  219MOL0     H29526   9.544   3.667   6.883 -0.1058 -0.2790 -3.5278
  219MOL0     H29527   9.496   3.805   6.410  2.5197 -3.1417  3.6824
  219MOL0     H29528   9.545   3.883   6.184 -1.1169 -0.0578 -0.2163
  219MOL0     H29529   9.689   3.919   6.026 -0.3139  1.2190 -0.9864
  219MOL0     H29530   9.771   3.837   5.886 -0.5469 -1.5892 -0.7243
  219MOL0     H29531   9.557   3.794   5.790 -2.8512 -3.3195  1.8354
  219MOL0     H29532   9.469   3.856   5.937  1.4686  1.7301  0.4448
  219MOL0     H29533   9.429   4.028   5.772  0.4686 -2.2613 -1.7680
  219MOL0     H29534   9.555   4.105   5.856  0.5885  0.5947 -1.7492
  219MOL0     H29535   9.592   3.944   5.604 -0.4467 -1.2986  0.3469
  219MOL0     H29536   9.734   3.971   5.710  0.8852  2.7440 -1.5182
  219MOL0     H29537   9.730   4.203   5.647 -0.0519  0.3171  0.5667
  219MOL0     H29538   9.562   4.201   5.609 -0.7581 -0.8228  5.5071
  219MOL0     H29539   9.785   4.045   5.461  0.5410  0.0303 -1.4852
  219MOL0     H29540   9.621   4.056   5.396 -1.5754  1.0419  0.2686
  219MOL0     H29541   9.829   4.289   5.404  1.4529 -1.1822 -2.3441
  219MOL0     H29542   9.645   4.304   5.395 -0.2914 -0.0318  1.4547
  219MOL0     H29543   9.650   4.203   5.176 -0.0831 -3.4327  0.0399
  219MOL0     H29544   9.783   4.316   5.178 -2.4556  0.4140 -0.0047
  219MOL0     H29545   9.695   3.495   6.081 -0.2996  1.3530 -2.5483
  219MOL0     H29546   9.647   3.414   6.305  0.4321 -0.3851 -2.3227
  219MOL0     H29547   9.364   3.412   6.610  0.4952  3.7806 -0.6862
  219MOL0     H29548   9.259   3.273   6.802 -4.0967  3.1051 -0.3323
  219MOL0     H29549   8.546   3.775   8.642  0.3718 -0.3456 -1.5357
  219MOL0     H29550   8.512   3.817   8.891 -3.9713  0.3823  5.0042
  219MOL0     H29551   8.224   4.116   9.257  1.0408  1.6578  4.5096
  219MOL0     H29552   8.154   4.097   9.500 -0.7083 -0.9268  1.4385
  219MOL0     H29553   7.949   3.819   9.773 -1.1542  1.7705 -0.2920
  219MOL0     H29554   7.948   3.733   9.612  1.8265 -0.9267  0.9388
  219MOL0     H29555   7.777   3.843   9.567 -1.5813  3.3847 -0.7558
  219MOL0     H29556   7.859   3.993   9.583 -0.1041 -1.2236 -0.8390
  219MOL0     H29557   7.647   3.976   9.706  1.2472 -1.6643 -2.5961
  219MOL0     H29558   7.796   4.007   9.804  1.1382 -0.3360 -1.7333
  219MOL0     H29559   7.635   3.733   9.807  0.6483  0.0923  0.7367
  219MOL0     H29560   7.752   3.780   9.928  0.7918  1.0816  0.2014
  219MOL0     H29561   7.395   3.976  10.055 -0.1496 -2.0342  1.6874
  219MOL0     H29562   8.047   3.693   9.438 -1.0089  1.3954  2.1533
  219MOL0     H29563   8.216   3.595   9.196  0.0371  0.8352  1.4470
  219MOL0     H29564   8.053   3.595   9.247  2.5709 -2.1847  1.5953
  219MOL0     H29565   8.099   3.658   9.088  2.5406 -2.3957 -1.2687
  220MOL0     O29566   3.234   5.972   3.545 -0.3298  0.0398  0.8974
  220MOL0     C29567   3.120   5.997   3.508 -0.5557 -0.1084 -0.4269
  220MOL0     O29568   3.087   6.093   3.427  0.1321 -1.6487  0.0918
  220MOL0     C29569   3.193   6.192   3.407  1.7454  1.0704 -0.5159
  220MOL0     C29570   3.298   6.162   3.312  0.3690 -0.1115  0.5548
  220MOL0     C29571   3.421   6.238   3.311  0.3070  0.1021  0.0490
  220MOL0     C29572   3.423   6.349   3.390 -1.3079  0.0998  0.3443
  220MOL0     O29573   3.525   6.447   3.391 -0.5709 -0.2573 -0.6624
  220MOL0     C29574   3.625   6.474   3.295 -0.1083 -0.5272  0.4371
  220MOL0     C29575   3.757   6.476   3.368  0.5275 -0.6367 -0.4532
  220MOL0     C29576   3.836   6.602   3.308 -0.4756  0.3683 -0.0884
  220MOL0     C29577   3.823   6.724   3.387  0.3471  0.2221  0.2856
  220MOL0     C29578   3.898   6.835   3.321 -0.5825 -0.7896  0.6989
  220MOL0     C29579   4.058   6.826   3.345  0.0033  0.5554 -0.5849
  220MOL0     C29580   4.117   6.958   3.287 -0.5583  0.1531 -0.1275
  220MOL0     C29581   4.254   6.979   3.344  0.9717 -0.0453 -0.8033
  220MOL0     N29582   4.333   7.078   3.276 -0.3528  0.3836 -0.3171
  220MOL0     C29583   4.397   7.074   3.159 -0.1135  1.4878 -0.6615
  220MOL0     C29584   4.474   7.184   3.155  0.4241 -0.3667  0.4797
  220MOL0     C29585   4.570   7.227   3.041  0.3726  0.0073 -0.5733
  220MOL0     C29586   4.586   7.381   3.043  0.1287  1.5873 -1.1165
  220MOL0     C29587   4.656   7.429   2.921  0.4569  1.2536 -0.7439
  220MOL0     C29588   4.645   7.567   2.870  0.4586 -0.4461 -0.0856
  220MOL0     O29589   4.503   7.591   2.830 -0.3616  0.3886  0.6046
  220MOL0     C29590   4.464   7.709   2.788 -0.1520 -0.8706 -0.3566
  220MOL0     C29591   4.327   7.738   2.786 -0.8785 -0.0145  0.0711
  220MOL0     C29592   4.291   7.857   2.728  0.4704 -0.4594 -0.1486
  220MOL0     C29593   4.381   7.954   2.693 -0.3499 -0.4719 -0.5366
  220MOL0     C29594   4.335   8.082   2.637 -1.1869 -0.0400  0.2026
  220MOL0     O29595   4.428   8.174   2.589 -0.8461  1.3265  0.1093
  220MOL0     C29596   4.388   8.301   2.551  0.9676  0.7969 -0.6297
  220MOL0     C29597   4.471   8.359   2.457 -0.6327 -0.4938 -0.0500
  220MOL0     C29598   4.449   8.494   2.434 -0.8138 -0.4866 -0.8914
  220MOL0     C29599   4.345   8.565   2.489 -0.3383 -0.5035 -0.1189
  220MOL0     O29600   4.314   8.694   2.458  0.4915  0.9683  0.8896
  220MOL0     C29601   4.420   8.770   2.405 -0.0323  0.0831 -0.4244
  220MOL0     C29602   4.359   8.909   2.396 -0.0682 -0.3062 -0.3445
  220MOL0     C29603   4.464   9.011   2.362  0.0521 -0.7930  0.2184
  220MOL0     C29604   4.414   9.151   2.337  0.4547  0.4481 -0.7612
  220MOL0     C29605   4.309   9.178   2.223 -0.4014  0.8480 -0.5558
  220MOL0     C29606   4.247   9.319   2.217  0.1659  0.0916  1.0748
  220MOL0     C29607   4.146   9.353   2.333 -0.3791 -1.0273  0.0907
  220MOL0     C29608   4.114   9.508   2.338  0.8838 -0.1012  0.0907
  220MOL0    Cl29609   4.265   9.611   2.354  0.6135 -0.3113 -0.1815
  220MOL0     C29610   4.259   8.504   2.574 -0.1015  0.8310 -0.5657
  220MOL0     C29611   4.282   8.372   2.613  1.2833  0.4237 -0.3266
  220MOL0     O29612   4.212   8.098   2.624  0.0055  0.6709  0.3835
  220MOL0     C29613   4.516   7.934   2.691 -1.1144 -0.2133 -0.5329
  220MOL0     C29614   4.558   7.802   2.739 -0.3993  0.4861 -0.1678
  220MOL0     N29615   4.443   7.266   3.268 -0.3709  0.3984 -0.6519
  220MOL0     N29616   4.348   7.202   3.323 -0.0645 -0.8515  0.7959
  220MOL0     C29617   3.321   6.376   3.484 -0.1542 -0.6809  0.9442
  220MOL0     C29618   3.202   6.305   3.483 -0.3141 -0.8098 -0.6855
  220MOL0     C29619   3.019   5.897   3.541  0.4394 -0.4965  1.0665
  220MOL0     C29620   2.904   5.865   3.456 -0.4576  0.0675  0.3112
  220MOL0     C29621   2.807   5.760   3.470  0.0780  0.2282 -0.2670
  220MOL0     C29622   2.821   5.685   3.587 -0.2285  0.1780 -0.5874
  220MOL0     O29623   2.733   5.583   3.624 -0.7168 -0.3498  0.7727
  220MOL0     C29624   2.788   5.453   3.654 -0.0956 -0.9282  0.4801
  220MOL0     C29625   2.847   5.428   3.794  0.0176  0.8809 -0.2006
  220MOL0     C29626   2.848   5.281   3.846 -0.5972 -0.3595  0.1893
  220MOL0     C29627   2.958   5.204   3.760  0.9374 -0.6409 -0.3840
  220MOL0     C29628   3.058   5.150   3.847 -0.4482  0.1458 -0.1840
  220MOL0     C29629   3.147   5.122   3.925 -0.5638  0.3040  1.4291
  220MOL0     C29630   2.919   5.718   3.675 -0.4476  0.0814  0.3993
  220MOL0     C29631   3.019   5.815   3.657 -0.7538 -0.2176 -0.9898
  220MOL0     C29632   3.109   5.829   3.778  0.7049  0.3615  0.4577
  220MOL0     H29633   3.298   6.073   3.250 -1.7980 -0.8549  1.5256
  220MOL0     H29634   3.504   6.214   3.245 -0.7555  1.3789 -1.8339
  220MOL0     H29635   3.629   6.405   3.210  1.9239 -1.0008  0.8915
  220MOL0     H29636   3.608   6.571   3.245  0.0433 -1.8092 -2.2921
  220MOL0     H29637   3.814   6.386   3.342 -0.4886 -1.2403 -0.6802
  220MOL0     H29638   3.735   6.481   3.474  3.7364 -0.1162  0.2936
  220MOL0     H29639   3.814   6.616   3.202 -2.2104 -1.0981  0.0222
  220MOL0     H29640   3.940   6.569   3.312 -1.1817 -1.9954  1.0340
  220MOL0     H29641   3.719   6.759   3.396  0.6146  1.3707 -0.7085
  220MOL0     H29642   3.860   6.701   3.487  0.6328 -2.6009 -0.3894
  220MOL0     H29643   3.867   6.843   3.217 -0.1026  6.0933  0.6242
  220MOL0     H29644   3.872   6.929   3.370  1.7714  0.3064 -0.0047
  220MOL0     H29645   4.066   6.823   3.454 -0.6042  2.4481 -0.4446
  220MOL0     H29646   4.097   6.732   3.304  0.7077 -0.2383  1.7196
  220MOL0     H29647   4.054   7.043   3.313  0.4286  0.9862 -0.4156
  220MOL0     H29648   4.128   6.950   3.178  2.7280 -0.9010  0.1750
  220MOL0     H29649   4.240   7.020   3.445  2.7251 -1.9503  0.2932
  220MOL0     H29650   4.305   6.882   3.352  0.1871 -0.5075 -1.3797
  220MOL0     H29651   4.385   7.000   3.081 -1.7441 -1.2292  1.9547
  220MOL0     H29652   4.669   7.181   3.047  0.5601  0.2367 -1.6993
  220MOL0     H29653   4.527   7.206   2.943  0.5251  1.0892 -0.8878
  220MOL0     H29654   4.485   7.421   3.052 -0.8035 -0.6852 -0.8054
  220MOL0     H29655   4.644   7.407   3.133 -0.4958 -2.2595  0.5856
  220MOL0     H29656   4.641   7.364   2.834 -0.5080 -1.8494  1.5824
  220MOL0     H29657   4.761   7.408   2.944 -0.9801 -2.6097  3.5803
  220MOL0     H29658   4.711   7.580   2.784  1.1342 -3.9801 -0.2773
  220MOL0     H29659   4.670   7.636   2.951  1.5037 -0.1844 -0.6218
  220MOL0     H29660   4.255   7.664   2.820 -1.3913  0.4647  0.0432
  220MOL0     H29661   4.187   7.884   2.714  1.0151  1.1852 -1.4991
  220MOL0     H29662   4.545   8.303   2.400 -1.8764 -2.7728  0.4646
  220MOL0     H29663   4.517   8.534   2.359 -0.3181 -5.0491 -3.2359
  220MOL0     H29664   4.500   8.759   2.478 -1.5991 -0.5601  1.2724
  220MOL0     H29665   4.463   8.731   2.312 -2.2285 -2.6577 -0.4273
  220MOL0     H29666   4.270   8.903   2.333 -2.6346 -0.7256  2.9957
  220MOL0     H29667   4.318   8.939   2.493 -0.0454  2.4264 -1.1013
  220MOL0     H29668   4.542   9.010   2.439  0.2919 -3.3513  0.0254
  220MOL0     H29669   4.519   8.990   2.270  2.1297  2.3135  0.6004
  220MOL0     H29670   4.503   9.215   2.331  3.0212 -2.3435  3.0029
  220MOL0     H29671   4.361   9.167   2.431 -0.0751 -0.3784 -0.9103
  220MOL0     H29672   4.228   9.105   2.232 -1.1276  1.4973 -1.5559
  220MOL0     H29673   4.366   9.143   2.137 -1.4241  1.2203 -1.4085
  220MOL0     H29674   4.332   9.387   2.226  0.1910  0.8711 -3.2233
  220MOL0     H29675   4.205   9.320   2.116  2.9377  1.6792 -0.1813
  220MOL0     H29676   4.208   9.336   2.422 -0.2526  1.1940  0.4728
  220MOL0     H29677   4.052   9.296   2.341 -2.8881  2.7244  0.0468
  220MOL0     H29678   4.069   9.545   2.246  0.4731  1.1154  0.7633
  220MOL0     H29679   4.050   9.535   2.422 -0.7523  0.9823 -1.4442
  220MOL0     H29680   4.180   8.544   2.636  1.2551 -1.5176  3.0037
  220MOL0     H29681   4.227   8.318   2.690 -2.6656  1.5101 -2.0959
  220MOL0     H29682   4.579   8.015   2.655 -3.0807  0.9657 -1.4763
  220MOL0     H29683   4.664   7.790   2.719 -0.1209 -3.5226  2.4160
  220MOL0     H29684   3.324   6.468   3.541  2.7172  2.6747 -3.9228
  220MOL0     H29685   3.138   6.313   3.571 -0.7260  0.0412 -1.0574
  220MOL0     H29686   2.899   5.912   3.358 -0.1210  0.6142  0.5527
  220MOL0     H29687   2.728   5.739   3.398  0.8683  0.2855 -1.1726
  220MOL0     H29688   2.866   5.425   3.582 -0.4462  1.6586 -1.0390
  220MOL0     H29689   2.703   5.387   3.631  0.7550 -2.0323  0.3902
  220MOL0     H29690   2.799   5.494   3.866  3.4287  1.3996  1.8247
  220MOL0     H29691   2.954   5.448   3.805  0.8863 -1.9679 -2.1457
  220MOL0     H29692   2.758   5.229   3.812  1.5097 -4.1796 -0.1054
  220MOL0     H29693   2.863   5.264   3.953  1.2191 -0.8434 -0.1074
  220MOL0     H29694   2.913   5.131   3.692 -0.0787  1.7156 -2.4010
  220MOL0     H29695   3.009   5.280   3.699 -2.0136  0.9835 -1.0081
  220MOL0     H29696   3.237   5.098   3.978  1.8845  4.2002 -0.4987
  220MOL0     H29697   2.927   5.666   3.770 -1.0794 -1.2543 -0.2476
  220MOL0     H29698   3.207   5.869   3.750  0.6320 -1.1249 -2.2904
  220MOL0     H29699   3.067   5.902   3.847 -0.3075  3.5041 -3.1260
  220MOL0     H29700   3.139   5.733   3.820 -1.1267  0.1768  1.4269
  221MOL0     O29701   8.478   4.573   3.332  0.5091  0.3062  0.5079
  221MOL0     C29702   8.419   4.646   3.251 -0.9100  0.2331  0.5400
  221MOL0     O29703   8.284   4.642   3.223 -0.2204  0.3632 -0.9113
  221MOL0     C29704   8.191   4.571   3.305 -0.1362 -0.7813 -0.4582
  221MOL0     C29705   8.211   4.532   3.437  0.0066  0.1201  0.7298
  221MOL0     C29706   8.112   4.460   3.498 -0.9222  1.0218 -0.2421
  221MOL0     C29707   7.998   4.405   3.435  0.4736 -0.3940 -0.2613
  221MOL0     O29708   7.903   4.318   3.490 -0.6171 -0.3900 -0.7394
  221MOL0     C29709   7.876   4.335   3.625  0.0709  0.7307 -0.4724
  221MOL0     C29710   7.772   4.231   3.679 -0.1990  1.0062 -0.1281
  221MOL0     C29711   7.638   4.271   3.619  0.1269  0.1452  0.2697
  221MOL0     C29712   7.538   4.305   3.725 -0.0910 -0.5358  0.1246
  221MOL0     C29713   7.424   4.377   3.659  0.6367 -0.6127  0.4107
  221MOL0     C29714   7.320   4.425   3.764  0.1323 -0.5120 -0.5180
  221MOL0     C29715   7.235   4.306   3.787  0.1441 -0.7549  0.3247
  221MOL0     C29716   7.123   4.346   3.890 -0.6237  0.1230  0.5255
  221MOL0     N29717   7.082   4.223   3.951 -0.8333  0.6945 -0.6670
  221MOL0     C29718   7.047   4.113   3.881  1.4971  0.0226  0.3749
  221MOL0     C29719   7.049   4.009   3.971 -0.3008 -0.1752  0.2340
  221MOL0     C29720   7.023   3.869   3.927  0.6251 -0.6731  0.2158
  221MOL0     C29721   7.151   3.780   3.912  0.5189  0.2478 -0.1145
  221MOL0     C29722   7.260   3.832   3.821 -0.3061 -0.1475  0.0704
  221MOL0     C29723   7.232   3.800   3.676  0.3581  0.1743 -0.4152
  221MOL0     O29724   7.312   3.879   3.582  0.2955  0.0061  0.3174
  221MOL0     C29725   7.446   3.857   3.562  0.4750 -0.2372  0.3773
  221MOL0     C29726   7.525   3.949   3.485  0.1819 -0.0222 -0.0313
  221MOL0     C29727   7.664   3.944   3.486  0.1650  1.1959 -0.4464
  221MOL0     C29728   7.732   3.834   3.550 -0.1137  0.3608 -0.0554
  221MOL0     C29729   7.885   3.835   3.540  0.3950 -0.2286 -0.3519
  221MOL0     O29730   7.958   3.934   3.476  0.4057 -0.2202  0.3049
  221MOL0     C29731   8.094   3.934   3.471  0.2227 -0.0090  0.6255
  221MOL0     C29732   8.180   3.829   3.471 -0.3349  0.4111 -0.8437
  221MOL0     C29733   8.321   3.851   3.449  0.8195  0.3150 -0.1592
  221MOL0     C29734   8.379   3.974   3.438 -0.0698 -0.1708  0.2835
  221MOL0     O29735   8.510   4.001   3.426  0.7793  0.3556 -0.2457
  221MOL0     C29736   8.596   3.924   3.331  0.1926 -0.0762 -0.3880
  221MOL0     C29737   8.664   3.788   3.375 -0.3205  0.9343 -0.2387
  221MOL0     C29738   8.683   3.767   3.532 -0.4678 -0.3577 -0.0195
  221MOL0     C29739   8.773   3.882   3.582  0.2181  0.1285  0.2108
  221MOL0     C29740   8.763   3.890   3.734  0.5145 -0.6191  0.1333
  221MOL0     C29741   8.863   3.807   3.812  1.0580  0.2365 -0.0031
  221MOL0     C29742   8.835   3.806   3.962  0.7191 -0.3143 -0.4481
  221MOL0     C29743   8.929   3.708   4.024 -0.2618 -0.0859 -0.6541
  221MOL0    Cl29744   8.855   3.697   4.188 -0.1616 -0.3447  0.0664
  221MOL0     C29745   8.290   4.081   3.448  1.4287  0.3042 -0.1894
  221MOL0     C29746   8.151   4.060   3.453  0.1387 -0.1228 -0.7118
  221MOL0     O29747   7.931   3.747   3.605  0.5826 -0.2713 -1.6151
  221MOL0     C29748   7.655   3.737   3.613 -0.1409  0.1373  0.3935
  221MOL0     C29749   7.513   3.745   3.619 -0.3060  0.2377  0.6138
  221MOL0     N29750   7.093   4.058   4.096  1.0156 -0.5112 -0.3252
  221MOL0     N29751   7.112   4.188   4.078  0.3246 -0.3742 -0.5590
  221MOL0     C29752   7.986   4.441   3.301  0.4216 -0.1767 -0.2170
  221MOL0     C29753   8.085   4.520   3.228 -0.4570  0.0562 -0.3824
  221MOL0     C29754   8.492   4.749   3.184 -0.1904  0.0962  0.0557
  221MOL0     C29755   8.417   4.865   3.139 -0.0357 -0.1678 -0.0083
  221MOL0     C29756   8.482   4.979   3.077  0.0167  0.4548  0.3429
  221MOL0     C29757   8.608   4.967   3.030  0.8812  0.2658 -0.9566
  221MOL0     O29758   8.662   5.055   2.944  0.2355  0.5306 -0.1093
  221MOL0     C29759   8.715   5.177   2.994 -1.2211 -0.3650 -0.3722
  221MOL0     C29760   8.666   5.289   2.911  0.2472  0.2827  0.0660
  221MOL0     C29761   8.696   5.285   2.762 -0.1454 -0.3961 -0.3668
  221MOL0     C29762   8.652   5.404   2.684  0.6408 -0.9386  0.1390
  221MOL0     C29763   8.687   5.396   2.544 -0.8361 -0.4189  0.1245
  221MOL0     C29764   8.708   5.417   2.422  0.6092 -0.8494 -0.5946
  221MOL0     C29765   8.677   4.848   3.067 -0.6435 -0.5944 -0.1525
  221MOL0     C29766   8.625   4.738   3.133  1.2859 -0.2004 -0.1936
  221MOL0     C29767   8.721   4.630   3.155  0.4099 -0.3653 -0.4810
  221MOL0     H29768   8.291   4.575   3.498  3.0024 -1.9018 -1.4609
  221MOL0     H29769   8.116   4.435   3.604  2.5985 -2.5888 -0.9852
  221MOL0     H29770   7.969   4.326   3.683 -0.6730 -1.7149  0.5005
  221MOL0     H29771   7.818   4.426   3.638 -2.5632 -0.5948 -2.1138
  221MOL0     H29772   7.769   4.241   3.788  0.0281 -2.2967  0.2592
  221MOL0     H29773   7.801   4.129   3.654  0.6188  0.9814  0.8459
  221MOL0     H29774   7.596   4.190   3.560  2.0849 -0.0015 -0.9889
  221MOL0     H29775   7.648   4.341   3.536 -4.3724  1.1371  0.3227
  221MOL0     H29776   7.489   4.220   3.774  0.8545 -0.2512  1.6374
  221MOL0     H29777   7.579   4.371   3.802 -2.4474  1.0808  0.1123
  221MOL0     H29778   7.460   4.468   3.611 -2.6175  0.6271  0.0613
  221MOL0     H29779   7.369   4.324   3.581 -0.3959  0.6618  0.2423
  221MOL0     H29780   7.361   4.468   3.856 -0.1602 -0.0807 -0.5826
  221MOL0     H29781   7.276   4.510   3.711  2.6753  1.1153 -0.1862
  221MOL0     H29782   7.297   4.228   3.832  2.3777  0.6473 -0.1663
  221MOL0     H29783   7.182   4.282   3.693  2.7353 -0.4161 -1.3165
  221MOL0     H29784   7.162   4.408   3.971 -2.3666 -0.7552  2.0958
  221MOL0     H29785   7.042   4.399   3.839  0.1041  0.2750 -0.5095
  221MOL0     H29786   7.023   4.114   3.776 -0.3261  0.0213  0.7541
  221MOL0     H29787   6.947   3.827   3.994 -2.1411 -0.4327 -2.5959
  221MOL0     H29788   6.969   3.858   3.833  1.1694  0.4479 -0.2473
  221MOL0     H29789   7.191   3.774   4.014 -0.4860  0.5188  0.3045
  221MOL0     H29790   7.119   3.677   3.893  1.4584 -0.0944  0.1005
  221MOL0     H29791   7.357   3.788   3.844  1.0416  2.4262 -0.3809
  221MOL0     H29792   7.256   3.941   3.821 -2.3742 -0.0558 -3.6914
  221MOL0     H29793   7.127   3.828   3.666 -0.5609 -1.5499  2.8709
  221MOL0     H29794   7.232   3.694   3.648 -0.1546  0.0436  0.0699
  221MOL0     H29795   7.492   4.043   3.443  1.1894  0.3737  0.0393
  221MOL0     H29796   7.711   4.029   3.438 -1.4736  1.3817 -1.8164
  221MOL0     H29797   8.135   3.731   3.464 -2.6724  1.5106 -2.4090
  221MOL0     H29798   8.393   3.770   3.448  3.3130  2.3663  1.2129
  221MOL0     H29799   8.537   3.905   3.241 -0.6165 -0.3308  0.1893
  221MOL0     H29800   8.675   3.987   3.289  0.5677 -0.2238  0.0776
  221MOL0     H29801   8.596   3.709   3.344 -4.1726  3.1245  1.8619
  221MOL0     H29802   8.764   3.788   3.331  1.7166  3.8525  3.6572
  221MOL0     H29803   8.582   3.775   3.573  0.7977 -2.6160  4.0729
  221MOL0     H29804   8.725   3.669   3.556  0.4118 -0.3650 -1.4758
  221MOL0     H29805   8.757   3.977   3.531  0.1322 -0.3633 -0.6886
  221MOL0     H29806   8.880   3.862   3.573  0.1674 -1.0655  1.7596
  221MOL0     H29807   8.659   3.881   3.769  0.6884 -0.9670  0.5733
  221MOL0     H29808   8.784   3.996   3.752  4.1340 -1.1956  0.0790
  221MOL0     H29809   8.860   3.709   3.764  0.8092  0.2648 -0.0450
  221MOL0     H29810   8.960   3.851   3.787  0.7593  2.2582  2.1293
  221MOL0     H29811   8.728   3.785   3.971  0.6266  0.7513  1.4823
  221MOL0     H29812   8.857   3.900   4.013  1.6514 -1.9974  2.5398
  221MOL0     H29813   8.916   3.609   3.979 -5.4687  0.1383 -0.3304
  221MOL0     H29814   9.037   3.726   4.023 -0.4912  1.3676 -1.8985
  221MOL0     H29815   8.323   4.184   3.435  2.9384 -0.2386 -0.9458
  221MOL0     H29816   8.085   4.145   3.437 -0.3110  0.0857  1.7446
  221MOL0     H29817   7.710   3.661   3.667  2.6330 -0.2211 -2.6509
  221MOL0     H29818   7.458   3.665   3.666 -1.7193  0.6483 -0.2821
  221MOL0     H29819   7.895   4.402   3.256  0.0390 -0.9845  1.1886
  221MOL0     H29820   8.071   4.542   3.123 -1.4923  2.1252  0.1421
  221MOL0     H29821   8.309   4.859   3.153 -0.5766  1.5094 -2.8011
  221MOL0     H29822   8.418   5.062   3.048 -0.1542  0.2139  0.0206
  221MOL0     H29823   8.824   5.181   3.004 -1.2753  1.2569 -0.1609
  221MOL0     H29824   8.692   5.189   3.100  1.8208 -0.6490  0.3940
  221MOL0     H29825   8.704   5.388   2.939  1.0188  0.3627 -1.1725
  221MOL0     H29826   8.558   5.283   2.927  0.1645  0.4314 -0.4225
  221MOL0     H29827   8.647   5.197   2.717 -0.2118 -0.5508  0.0061
  221MOL0     H29828   8.802   5.286   2.735 -0.6539 -0.0697 -2.5893
  221MOL0     H29829   8.545   5.410   2.705  0.2741  1.4752 -1.8622
  221MOL0     H29830   8.696   5.498   2.721  2.6717 -1.7358 -0.1374
  221MOL0     H29831   8.726   5.436   2.318 -1.3561  0.9181 -0.6811
  221MOL0     H29832   8.780   4.852   3.033 -1.3587  0.7126 -2.4341
  221MOL0     H29833   8.674   4.545   3.105 -0.7320 -0.1481  0.1693
  221MOL0     H29834   8.815   4.658   3.107  3.1238 -2.4075  3.1749
  221MOL0     H29835   8.731   4.632   3.264 -0.4939  0.3493 -0.3899
  222MOL0     O29836  10.557   7.262   0.886  1.3884  0.4680 -0.5774
  222MOL0     C29837  10.553   7.201   0.776  0.5152 -0.6016 -0.9192
  222MOL0     O29838  10.626   7.237   0.661 -0.1841 -0.4381  0.9477
  222MOL0     C29839  10.723   7.335   0.674  0.0841 -1.5449 -0.6865
  222MOL0     C29840  10.715   7.449   0.755 -0.0763 -0.1355  0.2834
  222MOL0     C29841  10.826   7.533   0.760 -0.8032  0.9624 -0.5321
  222MOL0     C29842  10.946   7.506   0.690 -0.4186 -1.0011  0.5457
  222MOL0     O29843  11.052   7.595   0.721  0.1090  0.5681 -0.3737
  222MOL0     C29844  11.176   7.604   0.649  0.5804  0.2212  0.0436
  222MOL0     C29845  11.267   7.490   0.689 -0.1221 -0.4232 -0.7860
  222MOL0     C29846  11.378   7.475   0.583 -0.7009 -0.1898  0.5176
  222MOL0     C29847  11.472   7.599   0.591 -0.4126  0.2768 -0.6316
  222MOL0     C29848  11.560   7.603   0.466  0.1917 -0.7326  0.6346
  222MOL0     C29849  11.637   7.742   0.458  0.0971  0.3258 -0.5097
  222MOL0     C29850  11.725   7.763   0.324  0.0330  0.1195  0.3024
  222MOL0     C29851  11.796   7.899   0.327 -0.3829 -0.3875  1.4299
  222MOL0     N29852  11.720   8.007   0.266 -0.3020  0.1147  1.1308
  222MOL0     C29853  11.579   8.009   0.253 -1.0127  0.1411  0.8080
  222MOL0     C29854  11.549   8.131   0.197 -0.9913 -0.2715 -0.0701
  222MOL0     C29855  11.417   8.157   0.153  0.1352  0.5359  0.1538
  222MOL0     C29856  11.390   8.087   0.015  0.2655 -1.4359  0.5877
  222MOL0     C29857  11.359   8.192  -0.092 -0.0703 -0.1462 -1.5086
  222MOL0     C29858  11.276   8.139  -0.212 -1.0099  0.1345  0.9778
  222MOL0     O29859  11.370   8.052  -0.291 -0.5497  1.1932 -0.3050
  222MOL0     C29860  11.303   7.949  -0.352 -0.6754  1.2019 -0.8938
  222MOL0     C29861  11.226   7.962  -0.467  0.2234 -1.0318 -0.4876
  222MOL0     C29862  11.150   7.851  -0.514  0.5752  0.0123 -0.6303
  222MOL0     C29863  11.158   7.721  -0.463  0.1719 -0.9639 -0.1691
  222MOL0     C29864  11.081   7.607  -0.526 -0.0116 -0.8147 -0.4629
  222MOL0     O29865  11.002   7.643  -0.631 -0.0066  0.0457  0.3164
  222MOL0     C29866  10.926   7.548  -0.687  0.7930 -0.2030  0.6186
  222MOL0     C29867  10.893   7.562  -0.824  0.1917  0.2072 -0.5033
  222MOL0     C29868  10.782   7.503  -0.893  0.2109 -0.5163  0.2722
  222MOL0     C29869  10.692   7.428  -0.816 -0.0265 -0.0742  0.4975
  222MOL0     O29870  10.572   7.378  -0.866 -0.5906 -0.8906 -0.1482
  222MOL0     C29871  10.536   7.391  -1.008 -0.1255  0.0690 -0.2620
  222MOL0     C29872  10.403   7.301  -1.037  0.3786  0.0748  0.6887
  222MOL0     C29873  10.428   7.159  -0.997  0.2313 -0.3304 -0.2513
  222MOL0     C29874  10.293   7.084  -0.995 -0.2476 -0.1951 -0.3426
  222MOL0     C29875  10.317   6.957  -0.912  0.9416 -0.0995  0.7304
  222MOL0     C29876  10.182   6.872  -0.940 -0.1194  0.9362 -0.3771
  222MOL0     C29877  10.162   6.816  -1.076 -1.4775 -0.6662  0.1356
  222MOL0     C29878  10.068   6.690  -1.065 -0.3492 -0.2043  0.4295
  222MOL0    Cl29879   9.915   6.710  -0.975  0.3904 -0.1671  0.2306
  222MOL0     C29880  10.717   7.414  -0.674  0.2161 -0.0622 -0.4336
  222MOL0     C29881  10.836   7.459  -0.617  0.8471  0.7193  0.9219
  222MOL0     O29882  11.089   7.493  -0.477  0.3362  0.2356  0.0309
  222MOL0     C29883  11.231   7.705  -0.347  0.1244  0.3824 -0.3444
  222MOL0     C29884  11.295   7.817  -0.289 -1.2380 -0.3781 -0.1083
  222MOL0     N29885  11.671   8.182   0.161  1.2199 -1.3257 -0.2701
  222MOL0     N29886  11.762   8.120   0.208 -0.0481  0.9439 -0.7230
  222MOL0     C29887  10.946   7.396   0.598 -0.4095  0.1640 -0.2635
  222MOL0     C29888  10.833   7.315   0.593 -0.6168 -0.7558  0.1108
  222MOL0     C29889  10.466   7.076   0.774  0.7947 -0.3074  0.0202
  222MOL0     C29890  10.486   6.998   0.660 -0.1981  0.3192 -0.1987
  222MOL0     C29891  10.422   6.875   0.645  0.6058  0.4955 -0.5690
  222MOL0     C29892  10.346   6.824   0.743  0.5234  0.7179 -0.0212
  222MOL0     O29893  10.314   6.688   0.749  0.6916  0.1152  0.2448
  222MOL0     C29894  10.176   6.661   0.775  0.1062  1.3957 -0.4851
  222MOL0     C29895  10.109   6.628   0.645 -0.5766 -0.1133 -0.6137
  222MOL0     C29896   9.961   6.587   0.663 -0.3939  0.2902 -0.8227
  222MOL0     C29897   9.881   6.559   0.530 -1.3186  0.3627 -0.0643
  222MOL0     C29898   9.937   6.453   0.442 -0.1339 -0.1741  0.2933
  222MOL0     C29899   9.990   6.376   0.366  0.2392  0.0661  0.2629
  222MOL0     C29900  10.325   6.900   0.857 -0.0309 -0.2409 -0.0026
  222MOL0     C29901  10.374   7.030   0.873 -0.8134  0.1351 -0.0267
  222MOL0     C29902  10.339   7.108   1.000 -0.0174 -0.2681  0.2017
  222MOL0     H29903  10.624   7.468   0.811 -1.5236  0.0463 -2.0009
  222MOL0     H29904  10.829   7.614   0.832 -0.5906  0.6431 -0.1809
  222MOL0     H29905  11.146   7.615   0.544 -0.6224  0.5192  0.4043
  222MOL0     H29906  11.229   7.695   0.678  3.3241 -1.1114 -0.5647
  222MOL0     H29907  11.208   7.399   0.702 -1.4590  0.6193  1.1390
  222MOL0     H29908  11.312   7.496   0.789 -2.0173  1.8324  0.0359
  222MOL0     H29909  11.336   7.458   0.483  0.1976 -2.3883  0.4442
  222MOL0     H29910  11.438   7.386   0.603  0.3909  0.0554 -1.4319
  222MOL0     H29911  11.413   7.691   0.601 -2.0637 -0.5827 -2.0110
  222MOL0     H29912  11.539   7.590   0.677 -0.4346  1.8902 -0.4133
  222MOL0     H29913  11.638   7.527   0.470  0.3934 -0.6001 -0.3911
  222MOL0     H29914  11.505   7.594   0.371  2.0616 -2.8568 -0.3414
  222MOL0     H29915  11.560   7.818   0.472  0.6445  1.2277 -2.2481
  222MOL0     H29916  11.708   7.755   0.541  0.1996  1.8258 -0.8130
  222MOL0     H29917  11.660   7.760   0.236 -0.3870 -1.6211  0.6426
  222MOL0     H29918  11.799   7.684   0.313 -2.0738 -1.8921 -0.2136
  222MOL0     H29919  11.838   7.914   0.426  3.3903 -1.5857  0.1908
  222MOL0     H29920  11.876   7.897   0.252  0.1172  3.0433  1.7154
  222MOL0     H29921  11.509   7.926   0.250  0.0583 -0.7641  0.2261
  222MOL0     H29922  11.356   8.124   0.237 -0.0761  0.3155 -0.0857
  222MOL0     H29923  11.401   8.265   0.155 -0.4014  0.4754  2.8024
  222MOL0     H29924  11.473   8.027  -0.025 -0.9532 -2.8321  0.0445
  222MOL0     H29925  11.311   8.012   0.026 -0.1003 -0.9183  1.6070
  222MOL0     H29926  11.440   8.255  -0.130  0.5131 -0.0008 -0.0786
  222MOL0     H29927  11.296   8.272  -0.052  0.6932  0.2151 -1.0265
  222MOL0     H29928  11.246   8.223  -0.275 -0.5055  0.2442  0.8795
  222MOL0     H29929  11.182   8.092  -0.182 -1.1232  0.7341  1.5693
  222MOL0     H29930  11.236   8.052  -0.526  3.1912 -0.4574  0.7039
  222MOL0     H29931  11.106   7.849  -0.613 -2.9433 -2.8558  0.7734
  222MOL0     H29932  10.954   7.618  -0.894 -2.7940  0.5694 -2.9872
  222MOL0     H29933  10.763   7.514  -0.999  0.1776  0.5785  0.3740
  222MOL0     H29934  10.511   7.493  -1.038  1.4617  0.3779 -0.6411
  222MOL0     H29935  10.623   7.353  -1.063 -1.5196 -1.6143 -1.4380
  222MOL0     H29936  10.317   7.342  -0.984 -0.9876  1.7030 -2.5184
  222MOL0     H29937  10.377   7.291  -1.143 -1.6151  4.3136  0.5707
  222MOL0     H29938  10.510   7.106  -1.046  2.8707  0.4520  2.9477
  222MOL0     H29939  10.474   7.156  -0.898  2.0360 -1.9793 -1.0860
  222MOL0     H29940  10.256   7.064  -1.096 -1.8283 -0.3639  0.2498
  222MOL0     H29941  10.209   7.129  -0.942  0.2214  0.0563  0.1957
  222MOL0     H29942  10.320   6.979  -0.805  3.2597 -1.3381  0.9805
  222MOL0     H29943  10.409   6.912  -0.952  0.6180  0.6386 -0.9416
  222MOL0     H29944  10.183   6.785  -0.874  2.5937 -0.8675 -2.5714
  222MOL0     H29945  10.097   6.930  -0.903 -1.0268 -1.1208  0.9940
  222MOL0     H29946  10.257   6.769  -1.105 -0.9326 -0.1166  0.9706
  222MOL0     H29947  10.126   6.895  -1.143 -0.7757 -0.8718 -0.5086
  222MOL0     H29948  10.054   6.649  -1.165 -1.4914 -0.4509  0.6730
  222MOL0     H29949  10.112   6.610  -1.005 -0.2529  0.0075  0.6450
  222MOL0     H29950  10.646   7.362  -0.610 -0.5250 -0.7824 -1.7833
  222MOL0     H29951  10.848   7.434  -0.512  3.6691  0.2576  0.5564
  222MOL0     H29952  11.228   7.609  -0.295  2.0503 -1.3423 -3.1037
  222MOL0     H29953  11.344   7.826  -0.193 -2.5351  0.0616  0.5446
  222MOL0     H29954  11.031   7.369   0.535 -0.0998  2.5464 -0.9436
  222MOL0     H29955  10.846   7.225   0.533 -1.6615 -0.7162 -0.1847
  222MOL0     H29956  10.560   7.033   0.588 -0.2953  1.4511  0.2368
  222MOL0     H29957  10.450   6.805   0.567 -2.3906 -2.0844  0.4193
  222MOL0     H29958  10.120   6.739   0.828  0.0543  0.5721  0.6948
  222MOL0     H29959  10.177   6.569   0.833  2.1602  1.8952  0.3773
  222MOL0     H29960  10.170   6.547   0.605  0.2010 -1.1229  2.3618
  222MOL0     H29961  10.127   6.714   0.580  2.2001 -0.9392 -1.0684
  222MOL0     H29962   9.921   6.679   0.708  0.5149 -0.0333  0.7100
  222MOL0     H29963   9.964   6.499   0.727  1.5354 -0.6057 -2.0448
  222MOL0     H29964   9.779   6.527   0.552 -0.8174  0.1665  2.2320
  222MOL0     H29965   9.876   6.658   0.483 -0.1902  0.9076  0.9067
  222MOL0     H29966  10.042   6.307   0.302 -0.1448 -1.3534  1.4271
  222MOL0     H29967  10.267   6.860   0.940 -0.5850 -2.1225 -1.2362
  222MOL0     H29968  10.293   7.204   0.974 -1.1166  0.4128  4.0637
  222MOL0     H29969  10.266   7.048   1.055  0.1144  0.5533  1.3173
  222MOL0     H29970  10.421   7.116   1.072  0.5606 -3.6024  0.0495
  223MOL0     O29971   7.336   4.244   5.271  0.2051 -0.2434 -0.3443
  223MOL0     C29972   7.413   4.200   5.195 -0.0694 -0.1040  0.7044
  223MOL0     O29973   7.537   4.159   5.226 -0.6669 -1.1566 -0.6204
  223MOL0     C29974   7.583   4.166   5.351  0.2912  0.4775  0.0912
  223MOL0     C29975   7.631   4.280   5.418  0.1894 -0.5706  0.5988
  223MOL0     C29976   7.682   4.285   5.544 -0.0694  0.1291 -0.6859
  223MOL0     C29977   7.685   4.173   5.619  0.2050 -0.0001  0.2195
  223MOL0     O29978   7.743   4.190   5.742 -0.4163  0.5919  0.4416
  223MOL0     C29979   7.699   4.106   5.853 -0.1513  0.1412  0.2063
  223MOL0     C29980   7.759   4.155   5.977 -0.1629 -0.4240  0.0980
  223MOL0     C29981   7.910   4.107   5.987  0.8051  0.5235 -0.2666
  223MOL0     C29982   7.967   4.118   6.130 -0.1310 -0.5208 -0.0640
  223MOL0     C29983   7.909   4.237   6.219  0.1690  0.9019 -0.9645
  223MOL0     C29984   7.985   4.258   6.352  0.0491  1.1935 -0.8134
  223MOL0     C29985   8.010   4.127   6.434  0.4656 -0.1708 -0.1115
  223MOL0     C29986   8.084   4.146   6.568  0.2735  0.5638 -0.5433
  223MOL0     N29987   8.060   4.024   6.650  0.0738  0.1566  0.2970
  223MOL0     C29988   8.104   3.896   6.638 -0.7249  0.2693 -0.3455
  223MOL0     C29989   8.030   3.819   6.722 -1.1774  0.2095 -0.5782
  223MOL0     C29990   8.056   3.663   6.756 -0.0175  0.0941 -0.4775
  223MOL0     C29991   8.020   3.583   6.629  1.2863 -0.1202  0.3957
  223MOL0     C29992   7.885   3.595   6.558  0.2469  0.0128 -0.2490
  223MOL0     C29993   7.896   3.518   6.424 -0.4587 -0.2309 -0.4535
  223MOL0     O29994   7.872   3.383   6.448  0.0625  0.2141 -0.0151
  223MOL0     C29995   7.863   3.301   6.340  0.4254 -0.2547 -0.7388
  223MOL0     C29996   7.837   3.164   6.362 -0.3519 -0.4142 -0.3370
  223MOL0     C29997   7.807   3.069   6.259  0.9506  0.7481  0.2159
  223MOL0     C29998   7.816   3.116   6.127  0.3810  0.1881 -0.0662
  223MOL0     C29999   7.805   3.017   6.013  0.1349 -0.3436  0.1682
  223MOL0     O30000   7.815   2.891   6.048  0.7350  0.2563 -0.4721
  223MOL0     C30001   7.768   2.791   5.968 -0.9355 -0.4136 -0.1962
  223MOL0     C30002   7.744   2.675   6.041 -0.4589 -0.0164 -0.3207
  223MOL0     C30003   7.691   2.562   5.976 -0.4805  0.2315  0.9728
  223MOL0     C30004   7.671   2.557   5.836 -0.1219 -1.0147  0.0421
  223MOL0     O30005   7.612   2.452   5.775  0.0255 -0.8301  0.4412
  223MOL0     C30006   7.595   2.334   5.850  0.3195  0.7883  0.5724
  223MOL0     C30007   7.545   2.234   5.751 -0.3971 -0.0926 -0.4328
  223MOL0     C30008   7.551   2.088   5.810  0.3715  0.0307  0.6276
  223MOL0     C30009   7.456   2.003   5.718 -0.2797  0.5372 -0.1746
  223MOL0     C30010   7.434   1.857   5.774  0.2645  1.2542  0.1936
  223MOL0     C30011   7.363   1.777   5.668  0.3175  0.0817 -0.5554
  223MOL0     C30012   7.440   1.750   5.541 -0.7668  0.4929 -0.7443
  223MOL0     C30013   7.368   1.661   5.443  0.1997  0.0514 -0.0072
  223MOL0    Cl30014   7.368   1.502   5.500 -0.3415  0.8428 -0.0358
  223MOL0     C30015   7.710   2.661   5.761  0.7556 -0.8074 -0.1678
  223MOL0     C30016   7.754   2.780   5.828  0.2911 -0.0252  0.8674
  223MOL0     O30017   7.799   3.058   5.887  0.6138  0.5446 -0.1363
  223MOL0     C30018   7.850   3.245   6.106 -0.6167  0.9826 -0.1790
  223MOL0     C30019   7.868   3.336   6.210 -0.3653  0.3630 -0.3756
  223MOL0     N30020   7.948   3.905   6.792 -0.2543  0.1943  0.5530
  223MOL0     N30021   7.960   4.022   6.746  0.1616 -1.1415  0.3504
  223MOL0     C30022   7.653   4.052   5.555  0.0253  1.0160  0.2913
  223MOL0     C30023   7.609   4.044   5.423  1.4616  0.4277 -0.0017
  223MOL0     C30024   7.379   4.194   5.048 -0.2165 -0.0956  1.0908
  223MOL0     C30025   7.474   4.235   4.949  0.0383 -0.2306 -0.9097
  223MOL0     C30026   7.449   4.237   4.807 -0.0889 -0.2967 -1.6283
  223MOL0     C30027   7.328   4.205   4.761 -0.2675  0.7254 -0.3129
  223MOL0     O30028   7.303   4.209   4.624  1.1855 -0.3498 -0.0967
  223MOL0     C30029   7.314   4.086   4.545 -0.7486 -0.2569 -0.0918
  223MOL0     C30030   7.179   4.058   4.484 -0.0906  0.2922 -0.6491
  223MOL0     C30031   7.193   3.925   4.404 -1.0360 -0.4778 -0.4512
  223MOL0     C30032   7.068   3.843   4.394 -1.1271 -0.2878  0.1875
  223MOL0     C30033   7.098   3.724   4.318 -0.4178 -0.0052  0.3511
  223MOL0     C30034   7.125   3.632   4.233  0.2517  0.0671  0.8374
  223MOL0     C30035   7.231   4.165   4.851 -0.1871 -0.0295  0.9480
  223MOL0     C30036   7.249   4.157   4.992  0.3089 -0.4736 -0.3726
  223MOL0     C30037   7.141   4.116   5.088  0.6990 -0.1326 -0.3406
  223MOL0     H30038   7.640   4.371   5.360  0.4049 -1.2733 -0.4947
  223MOL0     H30039   7.712   4.377   5.594 -3.0954  0.1093  1.4032
  223MOL0     H30040   7.590   4.115   5.858 -0.3357 -1.2650 -0.6161
  223MOL0     H30041   7.714   3.998   5.841 -1.7602 -0.1783  0.8145
  223MOL0     H30042   7.704   4.114   6.063 -2.8649  2.7774  0.0972
  223MOL0     H30043   7.747   4.263   5.987 -0.3988 -0.4922  0.6236
  223MOL0     H30044   7.971   4.168   5.919  2.2090  0.0401  0.5224
  223MOL0     H30045   7.915   4.008   5.941  0.5953  1.9175 -3.6161
  223MOL0     H30046   7.950   4.019   6.173  0.6825  0.8996  3.9654
  223MOL0     H30047   8.076   4.131   6.131  0.3428 -3.4505 -1.7219
  223MOL0     H30048   7.920   4.324   6.153  1.1019  1.8554  0.4148
  223MOL0     H30049   7.808   4.204   6.245  0.3196  0.6606 -0.6906
  223MOL0     H30050   8.082   4.304   6.332  2.0020 -1.9253  0.6750
  223MOL0     H30051   7.930   4.332   6.410  2.0825  1.4837  0.8701
  223MOL0     H30052   8.061   4.055   6.370  3.5375  0.6852  1.2148
  223MOL0     H30053   7.908   4.098   6.460  0.8410  1.1088  3.2345
  223MOL0     H30054   8.191   4.143   6.546  0.7035  1.4986  1.3255
  223MOL0     H30055   8.036   4.233   6.612 -0.9894 -0.7392  0.7904
  223MOL0     H30056   8.175   3.853   6.568 -2.6696 -0.8384 -1.7231
  223MOL0     H30057   8.153   3.639   6.800 -1.0861  0.1412  2.0592
  223MOL0     H30058   7.992   3.632   6.839  2.7689 -2.4148  0.9229
  223MOL0     H30059   8.093   3.612   6.553 -0.0655  0.8446 -0.5830
  223MOL0     H30060   8.028   3.478   6.657  0.5457 -0.4346 -0.5456
  223MOL0     H30061   7.857   3.696   6.526  0.6732  1.5950  3.7394
  223MOL0     H30062   7.797   3.569   6.618 -0.4410 -0.3126 -1.3652
  223MOL0     H30063   7.994   3.538   6.380 -1.0816 -0.3920 -1.9665
  223MOL0     H30064   7.809   3.557   6.370 -0.8556  1.1827  1.1165
  223MOL0     H30065   7.833   3.141   6.468 -0.2825  2.2022  0.2948
  223MOL0     H30066   7.796   2.965   6.289 -2.3696  0.7863 -0.4956
  223MOL0     H30067   7.775   2.671   6.145  0.2068  0.0010 -0.5104
  223MOL0     H30068   7.668   2.469   6.027  0.0920 -1.1828 -1.2070
  223MOL0     H30069   7.684   2.290   5.896 -0.2589 -1.4559 -0.3073
  223MOL0     H30070   7.521   2.359   5.927 -2.2146 -0.1354 -1.3787
  223MOL0     H30071   7.439   2.256   5.736 -0.6006 -0.2846  0.6267
  223MOL0     H30072   7.597   2.247   5.656 -2.3001 -0.6961 -1.5993
  223MOL0     H30073   7.651   2.048   5.825  0.7544  0.4544 -0.6366
  223MOL0     H30074   7.504   2.079   5.908 -3.1677 -4.4982 -1.0785
  223MOL0     H30075   7.500   1.995   5.618 -1.0668 -0.3831 -0.4677
  223MOL0     H30076   7.357   2.047   5.702  0.4781  3.7733  2.8827
  223MOL0     H30077   7.358   1.868   5.852 -1.9818  4.3593 -2.2061
  223MOL0     H30078   7.526   1.806   5.803 -1.3509 -1.8006  0.3512
  223MOL0     H30079   7.322   1.684   5.707 -1.1316 -0.4605 -3.1505
  223MOL0     H30080   7.280   1.843   5.642  0.0450  0.5255  1.2760
  223MOL0     H30081   7.538   1.716   5.577 -1.6815  1.8277  3.5575
  223MOL0     H30082   7.454   1.844   5.487  2.2186  0.9086  0.5414
  223MOL0     H30083   7.265   1.696   5.448  0.7726  1.8618 -0.2234
  223MOL0     H30084   7.418   1.664   5.346  3.1030  0.1435  1.3960
  223MOL0     H30085   7.710   2.661   5.652 -0.0446  2.1885 -0.2781
  223MOL0     H30086   7.764   2.867   5.763  0.6533 -2.1398 -2.1411
  223MOL0     H30087   7.870   3.272   6.003 -0.4493  0.3017 -0.3309
  223MOL0     H30088   7.876   3.437   6.171  0.2982  0.1652 -0.7729
  223MOL0     H30089   7.657   3.959   5.610 -0.4643  1.3789  0.9664
  223MOL0     H30090   7.592   3.943   5.387  2.2114 -0.3868  1.7561
  223MOL0     H30091   7.576   4.244   4.987 -0.7558 -0.6483  1.5228
  223MOL0     H30092   7.516   4.277   4.732  0.6226  0.0908 -0.8090
  223MOL0     H30093   7.343   4.009   4.619 -3.4760  0.3460  1.7341
  223MOL0     H30094   7.385   4.080   4.462 -1.2711 -1.5463 -0.4645
  223MOL0     H30095   7.151   4.144   4.423 -2.9836 -1.0390 -1.3631
  223MOL0     H30096   7.097   4.033   4.551 -0.2259 -2.3023 -1.6606
  223MOL0     H30097   7.283   3.881   4.446 -0.4212  1.3577  0.2279
  223MOL0     H30098   7.233   3.962   4.309  2.5221 -0.9427  0.7485
  223MOL0     H30099   7.041   3.811   4.496  0.8911 -1.9978  0.2583
  223MOL0     H30100   6.981   3.885   4.343 -0.0188  0.3186 -1.2284
  223MOL0     H30101   7.150   3.548   4.172 -3.7407 -0.4314 -0.3680
  223MOL0     H30102   7.138   4.135   4.804 -0.8491 -0.8437  2.7152
  223MOL0     H30103   7.067   4.195   5.101  0.5987 -0.4283  1.0029
  223MOL0     H30104   7.101   4.021   5.052 -2.0459  1.0089 -0.5428
  223MOL0     H30105   7.173   4.099   5.191 -1.0852  0.8624  0.4199
  224MOL0     O30106   7.888   4.866   2.168  0.3437 -0.2564 -0.1596
  224MOL0     C30107   7.971   4.783   2.137 -0.7999  0.3155  0.3238
  224MOL0     O30108   8.107   4.781   2.186  0.6322 -0.3217  0.6843
  224MOL0     C30109   8.145   4.902   2.246  0.4504 -0.2940  0.0873
  224MOL0     C30110   8.104   4.923   2.372 -0.0143 -0.0575  0.1203
  224MOL0     C30111   8.166   5.030   2.440  0.1001 -0.4808 -0.9183
  224MOL0     C30112   8.250   5.122   2.372  0.5804  0.0471 -0.4875
  224MOL0     O30113   8.307   5.216   2.447  0.2256  0.4512  0.2686
  224MOL0     C30114   8.297   5.349   2.390  0.4829 -0.1154  0.2132
  224MOL0     C30115   8.150   5.388   2.409 -0.5969 -0.6123 -0.5741
  224MOL0     C30116   8.108   5.530   2.361 -0.6262  0.9420  0.3327
  224MOL0     C30117   8.154   5.619   2.474  0.1808 -0.0762 -0.1186
  224MOL0     C30118   8.120   5.764   2.432  0.0968  0.4298 -0.8459
  224MOL0     C30119   8.211   5.811   2.322 -0.0172  0.5502  1.1572
  224MOL0     C30120   8.239   5.961   2.334 -0.2461  0.1884  0.4106
  224MOL0     C30121   8.119   6.052   2.303 -0.1717  0.0208  0.1510
  224MOL0     N30122   8.158   6.189   2.296 -0.7007  1.0762 -0.4352
  224MOL0     C30123   8.208   6.262   2.406  0.2626  0.1207 -0.6010
  224MOL0     C30124   8.218   6.388   2.360  0.8360  0.2024  0.3370
  224MOL0     C30125   8.300   6.493   2.431 -0.0413 -0.5334 -0.5561
  224MOL0     C30126   8.370   6.600   2.348  0.1123  0.2443 -0.4164
  224MOL0     C30127   8.294   6.732   2.360  0.2945 -0.5323  0.3023
  224MOL0     C30128   8.355   6.852   2.288 -0.1876 -0.1759 -0.2740
  224MOL0     O30129   8.335   6.831   2.156 -0.8078  0.2615 -0.5091
  224MOL0     C30130   8.433   6.768   2.074  0.0741  0.8432  1.3768
  224MOL0     C30131   8.571   6.735   2.109  0.3148  0.3983 -0.5323
  224MOL0     C30132   8.654   6.663   2.018  0.8254 -0.5891 -0.3401
  224MOL0     C30133   8.605   6.618   1.901 -0.3713 -0.0694  0.6906
  224MOL0     C30134   8.691   6.545   1.811  0.6379 -0.0044  0.8880
  224MOL0     O30135   8.639   6.516   1.685 -0.5891 -0.8930  0.3737
  224MOL0     C30136   8.704   6.446   1.595  0.1130 -0.5481 -0.0820
  224MOL0     C30137   8.834   6.478   1.563 -0.6706  0.0492  0.0587
  224MOL0     C30138   8.903   6.395   1.460  0.7434 -0.6871 -0.0322
  224MOL0     C30139   8.836   6.285   1.402 -0.1102  1.5680  0.3696
  224MOL0     O30140   8.911   6.220   1.306  1.0510 -0.3291 -0.6361
  224MOL0     C30141   8.851   6.101   1.249  0.1728 -0.6610 -0.0904
  224MOL0     C30142   8.947   6.047   1.153  0.5493  0.7100 -0.5823
  224MOL0     C30143   8.868   5.943   1.072 -0.2417  0.6730  0.5905
  224MOL0     C30144   8.949   5.887   0.953 -0.6132 -0.4284 -0.1317
  224MOL0     C30145   8.872   5.856   0.821  0.1651 -0.0377  1.1831
  224MOL0     C30146   8.955   5.839   0.690 -0.3273  0.1699  0.1001
  224MOL0     C30147   9.012   5.700   0.665  0.7129 -0.0571 -0.9277
  224MOL0     C30148   9.141   5.694   0.569 -0.1847  0.4234  0.4365
  224MOL0    Cl30149   9.162   5.535   0.500 -0.0329 -0.2790  0.6347
  224MOL0     C30150   8.712   6.241   1.458  0.1959 -0.0131 -0.1748
  224MOL0     C30151   8.641   6.325   1.552 -0.8303 -1.3724  0.6895
  224MOL0     O30152   8.797   6.509   1.851 -1.1125  0.3179  0.1208
  224MOL0     C30153   8.467   6.651   1.862 -0.5636  0.6697  0.2910
  224MOL0     C30154   8.384   6.723   1.947 -0.0083  0.7171 -0.9372
  224MOL0     N30155   8.184   6.393   2.227  1.1312  0.0885 -0.3291
  224MOL0     N30156   8.140   6.280   2.193 -0.1340  0.6392 -0.3855
  224MOL0     C30157   8.293   5.097   2.246 -0.3959  0.2078  0.0895
  224MOL0     C30158   8.244   4.981   2.178 -0.0954  0.2594 -0.2001
  224MOL0     C30159   7.931   4.657   2.063 -1.0912 -0.0131  0.0602
  224MOL0     C30160   7.996   4.539   2.105  0.2473 -0.7114  1.2160
  224MOL0     C30161   7.982   4.426   2.036  0.1620 -0.5719  0.5132
  224MOL0     C30162   7.884   4.412   1.946 -0.9543 -0.7949 -0.1466
  224MOL0     O30163   7.888   4.289   1.884  0.2294  0.1519  0.0809
  224MOL0     C30164   7.811   4.273   1.767 -0.3997  0.4780  1.4173
  224MOL0     C30165   7.864   4.142   1.694 -0.4523 -0.9866  0.3864
  224MOL0     C30166   8.007   4.151   1.651  0.7390 -0.7131  0.5082
  224MOL0     C30167   8.055   4.027   1.583 -0.4715  0.5992  0.3691
  224MOL0     C30168   7.991   3.975   1.458 -0.4342  0.0258 -0.9064
  224MOL0     C30169   7.945   3.953   1.347 -0.4225 -0.1085 -0.1367
  224MOL0     C30170   7.802   4.517   1.911  0.0318 -0.2904  0.2616
  224MOL0     C30171   7.826   4.645   1.967  0.1073  1.4302 -0.4713
  224MOL0     C30172   7.752   4.757   1.914 -0.6230  0.8738 -0.0457
  224MOL0     H30173   8.040   4.852   2.423 -2.6123  3.4210  2.1370
  224MOL0     H30174   8.135   5.037   2.544  1.3814 -0.0584 -0.5436
  224MOL0     H30175   8.367   5.425   2.428 -0.8396  0.3477  1.8575
  224MOL0     H30176   8.315   5.353   2.282  0.0692 -0.9103  0.1099
  224MOL0     H30177   8.115   5.383   2.512 -2.4415  1.3234 -1.0294
  224MOL0     H30178   8.075   5.322   2.366 -3.2618  2.0022 -0.3032
  224MOL0     H30179   7.999   5.518   2.357 -0.5608 -1.0526  2.5669
  224MOL0     H30180   8.152   5.562   2.266 -0.4146  1.3112  0.5498
  224MOL0     H30181   8.095   5.603   2.565 -1.1797  1.7422 -0.6170
  224MOL0     H30182   8.260   5.615   2.499  0.5502  0.1075 -1.5864
  224MOL0     H30183   8.014   5.779   2.413 -0.2357 -0.0798  0.5191
  224MOL0     H30184   8.152   5.831   2.512  2.9315  0.4132 -1.8262
  224MOL0     H30185   8.300   5.748   2.326 -1.1277 -1.4293 -1.9264
  224MOL0     H30186   8.159   5.783   2.230 -0.7938  2.1036  1.0778
  224MOL0     H30187   8.318   5.996   2.266  0.1090 -0.6475  0.3890
  224MOL0     H30188   8.268   5.986   2.436  0.9619  1.2539 -0.1694
  224MOL0     H30189   8.084   6.018   2.205 -1.6398  0.1082  0.6206
  224MOL0     H30190   8.032   6.039   2.368 -1.9649 -1.9355 -2.4491
  224MOL0     H30191   8.253   6.213   2.492  2.4055 -0.4164 -1.9702
  224MOL0     H30192   8.259   6.537   2.522  3.1050  2.0766 -0.2394
  224MOL0     H30193   8.376   6.425   2.471 -0.9026 -1.5162 -0.5242
  224MOL0     H30194   8.466   6.620   2.396 -0.9026 -1.1582  2.4075
  224MOL0     H30195   8.379   6.571   2.243 -2.2393 -0.2694 -0.5361
  224MOL0     H30196   8.294   6.754   2.467 -0.1983 -1.2047  0.4447
  224MOL0     H30197   8.191   6.725   2.325  0.0543  1.1079  0.6132
  224MOL0     H30198   8.461   6.859   2.313  0.1399  2.7561 -1.9741
  224MOL0     H30199   8.299   6.940   2.323 -0.6261 -0.5510 -0.0198
  224MOL0     H30200   8.613   6.770   2.203 -1.4198 -1.8389  1.1958
  224MOL0     H30201   8.759   6.647   2.041  0.6902 -1.6768 -0.3989
  224MOL0     H30202   8.887   6.569   1.587  1.0261 -1.4462  2.4424
  224MOL0     H30203   8.996   6.437   1.422 -1.4506  6.3709  0.9567
  224MOL0     H30204   8.835   6.026   1.327  2.1719  0.2500  1.2777
  224MOL0     H30205   8.760   6.115   1.191  0.3775 -1.6818 -0.6814
  224MOL0     H30206   8.997   6.118   1.087  0.3150  2.1253  0.7126
  224MOL0     H30207   9.026   5.994   1.208  0.5165  0.6811 -0.5628
  224MOL0     H30208   8.848   5.854   1.132  2.7248 -2.2068 -2.2642
  224MOL0     H30209   8.775   5.988   1.038 -0.3136  0.7508  0.8835
  224MOL0     H30210   8.981   5.788   0.986 -0.4743 -1.1180 -2.1502
  224MOL0     H30211   9.046   5.937   0.943  1.8001 -4.0321  2.6729
  224MOL0     H30212   8.798   5.933   0.797  1.3087  0.2884 -1.6927
  224MOL0     H30213   8.821   5.761   0.840  0.3118  0.3710  4.1160
  224MOL0     H30214   8.883   5.863   0.612  0.3491  3.1970  0.2787
  224MOL0     H30215   9.038   5.909   0.698  0.5172 -0.8609  0.6781
  224MOL0     H30216   8.937   5.642   0.610  1.3821 -3.2566  1.2494
  224MOL0     H30217   9.025   5.644   0.759 -0.7618  2.8018  1.1215
  224MOL0     H30218   9.145   5.756   0.479  1.4628  1.0294  0.8894
  224MOL0     H30219   9.227   5.740   0.619  1.4837 -0.3714 -1.5450
  224MOL0     H30220   8.662   6.151   1.423  1.4322  0.0033 -2.0992
  224MOL0     H30221   8.544   6.303   1.595 -0.7700  2.7910  3.5350
  224MOL0     H30222   8.431   6.627   1.762  2.4548 -0.6403 -0.5960
  224MOL0     H30223   8.282   6.735   1.912 -0.5566 -3.5723 -1.3848
  224MOL0     H30224   8.374   5.156   2.202  0.2002 -3.2736 -4.2175
  224MOL0     H30225   8.287   4.953   2.082 -0.2780  0.4289 -0.3308
  224MOL0     H30226   8.061   4.551   2.191 -0.2554 -1.9363  1.7911
  224MOL0     H30227   8.035   4.337   2.070  1.8721 -0.4083 -1.5099
  224MOL0     H30228   7.828   4.351   1.692 -0.3802 -0.6609  0.1942
  224MOL0     H30229   7.702   4.276   1.782 -0.5336  2.7058  0.4302
  224MOL0     H30230   7.802   4.117   1.608 -2.3392 -1.8599  1.9356
  224MOL0     H30231   7.843   4.060   1.763 -0.8415  2.4612  4.7369
  224MOL0     H30232   8.077   4.156   1.735 -1.2135  2.4505  2.1537
  224MOL0     H30233   8.010   4.237   1.582  1.3984 -1.6642 -0.6982
  224MOL0     H30234   8.161   4.043   1.558 -1.0463  2.0590 -1.3942
  224MOL0     H30235   8.058   3.946   1.656  2.5162 -1.4889 -1.7911
  224MOL0     H30236   7.915   3.917   1.250  2.7761  1.1022 -1.7281
  224MOL0     H30237   7.733   4.509   1.827 -1.3734  1.7978  1.1379
  224MOL0     H30238   7.654   4.759   1.964  0.5625  0.7806  2.4296
  224MOL0     H30239   7.791   4.859   1.923  0.3172  0.7348 -2.1377
  224MOL0     H30240   7.738   4.741   1.807  3.6632 -2.4143 -0.3819
  225MOL0     O30241   2.856   3.171  10.101  0.1393 -0.3000  0.0703
  225MOL0     C30242   2.734   3.179  10.107  0.1926  0.6348 -0.5342
  225MOL0     O30243   2.664   3.293  10.121 -0.5586  0.6172 -0.4199
  225MOL0     C30244   2.725   3.402  10.179  0.5962  0.4040  1.3299
  225MOL0     C30245   2.736   3.518  10.106 -0.3585 -0.4141 -0.3648
  225MOL0     C30246   2.789   3.637  10.160  0.3713 -0.5017  0.5542
  225MOL0     C30247   2.830   3.642  10.300  0.7646  0.0239  0.6819
  225MOL0     O30248   2.868   3.761  10.345 -0.6969  0.2024 -0.1155
  225MOL0     C30249   2.960   3.763  10.458  0.1040 -0.3226 -0.9934
  225MOL0     C30250   3.017   3.911  10.470  0.1744 -0.6804 -0.3676
  225MOL0     C30251   2.906   4.021  10.526 -1.0218  1.4313 -0.4039
  225MOL0     C30252   2.971   4.145  10.586 -0.6084  0.7807 -0.3231
  225MOL0     C30253   2.970   4.133  10.745  0.5354 -0.8810 -0.6334
  225MOL0     C30254   3.039   4.254  10.810 -0.3801 -0.2490 -0.9995
  225MOL0     C30255   3.046   4.241  10.963  0.4808  0.1192  0.3575
  225MOL0     C30256   3.146   4.135  11.009 -0.0472 -0.3634  0.2449
  225MOL0     N30257   3.079   4.037  11.099  0.0926  0.9559  0.2349
  225MOL0     C30258   2.993   3.943  11.046 -0.0317 -0.4161 -0.9072
  225MOL0     C30259   2.929   3.879  11.155  0.7035 -0.3617  0.7039
  225MOL0     C30260   2.828   3.770  11.140 -0.8767 -0.3922  0.8918
  225MOL0     C30261   2.820   3.678  11.260 -0.0217 -0.9797  0.2448
  225MOL0     C30262   2.945   3.601  11.283 -0.0243  0.5708  1.1325
  225MOL0     C30263   2.963   3.487  11.164  0.4819 -0.5725 -0.3443
  225MOL0     O30264   3.034   3.555  11.067 -0.3348 -0.6833  0.5097
  225MOL0     C30265   3.030   3.494  10.944 -0.4684 -1.3131  0.3561
  225MOL0     C30266   2.976   3.370  10.911 -0.2994  0.4613  0.0337
  225MOL0     C30267   2.984   3.315  10.782  0.1321  0.7905 -0.4458
  225MOL0     C30268   3.067   3.377  10.679  0.5926 -0.3151 -0.1057
  225MOL0     C30269   3.089   3.323  10.540  0.1476  0.0992 -0.6510
  225MOL0     O30270   3.165   3.398  10.452 -0.8535  0.1073 -0.1253
  225MOL0     C30271   3.216   3.332  10.345 -1.0490  0.4363  0.0721
  225MOL0     C30272   3.145   3.262  10.246  0.4642 -0.5826 -1.1351
  225MOL0     C30273   3.208   3.221  10.128  0.0419  0.5266 -0.2444
  225MOL0     C30274   3.346   3.244  10.106  0.0819  0.4019  0.7981
  225MOL0     O30275   3.406   3.223   9.983  0.3038 -0.6408 -0.2705
  225MOL0     C30276   3.349   3.129   9.895 -0.0576  0.5429 -1.5282
  225MOL0     C30277   3.431   3.109   9.769 -0.0724 -0.7314 -0.6930
  225MOL0     C30278   3.382   2.980   9.697  0.4530 -0.2026  0.2849
  225MOL0     C30279   3.463   2.862   9.722 -1.1104 -1.0100  0.1551
  225MOL0     C30280   3.473   2.775   9.592  0.0246 -0.1647 -1.5484
  225MOL0     C30281   3.564   2.651   9.607  0.5578  0.2122 -0.7947
  225MOL0     C30282   3.532   2.553   9.491 -0.5423  0.4605 -1.1413
  225MOL0     C30283   3.647   2.438   9.469  0.4213  0.5637 -0.5041
  225MOL0    Cl30284   3.681   2.346   9.626 -0.8350 -0.3139 -0.4679
  225MOL0     C30285   3.410   3.323  10.197  0.2099  0.1731  0.8695
  225MOL0     C30286   3.356   3.359  10.313  1.1024  0.3392  0.2124
  225MOL0     O30287   3.032   3.213  10.516  0.2525  0.5096  0.2203
  225MOL0     C30288   3.142   3.492  10.722  0.2925  0.4036  1.2897
  225MOL0     C30289   3.121   3.547  10.852 -0.1659  0.1583 -0.6282
  225MOL0     N30290   2.967   3.957  11.262  0.0575  0.3765  0.1449
  225MOL0     N30291   3.060   4.035  11.234 -0.0375  0.2736  0.5011
  225MOL0     C30292   2.804   3.532  10.375  0.1704 -0.3131  0.0207
  225MOL0     C30293   2.747   3.413  10.316  0.1230 -0.0203 -0.3574
  225MOL0     C30294   2.661   3.055  10.091 -0.2739 -0.9546  0.2722
  225MOL0     C30295   2.717   2.938  10.149  0.1446  0.2312 -0.5205
  225MOL0     C30296   2.653   2.822  10.144  0.2658 -0.6708  0.0617
  225MOL0     C30297   2.545   2.798  10.059  0.7142  0.2395  0.4630
  225MOL0     O30298   2.507   2.663  10.063 -0.1536  0.1343  0.2253
  225MOL0     C30299   2.404   2.624   9.981 -0.0889 -0.4215  0.7887
  225MOL0     C30300   2.426   2.636   9.829 -1.1264  0.1035  0.9937
  225MOL0     C30301   2.352   2.749   9.759  0.6505 -0.2667 -0.9998
  225MOL0     C30302   2.303   2.688   9.626 -0.1914 -0.0742 -0.5347
  225MOL0     C30303   2.257   2.796   9.542  0.3438 -0.0317  1.0713
  225MOL0     C30304   2.230   2.915   9.500  0.6517 -0.1910  0.8850
  225MOL0     C30305   2.487   2.913  10.000 -0.3793 -0.3992  0.5347
  225MOL0     C30306   2.533   3.046  10.020 -0.0986 -0.1847 -1.1205
  225MOL0     C30307   2.464   3.157   9.955 -0.0485  0.1421  0.2639
  225MOL0     H30308   2.715   3.501  10.001  2.3715 -0.5678 -0.9620
  225MOL0     H30309   2.781   3.717  10.086  0.0557 -0.7729  0.2885
  225MOL0     H30310   2.915   3.737  10.555 -1.3716 -0.4054 -1.6728
  225MOL0     H30311   3.054   3.716  10.426 -0.3621 -1.0614 -1.2980
  225MOL0     H30312   3.045   3.936  10.367 -0.6770 -0.6137 -0.5897
  225MOL0     H30313   3.101   3.917  10.540 -1.4093  1.7773  1.4923
  225MOL0     H30314   2.839   3.965  10.592  0.2460  2.3765  1.7899
  225MOL0     H30315   2.840   4.054  10.445  0.3227  0.7359 -1.8420
  225MOL0     H30316   3.077   4.139  10.559 -0.1302 -0.8997  1.6400
  225MOL0     H30317   2.933   4.245  10.562 -0.1488  1.0692  0.1253
  225MOL0     H30318   2.867   4.138  10.781  0.9387 -0.6170  0.5451
  225MOL0     H30319   3.020   4.044  10.782 -1.9228 -2.4626 -0.8915
  225MOL0     H30320   3.139   4.273  10.772 -0.1560 -1.0223 -0.8039
  225MOL0     H30321   2.982   4.342  10.776 -1.5347 -0.0291  1.2814
  225MOL0     H30322   2.946   4.229  11.005 -1.2419  0.7471 -3.1639
  225MOL0     H30323   3.060   4.343  10.999  0.1683 -0.5724  2.5578
  225MOL0     H30324   3.192   4.091  10.920  3.3466  4.0770 -0.5341
  225MOL0     H30325   3.226   4.180  11.068  1.8891 -1.6631 -1.2656
  225MOL0     H30326   2.979   3.910  10.943  0.2841 -0.6302 -0.8832
  225MOL0     H30327   2.733   3.824  11.136  0.0712  1.2775 -0.6002
  225MOL0     H30328   2.832   3.716  11.045 -1.1835  1.3947 -0.1809
  225MOL0     H30329   2.811   3.736  11.352 -1.3136 -0.8162  0.0283
  225MOL0     H30330   2.728   3.623  11.241 -0.3999  0.2233 -1.6198
  225MOL0     H30331   2.935   3.546  11.377 -0.5634  1.4908  1.6323
  225MOL0     H30332   3.036   3.656  11.309  0.5206 -0.6623  1.9089
  225MOL0     H30333   2.866   3.441  11.141  0.5962 -3.7266  4.1626
  225MOL0     H30334   3.031   3.409  11.198  1.7846  0.3451 -0.7565
  225MOL0     H30335   2.902   3.321  10.973 -2.6868 -1.3146 -3.8838
  225MOL0     H30336   2.943   3.218  10.755  0.0026  0.5240  0.6463
  225MOL0     H30337   3.037   3.253  10.244  0.4193 -0.4882  0.1323
  225MOL0     H30338   3.159   3.161  10.052  0.7595 -2.8933  1.7675
  225MOL0     H30339   3.335   3.036   9.951  1.9020 -0.3937 -2.4941
  225MOL0     H30340   3.249   3.168   9.875 -0.1686  1.3319  0.3950
  225MOL0     H30341   3.412   3.195   9.704  0.8267  0.2303  0.2584
  225MOL0     H30342   3.540   3.110   9.782 -0.1997  4.0739  2.6638
  225MOL0     H30343   3.277   2.959   9.721  0.0005  3.1769  1.7454
  225MOL0     H30344   3.379   3.013   9.593 -0.1039  2.3878  1.0588
  225MOL0     H30345   3.421   2.808   9.807 -0.4146 -0.7617  0.6609
  225MOL0     H30346   3.565   2.896   9.744 -1.4579  1.5307 -1.6505
  225MOL0     H30347   3.516   2.845   9.520  0.6038 -0.0138 -1.0712
  225MOL0     H30348   3.375   2.743   9.557  0.8771 -1.9613 -2.4086
  225MOL0     H30349   3.672   2.666   9.606  1.0690 -2.9008 -0.6142
  225MOL0     H30350   3.534   2.610   9.704  2.2823  1.1711  0.1809
  225MOL0     H30351   3.515   2.611   9.400  2.7709 -0.6917 -2.6546
  225MOL0     H30352   3.441   2.500   9.521 -0.6246  0.4247 -1.4478
  225MOL0     H30353   3.619   2.365   9.393 -1.4260 -0.5371  1.1444
  225MOL0     H30354   3.742   2.482   9.438  1.0719 -0.8059 -0.5227
  225MOL0     H30355   3.515   3.341  10.177 -0.4210  1.0265 -2.1689
  225MOL0     H30356   3.421   3.421  10.375  0.8876  0.3815  0.3932
  225MOL0     H30357   3.209   3.544  10.654  1.6474 -1.6339  0.9769
  225MOL0     H30358   3.179   3.635  10.878  0.8710 -0.7167  0.0868
  225MOL0     H30359   2.820   3.526  10.482 -0.1743 -1.0982  0.0392
  225MOL0     H30360   2.738   3.325  10.379 -0.3473 -0.9028 -1.6083
  225MOL0     H30361   2.813   2.936  10.199  1.5360 -1.4442 -3.0318
  225MOL0     H30362   2.696   2.748  10.210  1.9769  0.2070 -0.0170
  225MOL0     H30363   2.313   2.668  10.024 -0.9664 -2.8570  1.6042
  225MOL0     H30364   2.384   2.519  10.002  1.5569 -1.1022 -0.7837
  225MOL0     H30365   2.395   2.548   9.771 -2.4171  0.6559  0.8128
  225MOL0     H30366   2.531   2.663   9.821 -1.1577  0.6682  2.2822
  225MOL0     H30367   2.421   2.831   9.737 -0.9679  1.2308 -0.6185
  225MOL0     H30368   2.272   2.798   9.815  1.3814  1.5331 -1.4809
  225MOL0     H30369   2.391   2.652   9.571  1.0136  2.2575 -0.2724
  225MOL0     H30370   2.232   2.606   9.640  0.3980 -0.3476  1.0897
  225MOL0     H30371   2.223   3.020   9.479  0.2099 -0.1499  1.2285
  225MOL0     H30372   2.393   2.906   9.945  0.6745  1.4765 -1.6716
  225MOL0     H30373   2.401   3.114   9.877  0.4224 -1.8756  0.9277
  225MOL0     H30374   2.399   3.213  10.024 -1.4807 -1.0084 -0.0926
  225MOL0     H30375   2.527   3.229   9.903 -1.6269  0.1688 -1.7435
  226MOL0     O30376  10.447   4.283  10.546  0.1912  0.3110 -0.4506
  226MOL0     C30377  10.564   4.314  10.583 -0.3348 -0.5092 -0.6221
  226MOL0     O30378  10.606   4.447  10.612 -0.1862  0.6403 -0.1074
  226MOL0     C30379  10.534   4.548  10.565 -0.4967 -0.0630  0.9800
  226MOL0     C30380  10.579   4.636  10.462  0.4297 -0.0177 -0.0995
  226MOL0     C30381  10.515   4.752  10.436  0.1886 -0.6377  0.1351
  226MOL0     C30382  10.402   4.792  10.508 -0.2985  0.3011 -0.4311
  226MOL0     O30383  10.349   4.924  10.486 -0.5110  0.1002 -0.0659
  226MOL0     C30384  10.206   4.941  10.510 -0.0431  1.3572  0.6236
  226MOL0     C30385  10.169   4.996  10.654  0.0387  0.3604 -0.1084
  226MOL0     C30386  10.025   4.969  10.684  0.7395 -0.2512  0.1378
  226MOL0     C30387   9.959   5.036  10.806  1.1088 -0.1853  0.1651
  226MOL0     C30388   9.810   5.044  10.807  0.2730 -0.4878 -0.3792
  226MOL0     C30389   9.768   5.125  10.932  0.4714  0.1118  0.2504
  226MOL0     C30390   9.615   5.118  10.960  0.2486  0.1876  0.2482
  226MOL0     C30391   9.582   5.160  11.101  0.2125  0.3468  0.8897
  226MOL0     N30392   9.637   5.056  11.200  0.8517 -0.1642  0.9306
  226MOL0     C30393   9.587   4.931  11.219  0.3954  0.1623  0.2507
  226MOL0     C30394   9.671   4.870  11.301 -0.2443  0.4116  0.5644
  226MOL0     C30395   9.647   4.726  11.338 -0.6929  0.5222 -0.1012
  226MOL0     C30396   9.717   4.626  11.260  0.0073 -0.3070 -0.9943
  226MOL0     C30397   9.634   4.516  11.201 -0.4900  0.0912 -0.0100
  226MOL0     C30398   9.618   4.519  11.050  0.2798  0.1496 -0.2801
  226MOL0     O30399   9.541   4.639  11.026 -0.3581 -0.8582 -0.4224
  226MOL0     C30400   9.534   4.685  10.894 -1.1447 -0.7904 -0.8209
  226MOL0     C30401   9.439   4.786  10.872  0.0770  0.7378  0.2901
  226MOL0     C30402   9.408   4.824  10.739 -0.2101  0.1304  0.2318
  226MOL0     C30403   9.468   4.766  10.629  0.8029 -0.0750 -0.0094
  226MOL0     C30404   9.450   4.808  10.484  0.6341  0.2915 -0.4820
  226MOL0     O30405   9.384   4.926  10.472  0.3518 -0.3384 -0.5797
  226MOL0     C30406   9.378   5.007  10.361  0.2791  0.2984  0.7372
  226MOL0     C30407   9.249   5.037  10.317  0.0791 -0.7895 -0.6090
  226MOL0     C30408   9.229   5.114  10.201  0.7211  0.7344  0.3303
  226MOL0     C30409   9.338   5.157  10.127  0.8999  0.7514  0.2920
  226MOL0     O30410   9.306   5.230  10.016 -0.1204  0.3125  0.5103
  226MOL0     C30411   9.397   5.261   9.917 -0.7074 -0.1837 -0.0373
  226MOL0     C30412   9.322   5.341   9.812  0.3954  1.0695 -0.7635
  226MOL0     C30413   9.316   5.494   9.835 -1.4212 -0.3599  0.3363
  226MOL0     C30414   9.226   5.539   9.952  0.0784 -0.1552  0.9690
  226MOL0     C30415   9.213   5.691   9.955  0.4931  0.0794 -0.0097
  226MOL0     C30416   9.082   5.731  10.022 -0.6500 -0.9027 -0.1902
  226MOL0     C30417   9.059   5.874  10.052 -0.1945 -0.5178 -0.2210
  226MOL0     C30418   9.183   5.949  10.123  0.6121  0.7194 -0.6854
  226MOL0    Cl30419   9.109   6.102  10.167  0.0049 -0.1270  0.1277
  226MOL0     C30420   9.469   5.135  10.164  0.3409  1.2572 -0.4353
  226MOL0     C30421   9.489   5.060  10.283  0.3080  0.9225 -0.3009
  226MOL0     O30422   9.525   4.760  10.397 -0.0638 -0.7706 -0.3952
  226MOL0     C30423   9.568   4.668  10.657 -1.3471  0.4267  0.0122
  226MOL0     C30424   9.601   4.635  10.787 -0.3791 -0.5774 -0.2111
  226MOL0     N30425   9.747   4.961  11.353 -0.2509 -0.2366 -1.9826
  226MOL0     N30426   9.735   5.075  11.292 -0.1436  0.6339  0.9000
  226MOL0     C30427  10.352   4.700  10.603  0.0782  0.3175 -0.0117
  226MOL0     C30428  10.414   4.579  10.623 -0.1446 -0.1269  0.5142
  226MOL0     C30429  10.664   4.199  10.576  0.0881 -0.2107 -0.8978
  226MOL0     C30430  10.798   4.229  10.546  0.0812 -0.0719  0.8321
  226MOL0     C30431  10.902   4.140  10.559  0.7125 -0.4381  0.5094
  226MOL0     C30432  10.867   4.004  10.580  0.1107  0.6269 -0.5036
  226MOL0     O30433  10.967   3.908  10.586 -0.3344  0.1736  0.4537
  226MOL0     C30434  11.103   3.946  10.544 -0.1973  0.2002 -0.7842
  226MOL0     C30435  11.175   3.815  10.558 -0.0041 -0.7874 -0.2236
  226MOL0     C30436  11.099   3.703  10.489 -0.6709  0.2767  0.5317
  226MOL0     C30437  11.160   3.567  10.522 -1.8125  0.0424  0.2607
  226MOL0     C30438  11.146   3.525  10.666  0.1165 -0.2700  0.4818
  226MOL0     C30439  11.128   3.479  10.780  0.5122  0.0934 -0.6383
  226MOL0     C30440  10.738   3.971  10.613  1.1549 -1.2669  0.8072
  226MOL0     C30441  10.630   4.068  10.610 -0.1914 -0.1137  0.2033
  226MOL0     C30442  10.494   4.016  10.640  1.2446 -0.6694 -0.2089
  226MOL0     H30443  10.665   4.608  10.401 -1.9232 -0.0811 -3.6982
  226MOL0     H30444  10.560   4.824  10.369 -0.8847  1.0771  1.1705
  226MOL0     H30445  10.155   5.000  10.432 -0.5315  1.0023  0.6652
  226MOL0     H30446  10.163   4.845  10.479  3.2370  0.4665 -1.7245
  226MOL0     H30447  10.194   5.102  10.650 -1.6470  0.7778 -2.8883
  226MOL0     H30448  10.217   4.939  10.733 -5.1065 -1.9068  1.8615
  226MOL0     H30449  10.018   4.863  10.711 -1.1347 -0.1180  0.2619
  226MOL0     H30450   9.976   4.991  10.588  0.5469 -1.2373  0.0027
  226MOL0     H30451  10.003   4.991  10.896  0.8216 -3.7549 -1.3279
  226MOL0     H30452  10.019   5.128  10.805  0.7043  0.0967  1.1902
  226MOL0     H30453   9.779   5.087  10.711 -0.5408  3.0029  1.2915
  226MOL0     H30454   9.764   4.946  10.824 -0.6835  0.1560  0.8986
  226MOL0     H30455   9.796   5.078  11.027  0.1179  2.2745  1.5026
  226MOL0     H30456   9.807   5.228  10.932  1.1291 -0.1368  0.3998
  226MOL0     H30457   9.561   5.033  10.919 -2.9502  2.2100 -0.0312
  226MOL0     H30458   9.576   5.193  10.891 -1.1632 -1.4065 -0.7672
  226MOL0     H30459   9.622   5.261  11.115  3.5714 -0.9170  1.4214
  226MOL0     H30460   9.474   5.171  11.099  0.2629  1.0296 -1.3268
  226MOL0     H30461   9.504   4.888  11.163  1.6770 -1.1597 -0.6849
  226MOL0     H30462   9.669   4.708  11.444  0.7205  1.5714 -0.1807
  226MOL0     H30463   9.538   4.717  11.338 -0.7057 -0.2923  2.6154
  226MOL0     H30464   9.774   4.685  11.188  1.1999  3.4658  2.6034
  226MOL0     H30465   9.796   4.584  11.323  0.6231 -1.3226 -2.3873
  226MOL0     H30466   9.528   4.508  11.226 -0.3799  2.1607  1.3719
  226MOL0     H30467   9.681   4.421  11.224 -0.4617 -0.3066 -1.6009
  226MOL0     H30468   9.566   4.428  11.017  0.9831 -0.5628  0.5021
  226MOL0     H30469   9.712   4.526  10.994  0.1460  1.9293 -0.3274
  226MOL0     H30470   9.377   4.825  10.951  0.7535 -3.1003  2.9895
  226MOL0     H30471   9.339   4.908  10.744  1.8907  1.8844  1.9332
  226MOL0     H30472   9.168   4.985  10.367 -0.4243  0.2832 -0.2672
  226MOL0     H30473   9.127   5.138  10.173  1.0202  2.8949  0.8678
  226MOL0     H30474   9.483   5.324   9.943 -1.0884  1.1768 -1.8603
  226MOL0     H30475   9.432   5.171   9.867 -2.0996 -1.1903  0.7129
  226MOL0     H30476   9.380   5.338   9.719  0.5752  0.9424 -0.6468
  226MOL0     H30477   9.224   5.295   9.795  0.6786  0.4851 -0.8162
  226MOL0     H30478   9.421   5.517   9.856 -0.5260 -3.0719 -0.7937
  226MOL0     H30479   9.288   5.550   9.746  0.3333  1.9890  1.1606
  226MOL0     H30480   9.275   5.519  10.048 -2.3340  2.0079  2.7627
  226MOL0     H30481   9.125   5.499   9.948  0.2342 -0.7692  2.5837
  226MOL0     H30482   9.200   5.719   9.850  2.0778 -0.2472 -0.3274
  226MOL0     H30483   9.293   5.741  10.011  0.1302  1.5484 -0.7494
  226MOL0     H30484   9.005   5.697   9.952 -1.6809  1.2599 -0.2174
  226MOL0     H30485   9.070   5.678  10.117 -2.1596  1.3301  0.9684
  226MOL0     H30486   8.968   5.891  10.111 -0.6477 -0.5199 -0.9027
  226MOL0     H30487   9.043   5.919   9.954  3.4758 -2.5315 -1.9226
  226MOL0     H30488   9.203   5.889  10.212 -1.5738 -0.3978 -0.8739
  226MOL0     H30489   9.277   5.959  10.068 -0.4414  2.7934 -2.2881
  226MOL0     H30490   9.551   5.183  10.112 -1.3038  1.0787 -3.4658
  226MOL0     H30491   9.590   5.038  10.316  0.0776  4.0364  3.0799
  226MOL0     H30492   9.630   4.621  10.581 -1.8114  0.1592 -0.2089
  226MOL0     H30493   9.683   4.564  10.793 -2.2805 -2.8520  0.3295
  226MOL0     H30494  10.266   4.723  10.666  0.2575  0.5155  0.1601
  226MOL0     H30495  10.387   4.521  10.711 -1.4080 -0.0122  0.2220
  226MOL0     H30496  10.837   4.329  10.531  0.0598 -0.1860 -0.0248
  226MOL0     H30497  11.003   4.177  10.547 -0.5861  3.1205 -0.6993
  226MOL0     H30498  11.136   4.027  10.609  0.0569  1.7280 -2.7171
  226MOL0     H30499  11.117   3.970  10.438 -1.6360 -1.4300 -1.3911
  226MOL0     H30500  11.182   3.795  10.666  1.5918 -0.9047 -0.3129
  226MOL0     H30501  11.280   3.829  10.528 -0.2444 -0.2773 -0.8566
  226MOL0     H30502  11.108   3.718  10.381 -0.5713 -2.9256 -0.0197
  226MOL0     H30503  10.995   3.703  10.521 -0.7526  1.5304  0.3185
  226MOL0     H30504  11.106   3.497  10.457  0.6696  0.8063 -2.8774
  226MOL0     H30505  11.263   3.558  10.488 -2.1329  2.6458 -1.6762
  226MOL0     H30506  11.123   3.455  10.885 -1.7526  2.2497 -0.1504
  226MOL0     H30507  10.723   3.866  10.633  0.5511 -1.8424 -2.2361
  226MOL0     H30508  10.458   4.047  10.738 -3.1271 -0.5099 -1.6682
  226MOL0     H30509  10.428   4.041  10.556  0.2419  2.7635  1.4379
  226MOL0     H30510  10.496   3.908  10.653 -0.3171 -0.6508  0.3872
  227MOL0     O30511   0.477   6.292   5.015  0.4446 -0.2698 -0.5000
  227MOL0     C30512   0.488   6.199   5.098 -0.3613  0.2279 -1.1841
  227MOL0     O30513   0.503   6.067   5.063 -0.2294  0.3674 -0.6380
  227MOL0     C30514   0.563   6.033   4.948 -0.2256 -0.7750  2.0117
  227MOL0     C30515   0.504   5.936   4.853 -0.6853  1.1256  0.2498
  227MOL0     C30516   0.569   5.894   4.741  0.5812  0.4308  0.4409
  227MOL0     C30517   0.676   5.961   4.690  1.5052  0.1319  0.2696
  227MOL0     O30518   0.720   5.920   4.568  0.0280 -0.6170 -0.2100
  227MOL0     C30519   0.859   5.866   4.565 -0.1989 -1.3168 -0.2808
  227MOL0     C30520   0.898   5.791   4.432  0.0489 -1.1238 -0.0582
  227MOL0     C30521   0.823   5.652   4.419  0.1469  1.1836  0.3055
  227MOL0     C30522   0.861   5.568   4.295  0.2662 -0.0079 -0.4878
  227MOL0     C30523   0.801   5.423   4.298 -0.5205 -0.3418  0.9068
  227MOL0     C30524   0.655   5.409   4.254 -0.2329 -0.2911  0.9865
  227MOL0     C30525   0.579   5.305   4.336  0.7059 -0.9050  0.1963
  227MOL0     C30526   0.622   5.160   4.304 -0.0229 -0.1054 -0.3135
  227MOL0     N30527   0.606   5.129   4.165 -0.2705 -0.1373  0.4652
  227MOL0     C30528   0.487   5.084   4.105 -0.2940  0.3194 -0.8171
  227MOL0     C30529   0.512   5.063   3.985 -0.1512 -0.2274  0.1377
  227MOL0     C30530   0.407   5.025   3.885  0.4855 -0.2486  0.8096
  227MOL0     C30531   0.390   4.867   3.888 -0.1804 -0.4902  0.7941
  227MOL0     C30532   0.479   4.794   3.782 -0.4575 -0.3459 -1.1445
  227MOL0     C30533   0.531   4.669   3.846 -0.3265 -0.0927 -0.1562
  227MOL0     O30534   0.422   4.584   3.865 -0.2977  0.3368 -0.3152
  227MOL0     C30535   0.452   4.490   3.958  0.2821  0.4250 -0.3195
  227MOL0     C30536   0.537   4.379   3.932 -0.2476 -0.3112  0.2914
  227MOL0     C30537   0.576   4.291   4.031 -0.0828  0.0969  0.8256
  227MOL0     C30538   0.534   4.307   4.162 -0.6922 -0.6416 -0.6617
  227MOL0     C30539   0.555   4.208   4.266  0.3122  0.7754  0.3707
  227MOL0     O30540   0.535   4.238   4.390 -0.2779  0.4834 -0.6635
  227MOL0     C30541   0.537   4.161   4.500 -0.2487  0.4427 -0.2296
  227MOL0     C30542   0.491   4.223   4.616 -0.7635 -0.2242  0.1557
  227MOL0     C30543   0.505   4.159   4.737  0.7182  0.5676 -0.2799
  227MOL0     C30544   0.536   4.024   4.742  0.4558 -0.1176 -0.1423
  227MOL0     O30545   0.516   3.957   4.862  0.4813 -0.1554 -0.2616
  227MOL0     C30546   0.592   3.860   4.923 -0.8395 -0.3136 -0.2670
  227MOL0     C30547   0.541   3.844   5.069  0.0000  0.1718  0.5519
  227MOL0     C30548   0.598   3.724   5.138  0.0995  0.1222 -0.2501
  227MOL0     C30549   0.515   3.690   5.274 -0.6981 -0.7346 -0.3677
  227MOL0     C30550   0.602   3.615   5.372 -0.7675  0.1097  0.0347
  227MOL0     C30551   0.544   3.620   5.509 -0.7994 -0.0737 -0.9498
  227MOL0     C30552   0.615   3.517   5.606 -0.3137  0.9040  0.1496
  227MOL0     C30553   0.560   3.374   5.596 -1.0173 -0.4166  0.6617
  227MOL0    Cl30554   0.646   3.264   5.725  0.3107 -0.7469  0.3858
  227MOL0     C30555   0.580   3.959   4.625  0.4384 -0.3312 -0.3309
  227MOL0     C30556   0.591   4.026   4.502  0.8688 -0.7148 -0.6603
  227MOL0     O30557   0.603   4.100   4.227 -0.7546 -0.5127  0.0668
  227MOL0     C30558   0.450   4.419   4.189 -0.1579  0.2869  0.1607
  227MOL0     C30559   0.422   4.511   4.089  0.0833  0.0283  0.9410
  227MOL0     N30560   0.647   5.095   3.957  0.6916  0.1992 -0.5994
  227MOL0     N30561   0.707   5.135   4.068  0.2086 -0.8635  0.3007
  227MOL0     C30562   0.743   6.046   4.774  0.7568 -1.6195 -0.3288
  227MOL0     C30563   0.686   6.093   4.898  0.5641  0.4601 -0.0112
  227MOL0     C30564   0.477   6.224   5.250  0.5217 -0.1811  0.3329
  227MOL0     C30565   0.470   6.114   5.337 -0.1858  0.8645  0.0404
  227MOL0     C30566   0.463   6.125   5.481 -0.2081 -0.6006  0.4132
  227MOL0     C30567   0.433   6.257   5.534  0.3804 -0.4605 -0.1169
  227MOL0     O30568   0.402   6.296   5.669  0.8967  0.8145  0.7998
  227MOL0     C30569   0.364   6.197   5.764  0.9144  0.7398  0.3740
  227MOL0     C30570   0.332   6.271   5.899  0.5600 -0.2509  0.0922
  227MOL0     C30571   0.458   6.343   5.948 -1.0672 -0.6204 -0.4651
  227MOL0     C30572   0.461   6.376   6.098  0.9704 -0.8291  0.5734
  227MOL0     C30573   0.368   6.491   6.093 -0.9440  0.1944  0.2612
  227MOL0     C30574   0.316   6.599   6.104  0.7202 -0.3557 -0.1439
  227MOL0     C30575   0.441   6.367   5.445  0.0055  0.5844 -0.0470
  227MOL0     C30576   0.468   6.346   5.308 -0.1991  0.9614  0.2755
  227MOL0     C30577   0.484   6.470   5.225 -1.1252 -0.4993  0.1815
  227MOL0     H30578   0.412   5.892   4.891 -1.3856  3.2256  1.1879
  227MOL0     H30579   0.522   5.814   4.684 -0.5600  0.3293  1.4858
  227MOL0     H30580   0.932   5.946   4.576  0.4494 -1.0897 -4.5246
  227MOL0     H30581   0.863   5.802   4.653 -2.7441  1.5736  2.1562
  227MOL0     H30582   1.007   5.787   4.429  0.0859  0.0501 -1.2442
  227MOL0     H30583   0.869   5.851   4.344 -3.1153 -0.5596  1.2168
  227MOL0     H30584   0.714   5.664   4.420 -0.2947 -2.0571 -0.3284
  227MOL0     H30585   0.843   5.596   4.511 -0.8769  1.3907  0.6669
  227MOL0     H30586   0.832   5.625   4.206  0.7638  0.0241 -0.6300
  227MOL0     H30587   0.970   5.563   4.299  0.2510 -1.3339  4.1568
  227MOL0     H30588   0.862   5.352   4.242 -0.0608 -0.7181  1.8603
  227MOL0     H30589   0.821   5.390   4.401 -2.3601  0.5967  1.6063
  227MOL0     H30590   0.599   5.504   4.260 -1.7541 -1.0896  0.0021
  227MOL0     H30591   0.652   5.383   4.148  1.1360  3.6852 -0.2366
  227MOL0     H30592   0.472   5.320   4.320  0.2406 -0.0561  3.3475
  227MOL0     H30593   0.576   5.332   4.442 -3.2820  2.6992 -0.5600
  227MOL0     H30594   0.726   5.137   4.326 -0.6338 -2.6284  0.2196
  227MOL0     H30595   0.549   5.111   4.370 -0.5353  0.1847 -0.6505
  227MOL0     H30596   0.388   5.071   4.146 -0.9346  2.4028 -1.5711
  227MOL0     H30597   0.309   5.072   3.898  1.4891  1.5167  2.4821
  227MOL0     H30598   0.428   5.046   3.780  1.6193 -5.5663 -0.3614
  227MOL0     H30599   0.399   4.822   3.987 -3.1214 -3.9131 -0.2864
  227MOL0     H30600   0.289   4.840   3.857 -0.2711  1.6996 -1.1346
  227MOL0     H30601   0.561   4.860   3.752 -1.5487  0.9582 -1.3422
  227MOL0     H30602   0.424   4.779   3.689 -3.7100  1.3779  0.3404
  227MOL0     H30603   0.585   4.690   3.938 -1.9749  0.6965  0.6701
  227MOL0     H30604   0.615   4.626   3.790  2.1018  1.3762  2.1434
  227MOL0     H30605   0.574   4.375   3.830 -1.5167  0.2074 -0.2106
  227MOL0     H30606   0.639   4.204   4.015  2.0658  1.0133  3.5573
  227MOL0     H30607   0.469   4.330   4.614  3.2533  0.7599 -0.7123
  227MOL0     H30608   0.484   4.209   4.831  2.7031 -0.7894  0.9655
  227MOL0     H30609   0.576   3.763   4.875 -0.4173 -0.1129 -0.8267
  227MOL0     H30610   0.700   3.876   4.927 -0.9815  1.0222 -1.0522
  227MOL0     H30611   0.559   3.934   5.130 -0.0237  0.6199 -0.0980
  227MOL0     H30612   0.434   3.819   5.074 -0.3007  1.3117  0.2273
  227MOL0     H30613   0.580   3.633   5.080  2.7716 -2.2526  2.2659
  227MOL0     H30614   0.706   3.732   5.155  0.2434  1.6562 -1.6565
  227MOL0     H30615   0.437   3.623   5.236 -1.2000 -1.5797  2.0151
  227MOL0     H30616   0.470   3.782   5.312  0.5403  0.6845 -2.1367
  227MOL0     H30617   0.702   3.659   5.384 -0.9111  0.7848 -1.0977
  227MOL0     H30618   0.615   3.512   5.339  1.2729 -0.7770  3.1446
  227MOL0     H30619   0.563   3.721   5.546  0.6256 -1.5294  2.7961
  227MOL0     H30620   0.442   3.584   5.490 -0.5099 -0.3205 -2.1024
  227MOL0     H30621   0.592   3.550   5.707  1.5737  2.3353  0.1799
  227MOL0     H30622   0.723   3.518   5.586 -0.2403 -0.5253  0.3581
  227MOL0     H30623   0.451   3.374   5.598 -1.0512  1.2306  0.1240
  227MOL0     H30624   0.589   3.334   5.498 -2.6607 -1.0857  0.4172
  227MOL0     H30625   0.620   3.858   4.627  1.9557  0.2203  2.2547
  227MOL0     H30626   0.617   3.963   4.418 -1.1533 -2.8576  0.2128
  227MOL0     H30627   0.396   4.412   4.283 -0.6781 -0.6476 -0.1898
  227MOL0     H30628   0.367   4.600   4.118 -0.5416 -0.2642  0.6796
  227MOL0     H30629   0.832   6.096   4.738  0.7373 -0.8664  0.6174
  227MOL0     H30630   0.731   6.172   4.958  4.7019 -2.7723  1.5930
  227MOL0     H30631   0.491   6.017   5.293  0.5782  2.7325 -4.2416
  227MOL0     H30632   0.458   6.037   5.544 -2.1998 -1.3303 -0.6548
  227MOL0     H30633   0.450   6.131   5.775 -0.7180 -2.5123 -3.6650
  227MOL0     H30634   0.282   6.136   5.725  1.7627 -0.7265  0.8382
  227MOL0     H30635   0.286   6.197   5.965  3.0542 -2.3717 -0.3878
  227MOL0     H30636   0.261   6.355   5.892  0.5725  0.2163  3.6808
  227MOL0     H30637   0.483   6.430   5.886 -0.2105  1.1353  2.1887
  227MOL0     H30638   0.541   6.272   5.936  2.0603  2.6414  0.0820
  227MOL0     H30639   0.422   6.292   6.156 -0.3765 -0.2448  0.5452
  227MOL0     H30640   0.563   6.399   6.131  1.4050 -0.9410 -0.6383
  227MOL0     H30641   0.266   6.688   6.136 -3.6891 -2.3261 -0.8303
  227MOL0     H30642   0.438   6.466   5.487 -2.7742 -0.6940  3.1788
  227MOL0     H30643   0.409   6.478   5.145 -0.4293 -0.1649 -0.4496
  227MOL0     H30644   0.477   6.565   5.279 -1.0569 -1.2626  1.5673
  227MOL0     H30645   0.582   6.465   5.178 -1.6390 -0.1383 -0.9844
  228MOL0     O30646   3.289  11.302   5.722  0.6157 -0.4066 -0.4343
  228MOL0     C30647   3.273  11.342   5.604 -0.3095  0.9399 -0.9245
  228MOL0     O30648   3.158  11.394   5.556 -0.5695  0.2306  0.1656
  228MOL0     C30649   3.064  11.434   5.651  0.6311 -0.2900  0.0471
  228MOL0     C30650   3.091  11.531   5.747  0.0489 -0.6997  0.2604
  228MOL0     C30651   2.992  11.576   5.839 -1.5035  0.1110  0.4887
  228MOL0     C30652   2.869  11.513   5.836 -0.2539 -0.4388  0.7943
  228MOL0     O30653   2.761  11.542   5.913 -0.3025 -0.1494  0.1348
  228MOL0     C30654   2.732  11.678   5.952  0.6651  0.0822  0.3359
  228MOL0     C30655   2.593  11.666   6.006  1.4297 -0.4106 -0.1794
  228MOL0     C30656   2.483  11.636   5.894 -0.4279 -0.0863  0.0181
  228MOL0     C30657   2.346  11.612   5.959  0.3762 -0.9829 -0.4852
  228MOL0     C30658   2.239  11.588   5.853  0.2246 -0.0927  0.5181
  228MOL0     C30659   2.099  11.601   5.911  0.5351  0.4157  0.7810
  228MOL0     C30660   1.981  11.557   5.811  0.2954  0.0960  0.0043
  228MOL0     C30661   1.844  11.539   5.888  0.6793 -1.1514  0.5690
  228MOL0     N30662   1.733  11.532   5.794  0.9306 -0.4007 -0.2694
  228MOL0     C30663   1.728  11.423   5.704  0.6449 -0.4870  0.2411
  228MOL0     C30664   1.618  11.449   5.618 -0.6042 -0.0496 -0.5068
  228MOL0     C30665   1.557  11.366   5.509 -0.1573 -0.3760  0.9922
  228MOL0     C30666   1.654  11.272   5.451 -0.3608  0.3580  1.0222
  228MOL0     C30667   1.589  11.151   5.389 -1.2636  0.6864 -0.4041
  228MOL0     C30668   1.670  11.101   5.265  0.0252 -0.0291 -0.1714
  228MOL0     O30669   1.811  11.086   5.287  1.7114 -0.2700 -0.4057
  228MOL0     C30670   1.883  11.038   5.182 -0.0418  0.4148  0.8822
  228MOL0     C30671   2.017  11.012   5.207  0.1486  0.0020 -0.5798
  228MOL0     C30672   2.106  10.977   5.103 -0.6127 -0.5643 -1.0152
  228MOL0     C30673   2.063  10.961   4.972  0.1738  0.6664 -0.3420
  228MOL0     C30674   2.157  10.913   4.861 -0.0861 -1.1144  0.4589
  228MOL0     O30675   2.116  10.934   4.739  0.2212 -0.0764  1.3520
  228MOL0     C30676   2.198  10.946   4.634 -0.4388  0.7613 -0.1301
  228MOL0     C30677   2.304  11.034   4.638 -0.9226 -0.4647 -1.1324
  228MOL0     C30678   2.403  11.036   4.532 -0.3474 -0.7456  0.2043
  228MOL0     C30679   2.388  10.953   4.421 -0.6645  0.3141  0.1091
  228MOL0     O30680   2.476  10.943   4.313  0.5622 -1.3445 -0.2075
  228MOL0     C30681   2.616  10.952   4.327  0.1966 -0.1658  0.2133
  228MOL0     C30682   2.674  10.973   4.194 -0.0282 -0.3581  0.0355
  228MOL0     C30683   2.820  11.025   4.205 -0.2723  0.3098  0.8264
  228MOL0     C30684   2.852  11.132   4.095 -0.4074 -0.3897 -0.0116
  228MOL0     C30685   2.975  11.206   4.124 -1.3543 -0.2149  0.0667
  228MOL0     C30686   3.094  11.109   4.145 -0.3010 -0.3602 -0.2850
  228MOL0     C30687   3.223  11.185   4.141 -0.6730 -0.0299  0.6831
  228MOL0     C30688   3.347  11.104   4.180  0.2770 -0.7903  0.5227
  228MOL0    Cl30689   3.370  10.968   4.068 -0.8593  0.5142  0.0601
  228MOL0     C30690   2.268  10.875   4.413 -0.3264 -0.1009  0.4588
  228MOL0     C30691   2.176  10.873   4.523 -0.0406  1.0482 -0.1894
  228MOL0     O30692   2.271  10.879   4.894  0.1595  0.8566  0.0200
  228MOL0     C30693   1.925  10.974   4.946  1.3188  0.0776 -0.6238
  228MOL0     C30694   1.830  11.010   5.053 -0.7604 -1.4461  1.1270
  228MOL0     N30695   1.562  11.564   5.664  0.6250 -0.0474 -1.1174
  228MOL0     N30696   1.633  11.617   5.768  0.2093  0.4778  0.4347
  228MOL0     C30697   2.846  11.407   5.747  0.6445 -0.0518 -0.5196
  228MOL0     C30698   2.936  11.362   5.651 -0.1654 -0.0393  0.2526
  228MOL0     C30699   3.388  11.327   5.514 -0.7433 -0.2247 -0.0320
  228MOL0     C30700   3.519  11.318   5.557  0.4820  0.5394  1.1881
  228MOL0     C30701   3.627  11.327   5.471  0.0554  0.7148  0.0129
  228MOL0     C30702   3.612  11.328   5.338 -0.6574  0.2396 -0.2700
  228MOL0     O30703   3.736  11.317   5.282 -1.2094 -0.1909 -0.5941
  228MOL0     C30704   3.756  11.222   5.172 -0.2787 -0.9237 -0.1233
  228MOL0     C30705   3.782  11.072   5.207  0.7028 -1.4917  0.1101
  228MOL0     C30706   3.864  11.005   5.100 -0.3659  0.9642 -1.7239
  228MOL0     C30707   3.832  10.857   5.092 -0.3279 -0.6779 -0.2415
  228MOL0     C30708   3.879  10.799   4.967  0.0937  0.1833 -0.8732
  228MOL0     C30709   3.906  10.765   4.855 -0.0549  0.2157  0.3944
  228MOL0     C30710   3.489  11.327   5.285 -0.3961  0.5261  0.0464
  228MOL0     C30711   3.376  11.332   5.373  0.1978 -0.0859  0.7980
  228MOL0     C30712   3.241  11.316   5.312  0.2141  0.3360 -0.1474
  228MOL0     H30713   3.185  11.583   5.741  2.9222 -5.3754 -0.1094
  228MOL0     H30714   3.012  11.661   5.903  1.3802  1.4691 -1.9297
  228MOL0     H30715   2.797  11.711   6.034 -3.4474  1.4324  3.3741
  228MOL0     H30716   2.751  11.746   5.869 -2.1531  0.3353 -0.1668
  228MOL0     H30717   2.568  11.754   6.066 -0.3867  0.4616 -2.0777
  228MOL0     H30718   2.585  11.585   6.079  2.6039 -0.4698 -0.0889
  228MOL0     H30719   2.502  11.547   5.834 -4.6692 -0.7792 -0.6151
  228MOL0     H30720   2.466  11.721   5.827  1.9036  0.1015 -0.4340
  228MOL0     H30721   2.349  11.528   6.029  0.2727  0.6689  1.6095
  228MOL0     H30722   2.306  11.692   6.023  1.6020 -0.4978 -0.3020
  228MOL0     H30723   2.256  11.661   5.774  0.5079 -2.1077 -1.3503
  228MOL0     H30724   2.255  11.488   5.814 -0.2321  0.2446 -0.5813
  228MOL0     H30725   2.094  11.547   6.006 -2.5684 -2.2770 -0.6935
  228MOL0     H30726   2.076  11.705   5.936  2.0885  0.5037  1.9951
  228MOL0     H30727   2.023  11.462   5.777  3.1231  1.7495 -1.5534
  228MOL0     H30728   1.968  11.629   5.729 -0.0858 -2.3661 -2.2452
  228MOL0     H30729   1.855  11.445   5.941 -0.3263 -1.7109 -0.1717
  228MOL0     H30730   1.841  11.629   5.950  0.7728  1.0938 -2.4075
  228MOL0     H30731   1.799  11.341   5.691  0.4989 -0.1575 -4.8999
  228MOL0     H30732   1.468  11.327   5.557 -1.8372 -1.0285 -2.3688
  228MOL0     H30733   1.523  11.430   5.427 -1.0909 -3.0995 -0.8648
  228MOL0     H30734   1.716  11.315   5.372 -1.5240  0.2879  0.0428
  228MOL0     H30735   1.721  11.240   5.531 -3.8135  2.3337  5.1109
  228MOL0     H30736   1.484  11.174   5.367 -1.6681 -1.7846 -1.3838
  228MOL0     H30737   1.591  11.067   5.459 -3.8504  0.2895 -0.7131
  228MOL0     H30738   1.643  11.171   5.185  3.2616  2.0797  0.3921
  228MOL0     H30739   1.630  11.005   5.231 -2.7442  0.9364  0.0735
  228MOL0     H30740   2.048  11.006   5.311  0.7297 -1.2986 -0.8152
  228MOL0     H30741   2.213  10.968   5.121 -0.6073  1.6265  0.4947
  228MOL0     H30742   2.317  11.103   4.720 -0.7602  0.3610 -1.8431
  228MOL0     H30743   2.473  11.118   4.543 -2.7428  1.3185  0.9059
  228MOL0     H30744   2.649  11.039   4.385  3.0089 -1.1741  0.2322
  228MOL0     H30745   2.645  10.854   4.364  0.2627  1.2079  4.1928
  228MOL0     H30746   2.672  10.879   4.138 -1.0805 -1.2399  1.4629
  228MOL0     H30747   2.610  11.048   4.148 -2.2862 -1.1635  1.6982
  228MOL0     H30748   2.833  11.076   4.301 -1.4033 -1.7436  2.1234
  228MOL0     H30749   2.886  10.938   4.202 -1.7912 -1.0506  3.5980
  228MOL0     H30750   2.766  11.199   4.094 -0.1021  0.0703  1.5491
  228MOL0     H30751   2.860  11.102   3.990 -0.1075  1.1419 -0.4530
  228MOL0     H30752   2.959  11.273   4.209  3.9605  0.5396  0.8022
  228MOL0     H30753   3.008  11.262   4.037 -2.3384 -0.2688 -0.3570
  228MOL0     H30754   3.078  11.061   4.242 -4.4457  0.0222 -0.5778
  228MOL0     H30755   3.083  11.032   4.068 -2.8719 -1.4767  1.0468
  228MOL0     H30756   3.207  11.274   4.203  1.1235 -0.0562  1.2311
  228MOL0     H30757   3.241  11.228   4.042 -0.8222  0.4384  0.8559
  228MOL0     H30758   3.433  11.171   4.188 -0.0539 -0.4740  1.5888
  228MOL0     H30759   3.322  11.056   4.275 -3.2610 -1.0414 -0.3770
  228MOL0     H30760   2.249  10.819   4.322 -1.3728 -0.8758  1.1239
  228MOL0     H30761   2.095  10.803   4.535 -1.2212  2.5377  1.0125
  228MOL0     H30762   1.886  10.958   4.846 -0.3280 -0.5297  0.0889
  228MOL0     H30763   1.724  11.013   5.031 -0.0618 -2.5930 -3.3598
  228MOL0     H30764   2.752  11.355   5.760  1.1668 -0.9983 -0.3968
  228MOL0     H30765   2.915  11.282   5.581 -0.4720  0.4644 -0.2385
  228MOL0     H30766   3.548  11.287   5.657  2.5045  0.2885  0.5666
  228MOL0     H30767   3.721  11.290   5.511 -0.1442 -3.9422 -3.0301
  228MOL0     H30768   3.835  11.262   5.108  0.1671 -1.4554  0.0878
  228MOL0     H30769   3.662  11.223   5.114 -0.8970  1.8670  0.8007
  228MOL0     H30770   3.682  11.029   5.215 -0.2974 -0.2527 -3.6806
  228MOL0     H30771   3.834  11.081   5.303  0.9925 -0.4952 -0.1231
  228MOL0     H30772   3.965  11.026   5.137  0.6931 -2.5155 -2.2402
  228MOL0     H30773   3.844  11.053   5.004 -0.3277 -0.4398 -2.4677
  228MOL0     H30774   3.881  10.798   5.170  3.5244  2.2416 -0.1446
  228MOL0     H30775   3.723  10.852   5.100 -0.4352  0.0820 -1.0692
  228MOL0     H30776   3.918  10.724   4.756 -2.0180 -3.3712  1.4685
  228MOL0     H30777   3.480  11.320   5.177 -3.0906 -1.1331  0.2732
  228MOL0     H30778   3.177  11.256   5.377  1.6948 -3.1209 -1.5902
  228MOL0     H30779   3.194  11.413   5.298  2.5662  1.3834 -1.3960
  228MOL0     H30780   3.248  11.252   5.223  0.4438  2.0627 -1.4342
  229MOL0     O30781   9.064   9.704  10.340 -0.5375  0.1271 -0.0852
  229MOL0     C30782   9.042   9.615  10.422  0.0482 -0.1430  0.0113
  229MOL0     O30783   9.059   9.618  10.560 -0.1856 -0.1512 -0.3517
  229MOL0     C30784   9.057   9.743  10.621 -0.6274 -0.7413 -0.1655
  229MOL0     C30785   8.934   9.791  10.685  0.4075  0.4487  0.0488
  229MOL0     C30786   8.929   9.920  10.751  0.5271 -0.1471 -0.4020
  229MOL0     C30787   9.052   9.980  10.751  0.7030 -0.3833  0.0609
  229MOL0     O30788   9.063  10.102  10.805  0.0855 -0.1401 -0.7717
  229MOL0     C30789   9.066  10.203  10.705  0.1226 -0.5101  0.6417
  229MOL0     C30790   9.179  10.310  10.730 -0.2544 -0.2761 -0.1703
  229MOL0     C30791   9.169  10.439  10.644  0.2123  0.3816  0.0672
  229MOL0     C30792   9.296  10.505  10.652 -1.0952  0.1673 -0.2051
  229MOL0     C30793   9.338  10.581  10.781 -0.6203  0.4839 -0.4137
  229MOL0     C30794   9.276  10.720  10.808 -0.5670 -0.3827  0.0360
  229MOL0     C30795   9.369  10.846  10.787 -0.2356  0.4738  0.0473
  229MOL0     C30796   9.472  10.877  10.892 -0.5659 -0.7840  0.2056
  229MOL0     N30797   9.425  10.987  10.972  0.7232 -0.0871  0.3974
  229MOL0     C30798   9.470  11.114  10.976 -0.0014 -0.8436 -0.2788
  229MOL0     C30799   9.409  11.190  11.064 -0.1828 -1.0783  1.2759
  229MOL0     C30800   9.447  11.331  11.111 -0.2027  0.5803 -0.7923
  229MOL0     C30801   9.440  11.442  11.004 -0.7723 -0.1112 -1.8519
  229MOL0     C30802   9.295  11.471  10.962  0.6063 -0.5142  0.2173
  229MOL0     C30803   9.233  11.382  10.847  0.2110  0.3951  0.0826
  229MOL0     O30804   9.332  11.329  10.754 -0.1800  0.1883  0.4522
  229MOL0     C30805   9.298  11.224  10.669  0.0015 -0.7151 -1.7584
  229MOL0     C30806   9.169  11.173  10.651  0.2712  0.2856 -1.2477
  229MOL0     C30807   9.137  11.071  10.561 -0.3495  0.1548  0.3917
  229MOL0     C30808   9.240  11.014  10.474  0.7130  0.9648  0.2250
  229MOL0     C30809   9.202  10.910  10.377 -0.7168 -0.8490 -0.9060
  229MOL0     O30810   9.299  10.862  10.301 -0.5391  0.1580 -0.2866
  229MOL0     C30811   9.299  10.728  10.261 -0.6951  0.0779  0.2559
  229MOL0     C30812   9.406  10.693  10.167  0.3385 -0.3185 -0.0797
  229MOL0     C30813   9.421  10.568  10.121  0.4619 -0.1623 -0.4143
  229MOL0     C30814   9.329  10.471  10.169 -0.3388 -0.2131  0.6946
  229MOL0     O30815   9.341  10.342  10.125  0.4529 -0.1000  0.3084
  229MOL0     C30816   9.393  10.263  10.226  0.7123  0.8144 -0.8669
  229MOL0     C30817   9.356  10.119  10.191 -0.1559 -0.9418 -0.3529
  229MOL0     C30818   9.198  10.102  10.194 -0.7313 -0.2739 -0.7174
  229MOL0     C30819   9.135  10.099  10.327  0.0392 -0.4417 -0.6741
  229MOL0     C30820   8.980  10.116  10.319  0.3556  0.1233  0.2136
  229MOL0     C30821   8.917   9.978  10.340 -0.5770  0.1988 -0.5545
  229MOL0     C30822   8.763   9.983  10.320  0.7390 -0.1226  0.1209
  229MOL0     C30823   8.727   9.910  10.195 -0.7081  0.0118 -0.7200
  229MOL0    Cl30824   8.554   9.922  10.177 -0.4692  0.4977 -0.6295
  229MOL0     C30825   9.224  10.503  10.255 -0.1674  0.2568 -0.0648
  229MOL0     C30826   9.214  10.626  10.312 -0.6248  0.8948 -0.3798
  229MOL0     O30827   9.090  10.863  10.384 -0.5793  0.2338  0.0111
  229MOL0     C30828   9.375  11.061  10.504  0.1067 -0.1155 -0.1578
  229MOL0     C30829   9.400  11.165  10.597 -0.1415 -0.4459  0.3671
  229MOL0     N30830   9.298  11.103  11.106  0.4557  0.3833 -0.6915
  229MOL0     N30831   9.315  10.988  11.057  0.7402 -0.5692 -0.0735
  229MOL0     C30832   9.170   9.931  10.699  0.2537  0.5904 -0.2298
  229MOL0     C30833   9.171   9.815  10.631  0.0313 -0.0690 -0.3111
  229MOL0     C30834   8.980   9.490  10.366  0.3150  0.5453 -0.3231
  229MOL0     C30835   8.862   9.499  10.291 -0.4174 -0.1746  0.2267
  229MOL0     C30836   8.806   9.383  10.239 -0.1319  0.5087  0.4100
  229MOL0     C30837   8.866   9.251  10.253 -0.2670 -0.2450 -0.2649
  229MOL0     O30838   8.828   9.132  10.195  0.3207 -0.1769  0.0095
  229MOL0     C30839   8.706   9.115  10.139 -0.9965  1.5061 -0.4763
  229MOL0     C30840   8.600   9.091  10.249 -0.0018 -1.1447  0.5764
  229MOL0     C30841   8.453   9.117  10.202  0.3465  0.2223  0.9583
  229MOL0     C30842   8.382   9.238  10.277 -0.6681  0.2141 -0.0470
  229MOL0     C30843   8.248   9.272  10.214 -1.1180  0.2337  0.3859
  229MOL0     C30844   8.139   9.293  10.154  0.5066 -0.3919 -0.5431
  229MOL0     C30845   8.989   9.248  10.328 -0.2119 -0.4207 -0.6012
  229MOL0     C30846   9.048   9.367  10.384  0.1379  0.8221 -0.6679
  229MOL0     C30847   9.180   9.357  10.462 -0.1727 -0.7107 -0.4782
  229MOL0     H30848   8.843   9.733  10.674  0.4213  0.8369 -3.2031
  229MOL0     H30849   8.841   9.964  10.795  0.7058 -0.1062 -0.0837
  229MOL0     H30850   9.072  10.165  10.602  0.2475  0.8188  0.1371
  229MOL0     H30851   8.975  10.263  10.715  0.6743  0.7459 -1.2465
  229MOL0     H30852   9.271  10.254  10.713 -1.8014 -3.4968  1.0913
  229MOL0     H30853   9.180  10.351  10.831  0.7458 -1.1273  0.1761
  229MOL0     H30854   9.085  10.496  10.683 -1.2002 -1.4008 -0.2471
  229MOL0     H30855   9.144  10.402  10.544  3.1177  1.4437 -1.1644
  229MOL0     H30856   9.379  10.441  10.623  0.4960  0.9078  2.3613
  229MOL0     H30857   9.292  10.591  10.584 -0.0268  1.6774  1.5095
  229MOL0     H30858   9.310  10.513  10.862 -3.3644 -1.5231 -2.8573
  229MOL0     H30859   9.447  10.584  10.778 -0.6007 -0.3695 -0.5419
  229MOL0     H30860   9.181  10.724  10.753  0.0355 -0.9315 -1.0724
  229MOL0     H30861   9.252  10.721  10.915 -3.4618 -1.5418 -0.4931
  229MOL0     H30862   9.310  10.936  10.770 -1.2028 -0.1601 -0.0393
  229MOL0     H30863   9.414  10.840  10.687 -0.1496 -0.9868  0.1573
  229MOL0     H30864   9.499  10.793  10.957  1.3977  0.3956  1.0163
  229MOL0     H30865   9.560  10.914  10.838 -1.7638  2.0536  0.0559
  229MOL0     H30866   9.554  11.151  10.918  2.2362 -0.7682  2.7633
  229MOL0     H30867   9.386  11.362  11.196 -1.0882 -0.4252 -1.0436
  229MOL0     H30868   9.542  11.324  11.165 -1.8561  3.0844  2.8653
  229MOL0     H30869   9.487  11.525  11.056  0.6082 -3.0218  2.0689
  229MOL0     H30870   9.493  11.409  10.915 -3.2097 -3.4545 -2.2844
  229MOL0     H30871   9.314  11.570  10.920  1.2114  1.1556  4.0876
  229MOL0     H30872   9.229  11.489  11.047 -1.1543  1.5854 -1.4981
  229MOL0     H30873   9.146  11.435  10.805 -0.9934  0.3216  2.2892
  229MOL0     H30874   9.207  11.301  10.916 -1.0059 -0.8812 -1.7734
  229MOL0     H30875   9.082  11.223  10.692 -0.4746 -0.5854 -1.7236
  229MOL0     H30876   9.033  11.048  10.539  1.1885 -3.6446 -4.6259
  229MOL0     H30877   9.469  10.771  10.124  0.7743 -1.2105 -1.1068
  229MOL0     H30878   9.489  10.552  10.039  1.0900  1.6805 -0.3072
  229MOL0     H30879   9.502  10.274  10.231  0.5349  3.4123 -1.1817
  229MOL0     H30880   9.350  10.281  10.325 -0.1969 -3.5327 -0.2455
  229MOL0     H30881   9.403  10.083  10.099  0.7257  1.2604 -0.8178
  229MOL0     H30882   9.394  10.059  10.275 -3.3008 -0.4640  1.6021
  229MOL0     H30883   9.150  10.174  10.128 -2.8106  1.0050  1.9900
  229MOL0     H30884   9.179  10.001  10.156 -0.6957 -0.8739  0.7950
  229MOL0     H30885   9.166  10.181  10.393 -1.3677 -0.6318  0.2818
  229MOL0     H30886   9.163  10.009  10.383 -2.1535  1.9999  5.1659
  229MOL0     H30887   8.949  10.142  10.217  0.2348 -1.7425 -0.2455
  229MOL0     H30888   8.944  10.197  10.384  4.1835  2.3330 -0.1208
  229MOL0     H30889   8.960   9.911  10.265  2.5071  1.3690  0.0270
  229MOL0     H30890   8.940   9.932  10.437 -3.1121 -0.4136 -0.1832
  229MOL0     H30891   8.740  10.088  10.303  0.2471 -0.3836 -0.8918
  229MOL0     H30892   8.703   9.946  10.404 -1.1318 -0.6286 -1.3696
  229MOL0     H30893   8.783   9.950  10.111  0.3937 -1.3491 -0.6820
  229MOL0     H30894   8.760   9.807  10.212 -3.4064 -1.0993 -1.7519
  229MOL0     H30895   9.149  10.427  10.274  0.4975 -0.7121 -1.1661
  229MOL0     H30896   9.131  10.645  10.380 -0.6636 -3.0695  0.9312
  229MOL0     H30897   9.461  11.018  10.453  3.1742  2.4710  2.4566
  229MOL0     H30898   9.502  11.197  10.612 -0.6841  1.2256  0.7744
  229MOL0     H30899   9.258   9.994  10.699 -0.3498  1.4949  1.5993
  229MOL0     H30900   9.263   9.770  10.595  0.1630  1.0934 -1.4851
  229MOL0     H30901   8.796   9.585  10.290  1.0955  1.0717 -2.1810
  229MOL0     H30902   8.713   9.408  10.189  0.0793  2.4308  0.9242
  229MOL0     H30903   8.716   9.028  10.073  0.5414  1.3420 -0.0738
  229MOL0     H30904   8.673   9.203  10.084  0.4304  2.3059 -0.1093
  229MOL0     H30905   8.611   9.173  10.320 -3.0130 -0.5830  0.5610
  229MOL0     H30906   8.621   8.993  10.292  2.7591 -1.7361 -1.7812
  229MOL0     H30907   8.399   9.031  10.241 -3.5123  2.0340  0.0506
  229MOL0     H30908   8.443   9.127  10.094  2.4795  3.6174  0.8981
  229MOL0     H30909   8.397   9.217  10.383  2.4226 -4.1067 -1.0898
  229MOL0     H30910   8.441   9.327  10.255 -2.3773  1.2199 -0.8316
  229MOL0     H30911   8.054   9.314  10.091  0.5643 -0.5820 -0.6847
  229MOL0     H30912   9.043   9.154  10.325  1.9233  0.7286 -0.2516
  229MOL0     H30913   9.221   9.259  10.437 -1.0068 -0.9652 -0.8994
  229MOL0     H30914   9.252   9.437  10.447 -0.3978  0.0140  1.9034
  229MOL0     H30915   9.162   9.366  10.570 -2.1338  1.7870 -0.9094
  230MOL0     O30916   0.275   1.488   3.064 -0.1175 -0.2301 -0.1288
  230MOL0     C30917   0.334   1.590   3.092 -0.0598  0.0822  0.6157
  230MOL0     O30918   0.458   1.634   3.053  0.3897  0.0300 -0.2863
  230MOL0     C30919   0.521   1.545   2.974 -0.8519 -0.0265  0.1756
  230MOL0     C30920   0.492   1.520   2.838 -0.2924 -0.3023 -0.7458
  230MOL0     C30921   0.560   1.428   2.761 -0.3835  0.6989  0.2219
  230MOL0     C30922   0.672   1.362   2.816  0.3158 -0.8135 -0.3032
  230MOL0     O30923   0.746   1.268   2.752  0.0315  0.7342  0.3776
  230MOL0     C30924   0.893   1.276   2.769  0.3533  0.4011  0.1255
  230MOL0     C30925   0.957   1.140   2.717  0.3814 -0.9671 -0.0837
  230MOL0     C30926   1.116   1.156   2.726 -0.2103 -0.4594  0.0528
  230MOL0     C30927   1.168   1.154   2.863 -0.2493 -0.1540  0.2234
  230MOL0     C30928   1.314   1.212   2.865  0.5261  0.9498  0.1026
  230MOL0     C30929   1.391   1.174   3.001  0.5373 -0.6669  0.0335
  230MOL0     C30930   1.529   1.216   3.000 -1.3072  0.5355  0.7868
  230MOL0     C30931   1.615   1.109   2.923 -0.5879 -0.1960  0.5800
  230MOL0     N30932   1.749   1.167   2.907 -0.9646 -0.0707  0.8733
  230MOL0     C30933   1.845   1.179   3.003 -0.4321 -0.2706  1.0840
  230MOL0     C30934   1.948   1.236   2.930 -0.1522 -0.9281 -0.3450
  230MOL0     C30935   2.086   1.274   2.991  0.3437  0.7354 -0.9822
  230MOL0     C30936   2.138   1.181   3.095  0.3403 -0.0432  0.6048
  230MOL0     C30937   2.287   1.191   3.123  0.1585  0.7162 -0.1726
  230MOL0     C30938   2.326   1.059   3.189  0.5667 -0.2486 -0.5533
  230MOL0     O30939   2.458   1.067   3.247 -0.4132 -1.4414 -0.8171
  230MOL0     C30940   2.498   0.991   3.355 -0.8375 -0.6014  0.6247
  230MOL0     C30941   2.457   0.864   3.366 -0.3451  0.5213 -0.0609
  230MOL0     C30942   2.517   0.786   3.472  1.2457  0.8104 -0.7239
  230MOL0     C30943   2.603   0.841   3.568 -1.1033 -0.1703 -0.0904
  230MOL0     C30944   2.662   0.756   3.676 -0.6520  0.1943 -0.5304
  230MOL0     O30945   2.738   0.827   3.769  0.9846 -0.1149  0.5304
  230MOL0     C30946   2.813   0.755   3.864 -0.8915  0.0382  0.3022
  230MOL0     C30947   2.747   0.700   3.966 -0.5801 -0.0251 -1.3511
  230MOL0     C30948   2.808   0.631   4.070 -0.6028  0.1792 -0.8702
  230MOL0     C30949   2.944   0.611   4.053  0.1477  0.0916  0.0161
  230MOL0     O30950   3.001   0.543   4.154  0.1398 -0.1697  0.0954
  230MOL0     C30951   3.138   0.512   4.170  0.2671  0.7760 -0.1855
  230MOL0     C30952   3.167   0.362   4.186 -0.1265  0.0356 -0.5448
  230MOL0     C30953   3.109   0.291   4.074 -0.5096 -0.1878  0.2344
  230MOL0     C30954   3.155   0.143   4.070  0.2096  0.2572  1.2911
  230MOL0     C30955   3.079   0.064   3.961  0.0708  0.4408 -0.2879
  230MOL0     C30956   3.175  -0.053   3.917 -0.7978  0.2513  0.6371
  230MOL0     C30957   3.272  -0.000   3.812  0.2006  0.0072 -0.0859
  230MOL0     C30958   3.213   0.005   3.667 -1.1903 -0.0076  0.1108
  230MOL0    Cl30959   3.356   0.035   3.566 -0.0318 -0.2278  0.0463
  230MOL0     C30960   3.017   0.671   3.951  0.1289 -0.3848 -0.0637
  230MOL0     C30961   2.949   0.754   3.857  1.0521  0.2286 -1.1125
  230MOL0     O30962   2.620   0.637   3.698 -0.4711  0.1836  0.0595
  230MOL0     C30963   2.627   0.971   3.564 -0.5737  0.3025  0.1210
  230MOL0     C30964   2.581   1.045   3.454  0.3800  0.0472  0.3487
  230MOL0     N30965   1.917   1.253   2.798 -0.0276 -0.4715 -0.1446
  230MOL0     N30966   1.794   1.207   2.786 -0.6651 -0.1452 -0.2443
  230MOL0     C30967   0.705   1.389   2.953 -0.3323 -0.5598 -0.0412
  230MOL0     C30968   0.636   1.484   3.029  0.0498 -0.3031 -0.1476
  230MOL0     C30969   0.268   1.691   3.185 -0.9875  0.1324  0.0168
  230MOL0     C30970   0.348   1.762   3.280 -0.0025  0.2511  0.7705
  230MOL0     C30971   0.285   1.844   3.372 -0.2781 -0.0370  0.9705
  230MOL0     C30972   0.146   1.859   3.377  0.0489  0.7305  0.7238
  230MOL0     O30973   0.062   1.926   3.465 -0.9055 -0.8146  0.3197
  230MOL0     C30974   0.130   1.994   3.568 -0.6994 -0.1993  0.6775
  230MOL0     C30975   0.027   2.063   3.653 -0.4720  0.0333 -0.2539
  230MOL0     C30976   0.098   2.132   3.781  0.9177 -0.1403 -0.1013
  230MOL0     C30977   0.014   2.137   3.908 -0.0445  0.5762  0.2958
  230MOL0     C30978   0.096   2.200   4.009 -0.9367  0.3148 -0.1170
  230MOL0     C30979   0.154   2.258   4.099 -0.2174  0.1086 -1.2793
  230MOL0     C30980   0.072   1.793   3.270 -0.3409 -0.1921 -0.5518
  230MOL0     C30981   0.131   1.721   3.171  0.9301 -0.2797  0.6977
  230MOL0     C30982   0.045   1.667   3.054  0.2098 -0.4028  0.7755
  230MOL0     H30983   0.411   1.565   2.781 -0.0051  1.3555  0.1015
  230MOL0     H30984   0.511   1.403   2.667  0.4632 -1.2125  0.2475
  230MOL0     H30985   0.931   1.356   2.704 -1.3111 -0.0972 -1.5650
  230MOL0     H30986   0.924   1.289   2.873  2.1689 -4.0719  0.3402
  230MOL0     H30987   0.930   1.123   2.612  0.7239 -2.3613  0.0406
  230MOL0     H30988   0.912   1.062   2.779 -2.0549  1.0536  0.8945
  230MOL0     H30989   1.154   1.247   2.678 -2.8019  0.4346 -0.4841
  230MOL0     H30990   1.158   1.075   2.666  1.1354 -0.1541  0.5407
  230MOL0     H30991   1.108   1.209   2.937 -1.9320 -0.4349 -0.8865
  230MOL0     H30992   1.178   1.052   2.901  1.3170 -0.1327 -0.0742
  230MOL0     H30993   1.367   1.170   2.780  0.4963 -0.1798  0.6301
  230MOL0     H30994   1.305   1.321   2.860 -0.4360  0.8246 -2.0790
  230MOL0     H30995   1.342   1.230   3.081  0.9661  2.2776 -1.6269
  230MOL0     H30996   1.409   1.069   3.027  1.3519 -0.6338 -0.3434
  230MOL0     H30997   1.567   1.210   3.103  1.1021 -2.4173 -0.1025
  230MOL0     H30998   1.526   1.314   2.953  0.0056  0.1235 -0.2133
  230MOL0     H30999   1.617   1.019   2.986 -0.0868 -2.2239 -2.1428
  230MOL0     H31000   1.575   1.061   2.834 -0.6403 -0.3429  0.6808
  230MOL0     H31001   1.847   1.147   3.106  1.0269 -3.6034  0.1563
  230MOL0     H31002   2.159   1.280   2.910 -0.1083 -0.3593 -1.5034
  230MOL0     H31003   2.078   1.371   3.040 -2.1002 -0.0099  0.2760
  230MOL0     H31004   2.083   1.201   3.187 -0.9360 -0.0476 -0.1458
  230MOL0     H31005   2.122   1.077   3.065  0.1776  0.4218 -1.0044
  230MOL0     H31006   2.309   1.272   3.193  2.5169  0.3328 -0.3835
  230MOL0     H31007   2.340   1.187   3.027  1.5570 -3.4794  0.5714
  230MOL0     H31008   2.326   0.972   3.122 -0.6302 -0.3950 -0.3749
  230MOL0     H31009   2.260   1.039   3.274  1.2332 -2.2540 -0.4569
  230MOL0     H31010   2.381   0.831   3.296  2.7306  0.0449 -3.4686
  230MOL0     H31011   2.481   0.684   3.465 -1.6699  1.8401 -3.9202
  230MOL0     H31012   2.639   0.703   3.973 -0.4710  1.4551  0.6027
  230MOL0     H31013   2.754   0.582   4.151 -1.7217 -0.3547 -1.9132
  230MOL0     H31014   3.204   0.545   4.089 -1.6318 -2.5869 -3.4255
  230MOL0     H31015   3.172   0.563   4.260 -1.5573 -0.1956  1.1258
  230MOL0     H31016   3.275   0.347   4.192 -0.0389 -0.0525 -1.9910
  230MOL0     H31017   3.124   0.322   4.278  0.2930  1.0657  0.1219
  230MOL0     H31018   3.000   0.301   4.074 -0.3136  4.2999 -2.6219
  230MOL0     H31019   3.152   0.339   3.986  1.4214  1.1601  1.8319
  230MOL0     H31020   3.133   0.085   4.161 -4.8193 -0.2752  0.0348
  230MOL0     H31021   3.260   0.141   4.041 -0.3521  0.5142 -0.9044
  230MOL0     H31022   3.035   0.125   3.881 -0.4838  0.2206 -0.1588
  230MOL0     H31023   2.991   0.015   4.004 -0.1048  0.5588 -0.5049
  230MOL0     H31024   3.230  -0.093   4.003 -1.8612 -1.1671  0.6869
  230MOL0     H31025   3.117  -0.138   3.881 -0.7685 -0.0411  1.2721
  230MOL0     H31026   3.356  -0.069   3.803 -1.0334 -1.3757 -1.4554
  230MOL0     H31027   3.309   0.100   3.837 -0.9353  0.5937 -0.6753
  230MOL0     H31028   3.175  -0.087   3.622  0.2820  0.4580 -2.2307
  230MOL0     H31029   3.137   0.083   3.661 -1.0326  0.0467 -1.4287
  230MOL0     H31030   3.125   0.668   3.942  0.4243  1.6056  1.9983
  230MOL0     H31031   3.011   0.799   3.780  1.5862  1.7993  0.1785
  230MOL0     H31032   2.678   1.021   3.645  1.0791 -0.0766 -0.6293
  230MOL0     H31033   2.602   1.152   3.450 -0.5379  0.2743  1.1671
  230MOL0     H31034   0.782   1.328   2.997  1.5931  1.9927  0.3803
  230MOL0     H31035   0.666   1.511   3.129 -0.1440 -1.0581  0.1221
  230MOL0     H31036   0.455   1.751   3.269 -0.0182  1.0380 -0.2389
  230MOL0     H31037   0.350   1.883   3.450  1.1327 -2.1737  0.9593
  230MOL0     H31038   0.214   2.053   3.530  0.5421 -1.5115  1.2668
  230MOL0     H31039   0.185   1.923   3.631 -1.9678 -0.0555  1.9963
  230MOL0     H31040  -0.048   1.988   3.680 -2.3625  2.3102  1.1880
  230MOL0     H31041  -0.021   2.144   3.598 -0.7766 -0.7226 -1.1188
  230MOL0     H31042   0.135   2.226   3.739 -1.2732 -0.1012 -2.1024
  230MOL0     H31043   0.182   2.067   3.811 -0.9672 -1.6649  2.2847
  230MOL0     H31044  -0.070   2.207   3.906 -1.3354 -0.7341  3.0335
  230MOL0     H31045  -0.025   2.042   3.945  2.5414  1.0933  5.1487
  230MOL0     H31046   0.198   2.310   4.182  0.9574 -5.4438  2.1631
  230MOL0     H31047  -0.034   1.805   3.252 -1.0116 -3.3445  0.6319
  230MOL0     H31048   0.020   1.561   3.065  1.8544 -0.9087 -0.1029
  230MOL0     H31049  -0.053   1.716   3.049  0.4535  0.0456  0.2186
  230MOL0     H31050   0.110   1.666   2.967 -0.0220 -2.2682  0.6016
  231MOL0     O31051   9.103   0.439  11.365  0.3446  0.2052  0.2661
  231MOL0     C31052   9.189   0.440  11.454  0.5853  0.7247  0.5144
  231MOL0     O31053   9.205   0.539  11.542  0.3202 -0.1641 -0.4735
  231MOL0     C31054   9.102   0.630  11.544 -0.1224  1.3901 -0.6327
  231MOL0     C31055   9.139   0.767  11.537 -0.3143  0.5755  0.1616
  231MOL0     C31056   9.045   0.869  11.542 -0.2891  0.1626 -0.9618
  231MOL0     C31057   8.908   0.843  11.560  0.2581 -0.2883 -1.0611
  231MOL0     O31058   8.812   0.933  11.571  0.5054 -0.6624 -0.2711
  231MOL0     C31059   8.836   1.061  11.501  0.6549 -0.5901  0.0509
  231MOL0     C31060   8.727   1.107  11.400  0.3146  0.6750 -0.1505
  231MOL0     C31061   8.584   1.063  11.440 -0.2788  0.2093 -0.0115
  231MOL0     C31062   8.467   1.121  11.363 -0.7932 -0.1818 -0.0984
  231MOL0     C31063   8.339   1.123  11.440  0.3873 -0.1017  0.5236
  231MOL0     C31064   8.214   1.120  11.351  0.7109 -0.7604 -0.5812
  231MOL0     C31065   8.076   1.099  11.424 -0.0184 -1.0788 -0.5278
  231MOL0     C31066   7.964   1.102  11.321 -0.8763 -0.7905  0.2539
  231MOL0     N31067   7.936   1.218  11.243  0.5435 -0.2036  0.1177
  231MOL0     C31068   7.921   1.345  11.304  1.0567 -0.3245  0.8213
  231MOL0     C31069   7.918   1.432  11.193 -0.0721  0.3437 -0.1197
  231MOL0     C31070   7.897   1.581  11.205 -0.5412  0.2717  0.3870
  231MOL0     C31071   7.749   1.616  11.204  0.0132  0.7156  0.4928
  231MOL0     C31072   7.732   1.764  11.203 -0.0231 -0.0584 -0.0124
  231MOL0     C31073   7.796   1.835  11.080  0.3866 -1.0401 -0.1052
  231MOL0     O31074   7.710   1.952  11.043  0.4927  1.0006 -0.0844
  231MOL0     C31075   7.733   1.990  10.912 -0.9384  0.3047 -0.2977
  231MOL0     C31076   7.834   2.091  10.885  0.2570  1.2441  0.3898
  231MOL0     C31077   7.862   2.120  10.754  0.3567  0.6856  0.1810
  231MOL0     C31078   7.788   2.059  10.647  0.4072  0.1724  1.0277
  231MOL0     C31079   7.811   2.101  10.502  0.5826  0.0737  0.5115
  231MOL0     O31080   7.885   2.214  10.475 -0.3215  0.4714  0.3845
  231MOL0     C31081   7.882   2.264  10.346 -0.7506 -0.3365 -0.3485
  231MOL0     C31082   7.758   2.287  10.288 -0.3740 -0.2497 -0.0408
  231MOL0     C31083   7.749   2.345  10.163 -0.2334 -0.3895 -0.3095
  231MOL0     C31084   7.865   2.405  10.099 -0.1440  0.0732 -0.0255
  231MOL0     O31085   7.869   2.490   9.992  0.6884 -0.2221 -0.4594
  231MOL0     C31086   7.899   2.630  10.024 -0.2090  0.2856 -0.0274
  231MOL0     C31087   7.787   2.697  10.113 -0.0142 -0.1452  0.5721
  231MOL0     C31088   7.793   2.847  10.122  0.5908  0.0911 -0.1140
  231MOL0     C31089   7.790   2.919   9.988 -0.4878  0.2118  0.4770
  231MOL0     C31090   7.800   3.078   9.989  0.2320  0.6893  0.2766
  231MOL0     C31091   7.680   3.122  10.064  0.1767  0.2473  0.1375
  231MOL0     C31092   7.639   3.267  10.040 -0.3731 -0.1687 -0.7472
  231MOL0     C31093   7.695   3.370  10.142  0.2650  1.3994 -0.2370
  231MOL0    Cl31094   7.857   3.403  10.138 -0.4254 -0.5545 -0.1396
  231MOL0     C31095   7.991   2.384  10.170  1.0557  0.8741  0.0098
  231MOL0     C31096   7.999   2.313  10.295  1.4551  0.4945 -0.7245
  231MOL0     O31097   7.756   2.035  10.410 -0.7776  0.0101  0.5264
  231MOL0     C31098   7.693   1.964  10.679 -0.0063 -0.3427  0.1787
  231MOL0     C31099   7.665   1.933  10.808 -0.6842 -0.4148  0.5519
  231MOL0     N31100   7.938   1.362  11.071 -0.7926  0.2233  0.0665
  231MOL0     N31101   7.938   1.238  11.106  0.0611  1.8002  0.1826
  231MOL0     C31102   8.871   0.705  11.571 -0.6694 -1.7051  0.2841
  231MOL0     C31103   8.964   0.600  11.567  0.5001 -1.0359 -0.5795
  231MOL0     C31104   9.288   0.321  11.465  0.4737 -0.1446  0.6328
  231MOL0     C31105   9.361   0.306  11.589 -0.0117 -0.5005  0.1359
  231MOL0     C31106   9.439   0.196  11.623  0.1975  0.4293  0.4373
  231MOL0     C31107   9.453   0.104  11.522 -0.1552  0.5744 -0.5528
  231MOL0     O31108   9.550   0.014  11.546 -0.6306  0.5171 -0.2881
  231MOL0     C31109   9.557  -0.108  11.465  1.3386  0.8854  0.0602
  231MOL0     C31110   9.437  -0.198  11.504 -0.6431  0.4312 -0.4143
  231MOL0     C31111   9.473  -0.279  11.629  0.1898  0.0429 -0.0664
  231MOL0     C31112   9.560  -0.400  11.615 -0.7006 -1.1191 -0.3489
  231MOL0     C31113   9.494  -0.497  11.524 -0.7706  0.0454 -0.0034
  231MOL0     C31114   9.459  -0.587  11.452  0.2586 -0.7866  0.6030
  231MOL0     C31115   9.378   0.116  11.402 -0.1837  0.1753 -0.1252
  231MOL0     C31116   9.300   0.222  11.367  0.1738 -1.6115  0.2993
  231MOL0     C31117   9.235   0.228  11.225  0.0647  0.6807  0.2622
  231MOL0     H31118   9.243   0.794  11.521 -1.1099  3.2692 -1.0060
  231MOL0     H31119   9.086   0.969  11.550  1.0825 -0.4421 -0.0948
  231MOL0     H31120   8.830   1.126  11.589 -1.4101 -0.1992 -0.3180
  231MOL0     H31121   8.938   1.078  11.466 -0.6005  2.4803 -2.5081
  231MOL0     H31122   8.738   1.070  11.297 -0.2806 -0.1351  0.0737
  231MOL0     H31123   8.757   1.210  11.376  2.2030  0.7689  2.2160
  231MOL0     H31124   8.589   1.085  11.547  1.7876  2.0602 -0.4029
  231MOL0     H31125   8.574   0.955  11.424  0.7391  0.0758  0.1838
  231MOL0     H31126   8.498   1.223  11.341 -1.8434  0.0209 -0.7472
  231MOL0     H31127   8.465   1.061  11.271  2.0582 -3.0209  1.5258
  231MOL0     H31128   8.348   1.038  11.508  1.9633 -0.9894 -0.7282
  231MOL0     H31129   8.326   1.213  11.502 -2.2415 -1.0235  1.4736
  231MOL0     H31130   8.191   1.210  11.292  3.1686  0.9655  0.8972
  231MOL0     H31131   8.216   1.040  11.277 -0.1250 -2.8745  1.5355
  231MOL0     H31132   8.062   1.176  11.500  0.1233  0.8208 -2.3526
  231MOL0     H31133   8.084   1.003  11.477  0.8354 -1.0155 -0.5378
  231MOL0     H31134   7.981   1.026  11.245  1.3006  0.8640 -1.0372
  231MOL0     H31135   7.872   1.080  11.377  0.4120  0.4392  3.0229
  231MOL0     H31136   7.908   1.365  11.409 -2.2948 -0.5039  0.5551
  231MOL0     H31137   7.956   1.624  11.286 -2.6167  1.2637  1.4321
  231MOL0     H31138   7.926   1.612  11.104 -0.0454 -1.7348 -0.1270
  231MOL0     H31139   7.700   1.557  11.126  2.9849 -1.5587  0.1720
  231MOL0     H31140   7.705   1.590  11.301 -2.4825  3.9387  0.3926
  231MOL0     H31141   7.763   1.804  11.300 -3.4213  0.0736  1.1471
  231MOL0     H31142   7.628   1.798  11.208  0.0547  0.0367  1.5905
  231MOL0     H31143   7.782   1.770  10.993 -0.4031 -2.2341  0.8780
  231MOL0     H31144   7.896   1.874  11.100  0.5715 -1.9855  0.8815
  231MOL0     H31145   7.889   2.149  10.959  1.0451  1.9280 -0.7078
  231MOL0     H31146   7.943   2.188  10.727  1.8849 -0.3895  1.8808
  231MOL0     H31147   7.672   2.262  10.349 -0.7058  1.0870  0.0664
  231MOL0     H31148   7.645   2.344  10.130 -0.3461 -1.2723  0.0453
  231MOL0     H31149   7.990   2.635  10.084  0.5857  1.5941 -1.2828
  231MOL0     H31150   7.924   2.690   9.935  0.4784 -1.9319 -1.4178
  231MOL0     H31151   7.692   2.675  10.063 -1.2639  2.2598  1.6511
  231MOL0     H31152   7.778   2.649  10.211  2.2712 -1.2356  0.2985
  231MOL0     H31153   7.701   2.878  10.174  0.6969  1.0429 -0.4811
  231MOL0     H31154   7.884   2.874  10.176  1.9909  0.0986 -2.3534
  231MOL0     H31155   7.704   2.891   9.928 -0.7623  2.2500 -0.1551
  231MOL0     H31156   7.876   2.882   9.932 -1.7991 -4.1157  0.9624
  231MOL0     H31157   7.804   3.118   9.887  1.6530 -4.9482 -2.3245
  231MOL0     H31158   7.894   3.101  10.040  0.0124 -0.0635  1.0492
  231MOL0     H31159   7.594   3.057  10.051 -0.4203  0.4985  2.4407
  231MOL0     H31160   7.705   3.102  10.168  4.3371 -2.2764 -1.0916
  231MOL0     H31161   7.530   3.264  10.035 -0.5372  2.5811 -0.2643
  231MOL0     H31162   7.679   3.303   9.945  1.8642  0.1475  0.2263
  231MOL0     H31163   7.651   3.468  10.118  0.5883  1.9147  1.1440
  231MOL0     H31164   7.673   3.335  10.244  0.8736 -5.6259 -2.0342
  231MOL0     H31165   8.075   2.423  10.113  0.2873 -0.8615 -2.5075
  231MOL0     H31166   8.097   2.306  10.341  0.0518 -0.7937  2.4372
  231MOL0     H31167   7.631   1.916  10.604  1.4208 -1.2437 -0.4656
  231MOL0     H31168   7.589   1.856  10.821  0.2783 -1.7171 -1.0931
  231MOL0     H31169   8.767   0.679  11.586 -0.5723 -2.1768  0.1641
  231MOL0     H31170   8.920   0.501  11.563  0.2845 -1.0498  1.1508
  231MOL0     H31171   9.355   0.389  11.659 -1.9820  0.4778 -1.0882
  231MOL0     H31172   9.490   0.180  11.718  2.3040 -1.0582 -0.8600
  231MOL0     H31173   9.645  -0.172  11.461  1.0388  0.4643  0.0639
  231MOL0     H31174   9.541  -0.089  11.359  0.0030 -0.7023 -0.0606
  231MOL0     H31175   9.411  -0.267  11.423 -0.7074  0.1242 -0.1344
  231MOL0     H31176   9.344  -0.151  11.534 -0.7042  0.0446  0.0255
  231MOL0     H31177   9.374  -0.303  11.669  0.6538  2.6127  3.0956
  231MOL0     H31178   9.514  -0.212  11.705  0.4603 -0.8089  0.5669
  231MOL0     H31179   9.651  -0.363  11.568  0.8261 -4.1498 -0.0069
  231MOL0     H31180   9.577  -0.439  11.716  1.5764  0.0523 -0.2055
  231MOL0     H31181   9.417  -0.662  11.388  0.2092 -0.6528  0.4785
  231MOL0     H31182   9.402   0.045  11.324 -0.0541 -0.7986  0.7923
  231MOL0     H31183   9.299   0.184  11.148 -1.6108  0.5533 -1.1308
  231MOL0     H31184   9.146   0.164  11.221  0.8314 -0.4009 -3.0137
  231MOL0     H31185   9.222   0.332  11.194 -1.7777  0.4318  0.0814
  232MOL0     O31186   3.820   0.363   4.795 -0.2123 -0.2582  0.4165
  232MOL0     C31187   3.737   0.340   4.703  0.0161  0.1098  0.9924
  232MOL0     O31188   3.699   0.216   4.663 -0.4024  0.2518  0.4620
  232MOL0     C31189   3.758   0.113   4.729  0.7864 -0.3825  0.6208
  232MOL0     C31190   3.766   0.112   4.872 -0.4471 -0.1965  0.6021
  232MOL0     C31191   3.824   0.011   4.929 -0.0515  1.5570  0.3328
  232MOL0     C31192   3.864  -0.104   4.858 -0.0783 -0.6591  0.3249
  232MOL0     O31193   3.958  -0.193   4.900 -0.1916 -0.0867  0.1680
  232MOL0     C31194   4.100  -0.152   4.892  0.9165 -0.4414  0.1537
  232MOL0     C31195   4.167  -0.204   4.763 -0.1526 -0.5787  0.0540
  232MOL0     C31196   4.314  -0.165   4.776 -1.1273  0.3308  0.5428
  232MOL0     C31197   4.389  -0.227   4.660 -0.3909 -0.4283 -0.2900
  232MOL0     C31198   4.542  -0.199   4.668  0.1379 -0.0475 -1.0403
  232MOL0     C31199   4.580  -0.053   4.636  0.5948 -0.0838 -0.3556
  232MOL0     C31200   4.731  -0.027   4.634 -1.0388 -1.1689 -0.1298
  232MOL0     C31201   4.768   0.122   4.614 -1.2747 -0.7283  0.0612
  232MOL0     N31202   4.669   0.210   4.535  0.4884  0.1279  0.0056
  232MOL0     C31203   4.653   0.220   4.399 -0.0649  0.2069  0.1055
  232MOL0     C31204   4.544   0.295   4.375  0.6237  0.9885 -0.5848
  232MOL0     C31205   4.491   0.336   4.241  0.1873  0.4220 -0.7369
  232MOL0     C31206   4.501   0.487   4.231  0.3677  0.1369 -0.1313
  232MOL0     C31207   4.439   0.530   4.097 -0.3731  0.2809  0.1725
  232MOL0     C31208   4.428   0.681   4.083 -0.3848  0.3162  0.8046
  232MOL0     O31209   4.360   0.740   4.191 -0.1279 -1.2917 -0.4021
  232MOL0     C31210   4.223   0.737   4.177 -0.1265  0.4846 -0.5207
  232MOL0     C31211   4.144   0.702   4.280  0.3717  0.2339  0.1317
  232MOL0     C31212   3.998   0.710   4.268 -0.6503 -0.6357  0.2236
  232MOL0     C31213   3.935   0.747   4.143 -0.4279  0.3804  0.2795
  232MOL0     C31214   3.790   0.750   4.136 -0.3089  0.7016 -1.2421
  232MOL0     O31215   3.739   0.807   4.022  0.0413  0.1653 -0.5821
  232MOL0     C31216   3.606   0.832   4.011 -0.5491  0.8103 -0.1208
  232MOL0     C31217   3.577   0.855   3.870 -0.0884 -0.2856 -0.4814
  232MOL0     C31218   3.451   0.893   3.836 -0.4490 -0.5228  0.7028
  232MOL0     C31219   3.355   0.894   3.930  0.5608  0.1615  0.1556
  232MOL0     O31220   3.239   0.928   3.880 -0.0107  0.5201  0.9934
  232MOL0     C31221   3.154   1.017   3.955  0.2725 -0.4331  0.3512
  232MOL0     C31222   3.064   1.093   3.861 -0.2347 -0.1077 -0.1364
  232MOL0     C31223   3.126   1.180   3.762 -0.7393 -0.7308  0.1311
  232MOL0     C31224   3.202   1.289   3.831 -0.4227  0.7683  0.9072
  232MOL0     C31225   3.241   1.408   3.733 -0.6331 -0.2944 -0.4436
  232MOL0     C31226   3.330   1.354   3.615  0.2500 -0.0335  0.1334
  232MOL0     C31227   3.410   1.464   3.544  0.7601 -0.1437  0.3707
  232MOL0     C31228   3.475   1.415   3.405  0.2524  0.8804 -0.0510
  232MOL0    Cl31229   3.329   1.438   3.297  0.3655  0.0659 -0.0395
  232MOL0     C31230   3.373   0.858   4.063  0.1054  0.0916  0.1414
  232MOL0     C31231   3.507   0.842   4.109 -0.3052 -0.2747 -0.7949
  232MOL0     O31232   3.725   0.710   4.237  0.0214  0.1885 -0.5947
  232MOL0     C31233   4.023   0.785   4.042 -0.2513 -0.3713  1.4859
  232MOL0     C31234   4.159   0.786   4.054  1.0724 -0.4545  0.5366
  232MOL0     N31235   4.499   0.337   4.498 -0.1525  0.7426 -0.1917
  232MOL0     N31236   4.579   0.291   4.587  0.3105 -0.4700 -0.4876
  232MOL0     C31237   3.845  -0.110   4.720 -0.6065 -0.3901 -0.5714
  232MOL0     C31238   3.795   0.003   4.652  0.7225  0.0021 -0.3228
  232MOL0     C31239   3.671   0.463   4.635  1.2159  0.5318  0.2294
  232MOL0     C31240   3.553   0.445   4.561 -0.2556 -0.3216  0.2577
  232MOL0     C31241   3.488   0.556   4.509 -0.2610  0.0996 -0.0650
  232MOL0     C31242   3.537   0.687   4.529 -0.2746 -0.2860 -0.3888
  232MOL0     O31243   3.459   0.786   4.476 -0.6055  0.1322 -0.4156
  232MOL0     C31244   3.499   0.928   4.495  0.8791  0.3038 -0.5658
  232MOL0     C31245   3.373   1.021   4.455  0.9417  0.0363  0.7318
  232MOL0     C31246   3.404   1.168   4.462 -0.1946  0.2600  1.1409
  232MOL0     C31247   3.347   1.257   4.348 -0.3785  0.7671  0.1663
  232MOL0     C31248   3.425   1.220   4.230  0.8104 -0.1434  0.0955
  232MOL0     C31249   3.505   1.192   4.131  1.5721 -0.2817 -0.4588
  232MOL0     C31250   3.658   0.707   4.587 -0.0146  0.0998  0.3421
  232MOL0     C31251   3.722   0.593   4.648  0.1387 -0.0602  0.1991
  232MOL0     C31252   3.853   0.633   4.700 -0.4447 -0.3958  0.0108
  232MOL0     H31253   3.740   0.199   4.933  0.4303  0.7067 -0.2871
  232MOL0     H31254   3.844  -0.001   5.035  2.2839  0.4827 -0.1622
  232MOL0     H31255   4.100  -0.043   4.902  0.2696 -0.3864 -0.3899
  232MOL0     H31256   4.158  -0.197   4.973 -0.6511 -2.5440  0.2010
  232MOL0     H31257   4.118  -0.170   4.672  0.9827 -1.9501 -1.1231
  232MOL0     H31258   4.166  -0.314   4.762  3.1543 -0.7493  1.6754
  232MOL0     H31259   4.369  -0.215   4.857 -0.4355 -0.5750 -0.4433
  232MOL0     H31260   4.323  -0.056   4.776  1.6445  0.1994 -0.3219
  232MOL0     H31261   4.370  -0.335   4.658  2.5884 -1.0342 -0.1567
  232MOL0     H31262   4.350  -0.189   4.565 -0.5405 -0.7362 -0.3514
  232MOL0     H31263   4.591  -0.242   4.755  2.3846  0.8634 -1.7774
  232MOL0     H31264   4.604  -0.256   4.598  1.5618  0.3012 -0.0886
  232MOL0     H31265   4.543  -0.014   4.541  1.0791 -0.4216 -0.6855
  232MOL0     H31266   4.534   0.014   4.709 -0.1329  1.1479 -1.8797
  232MOL0     H31267   4.786  -0.076   4.554  0.8069  0.5703 -0.0077
  232MOL0     H31268   4.757  -0.068   4.732  0.0555  2.6830  1.3747
  232MOL0     H31269   4.778   0.147   4.720 -1.4565 -3.9498  0.9486
  232MOL0     H31270   4.864   0.144   4.565 -1.9642 -0.5932 -1.2945
  232MOL0     H31271   4.709   0.171   4.321  0.9646 -0.0339  0.9672
  232MOL0     H31272   4.559   0.284   4.173  0.8856  1.3981 -0.8099
  232MOL0     H31273   4.388   0.302   4.235 -0.0564  0.7464  1.0305
  232MOL0     H31274   4.468   0.545   4.318  0.3020  1.1938 -0.8471
  232MOL0     H31275   4.609   0.501   4.230  0.8572 -2.8337  0.3907
  232MOL0     H31276   4.349   0.468   4.085  1.7151 -2.7390 -1.3038
  232MOL0     H31277   4.501   0.487   4.018  0.4911  1.5983  0.1063
  232MOL0     H31278   4.395   0.707   3.982 -0.1615 -0.6778  0.4615
  232MOL0     H31279   4.529   0.723   4.084 -0.1611 -0.2269  1.9557
  232MOL0     H31280   4.190   0.663   4.371  0.1076  1.2213  0.7093
  232MOL0     H31281   3.943   0.669   4.351 -1.2406  1.0215  0.6992
  232MOL0     H31282   3.669   0.847   3.814  1.3350 -1.2353  1.8198
  232MOL0     H31283   3.430   0.899   3.729 -0.4722  1.5691  0.7824
  232MOL0     H31284   3.089   0.953   4.014  2.2353 -0.6601  2.4217
  232MOL0     H31285   3.212   1.088   4.015 -0.1647  0.6778 -0.4947
  232MOL0     H31286   3.014   1.008   3.814  1.7891 -1.5938  0.2322
  232MOL0     H31287   2.991   1.144   3.924 -1.8832 -0.7940 -1.4350
  232MOL0     H31288   3.193   1.121   3.698  1.6009  0.2505  1.5406
  232MOL0     H31289   3.043   1.226   3.708 -1.4165 -0.0656  1.7063
  232MOL0     H31290   3.297   1.252   3.871 -0.8495  0.5299  1.7161
  232MOL0     H31291   3.150   1.322   3.921  2.2844 -1.4569  3.4952
  232MOL0     H31292   3.298   1.467   3.805 -3.2422 -0.2773  1.7251
  232MOL0     H31293   3.160   1.467   3.688 -0.3375 -0.3303 -1.0327
  232MOL0     H31294   3.397   1.270   3.635 -1.9212 -2.0692 -0.6251
  232MOL0     H31295   3.262   1.323   3.535 -1.0397  2.9102 -0.0141
  232MOL0     H31296   3.491   1.499   3.608 -0.0320 -1.7188  2.3688
  232MOL0     H31297   3.341   1.548   3.533  2.5325  1.1180 -1.6864
  232MOL0     H31298   3.551   1.490   3.381  1.3950  0.0520  0.8088
  232MOL0     H31299   3.525   1.318   3.413 -0.6228  0.1131 -2.8176
  232MOL0     H31300   3.298   0.842   4.139 -2.8963 -3.6091 -3.1670
  232MOL0     H31301   3.526   0.828   4.215 -0.4233  0.8511 -0.6154
  232MOL0     H31302   3.978   0.822   3.950  1.7660  0.3140  0.7321
  232MOL0     H31303   4.223   0.814   3.971 -0.8061 -2.2443 -1.6246
  232MOL0     H31304   3.877  -0.190   4.654 -0.1435 -0.1880 -0.5932
  232MOL0     H31305   3.776  -0.012   4.546 -4.4171 -1.4657  0.5742
  232MOL0     H31306   3.502   0.353   4.534  3.3211 -2.0614 -1.2394
  232MOL0     H31307   3.397   0.533   4.454  0.8678 -1.7687 -1.2899
  232MOL0     H31308   3.579   0.968   4.431  0.8412  2.1610  0.4952
  232MOL0     H31309   3.519   0.945   4.601 -0.4093 -1.5679  0.0274
  232MOL0     H31310   3.309   0.989   4.538  1.1615 -2.3346  0.0712
  232MOL0     H31311   3.329   0.980   4.363 -3.9826 -0.7800  3.0852
  232MOL0     H31312   3.512   1.184   4.459 -0.2686  0.6359 -1.0020
  232MOL0     H31313   3.363   1.207   4.556 -2.0439 -0.9110  0.8811
  232MOL0     H31314   3.239   1.255   4.332 -0.4259  2.4528  0.0648
  232MOL0     H31315   3.363   1.362   4.375  2.6888  0.1413  1.2670
  232MOL0     H31316   3.574   1.172   4.051  2.3195  1.3579 -0.2558
  232MOL0     H31317   3.721   0.796   4.582  0.8051 -0.5216 -0.9917
  232MOL0     H31318   3.911   0.540   4.696 -0.0984 -0.1604 -0.4800
  232MOL0     H31319   3.893   0.712   4.637  1.4615 -2.0949 -1.0380
  232MOL0     H31320   3.858   0.681   4.798  1.5408 -1.1984  0.3639
  233MOL0     O31321   5.260   3.038  10.657 -0.2037 -0.5194 -0.2605
  233MOL0     C31322   5.369   3.090  10.657 -0.5361 -1.4993  1.4765
  233MOL0     O31323   5.486   3.036  10.667  0.5503 -0.4800 -0.3061
  233MOL0     C31324   5.495   2.921  10.745 -0.1258  0.4715 -0.5468
  233MOL0     C31325   5.540   2.922  10.877 -0.6260  0.3386 -0.8708
  233MOL0     C31326   5.554   2.805  10.951  0.6500  1.1342 -0.2754
  233MOL0     C31327   5.512   2.686  10.898  0.5751 -0.8251 -0.4697
  233MOL0     O31328   5.519   2.562  10.949 -0.6473 -0.6832  1.0617
  233MOL0     C31329   5.559   2.533  11.086 -0.5010 -0.8014  0.2742
  233MOL0     C31330   5.501   2.413  11.153 -0.4084 -0.1946 -0.8301
  233MOL0     C31331   5.562   2.389  11.294 -0.1654 -0.8577 -1.2907
  233MOL0     C31332   5.489   2.294  11.384 -0.0721 -0.1484 -0.4074
  233MOL0     C31333   5.364   2.354  11.435  0.7963  0.0133  0.3275
  233MOL0     C31334   5.307   2.267  11.546 -0.3587 -1.1461  0.0357
  233MOL0     C31335   5.175   2.321  11.594 -0.1205 -1.0489  0.0901
  233MOL0     C31336   5.193   2.433  11.694 -0.5209 -0.8657 -0.0510
  233MOL0     N31337   5.063   2.493  11.721  0.8171 -0.5100  0.3400
  233MOL0     C31338   4.953   2.442  11.788 -0.3767 -0.7876 -0.0627
  233MOL0     C31339   4.857   2.537  11.758  0.1826  0.8815  0.3628
  233MOL0     C31340   4.724   2.493  11.795  0.7751 -0.6515  0.1382
  233MOL0     C31341   4.700   2.471  11.951  0.9271  0.2546 -0.1302
  233MOL0     C31342   4.570   2.514  12.009  0.6416 -0.9133  0.3175
  233MOL0     C31343   4.569   2.665  12.004 -0.5045  0.1342 -0.6053
  233MOL0     O31344   4.638   2.690  12.130  0.7381  0.6610  0.2926
  233MOL0     C31345   4.684   2.818  12.143  0.5199  0.1927  0.2388
  233MOL0     C31346   4.652   2.924  12.045 -0.2809  0.5224 -0.7411
  233MOL0     C31347   4.699   3.053  12.055  0.8268 -0.4336 -0.9453
  233MOL0     C31348   4.780   3.088  12.169  0.2992  0.3693  0.4932
  233MOL0     C31349   4.839   3.221  12.189 -0.2536 -0.4520 -0.0678
  233MOL0     O31350   4.798   3.319  12.105  0.0718 -0.1743  0.6048
  233MOL0     C31351   4.879   3.428  12.107 -0.0369 -0.6150 -0.7043
  233MOL0     C31352   4.865   3.541  12.189  0.6314 -0.0761 -0.7955
  233MOL0     C31353   4.949   3.652  12.177  1.0990  0.0203  0.7570
  233MOL0     C31354   5.058   3.647  12.083  0.6099 -1.0548 -0.0277
  233MOL0     O31355   5.141   3.757  12.069 -0.5826 -0.5898  0.7235
  233MOL0     C31356   5.168   3.813  11.932 -0.6028 -0.2642 -0.0280
  233MOL0     C31357   5.273   3.919  11.968 -0.0092 -0.0326  0.2622
  233MOL0     C31358   5.423   3.891  11.936 -0.0526 -0.7232 -0.2292
  233MOL0     C31359   5.494   4.024  11.970 -0.4248 -0.1141  0.7993
  233MOL0     C31360   5.639   4.016  11.910  0.4630  0.1075 -0.6627
  233MOL0     C31361   5.683   4.147  11.859  0.7017 -1.6564 -0.3797
  233MOL0     C31362   5.817   4.125  11.791 -0.4761  1.8108  0.8604
  233MOL0     C31363   5.869   4.228  11.702  0.0355  0.8784  0.2294
  233MOL0    Cl31364   5.742   4.256  11.578 -0.2058  0.2263 -0.2494
  233MOL0     C31365   5.078   3.532  12.006  0.8802 -0.7901  0.2459
  233MOL0     C31366   4.989   3.428  12.021  0.8608  0.6378  0.3393
  233MOL0     O31367   4.935   3.230  12.264 -0.1576  0.3824  0.2172
  233MOL0     C31368   4.810   2.985  12.260  0.0243 -0.1203 -0.0486
  233MOL0     C31369   4.747   2.861  12.253 -0.6419 -0.4037  0.7342
  233MOL0     N31370   4.899   2.626  11.658  0.6945 -0.2093 -0.6127
  233MOL0     N31371   5.021   2.606  11.649 -1.2902  0.3559  0.3840
  233MOL0     C31372   5.459   2.686  10.774 -0.0081 -0.5594 -0.3348
  233MOL0     C31373   5.442   2.801  10.691  0.4218 -1.4658 -0.2744
  233MOL0     C31374   5.362   3.230  10.604 -0.3290  1.2520 -0.4158
  233MOL0     C31375   5.269   3.269  10.510  0.6605 -0.0924  0.2464
  233MOL0     C31376   5.249   3.404  10.473 -0.8238 -0.0712 -0.7567
  233MOL0     C31377   5.328   3.500  10.528 -0.9201 -0.5245 -0.3111
  233MOL0     O31378   5.316   3.627  10.498 -1.2569 -0.2584 -0.4739
  233MOL0     C31379   5.204   3.696  10.542  0.8243  0.4698 -1.0523
  233MOL0     C31380   5.196   3.844  10.502 -0.6918  0.6755  0.1657
  233MOL0     C31381   5.339   3.898  10.534  0.0445  0.2230 -0.0235
  233MOL0     C31382   5.352   4.050  10.553 -0.6908 -0.2108  0.3384
  233MOL0     C31383   5.480   4.109  10.502  0.3818 -0.8049  0.2043
  233MOL0     C31384   5.587   4.150  10.457  0.5854  0.2167  0.4239
  233MOL0     C31385   5.424   3.455  10.613 -0.0112 -0.5947  0.4702
  233MOL0     C31386   5.448   3.332  10.661  1.4246  1.2915  0.2078
  233MOL0     C31387   5.558   3.303  10.750 -0.3570  0.5072  0.0197
  233MOL0     H31388   5.557   3.021  10.918  0.8975 -0.7449  1.3404
  233MOL0     H31389   5.596   2.811  11.051 -0.7516 -1.8401  0.6174
  233MOL0     H31390   5.668   2.528  11.096 -0.2173  3.4532  1.1616
  233MOL0     H31391   5.534   2.617  11.151  1.1720 -0.6672  0.7769
  233MOL0     H31392   5.516   2.318  11.103  0.9708 -1.1262  1.1888
  233MOL0     H31393   5.394   2.432  11.154 -0.0910  1.8766 -0.4037
  233MOL0     H31394   5.585   2.486  11.339 -2.2239  0.0494 -2.0963
  233MOL0     H31395   5.654   2.334  11.270  0.9069 -0.2932  1.1397
  233MOL0     H31396   5.468   2.201  11.331 -2.7513 -0.8242  1.6296
  233MOL0     H31397   5.544   2.281  11.478  1.2672  0.4875 -1.0717
  233MOL0     H31398   5.374   2.455  11.474  1.1713 -0.4104  1.3561
  233MOL0     H31399   5.289   2.342  11.356 -0.3376 -0.2178  1.3969
  233MOL0     H31400   5.302   2.161  11.519  2.1689 -1.4282  0.4077
  233MOL0     H31401   5.387   2.269  11.620 -0.9511 -2.7310  0.7720
  233MOL0     H31402   5.128   2.252  11.664 -1.5742 -1.4026 -1.1822
  233MOL0     H31403   5.120   2.355  11.506  2.7291  0.7589 -1.1274
  233MOL0     H31404   5.244   2.391  11.781 -0.2474 -4.0144 -1.6224
  233MOL0     H31405   5.261   2.508  11.652 -1.4493 -0.0640 -0.1724
  233MOL0     H31406   4.950   2.360  11.860 -0.1671 -1.0283 -0.3291
  233MOL0     H31407   4.662   2.577  11.764  3.9029  1.4814 -0.8067
  233MOL0     H31408   4.688   2.409  11.735 -1.0956  0.0079  0.2815
  233MOL0     H31409   4.721   2.365  11.965  3.0383  0.4993 -1.1173
  233MOL0     H31410   4.780   2.519  12.008  3.8739 -3.1425 -1.0168
  233MOL0     H31411   4.559   2.473  12.110  1.5680 -0.2559  0.6996
  233MOL0     H31412   4.491   2.476  11.944  3.3120 -1.4647 -2.8596
  233MOL0     H31413   4.473   2.719  12.005  0.6630  2.3315  0.1080
  233MOL0     H31414   4.624   2.701  11.917  2.8057 -0.3541  1.1370
  233MOL0     H31415   4.593   2.909  11.955 -1.5401 -0.0259  0.1438
  233MOL0     H31416   4.661   3.124  11.982  1.7907 -1.7159 -2.7438
  233MOL0     H31417   4.780   3.531  12.255  2.5222 -2.3457  1.4930
  233MOL0     H31418   4.939   3.732  12.249 -2.7653 -0.3924  0.8867
  233MOL0     H31419   5.208   3.742  11.860 -1.4494  0.2314 -1.0203
  233MOL0     H31420   5.079   3.848  11.879 -1.1025 -1.9708 -0.3797
  233MOL0     H31421   5.250   3.994  11.892 -1.7948 -1.1818 -0.3898
  233MOL0     H31422   5.251   3.966  12.065  0.2845 -1.2155  0.9278
  233MOL0     H31423   5.451   3.809  12.003 -1.0417 -0.6120  0.3367
  233MOL0     H31424   5.437   3.860  11.832 -3.1260  0.8340 -1.2229
  233MOL0     H31425   5.484   4.035  12.078 -0.8574 -2.3144  1.0400
  233MOL0     H31426   5.441   4.103  11.917  1.3574 -2.4517 -5.4490
  233MOL0     H31427   5.635   3.944  11.827 -0.1995 -0.6915  0.0518
  233MOL0     H31428   5.711   3.980  11.984  0.3200  1.7765  0.3191
  233MOL0     H31429   5.601   4.194  11.804  0.3146  1.2733  2.3699
  233MOL0     H31430   5.697   4.227  11.932 -1.3818  2.2767 -3.8139
  233MOL0     H31431   5.797   4.034  11.734  0.9425  0.1770  2.7949
  233MOL0     H31432   5.898   4.094  11.859  0.6534  0.5504 -0.9747
  233MOL0     H31433   5.895   4.317  11.760 -1.2232  1.1106  0.4555
  233MOL0     H31434   5.957   4.189  11.650 -0.9114 -1.6738  0.4297
  233MOL0     H31435   5.148   3.530  11.922 -0.7230  0.3795 -1.1983
  233MOL0     H31436   4.990   3.344  11.953 -1.2818 -0.4189  1.5362
  233MOL0     H31437   4.871   3.002  12.348 -0.6415  2.7833 -0.0329
  233MOL0     H31438   4.764   2.785  12.329  0.3841 -1.3523 -0.3848
  233MOL0     H31439   5.423   2.597  10.723  1.0895  0.3494 -2.8989
  233MOL0     H31440   5.389   2.797  10.596 -0.9907  1.2529  0.2973
  233MOL0     H31441   5.204   3.194  10.467 -0.6254  1.2535 -0.2192
  233MOL0     H31442   5.167   3.445  10.416 -0.5228  2.2481  0.3337
  233MOL0     H31443   5.215   3.701  10.651 -0.4970  3.8302 -0.9455
  233MOL0     H31444   5.117   3.643  10.503  0.3469  0.2213  0.2918
  233MOL0     H31445   5.116   3.896  10.555 -2.3464  0.1918 -1.7099
  233MOL0     H31446   5.189   3.848  10.393  0.4528 -2.1144 -0.1007
  233MOL0     H31447   5.406   3.860  10.456  0.4170 -2.4378  1.4559
  233MOL0     H31448   5.375   3.850  10.625 -3.0518  0.8538  1.6649
  233MOL0     H31449   5.270   4.111  10.515 -1.5820  0.1742  2.7256
  233MOL0     H31450   5.341   4.075  10.659 -2.4828 -1.1328  0.4014
  233MOL0     H31451   5.680   4.193  10.425  0.2474  3.4808  3.2766
  233MOL0     H31452   5.471   3.549  10.643 -3.5820  1.3690  0.3714
  233MOL0     H31453   5.642   3.257  10.695 -0.2721 -1.3638  1.5763
  233MOL0     H31454   5.596   3.397  10.791 -1.7371  0.5470  1.3034
  233MOL0     H31455   5.531   3.241  10.837  3.8476  0.7288  1.7647
  234MOL0     O31456   4.207   7.749   3.817 -0.0996  1.2395 -0.0334
  234MOL0     C31457   4.222   7.706   3.703 -1.4348  0.5061 -0.3724
  234MOL0     O31458   4.270   7.778   3.597 -0.6594  0.0711 -0.1345
  234MOL0     C31459   4.307   7.909   3.630  0.8383  0.8219  0.1701
  234MOL0     C31460   4.446   7.945   3.606  0.2648 -0.3396 -0.5765
  234MOL0     C31461   4.477   8.083   3.621 -0.1611 -0.3327 -0.7926
  234MOL0     C31462   4.387   8.181   3.652  0.0933 -0.7089 -1.5675
  234MOL0     O31463   4.429   8.304   3.696  0.6262 -0.4650 -1.0863
  234MOL0     C31464   4.485   8.299   3.830  0.4715 -0.6165 -0.2951
  234MOL0     C31465   4.394   8.391   3.917  0.1165 -0.5842  0.5400
  234MOL0     C31466   4.412   8.381   4.064 -0.1181 -0.5908 -0.5892
  234MOL0     C31467   4.370   8.521   4.122 -0.7145 -0.2533  0.6073
  234MOL0     C31468   4.361   8.540   4.275 -0.3336  1.2629 -1.1895
  234MOL0     C31469   4.291   8.412   4.335 -0.2167  0.1178  0.0858
  234MOL0     C31470   4.280   8.412   4.487 -0.4955 -0.3074  0.3661
  234MOL0     C31471   4.391   8.446   4.582  0.9943  0.5445 -0.5382
  234MOL0     N31472   4.517   8.382   4.548  2.0677  0.5218 -0.1130
  234MOL0     C31473   4.532   8.252   4.510 -0.1507  0.5105  0.8707
  234MOL0     C31474   4.657   8.235   4.466  0.1163  0.4764  0.5319
  234MOL0     C31475   4.704   8.112   4.387  0.6273 -0.5348 -0.0568
  234MOL0     C31476   4.735   8.133   4.238 -0.7078  0.7683  0.0923
  234MOL0     C31477   4.817   8.262   4.209  0.3457 -0.1856 -0.7438
  234MOL0     C31478   4.956   8.250   4.266  0.2587  0.0786  0.7115
  234MOL0     O31479   5.051   8.266   4.159 -0.2078 -0.0015 -0.2512
  234MOL0     C31480   5.094   8.394   4.141  0.6126  0.3447 -0.1145
  234MOL0     C31481   5.189   8.409   4.041  0.0639  0.6962 -0.9638
  234MOL0     C31482   5.238   8.539   4.023  0.5189 -0.3623  0.4555
  234MOL0     C31483   5.192   8.657   4.078 -0.1501 -0.4342  0.1887
  234MOL0     C31484   5.266   8.788   4.055  0.6271 -0.1350 -0.3072
  234MOL0     O31485   5.371   8.793   3.961 -0.4753  0.1073 -0.6437
  234MOL0     C31486   5.417   8.916   3.921 -0.0158 -0.1212  0.3081
  234MOL0     C31487   5.403   9.040   3.994 -0.3685  0.2179  0.0329
  234MOL0     C31488   5.433   9.164   3.939 -0.1386  1.1120 -0.0397
  234MOL0     C31489   5.505   9.166   3.818  0.2521  0.0385  0.6285
  234MOL0     O31490   5.538   9.291   3.754 -0.7310 -0.5818  0.0148
  234MOL0     C31491   5.559   9.397   3.849  0.1021 -0.9239  0.0450
  234MOL0     C31492   5.568   9.532   3.789 -0.2374 -0.5751 -0.1488
  234MOL0     C31493   5.434   9.595   3.748  1.0952  0.7481 -0.1120
  234MOL0     C31494   5.344   9.672   3.852  0.4398  0.4103 -0.1399
  234MOL0     C31495   5.200   9.683   3.802  0.0453  0.3564 -1.0735
  234MOL0     C31496   5.186   9.774   3.681  0.5980 -0.1936  0.5103
  234MOL0     C31497   5.229   9.917   3.695 -0.0549  0.1058 -0.2762
  234MOL0     C31498   5.193   9.994   3.564  0.4567  0.3307  0.2365
  234MOL0    Cl31499   5.200  10.167   3.605  0.1637  0.2198 -0.0210
  234MOL0     C31500   5.516   9.043   3.747  0.2427 -0.8821  0.0861
  234MOL0     C31501   5.480   8.921   3.798 -1.1849 -0.0725 -0.1358
  234MOL0     O31502   5.201   8.880   4.098  0.6281  0.5228  0.6328
  234MOL0     C31503   5.084   8.644   4.173 -0.3960 -0.3907 -0.6687
  234MOL0     C31504   5.041   8.511   4.207 -0.4458 -0.7748 -0.9109
  234MOL0     N31505   4.718   8.352   4.476  0.5075  0.7107  0.2370
  234MOL0     N31506   4.637   8.436   4.527  0.0575 -0.4229 -0.3125
  234MOL0     C31507   4.248   8.148   3.672 -0.6628  0.4174  0.5007
  234MOL0     C31508   4.212   8.009   3.657 -0.4261 -0.2936 -0.1623
  234MOL0     C31509   4.222   7.557   3.699  0.1691  0.7521 -0.4700
  234MOL0     C31510   4.317   7.486   3.633 -0.5458 -0.0933  0.3773
  234MOL0     C31511   4.340   7.351   3.645  0.9475  0.2149 -0.1622
  234MOL0     C31512   4.258   7.276   3.731  0.3473  0.0881 -0.0290
  234MOL0     O31513   4.292   7.148   3.735  0.3816 -0.1938 -0.5029
  234MOL0     C31514   4.198   7.068   3.815  0.1259  0.4053  0.2331
  234MOL0     C31515   4.232   6.924   3.778  0.4431  1.2777  0.1153
  234MOL0     C31516   4.148   6.828   3.872  0.2353 -0.7985  0.0238
  234MOL0     C31517   4.093   6.704   3.784 -0.2789  0.0294 -0.7936
  234MOL0     C31518   4.182   6.623   3.697 -0.6120 -0.4233 -0.0492
  234MOL0     C31519   4.245   6.547   3.631  0.4991  0.4449  0.2038
  234MOL0     C31520   4.158   7.347   3.802 -0.0432  0.3356  0.4814
  234MOL0     C31521   4.140   7.482   3.789 -0.3134  0.0423  0.0125
  234MOL0     C31522   4.038   7.536   3.889 -1.0505 -0.7592  0.0102
  234MOL0     H31523   4.511   7.864   3.578  0.5120 -0.1302 -0.6116
  234MOL0     H31524   4.581   8.113   3.607 -0.8985  2.7371 -0.4335
  234MOL0     H31525   4.481   8.203   3.882  2.5264 -0.2852  0.5616
  234MOL0     H31526   4.591   8.324   3.825  0.8200 -2.0132 -0.4279
  234MOL0     H31527   4.293   8.352   3.899 -0.2042  0.4033  0.1188
  234MOL0     H31528   4.392   8.490   3.870  1.5874 -0.8744 -0.1931
  234MOL0     H31529   4.514   8.349   4.086 -0.8654 -2.5312  0.2701
  234MOL0     H31530   4.351   8.299   4.102  1.9355  0.2348  5.4545
  234MOL0     H31531   4.441   8.597   4.088  0.4132 -1.4336  0.2472
  234MOL0     H31532   4.268   8.540   4.087 -1.8784 -0.2629  3.6573
  234MOL0     H31533   4.460   8.558   4.317 -0.4490  1.4283 -0.9889
  234MOL0     H31534   4.299   8.626   4.301 -3.0283  0.2622 -3.7245
  234MOL0     H31535   4.198   8.398   4.280  0.4306  1.0192 -1.2952
  234MOL0     H31536   4.356   8.328   4.308 -1.4536 -0.3332 -1.5797
  234MOL0     H31537   4.243   8.314   4.517 -1.6269  0.0203  0.0965
  234MOL0     H31538   4.199   8.478   4.521  0.4352  2.3331 -2.1400
  234MOL0     H31539   4.403   8.555   4.589 -2.0835  1.1125 -2.1567
  234MOL0     H31540   4.361   8.405   4.678  0.7318  1.2996 -0.2852
  234MOL0     H31541   4.465   8.166   4.515  0.9141 -0.5971 -1.8591
  234MOL0     H31542   4.796   8.089   4.441  0.3479  4.1420  3.0107
  234MOL0     H31543   4.632   8.032   4.404 -0.4000  0.4457  0.3750
  234MOL0     H31544   4.789   8.040   4.215  1.2194  1.8922 -0.1066
  234MOL0     H31545   4.647   8.138   4.174 -0.3994  2.2356 -0.2530
  234MOL0     H31546   4.763   8.350   4.248  2.0870 -0.0037  1.4568
  234MOL0     H31547   4.810   8.287   4.103 -0.3245  0.4681 -0.5643
  234MOL0     H31548   4.982   8.146   4.290 -0.5066  0.3976  3.2707
  234MOL0     H31549   4.973   8.309   4.357 -0.4172 -0.0376  0.9162
  234MOL0     H31550   5.238   8.336   3.977 -1.9267  0.0632 -1.8422
  234MOL0     H31551   5.314   8.550   3.947 -0.4083  1.5172 -0.2526
  234MOL0     H31552   5.369   9.036   4.097  0.2153  1.5050  0.2962
  234MOL0     H31553   5.417   9.246   4.008  3.0697 -0.3644  2.7148
  234MOL0     H31554   5.465   9.394   3.906 -0.3220 -0.6739 -0.6392
  234MOL0     H31555   5.640   9.375   3.919 -1.5001 -1.2577  1.9115
  234MOL0     H31556   5.619   9.598   3.860  1.1672 -1.4087 -0.3515
  234MOL0     H31557   5.631   9.521   3.700 -1.6691 -3.3165 -0.9258
  234MOL0     H31558   5.455   9.678   3.680 -0.8299  2.3151  1.1216
  234MOL0     H31559   5.365   9.524   3.701 -0.9015  2.4177  0.2140
  234MOL0     H31560   5.380   9.772   3.880 -0.6493  0.5944  0.6723
  234MOL0     H31561   5.342   9.611   3.942 -1.5702  0.0499 -0.3779
  234MOL0     H31562   5.135   9.716   3.883  0.4482 -0.9637 -0.1797
  234MOL0     H31563   5.169   9.586   3.763  1.1756 -2.0611  3.3121
  234MOL0     H31564   5.249   9.735   3.601 -0.9252  0.3465 -0.9983
  234MOL0     H31565   5.087   9.772   3.636 -0.5445  2.2001  2.6318
  234MOL0     H31566   5.336   9.918   3.719 -0.3519 -2.8386  1.7866
  234MOL0     H31567   5.179   9.962   3.781  0.9967 -1.8749  1.4524
  234MOL0     H31568   5.268   9.967   3.490  2.0790 -2.1874  2.5958
  234MOL0     H31569   5.098   9.956   3.527  0.7085 -0.3418  0.2613
  234MOL0     H31570   5.560   9.047   3.648 -1.6044 -0.8963 -0.7708
  234MOL0     H31571   5.505   8.836   3.736  0.5464  0.3050  0.0182
  234MOL0     H31572   5.039   8.727   4.227  0.1509 -0.8798  0.5840
  234MOL0     H31573   4.958   8.501   4.276  0.4329 -1.0987  0.1287
  234MOL0     H31574   4.174   8.224   3.695 -0.5277  0.2002  1.6973
  234MOL0     H31575   4.116   7.973   3.693 -0.9212  1.7962  0.7487
  234MOL0     H31576   4.401   7.550   3.607  0.7145 -2.1848 -0.9978
  234MOL0     H31577   4.419   7.302   3.590 -2.1030 -1.4418 -3.4476
  234MOL0     H31578   4.094   7.102   3.803  0.2868  1.2789  1.0950
  234MOL0     H31579   4.222   7.077   3.922 -0.3265  1.8106  0.2422
  234MOL0     H31580   4.335   6.889   3.785 -0.1799 -0.4121  5.2689
  234MOL0     H31581   4.195   6.894   3.679 -2.2157 -0.1405  1.4030
  234MOL0     H31582   4.063   6.881   3.917  0.7192  2.7067 -2.7499
  234MOL0     H31583   4.218   6.789   3.946 -1.5112 -0.6993  1.8170
  234MOL0     H31584   4.053   6.618   3.839 -1.6035 -1.1515 -3.3696
  234MOL0     H31585   4.012   6.735   3.716 -3.2792  1.3348  3.0287
  234MOL0     H31586   4.314   6.482   3.582  2.8550  1.2480  2.2773
  234MOL0     H31587   4.096   7.298   3.877  0.4521 -0.8550  0.1404
  234MOL0     H31588   3.985   7.625   3.852  0.8033 -0.3679 -1.8974
  234MOL0     H31589   3.966   7.460   3.918 -0.2325 -3.0889 -3.5002
  234MOL0     H31590   4.098   7.573   3.973  1.3837  0.4922 -2.1338
  235MOL0     O31591   9.378   6.338   9.874 -0.7292  0.0742 -0.3997
  235MOL0     C31592   9.385   6.219   9.890 -0.4358 -0.1818 -0.9992
  235MOL0     O31593   9.478   6.149   9.977  0.4607 -0.5709  0.2315
  235MOL0     C31594   9.602   6.204  10.016 -0.2034  0.4469 -0.2381
  235MOL0     C31595   9.653   6.329   9.997 -1.2371 -0.9007  0.1098
  235MOL0     C31596   9.785   6.372  10.042  0.0016 -0.9530 -1.4482
  235MOL0     C31597   9.867   6.282  10.110  0.5185  0.2965  0.4917
  235MOL0     O31598   9.979   6.326  10.159 -0.2738  0.9821 -0.1392
  235MOL0     C31599  10.059   6.243  10.257  0.1578  0.5172  0.0511
  235MOL0     C31600  10.163   6.336  10.312  0.1891  0.9698  0.1673
  235MOL0     C31601  10.221   6.267  10.436  0.5292  0.1621 -0.3605
  235MOL0     C31602  10.272   6.361  10.542 -0.8700 -0.3452  0.4570
  235MOL0     C31603  10.386   6.311  10.631  0.9038 -0.6062 -0.3064
  235MOL0     C31604  10.422   6.401  10.742  0.1685 -0.1251 -0.8556
  235MOL0     C31605  10.475   6.538  10.706  0.1311 -0.0457 -0.5230
  235MOL0     C31606  10.437   6.628  10.825  0.1818  0.9409  0.1993
  235MOL0     N31607  10.524   6.754  10.824 -0.0658  0.8143 -0.5391
  235MOL0     C31608  10.616   6.793  10.727 -0.4248 -0.7371  0.1059
  235MOL0     C31609  10.648   6.917  10.746  0.2231 -0.5448 -0.4507
  235MOL0     C31610  10.746   6.994  10.677  0.4147 -0.2260  1.1073
  235MOL0     C31611  10.759   6.960  10.527 -0.1290 -0.3083 -0.4425
  235MOL0     C31612  10.868   7.043  10.461  1.0828  0.0580 -0.2189
  235MOL0     C31613  10.863   7.005  10.313 -0.3781  0.0943  0.7741
  235MOL0     O31614  10.975   7.079  10.249 -0.9148 -0.6746 -0.4668
  235MOL0     C31615  11.094   7.003  10.232  0.7769  0.0721  0.5641
  235MOL0     C31616  11.122   6.885  10.293  0.5911 -0.2924  0.5749
  235MOL0     C31617  11.239   6.822  10.276  0.4054 -0.0043 -0.2491
  235MOL0     C31618  11.334   6.862  10.188 -0.9465  1.0737  0.3870
  235MOL0     C31619  11.466   6.790  10.168  0.2024 -0.1921 -0.0754
  235MOL0     O31620  11.488   6.687  10.251 -0.3049 -0.6281  0.3125
  235MOL0     C31621  11.599   6.601  10.242  0.1328 -0.1513 -1.1819
  235MOL0     C31622  11.584   6.468  10.202 -0.4479  0.3266 -0.2229
  235MOL0     C31623  11.689   6.373  10.196 -0.1734 -0.8143 -0.2991
  235MOL0     C31624  11.809   6.410  10.244 -0.5174  0.6370  0.2327
  235MOL0     O31625  11.926   6.334  10.262 -0.2943 -0.2116  0.0335
  235MOL0     C31626  11.909   6.201  10.320  0.0777 -0.6813  0.2006
  235MOL0     C31627  12.048   6.152  10.373 -0.0245  0.1667  0.8377
  235MOL0     C31628  12.138   6.074  10.267 -0.0728 -1.5806 -0.6048
  235MOL0     C31629  12.242   5.982  10.346  0.0548  0.2039 -0.3379
  235MOL0     C31630  12.377   5.955  10.270 -0.2899 -0.0313  0.2763
  235MOL0     C31631  12.457   6.079  10.244  0.0422 -0.6287  1.0943
  235MOL0     C31632  12.598   6.044  10.215  0.6343  0.3505  0.7535
  235MOL0     C31633  12.681   6.166  10.181 -0.0589 -1.1074 -0.2741
  235MOL0    Cl31634  12.724   6.255  10.330  0.0407  0.1932 -0.1053
  235MOL0     C31635  11.831   6.546  10.270 -0.6284 -0.0565 -0.5696
  235MOL0     C31636  11.732   6.645  10.261  0.6073  0.4220 -0.3157
  235MOL0     O31637  11.544   6.839  10.094  0.2035 -0.0954  0.4414
  235MOL0     C31638  11.299   6.968  10.105  0.6421  0.0036 -1.3797
  235MOL0     C31639  11.177   7.040  10.133 -0.2607 -0.2695  0.0471
  235MOL0     N31640  10.598   6.947  10.873  0.4656  0.1557  0.5288
  235MOL0     N31641  10.517   6.860  10.918 -0.1406  0.2097  0.3814
  235MOL0     C31642   9.819   6.147  10.100 -0.4591  0.5337  0.0407
  235MOL0     C31643   9.698   6.106  10.054 -0.3077 -0.6629 -0.0121
  235MOL0     C31644   9.290   6.138   9.818  0.2895  0.6717 -0.8471
  235MOL0     C31645   9.171   6.193   9.783  0.7305  0.3681  0.2152
  235MOL0     C31646   9.079   6.119   9.709  0.4348  0.5139 -0.8926
  235MOL0     C31647   9.096   5.983   9.674 -0.0951  0.3078  0.0758
  235MOL0     O31648   9.003   5.906   9.603 -0.1634 -0.4123  0.4196
  235MOL0     C31649   8.865   5.954   9.584 -0.3678 -0.1846  0.6552
  235MOL0     C31650   8.767   5.970   9.693  1.3634 -0.2661  0.0229
  235MOL0     C31651   8.766   5.836   9.765  0.2325 -0.3185 -0.1154
  235MOL0     C31652   8.676   5.841   9.885  0.1874  0.4650 -0.3725
  235MOL0     C31653   8.666   5.697   9.938 -0.5512  0.0689 -0.2696
  235MOL0     C31654   8.637   5.589   9.982  0.7198  0.0384 -0.0821
  235MOL0     C31655   9.220   5.924   9.696  0.1139 -0.2456 -0.2528
  235MOL0     C31656   9.318   6.002   9.764  0.0900 -0.0314 -0.1895
  235MOL0     C31657   9.459   5.945   9.761 -0.3774  0.5248 -0.7255
  235MOL0     H31658   9.600   6.420   9.970 -1.8035 -0.9741  0.9493
  235MOL0     H31659   9.819   6.475  10.037  2.5553 -1.7700 -5.8951
  235MOL0     H31660   9.989   6.219  10.337  2.3169 -0.4057  1.7970
  235MOL0     H31661  10.089   6.145  10.217 -1.7634 -0.1746  0.2330
  235MOL0     H31662  10.122   6.436  10.329 -5.1388  0.8108 -7.1283
  235MOL0     H31663  10.234   6.350  10.230  1.3669 -2.4614  0.4467
  235MOL0     H31664  10.304   6.203  10.403  0.2755  0.1117 -0.9183
  235MOL0     H31665  10.146   6.208  10.489  0.9744 -0.2119 -0.1376
  235MOL0     H31666  10.305   6.451  10.490  0.9094 -0.3525  1.4866
  235MOL0     H31667  10.178   6.389  10.589 -2.1855 -1.1512 -1.5593
  235MOL0     H31668  10.360   6.216  10.679  2.8679 -0.3975  1.2990
  235MOL0     H31669  10.474   6.280  10.574 -0.2302 -0.6355 -2.1534
  235MOL0     H31670  10.330   6.403  10.801  1.1007  0.6835  0.6262
  235MOL0     H31671  10.489   6.345  10.808 -3.0597 -1.2986  1.7453
  235MOL0     H31672  10.426   6.586  10.621 -0.9803  4.8135  2.4656
  235MOL0     H31673  10.584   6.537  10.699  0.1981 -2.4865 -0.0591
  235MOL0     H31674  10.332   6.659  10.816 -0.7350 -1.6790  0.9672
  235MOL0     H31675  10.455   6.576  10.920 -4.5057  0.1364  0.8862
  235MOL0     H31676  10.642   6.727  10.644 -0.3246 -0.6035  0.0305
  235MOL0     H31677  10.707   7.096  10.674  4.3345  1.4567  0.6135
  235MOL0     H31678  10.841   6.997  10.732 -1.0186 -3.2391  4.0912
  235MOL0     H31679  10.794   6.856  10.526  1.4729  0.1934  0.3188
  235MOL0     H31680  10.668   6.968  10.467  0.4166 -1.4367 -1.4781
  235MOL0     H31681  10.960   7.016  10.512  1.3280  1.8845  0.3934
  235MOL0     H31682  10.861   7.152  10.469  1.9549  0.0666  0.5044
  235MOL0     H31683  10.775   7.041  10.260 -0.6398  0.3700  1.3791
  235MOL0     H31684  10.865   6.896  10.307 -4.6649 -0.4120  3.9255
  235MOL0     H31685  11.059   6.843  10.371 -1.8537  3.8705  1.1698
  235MOL0     H31686  11.254   6.731  10.334  0.3278 -1.4832 -2.4396
  235MOL0     H31687  11.484   6.436  10.172 -1.2209  0.7016  1.7940
  235MOL0     H31688  11.678   6.271  10.160  1.6763 -0.7229 -1.2552
  235MOL0     H31689  11.838   6.191  10.402 -1.1172 -0.4796 -0.7802
  235MOL0     H31690  11.871   6.140  10.238  2.4783  0.6699 -2.0788
  235MOL0     H31691  12.100   6.244  10.400 -0.7534  0.8559 -0.0254
  235MOL0     H31692  12.039   6.098  10.468 -1.4687  0.5226  0.9308
  235MOL0     H31693  12.067   6.006  10.219  0.7387 -1.5304 -1.9215
  235MOL0     H31694  12.184   6.141  10.194 -3.5850  2.4310  0.5029
  235MOL0     H31695  12.205   5.881  10.364 -0.3998 -0.0491 -2.5018
  235MOL0     H31696  12.260   6.034  10.441  0.8719  2.1836 -1.4992
  235MOL0     H31697  12.359   5.900  10.177  1.1291  1.2434 -0.7826
  235MOL0     H31698  12.440   5.889  10.330 -0.9483 -0.4245  0.5538
  235MOL0     H31699  12.403   6.125  10.161  0.4624  0.2627  1.3030
  235MOL0     H31700  12.451   6.146  10.331 -3.1374  2.2215 -1.0203
  235MOL0     H31701  12.601   5.988  10.121  0.1172  1.4611  0.0585
  235MOL0     H31702  12.636   5.978  10.295 -1.5556 -1.1637  0.6562
  235MOL0     H31703  12.764   6.130  10.121  1.0541 -3.0433  2.2216
  235MOL0     H31704  12.623   6.241  10.126 -1.1795  0.2944  2.5950
  235MOL0     H31705  11.932   6.583  10.284 -1.3174  1.3428  1.0202
  235MOL0     H31706  11.762   6.746  10.289 -2.3242  1.1277  0.6981
  235MOL0     H31707  11.364   7.002  10.025  0.5772  2.6241 -0.4050
  235MOL0     H31708  11.144   7.131  10.085  3.1856  1.5129  0.7340
  235MOL0     H31709   9.878   6.074  10.155 -1.5439 -0.5093 -0.1345
  235MOL0     H31710   9.669   6.001  10.058  1.1083 -1.0382  1.1184
  235MOL0     H31711   9.136   6.288   9.821  3.5104  1.8060 -0.5023
  235MOL0     H31712   8.981   6.158   9.681  0.1789  0.3224 -0.2766
  235MOL0     H31713   8.820   5.874   9.525  1.2094 -0.2119 -0.5958
  235MOL0     H31714   8.871   6.050   9.530 -1.8317  1.2430  2.8496
  235MOL0     H31715   8.671   5.992   9.645  0.5066 -4.3098 -0.4730
  235MOL0     H31716   8.793   6.058   9.753 -0.6394  1.4194 -1.4203
  235MOL0     H31717   8.866   5.808   9.799  0.4298  0.8071  0.2685
  235MOL0     H31718   8.724   5.762   9.697  1.8084 -0.5583 -0.8550
  235MOL0     H31719   8.715   5.904   9.965  0.8073 -2.3768  1.7469
  235MOL0     H31720   8.575   5.881   9.874  0.1371  1.1050  1.9622
  235MOL0     H31721   8.592   5.497  10.016  1.1528 -1.1205 -2.4350
  235MOL0     H31722   9.239   5.829   9.648 -3.2699 -1.3080  0.2242
  235MOL0     H31723   9.475   5.898   9.663  2.7164 -0.2326  0.0560
  235MOL0     H31724   9.540   6.015   9.778  1.9041 -2.1688  0.2216
  235MOL0     H31725   9.456   5.861   9.831 -1.9768 -0.4858 -1.9080
  236MOL0     O31726   4.980   6.446  10.999 -0.2810 -0.6232 -0.5884
  236MOL0     C31727   5.012   6.337  11.049 -0.3552 -0.3687 -0.1411
  236MOL0     O31728   5.120   6.308  11.134 -0.6566 -0.1022  1.1004
  236MOL0     C31729   5.167   6.426  11.183 -0.5329 -0.7350  0.8866
  236MOL0     C31730   5.284   6.482  11.124 -0.2080 -0.3665  0.7113
  236MOL0     C31731   5.314   6.618  11.152 -0.7134 -0.5480  0.1261
  236MOL0     C31732   5.259   6.679  11.258  0.1165  0.5963  0.4935
  236MOL0     O31733   5.311   6.798  11.279 -0.0180 -0.4121 -0.6325
  236MOL0     C31734   5.251   6.885  11.376 -0.0822 -0.1484 -0.4990
  236MOL0     C31735   5.322   7.015  11.372 -0.2180  0.8066 -0.1427
  236MOL0     C31736   5.332   7.067  11.507 -0.7689 -0.4965  0.0485
  236MOL0     C31737   5.363   7.217  11.502  0.1522 -1.2445  0.7115
  236MOL0     C31738   5.370   7.297  11.632 -0.1961 -0.0428 -0.3023
  236MOL0     C31739   5.389   7.450  11.603  0.3764  0.6817  0.3490
  236MOL0     C31740   5.530   7.479  11.549  0.4122 -0.3311  0.1841
  236MOL0     C31741   5.579   7.624  11.543  0.3183  0.5590  0.0862
  236MOL0     N31742   5.614   7.674  11.675  0.3644  0.4543 -1.0799
  236MOL0     C31743   5.541   7.741  11.759  0.4145 -0.4496  0.4396
  236MOL0     C31744   5.625   7.775  11.866 -0.6202  0.7074  0.0562
  236MOL0     C31745   5.589   7.868  11.983 -0.1276 -0.6037  0.3897
  236MOL0     C31746   5.714   7.949  12.029 -0.4341  0.1871 -0.2289
  236MOL0     C31747   5.687   8.034  12.150 -0.3835  0.5219 -0.2122
  236MOL0     C31748   5.809   8.118  12.188  0.4982 -0.0372 -0.0137
  236MOL0     O31749   5.928   8.033  12.200  0.4050 -0.5897 -0.0189
  236MOL0     C31750   6.041   8.091  12.259 -1.0817 -0.4974 -0.4885
  236MOL0     C31751   6.130   8.003  12.325  0.6483  0.0923 -0.2881
  236MOL0     C31752   6.242   8.050  12.401 -0.1427 -0.2835 -0.0095
  236MOL0     C31753   6.263   8.188  12.405  0.0681 -0.4871 -0.0139
  236MOL0     C31754   6.380   8.241  12.487  0.4192  0.7291 -0.4155
  236MOL0     O31755   6.454   8.147  12.562 -0.6055  0.8727 -0.1659
  236MOL0     C31756   6.508   8.176  12.683  0.4650 -0.7529 -1.4020
  236MOL0     C31757   6.590   8.287  12.703  0.1097  0.6974 -0.1375
  236MOL0     C31758   6.647   8.299  12.829  0.1046 -1.0414  0.9655
  236MOL0     C31759   6.637   8.210  12.934 -0.9914  0.5730 -0.1856
  236MOL0     O31760   6.707   8.224  13.054  0.3403 -0.0353 -0.3205
  236MOL0     C31761   6.703   8.118  13.152 -0.3458 -0.6494 -1.2243
  236MOL0     C31762   6.759   8.192  13.282  0.2613 -0.0764  0.7756
  236MOL0     C31763   6.682   8.323  13.321  0.5462 -0.4616  0.6097
  236MOL0     C31764   6.731   8.395  13.452  0.4438 -0.6900  0.5048
  236MOL0     C31765   6.608   8.466  13.509 -0.9651  0.8158  1.0801
  236MOL0     C31766   6.510   8.376  13.570 -0.5363  0.3046  0.4064
  236MOL0     C31767   6.391   8.465  13.621  0.5989  0.5878  0.6355
  236MOL0     C31768   6.271   8.372  13.658 -0.1096 -0.4998  0.2559
  236MOL0    Cl31769   6.309   8.285  13.793  0.0414 -0.4755  0.1545
  236MOL0     C31770   6.552   8.106  12.913 -0.2585  0.1450  0.5383
  236MOL0     C31771   6.474   8.096  12.794 -0.2719  0.8109 -0.1956
  236MOL0     O31772   6.383   8.361  12.509 -0.2429 -0.7869  0.3009
  236MOL0     C31773   6.178   8.282  12.333 -0.3348  0.3276  1.4881
  236MOL0     C31774   6.065   8.234  12.268  0.3321  0.5986  0.1299
  236MOL0     N31775   5.748   7.716  11.841 -0.2624  0.3366  0.1970
  236MOL0     N31776   5.735   7.652  11.733 -0.4042  0.7070 -0.4137
  236MOL0     C31777   5.146   6.615  11.314  1.4634  0.1718 -1.1894
  236MOL0     C31778   5.097   6.493  11.279 -0.4825  0.7908 -0.6279
  236MOL0     C31779   4.927   6.222  11.015  0.1608  0.3587 -0.3061
  236MOL0     C31780   4.992   6.109  10.970  0.0193  0.9814  0.7122
  236MOL0     C31781   4.912   5.996  10.937 -0.7768 -0.0013  0.1082
  236MOL0     C31782   4.773   5.995  10.930 -0.6953  0.1170  0.4971
  236MOL0     O31783   4.713   5.879  10.886  1.2597  0.0200 -0.2399
  236MOL0     C31784   4.656   5.875  10.754 -0.8225  0.6007  0.0240
  236MOL0     C31785   4.762   5.884  10.646  0.6070 -0.3002  0.0928
  236MOL0     C31786   4.845   5.750  10.643 -0.7784 -0.2246 -0.1636
  236MOL0     C31787   4.971   5.762  10.565  0.7412 -0.2125  0.1584
  236MOL0     C31788   4.974   5.781  10.424 -0.1902 -0.5473  0.6214
  236MOL0     C31789   4.973   5.785  10.306  0.2755  0.3237  0.5994
  236MOL0     C31790   4.702   6.108  10.971 -0.9544 -0.5238  0.5183
  236MOL0     C31791   4.778   6.220  11.019 -0.3427 -0.4231 -0.2651
  236MOL0     C31792   4.706   6.329  11.097  0.5787 -0.1510 -0.2004
  236MOL0     H31793   5.339   6.445  11.038  2.6634  3.4662  0.6209
  236MOL0     H31794   5.386   6.664  11.085 -2.6985 -0.5356 -2.1201
  236MOL0     H31795   5.142   6.895  11.366 -0.5964 -3.6347  0.3282
  236MOL0     H31796   5.264   6.829  11.469  0.1441 -0.7915 -0.9108
  236MOL0     H31797   5.263   7.082  11.310 -0.2873 -0.8207 -1.9329
  236MOL0     H31798   5.428   7.012  11.347  0.4480  3.4625  1.8760
  236MOL0     H31799   5.415   7.011  11.551 -1.3390 -1.4012  0.0001
  236MOL0     H31800   5.240   7.064  11.567 -1.5562  0.1585 -1.0795
  236MOL0     H31801   5.451   7.231  11.438 -2.9311  0.1366 -3.6688
  236MOL0     H31802   5.277   7.269  11.460 -0.6830 -1.2246  2.3546
  236MOL0     H31803   5.271   7.294  11.679 -0.9340  0.2287 -1.7787
  236MOL0     H31804   5.437   7.250  11.705 -2.8345 -2.3371  0.8525
  236MOL0     H31805   5.307   7.487  11.541  0.3675  0.4932  0.2471
  236MOL0     H31806   5.374   7.507  11.696 -1.6725  0.5087  0.1761
  236MOL0     H31807   5.531   7.438  11.447  0.2498  0.2348 -0.0465
  236MOL0     H31808   5.612   7.432  11.605  1.3916  2.0565  0.8935
  236MOL0     H31809   5.665   7.633  11.476  1.6961 -0.6404  1.6221
  236MOL0     H31810   5.492   7.675  11.499 -0.7260 -1.2623 -0.0558
  236MOL0     H31811   5.445   7.779  11.727  1.0763  0.6542 -0.2973
  236MOL0     H31812   5.507   7.930  11.948 -0.2927 -2.0786 -2.0025
  236MOL0     H31813   5.546   7.816  12.069 -1.7658  0.0980  0.0281
  236MOL0     H31814   5.791   7.872  12.043  0.3417  1.0586  0.4598
  236MOL0     H31815   5.748   8.006  11.942 -0.0149 -3.4044 -2.6319
  236MOL0     H31816   5.660   7.978  12.240  0.9763  2.8210  1.7772
  236MOL0     H31817   5.606   8.100  12.119  0.2347  1.2865 -0.2509
  236MOL0     H31818   5.782   8.164  12.283  0.7075  0.1253 -0.0321
  236MOL0     H31819   5.814   8.210  12.130 -3.6533  0.8348  0.6625
  236MOL0     H31820   6.099   7.899  12.332 -1.4946  0.5953 -1.5998
  236MOL0     H31821   6.306   7.976  12.447 -1.8458 -1.3646  0.7296
  236MOL0     H31822   6.602   8.369  12.632  0.6229  0.9305  0.2064
  236MOL0     H31823   6.716   8.380  12.853 -4.1467  2.2935  3.3129
  236MOL0     H31824   6.602   8.083  13.172 -0.3218 -2.3782 -3.6947
  236MOL0     H31825   6.757   8.025  13.135  0.2568 -0.6588  0.5302
  236MOL0     H31826   6.761   8.119  13.364  2.3185  0.7219  1.4915
  236MOL0     H31827   6.866   8.210  13.267  0.7363 -1.6896  1.8691
  236MOL0     H31828   6.702   8.397  13.244  0.6400  0.5143  1.5476
  236MOL0     H31829   6.576   8.296  13.321  1.0427 -2.6262  0.4277
  236MOL0     H31830   6.815   8.463  13.434 -1.2238  1.4604  0.4035
  236MOL0     H31831   6.768   8.324  13.526  0.4436 -0.6871  0.5079
  236MOL0     H31832   6.574   8.520  13.420  3.4748  1.0116 -0.7277
  236MOL0     H31833   6.638   8.544  13.579  3.5160  1.5487 -1.3179
  236MOL0     H31834   6.460   8.306  13.502  0.3243 -0.5420  0.6143
  236MOL0     H31835   6.556   8.330  13.658 -2.3476  1.9699  2.3336
  236MOL0     H31836   6.363   8.525  13.534 -0.0006 -1.7783 -0.8933
  236MOL0     H31837   6.425   8.543  13.690 -1.0642  0.4726  1.6464
  236MOL0     H31838   6.188   8.442  13.670  0.1722  0.2336 -1.8614
  236MOL0     H31839   6.240   8.302  13.580  0.0721  0.5861 -0.8142
  236MOL0     H31840   6.530   8.023  12.979  0.1800 -0.8603 -0.5642
  236MOL0     H31841   6.402   8.015  12.789 -1.9611  2.1828  0.5451
  236MOL0     H31842   6.200   8.388  12.333 -0.1938  0.7559 -5.4066
  236MOL0     H31843   6.002   8.308  12.221  1.0332 -0.8093 -3.3726
  236MOL0     H31844   5.082   6.658  11.390  1.2010 -1.7875 -0.2371
  236MOL0     H31845   4.995   6.466  11.301  0.2661 -2.0502 -0.1580
  236MOL0     H31846   5.099   6.091  10.967 -0.0949  0.3961 -1.6336
  236MOL0     H31847   4.970   5.906  10.919 -0.4438 -0.1205  1.6619
  236MOL0     H31848   4.581   5.954  10.747 -2.8808 -1.0867  1.6527
  236MOL0     H31849   4.599   5.784  10.730 -2.3439  2.1754 -2.8221
  236MOL0     H31850   4.822   5.973  10.665  1.9384 -1.4409  1.4095
  236MOL0     H31851   4.712   5.892  10.548  0.7654  0.1401  0.0484
  236MOL0     H31852   4.777   5.681  10.592  0.7378 -2.1058  0.2485
  236MOL0     H31853   4.878   5.719  10.743 -1.9100  1.4569  0.7764
  236MOL0     H31854   5.004   5.856  10.610 -2.3608  0.4252  1.3494
  236MOL0     H31855   5.036   5.678  10.591  0.2858 -0.7959 -0.5741
  236MOL0     H31856   4.978   5.800  10.200  0.7922  0.4807  0.6420
  236MOL0     H31857   4.595   6.095  10.978 -1.2188 -0.5924 -2.2726
  236MOL0     H31858   4.750   6.348  11.195 -1.7264  0.5228  0.7832
  236MOL0     H31859   4.714   6.417  11.033 -1.9734 -0.4207 -0.9875
  236MOL0     H31860   4.603   6.293  11.108  0.6023 -0.7104 -1.5730
  237MOL0     O31861   9.968   4.346   4.585 -0.1064 -0.0802 -0.3336
  237MOL0     C31862  10.052   4.430   4.579 -0.0788 -0.0484 -1.0010
  237MOL0     O31863  10.101   4.495   4.686 -0.2849 -0.0579 -0.2481
  237MOL0     C31864  10.092   4.464   4.821 -0.7929 -0.0575 -0.1140
  237MOL0     C31865  10.058   4.341   4.877  0.1245 -0.2258 -0.5393
  237MOL0     C31866  10.068   4.327   5.012  0.1729 -0.4841  0.1336
  237MOL0     C31867  10.112   4.427   5.101  0.1260  0.3957  0.4669
  237MOL0     O31868  10.112   4.394   5.236  0.2060 -0.0122  0.2821
  237MOL0     C31869  10.205   4.456   5.318 -0.1187  0.8092  0.5416
  237MOL0     C31870  10.166   4.461   5.463  0.6645  1.7006  0.3004
  237MOL0     C31871  10.048   4.546   5.514 -0.3973  0.5181 -0.6331
  237MOL0     C31872  10.001   4.503   5.647  1.1219 -1.0213 -0.4999
  237MOL0     C31873   9.883   4.567   5.714 -0.2074 -1.0461  0.6130
  237MOL0     C31874   9.890   4.721   5.715  0.3969  0.7933 -0.6053
  237MOL0     C31875   9.777   4.776   5.800 -0.1271  0.0647  0.0230
  237MOL0     C31876   9.654   4.799   5.708  0.4194 -0.2362  0.4007
  237MOL0     N31877   9.575   4.692   5.644 -0.3184 -0.0189 -0.1686
  237MOL0     C31878   9.502   4.713   5.529  0.2020  0.9651  0.2566
  237MOL0     C31879   9.396   4.623   5.542 -0.6829 -0.3389 -0.4211
  237MOL0     C31880   9.293   4.601   5.426 -0.2703 -0.0210 -0.1303
  237MOL0     C31881   9.172   4.531   5.484  0.4869 -0.8424 -0.2386
  237MOL0     C31882   9.169   4.390   5.435  1.1829 -0.7294  0.2422
  237MOL0     C31883   9.083   4.300   5.520  0.0135 -0.3229 -0.5485
  237MOL0     O31884   9.136   4.267   5.649  0.5852  0.1015 -0.1403
  237MOL0     C31885   9.081   4.166   5.735 -0.1456 -0.4736 -0.8283
  237MOL0     C31886   8.963   4.092   5.726 -0.2027 -0.7925 -0.1687
  237MOL0     C31887   8.941   4.012   5.841  0.1787  0.4542  0.1737
  237MOL0     C31888   9.021   4.009   5.955 -0.1371 -0.1516  0.6935
  237MOL0     C31889   8.993   3.909   6.066  1.1548  0.4856 -0.3138
  237MOL0     O31890   9.080   3.918   6.171  0.2320  0.2455 -0.5807
  237MOL0     C31891   9.067   3.833   6.276 -0.2539  1.3385  0.5302
  237MOL0     C31892   9.186   3.774   6.321 -0.1286  0.1143 -0.9779
  237MOL0     C31893   9.180   3.686   6.430 -0.9268 -0.0635 -0.2383
  237MOL0     C31894   9.057   3.658   6.491  0.4671 -1.0887  0.1860
  237MOL0     O31895   9.052   3.586   6.607 -0.0371 -0.7436 -0.8887
  237MOL0     C31896   9.054   3.671   6.726  0.6847  0.4888  0.3721
  237MOL0     C31897   9.005   3.582   6.833  0.6030 -0.2454 -1.4370
  237MOL0     C31898   8.994   3.661   6.959 -0.2422  0.3659  0.1083
  237MOL0     C31899   9.122   3.662   7.052  0.4299  0.6405  0.9390
  237MOL0     C31900   9.111   3.763   7.165 -0.3172 -0.3499 -0.6877
  237MOL0     C31901   9.253   3.805   7.219  0.6815  0.4272  0.3946
  237MOL0     C31902   9.226   3.874   7.360 -0.0176  0.7908  0.4647
  237MOL0     C31903   9.332   3.826   7.457  0.2174  0.1006  0.4089
  237MOL0    Cl31904   9.497   3.881   7.421 -0.5170 -0.3879 -0.7021
  237MOL0     C31905   8.941   3.713   6.440 -0.3643 -1.0695  0.2353
  237MOL0     C31906   8.944   3.810   6.337  0.1616 -0.1380  0.0325
  237MOL0     O31907   8.896   3.829   6.061 -0.7781 -0.0493  0.5954
  237MOL0     C31908   9.135   4.088   5.960 -0.1726 -0.8888  0.3168
  237MOL0     C31909   9.159   4.173   5.849  0.0948  0.9963 -0.2138
  237MOL0     N31910   9.419   4.544   5.656 -0.2138 -0.1321 -0.0969
  237MOL0     N31911   9.516   4.594   5.715 -0.2194 -0.4014  0.3307
  237MOL0     C31912  10.141   4.550   5.036 -0.2946 -0.0191  0.2028
  237MOL0     C31913  10.138   4.568   4.900 -0.8627  0.4559 -0.5736
  237MOL0     C31914  10.113   4.460   4.452  0.5331 -0.8281  0.2649
  237MOL0     C31915  10.245   4.510   4.460  0.4354  0.0896 -0.2325
  237MOL0     C31916  10.310   4.550   4.344  0.0248 -0.4215 -1.6754
  237MOL0     C31917  10.247   4.544   4.221  0.2612  0.7792 -0.7545
  237MOL0     O31918  10.313   4.570   4.101 -0.0689 -0.2130  1.3374
  237MOL0     C31919  10.451   4.629   4.097 -0.0516  0.5126  0.4789
  237MOL0     C31920  10.497   4.673   3.959 -0.2550  0.3748  0.1723
  237MOL0     C31921  10.644   4.693   3.928 -1.0802 -0.0060  0.9899
  237MOL0     C31922  10.677   4.719   3.771 -0.4715  1.1359 -0.1651
  237MOL0     C31923  10.674   4.585   3.708  0.5692 -0.6078  1.3847
  237MOL0     C31924  10.679   4.478   3.652  0.1798  0.6636 -0.5962
  237MOL0     C31925  10.118   4.504   4.214 -0.0370  0.8154 -1.0674
  237MOL0     C31926  10.049   4.460   4.323  0.8873  0.4503 -0.6496
  237MOL0     C31927   9.897   4.432   4.318 -1.4310 -0.0236  0.5233
  237MOL0     H31928  10.028   4.254   4.820  0.0770  1.9958 -4.3099
  237MOL0     H31929  10.047   4.232   5.060  0.1678  0.3202  1.7791
  237MOL0     H31930  10.289   4.386   5.320  0.3858  1.3853  0.0480
  237MOL0     H31931  10.240   4.554   5.282  0.8266  0.5150  0.6249
  237MOL0     H31932  10.262   4.462   5.516  1.0248 -0.4693 -0.2169
  237MOL0     H31933  10.131   4.359   5.481 -0.8761  2.3544  1.1854
  237MOL0     H31934   9.963   4.538   5.446  0.0007 -3.1331 -0.8877
  237MOL0     H31935  10.080   4.650   5.500 -0.8870  0.3736 -3.3357
  237MOL0     H31936   9.968   4.399   5.644 -1.1515 -0.3422 -0.6763
  237MOL0     H31937  10.085   4.519   5.715 -0.9623  1.5662  1.6903
  237MOL0     H31938   9.795   4.541   5.654 -0.2335  3.3140 -1.6683
  237MOL0     H31939   9.887   4.525   5.815  1.6385  0.1015  1.0563
  237MOL0     H31940   9.985   4.747   5.762 -0.2591  3.0473 -0.4214
  237MOL0     H31941   9.887   4.768   5.617  1.5127 -0.1856 -1.1350
  237MOL0     H31942   9.810   4.869   5.848  0.0858 -0.1353  0.2675
  237MOL0     H31943   9.749   4.722   5.891 -1.9023  3.2638  1.5624
  237MOL0     H31944   9.585   4.849   5.776  0.3887 -0.4045  0.4933
  237MOL0     H31945   9.672   4.879   5.635 -2.9585  0.2268 -0.1074
  237MOL0     H31946   9.524   4.775   5.443  0.6449 -1.6301 -1.6294
  237MOL0     H31947   9.266   4.700   5.388  2.1963  0.5968 -0.4403
  237MOL0     H31948   9.332   4.546   5.340  1.7086  1.4475 -0.2371
  237MOL0     H31949   9.159   4.551   5.590 -1.6745 -0.1129 -0.5717
  237MOL0     H31950   9.088   4.581   5.433  1.1000  0.1969 -0.2363
  237MOL0     H31951   9.271   4.350   5.433  1.1462 -0.8166  0.0219
  237MOL0     H31952   9.124   4.386   5.335  0.4821 -1.6109  0.5773
  237MOL0     H31953   9.064   4.209   5.462 -0.0021 -0.8213  0.2303
  237MOL0     H31954   8.997   4.367   5.525  1.1454  1.2302 -0.8910
  237MOL0     H31955   8.900   4.098   5.638 -2.5737 -0.3697  1.4590
  237MOL0     H31956   8.855   3.947   5.839  0.6179 -0.1684  0.9115
  237MOL0     H31957   9.279   3.794   6.269 -0.2082 -0.1289 -1.2157
  237MOL0     H31958   9.272   3.645   6.469 -2.1845 -1.6750  1.2402
  237MOL0     H31959   9.155   3.705   6.754 -1.1587  3.4781  4.4184
  237MOL0     H31960   8.990   3.750   6.684  1.7366 -0.3314 -3.1227
  237MOL0     H31961   8.910   3.533   6.807  1.1489 -1.6807 -0.8095
  237MOL0     H31962   9.084   3.510   6.855  3.2021  1.9931 -2.8031
  237MOL0     H31963   8.970   3.761   6.922 -0.8643 -0.4278 -1.7409
  237MOL0     H31964   8.900   3.636   7.010 -0.7965 -0.2567 -1.1757
  237MOL0     H31965   9.202   3.682   6.980 -1.8408 -1.9775 -2.6821
  237MOL0     H31966   9.148   3.560   7.081  0.2264 -0.2551 -1.7500
  237MOL0     H31967   9.057   3.724   7.252  0.5946  1.1571  0.5927
  237MOL0     H31968   9.061   3.855   7.131  2.0611  0.4344 -2.2646
  237MOL0     H31969   9.325   3.727   7.243  0.1726  0.3068  1.6262
  237MOL0     H31970   9.292   3.880   7.150 -2.2007  1.7405  0.0586
  237MOL0     H31971   9.132   3.834   7.398 -0.2101 -0.8294 -1.5159
  237MOL0     H31972   9.227   3.983   7.369 -2.5817  0.6654  4.2963
  237MOL0     H31973   9.322   3.844   7.564 -0.7433 -0.0507  0.3479
  237MOL0     H31974   9.326   3.716   7.458  0.0450  0.1147  0.7258
  237MOL0     H31975   8.849   3.687   6.491 -0.7738  0.8794  0.5659
  237MOL0     H31976   8.863   3.881   6.327  0.3906  0.2125  0.5774
  237MOL0     H31977   9.201   4.093   6.046  2.4908 -2.7434 -1.4519
  237MOL0     H31978   9.248   4.237   5.850  0.5130  0.4851 -1.6658
  237MOL0     H31979  10.178   4.633   5.096 -1.0629  0.8012 -0.4226
  237MOL0     H31980  10.179   4.661   4.864  1.4686 -1.7267 -4.1850
  237MOL0     H31981  10.294   4.534   4.554  0.8527  0.6572 -0.5889
  237MOL0     H31982  10.413   4.584   4.345  0.9362 -3.0033 -1.2325
  237MOL0     H31983  10.519   4.565   4.154 -1.0559 -2.7945 -1.7045
  237MOL0     H31984  10.435   4.720   4.154 -1.7463  1.3423 -1.2156
  237MOL0     H31985  10.437   4.760   3.934 -1.9837 -0.3770  1.4377
  237MOL0     H31986  10.469   4.588   3.896  4.2310  0.5394 -2.4768
  237MOL0     H31987  10.704   4.606   3.958  3.3766  1.6840 -1.8769
  237MOL0     H31988  10.674   4.775   3.993 -4.4661  2.8221 -0.7112
  237MOL0     H31989  10.596   4.779   3.728 -3.2724 -2.8943 -1.0388
  237MOL0     H31990  10.777   4.760   3.754  0.5561 -1.6995 -1.4669
  237MOL0     H31991  10.696   4.378   3.615  0.5816  0.6789 -0.4505
  237MOL0     H31992  10.072   4.523   4.117 -0.7083 -1.3010 -1.2174
  237MOL0     H31993   9.873   4.349   4.386  1.7998  0.9278  3.0452
  237MOL0     H31994   9.840   4.520   4.349  2.0643  1.6785  2.7387
  237MOL0     H31995   9.875   4.390   4.219 -1.6127 -0.1345  0.6095
  238MOL0     O31996   4.742   5.099  10.697  0.2023 -0.7807 -0.2847
  238MOL0     C31997   4.744   5.119  10.570  0.1022  0.3022 -0.1430
  238MOL0     O31998   4.686   5.231  10.504  0.2520  0.5008 -0.5800
  238MOL0     C31999   4.628   5.323  10.587  0.4535 -0.1716 -0.6475
  238MOL0     C32000   4.503   5.363  10.548  0.9320  0.1476  0.1914
  238MOL0     C32001   4.432   5.447  10.634 -1.0479  0.2705 -0.2446
  238MOL0     C32002   4.485   5.515  10.744 -0.4290  1.1015  0.2843
  238MOL0     O32003   4.406   5.602  10.805  0.7632  0.2127 -0.6067
  238MOL0     C32004   4.433   5.635  10.942 -0.2311 -0.5937  0.3185
  238MOL0     C32005   4.308   5.696  11.008  0.8277  0.6269 -0.0011
  238MOL0     C32006   4.319   5.685  11.163  0.7189  1.0916  0.9215
  238MOL0     C32007   4.186   5.764  11.221 -0.0353 -0.4477 -0.0026
  238MOL0     C32008   4.202   5.756  11.368 -0.3660 -0.2658  0.0580
  238MOL0     C32009   4.284   5.880  11.420  0.6097  0.0396  1.0849
  238MOL0     C32010   4.209   6.011  11.415 -0.3989  0.2338  0.0617
  238MOL0     C32011   4.071   6.010  11.493 -0.6112 -0.1763  0.5451
  238MOL0     N32012   4.095   5.986  11.633  0.7013  0.2749 -0.1187
  238MOL0     C32013   4.136   6.082  11.727 -0.7249  1.1576 -0.1583
  238MOL0     C32014   4.118   6.033  11.852  0.2058 -0.1587 -0.2365
  238MOL0     C32015   4.106   6.116  11.981  0.1221  0.2518 -0.0433
  238MOL0     C32016   4.230   6.093  12.062 -0.3082  0.3691 -0.8298
  238MOL0     C32017   4.342   6.191  12.010  0.7106 -0.2859  1.1666
  238MOL0     C32018   4.471   6.146  12.077 -0.1156 -0.2072 -0.1334
  238MOL0     O32019   4.561   6.261  12.082  0.4961  0.0106  0.2800
  238MOL0     C32020   4.676   6.242  12.157  0.0848  0.7799 -1.0084
  238MOL0     C32021   4.710   6.140  12.243  0.1494  0.1532  0.5717
  238MOL0     C32022   4.827   6.137  12.312 -0.3228 -0.2548  0.2159
  238MOL0     C32023   4.910   6.247  12.303 -0.1275  0.5195  0.6033
  238MOL0     C32024   5.032   6.256  12.398  0.1473  0.5325  0.1314
  238MOL0     O32025   5.030   6.168  12.498 -0.4073 -0.0272  0.0719
  238MOL0     C32026   5.107   6.179  12.611 -0.5461  0.9229 -0.6485
  238MOL0     C32027   5.120   6.057  12.682 -0.0744  0.2825 -0.3997
  238MOL0     C32028   5.203   6.041  12.796  0.5471  0.0794  2.3584
  238MOL0     C32029   5.272   6.157  12.836 -0.0860  0.5131 -0.3012
  238MOL0     O32030   5.369   6.156  12.934  0.2356 -0.0255  0.2512
  238MOL0     C32031   5.423   6.035  12.977 -0.4310  0.1369  0.1502
  238MOL0     C32032   5.569   6.063  13.039  0.9377 -0.7307 -0.7261
  238MOL0     C32033   5.626   5.943  13.112 -0.2856 -0.6572 -0.3596
  238MOL0     C32034   5.759   5.966  13.180  0.4191  1.0967  0.0834
  238MOL0     C32035   5.741   6.051  13.309  0.6789  1.3688  0.2803
  238MOL0     C32036   5.855   5.990  13.405  0.7359  0.0504 -0.9881
  238MOL0     C32037   5.910   6.093  13.499  0.4119 -0.2334 -0.7456
  238MOL0     C32038   5.798   6.164  13.574  0.2438 -0.1410 -0.6839
  238MOL0    Cl32039   5.856   6.301  13.683 -0.5298 -0.4476 -0.3192
  238MOL0     C32040   5.251   6.273  12.778  0.2860  0.1486  0.0411
  238MOL0     C32041   5.176   6.291  12.658 -0.4150  0.0963  0.7486
  238MOL0     O32042   5.108   6.352  12.388 -0.1572 -0.4398  0.1257
  238MOL0     C32043   4.881   6.356  12.216 -0.3772  0.4380 -0.5805
  238MOL0     C32044   4.756   6.348  12.147 -0.3131 -0.0030  0.2507
  238MOL0     N32045   4.069   5.901  11.841  0.4867 -0.6542 -0.4315
  238MOL0     N32046   4.056   5.879  11.713 -0.1510  0.3996  1.1580
  238MOL0     C32047   4.623   5.483  10.769  0.2166 -0.1817 -0.0161
  238MOL0     C32048   4.688   5.384  10.700  0.1283 -0.0473 -0.5566
  238MOL0     C32049   4.826   5.030  10.488  0.0606 -0.3862 -0.3094
  238MOL0     C32050   4.844   5.068  10.356  0.3377 -0.1845  0.6204
  238MOL0     C32051   4.911   4.997  10.269 -0.1901  0.3076 -1.0625
  238MOL0     C32052   4.965   4.876  10.314  0.0384 -0.3065  0.7460
  238MOL0     O32053   5.032   4.816  10.214 -0.2827 -0.1584  0.1290
  238MOL0     C32054   5.103   4.695  10.234  0.3207 -0.1819 -0.4276
  238MOL0     C32055   5.167   4.653  10.111  0.1097  0.1029 -0.4905
  238MOL0     C32056   5.263   4.761  10.045  0.1874 -0.0787 -0.1017
  238MOL0     C32057   5.362   4.825  10.130 -1.3964 -0.3051 -1.0660
  238MOL0     C32058   5.442   4.936  10.062  0.6089  0.2977 -1.0719
  238MOL0     C32059   5.508   5.035  10.014  0.1223  0.4312  0.1684
  238MOL0     C32060   4.947   4.829  10.444 -1.0462  0.5807  0.0686
  238MOL0     C32061   4.874   4.904  10.530  1.1478 -0.1007  0.2254
  238MOL0     C32062   4.860   4.848  10.664  0.3960  0.2624  0.2512
  238MOL0     H32063   4.469   5.306  10.462 -1.7531 -0.2792  1.4365
  238MOL0     H32064   4.330   5.477  10.613 -0.4948  1.8021 -0.8240
  238MOL0     H32065   4.452   5.537  10.986  3.7325 -0.9865 -1.8103
  238MOL0     H32066   4.522   5.695  10.959 -0.5012  0.3843 -1.4063
  238MOL0     H32067   4.221   5.640  10.973  2.6468 -1.7829 -0.8968
  238MOL0     H32068   4.303   5.802  10.978  1.7429  1.5343  2.7406
  238MOL0     H32069   4.408   5.733  11.206  3.9864  0.3893 -4.2686
  238MOL0     H32070   4.311   5.580  11.190  2.2378 -0.2405 -3.0610
  238MOL0     H32071   4.196   5.869  11.193 -0.6358  0.3261  2.4309
  238MOL0     H32072   4.096   5.719  11.178  1.8131 -3.3114 -1.2451
  238MOL0     H32073   4.108   5.744  11.422 -0.3366  3.3489  1.1178
  238MOL0     H32074   4.266   5.673  11.399 -0.4178 -0.9485 -1.5740
  238MOL0     H32075   4.296   5.872  11.528 -3.7292  3.2139  2.1119
  238MOL0     H32076   4.385   5.891  11.380  0.2619 -2.3507 -0.7178
  238MOL0     H32077   4.184   6.030  11.311  0.1180  2.4039  0.2921
  238MOL0     H32078   4.269   6.095  11.451  0.7390 -1.8549  3.5538
  238MOL0     H32079   4.030   6.105  11.459  0.6575  0.2621  0.1913
  238MOL0     H32080   4.014   5.935  11.438  0.1189  0.1509 -0.6875
  238MOL0     H32081   4.168   6.182  11.699 -0.5373  0.9552 -0.6792
  238MOL0     H32082   4.095   6.220  11.950  0.6836  0.1738 -0.5153
  238MOL0     H32083   4.023   6.086  12.045  2.3209 -1.4880  2.1461
  238MOL0     H32084   4.220   6.093  12.171 -0.4628  1.1474 -0.8399
  238MOL0     H32085   4.268   5.991  12.056 -0.9588 -0.3457  3.8061
  238MOL0     H32086   4.311   6.292  12.037 -2.7545 -0.4884 -1.3458
  238MOL0     H32087   4.344   6.188  11.901 -3.9062 -0.5962  0.8581
  238MOL0     H32088   4.516   6.066  12.017 -1.6068 -0.1910 -1.3220
  238MOL0     H32089   4.440   6.107  12.174 -2.4322 -1.5164 -1.2985
  238MOL0     H32090   4.630   6.067  12.256 -0.2003  0.3598 -0.3466
  238MOL0     H32091   4.841   6.058  12.385 -2.2621  1.1149  2.2388
  238MOL0     H32092   5.074   5.967  12.642 -0.5504  1.3956 -2.5714
  238MOL0     H32093   5.210   5.937  12.828 -1.6674  0.7151  5.4360
  238MOL0     H32094   5.349   6.002  13.051 -2.9735  2.5430 -1.1476
  238MOL0     H32095   5.442   5.958  12.901 -4.5793  1.1654 -2.2367
  238MOL0     H32096   5.637   6.086  12.957  1.1792 -0.7150 -0.5212
  238MOL0     H32097   5.566   6.149  13.107  1.4458 -0.6678 -0.7790
  238MOL0     H32098   5.546   5.905  13.175 -2.6328  2.7861 -0.9766
  238MOL0     H32099   5.638   5.861  13.041  1.0202 -1.1458  0.3772
  238MOL0     H32100   5.829   6.005  13.106  1.3145 -0.4792  0.0578
  238MOL0     H32101   5.790   5.866  13.209 -0.6624  0.5593 -0.5254
  238MOL0     H32102   5.648   6.039  13.364  1.5323  0.0626  1.5172
  238MOL0     H32103   5.745   6.154  13.272 -0.7023  1.4320  0.2816
  238MOL0     H32104   5.800   5.917  13.465  0.7543  0.2537 -0.7236
  238MOL0     H32105   5.939   5.947  13.351  2.0459  0.5545  0.5935
  238MOL0     H32106   5.961   6.169  13.438  1.9096  0.7335  1.5545
  238MOL0     H32107   5.974   6.033  13.564  3.0786  0.5727 -2.4660
  238MOL0     H32108   5.730   6.213  13.504  1.0580  1.0348 -0.6824
  238MOL0     H32109   5.747   6.087  13.632  1.5528 -0.7942 -0.3658
  238MOL0     H32110   5.315   6.360  12.788  1.3355 -0.6186  0.1755
  238MOL0     H32111   5.171   6.386  12.606  0.5600 -1.5604 -2.6245
  238MOL0     H32112   4.939   6.446  12.203 -0.3981  0.4337 -0.7043
  238MOL0     H32113   4.727   6.426  12.077 -2.7850  0.5034  1.6744
  238MOL0     H32114   4.680   5.529  10.849 -1.2965  0.2932  0.8380
  238MOL0     H32115   4.785   5.351  10.734  0.1302  2.9074  2.8702
  238MOL0     H32116   4.816   5.163  10.312  1.6950  0.6959  1.5668
  238MOL0     H32117   4.934   5.032  10.169 -0.4706  0.2100 -1.1638
  238MOL0     H32118   5.025   4.621  10.255  0.0280 -0.1842 -1.4677
  238MOL0     H32119   5.176   4.686  10.315 -0.2339 -5.4887 -0.1399
  238MOL0     H32120   5.085   4.644  10.039 -0.9389  5.3239 -0.3454
  238MOL0     H32121   5.222   4.560  10.127  0.6557  0.2993 -1.1469
  238MOL0     H32122   5.201   4.841  10.002  0.2090  1.1984  2.0427
  238MOL0     H32123   5.322   4.719   9.964  1.0479 -1.4567  1.1936
  238MOL0     H32124   5.311   4.872  10.214  0.1052 -3.8329  2.0981
  238MOL0     H32125   5.420   4.743  10.174  1.1576  2.9546  2.1953
  238MOL0     H32126   5.557   5.124   9.979  1.1542  0.7225  2.2108
  238MOL0     H32127   4.990   4.734  10.471 -1.5320  0.1224 -0.7263
  238MOL0     H32128   4.910   4.751  10.677  0.8028  0.6977  2.3086
  238MOL0     H32129   4.917   4.909  10.734  1.2573  0.2835 -0.4528
  238MOL0     H32130   4.761   4.839  10.710  1.5152 -2.8018  2.4252
  239MOL0     O32131   3.793   1.570   0.958  0.5569  0.1071 -0.0887
  239MOL0     C32132   3.854   1.466   0.984  1.0598 -0.5540 -1.2767
  239MOL0     O32133   3.937   1.388   0.901 -0.9669 -0.2742 -0.2035
  239MOL0     C32134   3.959   1.414   0.762  0.3901  0.2399 -0.1371
  239MOL0     C32135   4.016   1.311   0.681 -0.1056  1.3283 -0.7041
  239MOL0     C32136   4.053   1.322   0.548  0.3417  0.0108  1.1271
  239MOL0     C32137   4.026   1.436   0.473 -1.2689 -0.5559 -0.1603
  239MOL0     O32138   4.033   1.443   0.333 -0.1038  0.2103  0.3241
  239MOL0     C32139   3.929   1.505   0.262  0.0759  0.0729  0.1607
  239MOL0     C32140   3.940   1.481   0.108 -0.9231  0.2943 -0.0733
  239MOL0     C32141   3.824   1.545   0.026  0.2882  0.1208 -1.0342
  239MOL0     C32142   3.831   1.484  -0.113 -0.3603 -0.1018  0.3054
  239MOL0     C32143   3.772   1.567  -0.226 -0.6505 -0.2821 -1.1853
  239MOL0     C32144   3.760   1.519  -0.368 -0.1663 -0.3869 -0.3103
  239MOL0     C32145   3.650   1.422  -0.398  0.0535  0.5337  0.4606
  239MOL0     C32146   3.505   1.453  -0.357  0.1712 -0.3565 -0.1616
  239MOL0     N32147   3.431   1.322  -0.361  0.2308 -0.5115 -0.0389
  239MOL0     C32148   3.346   1.285  -0.468 -0.3834 -0.7691 -0.1377
  239MOL0     C32149   3.314   1.158  -0.431 -0.3744  1.2054 -0.2504
  239MOL0     C32150   3.215   1.079  -0.513 -1.1493 -0.7365 -0.0585
  239MOL0     C32151   3.229   1.072  -0.662  1.0747 -1.0402 -0.3306
  239MOL0     C32152   3.124   0.981  -0.713  0.0785 -1.0238 -1.1958
  239MOL0     C32153   3.114   1.010  -0.857  0.2697 -0.6564  0.1134
  239MOL0     O32154   3.241   1.019  -0.928 -0.1920 -0.7491  0.6836
  239MOL0     C32155   3.234   0.983  -1.055  0.2681 -0.3784  1.6940
  239MOL0     C32156   3.335   0.900  -1.100  0.2475  0.1637 -0.0586
  239MOL0     C32157   3.357   0.881  -1.232 -0.3367 -0.3814  0.6101
  239MOL0     C32158   3.275   0.955  -1.333 -0.4669  0.2024  1.3580
  239MOL0     C32159   3.304   0.939  -1.476 -0.0694 -1.0082 -0.5431
  239MOL0     O32160   3.394   0.847  -1.516  0.6638 -1.1519 -0.1389
  239MOL0     C32161   3.421   0.849  -1.650 -0.2364 -0.6111 -0.2528
  239MOL0     C32162   3.350   0.786  -1.743  0.3635  0.4553  0.6098
  239MOL0     C32163   3.367   0.814  -1.882 -0.5500 -0.1344 -0.2191
  239MOL0     C32164   3.467   0.897  -1.928 -0.7235  0.5821  0.0849
  239MOL0     O32165   3.487   0.915  -2.061  0.3729  0.7637  0.6709
  239MOL0     C32166   3.379   0.972  -2.134  0.7831 -0.8680 -0.6446
  239MOL0     C32167   3.424   1.016  -2.263  0.8331 -0.0780  0.5657
  239MOL0     C32168   3.314   1.083  -2.345 -0.1712  0.1655  0.6214
  239MOL0     C32169   3.312   1.040  -2.494 -0.2966  0.9065 -0.7524
  239MOL0     C32170   3.257   0.902  -2.521  0.2653  0.4214 -0.2795
  239MOL0     C32171   3.258   0.861  -2.670 -0.4896  0.2515  0.3456
  239MOL0     C32172   3.225   0.707  -2.659 -0.5532  0.2031 -0.0250
  239MOL0     C32173   3.227   0.655  -2.801 -0.3903  0.1203 -0.1037
  239MOL0    Cl32174   3.376   0.655  -2.880 -0.1521 -0.0975  0.5195
  239MOL0     C32175   3.549   0.958  -1.829  0.1509 -0.6794  0.1646
  239MOL0     C32176   3.523   0.940  -1.692  1.3116 -0.6253 -0.6043
  239MOL0     O32177   3.242   1.008  -1.553  0.2203 -0.2855  0.1632
  239MOL0     C32178   3.168   1.034  -1.290  0.9907  0.1888 -0.5664
  239MOL0     C32179   3.153   1.054  -1.148 -0.9133  0.8812  0.6060
  239MOL0     N32180   3.375   1.123  -0.309  0.9387  0.0940  0.6003
  239MOL0     N32181   3.432   1.227  -0.273 -0.8774  0.1337 -0.3948
  239MOL0     C32182   3.995   1.549   0.554  0.5152 -0.8837 -0.0851
  239MOL0     C32183   3.958   1.532   0.688 -0.9058 -0.0227 -0.6171
  239MOL0     C32184   3.842   1.417   1.125  0.2691  0.2532 -0.3541
  239MOL0     C32185   3.873   1.281   1.151  0.2790  0.5044 -1.2303
  239MOL0     C32186   3.898   1.228   1.279 -0.4851  0.8746  0.8744
  239MOL0     C32187   3.892   1.311   1.397  0.0748 -0.1279 -0.3078
  239MOL0     O32188   3.928   1.261   1.511  0.4173  0.6613 -0.2485
  239MOL0     C32189   4.028   1.336   1.585  0.0742  0.4444  0.1744
  239MOL0     C32190   4.162   1.266   1.571 -0.8380  0.1780 -1.3858
  239MOL0     C32191   4.154   1.144   1.668  0.2993 -0.1593  0.2797
  239MOL0     C32192   4.292   1.076   1.699 -0.1496 -0.7596 -0.6725
  239MOL0     C32193   4.397   1.160   1.764  0.0966 -0.8616  0.3470
  239MOL0     C32194   4.488   1.209   1.831  0.9033  0.4747 -0.1726
  239MOL0     C32195   3.842   1.434   1.371  1.2270 -0.1903  0.2114
  239MOL0     C32196   3.805   1.485   1.241  0.3336  0.5315  0.2923
  239MOL0     C32197   3.735   1.618   1.231 -0.5803 -0.1326  0.3668
  239MOL0     H32198   4.032   1.218   0.735  2.5094  1.7774 -0.5918
  239MOL0     H32199   4.087   1.234   0.492 -1.7864  2.3008 -4.4903
  239MOL0     H32200   3.829   1.472   0.291 -1.2833  1.0182 -2.9963
  239MOL0     H32201   3.940   1.611   0.287 -1.7286 -0.0830  1.7986
  239MOL0     H32202   3.971   1.379   0.088  2.1321  0.8246  1.3220
  239MOL0     H32203   4.024   1.543   0.075 -0.9430  1.0160  1.1497
  239MOL0     H32204   3.841   1.653   0.018 -3.1951  0.8426 -0.3962
  239MOL0     H32205   3.728   1.538   0.077 -1.0562  2.6668 -2.9575
  239MOL0     H32206   3.934   1.453  -0.133 -0.6059  0.8561 -2.9663
  239MOL0     H32207   3.780   1.388  -0.119 -0.3756 -0.0090 -1.5976
  239MOL0     H32208   3.670   1.584  -0.188 -0.6380 -1.3251 -0.6510
  239MOL0     H32209   3.834   1.657  -0.233  1.3814 -1.6685 -2.0473
  239MOL0     H32210   3.750   1.598  -0.443  0.1041 -0.9532 -0.9539
  239MOL0     H32211   3.853   1.466  -0.389 -0.6507 -0.9802 -1.0091
  239MOL0     H32212   3.678   1.321  -0.369 -0.7142  0.7005  1.8502
  239MOL0     H32213   3.657   1.422  -0.507  1.7662  1.9940  0.5106
  239MOL0     H32214   3.493   1.499  -0.258 -0.5015  2.9503 -1.6279
  239MOL0     H32215   3.455   1.521  -0.427 -0.9204  1.2672  2.0698
  239MOL0     H32216   3.307   1.336  -0.556  1.2249  0.0675 -0.3950
  239MOL0     H32217   3.208   0.979  -0.468  1.2325 -0.5085  1.0029
  239MOL0     H32218   3.122   1.133  -0.496 -0.0065  1.1245  0.5067
  239MOL0     H32219   3.227   1.176  -0.695  1.2481 -0.9137  0.0431
  239MOL0     H32220   3.330   1.035  -0.684  1.7175 -1.8351  3.2521
  239MOL0     H32221   3.027   0.998  -0.665  1.3233 -3.5515  2.6560
  239MOL0     H32222   3.156   0.880  -0.683  0.8931 -0.1740  0.9702
  239MOL0     H32223   3.080   1.113  -0.870  0.4939  0.0551  3.9511
  239MOL0     H32224   3.041   0.935  -0.889  1.2722 -1.8565  0.5752
  239MOL0     H32225   3.390   0.853  -1.019  0.2757 -1.2287 -0.8539
  239MOL0     H32226   3.439   0.824  -1.275  1.5760  2.7182 -0.1603
  239MOL0     H32227   3.280   0.705  -1.722 -0.5438  0.9075 -0.5520
  239MOL0     H32228   3.320   0.760  -1.964  3.3580 -1.2314 -1.9542
  239MOL0     H32229   3.300   0.898  -2.152 -0.7443  1.2082 -2.9754
  239MOL0     H32230   3.337   1.055  -2.077  1.6235 -0.3112 -0.8230
  239MOL0     H32231   3.499   1.093  -2.243 -3.3184  4.7079 -0.3000
  239MOL0     H32232   3.470   0.930  -2.314 -1.2397  0.0658 -1.7805
  239MOL0     H32233   3.218   1.065  -2.296 -1.4711 -1.9950 -2.3716
  239MOL0     H32234   3.339   1.189  -2.335 -0.9342  0.2553  1.7016
  239MOL0     H32235   3.415   1.046  -2.529 -0.2623  2.7134 -0.4234
  239MOL0     H32236   3.245   1.105  -2.552  0.0676  1.5371 -0.4726
  239MOL0     H32237   3.152   0.907  -2.492  0.0721  1.7138 -1.1167
  239MOL0     H32238   3.318   0.831  -2.464  2.8679  0.6219 -2.5806
  239MOL0     H32239   3.200   0.916  -2.744  2.1581  1.0337 -1.2643
  239MOL0     H32240   3.362   0.873  -2.700 -0.8695 -0.9678 -1.6277
  239MOL0     H32241   3.129   0.683  -2.612 -0.7306 -0.9541 -0.9482
  239MOL0     H32242   3.304   0.657  -2.603 -2.5519 -3.0800  0.1002
  239MOL0     H32243   3.182   0.557  -2.817  4.3185 -2.2204 -0.7856
  239MOL0     H32244   3.168   0.719  -2.867  0.4006 -0.2114 -1.1478
  239MOL0     H32245   3.632   1.020  -1.861  0.8680 -2.0529 -0.7467
  239MOL0     H32246   3.570   1.013  -1.626  1.3787 -0.9191 -0.3206
  239MOL0     H32247   3.094   1.078  -1.356 -0.0063 -0.8414 -0.1833
  239MOL0     H32248   3.072   1.115  -1.111  0.8612  1.4620  3.9919
  239MOL0     H32249   3.960   1.648   0.526 -2.4330 -1.0700  2.3862
  239MOL0     H32250   3.931   1.620   0.746 -2.1511  0.2132 -1.5315
  239MOL0     H32251   3.880   1.202   1.078  1.7096  0.9649 -1.6327
  239MOL0     H32252   3.935   1.126   1.285  0.3916  1.1608  0.5221
  239MOL0     H32253   4.011   1.343   1.693  1.8327 -2.8659  0.8067
  239MOL0     H32254   4.047   1.436   1.544  3.0137 -1.3101 -3.2947
  239MOL0     H32255   4.241   1.337   1.600 -0.2438  1.1940 -5.0207
  239MOL0     H32256   4.183   1.250   1.465  1.9129  2.1625 -1.2657
  239MOL0     H32257   4.091   1.063   1.629  0.3107  0.2788 -0.6735
  239MOL0     H32258   4.106   1.168   1.763  0.6387  2.7402 -0.2042
  239MOL0     H32259   4.278   0.986   1.758 -1.6736 -1.5216 -2.1193
  239MOL0     H32260   4.319   1.033   1.602  1.1833 -2.2142  0.3080
  239MOL0     H32261   4.571   1.255   1.881  0.3833  2.2825 -0.9076
  239MOL0     H32262   3.837   1.492   1.462  1.0763  0.5545 -0.2571
  239MOL0     H32263   3.652   1.621   1.160 -0.0238 -2.8421 -0.5266
  239MOL0     H32264   3.703   1.649   1.330  0.5447 -0.9934  1.0369
  239MOL0     H32265   3.808   1.697   1.209  1.0172  0.0892  5.2534
  240MOL0     O32266   3.781   7.924   8.027 -0.3500  0.5807 -0.4251
  240MOL0     C32267   3.761   7.800   8.010 -0.8114  0.6862  0.0471
  240MOL0     O32268   3.747   7.707   8.102 -1.1168 -0.2826  0.5455
  240MOL0     C32269   3.808   7.756   8.215  0.0008  0.3878  0.7203
  240MOL0     C32270   3.731   7.767   8.336 -0.3051  0.4848  0.5230
  240MOL0     C32271   3.787   7.749   8.465  0.4741 -0.1194 -0.1061
  240MOL0     C32272   3.924   7.741   8.479 -0.1351 -0.0243  0.1683
  240MOL0     O32273   3.991   7.716   8.594  0.2845 -0.6257 -0.9148
  240MOL0     C32274   3.912   7.676   8.712 -0.1526  0.2550 -0.8082
  240MOL0     C32275   4.010   7.649   8.818  0.0053 -1.5031 -0.4123
  240MOL0     C32276   4.018   7.501   8.854  1.0237 -0.0498 -1.4854
  240MOL0     C32277   4.131   7.480   8.970 -0.0691 -0.0927  0.0748
  240MOL0     C32278   4.144   7.332   8.999 -0.3111  0.5069  0.2433
  240MOL0     C32279   4.229   7.273   8.898 -0.3328 -0.0444  0.2812
  240MOL0     C32280   4.221   7.124   8.917 -0.4913  0.1380  0.8545
  240MOL0     C32281   4.328   7.054   8.835  1.2566  0.6714 -0.2168
  240MOL0     N32282   4.465   7.095   8.863  1.0868  0.6840 -0.2060
  240MOL0     C32283   4.551   7.138   8.766 -0.0720 -1.0312  0.1593
  240MOL0     C32284   4.673   7.131   8.821 -0.5478  0.3381 -0.6613
  240MOL0     C32285   4.815   7.175   8.776  0.7390 -0.3708 -0.4853
  240MOL0     C32286   4.823   7.323   8.765 -0.1191 -0.9609  0.2780
  240MOL0     C32287   4.963   7.372   8.731  0.3808  0.2948  0.5420
  240MOL0     C32288   4.971   7.502   8.645  0.3282  0.3037  0.0685
  240MOL0     O32289   4.894   7.471   8.528  0.4111  0.7722  0.5948
  240MOL0     C32290   4.900   7.559   8.428 -0.1135  0.5149  0.1773
  240MOL0     C32291   4.837   7.524   8.318  0.6309  0.1331  1.2224
  240MOL0     C32292   4.850   7.595   8.196 -0.0111 -0.2642  0.2683
  240MOL0     C32293   4.934   7.711   8.177 -0.3852  0.8951 -0.5146
  240MOL0     C32294   4.978   7.764   8.048  0.3818  0.6495 -1.1054
  240MOL0     O32295   5.023   7.899   8.040  0.6375  0.7583  0.3084
  240MOL0     C32296   5.082   7.937   7.921  0.1619  0.7279 -0.8349
  240MOL0     C32297   5.018   8.035   7.847  0.0107  0.9519 -0.5656
  240MOL0     C32298   5.070   8.085   7.735  0.5048  0.5973 -0.7466
  240MOL0     C32299   5.193   8.044   7.688 -1.6097  0.9710  0.6586
  240MOL0     O32300   5.258   8.109   7.580  0.5768  0.8416  0.3433
  240MOL0     C32301   5.399   8.112   7.584 -0.7692 -0.0360 -0.3134
  240MOL0     C32302   5.450   8.165   7.443 -0.4422 -0.5024 -0.3034
  240MOL0     C32303   5.475   8.064   7.338 -0.5148  0.3345 -0.4005
  240MOL0     C32304   5.349   7.986   7.308 -0.3691 -0.7338  0.1651
  240MOL0     C32305   5.366   7.889   7.188 -0.0601  0.7752 -0.8521
  240MOL0     C32306   5.437   7.753   7.216 -0.2340 -0.5924  0.9045
  240MOL0     C32307   5.472   7.690   7.086  0.5274 -0.3441 -0.2313
  240MOL0     C32308   5.585   7.760   7.009  0.3237  0.5591  1.5290
  240MOL0    Cl32309   5.743   7.775   7.112  0.0478  0.0314  0.7281
  240MOL0     C32310   5.256   7.936   7.758 -0.1367  0.2419  0.5184
  240MOL0     C32311   5.204   7.882   7.880 -0.0915  0.4586  0.2476
  240MOL0     O32312   4.964   7.697   7.949 -0.3945 -0.8954  0.4030
  240MOL0     C32313   4.985   7.764   8.295  1.0734  0.4107 -0.8432
  240MOL0     C32314   4.962   7.689   8.419 -0.3780  0.3482 -0.1422
  240MOL0     N32315   4.656   7.074   8.952  0.5141  0.1570  0.7396
  240MOL0     N32316   4.534   7.042   8.961  0.7284  0.1894 -0.1025
  240MOL0     C32317   4.004   7.732   8.367 -0.1861 -0.4660 -0.2839
  240MOL0     C32318   3.953   7.749   8.236 -0.1061 -0.0175 -0.1171
  240MOL0     C32319   3.728   7.759   7.864 -0.4774  0.7051 -0.3134
  240MOL0     C32320   3.691   7.622   7.838 -0.6737 -0.5397 -0.6226
  240MOL0     C32321   3.674   7.574   7.704 -0.9026 -0.9716  0.5347
  240MOL0     C32322   3.688   7.657   7.603 -0.3969 -0.0984  0.3819
  240MOL0     O32323   3.671   7.612   7.472  0.7319 -0.4747  0.3445
  240MOL0     C32324   3.755   7.507   7.423  0.6854 -0.1008 -0.3125
  240MOL0     C32325   3.696   7.371   7.385 -0.3887 -0.3844 -0.3173
  240MOL0     C32326   3.583   7.356   7.279 -0.5152 -0.7130 -0.6091
  240MOL0     C32327   3.646   7.401   7.146  0.5789 -0.3215  0.8351
  240MOL0     C32328   3.524   7.407   7.055 -0.6166 -0.2077 -0.1493
  240MOL0     C32329   3.425   7.394   6.991  0.3567 -0.0833  0.0652
  240MOL0     C32330   3.707   7.797   7.624 -1.2924  0.5704  0.5440
  240MOL0     C32331   3.716   7.852   7.753 -0.1594 -0.3143  0.1659
  240MOL0     C32332   3.713   8.003   7.778  0.4437 -0.8404 -1.2634
  240MOL0     H32333   3.626   7.788   8.323 -1.6580 -5.4051 -1.2327
  240MOL0     H32334   3.727   7.771   8.553 -0.4180  2.0172 -1.1618
  240MOL0     H32335   3.848   7.753   8.756  2.4465  1.1714  1.7097
  240MOL0     H32336   3.847   7.590   8.688 -1.0783  0.0180  2.0935
  240MOL0     H32337   3.981   7.712   8.902 -0.4990 -0.2396 -1.4839
  240MOL0     H32338   4.105   7.694   8.790 -1.8922  2.8646 -0.7041
  240MOL0     H32339   4.038   7.437   8.767  1.3196 -4.0413  1.2437
  240MOL0     H32340   3.926   7.467   8.903  1.6941  0.7101  0.3697
  240MOL0     H32341   4.231   7.519   8.947  0.9911 -2.8813 -0.3982
  240MOL0     H32342   4.100   7.525   9.065 -0.4278 -0.0327 -0.0701
  240MOL0     H32343   4.176   7.309   9.102 -2.4655 -4.0485  0.1202
  240MOL0     H32344   4.046   7.284   8.996  0.9087 -2.3262  1.1874
  240MOL0     H32345   4.196   7.302   8.798 -1.8805  2.0940  1.3256
  240MOL0     H32346   4.333   7.305   8.909 -0.3606 -0.5814  2.7848
  240MOL0     H32347   4.127   7.092   8.872 -0.9862  0.5644  1.5707
  240MOL0     H32348   4.232   7.089   9.020  0.1228  0.2237  0.8223
  240MOL0     H32349   4.306   6.948   8.850  1.0228  0.5953 -1.0823
  240MOL0     H32350   4.315   7.058   8.727 -2.8111  0.2822  0.1246
  240MOL0     H32351   4.518   7.163   8.666  1.9435 -2.1957 -0.8436
  240MOL0     H32352   4.900   7.128   8.828  0.4496  0.0019  0.3338
  240MOL0     H32353   4.829   7.131   8.677  0.2127 -0.9279 -0.3179
  240MOL0     H32354   4.743   7.347   8.694 -2.9167 -2.3809  2.7277
  240MOL0     H32355   4.789   7.366   8.860  1.6398 -0.5728  0.7713
  240MOL0     H32356   5.024   7.296   8.682 -0.4476 -0.1286  0.1545
  240MOL0     H32357   5.010   7.386   8.829 -0.4270  0.8023  0.8690
  240MOL0     H32358   5.074   7.530   8.621 -1.1510  4.3196 -2.9779
  240MOL0     H32359   4.934   7.599   8.681  0.1789  0.9634 -1.7219
  240MOL0     H32360   4.779   7.432   8.316 -0.1000  0.5784 -0.7445
  240MOL0     H32361   4.826   7.539   8.106  0.6893 -1.3623  0.7403
  240MOL0     H32362   4.924   8.065   7.893 -0.1914 -0.8727  0.2919
  240MOL0     H32363   5.022   8.169   7.685  1.8592  0.9739 -1.4711
  240MOL0     H32364   5.423   8.183   7.664 -4.6991  3.8021 -2.1430
  240MOL0     H32365   5.453   8.024   7.621  1.3605  1.4655  0.3528
  240MOL0     H32366   5.372   8.236   7.412  0.6647  0.5188 -0.8516
  240MOL0     H32367   5.540   8.225   7.456  1.0778 -2.6908 -0.2325
  240MOL0     H32368   5.503   8.126   7.252 -0.0110 -3.7225 -3.4661
  240MOL0     H32369   5.553   7.994   7.368 -0.7908 -0.4273 -1.3787
  240MOL0     H32370   5.274   8.055   7.268  1.3747  1.7142  0.8445
  240MOL0     H32371   5.312   7.930   7.393 -1.6592  0.3066  0.3179
  240MOL0     H32372   5.400   7.943   7.100 -2.3131 -0.6663 -2.7238
  240MOL0     H32373   5.261   7.864   7.168 -0.0611 -0.7290  0.7614
  240MOL0     H32374   5.529   7.768   7.274  0.2327 -0.9808  0.2868
  240MOL0     H32375   5.360   7.698   7.271 -1.2838 -1.6455 -1.4667
  240MOL0     H32376   5.385   7.706   7.021 -0.5861  1.7290  1.6068
  240MOL0     H32377   5.491   7.583   7.096  2.1840 -0.2446 -1.7740
  240MOL0     H32378   5.610   7.711   6.914 -0.8662  2.9705 -0.1417
  240MOL0     H32379   5.557   7.863   6.985 -0.4187  0.1770  0.6852
  240MOL0     H32380   5.351   7.897   7.724  0.9019  2.9153  0.1194
  240MOL0     H32381   5.249   7.803   7.939  1.4259  0.4480 -0.8618
  240MOL0     H32382   5.036   7.860   8.300 -0.4301  1.1782  2.2112
  240MOL0     H32383   5.006   7.745   8.501  3.8669  1.8779 -3.1609
  240MOL0     H32384   4.109   7.714   8.387 -0.4848 -2.7006 -0.4416
  240MOL0     H32385   4.022   7.726   8.156 -2.7096 -2.6254 -1.8676
  240MOL0     H32386   3.686   7.553   7.922 -2.0439 -1.2092 -1.2252
  240MOL0     H32387   3.657   7.469   7.687 -1.1784 -1.2033  2.0733
  240MOL0     H32388   3.844   7.499   7.487  1.3085  1.5677 -0.9047
  240MOL0     H32389   3.801   7.543   7.330  0.3477 -0.0139 -0.4452
  240MOL0     H32390   3.644   7.331   7.472 -0.7542  2.5382  0.9481
  240MOL0     H32391   3.770   7.295   7.359 -0.7522 -0.4888 -1.0728
  240MOL0     H32392   3.501   7.417   7.318  2.5299  1.1360  3.7028
  240MOL0     H32393   3.544   7.255   7.264  2.0672 -1.6490 -1.6049
  240MOL0     H32394   3.693   7.499   7.138  2.6300 -1.0891  2.6516
  240MOL0     H32395   3.710   7.325   7.100 -0.1488  1.3571 -3.3779
  240MOL0     H32396   3.342   7.364   6.931 -0.0176  0.7703  0.1423
  240MOL0     H32397   3.696   7.851   7.530 -0.0674  0.4941  0.3394
  240MOL0     H32398   3.811   8.035   7.813 -0.0215 -0.1509 -0.5451
  240MOL0     H32399   3.695   8.048   7.680  2.0218  4.8757  0.6856
  240MOL0     H32400   3.635   8.027   7.851  0.9781 -1.1231 -0.5818
  241MOL0     O32401   5.372   6.101   3.048  0.0265 -0.3670 -0.3537
  241MOL0     C32402   5.398   6.111   2.931  0.4785  0.9250 -0.4490
  241MOL0     O32403   5.336   6.027   2.844 -0.9176  0.3327 -0.3647
  241MOL0     C32404   5.278   5.904   2.871  0.8789  0.0862  0.0945
  241MOL0     C32405   5.317   5.825   2.976  0.0934  0.1422 -0.1138
  241MOL0     C32406   5.253   5.709   2.996 -0.0545 -1.2017 -0.2996
  241MOL0     C32407   5.148   5.656   2.919  0.4393 -0.2137  1.2478
  241MOL0     O32408   5.083   5.539   2.937 -0.2691 -0.5240 -0.6951
  241MOL0     C32409   5.056   5.503   3.076 -0.4712 -0.1058  0.8088
  241MOL0     C32410   4.967   5.384   3.085  0.0907  0.5168 -0.1562
  241MOL0     C32411   4.882   5.385   3.219 -0.0565  0.6582  0.2155
  241MOL0     C32412   4.749   5.302   3.198  0.8098  1.1419 -0.6516
  241MOL0     C32413   4.665   5.291   3.327  0.3345 -0.7142 -0.0263
  241MOL0     C32414   4.715   5.175   3.409 -0.3850 -0.7410  0.1335
  241MOL0     C32415   4.645   5.138   3.536  0.3892  0.6414  0.3713
  241MOL0     C32416   4.528   5.035   3.524  0.0788  0.3022 -0.9558
  241MOL0     N32417   4.566   4.896   3.549  0.2422  0.4340  0.9306
  241MOL0     C32418   4.631   4.817   3.466  0.1727  0.2856 -0.7991
  241MOL0     C32419   4.627   4.691   3.512 -0.0895  0.2827 -0.1345
  241MOL0     C32420   4.680   4.570   3.446 -0.7941 -0.9400  0.4191
  241MOL0     C32421   4.596   4.449   3.442  0.7350  0.3796  0.4498
  241MOL0     C32422   4.453   4.484   3.382  0.1373  0.6844  1.0413
  241MOL0     C32423   4.377   4.358   3.346  1.3315 -0.4805 -0.6181
  241MOL0     O32424   4.336   4.290   3.466  0.7013  0.0059  0.3936
  241MOL0     C32425   4.237   4.191   3.459  0.5333 -0.3777  0.1294
  241MOL0     C32426   4.206   4.118   3.353  0.4864  0.7049  0.4796
  241MOL0     C32427   4.107   4.020   3.356 -0.2311  0.0678 -0.8070
  241MOL0     C32428   4.038   3.986   3.475  1.0710 -0.4172 -0.6528
  241MOL0     C32429   3.943   3.865   3.478 -0.5104  0.3470  0.0333
  241MOL0     O32430   3.859   3.849   3.581  0.4378  0.2811  0.9856
  241MOL0     C32431   3.779   3.736   3.582 -0.1879 -0.3630  0.5951
  241MOL0     C32432   3.711   3.697   3.463  0.6810 -0.3042 -0.0275
  241MOL0     C32433   3.638   3.579   3.457 -0.2488 -0.1082  0.4214
  241MOL0     C32434   3.617   3.511   3.577  0.0741 -0.3619 -0.0410
  241MOL0     O32435   3.531   3.401   3.568 -0.1440  0.5801  0.1764
  241MOL0     C32436   3.391   3.431   3.565  0.1777  0.1152 -0.2443
  241MOL0     C32437   3.324   3.331   3.658 -0.3070 -1.1239  0.4455
  241MOL0     C32438   3.171   3.364   3.661  0.2168 -0.1338 -0.4148
  241MOL0     C32439   3.092   3.321   3.530  0.6813  0.5645  0.0629
  241MOL0     C32440   2.950   3.405   3.521 -0.0056  0.0984  0.4386
  241MOL0     C32441   2.832   3.376   3.615 -0.5059  1.0677  1.0001
  241MOL0     C32442   2.701   3.313   3.560  0.5612 -0.4997 -0.0906
  241MOL0     C32443   2.609   3.417   3.475 -0.1003  0.1714 -0.7592
  241MOL0    Cl32444   2.494   3.495   3.570 -0.0318  0.6050  0.1523
  241MOL0     C32445   3.665   3.555   3.697  0.3882 -0.7187  0.0295
  241MOL0     C32446   3.751   3.669   3.701  0.7087  0.3081  0.0453
  241MOL0     O32447   3.984   3.781   3.395 -0.0626 -0.0136 -0.2679
  241MOL0     C32448   4.066   4.055   3.590  0.4859  0.1639 -0.7242
  241MOL0     C32449   4.156   4.159   3.574 -0.6255  0.3957 -0.5873
  241MOL0     N32450   4.560   4.704   3.630 -0.0670 -0.7049  0.2631
  241MOL0     N32451   4.535   4.826   3.666 -0.4897 -0.1693 -0.6611
  241MOL0     C32452   5.118   5.725   2.806  0.1426  0.7380 -1.0795
  241MOL0     C32453   5.180   5.848   2.781 -0.1360 -0.3938  0.2700
  241MOL0     C32454   5.468   6.228   2.896  0.2205 -0.4768  0.9570
  241MOL0     C32455   5.526   6.228   2.766  0.2347 -0.4436  0.3164
  241MOL0     C32456   5.609   6.334   2.738  0.3957  0.1342  0.4268
  241MOL0     C32457   5.610   6.454   2.806  0.6739  0.3634 -0.3237
  241MOL0     O32458   5.670   6.569   2.752  0.3422 -0.2541 -0.5211
  241MOL0     C32459   5.778   6.614   2.839  0.2418 -0.0649  0.6525
  241MOL0     C32460   5.820   6.752   2.786 -1.0707 -1.1620 -0.0592
  241MOL0     C32461   5.873   6.757   2.640  0.6346  0.7374  0.3293
  241MOL0     C32462   5.985   6.662   2.601  0.0471 -0.4232 -0.3930
  241MOL0     C32463   5.934   6.550   2.521 -0.7592  0.2692 -0.4647
  241MOL0     C32464   5.895   6.455   2.452 -0.9982 -0.6547  0.4833
  241MOL0     C32465   5.539   6.460   2.926 -0.3205  0.2080 -0.1552
  241MOL0     C32466   5.468   6.353   2.979 -0.1381  1.1090  0.1236
  241MOL0     C32467   5.381   6.375   3.106  0.3397 -0.0710  0.2802
  241MOL0     H32468   5.399   5.856   3.041 -2.0290  1.7767  1.9657
  241MOL0     H32469   5.290   5.654   3.082  1.6324  3.0073  1.9691
  241MOL0     H32470   5.154   5.482   3.120 -0.5398  0.0820  1.0585
  241MOL0     H32471   5.003   5.590   3.118 -1.2966 -1.1853  2.0830
  241MOL0     H32472   5.027   5.293   3.087 -1.0868 -0.2717  0.8009
  241MOL0     H32473   4.899   5.382   2.999 -2.4414  1.8851  1.6619
  241MOL0     H32474   4.857   5.491   3.226  2.3822  1.4649 -1.7937
  241MOL0     H32475   4.946   5.350   3.301  1.3024  0.9976 -0.6554
  241MOL0     H32476   4.675   5.339   3.126 -0.4660 -0.5060 -0.2360
  241MOL0     H32477   4.778   5.204   3.159  0.5067  1.5623 -1.9921
  241MOL0     H32478   4.674   5.376   3.396 -2.1707 -0.1012 -0.3676
  241MOL0     H32479   4.561   5.272   3.301  1.0850 -1.7267 -2.5427
  241MOL0     H32480   4.719   5.086   3.346  0.3138 -1.3572  1.0172
  241MOL0     H32481   4.818   5.195   3.439 -0.1822 -0.0771 -0.9912
  241MOL0     H32482   4.609   5.228   3.585 -0.5146  1.2582 -1.3495
  241MOL0     H32483   4.706   5.090   3.612 -1.6527 -0.2043  1.5425
  241MOL0     H32484   4.450   5.054   3.599  1.6671 -2.4548  1.5922
  241MOL0     H32485   4.482   5.043   3.425  1.8489  1.2539 -1.7446
  241MOL0     H32486   4.673   4.844   3.370  2.5844 -0.4320 -0.0260
  241MOL0     H32487   4.690   4.605   3.343 -1.6939 -2.0389 -0.0679
  241MOL0     H32488   4.777   4.552   3.492 -0.0467 -0.1127 -0.7806
  241MOL0     H32489   4.639   4.374   3.376 -0.7922 -0.8663  0.8029
  241MOL0     H32490   4.599   4.412   3.545  0.5526  0.9747  0.6738
  241MOL0     H32491   4.458   4.542   3.289  1.9839  3.6377  2.8295
  241MOL0     H32492   4.397   4.547   3.452 -3.3178  1.9668 -2.4572
  241MOL0     H32493   4.423   4.290   3.274 -0.2755 -1.2919 -0.9175
  241MOL0     H32494   4.286   4.394   3.299  0.7971  0.0173  0.7280
  241MOL0     H32495   4.253   4.147   3.259 -0.4331  0.0800 -0.1935
  241MOL0     H32496   4.080   3.973   3.262 -0.5344  0.5575 -0.9662
  241MOL0     H32497   3.723   3.741   3.364  4.2368  1.2894  0.9447
  241MOL0     H32498   3.590   3.549   3.364 -0.0987 -1.2543  0.6996
  241MOL0     H32499   3.368   3.531   3.602 -0.2773 -0.6631  1.7072
  241MOL0     H32500   3.354   3.415   3.463 -0.6584 -0.5645  0.1482
  241MOL0     H32501   3.341   3.237   3.604  0.8401 -0.8514  0.3111
  241MOL0     H32502   3.366   3.338   3.759  0.7682  1.7662 -0.1115
  241MOL0     H32503   3.134   3.324   3.756  1.1826  1.0763  0.5095
  241MOL0     H32504   3.157   3.473   3.663  1.1152  0.1701 -4.1690
  241MOL0     H32505   3.060   3.217   3.537  2.3543  0.1211  1.8877
  241MOL0     H32506   3.160   3.334   3.444  0.8941 -1.7281 -0.1808
  241MOL0     H32507   2.908   3.375   3.425 -0.7373  3.1767 -0.3176
  241MOL0     H32508   2.981   3.510   3.525  3.6207 -0.7912 -0.3151
  241MOL0     H32509   2.874   3.317   3.697  0.3848 -0.4687 -0.5133
  241MOL0     H32510   2.798   3.472   3.655  0.5047  1.9308 -0.1319
  241MOL0     H32511   2.642   3.273   3.643  3.4849 -0.8266  1.9581
  241MOL0     H32512   2.737   3.234   3.494 -0.8916 -0.8013 -0.5641
  241MOL0     H32513   2.661   3.499   3.425 -0.5828 -0.1344 -1.7818
  241MOL0     H32514   2.556   3.351   3.406  3.2998 -2.7184 -0.8807
  241MOL0     H32515   3.655   3.509   3.795 -1.8562 -1.6255 -0.5471
  241MOL0     H32516   3.790   3.716   3.791  4.1324 -1.0772 -0.5448
  241MOL0     H32517   4.023   4.050   3.689  1.2245  1.4358 -0.3057
  241MOL0     H32518   4.157   4.239   3.647 -0.5800 -0.9123  0.9131
  241MOL0     H32519   5.033   5.690   2.747  0.0213  1.6236 -1.4545
  241MOL0     H32520   5.150   5.906   2.695 -0.9592 -1.2766 -0.0454
  241MOL0     H32521   5.520   6.148   2.693 -4.1396 -0.0635 -0.0193
  241MOL0     H32522   5.647   6.349   2.637 -5.9005 -1.5485 -2.7810
  241MOL0     H32523   5.866   6.548   2.839  3.3617  3.7214  0.2850
  241MOL0     H32524   5.755   6.628   2.945  0.5502 -0.0827  0.7233
  241MOL0     H32525   5.908   6.774   2.848 -0.4884 -0.4533 -1.1022
  241MOL0     H32526   5.736   6.820   2.797 -1.2834 -1.3089 -0.7645
  241MOL0     H32527   5.899   6.860   2.615 -1.8202  0.9014 -2.0819
  241MOL0     H32528   5.785   6.733   2.579  0.2100 -0.3534  1.3215
  241MOL0     H32529   6.072   6.704   2.549  1.4082 -1.1914  1.1781
  241MOL0     H32530   6.022   6.614   2.692 -2.3400 -0.8896  0.4046
  241MOL0     H32531   5.843   6.376   2.401 -0.9725 -1.4729  1.6875
  241MOL0     H32532   5.525   6.557   2.974 -0.5528  0.1844 -0.1742
  241MOL0     H32533   5.376   6.483   3.120 -0.7352 -0.1940  0.9201
  241MOL0     H32534   5.279   6.340   3.092 -0.7885  1.1632  4.1111
  241MOL0     H32535   5.419   6.339   3.202  1.2149  0.6295  0.2127
  242MOL0     O32536   6.290   6.600  11.195 -0.0238 -0.0793 -0.8088
  242MOL0     C32537   6.284   6.705  11.123 -0.3431  0.8193  0.4112
  242MOL0     O32538   6.271   6.704  10.984 -0.2230 -0.7461 -0.2407
  242MOL0     C32539   6.256   6.575  10.943  0.0753  0.1839 -0.7117
  242MOL0     C32540   6.349   6.472  10.947 -0.4400  0.5772 -0.5382
  242MOL0     C32541   6.303   6.338  10.912  0.2300 -0.3106 -0.0408
  242MOL0     C32542   6.175   6.309  10.848  0.3057 -0.1243 -0.7265
  242MOL0     O32543   6.148   6.187  10.795 -0.1754  0.6357  1.1292
  242MOL0     C32544   6.227   6.074  10.808 -0.8190 -0.4673 -0.1556
  242MOL0     C32545   6.162   5.945  10.742  0.3424 -0.6826  0.0265
  242MOL0     C32546   6.248   5.897  10.615  0.3453 -0.1400 -1.1788
  242MOL0     C32547   6.205   5.759  10.557  0.2523 -0.8611 -0.8497
  242MOL0     C32548   6.286   5.734  10.432 -0.0644  0.2588  0.4638
  242MOL0     C32549   6.434   5.707  10.446 -0.3838 -0.5772  0.0452
  242MOL0     C32550   6.500   5.645  10.320  0.4536  0.9521 -0.1583
  242MOL0     C32551   6.657   5.637  10.345 -0.0628  0.5776  0.5223
  242MOL0     N32552   6.730   5.768  10.337 -0.6947  0.1628  0.1236
  242MOL0     C32553   6.757   5.823  10.464  0.9480  0.4785  0.7021
  242MOL0     C32554   6.888   5.863  10.455 -1.0267  0.2977  0.1489
  242MOL0     C32555   6.965   5.928  10.576 -0.3328 -0.2766 -0.0671
  242MOL0     C32556   7.024   5.852  10.697 -0.2198  0.2476 -0.1216
  242MOL0     C32557   6.939   5.736  10.733 -0.4494  0.5943 -0.1295
  242MOL0     C32558   6.986   5.675  10.864 -0.5556 -0.3071 -0.5958
  242MOL0     O32559   6.891   5.571  10.883  0.3862 -0.3641 -1.2636
  242MOL0     C32560   6.939   5.442  10.888  1.1021  0.0913  0.4647
  242MOL0     C32561   6.947   5.373  10.764  0.0762 -0.6850 -0.1264
  242MOL0     C32562   6.987   5.238  10.767  0.3323  0.3272  0.0062
  242MOL0     C32563   7.031   5.175  10.879  0.1568 -0.2511 -0.1581
  242MOL0     C32564   7.064   5.031  10.886  0.0585 -0.1602 -1.1297
  242MOL0     O32565   7.068   4.983  11.011 -0.1586 -1.3218  0.3343
  242MOL0     C32566   7.064   4.855  11.056 -0.3847  0.7301 -0.5347
  242MOL0     C32567   7.067   4.834  11.192 -0.0419  0.3947  0.3649
  242MOL0     C32568   7.048   4.701  11.248 -0.1481 -0.2867 -0.1041
  242MOL0     C32569   7.043   4.588  11.167 -0.2930 -0.1807  0.0280
  242MOL0     O32570   7.043   4.459  11.225  0.2817 -0.2454 -0.4922
  242MOL0     C32571   7.135   4.442  11.332  0.4184  0.2249  0.5467
  242MOL0     C32572   7.064   4.416  11.461  0.1554 -0.1058 -0.1594
  242MOL0     C32573   7.172   4.404  11.569  0.7303 -0.3149  0.3682
  242MOL0     C32574   7.194   4.264  11.623  0.2324  0.4647  0.4037
  242MOL0     C32575   7.274   4.271  11.755  0.8277 -0.0267  0.4897
  242MOL0     C32576   7.413   4.331  11.748 -0.1425 -1.1545 -0.1127
  242MOL0     C32577   7.488   4.323  11.881 -0.6857  0.1059 -0.0866
  242MOL0     C32578   7.628   4.374  11.860  0.4479 -0.8565 -0.0337
  242MOL0    Cl32579   7.648   4.542  11.844 -0.1801  0.1404  0.3619
  242MOL0     C32580   7.022   4.610  11.028 -0.0096  0.8308 -0.0838
  242MOL0     C32581   7.032   4.741  10.970 -0.1333  0.4159 -0.1129
  242MOL0     O32582   7.083   4.960  10.783  0.5665 -0.7383 -0.1886
  242MOL0     C32583   7.028   5.247  11.001 -0.8033 -0.0027  0.9103
  242MOL0     C32584   6.969   5.374  11.002  0.5674  0.0198  0.5848
  242MOL0     N32585   6.943   5.830  10.329 -0.2314 -0.5369 -0.6711
  242MOL0     N32586   6.846   5.793  10.255  0.1558 -0.1410 -1.1441
  242MOL0     C32587   6.094   6.423  10.848  0.3577  0.5471 -0.4123
  242MOL0     C32588   6.128   6.544  10.894  0.3378 -0.0281  0.3110
  242MOL0     C32589   6.276   6.828  11.194  0.0441  0.2537  0.5044
  242MOL0     C32590   6.372   6.926  11.166  0.5560 -0.4802 -0.1061
  242MOL0     C32591   6.376   7.055  11.233 -0.2583 -0.0528 -0.1543
  242MOL0     C32592   6.280   7.084  11.336 -0.1616  0.1165 -0.2588
  242MOL0     O32593   6.302   7.203  11.406  0.0014 -0.0004  0.0530
  242MOL0     C32594   6.200   7.237  11.500 -0.4808  0.9507 -0.4978
  242MOL0     C32595   6.267   7.342  11.592  0.2812 -1.1472 -0.8558
  242MOL0     C32596   6.200   7.484  11.578  0.0769  0.1171  0.1355
  242MOL0     C32597   6.058   7.477  11.631  0.5503  0.0373  0.5181
  242MOL0     C32598   6.043   7.511  11.773 -0.1633 -1.7821  0.0307
  242MOL0     C32599   6.024   7.551  11.886  0.0401 -1.2704  1.1642
  242MOL0     C32600   6.184   6.988  11.358 -1.2710  0.7484  0.1304
  242MOL0     C32601   6.175   6.864  11.279 -0.5042 -0.9832  0.2408
  242MOL0     C32602   6.049   6.785  11.274 -0.0227  0.1844 -0.9837
  242MOL0     H32603   6.453   6.493  10.970 -0.5488 -0.3990  0.9352
  242MOL0     H32604   6.378   6.259  10.907  3.7505  2.6509  1.1260
  242MOL0     H32605   6.327   6.089  10.766  0.0511  0.6975  2.1938
  242MOL0     H32606   6.240   6.057  10.915 -0.3307  1.9948  0.2257
  242MOL0     H32607   6.060   5.976  10.717  0.5100  2.2131  2.3021
  242MOL0     H32608   6.156   5.858  10.808 -3.6442 -2.2719 -2.0877
  242MOL0     H32609   6.353   5.893  10.644  0.3622  2.0729 -0.6951
  242MOL0     H32610   6.239   5.966  10.530 -2.8739 -2.3480 -2.8335
  242MOL0     H32611   6.215   5.680  10.631  1.0308  0.2956  0.3092
  242MOL0     H32612   6.102   5.756  10.521  0.1577 -3.4373 -0.5641
  242MOL0     H32613   6.249   5.640  10.390  0.3637  0.7929 -1.2075
  242MOL0     H32614   6.271   5.807  10.351  0.1985 -0.4568 -0.2472
  242MOL0     H32615   6.483   5.800  10.478 -1.8663 -0.1053  1.0609
  242MOL0     H32616   6.451   5.653  10.540 -2.2297 -0.8619  0.2601
  242MOL0     H32617   6.489   5.698  10.225  2.2612 -0.9898 -1.5561
  242MOL0     H32618   6.459   5.543  10.317  1.4824  0.3820  2.5968
  242MOL0     H32619   6.673   5.594  10.444 -2.8659 -1.0636  0.3799
  242MOL0     H32620   6.704   5.568  10.273 -2.5521 -2.5080  1.6013
  242MOL0     H32621   6.688   5.830  10.547  0.1908  1.9627 -0.0145
  242MOL0     H32622   7.049   5.980  10.530  0.2656  0.6977  1.9986
  242MOL0     H32623   6.898   5.992  10.634  0.8583 -2.6814  4.4781
  242MOL0     H32624   7.130   5.839  10.671 -0.1010  2.1121 -0.7246
  242MOL0     H32625   7.022   5.920  10.782 -2.2638  2.5890 -1.8966
  242MOL0     H32626   6.945   5.665  10.651 -0.0396 -0.4353  0.7642
  242MOL0     H32627   6.835   5.769  10.745 -0.4597  0.8121 -0.7819
  242MOL0     H32628   6.979   5.737  10.954  0.3027  3.3874 -2.8245
  242MOL0     H32629   7.092   5.652  10.846 -0.2571  1.5998 -1.5960
  242MOL0     H32630   6.922   5.429  10.674 -0.6520 -0.7624  0.0270
  242MOL0     H32631   6.982   5.167  10.685  2.9057  1.3170 -1.1203
  242MOL0     H32632   7.091   4.903  11.272  1.1519  0.3924  0.0389
  242MOL0     H32633   7.053   4.693  11.356  0.0393  1.0932  0.0061
  242MOL0     H32634   7.191   4.349  11.321  0.5774  0.3592  0.2228
  242MOL0     H32635   7.206   4.524  11.345  0.2676  0.6548 -1.1993
  242MOL0     H32636   6.998   4.502  11.475 -1.5079 -1.3303 -0.2441
  242MOL0     H32637   6.998   4.329  11.470  0.7078 -0.4801  0.3963
  242MOL0     H32638   7.267   4.448  11.539  1.1422 -2.7289 -2.3016
  242MOL0     H32639   7.129   4.460  11.653 -3.4741 -1.3473 -0.8409
  242MOL0     H32640   7.244   4.201  11.549  0.9717  1.4119  0.0859
  242MOL0     H32641   7.095   4.221  11.640  0.9762 -1.4856  0.1198
  242MOL0     H32642   7.303   4.170  11.786 -0.3077 -0.8362 -0.9953
  242MOL0     H32643   7.219   4.333  11.827  1.2667 -1.3729  2.0469
  242MOL0     H32644   7.469   4.269  11.677  0.9661 -0.5246  0.1801
  242MOL0     H32645   7.403   4.432  11.708 -2.6586 -1.5451 -0.6371
  242MOL0     H32646   7.473   4.223  11.923  1.4924 -0.6222 -0.9116
  242MOL0     H32647   7.436   4.388  11.953  2.6222  1.4849  1.2492
  242MOL0     H32648   7.682   4.354  11.953  0.2003 -1.9908 -0.1187
  242MOL0     H32649   7.680   4.329  11.775  1.2342 -0.2164  0.0951
  242MOL0     H32650   7.010   4.523  10.965  3.2189  2.0971 -2.7419
  242MOL0     H32651   7.035   4.752  10.862  2.2441 -0.7915 -0.2277
  242MOL0     H32652   7.061   5.206  11.096  0.9760  2.9865  1.7083
  242MOL0     H32653   6.961   5.438  11.090 -2.3180  0.3590  0.1613
  242MOL0     H32654   6.004   6.408  10.790  1.2401 -0.2392 -1.6352
  242MOL0     H32655   6.054   6.623  10.884  0.0248 -0.4584 -0.9425
  242MOL0     H32656   6.453   6.905  11.097  3.8120  0.3512  3.1460
  242MOL0     H32657   6.449   7.135  11.220 -0.1295  0.3595  2.5400
  242MOL0     H32658   6.188   7.153  11.569  0.8380  1.7453  0.7489
  242MOL0     H32659   6.113   7.262  11.438  1.6687  1.6679 -3.4740
  242MOL0     H32660   6.371   7.355  11.561  0.6042 -3.2009 -0.7794
  242MOL0     H32661   6.253   7.321  11.699 -2.2644 -1.2587 -1.1359
  242MOL0     H32662   6.187   7.515  11.474 -0.7414  3.9935  1.2403
  242MOL0     H32663   6.246   7.566  11.634 -0.7307  0.4950  0.2533
  242MOL0     H32664   5.999   7.547  11.571  1.7019 -1.2319 -2.2681
  242MOL0     H32665   6.018   7.376  11.621 -2.2583  0.9370  1.3923
  242MOL0     H32666   5.997   7.586  11.983  2.0387  0.4807  1.1495
  242MOL0     H32667   6.111   6.999  11.438 -0.2976  0.4432  1.0922
  242MOL0     H32668   6.047   6.681  11.308  1.8548 -0.1935 -1.9123
  242MOL0     H32669   5.964   6.828  11.328 -0.8849 -0.6946 -1.6069
  242MOL0     H32670   6.016   6.789  11.169  1.0223  1.9292 -1.2858
  243MOL0     O32671   6.868  11.110   3.065  0.1086 -0.2410  0.7691
  243MOL0     C32672   6.798  11.023   3.108  0.8677  0.7168  0.7981
  243MOL0     O32673   6.716  10.940   3.034 -0.7446 -0.3162 -0.0545
  243MOL0     C32674   6.657  11.001   2.925  0.2900 -0.4052 -0.1678
  243MOL0     C32675   6.743  11.028   2.810 -0.6268  1.0626  0.4776
  243MOL0     C32676   6.689  11.095   2.703 -0.2574  0.3060  0.1276
  243MOL0     C32677   6.562  11.139   2.707  0.3507 -0.6235 -0.5898
  243MOL0     O32678   6.509  11.188   2.592 -0.5712 -0.1883 -1.0231
  243MOL0     C32679   6.577  11.304   2.542 -0.3207 -0.6664  0.3725
  243MOL0     C32680   6.516  11.372   2.414  0.5053  0.0675  0.3993
  243MOL0     C32681   6.373  11.419   2.445 -0.9831 -1.1211  0.1510
  243MOL0     C32682   6.331  11.531   2.347  0.7852  0.2498  0.2874
  243MOL0     C32683   6.185  11.574   2.387  0.6716  0.2906  0.2714
  243MOL0     C32684   6.075  11.465   2.368 -0.5864 -0.0435  0.0927
  243MOL0     C32685   5.927  11.495   2.414 -0.1072  0.1633  0.2770
  243MOL0     C32686   5.846  11.354   2.428 -0.2963 -0.4754  0.8310
  243MOL0     N32687   5.709  11.377   2.479 -0.6988 -0.2441  0.4322
  243MOL0     C32688   5.604  11.411   2.408 -0.2019 -0.2002 -0.1569
  243MOL0     C32689   5.501  11.445   2.498 -0.0873  0.4914  1.0313
  243MOL0     C32690   5.368  11.481   2.462  1.4882 -0.2016 -1.0833
  243MOL0     C32691   5.291  11.524   2.579 -1.0971 -0.6089  0.4976
  243MOL0     C32692   5.150  11.572   2.543 -0.1652 -0.3503  0.8396
  243MOL0     C32693   5.143  11.706   2.466  0.5387 -0.0735 -0.2143
  243MOL0     O32694   5.020  11.718   2.393  0.1127 -0.3919 -0.8644
  243MOL0     C32695   5.002  11.822   2.307  0.1144  1.1531 -0.6740
  243MOL0     C32696   5.074  11.939   2.304 -0.9512  0.3764 -0.0784
  243MOL0     C32697   5.046  12.039   2.211  0.0883  0.1908 -0.3510
  243MOL0     C32698   4.947  12.024   2.107 -0.4921  0.0664 -0.3532
  243MOL0     C32699   4.920  12.128   2.005  0.6502 -1.2059 -0.5435
  243MOL0     O32700   4.813  12.112   1.923 -0.0929 -0.4173  0.3617
  243MOL0     C32701   4.805  12.210   1.831 -0.2871  0.4320 -0.5493
  243MOL0     C32702   4.710  12.310   1.841  0.5217 -0.1286 -0.0775
  243MOL0     C32703   4.706  12.417   1.758  0.0625  0.1322  0.3311
  243MOL0     C32704   4.794  12.427   1.649 -0.7614  0.3231  0.1107
  243MOL0     O32705   4.786  12.542   1.578  0.0153 -0.1454 -0.4224
  243MOL0     C32706   4.907  12.595   1.516  0.2846 -0.0833 -0.2468
  243MOL0     C32707   4.862  12.691   1.403  0.3724  0.3178 -0.1744
  243MOL0     C32708   4.740  12.784   1.429  0.6593 -0.5555  0.2033
  243MOL0     C32709   4.789  12.907   1.518  0.3836  0.5438  0.8945
  243MOL0     C32710   4.675  12.997   1.572  0.5623  0.5062  0.8989
  243MOL0     C32711   4.706  13.103   1.675  0.3608  0.2152  0.0601
  243MOL0     C32712   4.782  13.222   1.607 -0.3700  0.1441 -0.1640
  243MOL0     C32713   4.820  13.350   1.685  0.4176 -0.5322  0.4101
  243MOL0    Cl32714   4.673  13.430   1.746 -0.0983  0.0736 -0.2377
  243MOL0     C32715   4.883  12.317   1.627 -1.2072 -0.0084  0.3356
  243MOL0     C32716   4.899  12.216   1.727  0.8196  0.0827  0.4846
  243MOL0     O32717   4.989  12.235   2.021  0.4767  0.1857  0.8315
  243MOL0     C32718   4.872  11.909   2.114  0.5584  0.4499 -0.7951
  243MOL0     C32719   4.899  11.807   2.207  0.0623  0.4271 -0.8324
  243MOL0     N32720   5.543  11.393   2.615 -0.0123 -0.2697  0.2285
  243MOL0     N32721   5.672  11.365   2.609 -0.2931  0.9096  0.1056
  243MOL0     C32722   6.480  11.123   2.819  0.2412 -0.3384 -0.9210
  243MOL0     C32723   6.529  11.056   2.935  1.2594 -0.4359 -0.3445
  243MOL0     C32724   6.819  10.979   3.253  0.3951 -0.0974  0.7995
  243MOL0     C32725   6.788  10.845   3.289  0.6163 -0.8484 -0.3334
  243MOL0     C32726   6.830  10.787   3.409 -0.1336 -0.0848 -1.5632
  243MOL0     C32727   6.898  10.869   3.506 -0.5448 -1.3721 -0.3712
  243MOL0     O32728   6.921  10.827   3.633  0.2486 -1.0299 -0.4758
  243MOL0     C32729   7.049  10.774   3.650  1.1516  0.1126  0.1534
  243MOL0     C32730   7.065  10.755   3.800 -0.2394  0.1366  0.2877
  243MOL0     C32731   6.967  10.668   3.885 -0.6030  0.8504 -0.6657
  243MOL0     C32732   7.023  10.539   3.936 -0.6677 -0.3635  0.1076
  243MOL0     C32733   6.929  10.464   4.012  0.3369 -0.0221  0.2628
  243MOL0     C32734   6.864  10.399   4.084 -0.1666 -1.3722 -0.1667
  243MOL0     C32735   6.921  10.999   3.473  0.6799  1.4708 -0.2998
  243MOL0     C32736   6.886  11.057   3.350 -0.2008 -0.0495 -0.1893
  243MOL0     C32737   6.933  11.197   3.319 -0.2352  0.4182  0.4999
  243MOL0     H32738   6.842  10.984   2.806 -1.1559 -0.3683  2.1606
  243MOL0     H32739   6.737  11.108   2.607  2.5998 -0.9995  1.2394
  243MOL0     H32740   6.586  11.380   2.621 -2.5545 -1.1028  1.1364
  243MOL0     H32741   6.678  11.271   2.520  0.1185 -0.7859  2.3868
  243MOL0     H32742   6.491  11.299   2.337 -2.4221  0.1259  1.1607
  243MOL0     H32743   6.579  11.449   2.368  1.4304 -1.4458 -0.9437
  243MOL0     H32744   6.367  11.461   2.546 -0.6822  1.2150 -0.7389
  243MOL0     H32745   6.319  11.325   2.430  3.4210 -3.5291 -3.0459
  243MOL0     H32746   6.407  11.610   2.352  0.7841  0.1879  2.0454
  243MOL0     H32747   6.335  11.506   2.241  1.5462  3.8444 -0.6928
  243MOL0     H32748   6.189  11.588   2.496 -5.2120 -3.7618  1.4620
  243MOL0     H32749   6.154  11.662   2.330  0.2994  1.3132  1.9471
  243MOL0     H32750   6.071  11.444   2.261 -5.5485  1.5558 -0.2823
  243MOL0     H32751   6.103  11.376   2.426 -2.4582 -0.7839 -0.0701
  243MOL0     H32752   5.876  11.561   2.343  0.0852 -1.6166 -1.6193
  243MOL0     H32753   5.930  11.547   2.510  0.1554 -0.8416  0.8239
  243MOL0     H32754   5.839  11.325   2.323  0.5510  1.4929  0.1833
  243MOL0     H32755   5.907  11.279   2.479  0.6600 -0.4452 -0.2532
  243MOL0     H32756   5.598  11.426   2.300  2.2137  1.1258 -0.1569
  243MOL0     H32757   5.364  11.561   2.388 -3.8817  1.2156  0.2863
  243MOL0     H32758   5.317  11.388   2.437 -0.2728  0.2402  0.6169
  243MOL0     H32759   5.286  11.440   2.648 -0.2947 -2.6699 -1.8027
  243MOL0     H32760   5.341  11.602   2.637  1.1856 -1.4056 -0.2938
  243MOL0     H32761   5.093  11.573   2.637 -5.1931 -0.8127 -1.8372
  243MOL0     H32762   5.100  11.489   2.491 -0.7103  0.1781  0.5096
  243MOL0     H32763   5.230  11.730   2.404  0.4254  2.4876  0.5005
  243MOL0     H32764   5.142  11.779   2.547 -1.5884 -0.6283  0.3258
  243MOL0     H32765   5.148  11.966   2.378 -0.7655  0.5131 -0.3134
  243MOL0     H32766   5.107  12.129   2.207 -0.8285  0.7907 -1.9181
  243MOL0     H32767   4.634  12.296   1.917 -4.9529  0.3648 -4.7928
  243MOL0     H32768   4.631  12.494   1.775 -1.2694 -1.2183  0.7557
  243MOL0     H32769   4.964  12.657   1.586 -0.1693 -0.6725  0.6556
  243MOL0     H32770   4.978  12.517   1.485 -0.4826 -0.1199 -2.0271
  243MOL0     H32771   4.954  12.749   1.394  1.4131 -0.2458  4.3239
  243MOL0     H32772   4.829  12.634   1.316 -0.1676 -0.0995  0.2902
  243MOL0     H32773   4.698  12.832   1.340  3.4451  1.0485 -0.3690
  243MOL0     H32774   4.664  12.730   1.487 -0.1889  1.4284  1.0157
  243MOL0     H32775   4.861  12.958   1.453 -0.9998  0.3546 -0.8697
  243MOL0     H32776   4.853  12.874   1.600  1.0679  3.1768  1.5159
  243MOL0     H32777   4.615  12.929   1.634  0.8368 -0.2570  0.3446
  243MOL0     H32778   4.613  13.021   1.485  0.6591 -0.8767  0.4133
  243MOL0     H32779   4.617  13.157   1.711  1.3454  2.4381 -0.6292
  243MOL0     H32780   4.766  13.061   1.756  0.7338 -0.7258 -0.6875
  243MOL0     H32781   4.715  13.240   1.522  1.9871 -0.5613 -2.3024
  243MOL0     H32782   4.879  13.190   1.570 -0.4699  2.8502 -3.2569
  243MOL0     H32783   4.896  13.331   1.762  1.9066  5.1092  0.8016
  243MOL0     H32784   4.866  13.417   1.612  0.4722  0.7791  1.6223
  243MOL0     H32785   4.962  12.314   1.553  0.1062  1.2339  1.6328
  243MOL0     H32786   4.972  12.137   1.716  1.0483  0.5137 -1.7268
  243MOL0     H32787   4.783  11.898   2.053 -1.0073  0.7171  1.3330
  243MOL0     H32788   4.842  11.715   2.205  0.6449  0.0472 -0.5292
  243MOL0     H32789   6.378  11.157   2.808  0.7919  0.9312 -2.7172
  243MOL0     H32790   6.464  11.056   3.022  4.2696 -0.1688  2.0598
  243MOL0     H32791   6.733  10.769   3.234 -1.3141  1.0000 -1.0770
  243MOL0     H32792   6.803  10.689   3.445 -1.1197 -0.5981 -3.5724
  243MOL0     H32793   7.117  10.857   3.628  0.0544  1.0984  0.3469
  243MOL0     H32794   7.058  10.682   3.592 -3.5074  1.5716 -3.6004
  243MOL0     H32795   7.070  10.858   3.838 -2.6536  0.0203  1.0479
  243MOL0     H32796   7.162  10.708   3.822 -1.0969 -1.8194  0.1058
  243MOL0     H32797   6.868  10.644   3.844  0.5940 -2.0895 -2.0771
  243MOL0     H32798   6.946  10.720   3.979  0.2498 -1.2989  0.7908
  243MOL0     H32799   7.055  10.484   3.846  4.3144 -0.2011  1.4540
  243MOL0     H32800   7.111  10.555   3.999 -2.6198 -0.7151  3.0864
  243MOL0     H32801   6.791  10.346   4.142 -0.9073  0.5076  0.6889
  243MOL0     H32802   6.964  11.063   3.549 -0.3582 -1.3431  2.9365
  243MOL0     H32803   6.848  11.256   3.284  0.1215  0.4023 -0.4231
  243MOL0     H32804   6.970  11.246   3.410 -0.9306  0.4437  0.7734
  243MOL0     H32805   7.005  11.206   3.238 -0.8084  4.3085  0.2413
  244MOL0     O32806   1.104   7.421   2.949 -0.0776  0.4861 -0.2152
  244MOL0     C32807   0.987   7.438   2.972  0.3031 -0.7192  0.5471
  244MOL0     O32808   0.896   7.499   2.890  1.2062 -0.0710  0.5045
  244MOL0     C32809   0.946   7.544   2.773 -0.1717  0.0352  0.6685
  244MOL0     C32810   0.937   7.461   2.660 -0.1719 -0.4852  0.2174
  244MOL0     C32811   0.964   7.530   2.542 -0.1030 -0.0128 -1.0882
  244MOL0     C32812   1.019   7.659   2.526  0.2134 -0.1823  0.8167
  244MOL0     O32813   1.042   7.710   2.399  0.6203 -0.7900 -0.7125
  244MOL0     C32814   1.046   7.847   2.375  0.3070 -0.1578 -0.7584
  244MOL0     C32815   1.018   7.881   2.229  0.0306  0.1287 -0.9043
  244MOL0     C32816   1.135   7.946   2.153  1.0991  0.0225 -0.6334
  244MOL0     C32817   1.251   7.846   2.133  0.0893  0.3418 -0.7897
  244MOL0     C32818   1.330   7.868   2.005  0.1392  0.9860  0.2144
  244MOL0     C32819   1.446   7.772   1.985  0.0865 -0.0736  0.6183
  244MOL0     C32820   1.566   7.792   2.069 -0.7891 -0.7533  1.0605
  244MOL0     C32821   1.698   7.756   1.993 -0.0164  0.3883  0.3524
  244MOL0     N32822   1.806   7.827   2.058  0.1843  0.2886  0.2449
  244MOL0     C32823   1.865   7.942   2.004 -0.7263  0.3772 -0.6830
  244MOL0     C32824   1.949   7.966   2.109  0.0383  0.5588  0.5223
  244MOL0     C32825   2.051   8.085   2.110  0.0098 -0.0112 -0.7420
  244MOL0     C32826   2.129   8.089   1.971 -0.5655 -0.4584 -0.6663
  244MOL0     C32827   2.269   8.167   1.975 -1.0912 -0.5159 -0.0420
  244MOL0     C32828   2.365   8.116   2.090  0.0525  0.4138  0.2003
  244MOL0     O32829   2.487   8.195   2.089 -0.2293  0.3498 -0.2280
  244MOL0     C32830   2.568   8.181   2.198  0.0188  0.3535  0.0281
  244MOL0     C32831   2.660   8.276   2.228 -0.1866 -1.2057 -0.1313
  244MOL0     C32832   2.759   8.269   2.321  0.4586  0.4524 -0.0452
  244MOL0     C32833   2.753   8.160   2.413 -0.3433 -0.2385 -0.9095
  244MOL0     C32834   2.839   8.127   2.519  0.3451  0.0460  0.3434
  244MOL0     O32835   2.861   8.001   2.551 -0.2562  0.1843  0.4250
  244MOL0     C32836   2.972   7.964   2.632 -0.3449 -0.8386  0.3704
  244MOL0     C32837   2.982   7.991   2.768  0.6642 -0.4164  0.7685
  244MOL0     C32838   3.093   7.958   2.843 -1.2790 -0.2352  0.5961
  244MOL0     C32839   3.199   7.893   2.783 -0.7387  1.1282  0.1399
  244MOL0     O32840   3.306   7.842   2.855  0.3243 -0.5773 -0.1751
  244MOL0     C32841   3.369   7.934   2.947  0.3895  0.7959  0.2814
  244MOL0     C32842   3.314   7.913   3.085 -0.4050  0.0180 -0.7388
  244MOL0     C32843   3.330   7.763   3.120 -0.3491  0.9859  0.7378
  244MOL0     C32844   3.327   7.735   3.275  0.6197  0.1828  0.1515
  244MOL0     C32845   3.333   7.588   3.313 -0.0046 -0.5286 -0.0587
  244MOL0     C32846   3.482   7.553   3.307 -0.0306 -0.4904 -0.1775
  244MOL0     C32847   3.500   7.400   3.304  0.4349  0.2095  0.7433
  244MOL0     C32848   3.633   7.350   3.263 -0.8778 -0.7023 -0.7569
  244MOL0    Cl32849   3.674   7.401   3.087  0.0253 -0.3653 -0.1510
  244MOL0     C32850   3.184   7.852   2.653  0.1842 -0.1215  0.3403
  244MOL0     C32851   3.074   7.881   2.578  1.4100  0.0663 -0.5589
  244MOL0     O32852   2.908   8.218   2.554 -0.8142  1.0209  0.4313
  244MOL0     C32853   2.657   8.059   2.390 -0.5004  0.4838  0.0976
  244MOL0     C32854   2.567   8.068   2.285 -0.1679 -0.9216  0.0223
  244MOL0     N32855   1.938   7.883   2.215 -0.3998  0.2272 -0.5122
  244MOL0     N32856   1.850   7.794   2.186  0.2143 -0.8708  0.2747
  244MOL0     C32857   1.035   7.730   2.639  0.8387 -0.0299 -0.1935
  244MOL0     C32858   0.997   7.680   2.758 -0.2191 -0.1488 -0.5637
  244MOL0     C32859   0.951   7.397   3.111 -0.1196  0.4564 -0.1154
  244MOL0     C32860   1.037   7.440   3.217  0.0125  0.1934 -0.6058
  244MOL0     C32861   1.014   7.400   3.349  0.1633  0.7894 -0.4163
  244MOL0     C32862   0.902   7.311   3.373  0.2000 -0.6469 -0.1539
  244MOL0     O32863   0.878   7.260   3.498 -0.5148  0.1337 -0.3444
  244MOL0     C32864   0.964   7.280   3.617 -0.5909  0.2738  0.5101
  244MOL0     C32865   0.952   7.416   3.685 -0.1213  0.2336  0.4042
  244MOL0     C32866   1.042   7.435   3.818  1.0875  0.4879 -0.2996
  244MOL0     C32867   1.029   7.327   3.918 -0.5302  0.6762 -0.1811
  244MOL0     C32868   0.890   7.293   3.957 -0.3251 -0.4731 -0.3146
  244MOL0     C32869   0.776   7.263   3.983 -0.7825 -0.5627 -0.3718
  244MOL0     C32870   0.823   7.271   3.270  0.4152 -1.2334 -1.1829
  244MOL0     C32871   0.851   7.306   3.139  1.0074 -0.2552 -0.2853
  244MOL0     C32872   0.767   7.252   3.035  0.2516  0.9807 -0.9631
  244MOL0     H32873   0.896   7.360   2.658 -0.5707 -0.3200 -0.8283
  244MOL0     H32874   0.939   7.481   2.449  1.7665 -1.9927 -0.6312
  244MOL0     H32875   0.967   7.900   2.429  1.7471  0.5914  0.7495
  244MOL0     H32876   1.140   7.885   2.419 -0.5207 -1.2019  2.1728
  244MOL0     H32877   0.938   7.954   2.241  2.0191  1.9586  3.1834
  244MOL0     H32878   0.995   7.791   2.172 -1.4269 -1.2185  1.6279
  244MOL0     H32879   1.171   8.039   2.198 -1.7023  1.2855 -0.8330
  244MOL0     H32880   1.086   7.976   2.060 -1.1083  2.4911  1.1887
  244MOL0     H32881   1.313   7.836   2.222 -0.1103 -1.9377 -0.8584
  244MOL0     H32882   1.208   7.747   2.116  0.2459  0.3217 -1.0808
  244MOL0     H32883   1.256   7.854   1.926  4.0306 -2.3683 -3.3012
  244MOL0     H32884   1.360   7.972   1.996 -1.7902  1.5377 -0.2730
  244MOL0     H32885   1.431   7.664   1.995  2.3451 -0.3237  2.0843
  244MOL0     H32886   1.463   7.794   1.879  1.8545  0.1001  0.9184
  244MOL0     H32887   1.567   7.751   2.170  2.9325 -1.8028  0.7367
  244MOL0     H32888   1.573   7.902   2.073  0.5711 -0.8199  0.8117
  244MOL0     H32889   1.699   7.647   1.998 -0.6489  0.4104  4.7506
  244MOL0     H32890   1.689   7.791   1.889  1.0825  2.4714  0.9032
  244MOL0     H32891   1.850   7.996   1.911 -2.1885  1.9197  0.3771
  244MOL0     H32892   2.002   8.180   2.128 -0.3073  0.2302 -2.6759
  244MOL0     H32893   2.112   8.057   2.197 -0.6498  1.4794  0.2326
  244MOL0     H32894   2.147   7.987   1.935 -2.0383 -2.0899  2.8060
  244MOL0     H32895   2.062   8.136   1.897 -2.0004  0.2346  1.0070
  244MOL0     H32896   2.245   8.271   1.997 -0.8027 -0.8605  2.0664
  244MOL0     H32897   2.328   8.170   1.883 -1.1690 -2.6214 -0.2194
  244MOL0     H32898   2.393   8.015   2.057 -1.7758  0.7044 -2.6568
  244MOL0     H32899   2.319   8.130   2.188 -3.0008  0.6406 -1.1638
  244MOL0     H32900   2.667   8.371   2.177  4.2866 -0.0323  2.0694
  244MOL0     H32901   2.813   8.359   2.347  0.3242 -0.4770  4.0806
  244MOL0     H32902   2.895   8.039   2.812 -3.2452 -4.2245 -2.0018
  244MOL0     H32903   3.096   7.974   2.950 -0.0015 -0.9125  0.6841
  244MOL0     H32904   3.477   7.921   2.941  0.3344  0.7926 -1.4298
  244MOL0     H32905   3.364   8.037   2.911  0.7207  1.1386  1.2150
  244MOL0     H32906   3.373   7.977   3.151  1.9665 -0.4615 -2.2828
  244MOL0     H32907   3.210   7.943   3.102 -0.3353  0.3742 -0.9299
  244MOL0     H32908   3.247   7.705   3.078 -1.0620  2.7766 -0.4662
  244MOL0     H32909   3.423   7.727   3.075 -3.1459 -4.2642 -1.7890
  244MOL0     H32910   3.227   7.768   3.306 -0.8447 -0.5125 -3.2971
  244MOL0     H32911   3.416   7.788   3.310  1.1092  0.8669 -1.9550
  244MOL0     H32912   3.270   7.535   3.242  0.1311  1.2516 -1.5793
  244MOL0     H32913   3.282   7.567   3.408  0.2809 -0.7549  0.0432
  244MOL0     H32914   3.527   7.598   3.218  0.3393  2.7076  1.4930
  244MOL0     H32915   3.529   7.595   3.396 -0.7694  0.9005 -0.4170
  244MOL0     H32916   3.427   7.373   3.227  0.2279  0.1387  0.9643
  244MOL0     H32917   3.471   7.362   3.402  1.9970 -2.2817  0.3384
  244MOL0     H32918   3.695   7.403   3.336 -0.1486 -2.7689  0.1978
  244MOL0     H32919   3.643   7.242   3.278 -1.7166 -0.4289  2.2252
  244MOL0     H32920   3.269   7.793   2.621 -0.9670 -2.6219  1.5662
  244MOL0     H32921   3.056   7.853   2.475  2.5796 -0.0437 -0.7512
  244MOL0     H32922   2.631   7.968   2.443 -4.4385  0.7909 -0.9354
  244MOL0     H32923   2.492   7.991   2.273  1.1359 -2.1381 -0.5993
  244MOL0     H32924   1.081   7.828   2.626  0.5058  0.4288  1.6784
  244MOL0     H32925   0.994   7.739   2.849 -0.7957 -0.8642 -0.1084
  244MOL0     H32926   1.125   7.495   3.185  3.2988 -3.5616  1.0495
  244MOL0     H32927   1.075   7.434   3.432 -1.4625 -2.7729  2.5004
  244MOL0     H32928   1.069   7.267   3.592 -0.9226  0.6083 -1.1448
  244MOL0     H32929   0.936   7.196   3.681 -1.4050  0.5126  0.4796
  244MOL0     H32930   0.849   7.444   3.710 -0.1177 -0.8039  1.6508
  244MOL0     H32931   0.990   7.487   3.609 -4.5475  0.6145 -1.7663
  244MOL0     H32932   1.004   7.527   3.864  1.2097  0.8345 -0.8810
  244MOL0     H32933   1.148   7.450   3.797  1.5912 -0.3367  1.5072
  244MOL0     H32934   1.075   7.237   3.877 -1.9693 -0.1451 -0.0939
  244MOL0     H32935   1.084   7.356   4.008  0.1472 -1.4849  0.1426
  244MOL0     H32936   0.673   7.241   4.003 -0.4065 -0.2863  2.2113
  244MOL0     H32937   0.747   7.206   3.312  2.0347 -1.3962  1.7523
  244MOL0     H32938   0.716   7.162   3.072 -0.9802  2.8749  2.3855
  244MOL0     H32939   0.688   7.316   2.996  0.0105  0.8018 -0.7718
  244MOL0     H32940   0.830   7.223   2.951  2.6625 -0.1671  1.1036
  245MOL0     O32941  10.464   1.398   7.166  0.1041 -0.3083  0.4091
  245MOL0     C32942  10.391   1.360   7.072  0.8666  0.0977  0.1761
  245MOL0     O32943  10.353   1.227   7.034 -0.4534  0.7482 -0.7043
  245MOL0     C32944  10.386   1.128   7.126  0.1592 -0.0938  0.4983
  245MOL0     C32945  10.515   1.089   7.137 -0.2565 -1.1430 -0.4984
  245MOL0     C32946  10.541   1.007   7.249 -1.3518  0.8929 -0.0948
  245MOL0     C32947  10.445   0.953   7.345  0.4922  0.6450  0.8880
  245MOL0     O32948  10.482   0.902   7.460  0.0887  0.8944 -0.5147
  245MOL0     C32949  10.453   0.759   7.472 -0.9012 -0.2511 -0.2648
  245MOL0     C32950  10.572   0.666   7.416  0.4965 -0.4321 -0.4372
  245MOL0     C32951  10.517   0.537   7.356  0.3556 -0.2236 -0.3772
  245MOL0     C32952  10.618   0.452   7.276  0.6194 -0.7052 -1.0501
  245MOL0     C32953  10.556   0.320   7.213 -0.1820 -0.3400 -0.0008
  245MOL0     C32954  10.661   0.231   7.133 -0.3430  1.2003 -0.1484
  245MOL0     C32955  10.788   0.181   7.212  0.0124  0.1604  0.3920
  245MOL0     C32956  10.780   0.027   7.237  0.0588  0.6601 -1.1474
  245MOL0     N32957  10.674  -0.006   7.332  0.5851  0.1038 -0.2877
  245MOL0     C32958  10.555  -0.065   7.290  0.4350 -0.4198 -0.6595
  245MOL0     C32959  10.473  -0.091   7.399 -0.3588  0.3507  0.4502
  245MOL0     C32960  10.334  -0.147   7.384 -0.5475  0.3798  0.3110
  245MOL0     C32961  10.316  -0.303   7.397 -0.3074  0.5890  0.4915
  245MOL0     C32962  10.392  -0.364   7.275  0.9417  0.6792 -0.3497
  245MOL0     C32963  10.322  -0.497   7.230 -0.3807  0.6142 -0.6659
  245MOL0     O32964  10.398  -0.571   7.135 -0.4231 -0.3447 -0.2015
  245MOL0     C32965  10.392  -0.702   7.129  0.0302  0.2789  0.4517
  245MOL0     C32966  10.399  -0.765   6.994 -0.0953 -0.8270 -0.0525
  245MOL0     C32967  10.399  -0.900   6.996  0.6740  0.4278 -0.2115
  245MOL0     C32968  10.419  -0.986   7.110 -0.6750  0.5592  0.1023
  245MOL0     C32969  10.440  -1.131   7.097 -0.2047  0.0888 -0.3277
  245MOL0     O32970  10.466  -1.175   6.969 -0.0647 -0.4399 -0.2564
  245MOL0     C32971  10.460  -1.305   6.939  0.2996 -0.8604 -0.4056
  245MOL0     C32972  10.345  -1.380   6.926  0.0569  0.0522  0.3189
  245MOL0     C32973  10.348  -1.510   6.858  0.2133 -0.8519  0.0751
  245MOL0     C32974  10.473  -1.567   6.833 -0.6354  0.3891 -1.0005
  245MOL0     O32975  10.473  -1.708   6.787 -0.8062 -0.4731  1.0124
  245MOL0     C32976  10.598  -1.763   6.745  0.7328 -0.6585  0.1203
  245MOL0     C32977  10.648  -1.730   6.603 -0.4581  0.2387 -0.6859
  245MOL0     C32978  10.772  -1.815   6.571  1.2989 -0.1183  0.1503
  245MOL0     C32979  10.819  -1.814   6.425  0.3159  0.0854 -0.1485
  245MOL0     C32980  10.891  -1.956   6.394 -0.5165 -0.6682  0.0291
  245MOL0     C32981  11.001  -1.928   6.288  2.0316 -0.3661 -0.1060
  245MOL0     C32982  11.093  -2.043   6.252  0.1761  0.2709  0.1645
  245MOL0     C32983  11.016  -2.162   6.197  0.1785  1.2778  0.7834
  245MOL0    Cl32984  10.950  -2.118   6.038  0.3316  0.1565 -0.0701
  245MOL0     C32985  10.594  -1.488   6.849  1.4911 -0.3596  0.6626
  245MOL0     C32986  10.582  -1.359   6.904  1.2018 -0.1404  0.6487
  245MOL0     O32987  10.430  -1.201   7.203 -0.4615 -0.1570  0.8242
  245MOL0     C32988  10.420  -0.914   7.234 -0.1680 -0.6836 -0.1942
  245MOL0     C32989  10.393  -0.779   7.238  0.6688 -0.4198 -0.4148
  245MOL0     N32990  10.554  -0.041   7.507  0.1025 -1.5891 -0.8099
  245MOL0     N32991  10.666   0.013   7.471 -0.2706 -1.1300 -0.4199
  245MOL0     C32992  10.314   0.974   7.305 -1.2098  1.2546 -0.5909
  245MOL0     C32993  10.286   1.062   7.196 -0.0365  0.3462 -0.0304
  245MOL0     C32994  10.354   1.459   6.963  0.7277 -0.5173  0.0914
  245MOL0     C32995  10.344   1.417   6.827  0.1807 -0.0879  0.0318
  245MOL0     C32996  10.304   1.510   6.734 -0.7561  0.6239 -0.5740
  245MOL0     C32997  10.255   1.636   6.757  0.0031  0.4419  0.4155
  245MOL0     O32998  10.206   1.718   6.668 -0.7188  0.3336  0.8473
  245MOL0     C32999  10.235   1.705   6.523 -1.6831  0.7632  0.5793
  245MOL0     C33000  10.174   1.829   6.455 -0.3322 -0.5443  1.1531
  245MOL0     C33001  10.020   1.815   6.436 -0.5166  0.1757 -0.3399
  245MOL0     C33002   9.935   1.826   6.565 -0.1743  0.3831 -0.8554
  245MOL0     C33003   9.794   1.855   6.545  0.7559 -1.1329  1.0601
  245MOL0     C33004   9.679   1.880   6.508  0.5575  0.5072  0.9979
  245MOL0     C33005  10.256   1.666   6.889 -1.3053  1.1798 -0.2724
  245MOL0     C33006  10.305   1.588   6.995 -0.0917  1.2678 -0.0201
  245MOL0     C33007  10.300   1.652   7.130  0.3827 -0.1755  0.2140
  245MOL0     H33008  10.606   1.123   7.089  0.6279  1.1578  2.4990
  245MOL0     H33009  10.642   0.983   7.280 -1.9312 -1.0324  0.4118
  245MOL0     H33010  10.438   0.725   7.575 -0.0235 -2.3818 -0.7853
  245MOL0     H33011  10.370   0.730   7.406  0.1205 -1.9303 -0.8979
  245MOL0     H33012  10.645   0.654   7.495  0.4099 -1.8619 -0.5478
  245MOL0     H33013  10.614   0.727   7.335 -0.7908  1.1863  0.0482
  245MOL0     H33014  10.440   0.567   7.284 -3.3029 -0.8075  2.9378
  245MOL0     H33015  10.462   0.477   7.428 -0.8223  1.4470  0.1914
  245MOL0     H33016  10.671   0.514   7.204  1.0211 -1.6599 -1.5844
  245MOL0     H33017  10.691   0.419   7.351 -2.0703 -1.9376  1.2326
  245MOL0     H33018  10.514   0.260   7.295 -0.4108  1.7642  1.4988
  245MOL0     H33019  10.467   0.345   7.156 -0.7625  1.5697  1.6442
  245MOL0     H33020  10.607   0.149   7.084  1.1051  1.7394 -2.8812
  245MOL0     H33021  10.697   0.300   7.056  2.7000  0.1726  0.2082
  245MOL0     H33022  10.786   0.239   7.305 -1.9310  1.3830 -0.3500
  245MOL0     H33023  10.880   0.215   7.163  1.0261 -2.9012 -0.0374
  245MOL0     H33024  10.759  -0.024   7.143 -2.0566  0.8248 -0.8109
  245MOL0     H33025  10.872  -0.016   7.276 -0.1653  1.7533  0.7214
  245MOL0     H33026  10.526  -0.091   7.188 -0.5034  0.4596 -0.6364
  245MOL0     H33027  10.283  -0.101   7.469 -1.4862 -0.5657  0.2628
  245MOL0     H33028  10.283  -0.108   7.296 -0.2152  2.4738  0.9784
  245MOL0     H33029  10.345  -0.351   7.491 -1.0905  0.0809  0.4814
  245MOL0     H33030  10.209  -0.319   7.385 -0.7294  4.1052 -1.8138
  245MOL0     H33031  10.491  -0.393   7.311 -0.5822  0.8453  4.8057
  245MOL0     H33032  10.395  -0.293   7.191 -2.2325  0.4485 -0.7634
  245MOL0     H33033  10.229  -0.458   7.187  0.4458  2.3564 -0.9734
  245MOL0     H33034  10.299  -0.558   7.318  3.1651  2.2126  1.5642
  245MOL0     H33035  10.418  -0.705   6.906  0.9033  1.3012  1.5355
  245MOL0     H33036  10.410  -0.951   6.901  1.0774 -3.7718  1.8464
  245MOL0     H33037  10.250  -1.333   6.946  0.0082 -0.3677  1.1420
  245MOL0     H33038  10.251  -1.559   6.858  0.1201 -0.6761  0.8489
  245MOL0     H33039  10.674  -1.757   6.824  2.8433  0.3076 -1.8522
  245MOL0     H33040  10.572  -1.868   6.735  0.7907 -0.6556 -0.0672
  245MOL0     H33041  10.574  -1.748   6.524  0.9040 -1.4639 -1.6548
  245MOL0     H33042  10.669  -1.622   6.600 -2.9526  0.8931  1.6207
  245MOL0     H33043  10.857  -1.779   6.630  2.3800  2.2168 -2.5738
  245MOL0     H33044  10.743  -1.917   6.598 -1.3809  1.2014  2.8274
  245MOL0     H33045  10.866  -1.720   6.395  0.2495  0.1407 -0.0835
  245MOL0     H33046  10.730  -1.796   6.364  0.0238  3.6248  1.1019
  245MOL0     H33047  10.817  -2.027   6.354  0.0711 -1.2807  0.0069
  245MOL0     H33048  10.931  -1.995   6.488 -0.1867  3.9688  2.0500
  245MOL0     H33049  10.968  -1.873   6.200  0.8130 -0.3766  0.3330
  245MOL0     H33050  11.070  -1.852   6.326  3.5596 -0.7692 -1.8818
  245MOL0     H33051  11.134  -2.084   6.344  0.5912  2.4765  1.0310
  245MOL0     H33052  11.178  -2.015   6.189  0.3719  0.3558  0.4629
  245MOL0     H33053  11.085  -2.243   6.173 -2.4687 -0.1598 -3.0903
  245MOL0     H33054  10.940  -2.195   6.268  2.7032 -0.0114  3.0774
  245MOL0     H33055  10.694  -1.514   6.816  2.1520  0.6511  1.7817
  245MOL0     H33056  10.666  -1.290   6.898  0.9991  0.0130 -2.4130
  245MOL0     H33057  10.426  -0.971   7.326  0.1467  1.2215  1.0367
  245MOL0     H33058  10.400  -0.737   7.338  1.4157 -2.4607  0.4364
  245MOL0     H33059  10.235   0.926   7.361  2.9862 -2.8120  2.6953
  245MOL0     H33060  10.184   1.085   7.167  0.1739  1.3868  0.0446
  245MOL0     H33061  10.390   1.324   6.795 -1.1722 -0.4670 -0.9126
  245MOL0     H33062  10.315   1.472   6.633  3.2027 -2.0049  0.6510
  245MOL0     H33063  10.196   1.609   6.488  0.1272 -0.0696  0.7227
  245MOL0     H33064  10.342   1.692   6.504 -2.2820 -4.2853 -0.8747
  245MOL0     H33065  10.225   1.854   6.362  0.6714 -0.8891  1.5923
  245MOL0     H33066  10.198   1.915   6.518  0.6779 -0.6135  0.8800
  245MOL0     H33067  10.008   1.724   6.377  0.7177 -2.1049  2.6540
  245MOL0     H33068   9.996   1.898   6.369  0.4708  2.3505  1.8283
  245MOL0     H33069   9.944   1.743   6.635 -2.4719 -0.8456 -1.9017
  245MOL0     H33070   9.976   1.908   6.624 -1.7200  0.7020 -0.1566
  245MOL0     H33071   9.579   1.897   6.473  1.4408  0.0457 -1.9882
  245MOL0     H33072  10.207   1.760   6.911 -1.3073  0.9843  0.6184
  245MOL0     H33073  10.401   1.691   7.149 -0.6625  3.3107 -0.8100
  245MOL0     H33074  10.239   1.742   7.123  0.9556  0.2864  1.0079
  245MOL0     H33075  10.268   1.582   7.208  0.5901 -0.2400  0.2426
  246MOL0     O33076   3.702   5.023   1.647  0.2502 -0.2911 -0.4963
  246MOL0     C33077   3.775   4.940   1.589  0.1371  0.2773 -0.2150
  246MOL0     O33078   3.744   4.876   1.466  0.7164  1.0240 -0.1422
  246MOL0     C33079   3.617   4.913   1.412 -0.6171 -0.4379  0.5933
  246MOL0     C33080   3.610   5.019   1.323  0.0913 -0.7727  0.1223
  246MOL0     C33081   3.490   5.057   1.274 -0.7335  0.1428  0.8784
  246MOL0     C33082   3.371   4.989   1.301 -0.0167  0.5331  0.7293
  246MOL0     O33083   3.253   5.046   1.261  0.2314 -0.1766  0.3559
  246MOL0     C33084   3.137   5.019   1.338  0.3755 -0.0310  0.1773
  246MOL0     C33085   3.016   5.090   1.283  0.4862  0.2310  0.5529
  246MOL0     C33086   2.984   5.042   1.138 -0.0183 -0.9501 -0.0036
  246MOL0     C33087   2.987   4.890   1.113 -0.8372  1.1731  0.2811
  246MOL0     C33088   2.915   4.857   0.979  0.4549 -0.1554 -0.1551
  246MOL0     C33089   2.774   4.896   0.991  0.9609  0.0946  0.3344
  246MOL0     C33090   2.692   4.855   0.866 -0.1487  0.2773 -0.3125
  246MOL0     C33091   2.583   4.750   0.886  0.0604 -0.6706  0.6853
  246MOL0     N33092   2.637   4.618   0.886  0.9827 -0.5165 -0.2186
  246MOL0     C33093   2.731   4.567   0.969 -0.3311 -0.2512 -0.0983
  246MOL0     C33094   2.729   4.435   0.962  0.2417  0.0237  0.2422
  246MOL0     C33095   2.798   4.340   1.050 -0.8349 -0.2467  0.4584
  246MOL0     C33096   2.945   4.379   1.072 -0.2496 -1.0245 -0.0253
  246MOL0     C33097   3.019   4.408   0.943 -0.1333  0.6140  0.4483
  246MOL0     C33098   3.166   4.404   0.968  0.4773  0.6721 -0.0987
  246MOL0     O33099   3.219   4.501   1.055 -0.3628 -0.2965  0.0299
  246MOL0     C33100   3.357   4.532   1.053  0.8819  0.1394  0.1475
  246MOL0     C33101   3.399   4.654   1.104 -0.8045 -0.8078  0.5932
  246MOL0     C33102   3.537   4.693   1.104 -0.1035  0.3064  0.3821
  246MOL0     C33103   3.638   4.609   1.056  0.5715  0.2136  0.1997
  246MOL0     C33104   3.785   4.641   1.057  0.3033  1.3416  0.0016
  246MOL0     O33105   3.823   4.764   1.112 -0.5511  0.5111 -0.9978
  246MOL0     C33106   3.957   4.787   1.143 -0.3939  0.7863 -1.4396
  246MOL0     C33107   4.018   4.912   1.139  0.1923  0.5448  0.0010
  246MOL0     C33108   4.149   4.944   1.171 -0.1978 -0.1140  0.4739
  246MOL0     C33109   4.223   4.838   1.230 -0.3375 -0.2869 -0.2452
  246MOL0     O33110   4.348   4.873   1.267  0.2856 -0.9098 -0.2262
  246MOL0     C33111   4.415   4.784   1.361 -0.6173 -0.7336 -0.3547
  246MOL0     C33112   4.506   4.682   1.290 -0.6754  0.6336  0.9023
  246MOL0     C33113   4.620   4.750   1.214  0.0344  0.1894  0.2744
  246MOL0     C33114   4.688   4.641   1.138 -0.7435  0.5838 -0.2474
  246MOL0     C33115   4.810   4.691   1.048  0.1535  0.8371 -0.3907
  246MOL0     C33116   4.929   4.733   1.124 -0.7571  0.9601  0.6223
  246MOL0     C33117   5.060   4.765   1.049  0.9487  0.7416 -0.4014
  246MOL0     C33118   5.100   4.660   0.947 -0.2539 -0.2688 -0.0045
  246MOL0    Cl33119   5.076   4.490   0.982  0.1307  0.1319 -0.5700
  246MOL0     C33120   4.156   4.711   1.250 -0.3505 -0.8558  0.4291
  246MOL0     C33121   4.026   4.690   1.209 -1.2829 -0.0617  0.3890
  246MOL0     O33122   3.859   4.553   1.008 -0.1317 -1.0402  0.3823
  246MOL0     C33123   3.593   4.479   1.014 -0.1662  0.2962 -0.2981
  246MOL0     C33124   3.455   4.445   1.003  0.6667 -0.2581 -0.5504
  246MOL0     N33125   2.648   4.407   0.851  0.2320  0.1724 -0.3812
  246MOL0     N33126   2.585   4.513   0.811  0.4622  1.0979 -0.6284
  246MOL0     C33127   3.376   4.877   1.393 -0.0297  0.0599 -0.4126
  246MOL0     C33128   3.503   4.840   1.443  1.0218  0.0079 -0.3445
  246MOL0     C33129   3.902   4.896   1.656  0.0152 -0.0899 -0.6504
  246MOL0     C33130   3.989   4.802   1.594 -0.3159 -0.2851  0.6130
  246MOL0     C33131   4.104   4.743   1.644 -0.0589 -0.3824 -0.3269
  246MOL0     C33132   4.147   4.771   1.774  0.2243  0.1152  0.1141
  246MOL0     O33133   4.255   4.721   1.850  0.3416 -0.1125  0.6503
  246MOL0     C33134   4.331   4.614   1.793 -0.5246  0.1563  0.5731
  246MOL0     C33135   4.388   4.531   1.909  1.4462 -0.4000 -0.0630
  246MOL0     C33136   4.478   4.619   1.996  0.9732  0.3779 -0.1949
  246MOL0     C33137   4.481   4.560   2.144  0.1338 -0.4551 -0.0576
  246MOL0     C33138   4.554   4.434   2.146  1.2039  0.3020 -0.8094
  246MOL0     C33139   4.621   4.341   2.123  0.9911  1.1302 -0.7795
  246MOL0     C33140   4.059   4.859   1.848  0.3487  0.6030  0.2535
  246MOL0     C33141   3.938   4.919   1.796  0.4350 -0.0613 -0.3640
  246MOL0     C33142   3.837   4.965   1.897  0.2355  0.2899  0.3760
  246MOL0     H33143   3.697   5.075   1.289 -1.4738  1.5144 -0.3398
  246MOL0     H33144   3.483   5.139   1.203 -1.4971 -0.0239  0.7515
  246MOL0     H33145   3.124   4.911   1.346  2.8816 -0.2815  2.2093
  246MOL0     H33146   3.146   5.047   1.444 -2.0326 -2.9091  1.3014
  246MOL0     H33147   3.021   5.199   1.282 -1.7212  0.3889  0.7771
  246MOL0     H33148   2.938   5.054   1.352 -2.5543  3.2449 -1.0153
  246MOL0     H33149   3.054   5.096   1.075  0.3743  0.6388  1.7219
  246MOL0     H33150   2.888   5.090   1.117  0.2962 -0.7893 -1.1439
  246MOL0     H33151   3.092   4.861   1.108 -0.6368  1.9412 -0.0810
  246MOL0     H33152   2.934   4.823   1.182 -0.1940 -2.7430 -2.7041
  246MOL0     H33153   2.949   4.917   0.895  0.5971  0.5877  0.4242
  246MOL0     H33154   2.934   4.750   0.964 -0.7731 -0.3408 -0.5979
  246MOL0     H33155   2.734   4.850   1.082 -1.2893 -2.7831 -1.9086
  246MOL0     H33156   2.759   5.004   1.001  1.2278  0.0258  1.6058
  246MOL0     H33157   2.767   4.836   0.789  0.3622  1.2126 -0.0616
  246MOL0     H33158   2.638   4.946   0.836 -0.1768  0.5539  0.5469
  246MOL0     H33159   2.531   4.764   0.981  1.7414  0.0004  1.5444
  246MOL0     H33160   2.512   4.762   0.803 -1.8725  1.6447  2.5463
  246MOL0     H33161   2.763   4.627   1.053  0.6140 -0.4165 -0.3305
  246MOL0     H33162   2.758   4.310   1.148  0.5122 -2.3095  0.4450
  246MOL0     H33163   2.793   4.243   0.999 -1.5642  0.8403 -1.6404
  246MOL0     H33164   2.963   4.470   1.130 -0.3086  3.4091 -5.9596
  246MOL0     H33165   2.994   4.294   1.120  1.2942  0.5301  1.2829
  246MOL0     H33166   2.983   4.500   0.897 -0.8443  0.4136  0.5894
  246MOL0     H33167   2.988   4.320   0.885 -1.3556  0.2924  1.5525
  246MOL0     H33168   3.215   4.408   0.870  0.0769 -2.4081 -0.5242
  246MOL0     H33169   3.190   4.299   0.989  1.0800 -0.3440 -4.8098
  246MOL0     H33170   3.333   4.726   1.151 -1.2239 -0.0329 -1.1140
  246MOL0     H33171   3.551   4.795   1.138 -0.0115  0.2307  0.5754
  246MOL0     H33172   3.955   4.994   1.104 -1.1280  1.0463  3.1814
  246MOL0     H33173   4.189   5.043   1.153 -0.6255 -0.5570 -3.9832
  246MOL0     H33174   4.468   4.846   1.434  1.7899 -2.7125 -0.2716
  246MOL0     H33175   4.349   4.727   1.427 -2.7268 -1.0190 -2.5727
  246MOL0     H33176   4.529   4.612   1.371  0.5500 -0.1495 -0.0715
  246MOL0     H33177   4.448   4.628   1.214  0.7719  0.4680 -0.1210
  246MOL0     H33178   4.571   4.820   1.146  1.1192  0.1822 -0.5455
  246MOL0     H33179   4.691   4.807   1.276 -1.3631 -0.6219  2.7816
  246MOL0     H33180   4.614   4.586   1.081 -0.5703  0.0680  0.0206
  246MOL0     H33181   4.727   4.564   1.205  0.5609 -0.9062 -2.5874
  246MOL0     H33182   4.774   4.781   0.998  1.3359  2.9224  2.2271
  246MOL0     H33183   4.837   4.619   0.971 -1.5896  1.2751 -1.4572
  246MOL0     H33184   4.912   4.828   1.175  0.7126  1.0626  0.9410
  246MOL0     H33185   4.943   4.655   1.199 -0.7774 -0.8661 -1.1917
  246MOL0     H33186   5.142   4.772   1.121  0.8236 -0.2928 -0.1471
  246MOL0     H33187   5.052   4.866   1.007  1.8762  0.4773 -1.2385
  246MOL0     H33188   5.072   4.679   0.843  0.0733 -1.8161 -0.3981
  246MOL0     H33189   5.208   4.646   0.939 -0.0952  1.4099 -1.3868
  246MOL0     H33190   4.217   4.633   1.293  2.8341 -0.0521 -2.1653
  246MOL0     H33191   3.998   4.590   1.238 -0.7296 -0.2955  0.1174
  246MOL0     H33192   3.672   4.410   0.983  1.7529  1.6525  1.3134
  246MOL0     H33193   3.423   4.345   0.976 -1.0545  0.1077  0.0537
  246MOL0     H33194   3.290   4.817   1.421 -1.1669  2.2931  1.2110
  246MOL0     H33195   3.511   4.771   1.526 -0.8025  3.4602  2.9965
  246MOL0     H33196   3.973   4.791   1.488  2.1865  1.9872 -0.1218
  246MOL0     H33197   4.175   4.687   1.586  1.4907 -0.1492  1.2591
  246MOL0     H33198   4.407   4.641   1.720 -0.3636 -1.3553  0.1329
  246MOL0     H33199   4.281   4.546   1.723  1.1029 -0.2693 -0.2252
  246MOL0     H33200   4.452   4.456   1.861  3.6713  0.3611  1.5454
  246MOL0     H33201   4.304   4.486   1.962  2.2384  1.7007  3.3008
  246MOL0     H33202   4.446   4.724   1.994  0.8955  0.3459 -0.7612
  246MOL0     H33203   4.581   4.615   1.959  1.6109  3.0862  1.0048
  246MOL0     H33204   4.531   4.632   2.209  2.5967 -1.3180 -0.8504
  246MOL0     H33205   4.377   4.537   2.165 -1.5237  2.8260 -3.5553
  246MOL0     H33206   4.694   4.265   2.104 -3.0655 -3.2674 -0.9029
  246MOL0     H33207   4.080   4.859   1.954 -0.8970 -1.9076  0.5692
  246MOL0     H33208   3.763   4.885   1.888 -0.0267  0.7505 -3.2426
  246MOL0     H33209   3.888   4.969   1.993 -1.0373  2.1659  1.0355
  246MOL0     H33210   3.786   5.060   1.875  0.1265 -0.4211 -3.0927
  247MOL0     O33211  11.426   8.024   7.770  0.0998 -0.7825 -0.0709
  247MOL0     C33212  11.462   7.903   7.774 -0.2304 -0.5826 -0.4615
  247MOL0     O33213  11.586   7.855   7.722 -0.9875 -0.0074  0.3728
  247MOL0     C33214  11.686   7.943   7.693 -0.2626  0.6193  0.0347
  247MOL0     C33215  11.764   7.929   7.581 -0.3054 -0.4491  0.4002
  247MOL0     C33216  11.875   8.001   7.555 -0.4067 -0.0469 -0.1327
  247MOL0     C33217  11.919   8.100   7.640 -0.7631  0.4015  0.2947
  247MOL0     O33218  12.029   8.175   7.595  0.8790 -0.4910 -0.0433
  247MOL0     C33219  11.997   8.314   7.594  0.0412 -0.2501  0.0939
  247MOL0     C33220  12.005   8.354   7.444  0.8389  0.0482 -0.4299
  247MOL0     C33221  12.137   8.343   7.381 -0.0293 -0.2423 -0.3355
  247MOL0     C33222  12.122   8.352   7.224  1.1179  0.1249  1.2428
  247MOL0     C33223  12.252   8.389   7.145  1.2871 -0.1928  1.5954
  247MOL0     C33224  12.275   8.542   7.175  0.9049 -0.4007  0.4360
  247MOL0     C33225  12.376   8.586   7.079 -0.1143  0.0398 -0.2919
  247MOL0     C33226  12.522   8.551   7.128  0.2667 -1.0017 -0.3324
  247MOL0     N33227  12.628   8.646   7.072 -0.2983  0.3333 -0.9813
  247MOL0     C33228  12.685   8.749   7.143  0.1234 -0.0748 -0.6588
  247MOL0     C33229  12.789   8.779   7.058  0.9550 -0.2041  0.1163
  247MOL0     C33230  12.882   8.897   7.071  0.4041  1.2450 -0.3365
  247MOL0     C33231  12.932   8.913   7.210 -0.8080 -0.5149  0.3833
  247MOL0     C33232  13.039   8.803   7.238 -0.0184  0.1079 -0.2489
  247MOL0     C33233  13.061   8.778   7.390 -1.4753 -0.9742  0.5540
  247MOL0     O33234  12.933   8.736   7.451 -0.1072  0.1820 -0.3588
  247MOL0     C33235  12.893   8.777   7.581 -0.8186 -0.0806  0.8804
  247MOL0     C33236  12.978   8.847   7.670 -0.1050 -0.2686 -0.1539
  247MOL0     C33237  12.929   8.889   7.806  0.7758  0.4545 -0.6329
  247MOL0     C33238  12.791   8.867   7.835 -1.0127 -0.1665  0.2371
  247MOL0     C33239  12.746   8.901   7.972  0.1789 -1.0513 -0.0818
  247MOL0     O33240  12.612   8.897   7.981 -0.6682  0.0273 -0.3075
  247MOL0     C33241  12.550   8.931   8.103 -0.4045 -0.2640 -0.0086
  247MOL0     C33242  12.610   9.007   8.207  0.6907 -0.2525 -0.1736
  247MOL0     C33243  12.543   9.016   8.327 -0.5214 -0.8861  0.5626
  247MOL0     C33244  12.438   8.934   8.358 -0.5949  0.7185  0.2163
  247MOL0     O33245  12.368   8.946   8.478 -1.0317  0.2516 -0.7902
  247MOL0     C33246  12.445   8.984   8.593 -0.0140 -0.5619 -0.9812
  247MOL0     C33247  12.360   8.951   8.714 -0.2282 -0.3720  0.0299
  247MOL0     C33248  12.440   8.960   8.844 -0.2893 -0.4370 -0.6365
  247MOL0     C33249  12.510   8.822   8.875 -0.1299 -0.7183  0.3076
  247MOL0     C33250  12.598   8.834   9.006 -0.7332  0.0092  0.3896
  247MOL0     C33251  12.622   8.692   9.058 -0.3113 -0.3410  0.1674
  247MOL0     C33252  12.734   8.690   9.178  1.1108 -0.3811 -0.2590
  247MOL0     C33253  12.696   8.763   9.309 -0.3893 -0.4777  0.6840
  247MOL0    Cl33254  12.717   8.942   9.298  0.0085  0.0899  0.0655
  247MOL0     C33255  12.377   8.853   8.259  0.0771  0.2425 -1.2699
  247MOL0     C33256  12.437   8.856   8.130  0.9292  0.6257 -0.4316
  247MOL0     O33257  12.830   8.911   8.064 -0.1396  0.5960 -0.3494
  247MOL0     C33258  12.706   8.801   7.735  0.5958 -0.3584 -0.0634
  247MOL0     C33259  12.765   8.767   7.616  0.2376  0.1151 -0.2810
  247MOL0     N33260  12.785   8.705   6.942  0.7625  0.9798  0.0569
  247MOL0     N33261  12.690   8.619   6.953  0.2896 -0.5577 -0.3123
  247MOL0     C33262  11.843   8.112   7.759  1.0261  0.8117  0.5561
  247MOL0     C33263  11.728   8.034   7.787 -0.2512 -0.2335  0.2903
  247MOL0     C33264  11.369   7.795   7.813 -0.1152 -0.3743  0.3165
  247MOL0     C33265  11.404   7.659   7.803  0.5622  0.5287  0.0151
  247MOL0     C33266  11.327   7.554   7.845  0.3413 -0.8762  1.3954
  247MOL0     C33267  11.199   7.585   7.884  1.1384  1.6859  0.2388
  247MOL0     O33268  11.112   7.487   7.911  0.0232 -0.3342  0.0761
  247MOL0     C33269  11.114   7.419   8.038  0.4871  0.3195  0.1167
  247MOL0     C33270  11.123   7.526   8.154  0.6547 -1.1487  0.0393
  247MOL0     C33271  10.976   7.585   8.165  1.1813  0.1701 -0.2621
  247MOL0     C33272  10.946   7.656   8.300  1.2435 -0.3472 -0.1683
  247MOL0     C33273  11.042   7.769   8.313  0.6251  0.3818  0.2627
  247MOL0     C33274  11.111   7.870   8.319  0.4581  0.4384 -0.2141
  247MOL0     C33275  11.148   7.715   7.879  0.2486  0.1457 -0.3970
  247MOL0     C33276  11.236   7.830   7.859 -0.5194 -0.1739 -0.2153
  247MOL0     C33277  11.182   7.967   7.870 -0.0890  0.1315 -0.7406
  247MOL0     H33278  11.743   7.862   7.499 -1.7767  1.4053 -0.8271
  247MOL0     H33279  11.928   7.982   7.463 -1.3392 -1.0134 -0.4930
  247MOL0     H33280  11.894   8.326   7.630  0.2492  1.8399  0.1007
  247MOL0     H33281  12.060   8.366   7.668  0.7042  1.3473 -1.5242
  247MOL0     H33282  11.953   8.448   7.422 -0.9212 -0.4828  1.1986
  247MOL0     H33283  11.934   8.282   7.401  1.5682 -0.2652 -1.1269
  247MOL0     H33284  12.173   8.242   7.403 -1.6733 -0.4264  1.7428
  247MOL0     H33285  12.207   8.419   7.418 -1.0217  0.2649  0.5363
  247MOL0     H33286  12.065   8.266   7.190 -1.1968  1.9172  0.3172
  247MOL0     H33287  12.053   8.435   7.209  1.6530  0.3319 -0.3109
  247MOL0     H33288  12.335   8.322   7.170  0.3890 -1.7226  0.5890
  247MOL0     H33289  12.244   8.379   7.037  1.5098  2.7293  1.2209
  247MOL0     H33290  12.193   8.607   7.146  0.7248 -2.3305 -4.2092
  247MOL0     H33291  12.309   8.556   7.278 -3.1148 -0.5761  1.9634
  247MOL0     H33292  12.378   8.693   7.054  5.0369  0.2039 -0.2151
  247MOL0     H33293  12.356   8.532   6.987  0.0652 -1.3141  0.4471
  247MOL0     H33294  12.529   8.551   7.237  0.1289  3.8524 -0.1291
  247MOL0     H33295  12.555   8.448   7.106 -1.1775 -1.7356  0.7744
  247MOL0     H33296  12.665   8.779   7.245 -3.4137 -2.8767 -0.3148
  247MOL0     H33297  12.961   8.895   6.994  2.0554  5.1467  1.0078
  247MOL0     H33298  12.829   8.990   7.048 -1.0306  0.7139  0.6762
  247MOL0     H33299  12.971   9.012   7.235  0.1278 -1.4811  3.2310
  247MOL0     H33300  12.853   8.905   7.285 -1.8008  1.1968 -0.4318
  247MOL0     H33301  13.120   8.835   7.173 -1.2922 -0.5287 -2.2530
  247MOL0     H33302  13.001   8.709   7.198  1.5222 -0.6521  0.0153
  247MOL0     H33303  13.090   8.871   7.439 -2.6502  0.9230 -2.0977
  247MOL0     H33304  13.136   8.701   7.409 -0.0603 -0.1913 -1.4899
  247MOL0     H33305  13.079   8.864   7.636 -0.4236  0.9339 -0.5575
  247MOL0     H33306  12.993   8.943   7.876 -0.8409 -1.9487  3.0441
  247MOL0     H33307  12.701   9.065   8.195 -0.8267  2.5538  1.0399
  247MOL0     H33308  12.589   9.091   8.390  2.2143 -1.7206 -0.3111
  247MOL0     H33309  12.527   8.914   8.612 -0.2608 -0.1272  2.3468
  247MOL0     H33310  12.475   9.089   8.595 -2.6096  0.3342 -3.0604
  247MOL0     H33311  12.288   9.034   8.723 -0.8961 -0.9927  0.5541
  247MOL0     H33312  12.319   8.850   8.713  1.9235 -1.4242  3.1247
  247MOL0     H33313  12.522   9.030   8.830 -1.4846  0.7821 -1.9561
  247MOL0     H33314  12.379   8.994   8.928 -0.8959 -0.0550 -1.2185
  247MOL0     H33315  12.579   8.807   8.792  0.9203  0.7943  0.8621
  247MOL0     H33316  12.433   8.745   8.876  0.7910 -1.9313 -3.6952
  247MOL0     H33317  12.559   8.904   9.079 -3.1589 -0.0544 -0.7330
  247MOL0     H33318  12.693   8.877   8.971 -1.1680  1.1387  0.5713
  247MOL0     H33319  12.530   8.645   9.094 -0.5051  0.3017  0.5422
  247MOL0     H33320  12.667   8.633   8.978  0.2523  0.9918 -0.5203
  247MOL0     H33321  12.832   8.719   9.140  0.7115  0.3305 -0.7727
  247MOL0     H33322  12.758   8.585   9.198  0.0467 -0.6708 -0.4207
  247MOL0     H33323  12.591   8.737   9.323 -0.2273 -1.9045 -0.4589
  247MOL0     H33324  12.749   8.735   9.400  2.4296 -0.0887 -0.7187
  247MOL0     H33325  12.287   8.796   8.280 -0.0546  0.6650 -0.6610
  247MOL0     H33326  12.398   8.794   8.050  2.0790 -1.6055  0.6384
  247MOL0     H33327  12.602   8.781   7.758 -0.4638  1.5344 -2.6226
  247MOL0     H33328  12.720   8.709   7.536  2.9088  3.1404 -4.3923
  247MOL0     H33329  11.866   8.178   7.842  1.5032 -2.0061  2.7930
  247MOL0     H33330  11.677   8.043   7.882  0.9446  0.2825  0.9000
  247MOL0     H33331  11.496   7.613   7.768 -0.5804 -0.6055 -1.6780
  247MOL0     H33332  11.347   7.451   7.820  0.2061 -0.7047  0.5509
  247MOL0     H33333  11.200   7.351   8.038 -1.8882 -2.9896  2.7015
  247MOL0     H33334  11.025   7.358   8.055 -1.1338  1.3478 -3.6905
  247MOL0     H33335  11.189   7.611   8.134 -2.6813  1.2455 -1.8937
  247MOL0     H33336  11.137   7.481   8.252 -2.0605 -0.4737  0.8335
  247MOL0     H33337  10.900   7.506   8.162 -0.9963  2.0350  1.8088
  247MOL0     H33338  10.965   7.650   8.078  1.4258 -0.6362 -0.9092
  247MOL0     H33339  10.844   7.693   8.304  1.2562 -0.4487  2.3994
  247MOL0     H33340  10.963   7.591   8.387  0.3448  0.6660  0.7872
  247MOL0     H33341  11.174   7.956   8.324  0.6603  0.3281 -0.7893
  247MOL0     H33342  11.050   7.743   7.916  1.6709 -0.0467  3.9750
  247MOL0     H33343  11.079   7.937   7.892  1.1553 -4.1714  0.1611
  247MOL0     H33344  11.242   8.017   7.946 -2.3572  0.8382  0.6710
  247MOL0     H33345  11.185   8.028   7.780 -1.2648  1.9748  0.4187
  248MOL0     O33346   4.943   2.087   0.307 -0.3575 -0.8115 -0.1769
  248MOL0     C33347   4.862   2.001   0.335  0.2119 -0.6310  0.3235
  248MOL0     O33348   4.800   1.987   0.457 -0.2101  0.3519  0.1892
  248MOL0     C33349   4.818   2.079   0.555 -0.1390 -0.0223  0.6657
  248MOL0     C33350   4.936   2.114   0.602  0.4566  0.5016  0.1059
  248MOL0     C33351   4.953   2.209   0.699  0.4929 -0.7501 -0.1139
  248MOL0     C33352   4.840   2.284   0.743  0.1797  0.3497 -0.0194
  248MOL0     O33353   4.848   2.390   0.827 -0.3998  0.3941 -0.2767
  248MOL0     C33354   4.921   2.507   0.799  1.1666 -0.1800  0.4212
  248MOL0     C33355   4.943   2.596   0.933  0.5242 -0.3032 -0.0649
  248MOL0     C33356   5.044   2.534   1.020  1.1503 -0.2517 -0.2635
  248MOL0     C33357   5.048   2.600   1.163  0.2158  0.6417  0.7972
  248MOL0     C33358   5.141   2.521   1.249  0.5708  0.4677 -0.8449
  248MOL0     C33359   5.146   2.562   1.396  1.5436  1.1177  0.0020
  248MOL0     C33360   5.288   2.553   1.470  1.0347 -1.3935  0.6838
  248MOL0     C33361   5.281   2.537   1.614  1.0648  0.2612  0.5899
  248MOL0     N33362   5.196   2.621   1.695  0.7229 -0.3507 -0.3874
  248MOL0     C33363   5.221   2.751   1.717  0.3657 -0.2556  0.0892
  248MOL0     C33364   5.112   2.796   1.788  0.3152 -0.0262 -0.7122
  248MOL0     C33365   5.086   2.927   1.822 -0.5908 -0.5495 -0.3205
  248MOL0     C33366   5.214   3.013   1.827 -0.0500 -0.2552 -0.1923
  248MOL0     C33367   5.184   3.159   1.906  0.0883 -0.0183  0.3433
  248MOL0     C33368   5.231   3.155   2.052  0.4010  0.4530  1.2552
  248MOL0     O33369   5.214   3.290   2.108  0.0986  1.2339 -0.0661
  248MOL0     C33370   5.232   3.305   2.244 -0.6265 -0.1046  0.2209
  248MOL0     C33371   5.277   3.204   2.332 -0.5041  0.8218 -0.6013
  248MOL0     C33372   5.302   3.229   2.468 -0.0793  0.0186 -1.3281
  248MOL0     C33373   5.261   3.353   2.525  0.7885  1.3544 -0.1826
  248MOL0     C33374   5.280   3.391   2.665 -0.3516  0.4665 -0.7816
  248MOL0     O33375   5.298   3.287   2.746 -0.8487 -0.1427 -0.1355
  248MOL0     C33376   5.308   3.296   2.887 -0.2957 -0.0567  0.8136
  248MOL0     C33377   5.347   3.405   2.969  0.0298 -0.0508  0.4367
  248MOL0     C33378   5.352   3.403   3.107  0.6023  0.8998  0.2880
  248MOL0     C33379   5.308   3.284   3.165  0.1102 -0.1368  1.1954
  248MOL0     O33380   5.299   3.289   3.296 -0.6137 -0.0658 -0.0453
  248MOL0     C33381   5.327   3.164   3.362 -0.7201 -0.8633  0.4684
  248MOL0     C33382   5.380   3.203   3.497  1.1883  0.0568 -0.5125
  248MOL0     C33383   5.509   3.288   3.481 -0.5303  0.3045  0.3417
  248MOL0     C33384   5.618   3.208   3.410  0.4284 -0.2472  0.5371
  248MOL0     C33385   5.758   3.274   3.410 -0.0662 -0.5341 -0.4333
  248MOL0     C33386   5.848   3.162   3.361  1.2320  0.1482  0.7566
  248MOL0     C33387   5.989   3.215   3.339  0.8470 -0.2100  0.2953
  248MOL0     C33388   6.061   3.123   3.242  0.0422  0.1166 -0.7220
  248MOL0    Cl33389   6.222   3.185   3.202 -0.3934  0.3822  0.1577
  248MOL0     C33390   5.273   3.175   3.085 -0.4940 -0.4628  1.2134
  248MOL0     C33391   5.281   3.182   2.946 -0.3086  0.5173 -0.2933
  248MOL0     O33392   5.243   3.508   2.701  0.1639 -0.6205  0.3008
  248MOL0     C33393   5.184   3.437   2.438  0.4542 -0.2823 -0.4728
  248MOL0     C33394   5.181   3.419   2.301 -0.6255 -0.8234  1.0386
  248MOL0     N33395   5.024   2.684   1.802 -1.3186 -1.2364 -0.7425
  248MOL0     N33396   5.082   2.574   1.755 -0.5474  0.0631  1.4498
  248MOL0     C33397   4.720   2.248   0.693 -0.6761 -0.1967 -0.2335
  248MOL0     C33398   4.706   2.150   0.599  0.3928 -0.1378 -0.9370
  248MOL0     C33399   4.853   1.895   0.240 -0.3663 -0.6168  0.2994
  248MOL0     C33400   4.802   1.773   0.287  0.2942  0.4305  0.1175
  248MOL0     C33401   4.774   1.671   0.191 -1.0180  0.2300 -0.1826
  248MOL0     C33402   4.806   1.683   0.054  0.3803 -0.0289 -0.3336
  248MOL0     O33403   4.772   1.571  -0.027 -0.6467 -0.9094 -0.6599
  248MOL0     C33404   4.790   1.597  -0.166 -0.1971  0.1398 -0.1125
  248MOL0     C33405   4.730   1.472  -0.233 -0.3987 -0.4959  0.0452
  248MOL0     C33406   4.724   1.469  -0.384  0.3511  0.7576 -0.2960
  248MOL0     C33407   4.857   1.432  -0.442  0.1527 -0.1817 -0.1868
  248MOL0     C33408   4.943   1.553  -0.448  1.1278 -0.9071  0.0781
  248MOL0     C33409   5.012   1.650  -0.446 -0.5947 -0.2602 -0.4378
  248MOL0     C33410   4.850   1.801   0.011  0.5325  0.3167 -0.8097
  248MOL0     C33411   4.883   1.910   0.100 -0.8639  0.5240 -0.2672
  248MOL0     C33412   4.934   2.029   0.034  0.3994 -0.8818  0.1177
  248MOL0     H33413   5.017   2.064   0.551  1.3438  1.8318  0.1460
  248MOL0     H33414   5.045   2.251   0.739 -0.0701 -1.7700  2.4000
  248MOL0     H33415   5.019   2.494   0.752 -0.0307  1.5283 -2.8430
  248MOL0     H33416   4.863   2.566   0.728  2.0651  2.7847  1.9725
  248MOL0     H33417   4.856   2.627   0.991  1.1189 -0.0022  0.6808
  248MOL0     H33418   4.987   2.688   0.895 -1.4393  1.5945  2.0056
  248MOL0     H33419   5.144   2.547   0.978  2.3711 -2.8421  1.6103
  248MOL0     H33420   5.013   2.430   1.031  2.1412 -0.6542 -1.1264
  248MOL0     H33421   5.078   2.705   1.154  1.2743  0.2391 -1.0396
  248MOL0     H33422   4.947   2.591   1.205 -0.2483  1.6346 -0.0518
  248MOL0     H33423   5.114   2.415   1.238  1.8415 -0.2058  1.7064
  248MOL0     H33424   5.244   2.517   1.213  1.0045  0.7669  0.3281
  248MOL0     H33425   5.105   2.664   1.397  0.1510  0.6819 -2.6046
  248MOL0     H33426   5.074   2.501   1.452 -1.0172  1.4047 -2.6974
  248MOL0     H33427   5.339   2.645   1.443  1.8589 -2.2348 -0.7506
  248MOL0     H33428   5.347   2.470   1.430  0.4291 -0.8935 -1.3624
  248MOL0     H33429   5.250   2.432   1.625  6.5050 -1.7326  0.0847
  248MOL0     H33430   5.383   2.544   1.653  1.3487 -0.3045 -0.0420
  248MOL0     H33431   5.306   2.803   1.674  2.4646 -2.9339  0.7598
  248MOL0     H33432   5.013   2.959   1.747  0.2930  0.3060 -0.8352
  248MOL0     H33433   5.023   2.941   1.911  0.4438  2.5680  0.0217
  248MOL0     H33434   5.301   2.964   1.872  0.5178  1.4503  0.6645
  248MOL0     H33435   5.232   3.052   1.727 -3.1498  0.0157 -0.7359
  248MOL0     H33436   5.077   3.181   1.902  0.0398 -0.3633 -3.0909
  248MOL0     H33437   5.234   3.242   1.855 -0.1222  0.0160  0.1934
  248MOL0     H33438   5.326   3.108   2.078 -0.0184  0.0544  2.1354
  248MOL0     H33439   5.160   3.081   2.091  0.5763 -0.4147 -0.0267
  248MOL0     H33440   5.303   3.103   2.300  0.2407  0.8729 -0.1840
  248MOL0     H33441   5.360   3.167   2.537 -3.2362 -0.7154  0.9171
  248MOL0     H33442   5.380   3.499   2.924  4.5967 -0.6747  1.9638
  248MOL0     H33443   5.388   3.490   3.161 -1.6312  2.3828 -0.5070
  248MOL0     H33444   5.231   3.113   3.377 -0.8690 -0.5020  0.7526
  248MOL0     H33445   5.396   3.094   3.314  0.4959  1.1589 -0.8511
  248MOL0     H33446   5.300   3.262   3.542 -0.7414 -2.2861 -0.6776
  248MOL0     H33447   5.400   3.110   3.551  3.7274 -0.2955 -1.8658
  248MOL0     H33448   5.493   3.381   3.425  2.3275 -0.3620 -1.8171
  248MOL0     H33449   5.552   3.309   3.580 -0.2092  0.0919  0.2508
  248MOL0     H33450   5.593   3.199   3.304  2.2956 -1.5091  0.1637
  248MOL0     H33451   5.627   3.104   3.442 -0.3982 -0.4713  0.0513
  248MOL0     H33452   5.786   3.314   3.508  2.0485  1.3281 -1.6975
  248MOL0     H33453   5.764   3.366   3.351  3.5063  1.4228  2.5620
  248MOL0     H33454   5.861   3.087   3.439  2.7745  1.5023  1.8533
  248MOL0     H33455   5.802   3.123   3.269 -0.9317  0.8898  1.4654
  248MOL0     H33456   6.045   3.224   3.433  2.9714  5.0139 -1.0642
  248MOL0     H33457   5.983   3.317   3.300 -2.8530  0.5572  2.4279
  248MOL0     H33458   6.064   3.031   3.300 -1.8861  0.7054  0.4224
  248MOL0     H33459   6.002   3.103   3.152 -1.5670  1.8129 -0.1125
  248MOL0     H33460   5.232   3.084   3.127 -2.5531  1.2322  3.1213
  248MOL0     H33461   5.255   3.096   2.884  1.3124  0.5962 -1.1191
  248MOL0     H33462   5.144   3.531   2.476 -2.6276 -1.4389 -0.5436
  248MOL0     H33463   5.148   3.504   2.242 -0.1665 -1.0823  0.3937
  248MOL0     H33464   4.630   2.302   0.722 -0.1552  0.7123 -0.2693
  248MOL0     H33465   4.614   2.122   0.549 -0.7110  0.9859  0.3871
  248MOL0     H33466   4.778   1.754   0.391 -0.8519  1.4840  0.0820
  248MOL0     H33467   4.731   1.579   0.230 -1.9942  0.1682 -1.3244
  248MOL0     H33468   4.897   1.604  -0.188 -0.0760  3.0374  0.9943
  248MOL0     H33469   4.740   1.685  -0.207 -0.6165 -0.2718 -0.5001
  248MOL0     H33470   4.627   1.470  -0.196 -1.4927  2.5039 -2.3676
  248MOL0     H33471   4.785   1.383  -0.202  1.9134  1.6146  2.5190
  248MOL0     H33472   4.686   1.561  -0.429  0.7133  2.4314  2.5886
  248MOL0     H33473   4.666   1.383  -0.420  2.5777 -0.8468 -0.2635
  248MOL0     H33474   4.910   1.355  -0.386 -2.1205 -2.9636 -1.6578
  248MOL0     H33475   4.830   1.390  -0.539 -0.3742 -0.6933  0.1776
  248MOL0     H33476   5.064   1.743  -0.441 -0.8018 -0.1717  0.1058
  248MOL0     H33477   4.859   1.818  -0.096 -2.3413  2.4470 -0.8309
  248MOL0     H33478   5.038   2.050   0.059 -0.6912  4.2472  1.4528
  248MOL0     H33479   4.942   2.025  -0.075 -1.5978  3.2374 -0.3934
  248MOL0     H33480   4.874   2.117   0.059  0.8719 -0.3312 -0.6395
  249MOL0     O33481   4.707   5.258   5.687  0.2844 -0.1985  0.4441
  249MOL0     C33482   4.639   5.294   5.591 -0.7503 -0.0090 -0.1398
  249MOL0     O33483   4.601   5.218   5.477 -0.3775  0.0030 -0.8865
  249MOL0     C33484   4.683   5.113   5.458 -0.0387 -0.5105  0.2584
  249MOL0     C33485   4.681   5.006   5.538 -0.6026 -0.3365 -0.3033
  249MOL0     C33486   4.769   4.907   5.512 -0.4714  0.7875  0.3461
  249MOL0     C33487   4.851   4.906   5.391  0.2931 -0.6343 -0.1117
  249MOL0     O33488   4.935   4.805   5.348 -0.1008  0.4357 -0.2227
  249MOL0     C33489   4.927   4.687   5.427  0.1729  0.0360  0.1398
  249MOL0     C33490   5.011   4.597   5.336  0.0542  0.8677  0.2702
  249MOL0     C33491   5.008   4.454   5.396  0.0632  0.0344 -0.1777
  249MOL0     C33492   4.880   4.369   5.354 -1.2165 -0.7890  0.5339
  249MOL0     C33493   4.889   4.236   5.416 -0.5234  0.5029 -0.7215
  249MOL0     C33494   4.986   4.134   5.343 -0.2587 -0.7189 -0.0467
  249MOL0     C33495   5.013   4.012   5.438 -0.7133 -0.1351 -0.0776
  249MOL0     C33496   5.106   3.909   5.360  0.5917 -0.3063  0.2799
  249MOL0     N33497   5.240   3.952   5.349 -0.5979 -0.1782  0.4087
  249MOL0     C33498   5.335   3.930   5.440  0.5311 -0.4024  0.4482
  249MOL0     C33499   5.448   3.996   5.397 -0.7466  0.2746  0.9274
  249MOL0     C33500   5.582   3.988   5.449 -0.3794  0.2942 -0.1749
  249MOL0     C33501   5.608   4.065   5.582 -0.7428  0.9543  0.1045
  249MOL0     C33502   5.518   4.190   5.582 -0.4344  0.5971  0.7008
  249MOL0     C33503   5.543   4.265   5.711 -1.2164 -0.1080  0.7772
  249MOL0     O33504   5.520   4.407   5.677 -0.6349  0.0635 -0.5324
  249MOL0     C33505   5.412   4.462   5.732 -0.9565 -0.6040 -0.5697
  249MOL0     C33506   5.423   4.541   5.845  0.0505  0.1497  0.0280
  249MOL0     C33507   5.311   4.600   5.908  0.1506 -0.1852  0.1304
  249MOL0     C33508   5.189   4.609   5.831  0.5977 -0.1061 -0.1828
  249MOL0     C33509   5.067   4.680   5.880  0.8445  0.4318  0.8413
  249MOL0     O33510   5.080   4.772   5.985 -0.7289 -0.7895 -0.0938
  249MOL0     C33511   4.979   4.858   6.019 -0.5666  0.1797  0.7023
  249MOL0     C33512   4.938   4.861   6.154 -0.6734 -0.5905 -0.8554
  249MOL0     C33513   4.841   4.950   6.197 -0.5682 -0.4662 -0.4360
  249MOL0     C33514   4.777   5.035   6.110  0.4429 -0.6465  0.0349
  249MOL0     O33515   4.679   5.133   6.167 -0.2429  0.4712  0.0923
  249MOL0     C33516   4.630   5.239   6.082 -0.4996 -1.0120  0.5183
  249MOL0     C33517   4.546   5.340   6.144  0.8607  0.2755  0.2934
  249MOL0     C33518   4.492   5.435   6.035 -0.0326  0.9276 -0.7741
  249MOL0     C33519   4.363   5.525   6.075 -0.8705  0.6818 -0.0901
  249MOL0     C33520   4.409   5.633   6.181 -0.7138 -0.0504 -0.4902
  249MOL0     C33521   4.390   5.583   6.327  0.6336  0.4417  0.0637
  249MOL0     C33522   4.245   5.565   6.368  1.2799  0.5944 -1.2589
  249MOL0     C33523   4.191   5.683   6.439  0.6778 -0.7291  1.5172
  249MOL0    Cl33524   4.031   5.657   6.516 -0.0175 -0.0089 -0.3374
  249MOL0     C33525   4.806   5.026   5.971  0.1176  0.2349  0.0284
  249MOL0     C33526   4.913   4.946   5.929 -0.2127  0.4284 -0.1125
  249MOL0     O33527   4.958   4.658   5.824  0.8568 -0.1686 -0.2279
  249MOL0     C33528   5.189   4.551   5.704  0.0538 -0.3195 -0.7473
  249MOL0     C33529   5.290   4.459   5.661 -0.5764  0.3879 -0.2436
  249MOL0     N33530   5.420   4.061   5.279 -0.8439 -0.3977 -0.5725
  249MOL0     N33531   5.290   4.031   5.245  0.3278 -0.1375 -0.3187
  249MOL0     C33532   4.851   5.027   5.313  0.8196  0.7380 -0.0887
  249MOL0     C33533   4.763   5.128   5.348 -0.2589  0.0036 -0.2868
  249MOL0     C33534   4.599   5.438   5.594  1.1443 -1.4049  0.3323
  249MOL0     C33535   4.621   5.514   5.709  0.2436 -0.1262  0.0841
  249MOL0     C33536   4.581   5.650   5.718 -0.2427 -0.8309 -0.2560
  249MOL0     C33537   4.543   5.721   5.606  0.5981 -0.5520 -0.7545
  249MOL0     O33538   4.530   5.861   5.616  0.0409 -0.0299  0.2308
  249MOL0     C33539   4.589   5.926   5.504  0.3186  0.0586 -0.1660
  249MOL0     C33540   4.587   6.081   5.527  0.0557  1.2508 -0.9007
  249MOL0     C33541   4.433   6.130   5.533  0.1193 -0.2038  0.3169
  249MOL0     C33542   4.352   6.098   5.401 -0.2900 -0.1940 -0.7773
  249MOL0     C33543   4.212   6.139   5.439  0.4302  0.0294 -0.0646
  249MOL0     C33544   4.100   6.165   5.462 -0.6622 -0.1089 -0.5239
  249MOL0     C33545   4.509   5.638   5.497  0.0777 -0.8283 -0.2567
  249MOL0     C33546   4.524   5.504   5.488 -0.1003  0.8234  0.6950
  249MOL0     C33547   4.465   5.436   5.371 -0.7580 -0.0301  0.7970
  249MOL0     H33548   4.616   5.001   5.625  1.7851  0.2520  1.6415
  249MOL0     H33549   4.769   4.816   5.571  1.2221  1.9467  2.2925
  249MOL0     H33550   4.982   4.691   5.522 -0.1849  0.2627  0.3378
  249MOL0     H33551   4.829   4.639   5.432 -0.4391  0.8643 -2.5080
  249MOL0     H33552   5.114   4.632   5.324 -0.2386  0.9301 -2.5372
  249MOL0     H33553   4.975   4.589   5.233  1.7959  1.1085 -0.3848
  249MOL0     H33554   5.027   4.453   5.504 -0.5489  1.9936 -0.0166
  249MOL0     H33555   5.096   4.404   5.354 -0.3122 -1.6699  0.9381
  249MOL0     H33556   4.790   4.416   5.394 -2.3842 -1.5578 -1.0977
  249MOL0     H33557   4.861   4.369   5.247 -4.2690  3.5058  0.8047
  249MOL0     H33558   4.938   4.242   5.514  1.5837  4.6520 -1.8298
  249MOL0     H33559   4.788   4.193   5.416 -0.5226  0.4930 -1.4838
  249MOL0     H33560   4.939   4.104   5.249 -0.5642 -0.4091  0.0054
  249MOL0     H33561   5.083   4.178   5.316 -0.6518 -1.0567 -2.2361
  249MOL0     H33562   4.920   3.960   5.459 -1.2290 -0.6946 -3.2259
  249MOL0     H33563   5.064   4.038   5.532  0.3765  0.4167 -0.7916
  249MOL0     H33564   5.105   3.811   5.409 -1.7320 -0.2336  0.4749
  249MOL0     H33565   5.052   3.896   5.266  0.2267  1.5759  0.2062
  249MOL0     H33566   5.318   3.861   5.522 -1.8826 -0.4642 -0.0433
  249MOL0     H33567   5.606   3.883   5.466  1.3861  0.4852 -1.3045
  249MOL0     H33568   5.650   4.010   5.367 -1.5777  1.8869 -0.7897
  249MOL0     H33569   5.586   3.992   5.660 -0.4448 -0.4745 -1.1073
  249MOL0     H33570   5.707   4.108   5.565 -2.6866  4.8502 -3.0094
  249MOL0     H33571   5.413   4.159   5.578  0.5768 -3.1256 -2.3037
  249MOL0     H33572   5.538   4.244   5.489 -1.2123 -2.5491 -1.4505
  249MOL0     H33573   5.650   4.253   5.730 -0.6696 -1.5909 -2.5472
  249MOL0     H33574   5.477   4.231   5.792  0.4276 -4.1746  0.6541
  249MOL0     H33575   5.516   4.554   5.900  2.0729 -1.8821 -2.6210
  249MOL0     H33576   5.304   4.643   6.007 -2.1239  1.6126 -0.7247
  249MOL0     H33577   4.983   4.796   6.229 -1.6460  1.9992  2.2096
  249MOL0     H33578   4.834   4.960   6.305 -0.5118  4.3746 -0.6842
  249MOL0     H33579   4.709   5.299   6.037 -0.8784  0.6457  1.9460
  249MOL0     H33580   4.573   5.196   5.999 -0.1783  1.0685 -0.8569
  249MOL0     H33581   4.471   5.302   6.214  0.3808 -1.0734 -0.9075
  249MOL0     H33582   4.607   5.401   6.212 -0.3346  1.4538  0.3330
  249MOL0     H33583   4.571   5.501   5.997  0.0270 -0.6827 -3.8031
  249MOL0     H33584   4.454   5.369   5.956  1.7171 -3.3442  1.6473
  249MOL0     H33585   4.283   5.459   6.110 -1.0779  0.3523 -1.1574
  249MOL0     H33586   4.328   5.577   5.986  2.6954 -1.0935 -2.8365
  249MOL0     H33587   4.340   5.716   6.163 -0.4496  0.7730  1.8718
  249MOL0     H33588   4.514   5.659   6.164 -1.1439  1.6312 -0.7985
  249MOL0     H33589   4.444   5.490   6.346  4.7127  2.5883  0.1178
  249MOL0     H33590   4.440   5.644   6.402  0.3230  0.3417  0.3522
  249MOL0     H33591   4.246   5.496   6.453  0.3586  0.4515 -1.3530
  249MOL0     H33592   4.177   5.534   6.288  2.9118 -2.6992 -1.5817
  249MOL0     H33593   4.257   5.720   6.518 -0.6661  0.7809  1.9830
  249MOL0     H33594   4.177   5.777   6.384  2.7274 -1.2236 -0.0240
  249MOL0     H33595   4.745   5.072   5.894  1.9829  0.8132 -1.1576
  249MOL0     H33596   4.957   4.952   5.830 -3.1962  0.3853 -1.5589
  249MOL0     H33597   5.093   4.558   5.654  0.7554  0.6618 -2.0168
  249MOL0     H33598   5.275   4.405   5.568 -4.0197  1.5711 -0.4981
  249MOL0     H33599   4.927   5.035   5.237 -0.7442  4.1569 -1.4679
  249MOL0     H33600   4.770   5.219   5.290 -1.3882  0.1721 -0.1707
  249MOL0     H33601   4.680   5.473   5.790 -0.9052  0.5867  1.3373
  249MOL0     H33602   4.598   5.711   5.807 -2.2475 -0.3220 -0.1757
  249MOL0     H33603   4.546   5.901   5.407 -0.2322  0.9041 -0.1528
  249MOL0     H33604   4.690   5.886   5.495  0.3693  0.4274 -1.3404
  249MOL0     H33605   4.643   6.141   5.455 -1.2765  3.2932 -0.3436
  249MOL0     H33606   4.642   6.104   5.619  1.3374 -1.5441 -0.8732
  249MOL0     H33607   4.438   6.234   5.565 -0.4332 -0.9710  3.2237
  249MOL0     H33608   4.382   6.075   5.613  0.9877 -0.6709  0.5647
  249MOL0     H33609   4.398   6.159   5.324 -0.8546  0.8411 -0.3104
  249MOL0     H33610   4.351   5.993   5.370 -1.0719 -0.0761 -1.1860
  249MOL0     H33611   3.998   6.179   5.490 -0.4928 -1.9510  1.3051
  249MOL0     H33612   4.458   5.691   5.417  1.3545  3.2665  1.4087
  249MOL0     H33613   4.537   5.406   5.294 -1.1460  1.0153 -0.0074
  249MOL0     H33614   4.405   5.350   5.401  0.1508 -1.0450 -0.1952
  249MOL0     H33615   4.401   5.500   5.310 -2.6735  0.2098  2.9306
  250MOL0     O33616   4.251   8.125   7.565 -0.0497  0.0616  0.0057
  250MOL0     C33617   4.256   8.020   7.495  0.0479  0.4502  1.1970
  250MOL0     O33618   4.304   8.011   7.364  0.9394  0.3666 -0.7734
  250MOL0     C33619   4.360   8.117   7.300  0.1735  0.0388 -1.7751
  250MOL0     C33620   4.367   8.250   7.337 -0.5395 -0.1755 -0.5927
  250MOL0     C33621   4.430   8.343   7.251  0.3643 -0.3620  0.5949
  250MOL0     C33622   4.477   8.300   7.132 -0.4796  0.2852  0.3719
  250MOL0     O33623   4.534   8.399   7.047 -0.9273 -0.2887 -0.6293
  250MOL0     C33624   4.595   8.378   6.921 -0.2944  0.1098  0.0960
  250MOL0     C33625   4.636   8.508   6.867  0.3065  0.0898  0.2633
  250MOL0     C33626   4.682   8.513   6.723 -0.0597  0.7054  1.1402
  250MOL0     C33627   4.560   8.504   6.630  0.6465 -1.1509  0.0438
  250MOL0     C33628   4.585   8.527   6.479 -0.3793 -0.3759  0.1328
  250MOL0     C33629   4.554   8.667   6.431 -0.2931  1.2776 -0.2303
  250MOL0     C33630   4.655   8.768   6.480 -0.5887  0.4475 -0.4260
  250MOL0     C33631   4.623   8.916   6.438  0.2242  0.7340  0.5204
  250MOL0     N33632   4.609   8.913   6.292 -0.2926 -0.6374 -1.1018
  250MOL0     C33633   4.497   8.953   6.222 -1.0828 -0.7423 -0.5026
  250MOL0     C33634   4.540   8.987   6.101 -0.4812 -1.3330  0.8692
  250MOL0     C33635   4.435   9.057   6.006 -0.1288  0.9215 -0.8888
  250MOL0     C33636   4.447   9.207   6.019 -0.2103 -0.1808 -0.3022
  250MOL0     C33637   4.325   9.285   5.956 -1.4966 -0.6066  0.2629
  250MOL0     C33638   4.197   9.268   6.040  0.0112 -0.1111  0.7440
  250MOL0     O33639   4.208   9.320   6.169 -0.1874  0.3207  0.8016
  250MOL0     C33640   4.084   9.355   6.228 -0.7098  0.6053 -0.2190
  250MOL0     C33641   4.080   9.466   6.312  0.9542 -0.8888 -0.1479
  250MOL0     C33642   3.967   9.493   6.385  0.4926 -0.1992 -0.5225
  250MOL0     C33643   3.854   9.418   6.381 -0.4537 -0.9848 -0.6467
  250MOL0     C33644   3.734   9.459   6.457  0.2009  0.0927 -0.0426
  250MOL0     O33645   3.620   9.378   6.446 -0.5367 -0.3976 -0.6033
  250MOL0     C33646   3.546   9.350   6.555 -0.6001 -0.1206  1.6085
  250MOL0     C33647   3.422   9.303   6.526  1.0801  0.0986 -0.1155
  250MOL0     C33648   3.347   9.255   6.631  0.5032  0.4495  0.7180
  250MOL0     C33649   3.399   9.250   6.763 -0.2681  1.3258  0.1614
  250MOL0     O33650   3.318   9.215   6.870 -0.1601  0.4504  0.1908
  250MOL0     C33651   3.358   9.094   6.939  0.4572 -0.7256 -0.6296
  250MOL0     C33652   3.393   9.140   7.076  0.5010 -0.1570  0.5060
  250MOL0     C33653   3.442   9.023   7.162 -0.7817 -0.4066  0.4396
  250MOL0     C33654   3.347   8.917   7.213  0.2231  0.0216  0.1987
  250MOL0     C33655   3.430   8.854   7.324 -0.1708 -0.0590 -0.1484
  250MOL0     C33656   3.353   8.727   7.370  0.9416  0.9190  0.0827
  250MOL0     C33657   3.208   8.755   7.426  0.6361  0.4099  0.2369
  250MOL0     C33658   3.146   8.634   7.505 -0.1485 -0.5107 -0.0805
  250MOL0    Cl33659   2.981   8.677   7.532 -0.0258  0.5780 -0.5773
  250MOL0     C33660   3.534   9.287   6.782 -0.3195 -0.0765  0.8247
  250MOL0     C33661   3.608   9.344   6.682 -0.5195  0.0949 -0.3947
  250MOL0     O33662   3.749   9.548   6.535 -0.4307  0.6901  0.5122
  250MOL0     C33663   3.850   9.311   6.296 -0.4888 -0.6811  0.4473
  250MOL0     C33664   3.972   9.278   6.228  0.4791 -0.2113  0.4265
  250MOL0     N33665   4.673   8.949   6.084  0.3372  0.8472  0.0628
  250MOL0     N33666   4.714   8.912   6.199  0.5777  0.0160  1.2385
  250MOL0     C33667   4.477   8.161   7.091  0.4394  0.0659 -0.1473
  250MOL0     C33668   4.411   8.075   7.174  0.5225  0.3268 -0.1295
  250MOL0     C33669   4.210   7.895   7.571  0.3884 -1.4225  0.3030
  250MOL0     C33670   4.148   7.910   7.703 -0.4809  0.3443  0.5725
  250MOL0     C33671   4.073   7.804   7.756  0.8379  0.5370 -0.7248
  250MOL0     C33672   4.058   7.686   7.690 -0.1618 -0.8348  0.7686
  250MOL0     O33673   4.004   7.581   7.761  0.1374  0.9471 -0.2899
  250MOL0     C33674   4.081   7.461   7.760 -0.3731 -0.4286 -0.4578
  250MOL0     C33675   4.041   7.343   7.849 -0.3829 -0.3495  0.0580
  250MOL0     C33676   4.063   7.376   7.996  0.2151 -0.8979 -0.2743
  250MOL0     C33677   4.036   7.248   8.066  0.4744  1.0086  0.0642
  250MOL0     C33678   3.903   7.198   8.057  0.0456 -0.0159 -0.5418
  250MOL0     C33679   3.785   7.178   8.047  0.4592 -0.5343 -0.5857
  250MOL0     C33680   4.105   7.676   7.561  0.4542 -0.6649  0.2645
  250MOL0     C33681   4.196   7.772   7.510  0.1436  0.4649 -0.1333
  250MOL0     C33682   4.271   7.720   7.382  0.0192  0.6249 -0.1545
  250MOL0     H33683   4.320   8.305   7.418 -2.0816 -0.8034 -1.0192
  250MOL0     H33684   4.449   8.440   7.296 -0.5060 -0.6306  1.5798
  250MOL0     H33685   4.684   8.314   6.923 -0.2125  0.2416  0.9816
  250MOL0     H33686   4.525   8.340   6.845 -2.8204  0.7249  2.0003
  250MOL0     H33687   4.722   8.544   6.926 -0.3750 -0.4388  1.6161
  250MOL0     H33688   4.550   8.575   6.882 -0.6194 -1.2583  1.1680
  250MOL0     H33689   4.742   8.422   6.711 -2.5227 -1.0090  0.9704
  250MOL0     H33690   4.736   8.605   6.699 -0.8706  1.1321  0.9269
  250MOL0     H33691   4.517   8.405   6.647  1.4639 -1.3284  1.1767
  250MOL0     H33692   4.483   8.577   6.656 -1.2185 -3.3916  1.1195
  250MOL0     H33693   4.689   8.500   6.457  0.2749  0.3192  2.1889
  250MOL0     H33694   4.519   8.477   6.408 -0.1321  2.6024 -2.4156
  250MOL0     H33695   4.565   8.662   6.322  1.2560 -0.9217 -0.0350
  250MOL0     H33696   4.454   8.687   6.470 -0.3924  0.8094 -0.2420
  250MOL0     H33697   4.747   8.724   6.440  0.1746 -0.6779  2.3444
  250MOL0     H33698   4.666   8.763   6.588  2.0123 -2.6145 -0.6966
  250MOL0     H33699   4.527   8.948   6.480  1.1620  3.6778  0.5875
  250MOL0     H33700   4.697   8.987   6.475  2.8041 -1.6680  0.3645
  250MOL0     H33701   4.399   8.971   6.265 -0.1696  1.8099  0.7141
  250MOL0     H33702   4.454   9.029   5.902  0.9781  1.3000 -0.7981
  250MOL0     H33703   4.330   9.034   6.028  0.0443  0.4144 -0.5790
  250MOL0     H33704   4.466   9.232   6.124 -0.8066 -0.6969 -0.0678
  250MOL0     H33705   4.532   9.225   5.954 -0.2976 -2.6099 -1.1647
  250MOL0     H33706   4.313   9.268   5.849  1.0518  0.4005 -0.2555
  250MOL0     H33707   4.360   9.388   5.962  0.4913 -1.2273 -0.0160
  250MOL0     H33708   4.170   9.163   6.048  4.5697 -1.6801 -1.4445
  250MOL0     H33709   4.121   9.328   5.987 -0.5063 -0.7097  0.7945
  250MOL0     H33710   4.168   9.529   6.321  0.5927 -0.7580  4.4683
  250MOL0     H33711   3.973   9.587   6.439  2.1021  0.7447 -2.2276
  250MOL0     H33712   3.391   9.286   6.423  1.9980 -0.5652 -0.2935
  250MOL0     H33713   3.247   9.219   6.607  0.3287  2.3809 -1.8041
  250MOL0     H33714   3.271   9.029   6.954 -0.2798  0.7142  1.8405
  250MOL0     H33715   3.436   9.039   6.885  1.1527  0.6992 -1.1278
  250MOL0     H33716   3.460   9.226   7.073 -3.1744  2.8934 -1.1921
  250MOL0     H33717   3.305   9.182   7.123  1.0084  2.1924 -0.5186
  250MOL0     H33718   3.520   8.972   7.104  0.3723  0.0318  1.5613
  250MOL0     H33719   3.497   9.063   7.248 -1.7104 -2.5463  2.1072
  250MOL0     H33720   3.306   8.852   7.136  0.8692  0.1025 -0.2238
  250MOL0     H33721   3.268   8.979   7.256  2.5880  3.3092  0.1595
  250MOL0     H33722   3.449   8.930   7.401  3.0671  2.2810 -2.9259
  250MOL0     H33723   3.525   8.825   7.279  0.9337  1.2112  1.2331
  250MOL0     H33724   3.350   8.662   7.282  1.6569 -0.3237  0.9450
  250MOL0     H33725   3.409   8.675   7.448  0.1371 -0.3546 -0.1537
  250MOL0     H33726   3.144   8.789   7.345  2.3009  2.6653 -0.2272
  250MOL0     H33727   3.228   8.836   7.497 -1.1939  1.8036 -0.7735
  250MOL0     H33728   3.150   8.540   7.449 -0.2637 -0.9119  0.5856
  250MOL0     H33729   3.195   8.606   7.598  0.1915 -2.6323 -0.8337
  250MOL0     H33730   3.561   9.256   6.882  0.1591 -0.5890  0.5459
  250MOL0     H33731   3.712   9.367   6.705 -1.2228  0.3069  3.2286
  250MOL0     H33732   3.760   9.254   6.278 -0.6588  0.3998 -2.8176
  250MOL0     H33733   3.974   9.186   6.172  1.4548 -1.1727  1.9682
  250MOL0     H33734   4.520   8.126   6.998  0.0469  0.3439 -0.4394
  250MOL0     H33735   4.398   7.970   7.150  2.7292 -0.1744  0.5604
  250MOL0     H33736   4.162   8.003   7.758  1.1502  0.2635  0.3431
  250MOL0     H33737   4.028   7.811   7.855  1.8445 -1.0928 -0.1110
  250MOL0     H33738   4.183   7.497   7.777 -0.1189 -1.5060  0.3892
  250MOL0     H33739   4.097   7.412   7.663  4.6633 -2.0174  0.8314
  250MOL0     H33740   4.070   7.240   7.826  1.9401  0.7934 -2.7538
  250MOL0     H33741   3.933   7.346   7.832 -0.3607 -1.0700 -0.2470
  250MOL0     H33742   3.984   7.443   8.029 -0.1925 -1.9167  0.8697
  250MOL0     H33743   4.162   7.423   8.009  0.0376  0.7490 -3.6855
  250MOL0     H33744   4.108   7.179   8.021  1.8579  3.1540 -1.1827
  250MOL0     H33745   4.053   7.268   8.172  0.9933  1.7473 -0.1454
  250MOL0     H33746   3.680   7.161   8.055  0.7176 -2.2182 -0.4329
  250MOL0     H33747   4.082   7.582   7.512 -1.0977  0.2213 -0.8017
  250MOL0     H33748   4.365   7.762   7.345 -0.3674 -0.6817 -2.8011
  250MOL0     H33749   4.302   7.616   7.396  0.4350  0.5667 -1.4300
  250MOL0     H33750   4.194   7.702   7.307 -1.7077 -3.6082  2.2867
  251MOL0     O33751   8.569   7.894   0.309  0.4171  0.0289 -0.0949
  251MOL0     C33752   8.622   7.858   0.414 -0.1221 -1.2498  0.4209
  251MOL0     O33753   8.720   7.764   0.420 -0.5403  0.0011 -0.4050
  251MOL0     C33754   8.798   7.742   0.313 -0.1121 -0.2157 -0.0657
  251MOL0     C33755   8.932   7.740   0.340 -0.0794 -0.0316 -0.3555
  251MOL0     C33756   9.026   7.703   0.249  1.1096  0.0158  0.9097
  251MOL0     C33757   8.979   7.670   0.118 -0.5318  0.8354 -0.2438
  251MOL0     O33758   9.052   7.674  -0.001 -0.0903 -0.5568  0.6854
  251MOL0     C33759   9.194   7.692  -0.002  0.7121  0.6115  0.0120
  251MOL0     C33760   9.263   7.618  -0.113  0.4891  1.4049  0.5068
  251MOL0     C33761   9.232   7.696  -0.247  0.1284  0.1428 -0.0155
  251MOL0     C33762   9.315   7.673  -0.367  0.5384 -0.2609 -0.2266
  251MOL0     C33763   9.255   7.701  -0.501 -0.6097 -0.0814  0.6347
  251MOL0     C33764   9.377   7.725  -0.598 -0.1604  1.2023 -0.0576
  251MOL0     C33765   9.306   7.734  -0.736  0.7523  0.2837 -0.2384
  251MOL0     C33766   9.409   7.753  -0.850 -0.4205  1.4198 -1.1584
  251MOL0     N33767   9.340   7.737  -0.977 -0.4747 -0.3264  1.4683
  251MOL0     C33768   9.310   7.614  -1.041  0.2016  1.6371 -0.4931
  251MOL0     C33769   9.275   7.654  -1.165 -0.0538  0.2165  0.0736
  251MOL0     C33770   9.229   7.555  -1.263 -0.0511 -0.2328  0.2965
  251MOL0     C33771   9.121   7.471  -1.197  0.0295 -0.2589 -0.6358
  251MOL0     C33772   9.029   7.393  -1.296 -0.0767 -0.5454 -0.3846
  251MOL0     C33773   8.938   7.279  -1.236  0.1597  0.1149  0.2596
  251MOL0     O33774   8.845   7.349  -1.156 -0.1732  0.1306  0.6425
  251MOL0     C33775   8.719   7.301  -1.134  0.8044 -0.4255 -0.8936
  251MOL0     C33776   8.665   7.185  -1.186 -0.6769  1.2651 -1.2083
  251MOL0     C33777   8.546   7.121  -1.155  0.2050  0.4444 -0.3462
  251MOL0     C33778   8.462   7.177  -1.055 -0.7300  0.3200 -0.8458
  251MOL0     C33779   8.342   7.110  -1.009  0.1477  0.1513  0.5214
  251MOL0     O33780   8.274   7.159  -0.906  0.4157 -0.0007 -0.0323
  251MOL0     C33781   8.198   7.079  -0.819  0.3485  0.2753 -0.4962
  251MOL0     C33782   8.072   7.133  -0.784 -1.3213 -0.7340 -0.2225
  251MOL0     C33783   8.000   7.074  -0.681 -1.1354 -0.3059  0.5450
  251MOL0     C33784   8.048   6.955  -0.629 -0.8225 -0.4477 -1.5315
  251MOL0     O33785   7.968   6.911  -0.524 -0.2601 -0.4130  0.3646
  251MOL0     C33786   7.980   6.771  -0.479 -0.8039  0.9466  0.4191
  251MOL0     C33787   7.857   6.711  -0.412 -0.0330 -0.3364 -0.3810
  251MOL0     C33788   7.741   6.668  -0.504 -0.4898 -0.5866  0.4927
  251MOL0     C33789   7.623   6.617  -0.429 -0.2094  0.0830 -0.2058
  251MOL0     C33790   7.660   6.495  -0.344  0.7080 -0.3878 -0.3548
  251MOL0     C33791   7.552   6.383  -0.357 -0.3009  0.8435  0.0609
  251MOL0     C33792   7.433   6.406  -0.264 -0.0289  0.7603  0.4253
  251MOL0     C33793   7.346   6.284  -0.263  0.0334  0.4096 -0.2947
  251MOL0    Cl33794   7.409   6.157  -0.167 -0.4477  0.0103 -0.4524
  251MOL0     C33795   8.167   6.888  -0.677  0.2852  0.0529 -0.4950
  251MOL0     C33796   8.238   6.955  -0.769 -0.7930 -1.0529  0.7105
  251MOL0     O33797   8.296   7.024  -1.080  0.3292  0.2614  0.6789
  251MOL0     C33798   8.509   7.301  -0.997  0.4702  0.1712  0.1342
  251MOL0     C33799   8.635   7.367  -1.039  0.4573 -1.5140  0.0773
  251MOL0     N33800   9.270   7.791  -1.175  0.3761 -0.5837  0.4081
  251MOL0     N33801   9.306   7.836  -1.063  0.9224  0.4666 -0.5605
  251MOL0     C33802   8.846   7.652   0.093 -0.6734 -0.5044  0.2387
  251MOL0     C33803   8.748   7.678   0.196  0.5579  0.3444 -0.4698
  251MOL0     C33804   8.567   7.902   0.546  0.1100  0.2369  0.5518
  251MOL0     C33805   8.654   7.877   0.655  0.7476  0.1744  0.5154
  251MOL0     C33806   8.611   7.905   0.783  0.6290 -0.0953  0.0520
  251MOL0     C33807   8.488   7.967   0.812  0.1348 -0.1279  0.0251
  251MOL0     O33808   8.465   7.997   0.941 -0.2996 -0.1498  1.0568
  251MOL0     C33809   8.355   7.913   0.994  0.6901  0.1487  0.2507
  251MOL0     C33810   8.400   7.788   1.070 -0.2653  1.0865  0.2356
  251MOL0     C33811   8.284   7.710   1.116  0.1010  0.0646 -0.2352
  251MOL0     C33812   8.285   7.719   1.263  0.3760  0.7236 -0.1553
  251MOL0     C33813   8.171   7.642   1.344 -0.6181 -0.6144 -0.5571
  251MOL0     C33814   8.085   7.582   1.391 -0.0316 -0.7970 -0.3884
  251MOL0     C33815   8.404   7.997   0.703  0.0164  0.1621 -0.0631
  251MOL0     C33816   8.448   7.975   0.568  0.1878  0.1585 -0.0349
  251MOL0     C33817   8.336   8.003   0.461 -0.2029 -0.0622 -0.8146
  251MOL0     H33818   8.963   7.787   0.433  0.6384 -0.5071 -0.3508
  251MOL0     H33819   9.132   7.700   0.272  1.5058  2.5961 -0.1829
  251MOL0     H33820   9.215   7.799  -0.001  3.6389  0.1276  1.3090
  251MOL0     H33821   9.237   7.658   0.093  0.4592  0.1537 -0.0344
  251MOL0     H33822   9.225   7.516  -0.113 -1.7974  2.1805  1.2414
  251MOL0     H33823   9.371   7.614  -0.098  0.5070  1.5062  0.4075
  251MOL0     H33824   9.238   7.805  -0.234  0.3344  0.2098 -0.6487
  251MOL0     H33825   9.129   7.681  -0.280 -0.2122  1.8577  0.1788
  251MOL0     H33826   9.411   7.724  -0.368  0.1337  0.7263 -4.1241
  251MOL0     H33827   9.347   7.569  -0.357  1.5141 -0.0047 -0.5660
  251MOL0     H33828   9.194   7.621  -0.543  2.7979 -1.3248 -2.6130
  251MOL0     H33829   9.217   7.804  -0.507  4.4093  2.1232  1.2058
  251MOL0     H33830   9.440   7.813  -0.581 -0.2346  1.1674  0.4138
  251MOL0     H33831   9.457   7.651  -0.599 -0.8845  0.3993  0.0457
  251MOL0     H33832   9.230   7.811  -0.748 -2.1495 -2.5175 -1.2916
  251MOL0     H33833   9.253   7.640  -0.755 -0.5067  0.6626  1.2498
  251MOL0     H33834   9.461   7.846  -0.826  0.7950  0.1396  1.7175
  251MOL0     H33835   9.477   7.667  -0.850 -0.6775  1.1368 -3.7453
  251MOL0     H33836   9.315   7.513  -1.002  0.5763  0.8151 -2.5859
  251MOL0     H33837   9.188   7.608  -1.349  0.0280 -0.9277 -0.1761
  251MOL0     H33838   9.315   7.494  -1.292 -0.9339 -0.8467 -1.1312
  251MOL0     H33839   9.169   7.386  -1.148 -0.6404 -0.1352  0.2596
  251MOL0     H33840   9.053   7.522  -1.127  1.5729 -1.1413  1.6358
  251MOL0     H33841   9.100   7.346  -1.366  1.0267 -2.8381  2.1109
  251MOL0     H33842   8.969   7.463  -1.355 -0.2295 -1.0405 -0.8348
  251MOL0     H33843   8.993   7.199  -1.186  1.7462 -1.1778 -3.2287
  251MOL0     H33844   8.901   7.228  -1.326  0.6325 -1.8584  1.1399
  251MOL0     H33845   8.733   7.124  -1.244  4.1287  4.1369  0.8472
  251MOL0     H33846   8.509   7.034  -1.209 -0.2851  1.5573 -1.8801
  251MOL0     H33847   8.055   7.229  -0.831  1.3930 -0.2165 -0.3004
  251MOL0     H33848   7.910   7.125  -0.647 -0.1983  2.5224 -0.8962
  251MOL0     H33849   7.998   6.714  -0.571 -1.3327  1.4148  0.0136
  251MOL0     H33850   8.063   6.773  -0.409  0.1178  1.9188 -0.6732
  251MOL0     H33851   7.878   6.623  -0.350  1.7593  0.7358  0.6204
  251MOL0     H33852   7.823   6.787  -0.342 -1.9422 -0.8549 -0.6912
  251MOL0     H33853   7.698   6.754  -0.555  0.2829 -1.1676 -1.1887
  251MOL0     H33854   7.784   6.594  -0.571  0.7915 -0.8672  1.5980
  251MOL0     H33855   7.534   6.598  -0.489 -1.0680  1.5247  0.5564
  251MOL0     H33856   7.585   6.693  -0.359 -0.6829 -2.8751  3.0228
  251MOL0     H33857   7.660   6.533  -0.241 -3.0180  1.3341 -0.8286
  251MOL0     H33858   7.762   6.455  -0.357  1.6150  1.3866  0.8438
  251MOL0     H33859   7.505   6.393  -0.455  2.1645  0.5087 -1.2422
  251MOL0     H33860   7.588   6.283  -0.332 -0.5646  0.1306 -2.2018
  251MOL0     H33861   7.364   6.481  -0.304 -2.9509 -1.2000  1.4197
  251MOL0     H33862   7.454   6.442  -0.163 -1.0093  3.0819 -0.1212
  251MOL0     H33863   7.247   6.296  -0.218  1.0247  0.4069  2.0168
  251MOL0     H33864   7.339   6.232  -0.359 -0.8725 -2.4632  1.2136
  251MOL0     H33865   8.205   6.791  -0.647 -0.2930 -0.1299 -0.3396
  251MOL0     H33866   8.333   6.913  -0.800 -1.6557 -1.8976 -0.9196
  251MOL0     H33867   8.459   7.353  -0.917  0.7182  1.0055 -0.2373
  251MOL0     H33868   8.663   7.462  -0.995 -0.2162 -1.7011  0.9198
  251MOL0     H33869   8.814   7.637  -0.010 -1.7637  0.4126  0.4359
  251MOL0     H33870   8.642   7.668   0.179  0.2837 -1.2833  1.7606
  251MOL0     H33871   8.754   7.841   0.636  1.9573  3.5128 -0.1731
  251MOL0     H33872   8.674   7.896   0.871  0.3878  0.6895  0.3105
  251MOL0     H33873   8.282   7.895   0.915  2.0698  3.1247 -1.9153
  251MOL0     H33874   8.312   7.981   1.068  1.7320 -0.5380  1.5296
  251MOL0     H33875   8.471   7.816   1.149 -0.1161 -2.7099  1.6677
  251MOL0     H33876   8.454   7.727   0.997 -0.0340 -0.5772  1.7342
  251MOL0     H33877   8.297   7.606   1.084 -2.4535 -0.8621  1.4145
  251MOL0     H33878   8.188   7.740   1.073 -0.8584 -4.5081 -1.8920
  251MOL0     H33879   8.376   7.667   1.294  1.3765  1.0788 -2.2644
  251MOL0     H33880   8.288   7.825   1.291  1.5812  0.3823  1.0692
  251MOL0     H33881   8.003   7.544   1.449  0.0056 -0.6719 -0.2546
  251MOL0     H33882   8.299   8.016   0.721 -1.3554 -4.6972 -1.5193
  251MOL0     H33883   8.239   7.961   0.488 -0.5259  0.2911 -1.4363
  251MOL0     H33884   8.330   8.112   0.466  1.7762  0.0757  3.0790
  251MOL0     H33885   8.369   7.980   0.360 -0.2956  1.4251 -1.1919
  252MOL0     O33886  11.243   2.457  11.382  0.8851 -0.2752  0.4402
  252MOL0     C33887  11.139   2.529  11.374  0.5901  0.3671  0.4668
  252MOL0     O33888  11.139   2.663  11.334 -0.9111 -0.4102  0.3584
  252MOL0     C33889  11.258   2.717  11.275 -0.4160  0.4534 -0.2691
  252MOL0     C33890  11.346   2.646  11.192  0.4413  0.4257  1.7551
  252MOL0     C33891  11.440   2.717  11.130 -0.0038  0.3832  0.4400
  252MOL0     C33892  11.475   2.852  11.164  0.2115  0.6628  0.1644
  252MOL0     O33893  11.590   2.917  11.113  0.6761  0.0977  0.3730
  252MOL0     C33894  11.718   2.874  11.164 -0.4291 -0.6394  0.5085
  252MOL0     C33895  11.783   2.983  11.255  0.9380  0.2088  0.2867
  252MOL0     C33896  11.832   3.109  11.197 -0.1075 -0.1927 -0.0858
  252MOL0     C33897  11.889   3.208  11.295 -1.4093  0.0338  0.6791
  252MOL0     C33898  11.949   3.325  11.223  0.0875  0.9617 -0.0567
  252MOL0     C33899  11.940   3.457  11.298  0.2130  0.4639 -0.0719
  252MOL0     C33900  11.975   3.566  11.193 -0.1166  0.3495 -0.4315
  252MOL0     C33901  11.912   3.699  11.258 -0.4636  0.0856 -0.0594
  252MOL0     N33902  11.958   3.813  11.176  0.0087  0.2903 -0.9234
  252MOL0     C33903  11.879   3.906  11.127 -1.0776 -0.4174  0.0937
  252MOL0     C33904  11.958   4.009  11.086  1.6596 -1.1512 -0.1448
  252MOL0     C33905  11.894   4.138  11.025 -0.7034  1.0037  0.8189
  252MOL0     C33906  11.743   4.163  11.054  0.6313  0.0438  1.2119
  252MOL0     C33907  11.699   4.193  11.198  0.0452  0.1671 -0.5203
  252MOL0     C33908  11.561   4.251  11.200  0.0697  0.5157  0.4770
  252MOL0     O33909  11.528   4.325  11.319 -1.6564 -0.8696 -0.1349
  252MOL0     C33910  11.492   4.270  11.435  0.3004  0.7292 -0.3099
  252MOL0     C33911  11.489   4.128  11.447 -0.9766 -0.1074 -0.5925
  252MOL0     C33912  11.465   4.071  11.567 -0.0023 -0.4566 -0.0040
  252MOL0     C33913  11.440   4.141  11.681  0.4654  0.0030  1.1469
  252MOL0     C33914  11.412   4.077  11.814 -0.8636 -0.6071 -0.2649
  252MOL0     O33915  11.361   3.953  11.803 -0.3292  0.4123 -1.0126
  252MOL0     C33916  11.332   3.870  11.916 -0.7671  1.7715  0.1326
  252MOL0     C33917  11.371   3.733  11.912 -0.0041 -0.5884 -0.3957
  252MOL0     C33918  11.333   3.636  12.011 -0.0435 -0.2797  0.2908
  252MOL0     C33919  11.252   3.672  12.110  0.4799 -0.2676 -0.0058
  252MOL0     O33920  11.223   3.589  12.215  0.1906  0.4286  0.1439
  252MOL0     C33921  11.082   3.571  12.238 -0.2182  0.3078  0.5511
  252MOL0     C33922  11.057   3.426  12.183 -0.5039  0.4541  0.2539
  252MOL0     C33923  10.906   3.393  12.172 -0.2809 -0.3471 -0.2955
  252MOL0     C33924  10.874   3.266  12.104 -0.7580  0.2441  0.6247
  252MOL0     C33925  10.718   3.248  12.101  0.2012  0.6259  0.0314
  252MOL0     C33926  10.670   3.106  12.050 -0.6501 -0.2077 -0.7497
  252MOL0     C33927  10.713   3.070  11.910 -0.3086  0.0636 -0.0327
  252MOL0     C33928  10.624   2.956  11.855  0.6289 -0.4609 -1.1826
  252MOL0    Cl33929  10.683   2.910  11.683  0.1315  0.0512 -0.5848
  252MOL0     C33930  11.220   3.808  12.117 -0.0005 -1.0431 -0.2570
  252MOL0     C33931  11.263   3.907  12.026  1.8229 -0.4255  0.5048
  252MOL0     O33932  11.427   4.145  11.918  0.2674 -0.4374 -0.2840
  252MOL0     C33933  11.443   4.283  11.667  0.3823 -0.0064 -0.3501
  252MOL0     C33934  11.467   4.342  11.547  0.5850  0.3737  0.3233
  252MOL0     N33935  12.084   3.975  11.093 -0.4015 -0.0301 -0.8379
  252MOL0     N33936  12.083   3.856  11.150 -0.0837 -0.8625 -0.7366
  252MOL0     C33937  11.393   2.914  11.255 -0.6405 -0.8324 -0.0250
  252MOL0     C33938  11.280   2.849  11.297  0.6118 -0.2673  0.9032
  252MOL0     C33939  11.005   2.480  11.422  0.6426  1.0490 -0.2121
  252MOL0     C33940  10.919   2.566  11.507 -0.5545  0.5887 -0.9993
  252MOL0     C33941  10.791   2.529  11.538 -0.4150  0.0207 -0.3038
  252MOL0     C33942  10.736   2.411  11.491 -0.5740 -0.4887  0.2162
  252MOL0     O33943  10.610   2.393  11.542 -0.9072  0.3014  1.0855
  252MOL0     C33944  10.534   2.280  11.481 -0.6790 -0.8915 -0.6005
  252MOL0     C33945  10.568   2.148  11.552  0.6573  0.4526  0.3403
  252MOL0     C33946  10.491   2.016  11.500  0.0525 -0.0687 -0.1911
  252MOL0     C33947  10.469   1.907  11.606  0.2662  0.4096  0.1785
  252MOL0     C33948  10.595   1.837  11.633 -0.2744  0.4146 -0.5231
  252MOL0     C33949  10.694   1.763  11.645 -0.1917 -0.4023 -0.6576
  252MOL0     C33950  10.800   2.333  11.403 -0.4779 -0.8817  0.5345
  252MOL0     C33951  10.937   2.362  11.371 -0.5384 -0.7032 -0.4681
  252MOL0     C33952  11.000   2.267  11.272 -0.1117  0.9095 -0.9746
  252MOL0     H33953  11.343   2.539  11.173  1.7126  0.6568  0.0156
  252MOL0     H33954  11.520   2.686  11.063  0.2439 -0.3663  1.0734
  252MOL0     H33955  11.718   2.773  11.206 -1.2011 -1.5478 -1.5463
  252MOL0     H33956  11.779   2.859  11.074  1.6250 -1.0971  1.9021
  252MOL0     H33957  11.875   2.948  11.303 -0.1501  1.7614  3.8413
  252MOL0     H33958  11.700   3.014  11.320  0.5736  3.2021 -1.4649
  252MOL0     H33959  11.748   3.153  11.143  0.0573 -0.1435 -0.3042
  252MOL0     H33960  11.908   3.084  11.122 -1.4714 -0.1841 -1.5311
  252MOL0     H33961  11.818   3.235  11.374 -0.7906 -2.4270  2.1908
  252MOL0     H33962  11.974   3.161  11.345 -0.6725  0.9144  0.2748
  252MOL0     H33963  12.055   3.304  11.209 -0.6658 -3.7812 -0.2087
  252MOL0     H33964  11.908   3.326  11.122 -0.4787 -1.9853  0.0583
  252MOL0     H33965  11.843   3.476  11.345  0.3424  2.0623 -0.3887
  252MOL0     H33966  12.006   3.444  11.385 -2.6993  0.7091  2.3674
  252MOL0     H33967  11.931   3.547  11.095  0.6496 -0.4636 -0.6194
  252MOL0     H33968  12.082   3.575  11.173 -0.2155  3.1719 -0.1023
  252MOL0     H33969  11.803   3.692  11.260 -0.3784 -1.4252  0.9800
  252MOL0     H33970  11.950   3.722  11.357 -1.3466  3.4219 -0.3824
  252MOL0     H33971  11.771   3.898  11.124 -0.9602 -2.2821 -1.7705
  252MOL0     H33972  11.946   4.228  11.059  0.4488  0.1509  1.3866
  252MOL0     H33973  11.903   4.135  10.916 -2.2782  0.9526  0.6691
  252MOL0     H33974  11.721   4.256  11.001 -2.1894 -1.5065 -0.6084
  252MOL0     H33975  11.684   4.085  11.006 -1.5377  0.3623  3.1617
  252MOL0     H33976  11.771   4.270  11.226  0.1562 -0.2374  0.3209
  252MOL0     H33977  11.719   4.111  11.267  1.8145  2.5715  2.0571
  252MOL0     H33978  11.479   4.180  11.187 -0.2589  0.9299  0.2812
  252MOL0     H33979  11.555   4.325  11.120  2.9818  1.3485  0.8829
  252MOL0     H33980  11.508   4.058  11.366 -2.5982 -1.1156 -0.1393
  252MOL0     H33981  11.467   3.963  11.568  1.0959 -0.4730 -1.0376
  252MOL0     H33982  11.443   3.712  11.834 -0.1664  1.1519 -1.0654
  252MOL0     H33983  11.373   3.536  12.001  1.4131  0.2887  0.2463
  252MOL0     H33984  11.055   3.587  12.343 -1.3780 -0.5510  0.4090
  252MOL0     H33985  11.027   3.649  12.185 -2.0350 -0.0237  1.8299
  252MOL0     H33986  11.097   3.426  12.081 -1.0686  2.2603  0.0071
  252MOL0     H33987  11.105   3.359  12.254  1.2393  0.6133 -0.7210
  252MOL0     H33988  10.868   3.391  12.275 -1.8042  0.8172 -0.7924
  252MOL0     H33989  10.844   3.471  12.128 -1.6955 -0.8657  0.6741
  252MOL0     H33990  10.922   3.178  12.148  0.7347 -0.5542 -2.3416
  252MOL0     H33991  10.917   3.275  12.003 -2.1335  1.9078  0.1329
  252MOL0     H33992  10.673   3.315  12.027 -1.7169  0.6298  1.1236
  252MOL0     H33993  10.671   3.271  12.197  1.7050  1.9417  0.4793
  252MOL0     H33994  10.693   3.025  12.121 -0.1423 -0.3411 -1.0651
  252MOL0     H33995  10.561   3.105  12.058 -0.8673  4.5172 -0.2570
  252MOL0     H33996  10.812   3.024  11.906 -0.7165 -0.8409  0.1526
  252MOL0     H33997  10.708   3.165  11.856  2.3962 -0.0180 -0.5919
  252MOL0     H33998  10.614   2.874  11.927 -1.3705  1.7982  1.3145
  252MOL0     H33999  10.522   2.989  11.832 -0.7336 -3.0684  0.5865
  252MOL0     H34000  11.164   3.839  12.205 -1.2416  1.8520 -1.9177
  252MOL0     H34001  11.237   4.012  12.025  1.0838 -0.5961 -1.0902
  252MOL0     H34002  11.424   4.353  11.748 -1.8592 -0.6134 -0.2956
  252MOL0     H34003  11.460   4.449  11.532  2.6193  0.4130 -0.7268
  252MOL0     H34004  11.411   3.012  11.298  0.9866 -0.2789 -1.8159
  252MOL0     H34005  11.220   2.909  11.364  3.2224  1.7243  1.6162
  252MOL0     H34006  10.991   2.642  11.535 -2.0333  1.1599  1.4965
  252MOL0     H34007  10.733   2.604  11.590 -3.5986 -1.4701 -1.4394
  252MOL0     H34008  10.552   2.296  11.374  1.2123 -3.1705 -0.7223
  252MOL0     H34009  10.429   2.300  11.502 -0.1956  0.3514  0.7798
  252MOL0     H34010  10.540   2.164  11.657 -0.4110  2.8090 -0.2343
  252MOL0     H34011  10.676   2.135  11.543  0.2600 -2.5337 -1.2694
  252MOL0     H34012  10.538   1.969  11.413 -0.1890  0.1557 -0.4499
  252MOL0     H34013  10.390   2.044  11.469 -0.9243 -1.5070  1.4833
  252MOL0     H34014  10.415   1.953  11.689 -4.1473 -0.2396 -2.0281
  252MOL0     H34015  10.407   1.824  11.569  0.7334 -0.3205  1.0109
  252MOL0     H34016  10.771   1.688  11.645  0.5517  0.3370 -0.0891
  252MOL0     H34017  10.749   2.252  11.351  2.0420 -1.7924 -0.6850
  252MOL0     H34018  10.992   2.165  11.311  1.0674  0.7431 -1.1399
  252MOL0     H34019  10.949   2.278  11.176  0.3010  2.7536 -1.0218
  252MOL0     H34020  11.105   2.292  11.255  0.4515 -1.5676 -1.5818
  253MOL0     O34021   9.246   5.979   5.950 -0.6011 -0.0888  0.2195
  253MOL0     C34022   9.197   5.909   5.863 -0.5912  0.1768 -0.6114
  253MOL0     O34023   9.174   5.945   5.733 -0.2481  0.4833 -0.6867
  253MOL0     C34024   9.190   6.073   5.690 -1.0636 -0.1871 -0.6586
  253MOL0     C34025   9.185   6.196   5.754 -0.3205  0.9511  0.7217
  253MOL0     C34026   9.239   6.314   5.701  0.1222  0.2314 -1.1851
  253MOL0     C34027   9.288   6.304   5.572 -0.7551  0.3617 -0.6404
  253MOL0     O34028   9.364   6.412   5.527 -0.1553 -0.5464  0.0103
  253MOL0     C34029   9.346   6.438   5.380  0.8790 -0.4630  0.6044
  253MOL0     C34030   9.328   6.597   5.354  0.2186  0.4274  0.2067
  253MOL0     C34031   9.215   6.666   5.444 -0.0908 -0.0964  0.5458
  253MOL0     C34032   9.067   6.651   5.400 -0.6542  0.0547  0.4931
  253MOL0     C34033   8.969   6.764   5.449  0.1384  0.4303  0.0406
  253MOL0     C34034   8.933   6.762   5.598  0.3731  0.5197 -0.3847
  253MOL0     C34035   8.888   6.619   5.639  0.6118  0.2111 -0.7774
  253MOL0     C34036   8.800   6.629   5.765 -0.0971  0.9490  0.0013
  253MOL0     N34037   8.802   6.512   5.859  0.8926  0.0717 -0.6517
  253MOL0     C34038   8.907   6.471   5.939  0.5175  0.3607 -0.1136
  253MOL0     C34039   8.878   6.346   5.992 -0.6098 -0.0010 -0.4037
  253MOL0     C34040   8.956   6.240   6.071 -0.8277 -0.0174  0.3676
  253MOL0     C34041   8.945   6.246   6.218  0.1561  0.4467 -0.1379
  253MOL0     C34042   9.063   6.166   6.276 -0.0113  0.0115 -0.4048
  253MOL0     C34043   9.044   6.156   6.429  0.5177  0.1864 -0.1209
  253MOL0     O34044   9.045   6.280   6.499  0.2543  0.4249  0.4432
  253MOL0     C34045   9.024   6.262   6.634  0.5912 -0.1690  0.0276
  253MOL0     C34046   8.908   6.312   6.702  1.3746 -0.0908 -0.4143
  253MOL0     C34047   8.887   6.292   6.838 -0.3881 -0.0460 -0.5233
  253MOL0     C34048   8.995   6.226   6.906  0.5447 -0.3164  0.3199
  253MOL0     C34049   8.976   6.208   7.048  1.0295  0.3120  0.8860
  253MOL0     O34050   8.860   6.266   7.103  0.3505 -0.1130  0.8813
  253MOL0     C34051   8.854   6.251   7.237 -0.5854 -0.3600  0.8457
  253MOL0     C34052   8.776   6.142   7.296  0.0722 -0.6297  0.1478
  253MOL0     C34053   8.774   6.134   7.439 -0.3602 -0.5735 -0.3263
  253MOL0     C34054   8.840   6.226   7.521  0.5814 -0.1955 -0.2282
  253MOL0     O34055   8.839   6.214   7.655  0.1893 -0.2626 -0.6027
  253MOL0     C34056   8.759   6.306   7.715  0.1064 -0.6999 -0.4483
  253MOL0     C34057   8.773   6.305   7.870  0.9496  0.1083 -0.3683
  253MOL0     C34058   8.697   6.183   7.924 -0.3693 -0.0322  0.4598
  253MOL0     C34059   8.730   6.152   8.074  0.1704  0.8015  0.3380
  253MOL0     C34060   8.641   6.031   8.129 -0.3477 -0.3103 -0.6356
  253MOL0     C34061   8.709   5.896   8.087  0.1458 -1.5729 -0.3939
  253MOL0     C34062   8.614   5.778   8.111  0.3550  1.0993 -0.2075
  253MOL0     C34063   8.632   5.720   8.248 -1.1787 -0.3979  0.0995
  253MOL0    Cl34064   8.515   5.580   8.282 -0.0587 -0.1207 -0.0131
  253MOL0     C34065   8.908   6.332   7.456 -0.6552 -0.1572 -0.6966
  253MOL0     C34066   8.911   6.350   7.316  0.8340  0.0035 -0.5265
  253MOL0     O34067   9.060   6.137   7.105  0.9454  0.6358 -0.0737
  253MOL0     C34068   9.113   6.190   6.843 -1.2642 -0.5836  0.1491
  253MOL0     C34069   9.129   6.207   6.706  0.4558  0.5935  0.0397
  253MOL0     N34070   8.746   6.318   5.950  0.1411  0.1237  0.0104
  253MOL0     N34071   8.707   6.413   5.864  0.1562  1.3726  0.1598
  253MOL0     C34072   9.287   6.185   5.493  0.0858 -0.2034  0.6451
  253MOL0     C34073   9.248   6.066   5.558 -0.2060 -0.6457  0.1413
  253MOL0     C34074   9.163   5.767   5.894 -0.4111  0.9488 -0.1701
  253MOL0     C34075   9.176   5.681   5.782  0.4702 -0.6365 -0.0301
  253MOL0     C34076   9.144   5.545   5.788 -1.1336  0.6904 -0.5284
  253MOL0     C34077   9.119   5.488   5.917 -0.1818  0.9018 -0.3067
  253MOL0     O34078   9.109   5.353   5.951  0.3147 -0.5645  0.3291
  253MOL0     C34079   9.096   5.253   5.845 -0.3867 -0.2703 -0.6109
  253MOL0     C34080   9.055   5.127   5.914 -0.2012  0.9257  0.0589
  253MOL0     C34081   9.002   5.044   5.804  1.4218  0.0650  0.4058
  253MOL0     C34082   9.100   4.973   5.710  0.5570  0.6950 -0.2234
  253MOL0     C34083   9.036   4.885   5.608 -0.4896 -0.1183 -0.6392
  253MOL0     C34084   8.984   4.806   5.540 -0.1713  0.7301 -0.0190
  253MOL0     C34085   9.105   5.566   6.029 -0.0961 -0.3444  0.3122
  253MOL0     C34086   9.117   5.706   6.013  0.9143  0.0890  0.3771
  253MOL0     C34087   9.085   5.784   6.129  0.0166  0.0663 -0.0217
  253MOL0     H34088   9.136   6.201   5.850  0.5626  0.2661  1.2264
  253MOL0     H34089   9.235   6.410   5.751 -0.8171 -0.6628  0.5661
  253MOL0     H34090   9.442   6.425   5.330  0.6423 -2.3920  0.5601
  253MOL0     H34091   9.267   6.376   5.338 -1.0008  0.9234  1.9210
  253MOL0     H34092   9.320   6.612   5.246 -1.3942  2.1653  0.5241
  253MOL0     H34093   9.416   6.654   5.383  1.1839 -0.0386 -1.5948
  253MOL0     H34094   9.239   6.772   5.455 -0.5649 -0.0584  1.2898
  253MOL0     H34095   9.216   6.620   5.544 -3.3005 -2.3005 -0.2849
  253MOL0     H34096   9.074   6.664   5.292  3.3246  1.4750  0.7426
  253MOL0     H34097   9.033   6.550   5.424  3.3961 -1.3091  1.2655
  253MOL0     H34098   9.015   6.859   5.421  0.0180 -0.4445 -3.6114
  253MOL0     H34099   8.874   6.765   5.395 -1.9356  3.1368  3.3038
  253MOL0     H34100   9.018   6.790   5.661 -1.2777 -2.6540  3.7648
  253MOL0     H34101   8.854   6.835   5.617 -0.6194 -0.7366  0.5564
  253MOL0     H34102   8.963   6.541   5.654  1.4971  1.1388 -0.2694
  253MOL0     H34103   8.827   6.575   5.560  0.3109 -1.1997  0.2170
  253MOL0     H34104   8.840   6.714   5.821  0.0947  2.0519 -1.7413
  253MOL0     H34105   8.701   6.657   5.728 -0.4480 -0.7024 -0.3819
  253MOL0     H34106   9.008   6.512   5.938  1.4264 -1.7454 -1.0055
  253MOL0     H34107   8.931   6.136   6.047  2.0657 -0.9641  1.0385
  253MOL0     H34108   9.059   6.263   6.043 -0.4411  1.4211  2.6862
  253MOL0     H34109   8.946   6.348   6.257  1.4825  0.5415 -0.3880
  253MOL0     H34110   8.852   6.195   6.245 -0.6629 -0.4797 -4.1963
  253MOL0     H34111   9.165   6.203   6.266 -0.1587  0.1075 -1.8504
  253MOL0     H34112   9.062   6.066   6.232  3.1528 -0.4233  0.2987
  253MOL0     H34113   9.116   6.085   6.470  0.7289  0.9272  0.8267
  253MOL0     H34114   8.942   6.118   6.445  1.4316 -0.9516  4.2788
  253MOL0     H34115   8.833   6.373   6.653 -0.1236 -1.0307  0.6195
  253MOL0     H34116   8.802   6.338   6.888 -1.0453  1.5226 -2.9178
  253MOL0     H34117   8.732   6.067   7.232  0.9504 -1.1767  0.1623
  253MOL0     H34118   8.723   6.050   7.485 -2.3001  2.2212  3.2333
  253MOL0     H34119   8.786   6.407   7.686 -0.2766 -0.5186 -0.1951
  253MOL0     H34120   8.654   6.297   7.684 -0.9185 -1.2695  2.8178
  253MOL0     H34121   8.876   6.309   7.907  0.7943 -1.4305  0.2891
  253MOL0     H34122   8.748   6.405   7.907  1.7636  0.5749 -1.0323
  253MOL0     H34123   8.590   6.193   7.908 -0.3174  0.0712  0.1805
  253MOL0     H34124   8.725   6.095   7.864  2.4715 -0.4446  2.1548
  253MOL0     H34125   8.706   6.242   8.131 -0.7142  0.2061  0.9329
  253MOL0     H34126   8.838   6.142   8.088  0.6853  4.1689 -0.3910
  253MOL0     H34127   8.541   6.037   8.085 -1.1985  0.0565  1.2186
  253MOL0     H34128   8.614   6.036   8.235  0.8171 -0.4818 -0.3211
  253MOL0     H34129   8.748   5.895   7.985  1.0906 -0.3191 -0.0606
  253MOL0     H34130   8.795   5.871   8.150  1.2443 -1.3758 -1.7735
  253MOL0     H34131   8.623   5.701   8.034 -2.3427 -2.2398  2.5202
  253MOL0     H34132   8.512   5.810   8.089  0.5022 -0.3121 -3.5239
  253MOL0     H34133   8.733   5.684   8.269 -1.7116 -3.5168 -1.9119
  253MOL0     H34134   8.614   5.797   8.323  0.4701 -0.8469  1.0135
  253MOL0     H34135   8.974   6.401   7.508  0.8467  0.4846 -3.2994
  253MOL0     H34136   8.974   6.427   7.273  1.4148 -2.0267 -3.6695
  253MOL0     H34137   9.195   6.142   6.896 -1.1999  0.8280  1.3844
  253MOL0     H34138   9.211   6.178   6.641 -1.4756 -0.7249 -2.0040
  253MOL0     H34139   9.335   6.168   5.397 -3.8283  1.6576 -1.8894
  253MOL0     H34140   9.273   5.972   5.508 -1.5065 -1.7710  1.5073
  253MOL0     H34141   9.210   5.717   5.686  0.7636  3.0237  1.2672
  253MOL0     H34142   9.142   5.483   5.699 -1.8394 -0.6126  0.3510
  253MOL0     H34143   9.192   5.239   5.793 -0.0003  0.2245 -0.0488
  253MOL0     H34144   9.021   5.294   5.778  0.1320  0.8655 -0.5142
  253MOL0     H34145   8.984   5.140   5.997  0.2433 -0.1531  0.6258
  253MOL0     H34146   9.144   5.086   5.962  0.4952 -0.0302 -1.9490
  253MOL0     H34147   8.947   5.105   5.732  0.5874 -0.5631  0.4921
  253MOL0     H34148   8.924   4.978   5.843 -0.2096 -0.6220 -3.5634
  253MOL0     H34149   9.152   5.054   5.658 -1.2146  2.5257  0.7255
  253MOL0     H34150   9.170   4.905   5.759 -0.0924 -1.1473 -1.7055
  253MOL0     H34151   8.940   4.726   5.483 -0.7494  2.0935 -1.5718
  253MOL0     H34152   9.074   5.529   6.126  1.0191  2.1559  1.7323
  253MOL0     H34153   9.176   5.808   6.186  2.9495  1.2586 -4.6543
  253MOL0     H34154   9.040   5.872   6.083 -1.1298 -0.4056  0.1603
  253MOL0     H34155   9.018   5.741   6.204  0.5227  0.0516  0.4351
  254MOL0     O34156   9.008   8.581   0.581  0.0426 -0.3021 -0.2541
  254MOL0     C34157   9.026   8.659   0.675  0.1128  0.4360 -0.5859
  254MOL0     O34158   8.968   8.780   0.685  0.1965 -0.4160  0.5590
  254MOL0     C34159   8.889   8.841   0.587 -0.1667 -0.4436  0.2220
  254MOL0     C34160   8.884   8.809   0.451 -0.1774 -0.1071 -0.1314
  254MOL0     C34161   8.817   8.900   0.362 -0.0773  0.7446  0.1953
  254MOL0     C34162   8.749   9.014   0.410  0.1191  1.0984  0.0839
  254MOL0     O34163   8.692   9.098   0.329  0.7135 -0.6607 -0.2581
  254MOL0     C34164   8.790   9.197   0.282 -0.1529 -0.3347  0.1768
  254MOL0     C34165   8.707   9.306   0.203  0.0963  0.4036  0.6009
  254MOL0     C34166   8.762   9.441   0.212 -1.0415 -0.2471 -0.3634
  254MOL0     C34167   8.719   9.537   0.100  0.6299  0.2536 -0.3304
  254MOL0     C34168   8.786   9.674   0.110  0.4619  0.7886  0.5115
  254MOL0     C34169   8.702   9.788   0.061  0.1720  0.8110 -0.4183
  254MOL0     C34170   8.788   9.912   0.098  0.1061  0.3958  0.4950
  254MOL0     C34171   8.735  10.036   0.027  0.9093  0.2049  0.5608
  254MOL0     N34172   8.759  10.024  -0.123  0.6066 -0.4057 -1.1583
  254MOL0     C34173   8.879  10.029  -0.196  0.1298 -0.1398  1.0395
  254MOL0     C34174   8.845   9.996  -0.327 -0.1497 -0.2087  0.0337
  254MOL0     C34175   8.937   9.991  -0.449  0.5893 -0.0266  0.1142
  254MOL0     C34176   9.011   9.864  -0.441  0.2066  0.2456  0.1702
  254MOL0     C34177   8.919   9.739  -0.425  0.1289 -0.4746  0.3584
  254MOL0     C34178   8.986   9.608  -0.475 -0.1190  0.3382  0.1444
  254MOL0     O34179   9.131   9.605  -0.458  0.8502  0.1268 -0.4387
  254MOL0     C34180   9.185   9.510  -0.537  0.5606 -0.3920 -0.5134
  254MOL0     C34181   9.284   9.562  -0.628 -0.3210 -0.8753  0.6659
  254MOL0     C34182   9.364   9.476  -0.712 -0.1287  0.1953  0.6136
  254MOL0     C34183   9.327   9.335  -0.707  0.4866 -0.7830  0.3175
  254MOL0     C34184   9.389   9.241  -0.797 -0.3937 -0.3705  0.2575
  254MOL0     O34185   9.338   9.109  -0.810 -0.0707  1.1190  0.2658
  254MOL0     C34186   9.418   9.023  -0.871  0.8964  0.3665 -0.9697
  254MOL0     C34187   9.534   8.977  -0.808  0.2360 -0.8316 -0.2222
  254MOL0     C34188   9.609   8.878  -0.873  0.5581 -0.5980 -0.0938
  254MOL0     C34189   9.560   8.809  -0.990  0.0556  0.6212 -0.3721
  254MOL0     O34190   9.621   8.708  -1.045  0.1752 -0.0893  0.3785
  254MOL0     C34191   9.670   8.598  -0.980  0.4183 -0.0228  0.0806
  254MOL0     C34192   9.721   8.486  -1.061 -0.1832  0.1594  0.1499
  254MOL0     C34193   9.696   8.343  -1.010 -0.8249  0.3800  0.6363
  254MOL0     C34194   9.750   8.228  -1.105 -0.7006 -0.2247 -0.7364
  254MOL0     C34195   9.677   8.098  -1.077  0.6373 -0.0083 -0.5542
  254MOL0     C34196   9.726   7.976  -1.137  0.0166 -0.0231  0.6216
  254MOL0     C34197   9.650   7.849  -1.075 -0.4285 -0.6848 -0.1166
  254MOL0     C34198   9.632   7.756  -1.198  0.6336  0.4340 -0.1853
  254MOL0    Cl34199   9.792   7.673  -1.241  0.0715  0.0069 -0.0450
  254MOL0     C34200   9.443   8.857  -1.043 -0.5142 -1.1054  0.6735
  254MOL0     C34201   9.375   8.970  -0.994 -0.5870 -0.5825  0.4495
  254MOL0     O34202   9.497   9.277  -0.850  0.0944  0.1828 -0.6063
  254MOL0     C34203   9.225   9.292  -0.620  0.7865  0.3521  0.1084
  254MOL0     C34204   9.170   9.375  -0.522 -0.0151 -0.0379  0.6820
  254MOL0     N34205   8.704   9.982  -0.327 -0.3451  0.4564  0.7100
  254MOL0     N34206   8.659  10.014  -0.214 -0.0894  0.3621 -0.0802
  254MOL0     C34207   8.744   9.028   0.551 -0.5618 -0.0203  0.4067
  254MOL0     C34208   8.813   8.941   0.640 -0.6957 -0.9889  0.4960
  254MOL0     C34209   9.100   8.627   0.800  0.7622  1.0420 -1.4758
  254MOL0     C34210   9.047   8.662   0.926  0.3292 -1.1896 -0.8081
  254MOL0     C34211   9.120   8.645   1.044 -0.2497  0.3740 -0.3843
  254MOL0     C34212   9.254   8.592   1.033  0.5917 -0.7640  0.0609
  254MOL0     O34213   9.346   8.564   1.132  0.8928 -0.6865  0.0630
  254MOL0     C34214   9.308   8.629   1.257 -0.4072  0.6520  0.5348
  254MOL0     C34215   9.421   8.628   1.361  0.2639 -0.0759  0.6448
  254MOL0     C34216   9.379   8.702   1.494  0.2117 -0.2519 -0.9491
  254MOL0     C34217   9.433   8.657   1.633 -0.2243 -0.7169  0.7794
  254MOL0     C34218   9.579   8.628   1.624  0.1551  0.3162 -0.3127
  254MOL0     C34219   9.697   8.610   1.617 -0.2661 -1.0059  0.7110
  254MOL0     C34220   9.303   8.553   0.908  0.6328  0.1766  0.6859
  254MOL0     C34221   9.228   8.573   0.795 -1.2156 -0.4511  1.4979
  254MOL0     C34222   9.283   8.519   0.673  0.4806 -0.5024  0.5923
  254MOL0     H34223   8.935   8.725   0.406  1.1004  0.0085  1.0178
  254MOL0     H34224   8.814   8.866   0.259 -1.0785  1.1581  0.0799
  254MOL0     H34225   8.850   9.239   0.364  3.4274 -0.7256 -2.0333
  254MOL0     H34226   8.858   9.159   0.205  0.0273  1.3720 -0.5566
  254MOL0     H34227   8.610   9.326   0.250  0.3385  2.7163  0.2499
  254MOL0     H34228   8.702   9.274   0.099 -0.7256 -1.0604  1.0707
  254MOL0     H34229   8.871   9.440   0.228 -1.0817 -1.3701 -0.1197
  254MOL0     H34230   8.719   9.495   0.297  1.6089  2.9702 -0.8424
  254MOL0     H34231   8.739   9.481   0.008 -1.0999  0.6290 -0.9866
  254MOL0     H34232   8.612   9.555   0.112  1.2034  1.9615  4.6468
  254MOL0     H34233   8.828   9.686   0.210 -0.8593  0.7244  1.0938
  254MOL0     H34234   8.868   9.663   0.038 -1.1940  2.3743 -1.7728
  254MOL0     H34235   8.673   9.768  -0.042 -1.8717 -1.2338  0.4786
  254MOL0     H34236   8.609   9.815   0.113  0.6078  2.8376 -0.5826
  254MOL0     H34237   8.897   9.907   0.086 -0.0624 -0.3042 -0.9138
  254MOL0     H34238   8.775   9.938   0.204  0.3509 -0.1033  0.6497
  254MOL0     H34239   8.629  10.053   0.048  1.1186  2.9588 -0.2001
  254MOL0     H34240   8.791  10.123   0.063 -0.2424  0.1460  2.6905
  254MOL0     H34241   8.978  10.039  -0.152  0.3712 -0.2617  0.5277
  254MOL0     H34242   8.873   9.992  -0.537 -1.9999 -0.1850  1.8728
  254MOL0     H34243   9.015  10.066  -0.431  1.1819 -1.1938  3.0038
  254MOL0     H34244   9.054   9.847  -0.540 -2.9748  1.5982 -1.5952
  254MOL0     H34245   9.079   9.856  -0.356 -0.9200 -0.5884  1.0160
  254MOL0     H34246   8.822   9.752  -0.473  0.8528 -1.8713 -1.6200
  254MOL0     H34247   8.896   9.723  -0.320 -1.4036 -0.9271 -0.0250
  254MOL0     H34248   8.967   9.596  -0.582 -1.0404 -0.4992  0.3915
  254MOL0     H34249   8.945   9.517  -0.432 -1.6115  2.0269  2.4968
  254MOL0     H34250   9.288   9.670  -0.634  1.4400 -0.9280  0.4309
  254MOL0     H34251   9.441   9.507  -0.783  0.9852 -1.5816  0.9875
  254MOL0     H34252   9.565   9.012  -0.710 -0.7634 -1.0731  0.2039
  254MOL0     H34253   9.698   8.842  -0.821 -1.0906 -2.0278  1.8986
  254MOL0     H34254   9.759   8.635  -0.929  0.3962  0.8738 -0.5059
  254MOL0     H34255   9.590   8.565  -0.913 -1.1001  3.5116  0.2079
  254MOL0     H34256   9.678   8.483  -1.162 -0.8787  0.0807  0.4457
  254MOL0     H34257   9.826   8.502  -1.087 -0.3412 -1.9614 -2.3408
  254MOL0     H34258   9.744   8.333  -0.913 -1.4982  0.7268  1.0086
  254MOL0     H34259   9.590   8.319  -0.999 -0.8562  0.0377 -0.3154
  254MOL0     H34260   9.856   8.200  -1.099 -1.0338 -1.8696 -1.8106
  254MOL0     H34261   9.744   8.269  -1.206 -2.0766 -1.5881 -1.2499
  254MOL0     H34262   9.569   8.106  -1.091  0.1157 -0.6905  2.3450
  254MOL0     H34263   9.696   8.090  -0.969  0.4847  1.1484 -0.4323
  254MOL0     H34264   9.701   8.000  -1.240 -3.4957 -2.6675  0.6488
  254MOL0     H34265   9.834   7.963  -1.130  0.5224  1.1768 -2.9746
  254MOL0     H34266   9.552   7.878  -1.036  0.5027  0.9929  1.1397
  254MOL0     H34267   9.700   7.812  -0.984 -1.8119 -0.6626  0.6710
  254MOL0     H34268   9.561   7.678  -1.170  0.6301  0.9523  1.3094
  254MOL0     H34269   9.588   7.818  -1.277 -0.2545 -0.0049 -0.0506
  254MOL0     H34270   9.407   8.793  -1.123 -1.5425  0.6568 -0.3482
  254MOL0     H34271   9.277   8.988  -1.038 -0.0276  0.3084 -0.4809
  254MOL0     H34272   9.201   9.186  -0.608  1.7236  0.3458  2.6894
  254MOL0     H34273   9.108   9.350  -0.437 -1.9274  1.4462 -0.1959
  254MOL0     H34274   8.678   9.102   0.594 -2.0562 -0.0926 -1.6521
  254MOL0     H34275   8.820   8.956   0.747  0.5258 -1.6394  0.5201
  254MOL0     H34276   8.951   8.712   0.923 -0.2193 -2.2183 -3.7036
  254MOL0     H34277   9.075   8.680   1.136 -2.8515 -1.3291 -0.9134
  254MOL0     H34278   9.228   8.566   1.296 -0.3175  0.7028  0.7993
  254MOL0     H34279   9.267   8.728   1.233 -2.4151 -0.2333  0.1177
  254MOL0     H34280   9.501   8.691   1.321 -1.2799  1.3627 -0.3371
  254MOL0     H34281   9.469   8.531   1.377 -1.5410 -0.6496  3.2361
  254MOL0     H34282   9.269   8.701   1.495  0.1841 -0.2363  1.1068
  254MOL0     H34283   9.418   8.804   1.488  0.6565  0.0009  3.0384
  254MOL0     H34284   9.416   8.752   1.684  1.6413  1.8817 -2.9251
  254MOL0     H34285   9.384   8.568   1.674 -1.1185 -0.4360  0.3463
  254MOL0     H34286   9.804   8.600   1.608 -0.4887 -2.4594 -0.8150
  254MOL0     H34287   9.403   8.511   0.906 -0.8851 -3.8909  0.1738
  254MOL0     H34288   9.294   8.590   0.591 -1.5744 -1.5842 -0.7158
  254MOL0     H34289   9.380   8.477   0.700  1.0271 -0.1880 -0.7671
  254MOL0     H34290   9.224   8.428   0.652  1.2287 -0.9786  0.5104
  255MOL0     O34291   8.894   9.748   5.466 -0.3484 -0.6228 -0.4129
  255MOL0     C34292   8.859   9.678   5.379 -0.0661  0.9459  0.8260
  255MOL0     O34293   8.823   9.542   5.396 -0.3883 -0.0049  0.5284
  255MOL0     C34294   8.844   9.485   5.514  0.3285  0.0171 -0.2439
  255MOL0     C34295   8.758   9.520   5.619 -0.1618  0.1243  0.3242
  255MOL0     C34296   8.783   9.478   5.750 -0.5860 -0.1860  0.3034
  255MOL0     C34297   8.889   9.388   5.778  1.2908  0.7334  0.6426
  255MOL0     O34298   8.912   9.349   5.907 -0.0494 -0.5758  0.0376
  255MOL0     C34299   9.035   9.296   5.947  0.0582  0.0805  0.3707
  255MOL0     C34300   9.012   9.181   6.050 -0.3248 -0.0201  0.2517
  255MOL0     C34301   9.133   9.145   6.131 -0.6698 -0.4589  0.0916
  255MOL0     C34302   9.079   9.075   6.252 -0.0667 -0.0282 -0.3448
  255MOL0     C34303   9.031   8.927   6.216  0.4821 -0.1301 -0.0324
  255MOL0     C34304   9.012   8.829   6.328 -0.4417 -0.5328  0.6327
  255MOL0     C34305   8.955   8.697   6.285 -0.0089  0.3703 -0.3213
  255MOL0     C34306   8.833   8.712   6.186  0.0307 -0.1302  1.0162
  255MOL0     N34307   8.749   8.595   6.169  0.9944  0.5807  0.1702
  255MOL0     C34308   8.771   8.478   6.097 -0.2334  0.9126  0.2261
  255MOL0     C34309   8.663   8.404   6.122 -0.2157 -0.6480 -0.1510
  255MOL0     C34310   8.635   8.259   6.072 -1.1940 -0.6625  0.6546
  255MOL0     C34311   8.588   8.251   5.927 -1.4248  0.0962 -0.0599
  255MOL0     C34312   8.561   8.110   5.871  0.0260 -0.2980 -0.3177
  255MOL0     C34313   8.467   8.025   5.955  0.2554 -0.3058 -1.1027
  255MOL0     O34314   8.340   8.085   6.001  0.2873 -0.4229  1.0594
  255MOL0     C34315   8.237   8.078   5.915 -0.5777  0.1469  0.7254
  255MOL0     C34316   8.247   8.035   5.780  0.5872  0.6481 -0.3323
  255MOL0     C34317   8.127   7.997   5.713  0.5359  0.6352  0.2536
  255MOL0     C34318   7.998   8.018   5.766  0.6045 -0.8119 -0.1167
  255MOL0     C34319   7.879   7.976   5.693 -0.1166  1.2842 -0.3700
  255MOL0     O34320   7.900   7.884   5.597 -0.3040  0.1205 -0.3876
  255MOL0     C34321   7.800   7.837   5.523 -0.1764  0.3128  0.5037
  255MOL0     C34322   7.771   7.699   5.529  0.3855 -0.1120  0.9248
  255MOL0     C34323   7.682   7.646   5.436  0.4383  0.3631 -0.2673
  255MOL0     C34324   7.613   7.733   5.347 -0.9737 -0.4505 -0.2639
  255MOL0     O34325   7.544   7.673   5.247  0.7987  0.7994  0.5551
  255MOL0     C34326   7.510   7.740   5.122 -0.3120  0.6309 -0.7683
  255MOL0     C34327   7.469   7.628   5.018  0.4316 -0.0829  0.2347
  255MOL0     C34328   7.581   7.553   4.960 -0.0339  0.9979  0.2455
  255MOL0     C34329   7.686   7.632   4.871  0.1676 -0.4522  1.0839
  255MOL0     C34330   7.617   7.692   4.742 -0.2465  0.4743 -0.0776
  255MOL0     C34331   7.726   7.749   4.647 -0.0086  0.1112  1.1834
  255MOL0     C34332   7.673   7.747   4.502 -0.5500 -0.5624 -0.5496
  255MOL0     C34333   7.790   7.751   4.400 -0.3868 -0.5225  0.1547
  255MOL0    Cl34334   7.936   7.840   4.465  0.8937 -0.1721  0.0092
  255MOL0     C34335   7.643   7.877   5.345  0.4844  1.0762 -0.6899
  255MOL0     C34336   7.737   7.930   5.438 -1.3930 -0.3202  0.1304
  255MOL0     O34337   7.770   8.028   5.719  0.3516  0.5325 -0.3868
  255MOL0     C34338   7.996   8.078   5.896  0.5011  0.1780  0.1481
  255MOL0     C34339   8.108   8.107   5.964  0.1682 -0.3521  0.9983
  255MOL0     N34340   8.585   8.465   6.220  0.1056  0.7370 -0.3381
  255MOL0     N34341   8.635   8.574   6.246 -0.7263  0.3158  0.3596
  255MOL0     C34342   8.973   9.358   5.668  0.5594  0.7008  0.4442
  255MOL0     C34343   8.948   9.393   5.539 -0.2678  0.1214 -0.5168
  255MOL0     C34344   8.822   9.740   5.240  0.5866 -0.2714 -1.0804
  255MOL0     C34345   8.718   9.682   5.165 -0.1426  0.8299 -1.1988
  255MOL0     C34346   8.687   9.730   5.052  0.2316 -0.2631  0.4497
  255MOL0     C34347   8.735   9.848   5.005 -0.8744  0.1086  0.9323
  255MOL0     O34348   8.690   9.878   4.876 -0.3556  0.3738 -0.6937
  255MOL0     C34349   8.777   9.957   4.789 -0.2624  1.2054 -0.4571
  255MOL0     C34350   8.699   9.973   4.662  0.1806 -0.9841  0.4780
  255MOL0     C34351   8.604  10.097   4.682  0.2133 -1.1693 -0.8672
  255MOL0     C34352   8.555  10.154   4.552 -0.7829 -0.3505  0.4084
  255MOL0     C34353   8.460  10.059   4.490 -0.0652 -0.8404  1.1898
  255MOL0     C34354   8.394   9.965   4.453  0.6460  0.6137 -1.1031
  255MOL0     C34355   8.827   9.923   5.079 -0.0263 -0.2969  0.7752
  255MOL0     C34356   8.882   9.859   5.191 -0.6548  0.7831 -0.3885
  255MOL0     C34357   9.013   9.912   5.253 -0.0261  0.1648 -0.0691
  255MOL0     H34358   8.686   9.599   5.609  0.7344  1.1146  1.4407
  255MOL0     H34359   8.723   9.530   5.824 -1.1412 -0.7654  0.2634
  255MOL0     H34360   9.103   9.247   5.877 -1.0465 -2.0109  0.6911
  255MOL0     H34361   9.082   9.385   5.989  1.5172 -0.6834  0.4209
  255MOL0     H34362   8.991   9.097   5.984 -1.5110  2.8516 -3.3850
  255MOL0     H34363   8.923   9.204   6.108  1.2770  4.3088  1.3685
  255MOL0     H34364   9.201   9.227   6.157  0.0941 -2.3737  5.1395
  255MOL0     H34365   9.197   9.082   6.067 -0.2183  2.7482 -2.9314
  255MOL0     H34366   9.163   9.073   6.321 -0.4047  3.1443  0.3142
  255MOL0     H34367   8.995   9.124   6.302 -2.6632  0.9649 -5.0308
  255MOL0     H34368   8.933   8.943   6.169 -0.1777 -0.5895  1.1455
  255MOL0     H34369   9.094   8.874   6.144 -2.6459 -0.2117 -2.9505
  255MOL0     H34370   9.110   8.821   6.377 -1.4403 -2.8170  2.4851
  255MOL0     H34371   8.942   8.860   6.406 -0.1045 -1.2474  1.2356
  255MOL0     H34372   8.911   8.643   6.369 -2.3484 -1.0392 -2.2987
  255MOL0     H34373   9.024   8.629   6.233 -1.6968 -1.4704 -0.2917
  255MOL0     H34374   8.771   8.797   6.217  0.5017 -0.1457  2.0410
  255MOL0     H34375   8.869   8.751   6.090 -1.0651  0.9853  1.0243
  255MOL0     H34376   8.856   8.447   6.037 -0.3553  0.3210  0.3591
  255MOL0     H34377   8.732   8.211   6.090 -1.0633 -0.2660  1.0372
  255MOL0     H34378   8.565   8.212   6.141 -0.0987 -3.4359  0.0156
  255MOL0     H34379   8.498   8.312   5.938 -2.2641 -1.3094  1.2324
  255MOL0     H34380   8.663   8.301   5.865 -0.9623 -2.2584 -1.5508
  255MOL0     H34381   8.659   8.062   5.867  0.6918  0.9606  0.0693
  255MOL0     H34382   8.517   8.125   5.772 -4.6342  0.8521  1.6646
  255MOL0     H34383   8.520   8.008   6.049 -0.4861 -0.7197 -0.7569
  255MOL0     H34384   8.441   7.930   5.909  0.9706 -0.6485 -0.8126
  255MOL0     H34385   8.344   8.015   5.734 -0.5780 -0.0592 -2.6426
  255MOL0     H34386   8.136   7.947   5.617  1.4584  2.2149 -0.5181
  255MOL0     H34387   7.831   7.637   5.594 -1.2313 -0.0215  2.5689
  255MOL0     H34388   7.660   7.541   5.421  0.9439  0.3740 -1.1877
  255MOL0     H34389   7.421   7.801   5.133 -1.5062 -0.9802 -1.0786
  255MOL0     H34390   7.588   7.808   5.085  0.8935  0.8363  1.9380
  255MOL0     H34391   7.403   7.555   5.064  0.9491 -1.1916 -0.7429
  255MOL0     H34392   7.406   7.677   4.944 -1.1216 -2.0225  0.2036
  255MOL0     H34393   7.654   7.523   5.036  0.2659 -1.7581 -1.0353
  255MOL0     H34394   7.538   7.466   4.910  2.4060  1.0126 -2.1527
  255MOL0     H34395   7.764   7.560   4.845 -1.2681 -1.0456 -2.0580
  255MOL0     H34396   7.737   7.709   4.930  1.1243 -0.1743 -0.0839
  255MOL0     H34397   7.544   7.768   4.771  2.1865  1.9781  2.5668
  255MOL0     H34398   7.559   7.614   4.692 -0.8190  0.3909  0.6929
  255MOL0     H34399   7.753   7.848   4.685  0.0266  2.3091 -3.8216
  255MOL0     H34400   7.818   7.690   4.650 -0.0941 -0.3701 -2.0832
  255MOL0     H34401   7.604   7.832   4.493  0.8153  0.3905 -2.8921
  255MOL0     H34402   7.630   7.651   4.473 -0.2280 -1.2202  1.0374
  255MOL0     H34403   7.812   7.650   4.364 -0.9528 -1.1206  1.4052
  255MOL0     H34404   7.762   7.808   4.312  3.6462 -4.0896 -3.9560
  255MOL0     H34405   7.598   7.940   5.269  0.4405 -1.6390 -3.0806
  255MOL0     H34406   7.772   8.032   5.427 -2.0539 -0.1955 -0.9376
  255MOL0     H34407   7.910   8.104   5.957  1.3457  3.3116  0.1650
  255MOL0     H34408   8.094   8.169   6.052  0.0545 -0.9131  1.3814
  255MOL0     H34409   9.058   9.293   5.685  2.3637  2.8962  0.2886
  255MOL0     H34410   9.001   9.358   5.451  1.8941 -1.0716  1.1749
  255MOL0     H34411   8.674   9.595   5.211 -1.9674  2.8736  1.2342
  255MOL0     H34412   8.618   9.663   5.000  0.2895  0.8297 -1.0911
  255MOL0     H34413   8.871   9.902   4.780 -0.7965  0.5103 -2.2232
  255MOL0     H34414   8.805  10.054   4.832  4.0756 -0.5630  1.3153
  255MOL0     H34415   8.641   9.884   4.637  0.3818 -1.3154  1.1663
  255MOL0     H34416   8.768  10.000   4.582 -1.7974  0.8606 -0.7409
  255MOL0     H34417   8.647  10.177   4.743 -2.2447 -2.0998  2.3659
  255MOL0     H34418   8.523  10.059   4.745 -2.8062  1.7814 -2.6738
  255MOL0     H34419   8.498  10.245   4.575  0.2024  0.4032 -0.0497
  255MOL0     H34420   8.635  10.174   4.481 -0.9753 -3.1362 -0.7171
  255MOL0     H34421   8.332   9.879   4.441  2.6143 -0.8344 -1.3360
  255MOL0     H34422   8.862  10.013   5.031  0.1816 -0.8714 -0.1899
  255MOL0     H34423   9.058   9.964   5.168 -1.0856  0.8292 -0.2376
  255MOL0     H34424   8.989   9.976   5.338  3.3486  0.5178  0.7820
  255MOL0     H34425   9.086   9.839   5.291 -0.7373  0.2970  1.6045
  256MOL0     O34426   7.989  11.399   9.870  0.1525  0.0958 -0.5455
  256MOL0     C34427   8.087  11.393   9.934 -0.4546 -0.1560  0.3259
  256MOL0     O34428   8.098  11.449  10.063  0.0500 -0.2658  0.6189
  256MOL0     C34429   7.981  11.453  10.126  0.5556 -0.4753 -0.0749
  256MOL0     C34430   7.937  11.332  10.179 -0.8979  0.1032 -0.1761
  256MOL0     C34431   7.838  11.319  10.271 -1.3171  0.6213  0.6253
  256MOL0     C34432   7.757  11.428  10.307 -0.5243 -0.3312  0.5378
  256MOL0     O34433   7.647  11.397  10.388 -0.7634  0.4027  0.2515
  256MOL0     C34434   7.540  11.488  10.381  0.5131 -1.3813  0.0934
  256MOL0     C34435   7.408  11.419  10.425  0.2950 -0.3694 -0.2998
  256MOL0     C34436   7.418  11.267  10.442  0.4181  0.0871  0.0903
  256MOL0     C34437   7.372  11.202  10.310 -0.4347 -0.0882  0.5753
  256MOL0     C34438   7.376  11.042  10.316 -0.3527 -0.7036  0.4081
  256MOL0     C34439   7.346  10.957  10.186  0.2347 -0.6283  0.5172
  256MOL0     C34440   7.212  10.985  10.115  1.1232  0.4947  0.2391
  256MOL0     C34441   7.217  11.097  10.010  0.5473 -0.0394  0.4672
  256MOL0     N34442   7.105  11.108   9.917  0.3111  0.0866  0.1964
  256MOL0     C34443   7.102  11.153   9.784 -0.1043  0.7545  0.3966
  256MOL0     C34444   6.962  11.155   9.749  0.3017  0.5542  0.2072
  256MOL0     C34445   6.882  11.210   9.636  0.2023  0.5608 -0.3588
  256MOL0     C34446   6.878  11.126   9.514 -0.2888 -0.5509  0.7315
  256MOL0     C34447   6.751  11.036   9.522  0.0901  0.9863 -1.0641
  256MOL0     C34448   6.727  10.960   9.388 -0.1096  0.1240  0.6725
  256MOL0     O34449   6.652  10.837   9.418  0.5572  0.1642 -0.4749
  256MOL0     C34450   6.593  10.760   9.310 -1.0705 -0.5538 -0.3933
  256MOL0     C34451   6.503  10.658   9.337 -0.2669 -0.2370  0.1641
  256MOL0     C34452   6.436  10.584   9.237  0.4999 -0.0829 -0.2109
  256MOL0     C34453   6.481  10.595   9.110  0.4058  0.2035  0.4423
  256MOL0     C34454   6.427  10.506   9.003 -0.4019  0.0918  0.1456
  256MOL0     O34455   6.300  10.462   9.030 -0.4723 -0.7265 -0.0285
  256MOL0     C34456   6.221  10.420   8.918 -0.5900 -0.1404 -0.0397
  256MOL0     C34457   6.172  10.292   8.916  0.1487 -0.4370  0.4731
  256MOL0     C34458   6.110  10.240   8.811 -0.1863  0.3983 -0.5389
  256MOL0     C34459   6.080  10.313   8.703  1.0200 -1.0059  0.5396
  256MOL0     O34460   6.025  10.252   8.596  0.9637  0.3220  0.5033
  256MOL0     C34461   5.993  10.323   8.477  0.7538  0.3981 -0.2131
  256MOL0     C34462   5.872  10.403   8.462 -0.2157  0.0292 -0.8885
  256MOL0     C34463   5.827  10.456   8.322 -0.4554  0.5072  0.1755
  256MOL0     C34464   5.927  10.423   8.215 -0.5682 -0.7684 -0.5107
  256MOL0     C34465   5.858  10.472   8.083 -1.0505 -0.1874  0.8727
  256MOL0     C34466   5.950  10.467   7.965 -0.0192 -0.6219  0.8284
  256MOL0     C34467   5.860  10.502   7.840  0.2982  0.3478 -0.1918
  256MOL0     C34468   5.902  10.480   7.702 -1.8980  0.3830 -0.5785
  256MOL0    Cl34469   5.939  10.304   7.664 -0.1294  0.1823 -0.8294
  256MOL0     C34470   6.110  10.453   8.706  0.5399  0.1985  0.8042
  256MOL0     C34471   6.179  10.508   8.812  0.2713  0.8976 -0.1567
  256MOL0     O34472   6.497  10.486   8.898  0.2478 -0.9475 -0.0643
  256MOL0     C34473   6.577  10.691   9.073  0.7636  0.5743  0.2044
  256MOL0     C34474   6.632  10.779   9.175 -0.4955  0.3409 -0.3176
  256MOL0     N34475   6.899  11.101   9.865  0.3164  0.8478  0.2449
  256MOL0     N34476   6.983  11.084   9.961  0.5332  0.0072 -0.8435
  256MOL0     C34477   7.792  11.554  10.259  0.6421 -0.1173 -0.2140
  256MOL0     C34478   7.905  11.559  10.166  0.1122 -0.4830 -0.7665
  256MOL0     C34479   8.200  11.308   9.880  1.2198 -0.7801 -0.0381
  256MOL0     C34480   8.194  11.273   9.743 -0.2459 -0.4640 -1.3178
  256MOL0     C34481   8.303  11.208   9.686  0.1942 -0.2779  0.2370
  256MOL0     C34482   8.416  11.162   9.760  0.1711 -0.2422  0.4438
  256MOL0     O34483   8.533  11.117   9.705 -0.5138  0.0306 -0.3783
  256MOL0     C34484   8.546  10.980   9.659  0.5608 -0.6134 -0.8942
  256MOL0     C34485   8.662  10.958   9.563 -0.7522  0.3036  0.3541
  256MOL0     C34486   8.631  11.035   9.435  0.3526  0.5393  0.6902
  256MOL0     C34487   8.742  11.027   9.341  0.2739 -0.1158 -0.8744
  256MOL0     C34488   8.738  11.139   9.251 -0.0734 -0.1352  0.0796
  256MOL0     C34489   8.743  11.211   9.155 -0.8579  0.4853 -0.6328
  256MOL0     C34490   8.416  11.186   9.894  0.0659  0.0233 -0.3643
  256MOL0     C34491   8.312  11.264   9.955 -0.2232  0.4667  0.0946
  256MOL0     C34492   8.335  11.274  10.101  0.7601  0.3109 -0.2646
  256MOL0     H34493   7.998  11.243  10.165  4.1049  2.9988  0.5331
  256MOL0     H34494   7.810  11.222  10.311 -2.9224 -1.2742 -4.3145
  256MOL0     H34495   7.549  11.574  10.448  0.3853 -3.0641  2.3760
  256MOL0     H34496   7.533  11.526  10.279 -3.7414 -1.7898  0.0497
  256MOL0     H34497   7.330  11.454  10.356  2.5933 -1.7512 -3.8518
  256MOL0     H34498   7.393  11.464  10.524  0.4362 -1.9151  0.4538
  256MOL0     H34499   7.361  11.237  10.531 -0.1949  0.0683 -0.3061
  256MOL0     H34500   7.518  11.231  10.468  0.1462  0.6933  2.1437
  256MOL0     H34501   7.271  11.242  10.293  0.5749  3.9336  2.6422
  256MOL0     H34502   7.438  11.222  10.226 -0.9031 -0.3871  0.1356
  256MOL0     H34503   7.480  11.014  10.335  1.1570  1.5130 -3.4740
  256MOL0     H34504   7.315  11.001  10.397 -0.2773 -3.3681 -0.7609
  256MOL0     H34505   7.418  10.965  10.104  1.1649  1.9211  1.4856
  256MOL0     H34506   7.343  10.856  10.228 -2.2370 -0.0613  1.9061
  256MOL0     H34507   7.135  10.999  10.191 -0.3237 -1.0463 -0.8654
  256MOL0     H34508   7.189  10.891  10.064  0.6653  0.5874  0.2720
  256MOL0     H34509   7.235  11.195  10.056  4.1552  1.4409 -3.4457
  256MOL0     H34510   7.298  11.074   9.941 -1.7497 -1.1340 -2.0365
  256MOL0     H34511   7.180  11.197   9.723  0.8449  0.7398  1.5550
  256MOL0     H34512   6.783  11.226   9.680  1.5883  1.5756  2.6259
  256MOL0     H34513   6.927  11.305   9.606  2.7889 -1.0077 -1.7779
  256MOL0     H34514   6.861  11.190   9.427 -4.3451 -0.6125  1.2632
  256MOL0     H34515   6.968  11.064   9.510 -0.0618 -0.2387  0.9509
  256MOL0     H34516   6.658  11.081   9.556  0.0451  1.9921 -2.4179
  256MOL0     H34517   6.777  10.965   9.600 -0.2216 -0.8102 -2.5183
  256MOL0     H34518   6.817  10.932   9.331  1.5493  2.8394  1.7597
  256MOL0     H34519   6.660  11.015   9.322  0.6367 -0.3164 -0.4995
  256MOL0     H34520   6.475  10.638   9.440  2.1449  1.9249  1.3521
  256MOL0     H34521   6.364  10.507   9.264 -1.0174  0.8261 -1.4890
  256MOL0     H34522   6.174  10.217   8.995 -0.3599 -1.8422 -0.8026
  256MOL0     H34523   6.067  10.140   8.806 -1.0137  0.7698 -0.9835
  256MOL0     H34524   6.079  10.385   8.451  0.9606 -1.1489 -3.8130
  256MOL0     H34525   5.977  10.253   8.394 -0.9104 -0.1830  0.5542
  256MOL0     H34526   5.795  10.347   8.516  1.7272  1.7784  4.3691
  256MOL0     H34527   5.879  10.496   8.519 -2.6504  0.7763 -1.6615
  256MOL0     H34528   5.734  10.410   8.286  0.6438 -0.3090 -1.8259
  256MOL0     H34529   5.802  10.562   8.334 -0.7100  0.4266  0.3511
  256MOL0     H34530   5.955  10.318   8.204 -0.2530 -1.2208  3.2764
  256MOL0     H34531   6.020  10.480   8.224 -0.0502 -1.9565  2.9480
  256MOL0     H34532   5.820  10.574   8.096 -0.5626 -0.0756  1.4858
  256MOL0     H34533   5.771  10.407   8.065 -0.0485 -1.2749 -0.1857
  256MOL0     H34534   6.024  10.547   7.975 -0.9612  0.7846 -2.1659
  256MOL0     H34535   5.998  10.372   7.942 -1.2042 -1.4062  1.5089
  256MOL0     H34536   5.834  10.608   7.845 -2.3608 -0.2645  0.7989
  256MOL0     H34537   5.774  10.436   7.853  2.2659 -1.8807  3.0890
  256MOL0     H34538   5.832  10.525   7.631 -2.8312 -2.0771 -1.3151
  256MOL0     H34539   5.990  10.544   7.703 -1.8615  0.6925 -4.8882
  256MOL0     H34540   6.085  10.521   8.625  1.2292  0.5990  0.9188
  256MOL0     H34541   6.205  10.613   8.820  2.6240  0.3317  0.2710
  256MOL0     H34542   6.599  10.705   8.968 -2.9441 -2.7090 -1.2717
  256MOL0     H34543   6.710  10.849   9.147 -0.0864 -0.7425 -2.0415
  256MOL0     H34544   7.727  11.639  10.279  1.0873  0.5645 -1.5343
  256MOL0     H34545   7.947  11.658  10.150 -1.0190  0.4741  1.6864
  256MOL0     H34546   8.114  11.304   9.676 -0.6030  3.1819  0.5590
  256MOL0     H34547   8.275  11.207   9.581 -0.6044  0.2587  0.4340
  256MOL0     H34548   8.456  10.949   9.605  0.6445  0.5959 -1.7719
  256MOL0     H34549   8.560  10.920   9.749  1.4180  0.2449 -0.4363
  256MOL0     H34550   8.695  10.854   9.555  3.1091  1.4933 -2.3921
  256MOL0     H34551   8.738  11.017   9.614 -1.4723  1.6619 -0.1005
  256MOL0     H34552   8.611  11.139   9.463 -3.5299  0.2106 -0.2215
  256MOL0     H34553   8.549  10.991   9.378  1.1071 -0.8040  0.5966
  256MOL0     H34554   8.835  11.013   9.397 -1.1755 -0.4542  1.6297
  256MOL0     H34555   8.730  10.939   9.276 -1.0837 -0.8021  0.2296
  256MOL0     H34556   8.747  11.274   9.069 -1.7822 -0.2371 -1.2184
  256MOL0     H34557   8.494  11.142   9.955  0.7856  0.2674 -1.0952
  256MOL0     H34558   8.317  11.376  10.136 -0.9962 -0.4181  1.1212
  256MOL0     H34559   8.271  11.213  10.166  1.7438  0.7273  1.1418
  256MOL0     H34560   8.438  11.253  10.130  0.3765  1.8718  2.6883
  257MOL0     O34561   6.398   6.391   4.222 -0.4820  0.2390  0.6536
  257MOL0     C34562   6.459   6.302   4.283 -0.0990 -0.3229 -0.6738
  257MOL0     O34563   6.441   6.267   4.409 -1.2470  0.5047 -0.3472
  257MOL0     C34564   6.327   6.293   4.464 -0.0836  0.6083  0.3004
  257MOL0     C34565   6.305   6.392   4.556 -0.3231  0.3863 -0.2329
  257MOL0     C34566   6.172   6.414   4.605 -0.3996  0.0954 -0.3695
  257MOL0     C34567   6.058   6.352   4.555  0.2365 -0.1564  1.0062
  257MOL0     O34568   5.931   6.369   4.598  0.9703  0.1042  0.3483
  257MOL0     C34569   5.891   6.512   4.622  0.1203 -0.3900 -0.2567
  257MOL0     C34570   5.764   6.524   4.705  0.2008  0.3942  0.2244
  257MOL0     C34571   5.793   6.465   4.846 -0.1207 -0.7340 -0.4560
  257MOL0     C34572   5.678   6.453   4.958  0.8464  1.2740  0.3880
  257MOL0     C34573   5.607   6.580   5.001  1.1088  0.2275 -0.8752
  257MOL0     C34574   5.497   6.615   4.903 -0.2769  0.8140 -0.8025
  257MOL0     C34575   5.424   6.738   4.960  0.9990 -0.1001  0.0457
  257MOL0     C34576   5.313   6.781   4.859  0.2501  0.3534 -0.1339
  257MOL0     N34577   5.225   6.902   4.887 -0.1415 -0.7710 -0.3352
  257MOL0     C34578   5.109   6.915   4.952  0.5516 -0.0548  0.5366
  257MOL0     C34579   5.107   7.048   4.989  0.4666  0.9665  0.8229
  257MOL0     C34580   5.020   7.127   5.069  0.9293 -0.0051 -0.2508
  257MOL0     C34581   5.017   7.276   5.044 -0.3099  0.1508  0.5977
  257MOL0     C34582   4.925   7.373   5.130  0.6243  0.5891  1.0988
  257MOL0     C34583   4.915   7.363   5.283 -0.4831  0.2740 -0.2937
  257MOL0     O34584   5.046   7.371   5.342  0.3222  0.7860  0.7580
  257MOL0     C34585   5.076   7.445   5.454 -0.0538  0.0328 -0.3358
  257MOL0     C34586   4.994   7.558   5.494 -0.0885  0.0441  0.0549
  257MOL0     C34587   5.032   7.618   5.618 -0.3455 -0.7576  0.5645
  257MOL0     C34588   5.144   7.588   5.685 -0.0210  0.2834 -0.0814
  257MOL0     C34589   5.178   7.658   5.804 -0.1992 -0.3645  0.3070
  257MOL0     O34590   5.262   7.596   5.878 -1.2379  0.6015  0.8844
  257MOL0     C34591   5.287   7.647   6.003  0.4419  1.2790  0.6549
  257MOL0     C34592   5.406   7.713   6.029 -0.0705 -0.3382  0.3138
  257MOL0     C34593   5.445   7.746   6.157 -0.5950 -0.4156 -0.5424
  257MOL0     C34594   5.377   7.710   6.268  0.1283 -0.4500 -0.6592
  257MOL0     O34595   5.418   7.755   6.393 -0.3946 -0.1402  0.3935
  257MOL0     C34596   5.406   7.657   6.500 -0.3672  0.4501  0.2903
  257MOL0     C34597   5.460   7.719   6.631 -1.1127  0.6039  0.1408
  257MOL0     C34598   5.367   7.816   6.693 -0.2405  0.5272  1.0456
  257MOL0     C34599   5.225   7.758   6.723 -0.0467 -0.0070  0.2044
  257MOL0     C34600   5.154   7.852   6.815  0.1665 -0.5155  0.0194
  257MOL0     C34601   5.074   7.972   6.756 -0.1127  0.1797  0.1792
  257MOL0     C34602   5.004   8.047   6.867  0.1474  0.5291 -0.3641
  257MOL0     C34603   4.883   7.965   6.917  0.4869 -0.2891  0.4396
  257MOL0    Cl34604   4.763   7.953   6.782  0.2139 -0.1756  0.0460
  257MOL0     C34605   5.249   7.662   6.241 -0.4279  0.3578  0.2741
  257MOL0     C34606   5.208   7.628   6.111  0.2786 -0.1139  0.8002
  257MOL0     O34607   5.124   7.771   5.833 -0.1092 -0.0247  0.4326
  257MOL0     C34608   5.236   7.488   5.632  0.1128 -0.2716 -0.0133
  257MOL0     C34609   5.194   7.417   5.516 -0.1490 -0.4169 -0.1773
  257MOL0     N34610   5.211   7.110   4.931 -0.2511 -0.6259  0.2711
  257MOL0     N34611   5.279   7.024   4.875  0.5134  0.6553  0.2854
  257MOL0     C34612   6.085   6.248   4.464  1.0367 -0.2047 -0.6229
  257MOL0     C34613   6.219   6.221   4.424  0.4079  0.2762 -0.2980
  257MOL0     C34614   6.579   6.231   4.224  0.0353  0.1981  0.6379
  257MOL0     C34615   6.587   6.090   4.243 -0.1542 -0.3815  0.1279
  257MOL0     C34616   6.663   6.012   4.162  0.4282 -0.6175 -0.1696
  257MOL0     C34617   6.760   6.073   4.074 -0.0081  0.4710  0.3432
  257MOL0     O34618   6.856   5.989   4.019 -0.4808 -0.2100 -0.5677
  257MOL0     C34619   6.997   6.035   4.036  1.0593 -0.1339  1.1123
  257MOL0     C34620   7.091   5.924   4.013  0.6815 -0.2154  0.1293
  257MOL0     C34621   7.082   5.855   3.876  0.3813  0.1219  0.1774
  257MOL0     C34622   7.203   5.768   3.841  0.6759 -0.7146  0.2334
  257MOL0     C34623   7.224   5.656   3.935 -0.4268  0.1993 -0.7009
  257MOL0     C34624   7.271   5.563   4.004 -0.4486 -0.7506  0.4437
  257MOL0     C34625   6.753   6.207   4.059 -0.3695 -0.3585  0.6244
  257MOL0     C34626   6.663   6.289   4.136  0.6346 -0.3122  0.2164
  257MOL0     C34627   6.669   6.437   4.115  0.5077 -0.0379  0.7879
  257MOL0     H34628   6.384   6.464   4.579  0.2886  0.5632 -2.6566
  257MOL0     H34629   6.174   6.491   4.682  0.9923  0.2401 -0.5299
  257MOL0     H34630   5.970   6.562   4.680 -0.7833  0.5333  0.2095
  257MOL0     H34631   5.882   6.563   4.526 -0.2758 -0.2495 -0.1465
  257MOL0     H34632   5.685   6.466   4.656  1.9515 -0.6809 -1.4736
  257MOL0     H34633   5.735   6.628   4.724 -1.3645  0.2876 -1.3109
  257MOL0     H34634   5.872   6.523   4.894 -2.2025  2.0108 -0.1372
  257MOL0     H34635   5.852   6.373   4.835  2.2620  0.2485  2.8083
  257MOL0     H34636   5.602   6.380   4.929  0.9050  0.7398  1.5193
  257MOL0     H34637   5.732   6.409   5.043 -2.7055 -3.4431  0.5999
  257MOL0     H34638   5.581   6.578   5.107  2.0371  2.6586 -0.5378
  257MOL0     H34639   5.683   6.659   4.996  4.3584 -2.4942  0.8605
  257MOL0     H34640   5.548   6.645   4.811 -0.6272  0.1328 -1.2298
  257MOL0     H34641   5.432   6.529   4.883  1.4226 -0.4759 -1.0093
  257MOL0     H34642   5.491   6.823   4.977  0.7303  0.3205 -0.9441
  257MOL0     H34643   5.376   6.721   5.057  2.2067  1.9181  1.0645
  257MOL0     H34644   5.350   6.799   4.758  0.1074 -1.5719 -0.5728
  257MOL0     H34645   5.239   6.702   4.844 -0.1072  0.9925 -1.9540
  257MOL0     H34646   5.041   6.834   4.975 -1.6321  1.4298 -0.3946
  257MOL0     H34647   4.925   7.088   5.030  1.3792  1.7479 -3.5110
  257MOL0     H34648   5.033   7.112   5.176 -1.3682 -2.7693 -0.2372
  257MOL0     H34649   5.121   7.309   5.053 -0.2477  0.0602  0.2373
  257MOL0     H34650   5.005   7.285   4.936  1.2865 -0.8458  0.2864
  257MOL0     H34651   4.829   7.388   5.080  0.8457 -0.0200  0.4791
  257MOL0     H34652   4.968   7.473   5.122 -1.1403  1.6813  3.5908
  257MOL0     H34653   4.877   7.264   5.310  1.6703  0.4133  4.1371
  257MOL0     H34654   4.847   7.433   5.330  0.8090  0.8808  0.7326
  257MOL0     H34655   4.902   7.588   5.446 -1.5621 -1.2820  1.8840
  257MOL0     H34656   4.966   7.701   5.642 -0.7009 -0.0203 -2.5158
  257MOL0     H34657   5.458   7.725   5.934  1.3457 -0.3859  1.0534
  257MOL0     H34658   5.537   7.801   6.175 -0.1285 -1.3326 -0.1074
  257MOL0     H34659   5.305   7.618   6.515 -0.9378  1.6434 -0.2828
  257MOL0     H34660   5.469   7.570   6.480 -0.7764 -0.7726  3.7442
  257MOL0     H34661   5.474   7.639   6.704  1.6452  0.6115 -0.2740
  257MOL0     H34662   5.553   7.768   6.601 -1.5524 -0.4860 -3.4879
  257MOL0     H34663   5.408   7.854   6.787 -0.8295  1.6411  0.8742
  257MOL0     H34664   5.352   7.895   6.619 -3.9643 -2.8303 -2.2690
  257MOL0     H34665   5.224   7.662   6.776 -2.5151 -1.1362 -1.6545
  257MOL0     H34666   5.164   7.738   6.635  0.4521 -0.2406 -0.0931
  257MOL0     H34667   5.217   7.893   6.894  1.1656 -0.5698 -0.7357
  257MOL0     H34668   5.084   7.781   6.861  0.9518 -0.9087  0.6257
  257MOL0     H34669   5.149   8.038   6.712  1.5785 -1.9512 -0.3300
  257MOL0     H34670   5.012   7.936   6.673  0.1430  0.1642 -0.0064
  257MOL0     H34671   4.978   8.146   6.828 -1.1918 -0.6344 -2.6975
  257MOL0     H34672   5.077   8.058   6.947  1.4278  1.1102 -1.5835
  257MOL0     H34673   4.916   7.866   6.949  1.1194 -1.1247 -2.4442
  257MOL0     H34674   4.839   8.008   7.007  1.9656  0.4605  0.8321
  257MOL0     H34675   5.175   7.650   6.319  0.6418 -3.1082  0.9367
  257MOL0     H34676   5.116   7.574   6.088  0.9122  0.5874 -4.7752
  257MOL0     H34677   5.330   7.458   5.676  0.4366 -0.4938 -0.8441
  257MOL0     H34678   5.248   7.332   5.475 -1.1386 -1.3471  0.3818
  257MOL0     H34679   5.995   6.205   4.422  0.1304  2.0504 -1.1435
  257MOL0     H34680   6.226   6.154   4.339 -1.0908 -0.5305  0.1957
  257MOL0     H34681   6.520   6.036   4.310 -3.4662 -0.4099 -2.9284
  257MOL0     H34682   6.652   5.905   4.166 -2.5289 -0.3566  0.7881
  257MOL0     H34683   7.005   6.094   4.128 -1.5983  3.1507 -0.5013
  257MOL0     H34684   7.022   6.100   3.952 -1.8434 -2.2868 -1.6856
  257MOL0     H34685   7.085   5.861   4.102 -1.1595 -0.9891 -0.5121
  257MOL0     H34686   7.186   5.978   4.024 -0.3414  1.0257  5.2658
  257MOL0     H34687   7.061   5.932   3.802  1.5368 -1.5256 -1.9746
  257MOL0     H34688   6.994   5.790   3.877  0.1463  0.3103 -2.0775
  257MOL0     H34689   7.180   5.723   3.744 -1.2107 -2.2647  1.3083
  257MOL0     H34690   7.295   5.826   3.836 -0.8161  1.7441 -1.2244
  257MOL0     H34691   7.297   5.476   4.061 -1.7516 -1.5144 -0.0709
  257MOL0     H34692   6.806   6.253   3.976 -1.3259 -2.6953 -1.4136
  257MOL0     H34693   6.597   6.470   4.039 -0.8044  1.4883  2.5874
  257MOL0     H34694   6.656   6.493   4.209  1.4771 -0.3012  1.0982
  257MOL0     H34695   6.769   6.471   4.087 -0.3490  0.5280 -1.8230
  258MOL0     O34696   7.722   9.721   3.002 -0.2110 -0.4549  0.7808
  258MOL0     C34697   7.679   9.803   3.078  0.7803  0.3622 -0.4357
  258MOL0     O34698   7.664   9.782   3.218 -0.2285  0.0592  0.4193
  258MOL0     C34699   7.710   9.664   3.272  0.9903  0.4646  0.1457
  258MOL0     C34700   7.630   9.555   3.255  0.1188 -0.0940 -0.1496
  258MOL0     C34701   7.661   9.449   3.331 -0.3348  0.4091  0.4593
  258MOL0     C34702   7.783   9.442   3.420  0.2385 -0.9380  0.2707
  258MOL0     O34703   7.811   9.334   3.495  0.1382 -0.0263 -0.1354
  258MOL0     C34704   7.825   9.355   3.638  0.8160  0.0960  0.1635
  258MOL0     C34705   7.949   9.281   3.694  0.9268  0.5886 -0.1963
  258MOL0     C34706   7.922   9.236   3.834 -0.8397  0.2776 -0.6031
  258MOL0     C34707   8.015   9.123   3.876  0.1926  0.0601  0.4807
  258MOL0     C34708   8.016   9.097   4.029  0.4984  1.5738  0.1463
  258MOL0     C34709   8.137   9.015   4.056 -0.7381  0.0796 -0.6383
  258MOL0     C34710   8.129   8.869   3.979  0.7032 -0.2084 -0.3607
  258MOL0     C34711   8.223   8.771   4.045 -0.6398 -0.7306 -0.0946
  258MOL0     N34712   8.359   8.765   3.993 -0.2839 -0.0245 -0.0366
  258MOL0     C34713   8.476   8.820   4.043  0.2030  0.4492 -0.2662
  258MOL0     C34714   8.573   8.773   3.956  0.0428 -0.0516 -0.0049
  258MOL0     C34715   8.717   8.821   3.991 -0.0915  0.7313 -0.2393
  258MOL0     C34716   8.763   8.916   3.878 -0.2767  0.0426 -0.4694
  258MOL0     C34717   8.904   8.982   3.909 -0.3477  0.0978 -0.0238
  258MOL0     C34718   8.942   9.084   3.813  0.9160 -0.7086  0.7216
  258MOL0     O34719   8.878   9.209   3.856  0.8665  0.2395  0.1316
  258MOL0     C34720   8.886   9.310   3.772 -0.2778 -1.1340 -0.1228
  258MOL0     C34721   8.965   9.332   3.664 -0.1873 -0.2609  0.6620
  258MOL0     C34722   8.943   9.442   3.573  0.9497  0.2740  0.4809
  258MOL0     C34723   8.851   9.541   3.609 -0.3076 -0.7666  0.3324
  258MOL0     C34724   8.835   9.667   3.529 -0.0954 -0.2816 -0.7643
  258MOL0     O34725   8.781   9.781   3.591  0.8032  0.0269 -0.0610
  258MOL0     C34726   8.765   9.904   3.527  0.8056  0.5972 -0.6436
  258MOL0     C34727   8.855   9.965   3.436 -0.6680 -0.1711 -0.3542
  258MOL0     C34728   8.838  10.094   3.389  0.5217 -0.7113  1.2063
  258MOL0     C34729   8.714  10.167   3.420  0.4905  0.3562 -0.1176
  258MOL0     O34730   8.683  10.293   3.373 -0.3911  0.0910 -0.1276
  258MOL0     C34731   8.701  10.321   3.235  1.2658 -0.6665 -0.8101
  258MOL0     C34732   8.835  10.375   3.186 -0.5758  0.3167  0.3143
  258MOL0     C34733   8.890  10.482   3.278 -0.3547 -0.1369 -0.0535
  258MOL0     C34734   8.806  10.618   3.276 -0.8437  0.0356 -0.1076
  258MOL0     C34735   8.837  10.715   3.390  0.2442  0.1362  0.1484
  258MOL0     C34736   8.705  10.779   3.425 -0.0433 -0.1138  0.3785
  258MOL0     C34737   8.730  10.886   3.529 -0.1980 -0.3791 -0.9606
  258MOL0     C34738   8.605  10.957   3.586  0.3262  0.0875  0.0904
  258MOL0    Cl34739   8.531  11.063   3.470 -0.0301 -0.1481 -0.2223
  258MOL0     C34740   8.622  10.102   3.506  0.2140 -0.0485  0.4998
  258MOL0     C34741   8.651   9.978   3.559  0.0921 -1.0673 -0.1632
  258MOL0     O34742   8.867   9.655   3.413  0.5384  0.0549  0.4915
  258MOL0     C34743   8.769   9.522   3.723  0.4357 -0.5076 -0.6868
  258MOL0     C34744   8.792   9.411   3.794  0.6548  0.3901  1.0118
  258MOL0     N34745   8.528   8.673   3.879  0.3601 -0.0961  0.5542
  258MOL0     N34746   8.401   8.672   3.904  0.5230 -1.0485 -0.1806
  258MOL0     C34747   7.856   9.561   3.436 -0.7187  0.6363 -0.0733
  258MOL0     C34748   7.820   9.671   3.360 -0.2863 -0.0556  0.2388
  258MOL0     C34749   7.655   9.933   3.027  0.6086 -0.2213 -0.2901
  258MOL0     C34750   7.718  10.032   3.093  0.6746  0.2960  0.0396
  258MOL0     C34751   7.692  10.172   3.053  1.0964 -0.9316  0.6021
  258MOL0     C34752   7.624  10.196   2.938  1.2148  0.6599  0.4504
  258MOL0     O34753   7.599  10.320   2.890 -0.1447 -0.5120 -0.3666
  258MOL0     C34754   7.655  10.333   2.754 -0.1013  0.4457 -0.1647
  258MOL0     C34755   7.780  10.429   2.763 -0.8427  0.4977 -0.2974
  258MOL0     C34756   7.865  10.425   2.897  0.6936 -0.0047  0.2250
  258MOL0     C34757   7.991  10.505   2.858 -0.3640 -0.3531 -1.0639
  258MOL0     C34758   7.998  10.634   2.939  0.9072 -0.3304  0.0208
  258MOL0     C34759   7.977  10.729   3.003 -0.1527  0.6937  0.0764
  258MOL0     C34760   7.563  10.092   2.872 -0.4687 -0.8387  0.3656
  258MOL0     C34761   7.570   9.962   2.919 -0.3848 -1.0378  0.2084
  258MOL0     C34762   7.512   9.853   2.824 -0.9576 -0.8350  0.2829
  258MOL0     H34763   7.531   9.559   3.212 -0.3318  1.2012  0.9333
  258MOL0     H34764   7.603   9.358   3.343  0.3550  0.1150  1.7530
  258MOL0     H34765   7.817   9.459   3.672  0.7033 -0.2342  1.1956
  258MOL0     H34766   7.739   9.300   3.680  1.8023 -1.1566  0.5932
  258MOL0     H34767   8.031   9.352   3.701  0.2961  1.2409  1.1598
  258MOL0     H34768   7.974   9.205   3.620  0.3629 -1.1087  1.2817
  258MOL0     H34769   7.821   9.197   3.848 -1.3704  1.2515 -1.5036
  258MOL0     H34770   7.926   9.320   3.903 -1.2163 -0.9423  0.9604
  258MOL0     H34771   7.989   9.028   3.827  3.1395 -1.7231  2.1025
  258MOL0     H34772   8.116   9.148   3.842  0.1958 -0.0647  0.3973
  258MOL0     H34773   8.028   9.193   4.081  1.5252  0.8395  1.3383
  258MOL0     H34774   7.927   9.047   4.068  2.1937 -1.2376  0.6724
  258MOL0     H34775   8.225   9.074   4.030 -0.4762  0.0748  0.2005
  258MOL0     H34776   8.139   8.996   4.164 -2.6901 -0.4964 -0.6687
  258MOL0     H34777   8.169   8.873   3.877  0.5799 -0.3625 -0.4154
  258MOL0     H34778   8.032   8.820   3.966  1.0548 -0.8022 -0.8590
  258MOL0     H34779   8.245   8.791   4.150 -0.8100  0.7971 -0.3373
  258MOL0     H34780   8.195   8.666   4.032  2.9344 -2.2614  2.6870
  258MOL0     H34781   8.496   8.890   4.124  0.7108  0.9416 -0.8060
  258MOL0     H34782   8.720   8.875   4.086 -4.1513  2.5648 -0.9336
  258MOL0     H34783   8.786   8.736   3.991  0.8053  1.4088  1.5418
  258MOL0     H34784   8.774   8.855   3.788 -2.5291 -2.5529  0.8775
  258MOL0     H34785   8.692   8.998   3.867 -2.1455 -1.6829 -1.8268
  258MOL0     H34786   8.979   8.901   3.913 -0.5751 -0.0886  0.4514
  258MOL0     H34787   8.916   9.040   4.001 -0.1274  1.0293 -0.6317
  258MOL0     H34788   8.916   9.050   3.713  2.4357  0.1701 -0.0148
  258MOL0     H34789   9.051   9.096   3.816  0.6692  2.1260  1.5854
  258MOL0     H34790   9.039   9.255   3.644 -0.4097 -0.5963  1.1020
  258MOL0     H34791   9.006   9.459   3.486  0.9572 -0.4020  0.3487
  258MOL0     H34792   8.952   9.920   3.419 -0.2413  1.7497 -4.1589
  258MOL0     H34793   8.917  10.139   3.330 -0.6265 -3.0067 -2.4101
  258MOL0     H34794   8.677  10.236   3.170  4.3343 -0.3329 -2.5310
  258MOL0     H34795   8.620  10.391   3.212  0.7026 -0.2947  1.9777
  258MOL0     H34796   8.904  10.290   3.197 -1.0940  0.1380  2.8098
  258MOL0     H34797   8.831  10.410   3.083 -0.3458 -2.1425 -0.6122
  258MOL0     H34798   8.893  10.434   3.377  1.2835  0.4386  0.2044
  258MOL0     H34799   8.994  10.497   3.246  0.2916 -0.3789  1.7650
  258MOL0     H34800   8.701  10.584   3.275 -0.3332 -1.8393  1.8539
  258MOL0     H34801   8.836  10.660   3.180  2.5162 -2.4863 -0.3544
  258MOL0     H34802   8.907  10.794   3.361 -0.8771  0.9074 -0.5682
  258MOL0     H34803   8.868  10.659   3.479 -1.8669  1.3709  1.7671
  258MOL0     H34804   8.661  10.835   3.342  1.1289  3.9059  2.2303
  258MOL0     H34805   8.629  10.710   3.465  0.7563  0.4527  3.0716
  258MOL0     H34806   8.790  10.972   3.495  0.4838  1.4365  4.0393
  258MOL0     H34807   8.778  10.829   3.609  1.3873  1.7195 -0.3262
  258MOL0     H34808   8.540  10.874   3.612  1.5854 -1.1029 -0.4477
  258MOL0     H34809   8.634  11.006   3.679 -0.7056 -2.6255  1.9707
  258MOL0     H34810   8.523  10.144   3.518  0.9934  1.6644  1.2204
  258MOL0     H34811   8.583   9.934   3.631  0.3291 -0.7482  0.2604
  258MOL0     H34812   8.686   9.588   3.749 -0.0270 -0.9564 -1.0072
  258MOL0     H34813   8.725   9.407   3.879  0.8171  3.2863  1.3885
  258MOL0     H34814   7.945   9.559   3.499 -2.1462 -1.5636  2.0553
  258MOL0     H34815   7.871   9.766   3.349 -1.7430  0.5005 -3.3108
  258MOL0     H34816   7.790  10.015   3.172  0.4100  0.2568  0.2701
  258MOL0     H34817   7.732  10.247   3.120 -0.4011  1.6154 -1.1899
  258MOL0     H34818   7.592  10.383   2.681  0.1687 -1.0176 -1.4608
  258MOL0     H34819   7.675  10.233   2.714 -2.7438 -0.0571 -0.3904
  258MOL0     H34820   7.748  10.533   2.752  0.6854  1.0549  0.2285
  258MOL0     H34821   7.845  10.397   2.681  0.4908 -0.6783  1.1439
  258MOL0     H34822   7.899  10.326   2.930  0.7795  0.1016  0.4549
  258MOL0     H34823   7.805  10.476   2.973  0.8216  0.5891 -0.0728
  258MOL0     H34824   8.071  10.433   2.874 -1.0502 -1.2686 -1.6801
  258MOL0     H34825   7.986  10.537   2.754 -1.7750  0.3672 -0.8037
  258MOL0     H34826   7.953  10.816   3.062 -1.1728 -0.5998  1.6585
  258MOL0     H34827   7.501  10.114   2.786  1.2743  3.0800 -0.0762
  258MOL0     H34828   7.586   9.839   2.745 -0.6643 -1.0511  0.5963
  258MOL0     H34829   7.495   9.752   2.863 -0.5177 -1.5421 -1.2642
  258MOL0     H34830   7.421   9.897   2.780  1.5843  2.2014 -2.4828
  259MOL0     O34831   2.174   6.118   0.139  0.7278 -0.0299 -0.6333
  259MOL0     C34832   2.140   6.005   0.122 -0.2021  0.4338  1.1756
  259MOL0     O34833   2.133   5.952  -0.006  0.2306 -0.2587 -0.5086
  259MOL0     C34834   2.164   6.021  -0.122 -0.5108  0.7439 -0.4458
  259MOL0     C34835   2.281   6.104  -0.127  0.4755 -0.4247  1.2005
  259MOL0     C34836   2.321   6.161  -0.249  0.0636  0.1055 -0.3288
  259MOL0     C34837   2.258   6.128  -0.369  0.5969 -0.1689  0.2398
  259MOL0     O34838   2.313   6.160  -0.485 -1.0996  0.0009 -0.9565
  259MOL0     C34839   2.285   6.096  -0.610 -0.1517  0.3238  0.4727
  259MOL0     C34840   2.384   6.158  -0.721 -0.8438 -0.3260  0.6387
  259MOL0     C34841   2.504   6.069  -0.755 -1.3286 -0.5276 -0.7389
  259MOL0     C34842   2.636   6.147  -0.736  1.2020  0.6178 -1.5553
  259MOL0     C34843   2.748   6.080  -0.814  0.2366  0.5526  0.3375
  259MOL0     C34844   2.892   6.144  -0.807 -0.7513  0.0595  0.0875
  259MOL0     C34845   3.016   6.074  -0.880  0.2551 -0.5988 -0.2149
  259MOL0     C34846   3.057   5.955  -0.793  0.2137  0.6575 -0.1536
  259MOL0     N34847   3.141   5.865  -0.870  0.2606  0.1446  0.7070
  259MOL0     C34848   3.136   5.840  -1.003 -1.1629  0.5715 -0.1312
  259MOL0     C34849   3.216   5.735  -1.024  0.6299  1.0875 -1.0281
  259MOL0     C34850   3.245   5.668  -1.153  0.5497 -0.1316 -0.0132
  259MOL0     C34851   3.160   5.544  -1.174  0.6387  0.0381 -0.6988
  259MOL0     C34852   3.118   5.502  -1.318  0.7428  0.4491 -1.6885
  259MOL0     C34853   2.995   5.595  -1.347  0.3906 -0.2307 -0.6430
  259MOL0     O34854   3.052   5.688  -1.437 -0.7870  0.0746  0.0649
  259MOL0     C34855   3.027   5.818  -1.415 -0.5163  0.8834  0.3267
  259MOL0     C34856   2.895   5.867  -1.382 -0.2546 -0.5881  0.1683
  259MOL0     C34857   2.871   6.003  -1.359 -1.0022  0.5693 -0.1029
  259MOL0     C34858   2.978   6.094  -1.396  0.0799  0.2634 -0.5736
  259MOL0     C34859   2.961   6.235  -1.359  0.8261 -0.4912 -0.1862
  259MOL0     O34860   3.058   6.326  -1.394 -0.6130 -0.2159 -0.1053
  259MOL0     C34861   3.054   6.454  -1.339 -0.7861 -0.0561 -0.0226
  259MOL0     C34862   3.171   6.499  -1.289 -0.0958 -0.2466 -0.9896
  259MOL0     C34863   3.181   6.642  -1.244 -0.1398  0.0675  1.0260
  259MOL0     C34864   3.072   6.722  -1.231  0.4635 -0.1100 -0.2888
  259MOL0     O34865   3.093   6.844  -1.173  0.0261  0.0330  1.0722
  259MOL0     C34866   3.008   6.960  -1.211  0.0692  0.6187  0.7166
  259MOL0     C34867   3.068   7.033  -1.335  0.0651  0.6414  0.0968
  259MOL0     C34868   2.963   7.125  -1.396  0.0440  0.2019 -0.1960
  259MOL0     C34869   3.022   7.205  -1.505 -1.0568 -0.2321  0.3575
  259MOL0     C34870   3.014   7.357  -1.491  0.8083  0.1725  0.0030
  259MOL0     C34871   3.065   7.422  -1.621 -0.1377  0.4643 -0.3783
  259MOL0     C34872   3.134   7.562  -1.592 -0.5677  0.1814  0.4522
  259MOL0     C34873   3.036   7.664  -1.535  0.0767  0.1182  0.5011
  259MOL0    Cl34874   3.124   7.802  -1.480  0.2970 -0.0291 -0.3641
  259MOL0     C34875   2.948   6.669  -1.276  0.5852  0.0555  0.2763
  259MOL0     C34876   2.930   6.539  -1.333 -0.0466 -0.2114  1.1940
  259MOL0     O34877   2.875   6.254  -1.270 -0.2861  0.4376  0.1917
  259MOL0     C34878   3.101   6.046  -1.443  0.0398  1.1398  0.4349
  259MOL0     C34879   3.127   5.911  -1.455 -1.2017 -0.3459 -0.8513
  259MOL0     N34880   3.256   5.690  -0.896 -0.7716  0.1845  0.0082
  259MOL0     N34881   3.207   5.766  -0.805 -0.5484 -0.7823 -0.1414
  259MOL0     C34882   2.150   6.042  -0.367  0.6867  0.1040  0.6755
  259MOL0     C34883   2.104   5.983  -0.240  0.4217  0.2453 -0.6347
  259MOL0     C34884   2.098   5.923   0.239 -0.5598 -0.1191 -0.5795
  259MOL0     C34885   1.998   5.822   0.216  0.1589  0.9078 -0.0130
  259MOL0     C34886   1.937   5.759   0.335  0.3542 -0.2903  0.1875
  259MOL0     C34887   1.966   5.798   0.463 -0.1265 -0.2584  0.3631
  259MOL0     O34888   1.893   5.749   0.571  1.1824  0.0531 -0.4553
  259MOL0     C34889   1.913   5.789   0.704  0.9911 -0.4077  0.6777
  259MOL0     C34890   1.808   5.896   0.763 -0.0011 -0.3772 -0.5202
  259MOL0     C34891   1.801   6.036   0.709  0.8576  0.2828  0.0365
  259MOL0     C34892   1.917   6.126   0.740 -0.0849 -0.3420 -0.5814
  259MOL0     C34893   1.897   6.264   0.680 -0.0729 -1.1189  0.6345
  259MOL0     C34894   1.902   6.372   0.610  0.4285  0.8193 -0.3920
  259MOL0     C34895   2.072   5.891   0.477 -0.2951  0.7054  0.8554
  259MOL0     C34896   2.144   5.947   0.364  0.6801  0.7484 -0.7116
  259MOL0     C34897   2.273   6.018   0.400  0.1242 -0.5114  0.0324
  259MOL0     H34898   2.349   6.121  -0.044  2.6796  1.5537 -0.8572
  259MOL0     H34899   2.406   6.228  -0.239 -1.0054  1.4655 -0.0431
  259MOL0     H34900   2.286   5.986  -0.613 -1.3411  0.2713  1.3913
  259MOL0     H34901   2.182   6.123  -0.634  0.8017  1.9875 -2.1540
  259MOL0     H34902   2.414   6.257  -0.687  1.6643 -1.4199  1.9460
  259MOL0     H34903   2.319   6.165  -0.808  0.6692 -1.2466 -0.6159
  259MOL0     H34904   2.501   6.034  -0.858 -0.9909  0.4864 -1.1081
  259MOL0     H34905   2.500   5.986  -0.684  0.5182 -0.5225 -0.5965
  259MOL0     H34906   2.619   6.241  -0.790 -1.5916 -0.5117 -2.8623
  259MOL0     H34907   2.664   6.170  -0.632  4.3473  2.5582 -2.6880
  259MOL0     H34908   2.756   5.979  -0.773  3.6297  0.1822 -0.9326
  259MOL0     H34909   2.718   6.074  -0.920  0.2120  1.1857  0.3046
  259MOL0     H34910   2.883   6.244  -0.852  0.2573  0.3125  0.4089
  259MOL0     H34911   2.910   6.167  -0.702  0.8034  1.2121 -0.3809
  259MOL0     H34912   3.100   6.145  -0.873  0.7021 -1.1889  0.6154
  259MOL0     H34913   2.985   6.041  -0.979 -0.7043  0.4133 -0.2685
  259MOL0     H34914   3.125   5.991  -0.716  0.6363  1.9572 -1.1011
  259MOL0     H34915   2.970   5.908  -0.748 -2.1096  2.0254 -2.9030
  259MOL0     H34916   3.090   5.907  -1.075 -3.1024 -0.6587 -0.0996
  259MOL0     H34917   3.214   5.745  -1.225  2.0590  0.8110  0.2912
  259MOL0     H34918   3.350   5.639  -1.151  0.1179 -1.7674  1.0978
  259MOL0     H34919   3.187   5.454  -1.117 -0.7841 -0.6389 -1.0445
  259MOL0     H34920   3.071   5.555  -1.111  0.5185 -1.3004 -0.5866
  259MOL0     H34921   3.097   5.395  -1.310 -0.7354  0.8454  2.9710
  259MOL0     H34922   3.202   5.520  -1.385  1.3046  1.1711 -0.8175
  259MOL0     H34923   2.948   5.641  -1.260 -2.0682 -1.8669 -0.9980
  259MOL0     H34924   2.921   5.527  -1.391 -1.8225  0.9584  1.0670
  259MOL0     H34925   2.819   5.790  -1.375 -0.9830  0.2255  2.0687
  259MOL0     H34926   2.775   6.037  -1.322 -2.2993 -1.6428 -1.2535
  259MOL0     H34927   3.259   6.437  -1.280  2.2788  2.9000 -0.5183
  259MOL0     H34928   3.275   6.677  -1.201  1.8587 -4.7400  1.2434
  259MOL0     H34929   2.904   6.928  -1.220  0.7269 -1.1405 -1.4939
  259MOL0     H34930   3.007   7.027  -1.125 -1.3759  1.7241 -0.1070
  259MOL0     H34931   3.153   7.093  -1.303  2.0378 -1.1656 -1.4463
  259MOL0     H34932   3.090   6.957  -1.411 -1.6280 -1.4733  1.5880
  259MOL0     H34933   2.876   7.069  -1.434  0.0231  0.8792 -1.1864
  259MOL0     H34934   2.923   7.193  -1.320  0.2738  0.6234 -0.4543
  259MOL0     H34935   2.978   7.175  -1.601  2.6127  0.7103 -1.8116
  259MOL0     H34936   3.131   7.197  -1.512 -0.6451  2.1499  2.5948
  259MOL0     H34937   3.074   7.387  -1.405  0.5292 -1.0458  0.6526
  259MOL0     H34938   2.912   7.391  -1.476  1.0824  1.0337 -0.0383
  259MOL0     H34939   3.143   7.361  -1.667 -1.3422 -1.3238 -0.1414
  259MOL0     H34940   2.986   7.435  -1.695 -2.3046  1.3613  1.9448
  259MOL0     H34941   3.173   7.601  -1.687  2.8281  0.0149  1.6187
  259MOL0     H34942   3.223   7.536  -1.534  1.0042 -1.0426 -2.2889
  259MOL0     H34943   2.961   7.696  -1.608  0.0780  0.4788  0.6546
  259MOL0     H34944   2.991   7.616  -1.448  2.2965 -1.3670  0.9172
  259MOL0     H34945   2.857   6.729  -1.271  0.6271  0.0715  3.7739
  259MOL0     H34946   2.832   6.499  -1.357  0.3362 -0.6137  0.2087
  259MOL0     H34947   3.183   6.115  -1.460  0.4410  0.2212 -1.5765
  259MOL0     H34948   3.216   5.862  -1.495  1.6815  2.4905  1.4861
  259MOL0     H34949   2.101   5.991  -0.449  0.5525  1.3750 -0.0581
  259MOL0     H34950   2.022   5.912  -0.232  0.8533 -0.0862  1.4433
  259MOL0     H34951   1.955   5.804   0.117 -0.1191  0.0727  0.2491
  259MOL0     H34952   1.861   5.685   0.310 -0.1212  0.6914 -1.4867
  259MOL0     H34953   2.020   5.802   0.727  1.2464 -2.1591  0.6282
  259MOL0     H34954   1.907   5.694   0.757 -1.2191 -1.0978 -0.6664
  259MOL0     H34955   1.825   5.896   0.871  0.0565  1.1253 -0.5087
  259MOL0     H34956   1.707   5.856   0.758 -0.0383 -0.3258 -0.1704
  259MOL0     H34957   1.716   6.085   0.758  0.6607  1.4491 -1.3764
  259MOL0     H34958   1.776   6.025   0.603  0.1000  1.8627  0.0117
  259MOL0     H34959   1.930   6.132   0.848 -0.8312 -0.9969 -0.4511
  259MOL0     H34960   2.011   6.088   0.700 -0.6511  1.1377 -3.6522
  259MOL0     H34961   1.907   6.468   0.563  0.6869  1.2516  0.4956
  259MOL0     H34962   2.120   5.917   0.571  3.1209  0.9311 -0.8148
  259MOL0     H34963   2.339   5.965   0.469  2.9663  2.4468 -0.2261
  259MOL0     H34964   2.332   6.053   0.316  1.4984 -0.8847  0.8201
  259MOL0     H34965   2.242   6.108   0.454 -1.9722  1.2039 -3.6496
  260MOL0     O34966   9.805   7.388   1.168 -1.0008 -0.8719  0.1284
  260MOL0     C34967   9.871   7.289   1.189 -0.0716 -0.3888  0.2673
  260MOL0     O34968  10.002   7.276   1.172 -0.0377  0.5635  0.8491
  260MOL0     C34969  10.090   7.387   1.154 -0.0186 -0.3642 -0.6444
  260MOL0     C34970  10.214   7.394   1.213  0.2455 -0.5044  0.3133
  260MOL0     C34971  10.308   7.494   1.184  0.3291 -0.8141  0.3175
  260MOL0     C34972  10.274   7.592   1.085 -1.7417  0.8698  0.2079
  260MOL0     O34973  10.371   7.682   1.047  0.4449  0.1982 -0.0487
  260MOL0     C34974  10.390   7.788   1.140  0.1858  0.5750  0.6916
  260MOL0     C34975  10.524   7.755   1.211  1.1121 -0.3044  0.1298
  260MOL0     C34976  10.642   7.807   1.121  0.7789  0.5469  0.2059
  260MOL0     C34977  10.765   7.769   1.192 -0.2718  0.2505 -0.4718
  260MOL0     C34978  10.880   7.816   1.092 -0.8076 -0.6742 -0.3228
  260MOL0     C34979  11.031   7.781   1.130  0.5521 -0.5762  0.0711
  260MOL0     C34980  11.127   7.878   1.060  0.7174  1.4820 -0.2804
  260MOL0     C34981  11.136   7.850   0.910  0.0157 -0.4019  0.3421
  260MOL0     N34982  11.221   7.949   0.833  0.9335 -0.3240  0.0399
  260MOL0     C34983  11.358   7.939   0.817  0.7390 -0.6071 -0.2318
  260MOL0     C34984  11.395   8.013   0.716 -0.6818 -0.5996  0.0850
  260MOL0     C34985  11.537   8.043   0.672 -0.7759  0.8803 -0.6933
  260MOL0     C34986  11.564   8.198   0.657  0.8823 -0.3756  0.1052
  260MOL0     C34987  11.715   8.240   0.673 -0.4874 -0.3450  0.4796
  260MOL0     C34988  11.728   8.383   0.634 -0.3425  0.7782 -0.3038
  260MOL0     O34989  11.826   8.464   0.707  0.2773  0.2742  0.6037
  260MOL0     C34990  11.804   8.496   0.840  0.5697 -0.0547 -0.2080
  260MOL0     C34991  11.697   8.445   0.926  0.0793 -0.3971  0.0703
  260MOL0     C34992  11.695   8.489   1.058  0.2342 -0.2692 -0.8665
  260MOL0     C34993  11.786   8.579   1.114 -1.2689 -0.3567 -0.3751
  260MOL0     C34994  11.766   8.640   1.242 -0.1127 -0.0853  0.9617
  260MOL0     O34995  11.637   8.636   1.304 -0.4368  0.9346  0.2994
  260MOL0     C34996  11.622   8.685   1.435 -0.7659  0.5163 -1.1631
  260MOL0     C34997  11.535   8.611   1.526 -0.4515 -0.5208 -0.5343
  260MOL0     C34998  11.519   8.662   1.660 -0.2261  0.0067 -0.5489
  260MOL0     C34999  11.577   8.786   1.696  0.2350 -0.8956 -0.8600
  260MOL0     O35000  11.547   8.830   1.826 -0.0113 -0.3124 -0.1495
  260MOL0     C35001  11.589   8.956   1.867 -0.8792 -0.1622  1.2849
  260MOL0     C35002  11.560   8.965   2.016  0.5465  0.0504 -0.0988
  260MOL0     C35003  11.624   9.074   2.087  0.5721 -0.1433 -0.6045
  260MOL0     C35004  11.606   9.074   2.237 -0.2801  0.3878 -0.0884
  260MOL0     C35005  11.696   9.164   2.317 -0.9233 -0.0147  0.6552
  260MOL0     C35006  11.696   9.151   2.473  0.2798  0.4014 -0.5793
  260MOL0     C35007  11.726   8.998   2.504 -0.6424 -0.2108 -0.3056
  260MOL0     C35008  11.774   8.976   2.653 -0.4091  0.7096 -0.3633
  260MOL0    Cl35009  11.636   8.986   2.765 -0.0919 -0.4300  0.1454
  260MOL0     C35010  11.654   8.853   1.598  0.1676 -0.3961 -0.0057
  260MOL0     C35011  11.681   8.798   1.473 -0.5411 -0.0219 -0.7267
  260MOL0     O35012  11.865   8.693   1.294 -0.4476  0.3211 -0.4978
  260MOL0     C35013  11.903   8.610   1.035  0.4959 -0.9655  0.3201
  260MOL0     C35014  11.910   8.569   0.904  0.0632  0.7789  1.3358
  260MOL0     N35015  11.281   8.069   0.660 -0.2415  0.4861 -0.0319
  260MOL0     N35016  11.181   8.022   0.725 -0.0592  0.1502  0.0984
  260MOL0     C35017  10.152   7.577   1.018  0.0781 -0.5108 -1.0884
  260MOL0     C35018  10.065   7.483   1.054  0.2066  0.3964 -0.0432
  260MOL0     C35019   9.794   7.181   1.251  0.0393  0.0307 -0.3686
  260MOL0     C35020   9.862   7.059   1.279  0.3435 -0.5428  0.0491
  260MOL0     C35021   9.796   6.950   1.334  0.1015 -0.3351  0.1538
  260MOL0     C35022   9.658   6.942   1.343  0.7373  0.3095 -0.3333
  260MOL0     O35023   9.582   6.825   1.367 -1.0176 -0.1708 -0.6365
  260MOL0     C35024   9.657   6.710   1.414 -0.6943 -0.6185 -1.3589
  260MOL0     C35025   9.560   6.589   1.438  0.4833 -0.6158  0.3257
  260MOL0     C35026   9.517   6.524   1.311  0.7296  0.2764 -0.2230
  260MOL0     C35027   9.413   6.417   1.331 -0.6503  0.0364 -0.3650
  260MOL0     C35028   9.360   6.376   1.201  0.3347  0.1216 -0.2944
  260MOL0     C35029   9.304   6.357   1.098 -0.2040  0.9303 -0.8608
  260MOL0     C35030   9.588   7.058   1.316 -0.0358 -0.0102  0.0575
  260MOL0     C35031   9.654   7.179   1.283 -0.1273  0.3163 -0.7986
  260MOL0     C35032   9.564   7.299   1.268 -0.1201 -0.8614  1.1220
  260MOL0     H35033  10.245   7.320   1.287 -1.7818 -0.0449  1.6897
  260MOL0     H35034  10.401   7.493   1.240 -0.2470 -0.4771  1.3138
  260MOL0     H35035  10.379   7.879   1.081 -1.9063 -1.0477 -1.5900
  260MOL0     H35036  10.306   7.776   1.209 -0.2926  0.3563  0.0689
  260MOL0     H35037  10.549   7.649   1.202  0.9413 -0.3920  0.6652
  260MOL0     H35038  10.529   7.796   1.312 -1.2378  0.3264  0.0623
  260MOL0     H35039  10.629   7.912   1.094  0.3345  1.5872  3.9111
  260MOL0     H35040  10.648   7.748   1.029  0.5471  0.4374  0.2591
  260MOL0     H35041  10.776   7.831   1.282 -0.8563 -1.3750  0.7604
  260MOL0     H35042  10.775   7.666   1.226  0.1079  0.9768  1.7973
  260MOL0     H35043  10.860   7.779   0.991  2.2422 -2.0440 -0.5195
  260MOL0     H35044  10.873   7.926   1.094 -1.0035 -0.6960  1.1445
  260MOL0     H35045  11.042   7.786   1.239  0.9556 -0.4284  0.0249
  260MOL0     H35046  11.061   7.680   1.099  2.1529  0.3417 -1.4924
  260MOL0     H35047  11.224   7.872   1.110  0.8010 -0.7644 -0.6341
  260MOL0     H35048  11.095   7.981   1.078  2.2066  1.9033  0.1651
  260MOL0     H35049  11.191   7.755   0.913 -0.7796 -0.8947  3.6974
  260MOL0     H35050  11.040   7.842   0.859  0.7831  4.7756 -2.5840
  260MOL0     H35051  11.424   7.869   0.866  1.3230  0.4906  0.6078
  260MOL0     H35052  11.615   8.004   0.738 -2.9492  1.4307  2.3771
  260MOL0     H35053  11.545   7.998   0.572 -2.0907 -1.2348  0.0784
  260MOL0     H35054  11.547   8.221   0.552  1.8195 -1.7052 -0.3643
  260MOL0     H35055  11.501   8.253   0.728  0.1497 -2.8315  1.5153
  260MOL0     H35056  11.771   8.182   0.598  0.0584  2.5063 -1.4787
  260MOL0     H35057  11.745   8.215   0.775 -0.0493 -3.2705 -0.2453
  260MOL0     H35058  11.627   8.426   0.639 -0.3230  0.6809  1.0782
  260MOL0     H35059  11.766   8.389   0.531 -2.6081 -4.7591 -1.7989
  260MOL0     H35060  11.629   8.366   0.895 -1.3435  0.8445 -0.0986
  260MOL0     H35061  11.621   8.449   1.125  0.3961 -0.5174 -0.8348
  260MOL0     H35062  11.497   8.518   1.484 -4.5464  0.3894  0.6348
  260MOL0     H35063  11.465   8.610   1.738  2.4112  2.3832  3.1536
  260MOL0     H35064  11.696   8.963   1.844 -1.0531  1.2689  0.8289
  260MOL0     H35065  11.536   9.026   1.802 -0.9072 -3.1109 -2.2369
  260MOL0     H35066  11.451   8.968   2.030  0.1241 -2.8914 -1.9217
  260MOL0     H35067  11.588   8.872   2.066  1.0321  0.7187  0.9051
  260MOL0     H35068  11.731   9.065   2.072  0.7283 -1.1442  0.9565
  260MOL0     H35069  11.588   9.167   2.041 -1.4968 -1.0364 -0.9280
  260MOL0     H35070  11.621   8.970   2.269  0.7350  0.8463  0.9901
  260MOL0     H35071  11.504   9.104   2.258 -1.5704 -0.3307 -4.3173
  260MOL0     H35072  11.670   9.269   2.296  1.9742  0.6249 -0.1260
  260MOL0     H35073  11.798   9.141   2.286 -0.5396 -3.6714  3.9166
  260MOL0     H35074  11.785   9.199   2.516 -0.8045  1.5672  0.4468
  260MOL0     H35075  11.600   9.191   2.508  0.5812  0.7029 -0.0850
  260MOL0     H35076  11.807   8.965   2.438  1.0792  1.6011  0.7808
  260MOL0     H35077  11.648   8.925   2.480 -0.3149 -0.8679  0.5633
  260MOL0     H35078  11.800   8.872   2.674 -0.8691  0.5068 -0.7851
  260MOL0     H35079  11.866   9.031   2.676 -0.7115  2.0266 -2.0574
  260MOL0     H35080  11.690   8.953   1.620  1.2764 -0.7708 -0.0615
  260MOL0     H35081  11.751   8.852   1.410  0.6975 -1.6546 -0.8088
  260MOL0     H35082  11.988   8.674   1.059 -0.0737  0.3693 -1.0619
  260MOL0     H35083  11.977   8.609   0.829 -1.4636  1.3892  0.2493
  260MOL0     H35084  10.137   7.650   0.939 -2.6837 -0.9614 -1.0851
  260MOL0     H35085   9.980   7.467   0.990  1.0595 -0.0615 -1.0984
  260MOL0     H35086   9.969   7.057   1.267  0.4571 -0.2172  0.8882
  260MOL0     H35087   9.853   6.859   1.350  0.4385 -0.7678 -2.9687
  260MOL0     H35088   9.704   6.722   1.512 -5.8699  1.2832  1.3125
  260MOL0     H35089   9.734   6.688   1.340  0.1971  2.4779 -1.4905
  260MOL0     H35090   9.470   6.616   1.494  0.4065  1.4770 -0.7191
  260MOL0     H35091   9.615   6.513   1.494  1.0350 -2.1591 -2.1616
  260MOL0     H35092   9.601   6.482   1.255 -0.4271  0.5662 -2.2590
  260MOL0     H35093   9.467   6.593   1.243 -1.7645  0.0312  1.2107
  260MOL0     H35094   9.452   6.329   1.382 -1.5698  0.2894  0.8158
  260MOL0     H35095   9.333   6.462   1.390 -2.4511 -0.0239 -2.6178
  260MOL0     H35096   9.249   6.351   1.006  1.5690  2.1197 -2.0430
  260MOL0     H35097   9.485   7.048   1.347  0.8288 -1.5913  2.7853
  260MOL0     H35098   9.465   7.270   1.304  0.7506 -3.6637  1.5152
  260MOL0     H35099   9.618   7.374   1.327  0.1650 -0.5930  0.5299
  260MOL0     H35100   9.559   7.326   1.162  2.9922  1.3964  1.3981
  261MOL0     O35101   5.393   5.827   6.858 -0.3072 -0.1410 -1.0349
  261MOL0     C35102   5.435   5.881   6.752  0.0720 -0.8135  0.8330
  261MOL0     O35103   5.551   5.948   6.741  0.1937  0.4971 -0.3966
  261MOL0     C35104   5.647   5.934   6.838 -0.2839 -0.5270  0.4453
  261MOL0     C35105   5.718   5.812   6.874  0.2026  0.1974  0.5361
  261MOL0     C35106   5.832   5.812   6.965 -0.5762 -0.5967  0.8011
  261MOL0     C35107   5.860   5.930   7.031 -0.1764  0.1166 -0.1446
  261MOL0     O35108   5.957   5.951   7.128  0.5362 -0.4748 -0.0743
  261MOL0     C35109   6.000   5.833   7.188  0.3484 -0.0089 -0.0180
  261MOL0     C35110   6.071   5.868   7.313  0.4290  0.3365  0.4216
  261MOL0     C35111   6.218   5.890   7.291  0.0920 -0.5117 -0.2204
  261MOL0     C35112   6.296   5.906   7.423  0.2886  0.1255 -0.0799
  261MOL0     C35113   6.448   5.905   7.395 -0.0251 -0.0945 -0.6225
  261MOL0     C35114   6.495   6.038   7.337 -0.4917 -0.1902  0.0633
  261MOL0     C35115   6.640   6.036   7.292  0.0727  0.2575 -0.0573
  261MOL0     C35116   6.657   5.969   7.157  0.1999  0.9051 -0.4279
  261MOL0     N35117   6.791   5.988   7.102 -1.6527 -0.1669 -0.1684
  261MOL0     C35118   6.904   5.919   7.153 -0.5918 -0.4960 -0.0540
  261MOL0     C35119   7.009   5.952   7.073  0.0959 -0.2429  0.0081
  261MOL0     C35120   7.159   5.917   7.082  0.1902 -0.0194  0.5191
  261MOL0     C35121   7.200   5.770   7.042  0.0058 -1.0764 -0.2537
  261MOL0     C35122   7.189   5.759   6.890 -0.9866 -0.3640 -0.3797
  261MOL0     C35123   7.070   5.656   6.863 -1.4253  0.8514 -0.8791
  261MOL0     O35124   6.954   5.699   6.928  0.7650 -0.3854 -0.0151
  261MOL0     C35125   6.836   5.625   6.913 -0.4693 -1.0520  0.0410
  261MOL0     C35126   6.839   5.487   6.923  0.3530  0.2711 -0.1161
  261MOL0     C35127   6.717   5.427   6.943  0.3475 -0.7510  0.6115
  261MOL0     C35128   6.600   5.491   6.956  0.2488  0.5506  0.8731
  261MOL0     C35129   6.468   5.424   6.979 -0.1501 -0.9012  1.0652
  261MOL0     O35130   6.472   5.291   6.996  0.0885  0.2262  0.1523
  261MOL0     C35131   6.364   5.212   7.002  0.6845 -0.3375  0.6088
  261MOL0     C35132   6.267   5.192   6.899 -0.4492  0.6283 -0.1323
  261MOL0     C35133   6.176   5.085   6.923 -0.6233 -0.0381 -0.3938
  261MOL0     C35134   6.172   5.009   7.040 -0.1699  0.2670 -0.0437
  261MOL0     O35135   6.095   4.897   7.058 -0.3147  0.4619 -0.4354
  261MOL0     C35136   5.980   4.864   6.973  0.9659  0.2127 -0.6440
  261MOL0     C35137   5.841   4.940   7.013 -0.9309 -0.8296 -0.3795
  261MOL0     C35138   5.794   4.922   7.160 -0.0196 -0.1682  0.1918
  261MOL0     C35139   5.806   4.772   7.198  0.7844  0.8172 -0.1128
  261MOL0     C35140   5.712   4.757   7.319  0.3015  0.1456 -0.7372
  261MOL0     C35141   5.727   4.626   7.401  0.6638  0.1417 -0.3134
  261MOL0     C35142   5.845   4.614   7.498 -0.1323  0.3811 -0.6855
  261MOL0     C35143   5.855   4.490   7.576 -0.6200 -0.6667  1.1731
  261MOL0    Cl35144   5.986   4.523   7.684 -0.2996 -0.4056  0.3603
  261MOL0     C35145   6.258   5.039   7.145  0.0603  0.4091  0.5509
  261MOL0     C35146   6.347   5.141   7.123  0.0168 -0.3171 -0.9575
  261MOL0     O35147   6.369   5.491   6.992  0.1103  0.4621 -0.1769
  261MOL0     C35148   6.606   5.634   6.946  0.7629  0.5093 -0.0997
  261MOL0     C35149   6.721   5.706   6.923  0.0729 -0.9746  0.5271
  261MOL0     N35150   6.962   6.027   6.969 -0.2391 -0.0304 -0.2275
  261MOL0     N35151   6.834   6.054   6.987  0.0733  0.5754 -0.0419
  261MOL0     C35152   5.783   6.040   7.012 -0.7986  0.1534  0.4022
  261MOL0     C35153   5.685   6.046   6.907 -0.4033  0.0230  0.3669
  261MOL0     C35154   5.331   5.901   6.651 -0.3173 -0.2086  0.1145
  261MOL0     C35155   5.329   6.025   6.586  0.1546  0.9631  0.2210
  261MOL0     C35156   5.242   6.038   6.474 -0.0368 -0.5833 -0.7311
  261MOL0     C35157   5.138   5.959   6.455 -0.4707 -0.0152 -0.2807
  261MOL0     O35158   5.059   5.996   6.352 -0.2419 -0.3812  0.2942
  261MOL0     C35159   4.936   5.923   6.331 -0.1554  0.4872  0.6377
  261MOL0     C35160   4.840   6.009   6.244 -0.8792 -0.2754  0.1018
  261MOL0     C35161   4.901   6.053   6.112 -0.8355  0.0645  0.1945
  261MOL0     C35162   4.808   6.138   6.023  0.0122 -0.0102  0.6017
  261MOL0     C35163   4.688   6.064   5.974 -0.3379 -0.2281  0.4686
  261MOL0     C35164   4.582   6.006   5.962  0.2549 -0.3752  0.7260
  261MOL0     C35165   5.132   5.839   6.528  0.7405  0.4442 -0.7702
  261MOL0     C35166   5.235   5.804   6.621 -0.2127 -0.1538  0.5955
  261MOL0     C35167   5.232   5.657   6.673 -0.4511 -0.6762 -0.6068
  261MOL0     H35168   5.678   5.718   6.837  0.8062  0.9756 -2.3148
  261MOL0     H35169   5.893   5.731   7.003 -0.1715 -0.1906  1.0248
  261MOL0     H35170   5.927   5.754   7.208  2.1538 -1.3200  1.8463
  261MOL0     H35171   6.074   5.789   7.120  2.2190  1.6036  0.8684
  261MOL0     H35172   6.057   5.784   7.382 -1.0792  1.2944  1.3296
  261MOL0     H35173   6.028   5.953   7.367 -0.2285 -0.6396  1.4899
  261MOL0     H35174   6.226   5.982   7.231 -2.6653 -2.1086 -3.3587
  261MOL0     H35175   6.259   5.802   7.243 -1.5975 -2.3187  1.4622
  261MOL0     H35176   6.268   5.999   7.473 -1.0519 -1.0966  1.5650
  261MOL0     H35177   6.274   5.831   7.500  0.6624  2.3258  2.3186
  261MOL0     H35178   6.493   5.897   7.494  1.1641  0.4368 -1.0959
  261MOL0     H35179   6.479   5.817   7.337  1.8338  0.1636 -0.0720
  261MOL0     H35180   6.426   6.077   7.261  1.1816  1.1743 -0.8346
  261MOL0     H35181   6.475   6.124   7.401 -1.5308 -0.0989 -0.3476
  261MOL0     H35182   6.701   5.999   7.375 -1.6120  1.9229  2.0743
  261MOL0     H35183   6.661   6.142   7.277 -3.8376  0.9400 -2.1530
  261MOL0     H35184   6.636   5.863   7.177 -0.2001  0.6796 -1.9213
  261MOL0     H35185   6.583   6.011   7.089 -2.3047  3.0845  3.2960
  261MOL0     H35186   6.910   5.852   7.238  0.7555 -0.4477 -0.0893
  261MOL0     H35187   7.210   5.986   7.014  0.4941 -2.2150 -1.6046
  261MOL0     H35188   7.201   5.932   7.182  1.5227 -1.1402  0.1701
  261MOL0     H35189   7.302   5.744   7.073  0.2716  0.5710  0.3270
  261MOL0     H35190   7.128   5.707   7.097  0.1762 -0.9629  0.1055
  261MOL0     H35191   7.286   5.720   6.856 -1.5505 -0.5920 -1.7656
  261MOL0     H35192   7.168   5.853   6.839  1.3436  0.5763  0.2372
  261MOL0     H35193   7.091   5.553   6.893 -0.9652  1.8735  2.8983
  261MOL0     H35194   7.050   5.655   6.756 -1.4439  4.1775 -1.0158
  261MOL0     H35195   6.925   5.421   6.916 -0.8229 -1.1954 -1.6739
  261MOL0     H35196   6.723   5.318   6.946  1.4173 -0.7820 -1.1246
  261MOL0     H35197   6.249   5.252   6.811 -1.8626  0.0698 -0.2514
  261MOL0     H35198   6.108   5.070   6.840  0.6846 -0.2916 -1.4640
  261MOL0     H35199   6.005   4.882   6.868  0.3806  0.3398 -0.7669
  261MOL0     H35200   5.966   4.756   6.979 -0.6582  0.4580  4.0783
  261MOL0     H35201   5.861   5.045   6.988 -1.8564 -1.2387 -3.2060
  261MOL0     H35202   5.753   4.921   6.951 -1.8586  1.9224 -0.0469
  261MOL0     H35203   5.847   4.989   7.230 -1.8958 -2.5359  4.2461
  261MOL0     H35204   5.687   4.938   7.176 -0.6586 -5.3737  3.1872
  261MOL0     H35205   5.911   4.743   7.212  0.6289  0.0856 -0.4284
  261MOL0     H35206   5.764   4.703   7.124 -1.8951 -0.8467  2.7183
  261MOL0     H35207   5.610   4.768   7.281 -0.0457  0.9659  0.3615
  261MOL0     H35208   5.729   4.841   7.387 -0.0040  0.8054 -1.4607
  261MOL0     H35209   5.640   4.607   7.465  1.6308 -2.2135  0.4067
  261MOL0     H35210   5.728   4.540   7.334  1.3875  1.9147 -2.7142
  261MOL0     H35211   5.865   4.704   7.556 -1.0332  1.1732 -1.5661
  261MOL0     H35212   5.930   4.610   7.429  0.6049 -0.1165  0.2269
  261MOL0     H35213   5.764   4.452   7.623 -1.2326  0.0740  0.6130
  261MOL0     H35214   5.905   4.410   7.520 -0.6134 -0.7950  1.3596
  261MOL0     H35215   6.247   4.971   7.229 -0.7009  0.8079  0.7783
  261MOL0     H35216   6.412   5.162   7.207  0.1884 -2.4403 -0.5021
  261MOL0     H35217   6.515   5.693   6.962  0.4358 -0.0388  0.0749
  261MOL0     H35218   6.717   5.814   6.915 -1.9625 -0.9042  1.8027
  261MOL0     H35219   5.799   6.129   7.072  1.0905 -0.1487  0.4006
  261MOL0     H35220   5.622   6.130   6.878 -1.2204 -0.9045 -0.6182
  261MOL0     H35221   5.403   6.102   6.609  0.3590  1.4611 -1.9053
  261MOL0     H35222   5.248   6.118   6.401 -1.0180 -0.1074 -0.2964
  261MOL0     H35223   4.886   5.888   6.422  1.7757  1.3101  2.0950
  261MOL0     H35224   4.964   5.832   6.277  2.0998  1.0081  0.8333
  261MOL0     H35225   4.814   6.106   6.287 -1.5667  0.6027 -2.1135
  261MOL0     H35226   4.755   5.946   6.217  1.7605 -4.3411  0.4085
  261MOL0     H35227   4.913   5.962   6.053 -0.4700 -0.3438  0.8739
  261MOL0     H35228   5.002   6.096   6.113 -2.0011  3.1161 -1.2109
  261MOL0     H35229   4.771   6.225   6.078 -0.6378 -0.8455  1.5254
  261MOL0     H35230   4.856   6.174   5.932  1.5064 -1.8275  0.6208
  261MOL0     H35231   4.492   5.952   5.945  1.2677 -2.1383  0.7667
  261MOL0     H35232   5.057   5.766   6.497  2.0002 -1.2443 -0.0206
  261MOL0     H35233   5.204   5.651   6.778  1.0056 -3.9867 -0.2929
  261MOL0     H35234   5.155   5.595   6.627 -1.5649  2.1090 -2.8435
  261MOL0     H35235   5.331   5.612   6.662 -0.7059 -1.2140 -0.7085
  262MOL0     O35236   7.031   7.694   5.497 -0.3653 -0.4230 -0.3581
  262MOL0     C35237   6.932   7.665   5.430 -0.8035 -0.1160  0.0092
  262MOL0     O35238   6.855   7.550   5.452 -0.6508 -0.8529 -0.8697
  262MOL0     C35239   6.753   7.514   5.365  0.1397  0.3604 -0.2338
  262MOL0     C35240   6.788   7.480   5.235 -0.5981  0.1562  0.4577
  262MOL0     C35241   6.697   7.426   5.148  0.0661  0.3635  0.0223
  262MOL0     C35242   6.561   7.449   5.179 -0.2208 -1.0987  1.6208
  262MOL0     O35243   6.476   7.433   5.073 -0.0173 -0.2463 -0.4965
  262MOL0     C35244   6.338   7.466   5.076 -1.0845  0.6622 -0.3529
  262MOL0     C35245   6.263   7.370   4.982 -0.4890 -0.2206  0.1555
  262MOL0     C35246   6.310   7.401   4.838 -0.1366  0.1438  0.5165
  262MOL0     C35247   6.269   7.297   4.738 -0.6328  0.1523 -0.6683
  262MOL0     C35248   6.272   7.346   4.599  0.1068 -0.5758 -0.1937
  262MOL0     C35249   6.396   7.407   4.536  0.2659 -0.3284  0.2676
  262MOL0     C35250   6.355   7.454   4.393  0.1660  0.0876  0.3122
  262MOL0     C35251   6.471   7.448   4.297  0.3882  0.3316 -0.6979
  262MOL0     N35252   6.558   7.564   4.333  0.0831  0.2149  0.5048
  262MOL0     C35253   6.564   7.689   4.272 -0.3245 -1.6022  0.6500
  262MOL0     C35254   6.684   7.739   4.282  0.0013 -0.8341 -0.2987
  262MOL0     C35255   6.736   7.852   4.185 -0.1240 -0.1631  0.4347
  262MOL0     C35256   6.831   7.941   4.268 -0.4070  1.0023 -0.2506
  262MOL0     C35257   6.964   7.885   4.275  0.5721 -0.2764  0.0665
  262MOL0     C35258   7.068   7.954   4.180 -0.5374 -0.9671 -0.7368
  262MOL0     O35259   7.057   7.926   4.042  0.8618  0.5072 -0.1737
  262MOL0     C35260   7.111   7.817   3.996  0.5817  0.2709 -0.4296
  262MOL0     C35261   7.153   7.704   4.064 -1.6374  0.7765 -0.5025
  262MOL0     C35262   7.194   7.595   3.994 -0.4007 -0.3987  0.8196
  262MOL0     C35263   7.185   7.580   3.850 -0.7490 -0.0239 -0.0958
  262MOL0     C35264   7.226   7.467   3.786 -1.0042 -0.0337 -0.4976
  262MOL0     O35265   7.243   7.466   3.651 -0.2477  0.5087 -0.1960
  262MOL0     C35266   7.285   7.346   3.585 -0.2758  0.1662 -0.3031
  262MOL0     C35267   7.382   7.348   3.486  0.3086  1.2509  0.1800
  262MOL0     C35268   7.433   7.234   3.415 -0.0339 -0.4061  0.1407
  262MOL0     C35269   7.361   7.110   3.435  0.1629 -0.8500  1.2003
  262MOL0     O35270   7.410   6.996   3.374  0.2276 -0.4338 -0.1746
  262MOL0     C35271   7.400   6.877   3.453 -0.7260 -0.2994  0.5949
  262MOL0     C35272   7.484   6.775   3.381 -0.3092  0.0546 -0.7281
  262MOL0     C35273   7.388   6.730   3.273  0.9611 -0.5183  0.6831
  262MOL0     C35274   7.458   6.605   3.200  0.1975  0.1561  0.5413
  262MOL0     C35275   7.354   6.541   3.100  0.6144  0.4297 -0.9417
  262MOL0     C35276   7.396   6.421   3.029 -0.3575 -0.6826  0.3006
  262MOL0     C35277   7.496   6.460   2.914 -0.0683 -0.1940  0.0504
  262MOL0     C35278   7.439   6.545   2.800  0.1309  0.6320 -0.2795
  262MOL0    Cl35279   7.266   6.497   2.753 -0.1912  0.5253 -0.1191
  262MOL0     C35280   7.251   7.115   3.512  0.4599  0.6531 -0.0133
  262MOL0     C35281   7.210   7.232   3.590  0.7751 -0.1318 -0.7815
  262MOL0     O35282   7.253   7.371   3.863 -0.2301  0.0803 -0.2274
  262MOL0     C35283   7.124   7.684   3.786 -0.0831 -1.0243  0.3083
  262MOL0     C35284   7.093   7.807   3.854  0.6286  0.6712 -0.2198
  262MOL0     N35285   6.757   7.652   4.356  0.1463 -0.8466  0.9432
  262MOL0     N35286   6.685   7.554   4.374 -0.3245 -0.1902 -0.1115
  262MOL0     C35287   6.511   7.495   5.306 -0.5479 -0.1390 -0.2624
  262MOL0     C35288   6.618   7.522   5.391 -0.8138  0.2735  1.2410
  262MOL0     C35289   6.898   7.760   5.317 -0.7918  1.2243 -0.2962
  262MOL0     C35290   6.768   7.820   5.316 -0.2668  0.5568  0.6724
  262MOL0     C35291   6.727   7.885   5.203  0.3001 -0.0129 -0.8699
  262MOL0     C35292   6.817   7.916   5.097  0.7083  0.3313 -0.5742
  262MOL0     O35293   6.764   8.002   5.003 -0.0472  0.3882  0.5216
  262MOL0     C35294   6.851   8.036   4.891 -0.3269 -0.2722  0.0649
  262MOL0     C35295   6.778   8.129   4.801 -0.8522 -0.5447  0.0215
  262MOL0     C35296   6.849   8.166   4.671  0.0343 -0.2612  0.7243
  262MOL0     C35297   6.762   8.239   4.574 -0.2845 -0.5055 -0.2211
  262MOL0     C35298   6.668   8.153   4.503 -0.8676  0.4983 -0.4442
  262MOL0     C35299   6.587   8.083   4.457 -0.5644 -0.0689  0.8388
  262MOL0     C35300   6.945   7.861   5.097 -0.2813 -0.5831 -0.8892
  262MOL0     C35301   6.987   7.789   5.210  0.6313  0.6137 -0.1260
  262MOL0     C35302   7.130   7.734   5.209  0.6819  0.1281 -0.9132
  262MOL0     H35303   6.894   7.488   5.213 -0.4705  0.1555  1.0496
  262MOL0     H35304   6.719   7.386   5.049 -1.7035  2.4553 -1.3078
  262MOL0     H35305   6.291   7.451   5.173 -0.0862  1.1656  0.2232
  262MOL0     H35306   6.325   7.566   5.034 -2.1301  0.3814 -0.7449
  262MOL0     H35307   6.158   7.398   4.993  0.0942  3.2200 -1.5747
  262MOL0     H35308   6.286   7.266   5.006  1.2623 -0.9474 -3.8165
  262MOL0     H35309   6.413   7.438   4.837 -0.9060  2.5114  0.6532
  262MOL0     H35310   6.252   7.483   4.796  0.4833  0.6778  0.6791
  262MOL0     H35311   6.343   7.216   4.739  1.0019  1.5510 -1.4840
  262MOL0     H35312   6.168   7.257   4.748  0.3536 -2.0265  1.4585
  262MOL0     H35313   6.235   7.264   4.536  0.0505 -0.4724 -0.2950
  262MOL0     H35314   6.187   7.415   4.591  1.0943  0.5377 -1.3409
  262MOL0     H35315   6.443   7.481   4.602 -0.9952 -1.4874  2.5950
  262MOL0     H35316   6.455   7.315   4.524  0.4024 -0.0165 -1.6479
  262MOL0     H35317   6.313   7.555   4.397 -0.7450 -0.2062 -1.0830
  262MOL0     H35318   6.268   7.397   4.358 -3.2140  4.4034  0.8640
  262MOL0     H35319   6.520   7.351   4.302  0.2349  0.2394 -0.9915
  262MOL0     H35320   6.416   7.458   4.203 -2.1840  1.5503  0.8030
  262MOL0     H35321   6.493   7.725   4.198  3.6780  2.6024 -1.6570
  262MOL0     H35322   6.791   7.818   4.096 -1.0801 -2.2301  0.5828
  262MOL0     H35323   6.652   7.914   4.152 -0.4898 -0.2115  1.2712
  262MOL0     H35324   6.825   8.043   4.230 -1.8928  0.2780 -2.1198
  262MOL0     H35325   6.800   7.945   4.373 -1.8900  0.3936 -0.6401
  262MOL0     H35326   6.964   7.778   4.253  1.7147 -0.4531  0.8603
  262MOL0     H35327   6.996   7.902   4.378  0.1044  2.0095 -0.1052
  262MOL0     H35328   7.170   7.937   4.216  0.7008  2.9094 -1.8988
  262MOL0     H35329   7.065   8.062   4.197  1.2778 -1.0139  0.0484
  262MOL0     H35330   7.164   7.692   4.171 -0.8462 -1.0038 -0.7295
  262MOL0     H35331   7.233   7.516   4.057 -0.8999  1.3378  3.5073
  262MOL0     H35332   7.416   7.449   3.464 -2.1298  1.9906 -0.4457
  262MOL0     H35333   7.511   7.252   3.342  0.0212  1.4805  0.6033
  262MOL0     H35334   7.438   6.891   3.555  1.3239  0.0200 -0.1599
  262MOL0     H35335   7.295   6.851   3.470 -1.6064  1.7432 -1.2344
  262MOL0     H35336   7.580   6.802   3.337  1.4430 -1.3094  2.0022
  262MOL0     H35337   7.510   6.701   3.457 -1.1888  2.4464  2.1316
  262MOL0     H35338   7.285   6.702   3.299  0.8885 -2.2911 -1.2511
  262MOL0     H35339   7.381   6.798   3.187  0.3764 -1.7425 -0.2854
  262MOL0     H35340   7.494   6.528   3.270 -0.2093 -0.1733  0.3942
  262MOL0     H35341   7.548   6.638   3.146  2.4795 -3.8885  1.4150
  262MOL0     H35342   7.327   6.628   3.039 -2.4159  0.2777  0.0344
  262MOL0     H35343   7.266   6.533   3.164  0.3759  1.2898 -1.1445
  262MOL0     H35344   7.436   6.355   3.107  2.8789  1.9513  1.0947
  262MOL0     H35345   7.315   6.363   2.983 -1.9613 -1.7931  4.1703
  262MOL0     H35346   7.547   6.375   2.870  2.7761  2.3688 -2.0203
  262MOL0     H35347   7.589   6.507   2.947  0.8000  0.0134 -2.5089
  262MOL0     H35348   7.434   6.645   2.844 -0.0760 -0.0499  1.3374
  262MOL0     H35349   7.492   6.552   2.705 -2.7871  2.1737 -1.9202
  262MOL0     H35350   7.198   7.023   3.535  0.6898  0.5957  0.3077
  262MOL0     H35351   7.129   7.227   3.662  3.5123 -0.8034  2.5494
  262MOL0     H35352   7.117   7.667   3.679  0.8964 -3.2442  0.5418
  262MOL0     H35353   7.054   7.897   3.806  0.0162  1.3224  1.4404
  262MOL0     H35354   6.405   7.508   5.326  0.0987  0.1942  3.9102
  262MOL0     H35355   6.585   7.563   5.486  0.9931  1.7462  1.2917
  262MOL0     H35356   6.696   7.819   5.397 -2.9664 -4.1053 -1.3441
  262MOL0     H35357   6.636   7.943   5.206  0.3480  0.1411 -2.0156
  262MOL0     H35358   6.874   7.945   4.834  1.8804 -0.2571  0.8352
  262MOL0     H35359   6.940   8.080   4.937 -1.5280  0.7303  1.5422
  262MOL0     H35360   6.762   8.227   4.847 -2.1569  1.3279 -3.9589
  262MOL0     H35361   6.684   8.077   4.777  0.8111 -3.3094 -0.9612
  262MOL0     H35362   6.887   8.082   4.613  1.0058  0.2158  0.6545
  262MOL0     H35363   6.933   8.236   4.685 -1.6270  2.1131 -0.4121
  262MOL0     H35364   6.695   8.314   4.618 -0.7942 -1.3693  0.5220
  262MOL0     H35365   6.829   8.289   4.503 -0.1756 -3.1854 -2.1442
  262MOL0     H35366   6.518   8.022   4.402  1.0673 -0.0817 -1.2930
  262MOL0     H35367   7.019   7.898   5.026  0.1114  2.1045  0.7815
  262MOL0     H35368   7.144   7.670   5.297  0.6094  1.2091 -0.0917
  262MOL0     H35369   7.152   7.685   5.114 -0.5789  1.3432 -1.8685
  262MOL0     H35370   7.193   7.823   5.215  1.5649 -0.5773  2.6559
  263MOL0     O35371   0.190   0.827   4.278  0.1331 -0.6179 -0.5324
  263MOL0     C35372   0.216   0.720   4.226  1.1384 -0.0551  0.0764
  263MOL0     O35373   0.125   0.621   4.213  1.1274  0.5452  0.2098
  263MOL0     C35374   0.000   0.626   4.268  0.0339 -0.2074  0.1473
  263MOL0     C35375  -0.087   0.525   4.240  1.8020  0.8101  0.5666
  263MOL0     C35376  -0.206   0.505   4.303  0.1307 -0.4274 -0.4966
  263MOL0     C35377  -0.247   0.607   4.398  0.4997 -0.2209  0.2371
  263MOL0     O35378  -0.366   0.579   4.464  0.2066 -0.0211 -0.5169
  263MOL0     C35379  -0.413   0.676   4.556  0.1483 -0.0974 -0.1099
  263MOL0     C35380  -0.545   0.615   4.616  0.3329 -0.5088 -1.1274
  263MOL0     C35381  -0.591   0.703   4.727  0.6532 -0.1683 -0.2943
  263MOL0     C35382  -0.717   0.635   4.786 -0.1133  0.0878 -0.0231
  263MOL0     C35383  -0.764   0.671   4.928 -0.8493  0.4939  0.0616
  263MOL0     C35384  -0.905   0.598   4.945 -0.3957 -0.2408 -0.8741
  263MOL0     C35385  -0.962   0.605   5.098  0.7157  0.3210  0.3408
  263MOL0     C35386  -1.010   0.740   5.145  0.9827  0.2098 -0.4053
  263MOL0     N35387  -1.117   0.726   5.241 -0.5427  0.3036 -0.0540
  263MOL0     C35388  -1.244   0.734   5.218  0.4250 -0.9121  0.4012
  263MOL0     C35389  -1.301   0.722   5.331  0.3684  0.2115  0.7907
  263MOL0     C35390  -1.444   0.709   5.375 -0.4017  0.5351 -0.0805
  263MOL0     C35391  -1.486   0.775   5.512 -1.0670 -0.3319 -0.6153
  263MOL0     C35392  -1.494   0.932   5.493  0.2938  0.1181  0.0551
  263MOL0     C35393  -1.369   1.007   5.572  0.0974  0.3186 -0.2656
  263MOL0     O35394  -1.360   1.149   5.565  0.3888 -0.3164  0.7143
  263MOL0     C35395  -1.262   1.213   5.636 -0.2135 -0.5131 -0.4218
  263MOL0     C35396  -1.189   1.154   5.740 -0.2583  1.5350  0.2714
  263MOL0     C35397  -1.090   1.224   5.799 -0.0326 -0.1783 -0.4071
  263MOL0     C35398  -1.069   1.361   5.777  0.1616  0.3547 -0.7461
  263MOL0     C35399  -0.995   1.445   5.874 -0.2648 -0.9150 -0.5422
  263MOL0     O35400  -0.958   1.568   5.835  0.3502  0.5618  0.9196
  263MOL0     C35401  -0.877   1.636   5.923  1.6844 -0.4096  0.2304
  263MOL0     C35402  -0.924   1.691   6.045 -0.1814  0.5578 -0.3242
  263MOL0     C35403  -0.843   1.770   6.129  0.9269  0.2495 -0.0216
  263MOL0     C35404  -0.714   1.814   6.092  0.4615 -0.1362 -0.1151
  263MOL0     O35405  -0.629   1.895   6.162 -0.2161  0.3289  0.1652
  263MOL0     C35406  -0.604   1.847   6.299  0.2419 -0.3275 -0.4086
  263MOL0     C35407  -0.446   1.879   6.327 -0.9456  0.2178 -0.4867
  263MOL0     C35408  -0.346   1.810   6.222  0.2125 -0.1375 -0.0949
  263MOL0     C35409  -0.210   1.885   6.246  0.7189  0.3204  0.4697
  263MOL0     C35410  -0.163   1.943   6.117  0.1708 -0.0988 -0.1939
  263MOL0     C35411  -0.107   1.836   6.023 -0.6465 -0.0877 -0.1028
  263MOL0     C35412  -0.059   1.915   5.901 -0.4648  0.6556 -0.0225
  263MOL0     C35413   0.083   1.964   5.907 -0.1857  0.2692 -0.3313
  263MOL0    Cl35414   0.192   1.826   5.919  0.3057 -0.1498  0.5141
  263MOL0     C35415  -0.666   1.764   5.973  0.2140 -0.2263 -1.3226
  263MOL0     C35416  -0.741   1.672   5.894 -0.6335 -0.5812  0.5385
  263MOL0     O35417  -0.948   1.394   5.977  0.8241 -0.1922 -0.2505
  263MOL0     C35418  -1.151   1.432   5.693  0.3095  0.7931 -0.5807
  263MOL0     C35419  -1.238   1.351   5.613 -0.2145 -1.0033 -0.5868
  263MOL0     N35420  -1.202   0.712   5.430  0.3456  0.7515 -0.6547
  263MOL0     N35421  -1.088   0.716   5.376  0.3273 -0.3369 -0.0314
  263MOL0     C35422  -0.166   0.715   4.432  0.5778  0.0123  0.7130
  263MOL0     C35423  -0.048   0.722   4.362 -0.8575  0.0589  0.1905
  263MOL0     C35424   0.358   0.693   4.169 -0.9273  0.7042 -0.7288
  263MOL0     C35425   0.372   0.563   4.105  0.2393  0.4858  0.0804
  263MOL0     C35426   0.491   0.525   4.051 -0.4051 -0.1959  0.1579
  263MOL0     C35427   0.603   0.612   4.046 -0.3320  0.0054  0.4193
  263MOL0     O35428   0.724   0.567   3.985 -0.3838 -0.5851 -0.5130
  263MOL0     C35429   0.817   0.660   3.942 -0.9466 -0.1854 -0.1157
  263MOL0     C35430   0.915   0.590   3.843 -0.4631  0.3297 -0.1103
  263MOL0     C35431   1.014   0.493   3.897 -0.7311 -0.9743  1.1502
  263MOL0     C35432   1.119   0.558   3.998  0.3780  0.2535 -0.1017
  263MOL0     C35433   1.250   0.574   3.930 -0.4638  0.4140 -0.7491
  263MOL0     C35434   1.346   0.589   3.862 -0.6154  0.5446  0.5914
  263MOL0     C35435   0.588   0.744   4.101 -0.4081  0.6602  0.0590
  263MOL0     C35436   0.471   0.779   4.161 -0.3836  0.0428  0.7889
  263MOL0     C35437   0.468   0.915   4.226  0.1290 -0.3927 -0.0748
  263MOL0     H35438  -0.050   0.446   4.176  2.2247  1.6170 -0.2091
  263MOL0     H35439  -0.263   0.419   4.271  3.1114 -2.2793 -1.1986
  263MOL0     H35440  -0.340   0.690   4.637 -1.4034  1.9852  1.0210
  263MOL0     H35441  -0.430   0.776   4.516  2.2303  2.2074  4.0757
  263MOL0     H35442  -0.518   0.512   4.642 -0.7560 -0.6717 -0.5879
  263MOL0     H35443  -0.623   0.623   4.539  1.3511 -1.2687 -2.2925
  263MOL0     H35444  -0.639   0.797   4.699 -1.4332 -0.5898  1.5315
  263MOL0     H35445  -0.518   0.710   4.808 -0.3038 -2.8932  0.9172
  263MOL0     H35446  -0.800   0.659   4.719 -0.8019  2.0637  1.4712
  263MOL0     H35447  -0.709   0.526   4.784  1.2829  0.0855  2.3613
  263MOL0     H35448  -0.689   0.644   5.003  0.7812 -4.0990 -2.7931
  263MOL0     H35449  -0.759   0.780   4.939  5.7202  0.5260  0.9660
  263MOL0     H35450  -0.980   0.644   4.880 -1.6610  0.6534  1.1248
  263MOL0     H35451  -0.899   0.490   4.928 -0.2304 -0.3653 -0.0655
  263MOL0     H35452  -0.895   0.550   5.164  1.3618 -0.1327 -0.6589
  263MOL0     H35453  -1.055   0.547   5.098  1.5092 -1.0030  0.4326
  263MOL0     H35454  -0.937   0.801   5.199 -1.6606  1.6069  1.9042
  263MOL0     H35455  -1.051   0.799   5.063  2.7328 -2.0621 -3.0613
  263MOL0     H35456  -1.291   0.739   5.120  0.3786 -2.2247  0.3431
  263MOL0     H35457  -1.516   0.744   5.300 -0.9182 -1.2219 -0.4588
  263MOL0     H35458  -1.470   0.604   5.394 -1.5747  0.7065 -0.6437
  263MOL0     H35459  -1.582   0.731   5.540 -0.0922 -2.2699 -0.1668
  263MOL0     H35460  -1.406   0.741   5.579  0.3684  0.9357 -1.6088
  263MOL0     H35461  -1.584   0.959   5.549  0.2500  1.1053 -0.4674
  263MOL0     H35462  -1.493   0.950   5.385  0.2975 -0.0209  0.0320
  263MOL0     H35463  -1.281   0.957   5.530 -1.3622 -2.4795 -0.1963
  263MOL0     H35464  -1.378   0.970   5.675  0.2126 -2.7122 -1.2542
  263MOL0     H35465  -1.203   1.053   5.777 -1.6265  2.6157  3.0305
  263MOL0     H35466  -1.020   1.170   5.861  0.7068 -0.7475 -1.7077
  263MOL0     H35467  -1.025   1.667   6.078  0.0406  1.8261  1.3657
  263MOL0     H35468  -0.876   1.796   6.228 -1.8236  0.8383 -1.0101
  263MOL0     H35469  -0.680   1.888   6.365 -0.5979  1.4608 -2.3560
  263MOL0     H35470  -0.605   1.738   6.310  0.1294 -0.1605  1.7015
  263MOL0     H35471  -0.439   1.988   6.328 -4.2313  0.7063  4.3795
  263MOL0     H35472  -0.411   1.856   6.428 -0.0799 -2.2323 -1.2729
  263MOL0     H35473  -0.339   1.707   6.257  1.9603  0.1277  0.4276
  263MOL0     H35474  -0.382   1.813   6.119 -0.4067 -0.8757  0.0941
  263MOL0     H35475  -0.132   1.812   6.272  2.9004  2.1725 -0.5322
  263MOL0     H35476  -0.220   1.968   6.316 -2.3399  2.2479 -1.9961
  263MOL0     H35477  -0.092   2.023   6.139 -2.3089  2.6291 -1.5110
  263MOL0     H35478  -0.245   1.993   6.066 -0.5460 -0.7962  0.2400
  263MOL0     H35479  -0.033   1.778   6.079 -1.5637  2.3435  4.0480
  263MOL0     H35480  -0.189   1.769   5.996  0.0424 -1.0383  0.0879
  263MOL0     H35481  -0.134   1.992   5.879 -0.5202  1.0676  1.4759
  263MOL0     H35482  -0.065   1.847   5.816 -0.6023  1.3581 -0.5912
  263MOL0     H35483   0.107   2.017   5.815  3.2688  0.4032  0.5143
  263MOL0     H35484   0.091   2.028   5.996 -2.2270 -1.7614  1.4553
  263MOL0     H35485  -0.563   1.788   5.951  0.5941 -0.4589  0.0775
  263MOL0     H35486  -0.702   1.641   5.797 -0.8058  3.5955 -1.0913
  263MOL0     H35487  -1.141   1.540   5.693  2.6584  0.6908  2.1579
  263MOL0     H35488  -1.284   1.412   5.535  2.0237  1.0435 -0.4512
  263MOL0     H35489  -0.189   0.793   4.503 -2.6939 -0.8419  0.7314
  263MOL0     H35490   0.002   0.811   4.401  1.2129 -0.4529 -1.1266
  263MOL0     H35491   0.308   0.475   4.101  2.0035 -0.8402 -2.6406
  263MOL0     H35492   0.513   0.423   4.023  1.6763  0.1530  0.3826
  263MOL0     H35493   0.867   0.707   4.028  1.0569 -1.1366 -0.7013
  263MOL0     H35494   0.765   0.743   3.893  0.1585  1.8897  1.9971
  263MOL0     H35495   0.982   0.660   3.792  1.9075 -2.3939 -1.0254
  263MOL0     H35496   0.850   0.541   3.770 -0.6444 -0.8083  0.7839
  263MOL0     H35497   1.066   0.447   3.812  0.8853 -0.5788  1.8739
  263MOL0     H35498   0.958   0.410   3.941  1.1330 -2.4340  0.9372
  263MOL0     H35499   1.079   0.655   4.030 -2.1972 -0.8127  0.1563
  263MOL0     H35500   1.133   0.495   4.087  3.6948 -1.2512 -1.5390
  263MOL0     H35501   1.422   0.587   3.787 -1.3382 -2.5582 -0.1914
  263MOL0     H35502   0.665   0.820   4.096 -0.8145  1.1476  1.0340
  263MOL0     H35503   0.563   0.970   4.228 -1.1582  1.9851  2.9414
  263MOL0     H35504   0.414   0.986   4.164  0.3189 -1.3500 -1.3880
  263MOL0     H35505   0.430   0.916   4.328 -0.2922 -0.2784 -0.2333
  264MOL0     O35506   8.626   2.000   6.502 -0.0818  0.2801 -0.1412
  264MOL0     C35507   8.692   1.920   6.568 -0.5759  0.1518  0.7476
  264MOL0     O35508   8.791   1.841   6.516  0.3419 -0.0309  0.9115
  264MOL0     C35509   8.871   1.893   6.407  0.1496 -0.0696 -1.0265
  264MOL0     C35510   8.889   2.026   6.387 -0.5616 -0.2164 -0.0644
  264MOL0     C35511   8.969   2.067   6.281 -0.1187 -0.5199 -0.5550
  264MOL0     C35512   9.027   1.982   6.187 -0.3470 -0.4502  0.2711
  264MOL0     O35513   9.093   2.036   6.075 -0.1313  0.8696 -0.1745
  264MOL0     C35514   9.208   1.969   6.028  0.0076 -0.2709  0.6537
  264MOL0     C35515   9.283   2.063   5.939  0.6351  0.1593  0.0534
  264MOL0     C35516   9.279   2.217   5.968 -0.6916 -1.1038 -0.0496
  264MOL0     C35517   9.384   2.301   5.892  0.2283 -0.3285 -0.0387
  264MOL0     C35518   9.345   2.449   5.910 -0.4692 -0.9172 -0.5660
  264MOL0     C35519   9.440   2.558   5.860  0.0771 -0.9990 -0.3715
  264MOL0     C35520   9.568   2.537   5.931 -0.3684 -1.1201  0.4455
  264MOL0     C35521   9.681   2.622   5.862 -0.5958 -0.0924 -0.2175
  264MOL0     N35522   9.696   2.614   5.716  0.3207  0.3754 -0.9836
  264MOL0     C35523   9.741   2.710   5.624 -0.1914  0.2702  0.9042
  264MOL0     C35524   9.772   2.629   5.517  0.6941 -0.9793 -0.8313
  264MOL0     C35525   9.819   2.685   5.387  0.3883 -0.1135 -0.9691
  264MOL0     C35526   9.963   2.669   5.365 -0.7187  0.0799 -0.4508
  264MOL0     C35527  10.022   2.714   5.224 -0.1704  0.2571 -0.1233
  264MOL0     C35528   9.983   2.857   5.183  0.4571 -0.0296  0.5782
  264MOL0     O35529  10.009   2.950   5.288  0.7935 -0.1425 -0.1678
  264MOL0     C35530  10.131   3.005   5.303 -0.8274 -0.3828  0.0015
  264MOL0     C35531  10.126   3.126   5.378 -0.7696  0.1436 -0.3354
  264MOL0     C35532  10.235   3.212   5.377 -0.0738  0.2451 -0.4931
  264MOL0     C35533  10.352   3.173   5.305 -0.0314 -0.3179 -0.0271
  264MOL0     C35534  10.464   3.264   5.314 -0.4028  0.1929 -0.8349
  264MOL0     O35535  10.443   3.394   5.271  0.2439  0.1688  0.2024
  264MOL0     C35536  10.546   3.495   5.273  0.2167 -0.1547  0.0164
  264MOL0     C35537  10.666   3.485   5.355  1.1463 -0.2732  0.6210
  264MOL0     C35538  10.757   3.591   5.349 -0.5946 -0.5782  0.4384
  264MOL0     C35539  10.734   3.713   5.275  0.1801  0.5451 -0.1192
  264MOL0     O35540  10.813   3.820   5.277 -0.9141  0.3851 -0.0604
  264MOL0     C35541  10.912   3.839   5.377  0.4068 -0.7454  0.4316
  264MOL0     C35542  10.868   3.946   5.479  0.3331  0.9100  0.3685
  264MOL0     C35543  10.971   4.026   5.553 -0.4107  0.3352 -0.3614
  264MOL0     C35544  11.057   4.116   5.455  0.0096  0.3144 -0.4246
  264MOL0     C35545  11.136   4.197   5.547 -0.7402 -0.4382 -0.1412
  264MOL0     C35546  11.253   4.118   5.621 -0.4140 -0.4675  0.2353
  264MOL0     C35547  11.318   4.208   5.732  0.0554  0.7431  0.7414
  264MOL0     C35548  11.403   4.315   5.677  0.2262 -0.3547 -0.2369
  264MOL0    Cl35549  11.472   4.406   5.806 -0.2586 -0.3766 -0.3213
  264MOL0     C35550  10.620   3.711   5.202 -0.5568  0.1294  0.5046
  264MOL0     C35551  10.525   3.610   5.200  0.3011 -0.2413 -0.2567
  264MOL0     O35552  10.568   3.220   5.354 -0.2917 -0.1319 -1.0178
  264MOL0     C35553  10.358   3.053   5.235  0.9486 -0.6286 -0.5896
  264MOL0     C35554  10.246   2.964   5.237  0.0815 -0.8898  1.0542
  264MOL0     N35555   9.747   2.497   5.536  0.0011  1.0263 -0.8283
  264MOL0     N35556   9.703   2.486   5.663  0.6129  0.1874 -0.1590
  264MOL0     C35557   9.018   1.848   6.226 -0.4258 -0.0646  0.4357
  264MOL0     C35558   8.956   1.808   6.335 -0.3731 -0.0679  0.7322
  264MOL0     C35559   8.660   1.891   6.705  0.8867 -0.8738 -1.1270
  264MOL0     C35560   8.708   1.767   6.755 -0.3284 -0.1546 -0.3759
  264MOL0     C35561   8.686   1.722   6.882  0.1713 -0.4391 -0.4255
  264MOL0     C35562   8.605   1.804   6.964 -0.0236 -0.8080 -0.0658
  264MOL0     O35563   8.585   1.757   7.093  0.5673 -0.2744 -0.6105
  264MOL0     C35564   8.541   1.849   7.203 -0.8053  0.2151  0.3703
  264MOL0     C35565   8.636   1.959   7.258 -0.4005  0.6047  0.4370
  264MOL0     C35566   8.761   1.912   7.331  0.4411  0.2910  0.6586
  264MOL0     C35567   8.733   1.886   7.484 -0.7619  0.0449  0.9605
  264MOL0     C35568   8.857   1.911   7.567  0.4800 -0.2607  0.1810
  264MOL0     C35569   8.958   1.952   7.614 -0.3051  0.3739 -0.8857
  264MOL0     C35570   8.558   1.929   6.915  0.4920  0.5005  0.8341
  264MOL0     C35571   8.586   1.978   6.793 -0.3788  1.1316 -0.3847
  264MOL0     C35572   8.532   2.111   6.744  0.3761  0.3222  0.3458
  264MOL0     H35573   8.851   2.108   6.448  1.5068  1.5255 -0.9591
  264MOL0     H35574   9.000   2.167   6.254  4.2771 -1.7079 -0.6294
  264MOL0     H35575   9.268   1.929   6.110 -0.8433 -1.1322  0.8717
  264MOL0     H35576   9.163   1.887   5.970 -2.5605  1.2231  0.3423
  264MOL0     H35577   9.245   2.049   5.838 -2.3181  0.7017  0.9714
  264MOL0     H35578   9.386   2.027   5.941  0.1627 -1.2836 -0.2774
  264MOL0     H35579   9.297   2.232   6.075 -1.1589  0.5055 -0.1773
  264MOL0     H35580   9.179   2.252   5.941 -0.1952 -1.1241 -2.0494
  264MOL0     H35581   9.483   2.275   5.933  0.5462  0.5041 -0.2636
  264MOL0     H35582   9.384   2.268   5.787 -1.2490 -0.5461  0.0115
  264MOL0     H35583   9.248   2.472   5.865  0.0695 -0.6627 -1.6305
  264MOL0     H35584   9.339   2.456   6.019  3.1382 -4.3250  0.0824
  264MOL0     H35585   9.440   2.562   5.751 -2.1462  1.0788 -0.3983
  264MOL0     H35586   9.412   2.659   5.892  0.5206 -1.0573  0.2133
  264MOL0     H35587   9.606   2.435   5.925 -0.2114 -1.3225  3.3120
  264MOL0     H35588   9.552   2.563   6.037 -0.6590 -0.8876  0.3461
  264MOL0     H35589   9.683   2.729   5.881  3.8864 -0.2043  0.9141
  264MOL0     H35590   9.775   2.583   5.901 -0.9492 -2.7024 -1.7246
  264MOL0     H35591   9.738   2.818   5.621 -1.6914  0.2324 -0.7167
  264MOL0     H35592   9.772   2.628   5.306  0.4526 -0.3745 -0.8237
  264MOL0     H35593   9.792   2.791   5.388 -2.4903 -0.7167  2.0159
  264MOL0     H35594  10.030   2.711   5.441 -0.0802  0.3898 -1.1612
  264MOL0     H35595   9.969   2.560   5.373 -0.4618  0.1325  0.1153
  264MOL0     H35596  10.003   2.645   5.141 -2.0275  0.9122 -0.2942
  264MOL0     H35597  10.130   2.700   5.225 -0.1753  0.1238 -0.8359
  264MOL0     H35598   9.878   2.872   5.157 -0.0496 -1.6529  1.5353
  264MOL0     H35599  10.037   2.885   5.092 -0.7246 -1.7428 -0.7166
  264MOL0     H35600  10.038   3.167   5.427  0.1587  1.2316  0.4919
  264MOL0     H35601  10.248   3.301   5.438 -0.0949 -2.2539  3.5548
  264MOL0     H35602  10.677   3.398   5.419 -1.5930 -2.4012 -1.5003
  264MOL0     H35603  10.848   3.568   5.403 -0.0125  2.4666  0.9354
  264MOL0     H35604  10.929   3.746   5.431 -0.8343 -1.9829 -1.2122
  264MOL0     H35605  10.996   3.876   5.317 -0.8326 -0.2424 -1.0745
  264MOL0     H35606  10.798   4.016   5.432 -4.1962 -3.9228 -0.9894
  264MOL0     H35607  10.798   3.893   5.544  1.3597 -1.2739 -0.2252
  264MOL0     H35608  10.924   4.085   5.632  2.7538 -1.8156  3.5258
  264MOL0     H35609  11.041   3.954   5.598 -1.8859 -0.7751  0.2276
  264MOL0     H35610  10.991   4.172   5.388  0.0744 -1.8427 -2.4128
  264MOL0     H35611  11.118   4.050   5.392 -0.0708  0.3994 -0.5919
  264MOL0     H35612  11.061   4.252   5.604 -3.0456 -0.3762 -3.0301
  264MOL0     H35613  11.167   4.275   5.477 -3.7513  0.1235 -0.9728
  264MOL0     H35614  11.216   4.022   5.660 -1.7859  0.6074  1.7113
  264MOL0     H35615  11.330   4.083   5.552 -1.5379  1.5209 -2.1915
  264MOL0     H35616  11.381   4.136   5.785 -0.9384 -0.2141  0.6779
  264MOL0     H35617  11.245   4.245   5.806  0.5621  2.3909  0.4473
  264MOL0     H35618  11.488   4.282   5.616 -1.1929  3.1038 -4.5861
  264MOL0     H35619  11.343   4.378   5.612  2.0426  1.6247 -0.0937
  264MOL0     H35620  10.605   3.807   5.154  2.2363 -0.8363 -2.6706
  264MOL0     H35621  10.436   3.613   5.137 -0.8456  0.7522  1.3516
  264MOL0     H35622  10.451   3.017   5.190  1.7756 -3.0520  2.7024
  264MOL0     H35623  10.254   2.873   5.180  2.0828  0.3929 -0.8874
  264MOL0     H35624   9.075   1.776   6.167 -0.6378  0.9980 -1.1199
  264MOL0     H35625   8.976   1.705   6.362  1.6324 -0.4842 -1.9198
  264MOL0     H35626   8.760   1.697   6.690  1.2448 -0.0999  0.7611
  264MOL0     H35627   8.713   1.619   6.902 -0.4765 -1.3445 -3.6807
  264MOL0     H35628   8.511   1.777   7.280  0.7981 -1.1194 -0.1935
  264MOL0     H35629   8.454   1.907   7.168  0.5520  0.5011 -2.8760
  264MOL0     H35630   8.589   2.023   7.333 -2.9914 -2.0235  1.2702
  264MOL0     H35631   8.674   2.027   7.182  5.2673 -1.9981  0.3732
  264MOL0     H35632   8.837   1.990   7.327 -0.5789  1.2605 -0.4476
  264MOL0     H35633   8.799   1.822   7.281  0.4670 -0.4492  1.9558
  264MOL0     H35634   8.652   1.945   7.529 -0.5198  0.3034  1.0587
  264MOL0     H35635   8.714   1.780   7.502 -4.6864  1.1849  5.5474
  264MOL0     H35636   9.055   1.989   7.642 -1.1728  1.6999  0.4888
  264MOL0     H35637   8.487   1.990   6.970 -0.1493  0.6274 -0.1091
  264MOL0     H35638   8.611   2.167   6.692 -1.3120  4.6579  1.9961
  264MOL0     H35639   8.449   2.101   6.674 -1.9602  3.4325  2.4262
  264MOL0     H35640   8.497   2.162   6.834  2.4840 -1.1894  2.1486
  265MOL0     O35641  10.918  10.045   6.999 -0.1395 -0.5719 -0.6139
  265MOL0     C35642  10.966  10.143   6.940 -0.6510 -0.8255  0.9635
  265MOL0     O35643  11.038  10.136   6.823 -0.0888 -0.2287 -0.0459
  265MOL0     C35644  11.081  10.011   6.783 -0.5016 -0.1236  0.3117
  265MOL0     C35645  11.132   9.923   6.879 -0.3212 -0.5538 -0.2733
  265MOL0     C35646  11.190   9.795   6.837 -1.0118  0.1527  0.0948
  265MOL0     C35647  11.183   9.747   6.705  0.6318 -1.5283 -0.5316
  265MOL0     O35648  11.222   9.621   6.675  0.1817  0.7333 -0.3144
  265MOL0     C35649  11.322   9.601   6.575  0.2449  0.9271  0.5729
  265MOL0     C35650  11.345   9.455   6.535  0.0238 -0.2049  1.2403
  265MOL0     C35651  11.387   9.369   6.651  0.1242  0.8610 -0.0813
  265MOL0     C35652  11.515   9.401   6.727  0.7688 -0.0792 -1.2514
  265MOL0     C35653  11.519   9.325   6.860  0.3954  0.2282 -0.5538
  265MOL0     C35654  11.543   9.174   6.845  0.4751 -0.0532  0.4035
  265MOL0     C35655  11.579   9.118   6.986  0.2761  0.2705  0.2095
  265MOL0     C35656  11.572   8.965   6.977 -0.0211 -0.1511  0.7304
  265MOL0     N35657  11.594   8.898   7.102  0.6771  0.4610  0.2319
  265MOL0     C35658  11.684   8.937   7.190 -0.1992  0.1562  0.1234
  265MOL0     C35659  11.691   8.839   7.285  1.1293 -0.5201  0.4393
  265MOL0     C35660  11.767   8.844   7.410 -1.2715  0.1854 -0.4694
  265MOL0     C35661  11.917   8.817   7.385 -0.6236  0.6434 -0.2694
  265MOL0     C35662  12.017   8.923   7.349  0.1196  0.1585  0.4137
  265MOL0     C35663  12.035   9.038   7.451  0.2070 -0.2197  1.3096
  265MOL0     O35664  11.925   9.130   7.458 -0.0966  0.7743 -0.2003
  265MOL0     C35665  11.912   9.224   7.363  0.1756 -0.9683  1.2783
  265MOL0     C35666  11.800   9.309   7.364  0.3397  0.1517 -0.4978
  265MOL0     C35667  11.788   9.412   7.263  0.2536  0.4643 -0.6204
  265MOL0     C35668  11.889   9.428   7.163  0.9099  0.6581 -0.2526
  265MOL0     C35669  11.858   9.527   7.068 -0.5852  0.0956  0.1505
  265MOL0     O35670  11.796   9.647   7.102  1.2374  0.4730  0.0882
  265MOL0     C35671  11.762   9.731   7.002 -0.0654  0.4905  0.4712
  265MOL0     C35672  11.744   9.874   7.026  0.8551 -0.8276  0.0298
  265MOL0     C35673  11.698   9.967   6.932 -0.2282  0.4270  0.7078
  265MOL0     C35674  11.666   9.917   6.798  0.5887 -1.0484  0.4861
  265MOL0     O35675  11.618  10.015   6.712  0.1583  0.8769 -0.4590
  265MOL0     C35676  11.522   9.982   6.607  0.4538  0.1797 -0.0104
  265MOL0     C35677  11.606   9.938   6.478  0.4551  0.4933  0.0353
  265MOL0     C35678  11.533   9.857   6.371  1.0006  0.5678  0.0307
  265MOL0     C35679  11.399   9.898   6.320  0.7069 -0.8593  0.9412
  265MOL0     C35680  11.341   9.820   6.197  0.4524  0.6463 -0.2847
  265MOL0     C35681  11.217   9.871   6.125  0.0593  0.1331 -0.4832
  265MOL0     C35682  11.222  10.024   6.090 -0.0625  0.6426  0.0813
  265MOL0     C35683  11.324  10.068   5.990  0.4103 -0.0258 -0.4033
  265MOL0    Cl35684  11.314   9.976   5.845  0.3440 -0.0010  0.2426
  265MOL0     C35685  11.665   9.783   6.781 -0.6715  0.0195  0.0113
  265MOL0     C35686  11.712   9.694   6.878  0.2243  0.1820 -1.0452
  265MOL0     O35687  11.905   9.493   6.960 -0.1281  0.0269 -0.2754
  265MOL0     C35688  11.984   9.326   7.149 -0.2395 -0.3492 -0.5848
  265MOL0     C35689  12.002   9.231   7.249  0.8699 -0.0086  0.7092
  265MOL0     N35690  11.602   8.738   7.245  0.8813  0.3524 -0.7971
  265MOL0     N35691  11.549   8.777   7.141 -1.2490  0.7423  0.6914
  265MOL0     C35692  11.141   9.841   6.609 -0.8295  0.8154  0.2911
  265MOL0     C35693  11.087   9.967   6.644  0.2052 -0.6299 -0.8245
  265MOL0     C35694  10.927  10.288   6.981 -0.8212 -0.7966 -0.4072
  265MOL0     C35695  10.968  10.394   6.898  0.0556  0.9556 -0.2055
  265MOL0     C35696  10.953  10.522   6.929  0.5607 -0.4058 -0.3652
  265MOL0     C35697  10.906  10.553   7.053 -0.3044 -0.3622 -0.7018
  265MOL0     O35698  10.905  10.683   7.099  0.6354 -0.0472 -0.5114
  265MOL0     C35699  10.849  10.727   7.223  0.3343  0.0593 -0.1188
  265MOL0     C35700  10.865  10.879   7.237  0.4390  0.5375  0.1707
  265MOL0     C35701  10.786  10.959   7.126 -1.3150  0.6992 -0.2190
  265MOL0     C35702  10.748  11.104   7.174  0.2364  0.1205  0.0018
  265MOL0     C35703  10.873  11.170   7.195 -0.5124 -0.0816  0.1287
  265MOL0     C35704  10.979  11.229   7.197 -0.9829  0.4316  1.0154
  265MOL0     C35705  10.848  10.454   7.132 -0.7661  0.2293 -0.2125
  265MOL0     C35706  10.862  10.325   7.100  0.2393  0.5734 -0.0992
  265MOL0     C35707  10.797  10.234   7.191 -0.5481 -0.1788  0.5002
  265MOL0     H35708  11.144   9.954   6.982 -0.6502 -1.0786 -0.0755
  265MOL0     H35709  11.218   9.720   6.910 -1.2728 -0.9699 -0.9302
  265MOL0     H35710  11.293   9.647   6.480  0.7287 -0.8407 -0.4591
  265MOL0     H35711  11.422   9.634   6.603  2.0131 -1.9741 -1.7708
  265MOL0     H35712  11.415   9.447   6.452 -1.0393 -3.7602  0.5082
  265MOL0     H35713  11.251   9.408   6.504  0.0702 -0.2313  1.1401
  265MOL0     H35714  11.394   9.265   6.617 -1.3408  0.6054  0.3363
  265MOL0     H35715  11.301   9.370   6.718 -0.3136 -2.9395 -0.3420
  265MOL0     H35716  11.602   9.382   6.664  0.2325  0.6828 -2.2462
  265MOL0     H35717  11.499   9.507   6.748 -0.5690 -0.0847 -2.1113
  265MOL0     H35718  11.592   9.363   6.932  1.3593 -0.5698 -1.0770
  265MOL0     H35719  11.423   9.344   6.909 -0.9981  0.9926 -3.3656
  265MOL0     H35720  11.464   9.122   6.792  1.3369 -0.4297 -0.5565
  265MOL0     H35721  11.638   9.149   6.796  1.8757  2.1802  1.7770
  265MOL0     H35722  11.501   9.144   7.058 -1.6703  0.3119 -1.8017
  265MOL0     H35723  11.673   9.159   7.024  1.3664 -1.9044  0.0032
  265MOL0     H35724  11.470   8.945   6.941  0.7889 -0.8722 -1.2992
  265MOL0     H35725  11.650   8.929   6.910 -0.1761  1.4660 -0.3840
  265MOL0     H35726  11.748   9.024   7.181 -1.4930  1.0617 -0.7641
  265MOL0     H35727  11.753   8.936   7.467 -0.4582  0.1869 -0.2491
  265MOL0     H35728  11.734   8.764   7.477 -2.0261 -3.3909 -4.6682
  265MOL0     H35729  11.960   8.776   7.477  0.7286  0.9814 -0.7372
  265MOL0     H35730  11.939   8.728   7.327  3.8131  0.9727  0.6018
  265MOL0     H35731  11.985   8.955   7.249  0.3946 -0.7788  0.0239
  265MOL0     H35732  12.119   8.886   7.340  0.1463  0.6511 -1.8028
  265MOL0     H35733  12.128   9.092   7.431 -0.9241  1.5610  0.6134
  265MOL0     H35734  12.050   8.990   7.549 -0.2125 -4.4697 -0.4642
  265MOL0     H35735  11.730   9.292   7.445  1.6125 -1.6570  0.2681
  265MOL0     H35736  11.698   9.472   7.259  0.0263  0.2762  0.9139
  265MOL0     H35737  11.766   9.925   7.119  1.7739 -0.6368 -0.2776
  265MOL0     H35738  11.685  10.068   6.969 -1.7468  0.1721  0.9415
  265MOL0     H35739  11.458   9.905   6.650 -0.0157  0.5310 -0.0806
  265MOL0     H35740  11.468  10.072   6.577 -0.4051 -0.1767  0.4275
  265MOL0     H35741  11.647  10.027   6.429 -5.6046  2.1741 -2.9628
  265MOL0     H35742  11.689   9.873   6.508 -0.1714  0.0795  0.9212
  265MOL0     H35743  11.600   9.846   6.286  0.0922 -0.7494 -0.5578
  265MOL0     H35744  11.535   9.758   6.416  1.3411  1.4596  2.0906
  265MOL0     H35745  11.421  10.000   6.289 -1.7807 -0.6614 -0.3523
  265MOL0     H35746  11.326   9.906   6.401 -0.0674  3.3377  0.0496
  265MOL0     H35747  11.327   9.716   6.229  0.3487  0.9016  0.5152
  265MOL0     H35748  11.422   9.815   6.122  1.4308  0.3216  0.7620
  265MOL0     H35749  11.186   9.806   6.043 -3.6342  1.5739 -0.4244
  265MOL0     H35750  11.134   9.863   6.196 -1.1379  3.3131 -1.3147
  265MOL0     H35751  11.240  10.080   6.182  0.8080  0.3618  0.0934
  265MOL0     H35752  11.119  10.051   6.067 -0.4084  1.8290  2.7385
  265MOL0     H35753  11.308  10.173   5.963 -1.0028 -0.0136  0.3869
  265MOL0     H35754  11.419  10.044   6.039 -0.3616 -3.3145 -0.2870
  265MOL0     H35755  11.625   9.746   6.687  1.6912 -0.3336 -0.9514
  265MOL0     H35756  11.698   9.588   6.858  1.1465 -0.0195 -0.6986
  265MOL0     H35757  12.059   9.333   7.071  0.1881  3.0064 -0.0434
  265MOL0     H35758  12.085   9.161   7.246  0.2058 -0.9045  2.2692
  265MOL0     H35759  11.123   9.821   6.504  4.0087  1.4239 -0.9035
  265MOL0     H35760  11.065  10.043   6.569  2.4676  0.1136 -0.8218
  265MOL0     H35761  10.999  10.372   6.796 -3.4529  0.2585 -1.2788
  265MOL0     H35762  10.989  10.600   6.864 -2.1012 -0.7426 -2.4602
  265MOL0     H35763  10.906  10.675   7.301  2.2295  2.3183  0.0887
  265MOL0     H35764  10.741  10.709   7.229  0.0114  1.7680 -0.3367
  265MOL0     H35765  10.968  10.916   7.238  0.2941  1.0306  2.1770
  265MOL0     H35766  10.813  10.905   7.330 -1.0073  0.0141 -0.4583
  265MOL0     H35767  10.696  10.902   7.099  1.0761 -3.8326  0.3130
  265MOL0     H35768  10.844  10.958   7.033 -1.5973 -1.0802 -0.4133
  265MOL0     H35769  10.677  11.161   7.112 -1.2114 -0.5162  1.0128
  265MOL0     H35770  10.703  11.095   7.273  1.0250 -1.8078  0.2125
  265MOL0     H35771  11.068  11.284   7.174  0.8228 -3.0995 -1.4055
  265MOL0     H35772  10.789  10.488   7.216  0.7917  1.5837  0.4018
  265MOL0     H35773  10.832  10.131   7.202 -0.0383 -0.0494  0.1563
  265MOL0     H35774  10.810  10.280   7.290 -1.9238  2.1572 -0.3072
  265MOL0     H35775  10.691  10.235   7.164 -0.6180  1.3988  0.7275
  266MOL0     O35776   1.460   8.762   4.706  0.8384 -0.3571 -0.8972
  266MOL0     C35777   1.545   8.846   4.722 -1.0284  0.4246  0.4449
  266MOL0     O35778   1.548   8.969   4.670 -0.4419 -0.5565 -0.2512
  266MOL0     C35779   1.435   9.035   4.651 -0.1786 -0.2028 -0.6849
  266MOL0     C35780   1.300   8.995   4.666 -0.0875 -0.7612 -1.6863
  266MOL0     C35781   1.197   9.089   4.664  0.0486 -0.7413  0.0466
  266MOL0     C35782   1.214   9.222   4.615 -0.7523  1.1612 -0.5983
  266MOL0     O35783   1.108   9.293   4.586  0.6407 -0.0341 -0.3543
  266MOL0     C35784   1.118   9.423   4.534  0.8683  0.0637  0.1735
  266MOL0     C35785   1.130   9.427   4.384 -1.5142  0.5536  0.3865
  266MOL0     C35786   1.018   9.364   4.304 -0.4963 -0.5901  0.1292
  266MOL0     C35787   1.034   9.397   4.151 -0.9056  1.5559 -0.6123
  266MOL0     C35788   0.939   9.316   4.063 -0.3722 -1.2021 -0.4351
  266MOL0     C35789   0.788   9.362   4.083  0.2106  0.4987 -0.3128
  266MOL0     C35790   0.706   9.369   3.956 -0.7286 -0.2100  0.1260
  266MOL0     C35791   0.570   9.440   3.969 -0.8360  0.5911 -0.0478
  266MOL0     N35792   0.573   9.566   3.899 -1.0850  0.5740  0.2498
  266MOL0     C35793   0.615   9.583   3.760 -1.0770 -0.0214 -0.0853
  266MOL0     C35794   0.587   9.712   3.730  0.4779 -0.1074  0.6723
  266MOL0     C35795   0.614   9.782   3.601 -0.7926 -1.2272  0.3778
  266MOL0     C35796   0.760   9.800   3.554  0.1448  0.5350 -0.7585
  266MOL0     C35797   0.768   9.867   3.409 -0.6684  0.1418 -0.6438
  266MOL0     C35798   0.682   9.997   3.412 -0.5212  0.2004  0.2869
  266MOL0     O35799   0.691  10.078   3.291  0.7614 -0.2235 -0.5381
  266MOL0     C35800   0.653  10.215   3.310  0.0593 -0.4914  0.2618
  266MOL0     C35801   0.571  10.262   3.202 -0.2809  0.0380 -1.1589
  266MOL0     C35802   0.534  10.394   3.201  0.6866  0.5421  0.9671
  266MOL0     C35803   0.561  10.480   3.302  0.4162 -0.2044  0.1720
  266MOL0     C35804   0.506  10.612   3.309  0.1418  0.0637 -0.2096
  266MOL0     O35805   0.520  10.684   3.430 -0.0774  0.7936 -0.0733
  266MOL0     C35806   0.461  10.806   3.444 -0.0314  0.5193 -0.2789
  266MOL0     C35807   0.477  10.910   3.356 -1.2894  0.5019  0.6138
  266MOL0     C35808   0.447  11.040   3.399  0.0430  0.5957  0.5501
  266MOL0     C35809   0.395  11.071   3.527  0.3119 -0.5681 -0.6342
  266MOL0     O35810   0.355  11.193   3.578  0.2883  0.3810  0.6749
  266MOL0     C35811   0.462  11.297   3.566  0.6307 -0.1631  0.2493
  266MOL0     C35812   0.554  11.310   3.684  0.1565 -0.4296 -0.6091
  266MOL0     C35813   0.683  11.398   3.673 -0.4464  0.6561 -0.3033
  266MOL0     C35814   0.790  11.321   3.594  0.8181 -0.2215 -0.8489
  266MOL0     C35815   0.919  11.321   3.670 -0.2976 -0.0367  0.0080
  266MOL0     C35816   0.979  11.461   3.696  0.1028 -0.3895 -0.6952
  266MOL0     C35817   1.137  11.467   3.689 -0.3147  0.1684  0.3871
  266MOL0     C35818   1.193  11.402   3.813  0.1290  0.5053  0.2314
  266MOL0    Cl35819   1.227  11.238   3.762 -0.5737 -0.0260 -0.0420
  266MOL0     C35820   0.372  10.966   3.613  0.3655  1.2638 -0.9179
  266MOL0     C35821   0.401  10.835   3.572 -0.4737 -0.3183  0.5009
  266MOL0     O35822   0.452  10.651   3.203 -0.3437  0.0997 -0.9725
  266MOL0     C35823   0.637  10.431   3.405  0.4184 -0.1508 -0.0784
  266MOL0     C35824   0.675  10.293   3.420  0.1860 -0.3815  0.5379
  266MOL0     N35825   0.540   9.777   3.846  0.0883 -0.0881 -0.2846
  266MOL0     N35826   0.536   9.686   3.946  0.4295 -0.2127  0.4022
  266MOL0     C35827   1.353   9.256   4.588  0.5021  0.0655  0.0119
  266MOL0     C35828   1.457   9.169   4.613  0.2957 -0.2449  0.8894
  266MOL0     C35829   1.674   8.802   4.778  0.7813  0.6335 -0.8376
  266MOL0     C35830   1.798   8.856   4.720 -0.0453 -0.1784 -0.5657
  266MOL0     C35831   1.920   8.805   4.759 -0.2457  0.2230 -0.9585
  266MOL0     C35832   1.928   8.711   4.865  0.5136  0.1364 -0.0291
  266MOL0     O35833   2.044   8.654   4.911  0.6957 -0.3583 -0.2173
  266MOL0     C35834   2.160   8.654   4.834 -0.2868 -0.8249  1.2257
  266MOL0     C35835   2.260   8.551   4.893  0.5949 -0.9713 -0.9109
  266MOL0     C35836   2.381   8.537   4.803  0.4925 -0.4666 -0.7193
  266MOL0     C35837   2.486   8.459   4.884  0.3181 -0.0067 -0.2361
  266MOL0     C35838   2.630   8.498   4.859 -0.0529 -0.6678 -0.8953
  266MOL0     C35839   2.745   8.534   4.833  0.1423  0.4294 -0.0397
  266MOL0     C35840   1.810   8.670   4.925 -0.2404  1.0877 -0.1819
  266MOL0     C35841   1.681   8.702   4.879  0.2657  0.4051 -0.4448
  266MOL0     C35842   1.559   8.645   4.954  0.0642  0.0481 -0.5862
  266MOL0     H35843   1.276   8.897   4.704 -0.6141  0.4387  1.3629
  266MOL0     H35844   1.096   9.052   4.679  0.2683 -3.4301 -3.6981
  266MOL0     H35845   1.025   9.479   4.550  1.7392  2.6766 -2.8596
  266MOL0     H35846   1.203   9.482   4.570 -0.0142  0.1900  2.1799
  266MOL0     H35847   1.221   9.368   4.370 -0.8385  1.2604  1.5904
  266MOL0     H35848   1.150   9.528   4.347 -1.8309  0.5700  0.2571
  266MOL0     H35849   0.922   9.406   4.334  0.3353  2.3719 -1.0083
  266MOL0     H35850   1.032   9.256   4.320 -0.3132 -1.0908 -2.8665
  266MOL0     H35851   1.015   9.504   4.143  2.6327  2.2791 -0.8504
  266MOL0     H35852   1.135   9.368   4.121 -1.7163 -1.8533 -0.4252
  266MOL0     H35853   0.973   9.326   3.960  2.9570 -0.9010  0.5979
  266MOL0     H35854   0.941   9.209   4.085 -1.3856 -1.2946 -0.7222
  266MOL0     H35855   0.740   9.301   4.160  0.3062 -0.2217 -0.8168
  266MOL0     H35856   0.791   9.464   4.121  1.5485 -0.4610  2.4259
  266MOL0     H35857   0.672   9.271   3.922 -0.5779  0.1734 -1.2021
  266MOL0     H35858   0.776   9.404   3.879 -0.8085 -1.1530 -0.3931
  266MOL0     H35859   0.486   9.383   3.929 -1.6653  1.5383  0.2736
  266MOL0     H35860   0.541   9.470   4.070  0.9261  3.2109 -0.2149
  266MOL0     H35861   0.647   9.502   3.696  1.3300  0.5187  0.3216
  266MOL0     H35862   0.561   9.724   3.525  1.2493 -0.9768 -1.3240
  266MOL0     H35863   0.558   9.875   3.612 -0.6159 -1.1723  0.8221
  266MOL0     H35864   0.801   9.857   3.638 -2.1847 -2.9280  3.1226
  266MOL0     H35865   0.810   9.703   3.548 -1.0123 -0.0753 -0.9737
  266MOL0     H35866   0.734   9.805   3.325  0.3135 -1.5319  0.1497
  266MOL0     H35867   0.873   9.891   3.390 -0.6722  0.1328 -0.6759
  266MOL0     H35868   0.697  10.050   3.507  3.5340  0.2728 -0.2438
  266MOL0     H35869   0.575   9.973   3.416 -0.9970  1.8969 -0.9151
  266MOL0     H35870   0.553  10.195   3.118  0.7581 -2.7862  0.7624
  266MOL0     H35871   0.460  10.430   3.130  1.2870  0.3322  0.2270
  266MOL0     H35872   0.516  10.891   3.256  2.0098  1.7388  1.5096
  266MOL0     H35873   0.458  11.128   3.337  0.7962  1.2590  1.5891
  266MOL0     H35874   0.508  11.287   3.468 -1.4284 -1.0901 -0.7027
  266MOL0     H35875   0.395  11.384   3.562 -0.8627 -1.1238  2.3317
  266MOL0     H35876   0.488  11.346   3.763 -0.0452  4.8632 -2.7573
  266MOL0     H35877   0.577  11.207   3.710 -0.1670  0.2312  2.8286
  266MOL0     H35878   0.664  11.500   3.641 -1.6456  1.3365  2.3066
  266MOL0     H35879   0.699  11.406   3.781 -0.9531 -0.1967 -0.1476
  266MOL0     H35880   0.810  11.353   3.491 -1.6913 -1.2206 -1.7263
  266MOL0     H35881   0.759  11.218   3.572  1.6105 -0.5407 -0.4916
  266MOL0     H35882   0.986  11.271   3.600 -1.5515  1.3390 -2.3212
  266MOL0     H35883   0.902  11.263   3.761 -0.6647 -0.0156 -0.0440
  266MOL0     H35884   0.943  11.517   3.609 -1.7524  2.9022  1.9652
  266MOL0     H35885   0.938  11.506   3.787 -0.1659 -0.4186 -0.8010
  266MOL0     H35886   1.162  11.574   3.695 -2.6916  0.7704  0.9306
  266MOL0     H35887   1.190  11.420   3.606 -1.5584 -0.9745  0.2041
  266MOL0     H35888   1.277  11.450   3.862 -2.6304  4.3943  1.6855
  266MOL0     H35889   1.117  11.400   3.892  1.8456 -1.0533  1.9306
  266MOL0     H35890   0.331  10.988   3.711  1.8409  0.3609 -0.0606
  266MOL0     H35891   0.377  10.751   3.636 -2.8236 -0.1979 -0.1098
  266MOL0     H35892   0.652  10.485   3.498  1.6653 -2.9653  1.4664
  266MOL0     H35893   0.726  10.266   3.512  0.0770 -1.0560  0.4053
  266MOL0     H35894   1.378   9.355   4.550  0.0524 -0.3154 -1.3154
  266MOL0     H35895   1.563   9.194   4.606  0.3682 -0.7579 -0.0106
  266MOL0     H35896   1.791   8.914   4.628 -1.7408 -1.1580 -1.0895
  266MOL0     H35897   2.009   8.834   4.705  0.8512  1.2811  1.2468
  266MOL0     H35898   2.207   8.753   4.834 -0.4963 -0.7154  2.1428
  266MOL0     H35899   2.137   8.619   4.733  1.7384 -2.3738  1.2399
  266MOL0     H35900   2.207   8.458   4.916  0.8537 -0.3978  2.7310
  266MOL0     H35901   2.285   8.584   4.995 -0.4418  2.0847 -1.5327
  266MOL0     H35902   2.421   8.638   4.786  0.2107 -0.3804 -0.8796
  266MOL0     H35903   2.354   8.486   4.711  1.9765 -1.0883 -0.8484
  266MOL0     H35904   2.453   8.475   4.987 -0.4008 -2.3460 -0.0677
  266MOL0     H35905   2.474   8.355   4.853  0.2879 -0.1706  0.3130
  266MOL0     H35906   2.837   8.584   4.808 -0.1734  1.6857  1.1638
  266MOL0     H35907   1.822   8.600   5.007  2.9350 -1.6646 -2.6644
  266MOL0     H35908   1.598   8.576   5.029  2.0437 -0.9914 -2.4819
  266MOL0     H35909   1.489   8.718   4.997  0.0042 -0.5158  0.2923
  266MOL0     H35910   1.504   8.576   4.889 -3.4329 -0.1273  2.1899
  267MOL0     O35911  10.822   5.849   5.498  0.4680 -0.3416 -0.4995
  267MOL0     C35912  10.934   5.902   5.508  0.3184  0.1020  0.0444
  267MOL0     O35913  11.052   5.840   5.477 -0.1004 -0.2557 -0.2105
  267MOL0     C35914  11.055   5.730   5.394  1.1722  0.0724 -0.2903
  267MOL0     C35915  10.950   5.686   5.309  0.9956  0.1983 -0.1042
  267MOL0     C35916  10.967   5.562   5.246  0.1676  0.0054 -0.5981
  267MOL0     C35917  11.079   5.484   5.257 -0.6537 -0.3256 -1.0000
  267MOL0     O35918  11.104   5.362   5.196 -0.0420 -0.8364 -0.1756
  267MOL0     C35919  10.982   5.292   5.169 -0.5443 -0.6437 -0.6348
  267MOL0     C35920  10.977   5.264   5.022  0.0456 -1.3839 -0.8722
  267MOL0     C35921  11.101   5.201   4.955 -0.4393  0.6040 -0.7013
  267MOL0     C35922  11.163   5.084   5.028  1.0811 -0.5079  1.4077
  267MOL0     C35923  11.243   4.990   4.944  0.3571 -0.6380  0.6811
  267MOL0     C35924  11.315   4.875   5.023  0.7321  0.6932  0.2970
  267MOL0     C35925  11.441   4.925   5.109  1.7559 -0.5206 -0.2898
  267MOL0     C35926  11.410   4.937   5.254  0.4113 -0.6738 -0.7599
  267MOL0     N35927  11.491   5.050   5.316 -0.8478  0.3611  0.3633
  267MOL0     C35928  11.449   5.179   5.331  0.2144  0.1000 -0.3374
  267MOL0     C35929  11.527   5.228   5.429 -0.2273  0.2296 -0.6262
  267MOL0     C35930  11.537   5.359   5.490 -1.5659 -0.1159 -0.6544
  267MOL0     C35931  11.408   5.388   5.575  0.0833 -0.6395 -0.3317
  267MOL0     C35932  11.416   5.531   5.638  0.0784 -1.0545 -0.1243
  267MOL0     C35933  11.279   5.582   5.701 -0.0110  0.1136  0.2123
  267MOL0     O35934  11.277   5.729   5.725 -0.4432 -0.1478  0.3248
  267MOL0     C35935  11.366   5.768   5.824  0.2649 -0.7796  0.4675
  267MOL0     C35936  11.471   5.857   5.799 -0.1283  0.2210 -0.5847
  267MOL0     C35937  11.567   5.885   5.896  0.5103  0.9102 -0.2031
  267MOL0     C35938  11.560   5.821   6.017  0.0402  0.2553 -0.7960
  267MOL0     C35939  11.663   5.860   6.127 -0.1187 -0.3191  0.7653
  267MOL0     O35940  11.678   5.785   6.240  0.3870  0.0179  1.1015
  267MOL0     C35941  11.778   5.813   6.327 -0.3989  0.6656  1.1840
  267MOL0     C35942  11.915   5.799   6.305  0.0331 -0.0860 -0.5036
  267MOL0     C35943  12.006   5.815   6.404 -0.8968 -0.7224  0.4983
  267MOL0     C35944  11.964   5.868   6.527 -0.2476 -0.1178 -0.5705
  267MOL0     O35945  12.062   5.913   6.607  0.5632 -0.4073 -0.0007
  267MOL0     C35946  12.038   5.933   6.745  0.0799 -0.6192  0.3169
  267MOL0     C35947  12.169   5.900   6.822 -0.0659  1.2851  0.1190
  267MOL0     C35948  12.303   5.958   6.761 -0.5952  0.1366 -0.8055
  267MOL0     C35949  12.420   5.939   6.861  0.4714  1.8783  0.0033
  267MOL0     C35950  12.539   6.022   6.817  0.6972  0.0462 -0.1792
  267MOL0     C35951  12.523   6.166   6.864 -0.7074  0.7170 -0.3572
  267MOL0     C35952  12.640   6.256   6.819  0.5040 -1.1919  0.3516
  267MOL0     C35953  12.722   6.305   6.942  0.8710  0.0499  0.1857
  267MOL0    Cl35954  12.826   6.443   6.897  0.0591  0.1384 -0.0206
  267MOL0     C35955  11.833   5.879   6.550 -0.0529  0.5139  0.2496
  267MOL0     C35956  11.738   5.843   6.454  0.7193 -0.6597 -0.0655
  267MOL0     O35957  11.729   5.967   6.109 -0.5131  0.4442  0.2586
  267MOL0     C35958  11.453   5.749   6.051  0.8830  0.3924  0.5677
  267MOL0     C35959  11.356   5.726   5.957 -0.8669  0.8217 -0.5664
  267MOL0     N35960  11.625   5.130   5.458 -0.8689  0.0984  0.6586
  267MOL0     N35961  11.595   5.024   5.396  0.5939  0.1609 -0.7435
  267MOL0     C35962  11.183   5.532   5.336 -0.1215  0.5570 -0.8276
  267MOL0     C35963  11.174   5.659   5.390  0.3350  0.7519 -0.5171
  267MOL0     C35964  10.948   6.016   5.607 -0.1316 -0.4405 -0.7456
  267MOL0     C35965  11.033   6.002   5.718 -0.2664  0.9467  0.2244
  267MOL0     C35966  11.039   6.107   5.811 -0.2502 -0.1295 -0.5699
  267MOL0     C35967  10.954   6.220   5.799  0.6773 -0.5576 -0.6605
  267MOL0     O35968  10.939   6.331   5.890  0.4791  0.0584 -0.2567
  267MOL0     C35969  11.010   6.339   6.009 -0.0935  0.8461 -0.0721
  267MOL0     C35970  10.939   6.242   6.109  0.3421 -0.1488 -0.4902
  267MOL0     C35971  10.992   6.272   6.250 -0.3600  0.2420 -0.1838
  267MOL0     C35972  10.984   6.158   6.350  0.5826 -0.3504  0.2395
  267MOL0     C35973  11.098   6.061   6.321  0.6103  0.3146 -0.2789
  267MOL0     C35974  11.190   5.992   6.284 -0.6528 -0.7328 -0.0088
  267MOL0     C35975  10.885   6.230   5.681  0.2226 -0.0039 -0.8819
  267MOL0     C35976  10.888   6.139   5.581  0.1801 -0.3883  0.5419
  267MOL0     C35977  10.816   6.176   5.455 -0.9347  0.1281  0.0691
  267MOL0     H35978  10.851   5.729   5.299  0.7127 -0.6222 -0.9329
  267MOL0     H35979  10.887   5.543   5.175  0.1594  2.0098 -1.1645
  267MOL0     H35980  10.999   5.197   5.220  1.8838 -1.2944 -2.4470
  267MOL0     H35981  10.896   5.337   5.220  1.5083  1.0150  1.6053
  267MOL0     H35982  10.961   5.366   4.986 -0.8754 -0.4949  1.8287
  267MOL0     H35983  10.901   5.189   4.998  0.3352 -2.4426  1.3249
  267MOL0     H35984  11.179   5.274   4.931  2.7092 -2.5770 -0.9351
  267MOL0     H35985  11.073   5.165   4.856  4.1428  0.1661 -2.0609
  267MOL0     H35986  11.229   5.115   5.109  1.0084  5.8260 -0.4791
  267MOL0     H35987  11.084   5.021   5.070 -2.8594  1.0368 -2.7737
  267MOL0     H35988  11.183   4.952   4.860  3.1885 -1.2654 -1.1766
  267MOL0     H35989  11.321   5.048   4.894  2.5002 -2.0279  2.2607
  267MOL0     H35990  11.247   4.826   5.092  0.4777  1.0108  0.2728
  267MOL0     H35991  11.353   4.801   4.952 -0.9968  0.1049 -0.0398
  267MOL0     H35992  11.472   5.021   5.069 -0.9432  0.6502  0.1611
  267MOL0     H35993  11.531   4.865   5.093  2.7329  0.4781  1.1845
  267MOL0     H35994  11.305   4.962   5.277  1.2899  0.3420  2.8267
  267MOL0     H35995  11.436   4.848   5.313  0.9634  0.0162  0.0709
  267MOL0     H35996  11.379   5.212   5.255  0.6740 -0.4011 -0.9928
  267MOL0     H35997  11.627   5.366   5.551  0.2768 -0.9179 -3.1180
  267MOL0     H35998  11.554   5.429   5.408  3.1149 -0.1000  0.1050
  267MOL0     H35999  11.321   5.370   5.511 -0.1824  0.8484 -0.4245
  267MOL0     H36000  11.396   5.310   5.651 -4.0821 -1.0486 -1.1666
  267MOL0     H36001  11.440   5.606   5.562 -3.0119  1.0700  0.8226
  267MOL0     H36002  11.494   5.538   5.715 -0.2341 -0.1821  0.1237
  267MOL0     H36003  11.273   5.527   5.796  2.6178 -1.8265 -0.6434
  267MOL0     H36004  11.199   5.557   5.631  1.0596 -1.6639 -0.4198
  267MOL0     H36005  11.478   5.907   5.703 -0.5268  0.6760 -0.3800
  267MOL0     H36006  11.636   5.965   5.872 -0.9063  1.7272 -1.8242
  267MOL0     H36007  11.947   5.773   6.205 -1.6171 -1.5255 -0.7063
  267MOL0     H36008  12.108   5.815   6.369 -1.2997 -0.8718 -0.6986
  267MOL0     H36009  12.012   6.038   6.755  3.4992  0.5953 -1.8453
  267MOL0     H36010  11.963   5.865   6.788  0.8537 -1.3145  0.6093
  267MOL0     H36011  12.163   5.910   6.931  1.4478 -1.8567  0.5981
  267MOL0     H36012  12.178   5.792   6.805  1.2514  1.1704  1.4160
  267MOL0     H36013  12.332   5.913   6.665  0.3681 -0.2653 -0.3341
  267MOL0     H36014  12.284   6.062   6.735  0.3640  0.2229 -1.1929
  267MOL0     H36015  12.430   5.830   6.872 -0.4098  1.4329 -2.7393
  267MOL0     H36016  12.376   5.966   6.957  0.4234  0.6540  0.3452
  267MOL0     H36017  12.543   6.017   6.708 -0.5316 -0.6066 -0.2166
  267MOL0     H36018  12.628   5.975   6.861  2.8492  1.8343 -2.3780
  267MOL0     H36019  12.431   6.210   6.827  0.6704  4.8312  0.6416
  267MOL0     H36020  12.520   6.165   6.974 -0.7657  2.0983 -0.3345
  267MOL0     H36021  12.597   6.349   6.782  3.4843 -0.6871 -2.3116
  267MOL0     H36022  12.700   6.207   6.742 -1.6376 -0.0941 -2.1452
  267MOL0     H36023  12.648   6.351   7.009 -1.8804  0.6473 -2.9826
  267MOL0     H36024  12.784   6.224   6.982  0.3299  0.3850  1.8026
  267MOL0     H36025  11.799   5.934   6.637  3.0353  2.9709  0.0992
  267MOL0     H36026  11.632   5.858   6.471  0.1784 -0.1300 -3.2835
  267MOL0     H36027  11.430   5.705   6.148  1.4491  1.4642  1.1994
  267MOL0     H36028  11.275   5.660   5.985  0.5305 -1.1306 -0.8640
  267MOL0     H36029  11.276   5.476   5.335 -0.7099 -0.4849  0.2738
  267MOL0     H36030  11.252   5.709   5.447 -0.9570  2.8252 -0.4714
  267MOL0     H36031  11.092   5.911   5.721 -2.0581 -0.2999 -0.5145
  267MOL0     H36032  11.111   6.102   5.892 -0.9255 -1.4915 -0.0255
  267MOL0     H36033  10.996   6.439   6.050 -1.2770  0.2471  1.0663
  267MOL0     H36034  11.112   6.301   6.003 -0.5848 -0.6043  0.2267
  267MOL0     H36035  10.978   6.142   6.090  0.0291 -0.2846 -0.4235
  267MOL0     H36036  10.830   6.242   6.111  0.3022  1.5883 -0.3157
  267MOL0     H36037  10.934   6.353   6.296  0.2218 -0.4519  1.8781
  267MOL0     H36038  11.097   6.299   6.241  0.3098 -1.1270  2.5315
  267MOL0     H36039  10.987   6.191   6.454  1.8012 -3.1372  1.1744
  267MOL0     H36040  10.888   6.106   6.347  0.5440 -0.3083  0.6954
  267MOL0     H36041  11.273   5.950   6.231 -2.6523 -1.9799 -2.3662
  267MOL0     H36042  10.823   6.316   5.658  1.5020  1.9416  2.2607
  267MOL0     H36043  10.826   6.104   5.373 -1.4254  0.6233 -0.4348
  267MOL0     H36044  10.709   6.191   5.474 -1.1615 -0.9321 -0.2981
  267MOL0     H36045  10.849   6.272   5.415  2.3937 -1.0488 -0.2959
  268MOL0     O36046   8.672   3.913   8.088 -0.5158 -0.2575  0.6706
  268MOL0     C36047   8.614   4.009   8.041  0.1642 -1.1791  0.4634
  268MOL0     O36048   8.604   4.132   8.100 -0.2236 -0.1217 -0.3875
  268MOL0     C36049   8.626   4.165   8.238  0.6607 -0.2145  0.1120
  268MOL0     C36050   8.717   4.255   8.295  1.6682  0.5638 -0.0223
  268MOL0     C36051   8.728   4.273   8.430 -1.0292 -0.0967  0.9242
  268MOL0     C36052   8.650   4.201   8.525 -0.6146 -1.2619 -0.1727
  268MOL0     O36053   8.667   4.217   8.661 -0.2955 -0.0696  0.0463
  268MOL0     C36054   8.589   4.129   8.752  0.5504  0.6457  0.1895
  268MOL0     C36055   8.601   4.163   8.905 -0.1112  0.1814 -0.8507
  268MOL0     C36056   8.733   4.111   8.965 -0.4298 -0.1684 -0.1929
  268MOL0     C36057   8.744   4.132   9.115 -0.1147 -0.2128  0.9172
  268MOL0     C36058   8.666   4.018   9.180  0.0534 -0.2292 -0.7879
  268MOL0     C36059   8.709   3.997   9.323 -0.8102 -0.8819 -0.8526
  268MOL0     C36060   8.627   3.877   9.382  0.5477 -0.3695  0.2661
  268MOL0     C36061   8.661   3.834   9.515 -0.1102 -0.6026  0.1101
  268MOL0     N36062   8.690   3.952   9.613 -0.5702  0.3740  0.4001
  268MOL0     C36063   8.600   4.024   9.683  0.7738  0.4456 -0.1072
  268MOL0     C36064   8.676   4.113   9.752  1.0304  0.0616 -0.9513
  268MOL0     C36065   8.614   4.219   9.847 -1.1989  0.9529 -0.1615
  268MOL0     C36066   8.485   4.289   9.796  0.5139 -0.5057 -0.1712
  268MOL0     C36067   8.423   4.360   9.908  0.1390  0.0396 -0.6191
  268MOL0     C36068   8.366   4.280  10.021  0.7379  0.1536  0.2752
  268MOL0     O36069   8.274   4.181   9.971  1.2246  0.2692 -0.1200
  268MOL0     C36070   8.215   4.105  10.064 -0.8378  0.3453 -0.5516
  268MOL0     C36071   8.096   4.053  10.024 -0.0634 -0.4376 -0.8007
  268MOL0     C36072   8.019   3.982  10.111 -1.0315  0.5880  0.4776
  268MOL0     C36073   8.072   3.943  10.240  0.9484  0.5057  0.4137
  268MOL0     C36074   7.995   3.848  10.328  0.3880 -0.1955  0.5683
  268MOL0     O36075   8.054   3.819  10.447 -0.3384  0.6883 -0.6839
  268MOL0     C36076   8.004   3.715  10.520  0.0226 -0.3625  0.1959
  268MOL0     C36077   7.983   3.590  10.460  0.2858  0.0875  0.2206
  268MOL0     C36078   7.951   3.476  10.540 -0.7412 -0.5531 -0.3397
  268MOL0     C36079   7.938   3.494  10.682 -0.6259  0.2155  0.7706
  268MOL0     O36080   7.927   3.383  10.767 -0.1004 -0.3624  0.3163
  268MOL0     C36081   7.921   3.247  10.717 -0.4894  0.1022 -0.2818
  268MOL0     C36082   7.921   3.140  10.825 -0.6023  0.6790  0.3697
  268MOL0     C36083   7.788   3.136  10.893 -0.2150  0.2202 -0.7111
  268MOL0     C36084   7.775   3.006  10.975 -0.7855 -0.5687  0.1332
  268MOL0     C36085   7.633   3.008  11.042 -1.1688 -0.4184  0.3379
  268MOL0     C36086   7.585   2.876  11.080 -0.0052 -0.1847  1.7636
  268MOL0     C36087   7.458   2.891  11.163  0.3236 -0.0032  0.2698
  268MOL0     C36088   7.485   2.920  11.318 -0.2948  0.1647 -0.3246
  268MOL0    Cl36089   7.343   2.999  11.404  0.0049  0.0404 -0.1102
  268MOL0     C36090   7.958   3.618  10.743 -0.6875  0.4447  0.0865
  268MOL0     C36091   8.002   3.722  10.659  0.8831  0.5020 -0.9038
  268MOL0     O36092   7.897   3.792  10.279  0.3868  0.0773  0.0786
  268MOL0     C36093   8.189   3.995  10.284  0.0915 -1.1503 -0.6447
  268MOL0     C36094   8.262   4.084  10.201  0.7668 -0.2611  0.1517
  268MOL0     N36095   8.808   4.101   9.723 -0.2134  0.2067  0.9837
  268MOL0     N36096   8.818   3.994   9.640 -0.0487 -1.0895 -0.7505
  268MOL0     C36097   8.561   4.109   8.466  0.5564 -0.7933 -0.6668
  268MOL0     C36098   8.548   4.104   8.326  0.2886  0.1201  0.3212
  268MOL0     C36099   8.561   3.999   7.904  0.0669  0.6528  0.0339
  268MOL0     C36100   8.630   3.929   7.803 -0.4969 -0.1388  0.2312
  268MOL0     C36101   8.579   3.912   7.675 -0.4055  0.0013 -0.0922
  268MOL0     C36102   8.460   3.956   7.636  0.0220 -1.1938  0.0995
  268MOL0     O36103   8.403   3.959   7.506  0.0776 -0.5845  0.1310
  268MOL0     C36104   8.419   3.846   7.418  0.3407 -0.1929 -0.3136
  268MOL0     C36105   8.507   3.880   7.291  0.2801 -0.1863 -0.0574
  268MOL0     C36106   8.655   3.895   7.338 -0.0065 -0.5684 -0.3231
  268MOL0     C36107   8.762   3.892   7.224  0.1963  0.4247  0.1391
  268MOL0     C36108   8.844   4.007   7.224 -0.5312  0.4625 -0.6911
  268MOL0     C36109   8.927   4.090   7.253 -0.6511  0.6871 -0.8312
  268MOL0     C36110   8.388   4.032   7.733  0.0825 -0.6223  0.6506
  268MOL0     C36111   8.441   4.058   7.861  0.4662  0.3567  0.3610
  268MOL0     C36112   8.354   4.120   7.964 -0.8610  0.0837  0.4077
  268MOL0     H36113   8.770   4.320   8.226  0.0255  2.2605  0.2182
  268MOL0     H36114   8.789   4.361   8.446  0.1102 -0.0092 -3.0067
  268MOL0     H36115   8.484   4.152   8.730  0.5212 -0.3579 -0.7686
  268MOL0     H36116   8.616   4.025   8.737  0.9218  0.9570 -1.4507
  268MOL0     H36117   8.515   4.125   8.961  0.2853 -0.0205 -0.3699
  268MOL0     H36118   8.595   4.271   8.917 -1.0764 -0.0772  1.4658
  268MOL0     H36119   8.815   4.171   8.923  0.5035  0.1045  1.8855
  268MOL0     H36120   8.731   4.007   8.932  0.8515 -0.8486  1.6747
  268MOL0     H36121   8.849   4.120   9.141  0.9324 -3.5475 -3.5255
  268MOL0     H36122   8.712   4.234   9.137 -2.7672 -0.1738 -2.2380
  268MOL0     H36123   8.558   4.037   9.180 -0.0000 -0.4477  0.5736
  268MOL0     H36124   8.665   3.933   9.112 -0.9141 -0.1286 -0.9186
  268MOL0     H36125   8.813   3.965   9.317 -1.3261 -3.1556  0.8118
  268MOL0     H36126   8.697   4.091   9.378 -0.1195 -3.0207  3.3893
  268MOL0     H36127   8.633   3.789   9.318 -2.6118 -1.3953  1.1738
  268MOL0     H36128   8.522   3.904   9.397  1.1288  0.4691  3.7126
  268MOL0     H36129   8.575   3.781   9.557 -0.0799 -0.4530  0.3614
  268MOL0     H36130   8.739   3.759   9.505  1.2033  0.5476  1.2878
  268MOL0     H36131   8.494   4.000   9.689  0.2436  2.7329  0.4974
  268MOL0     H36132   8.590   4.189   9.950 -3.2532 -0.7339 -1.0560
  268MOL0     H36133   8.697   4.288   9.866 -0.4563  0.3171 -1.0138
  268MOL0     H36134   8.509   4.357   9.714  0.1344 -2.3388 -1.8800
  268MOL0     H36135   8.423   4.208   9.757  3.2361 -1.8240 -2.0883
  268MOL0     H36136   8.340   4.417   9.866  0.3642 -1.7748 -3.7273
  268MOL0     H36137   8.495   4.430   9.952  0.3264 -1.6916  2.0676
  268MOL0     H36138   8.303   4.344  10.082  0.1487 -1.3463  1.3029
  268MOL0     H36139   8.445   4.228  10.076  1.0643 -0.3153 -0.6180
  268MOL0     H36140   8.059   4.076   9.925  0.6926 -0.9327 -1.2032
  268MOL0     H36141   7.932   3.949  10.056 -0.5220 -1.4815  0.8431
  268MOL0     H36142   7.989   3.579  10.352 -1.2278 -1.4995  0.2727
  268MOL0     H36143   7.938   3.376  10.499  0.9147 -0.6256 -0.7603
  268MOL0     H36144   7.821   3.238  10.672 -1.3898  2.4125  1.0914
  268MOL0     H36145   8.000   3.218  10.647 -1.4207 -2.1218 -0.4647
  268MOL0     H36146   7.941   3.048  10.768  0.0225  0.4185  0.9983
  268MOL0     H36147   7.999   3.181  10.889  0.0491  2.8215 -1.6688
  268MOL0     H36148   7.780   3.218  10.966 -1.2792  1.7578 -2.4721
  268MOL0     H36149   7.705   3.135  10.822 -0.4305  0.7561 -0.4750
  268MOL0     H36150   7.853   2.995  11.051  1.7790  0.0602 -2.2593
  268MOL0     H36151   7.776   2.925  10.901 -1.8342 -0.9898  0.5569
  268MOL0     H36152   7.570   3.051  10.964 -1.0609 -1.6868 -0.4828
  268MOL0     H36153   7.637   3.076  11.127  1.5602  2.0617 -1.5591
  268MOL0     H36154   7.569   2.833  10.981  0.4808  2.9048  0.2329
  268MOL0     H36155   7.661   2.813  11.127 -1.6069 -1.5177  2.6638
  268MOL0     H36156   7.403   2.797  11.162 -0.5116  0.4648  1.0280
  268MOL0     H36157   7.387   2.962  11.119 -3.6049 -3.5636  0.3424
  268MOL0     H36158   7.525   2.830  11.365  0.0942  0.3361 -0.3245
  268MOL0     H36159   7.567   2.991  11.325 -0.2640  0.0601  0.4821
  268MOL0     H36160   7.950   3.622  10.852 -0.9461 -0.0628  0.0857
  268MOL0     H36161   8.041   3.812  10.706  0.0793 -0.1762  1.1889
  268MOL0     H36162   8.223   3.974  10.385  0.2821 -1.1224 -0.7027
  268MOL0     H36163   8.352   4.131  10.238  1.5373 -1.2867 -0.3752
  268MOL0     H36164   8.487   4.056   8.526  1.6258 -0.5024  0.9571
  268MOL0     H36165   8.469   4.037   8.295 -2.6803  4.2118 -1.9712
  268MOL0     H36166   8.725   3.881   7.823  0.1215 -0.1605 -2.4728
  268MOL0     H36167   8.633   3.850   7.604 -1.8564 -1.4338 -0.0050
  268MOL0     H36168   8.329   3.802   7.376  0.7423 -0.7261 -0.6372
  268MOL0     H36169   8.462   3.765   7.478  1.8706 -0.3153 -1.4966
  268MOL0     H36170   8.467   3.973   7.251  1.4198  2.2862  3.8942
  268MOL0     H36171   8.502   3.791   7.227  0.1818  1.9463 -3.2214
  268MOL0     H36172   8.681   3.808   7.399  1.1398 -0.9027 -1.2539
  268MOL0     H36173   8.653   3.991   7.391 -0.2631  0.4948 -2.1617
  268MOL0     H36174   8.825   3.803   7.237 -0.9740 -0.2713  1.4150
  268MOL0     H36175   8.704   3.890   7.131  1.2080 -0.2257 -0.5055
  268MOL0     H36176   8.993   4.165   7.292  1.8980 -0.6477 -2.3023
  268MOL0     H36177   8.296   4.085   7.708  0.7267  0.8604  1.3480
  268MOL0     H36178   8.345   4.057   8.053  5.3554 -1.3935  0.4144
  268MOL0     H36179   8.391   4.219   7.989  1.1821  0.2931 -2.8270
  268MOL0     H36180   8.256   4.134   7.917  0.5396  0.2826 -2.7162
  269MOL0     O36181   9.414   7.720   1.333 -0.4563 -0.2024 -0.4568
  269MOL0     C36182   9.442   7.826   1.385 -0.2997 -0.2484 -1.6581
  269MOL0     O36183   9.539   7.911   1.334  0.6889 -0.0293 -0.5778
  269MOL0     C36184   9.611   7.871   1.227  0.4235 -0.4690 -0.0377
  269MOL0     C36185   9.582   7.909   1.093 -0.5501 -1.3180 -0.6356
  269MOL0     C36186   9.633   7.850   0.989 -0.9082  0.4696 -0.7184
  269MOL0     C36187   9.746   7.769   1.006  0.6034 -0.2419 -0.1452
  269MOL0     O36188   9.814   7.717   0.899 -0.2525 -0.0114 -0.2815
  269MOL0     C36189   9.755   7.713   0.766  1.2114 -0.3724 -0.3770
  269MOL0     C36190   9.829   7.619   0.664  0.0571  0.2667 -0.0585
  269MOL0     C36191   9.733   7.602   0.547 -0.2344 -0.8364  0.3777
  269MOL0     C36192   9.797   7.532   0.434 -0.6963  0.3212  0.2667
  269MOL0     C36193   9.902   7.614   0.352  0.0260 -0.1307 -0.5474
  269MOL0     C36194   9.960   7.545   0.218  0.5292 -0.4208  1.1514
  269MOL0     C36195   9.869   7.561   0.091  0.0934 -0.2017  0.3035
  269MOL0     C36196   9.951   7.511  -0.036  1.0123 -0.7518 -0.0030
  269MOL0     N36197   9.871   7.500  -0.156  1.0111 -0.2186  0.3017
  269MOL0     C36198   9.760   7.430  -0.173 -0.4902 -0.0006 -0.4362
  269MOL0     C36199   9.717   7.458  -0.298  0.3532  1.6810 -0.0723
  269MOL0     C36200   9.597   7.408  -0.373  0.5006 -0.4073  0.3441
  269MOL0     C36201   9.552   7.279  -0.306 -0.0524  0.4193  0.6806
  269MOL0     C36202   9.446   7.203  -0.398 -0.6237 -0.3103 -0.3228
  269MOL0     C36203   9.394   7.079  -0.316 -0.6177 -0.6398  0.9253
  269MOL0     O36204   9.282   7.023  -0.399 -0.6983  0.5398  0.5902
  269MOL0     C36205   9.199   6.926  -0.343  0.2121  0.5374 -0.4077
  269MOL0     C36206   9.096   6.879  -0.423 -0.1858 -1.0457  0.1661
  269MOL0     C36207   9.013   6.769  -0.382  0.3275  0.8619  0.6885
  269MOL0     C36208   9.022   6.713  -0.257  0.9280 -0.3524  0.0656
  269MOL0     C36209   8.926   6.611  -0.211 -1.5433  0.1724 -0.7337
  269MOL0     O36210   8.934   6.570  -0.084  0.3937  0.1282 -0.7469
  269MOL0     C36211   8.843   6.484  -0.029 -0.1758  0.5810  0.1556
  269MOL0     C36212   8.891   6.372   0.039  0.7590  0.8266 -0.4742
  269MOL0     C36213   8.793   6.294   0.100 -0.0123  1.0385  0.9902
  269MOL0     C36214   8.656   6.321   0.096 -0.1734  0.2248 -0.4738
  269MOL0     O36215   8.575   6.219   0.148 -0.3531 -0.2721  0.1867
  269MOL0     C36216   8.461   6.275   0.216  0.2301  0.5664  0.4610
  269MOL0     C36217   8.424   6.173   0.322 -0.2591  1.0573 -0.4564
  269MOL0     C36218   8.384   6.027   0.279 -0.4928 -0.4336  0.0354
  269MOL0     C36219   8.234   6.007   0.233  0.9203  0.2059 -1.2836
  269MOL0     C36220   8.177   5.870   0.238 -0.2163 -0.9385  1.0381
  269MOL0     C36221   8.114   5.805   0.360  0.3728 -0.0296  0.2725
  269MOL0     C36222   8.073   5.657   0.338 -1.1549  0.4807  0.2589
  269MOL0     C36223   8.037   5.564   0.459 -0.1992 -0.7060  0.7089
  269MOL0    Cl36224   8.162   5.592   0.582  0.1220 -0.2836  0.3096
  269MOL0     C36225   8.608   6.440   0.036 -0.9379  0.1306  0.0992
  269MOL0     C36226   8.703   6.527  -0.017 -0.8651 -0.3959  0.8270
  269MOL0     O36227   8.827   6.593  -0.288 -0.8358 -0.4593 -0.4377
  269MOL0     C36228   9.135   6.750  -0.183 -0.0583 -0.5191 -0.0092
  269MOL0     C36229   9.218   6.858  -0.222 -0.2704 -0.2439 -0.0122
  269MOL0     N36230   9.814   7.541  -0.353 -0.1218 -0.6286 -0.2145
  269MOL0     N36231   9.907   7.572  -0.275  0.7254 -0.6359 -0.8535
  269MOL0     C36232   9.797   7.741   1.137  0.3123  0.5340  0.0658
  269MOL0     C36233   9.719   7.784   1.244 -0.9200 -0.2547 -0.2620
  269MOL0     C36234   9.388   7.852   1.522 -0.6698  0.9581  0.3298
  269MOL0     C36235   9.454   7.945   1.594 -0.6249 -0.5107 -0.6329
  269MOL0     C36236   9.407   7.991   1.717  0.1507 -0.3745 -0.1922
  269MOL0     C36237   9.295   7.930   1.776 -0.2258  0.1579 -0.2333
  269MOL0     O36238   9.252   7.980   1.897  0.3939 -0.1336 -0.1021
  269MOL0     C36239   9.298   7.883   1.996  0.2328 -0.0075 -0.4553
  269MOL0     C36240   9.306   7.956   2.135  0.9837 -0.5382 -0.6231
  269MOL0     C36241   9.452   7.971   2.173 -0.2564  0.1362  0.3807
  269MOL0     C36242   9.517   7.831   2.203 -1.1699 -0.0169  0.0410
  269MOL0     C36243   9.637   7.847   2.294  1.3674  0.6041  0.2964
  269MOL0     C36244   9.714   7.837   2.374  0.2625 -0.3719 -0.6854
  269MOL0     C36245   9.233   7.829   1.710 -0.3879 -0.2144 -1.0269
  269MOL0     C36246   9.286   7.785   1.584 -0.5019  0.7741 -0.8496
  269MOL0     C36247   9.214   7.671   1.524 -0.3575 -0.6377  0.4975
  269MOL0     H36248   9.497   7.973   1.075 -1.0760 -1.3619  1.4730
  269MOL0     H36249   9.581   7.872   0.896 -1.6679  0.4410 -0.3095
  269MOL0     H36250   9.647   7.691   0.767 -0.2101  5.1364  0.4494
  269MOL0     H36251   9.746   7.817   0.731 -1.2665 -0.2962  0.3006
  269MOL0     H36252   9.853   7.524   0.714  2.1530  1.0078  0.4493
  269MOL0     H36253   9.927   7.660   0.638 -0.3645  1.0991 -0.3835
  269MOL0     H36254   9.683   7.693   0.511 -0.5715 -1.6113 -1.1860
  269MOL0     H36255   9.652   7.538   0.581 -0.2172 -1.0988 -0.0691
  269MOL0     H36256   9.843   7.438   0.465  0.6270  0.1871 -1.9241
  269MOL0     H36257   9.712   7.500   0.372 -1.3117 -3.0361  2.5692
  269MOL0     H36258   9.862   7.715   0.342  0.6711  0.0158 -1.9348
  269MOL0     H36259   9.989   7.618   0.418  1.0750 -0.2320 -1.8829
  269MOL0     H36260  10.045   7.612   0.201 -1.0969  1.5982  0.5570
  269MOL0     H36261  10.008   7.448   0.227  2.2379  0.5098  2.7399
  269MOL0     H36262   9.842   7.667   0.083 -4.3437 -1.0521  1.1242
  269MOL0     H36263   9.772   7.511   0.102 -1.4137  2.9996  3.7953
  269MOL0     H36264  10.050   7.556  -0.051  0.7851 -0.1665  0.1880
  269MOL0     H36265   9.964   7.410   0.002 -1.2675 -0.4583  1.7948
  269MOL0     H36266   9.709   7.367  -0.100 -3.3850  4.8611  2.2608
  269MOL0     H36267   9.520   7.486  -0.371  0.2354 -0.6874  2.1723
  269MOL0     H36268   9.632   7.387  -0.475  5.9575  0.1957  1.7483
  269MOL0     H36269   9.638   7.216  -0.284 -0.2231  0.1694  0.6417
  269MOL0     H36270   9.503   7.305  -0.211 -0.3711  2.0237  0.1150
  269MOL0     H36271   9.500   7.171  -0.488  3.2580 -1.1311  2.0465
  269MOL0     H36272   9.359   7.268  -0.414  0.8001  1.0167 -3.6211
  269MOL0     H36273   9.354   7.127  -0.226 -3.1256  0.0705 -0.4743
  269MOL0     H36274   9.472   7.004  -0.299 -0.6460 -0.9889 -0.3341
  269MOL0     H36275   9.076   6.936  -0.513 -2.0361  0.4722  1.4470
  269MOL0     H36276   8.941   6.733  -0.455  0.7935  4.4229 -1.8266
  269MOL0     H36277   8.995   6.347   0.059  0.9769  1.1192 -1.2130
  269MOL0     H36278   8.814   6.205   0.157  3.9482  2.9278  2.8129
  269MOL0     H36279   8.480   6.375   0.255  1.6989 -0.7557  3.3900
  269MOL0     H36280   8.374   6.276   0.150 -0.4810 -2.8656  1.1736
  269MOL0     H36281   8.521   6.151   0.368 -1.1777 -2.8921 -0.0622
  269MOL0     H36282   8.347   6.210   0.389 -1.0388 -0.6688 -0.3604
  269MOL0     H36283   8.455   6.005   0.198 -0.6857  0.6802 -0.4418
  269MOL0     H36284   8.410   5.952   0.355  2.8793 -1.6747 -2.0829
  269MOL0     H36285   8.238   6.032   0.126 -0.2505 -0.4424 -1.4884
  269MOL0     H36286   8.166   6.073   0.287 -0.5171 -2.0783 -0.2073
  269MOL0     H36287   8.253   5.799   0.203  2.3073  0.8448  2.5975
  269MOL0     H36288   8.090   5.870   0.171  0.9394  2.6479 -0.7119
  269MOL0     H36289   8.175   5.808   0.451  0.8793 -0.6250 -0.0323
  269MOL0     H36290   8.031   5.871   0.387  1.6990  1.9730 -0.3182
  269MOL0     H36291   8.169   5.617   0.307  0.6097  2.9703  2.0886
  269MOL0     H36292   7.994   5.634   0.266  0.6127 -1.4138 -1.1784
  269MOL0     H36293   7.935   5.567   0.497 -0.1327 -3.3512  1.3228
  269MOL0     H36294   8.050   5.460   0.427  2.0359 -1.0424  2.4544
  269MOL0     H36295   8.503   6.466   0.034 -0.8782  0.4193  0.4555
  269MOL0     H36296   8.674   6.621  -0.063 -0.3460 -0.0825  1.1213
  269MOL0     H36297   9.151   6.700  -0.088  3.8067  0.3623 -0.0257
  269MOL0     H36298   9.302   6.884  -0.158 -0.4633 -0.5111  0.3485
  269MOL0     H36299   9.888   7.684   1.151 -0.6725 -1.4263 -1.0422
  269MOL0     H36300   9.747   7.754   1.345 -0.1386  1.6835  0.1582
  269MOL0     H36301   9.545   7.980   1.548 -0.2686 -1.7944 -0.9622
  269MOL0     H36302   9.461   8.069   1.771 -0.0668 -1.4182  1.6372
  269MOL0     H36303   9.388   7.831   1.961  0.7696  0.6029 -0.0295
  269MOL0     H36304   9.219   7.808   2.001  0.5771 -0.4299 -1.2230
  269MOL0     H36305   9.253   7.903   2.215 -1.9158 -0.3899 -2.2994
  269MOL0     H36306   9.273   8.060   2.142 -0.1361 -1.0122  2.8367
  269MOL0     H36307   9.461   8.017   2.272  2.6640 -1.5465  1.0073
  269MOL0     H36308   9.505   8.032   2.098  0.8208  0.8752  1.6832
  269MOL0     H36309   9.442   7.767   2.251 -1.1980 -0.4608 -0.5832
  269MOL0     H36310   9.550   7.795   2.105 -0.3150  0.1790  0.2504
  269MOL0     H36311   9.774   7.824   2.461 -1.6729  3.1186  1.4123
  269MOL0     H36312   9.147   7.782   1.757 -2.1511  2.0579 -1.7317
  269MOL0     H36313   9.138   7.636   1.594 -0.6847  2.7679  2.0679
  269MOL0     H36314   9.162   7.695   1.431 -1.2956 -4.6675 -0.1979
  269MOL0     H36315   9.283   7.586   1.514 -1.9310 -1.6742 -4.5468
  270MOL0     O36316   8.860   0.786   1.624  0.3004  0.6107 -0.0667
  270MOL0     C36317   8.866   0.677   1.687  0.6945  0.3778 -0.2902
  270MOL0     O36318   8.762   0.579   1.689  0.7261 -1.1508  0.7845
  270MOL0     C36319   8.669   0.568   1.586  0.0143 -0.3985 -1.0119
  270MOL0     C36320   8.555   0.493   1.631 -0.5526  0.5124  0.3203
  270MOL0     C36321   8.458   0.464   1.545  0.2779 -0.8550  0.5376
  270MOL0     C36322   8.451   0.524   1.417  0.3835  0.1282  0.3810
  270MOL0     O36323   8.351   0.496   1.315  0.5260  0.0191 -0.1068
  270MOL0     C36324   8.252   0.391   1.333  0.2612  0.4945  0.0809
  270MOL0     C36325   8.300   0.258   1.273  1.2847 -0.4649  0.3210
  270MOL0     C36326   8.192   0.144   1.286 -0.7118 -0.2589 -0.1239
  270MOL0     C36327   8.240   0.016   1.227 -0.2323 -0.9339  0.6226
  270MOL0     C36328   8.152  -0.102   1.251  1.1964  1.0273 -0.8714
  270MOL0     C36329   8.234  -0.238   1.257  0.3028  0.1692 -0.1270
  270MOL0     C36330   8.250  -0.296   1.117  0.3337 -0.5797 -0.3952
  270MOL0     C36331   8.357  -0.407   1.115  0.6086 -1.0489 -1.2337
  270MOL0     N36332   8.391  -0.439   0.975 -0.0345  0.4567 -0.3508
  270MOL0     C36333   8.363  -0.557   0.907 -1.1237 -0.1038 -0.0618
  270MOL0     C36334   8.399  -0.525   0.777  1.3282  0.0048 -0.2406
  270MOL0     C36335   8.374  -0.605   0.661 -0.3608  0.4285 -0.0709
  270MOL0     C36336   8.475  -0.721   0.652  0.3930 -0.2473 -0.1783
  270MOL0     C36337   8.629  -0.683   0.640  0.2591 -0.1938 -0.2954
  270MOL0     C36338   8.655  -0.594   0.519  0.7019 -0.6952 -0.9347
  270MOL0     O36339   8.575  -0.634   0.412 -0.4441  0.3750  0.6051
  270MOL0     C36340   8.595  -0.574   0.291  0.3357 -0.1441  0.4326
  270MOL0     C36341   8.537  -0.634   0.187 -1.1964  0.8087  0.1069
  270MOL0     C36342   8.556  -0.582   0.049 -0.8547 -1.1275  0.4801
  270MOL0     C36343   8.623  -0.456   0.042 -0.4530  0.2494  1.3275
  270MOL0     C36344   8.676  -0.409  -0.090  0.6163 -0.5787 -0.3131
  270MOL0     O36345   8.710  -0.276  -0.111  1.0154 -0.4670  0.5042
  270MOL0     C36346   8.709  -0.223  -0.234 -1.0445  0.2472  1.0115
  270MOL0     C36347   8.592  -0.167  -0.294  0.3288  0.2980  0.0351
  270MOL0     C36348   8.603  -0.107  -0.425 -0.2754 -0.0398 -0.0977
  270MOL0     C36349   8.730  -0.092  -0.484  0.7151  0.5649 -0.9950
  270MOL0     O36350   8.734  -0.026  -0.604 -0.1201  0.0580  0.4296
  270MOL0     C36351   8.857  -0.002  -0.676 -1.0229 -1.3657 -0.1467
  270MOL0     C36352   8.943   0.110  -0.628  0.1355 -0.0829 -0.0775
  270MOL0     C36353   8.847   0.226  -0.613 -0.1264  0.5970 -0.1332
  270MOL0     C36354   8.926   0.359  -0.580  0.1053  0.7061 -0.2406
  270MOL0     C36355   8.838   0.484  -0.571  0.6040 -0.1369 -0.1193
  270MOL0     C36356   8.912   0.605  -0.515  0.7314  0.2890  0.2741
  270MOL0     C36357   8.827   0.718  -0.481 -0.1549 -0.2792  0.2796
  270MOL0     C36358   8.900   0.825  -0.406 -0.4306  0.1477 -0.5041
  270MOL0    Cl36359   8.839   0.986  -0.461  0.6423  0.1035 -0.4324
  270MOL0     C36360   8.840  -0.145  -0.412 -0.0909  0.3124  0.0003
  270MOL0     C36361   8.831  -0.202  -0.288  0.1470  0.0369 -0.9037
  270MOL0     O36362   8.681  -0.496  -0.175 -0.3318 -0.0235  0.6209
  270MOL0     C36363   8.670  -0.384   0.154  0.2373  0.5246  1.3975
  270MOL0     C36364   8.652  -0.442   0.279 -0.6397 -0.3846 -0.3409
  270MOL0     N36365   8.435  -0.396   0.766  0.2218 -0.2788 -0.3904
  270MOL0     N36366   8.430  -0.343   0.885 -0.1604 -0.4873 -0.4394
  270MOL0     C36367   8.560   0.607   1.384 -0.0451 -0.0773  0.2402
  270MOL0     C36368   8.668   0.627   1.462  0.4716  0.3341  0.6590
  270MOL0     C36369   8.980   0.656   1.773  0.3060  0.4514  0.2234
  270MOL0     C36370   8.980   0.531   1.844  1.1394  0.8461 -0.2967
  270MOL0     C36371   9.087   0.481   1.920  0.3466 -0.4994 -0.0610
  270MOL0     C36372   9.189   0.569   1.941  0.1573 -0.6564 -0.6168
  270MOL0     O36373   9.308   0.538   2.002  0.7443  0.0197 -0.6073
  270MOL0     C36374   9.431   0.533   1.927 -1.0375  0.4259 -0.9008
  270MOL0     C36375   9.423   0.394   1.860  0.2279 -0.1662  0.3193
  270MOL0     C36376   9.393   0.275   1.961 -0.8278 -0.4956 -0.7488
  270MOL0     C36377   9.397   0.136   1.892 -0.4663  0.1440 -0.0965
  270MOL0     C36378   9.495   0.131   1.785  0.1464  0.4639 -0.1069
  270MOL0     C36379   9.577   0.118   1.694  0.7429  0.0904 -0.2207
  270MOL0     C36380   9.183   0.700   1.890 -0.0510  0.6236 -0.5098
  270MOL0     C36381   9.091   0.746   1.791  0.6113  0.4325  0.3340
  270MOL0     C36382   9.100   0.879   1.724  0.4975 -0.4964  0.0074
  270MOL0     H36383   8.546   0.453   1.732  1.8009 -1.3288 -0.1044
  270MOL0     H36384   8.376   0.409   1.590 -0.2980 -0.6904 -0.3024
  270MOL0     H36385   8.218   0.378   1.436 -1.7353  0.5877 -0.5243
  270MOL0     H36386   8.158   0.406   1.278  0.2027 -4.5040 -1.6004
  270MOL0     H36387   8.392   0.235   1.325  0.3037  1.7531  3.3245
  270MOL0     H36388   8.316   0.286   1.168  1.9512  5.2199  1.5938
  270MOL0     H36389   8.101   0.179   1.235  0.2337 -1.0514 -2.4774
  270MOL0     H36390   8.170   0.121   1.391  1.7627 -1.8918  0.1123
  270MOL0     H36391   8.244   0.040   1.120 -1.1821  1.9047  1.1390
  270MOL0     H36392   8.340   0.002   1.267 -0.4266 -1.8290  0.8171
  270MOL0     H36393   8.111  -0.090   1.351  3.3976 -2.1016  0.5639
  270MOL0     H36394   8.061  -0.111   1.190 -0.6380 -1.4689  1.9488
  270MOL0     H36395   8.328  -0.208   1.303  0.0999  1.0170 -0.2395
  270MOL0     H36396   8.183  -0.316   1.315 -0.0624  0.8146  0.4413
  270MOL0     H36397   8.289  -0.214   1.056 -1.5884  2.2414  1.8598
  270MOL0     H36398   8.154  -0.336   1.085 -0.0939  1.5899 -2.0418
  270MOL0     H36399   8.449  -0.369   1.161 -1.4850  3.2486 -0.1250
  270MOL0     H36400   8.317  -0.495   1.167 -3.0525  0.1852 -1.7213
  270MOL0     H36401   8.336  -0.655   0.946  0.2995 -1.8318 -3.0511
  270MOL0     H36402   8.281  -0.659   0.678  0.7389 -2.1079 -1.5793
  270MOL0     H36403   8.372  -0.555   0.563 -0.4595 -1.6739 -1.2033
  270MOL0     H36404   8.454  -0.779   0.742 -0.5127 -0.2423 -0.3691
  270MOL0     H36405   8.445  -0.785   0.569 -1.6957  0.7857 -0.3118
  270MOL0     H36406   8.699  -0.767   0.636 -1.1223 -1.3843 -0.3605
  270MOL0     H36407   8.638  -0.626   0.732 -1.7969  0.6166 -0.5381
  270MOL0     H36408   8.759  -0.619   0.494  0.8750 -0.6592 -0.2762
  270MOL0     H36409   8.639  -0.487   0.541 -0.1690 -1.2315  1.3639
  270MOL0     H36410   8.503  -0.735   0.207  0.2896 -0.0090 -1.2224
  270MOL0     H36411   8.533  -0.641  -0.039 -1.5000 -0.5398  0.2467
  270MOL0     H36412   8.494  -0.179  -0.249  0.9374 -2.7315  0.7670
  270MOL0     H36413   8.514  -0.074  -0.477 -0.0896  0.8674  0.1344
  270MOL0     H36414   8.915  -0.095  -0.677  0.1294 -0.6831 -1.2225
  270MOL0     H36415   8.824   0.020  -0.778  0.3347  0.9090 -0.1782
  270MOL0     H36416   8.984   0.081  -0.531  0.0275 -0.5926 -0.1810
  270MOL0     H36417   9.021   0.138  -0.699  0.1316 -0.4150 -0.2159
  270MOL0     H36418   8.778   0.237  -0.698 -1.4373 -2.5074  0.3988
  270MOL0     H36419   8.792   0.212  -0.520 -0.0651 -1.0649 -0.3221
  270MOL0     H36420   8.983   0.359  -0.674  1.6806  0.0347  0.6688
  270MOL0     H36421   8.991   0.334  -0.496  0.2840  1.6903 -0.0708
  270MOL0     H36422   8.770   0.441  -0.496  1.0648 -2.6851 -1.0493
  270MOL0     H36423   8.788   0.504  -0.666  2.2034 -1.5570 -1.3039
  270MOL0     H36424   8.961   0.591  -0.419  1.5968  1.4903  0.0334
  270MOL0     H36425   8.990   0.632  -0.587  1.9760 -0.9138  1.1184
  270MOL0     H36426   8.747   0.676  -0.418  0.7993  0.8022  2.3056
  270MOL0     H36427   8.792   0.770  -0.570 -2.6521  2.8985  2.8587
  270MOL0     H36428   8.888   0.821  -0.298  0.0752  0.3792 -0.4369
  270MOL0     H36429   9.006   0.832  -0.433 -0.7578 -2.7126 -3.1718
  270MOL0     H36430   8.938  -0.134  -0.455  0.7503 -0.4285  1.6382
  270MOL0     H36431   8.915  -0.236  -0.229  1.0555  1.0939 -1.5354
  270MOL0     H36432   8.708  -0.283   0.146  0.2915  0.4251  0.0791
  270MOL0     H36433   8.685  -0.379   0.362  3.4116 -0.6533 -1.5350
  270MOL0     H36434   8.558   0.650   1.285  1.3077 -0.4716  0.0246
  270MOL0     H36435   8.739   0.697   1.417 -0.4532  0.0823 -1.2914
  270MOL0     H36436   8.902   0.457   1.860  1.8076  0.2947  0.5137
  270MOL0     H36437   9.084   0.376   1.946 -1.5944 -1.1138 -2.4063
  270MOL0     H36438   9.516   0.541   1.996 -0.3893 -0.8532 -1.5204
  270MOL0     H36439   9.429   0.626   1.869 -0.1077  0.7830 -0.3951
  270MOL0     H36440   9.528   0.380   1.834  0.1449  2.0518 -1.4808
  270MOL0     H36441   9.353   0.396   1.776 -0.2420  0.1273  0.7086
  270MOL0     H36442   9.300   0.289   2.017  0.0168  1.6984  0.2405
  270MOL0     H36443   9.467   0.284   2.042 -1.1929  1.5477 -0.5888
  270MOL0     H36444   9.413   0.054   1.962  1.5590  0.0251 -0.6334
  270MOL0     H36445   9.292   0.122   1.865 -1.0454  1.4679  1.3338
  270MOL0     H36446   9.624   0.111   1.597 -2.0529 -0.0641 -1.6654
  270MOL0     H36447   9.270   0.759   1.918  0.6547 -0.3071 -0.6781
  270MOL0     H36448   9.195   0.927   1.752  0.1960  0.7508 -0.9847
  270MOL0     H36449   9.104   0.877   1.615 -0.2442 -4.6949 -0.1126
  270MOL0     H36450   9.012   0.940   1.749 -2.4006 -1.3980 -6.1519
  271MOL0     O36451  11.025   8.664   8.890  0.3418 -0.4932 -0.2469
  271MOL0     C36452  11.053   8.653   8.768  0.5905 -0.0749 -1.1384
  271MOL0     O36453  11.119   8.545   8.730  0.3718  0.0743 -0.2176
  271MOL0     C36454  11.163   8.449   8.824  0.1696 -0.2753 -0.8970
  271MOL0     C36455  11.282   8.471   8.900 -1.3303  0.4914  0.1846
  271MOL0     C36456  11.335   8.381   9.001  0.3492 -0.6381 -1.0795
  271MOL0     C36457  11.267   8.263   9.024  0.3125 -0.3268 -0.9818
  271MOL0     O36458  11.321   8.168   9.115 -0.0178  0.3198  0.6571
  271MOL0     C36459  11.250   8.133   9.236 -0.5888  0.6913  0.2158
  271MOL0     C36460  11.214   7.992   9.236 -0.6001  0.0377 -0.7136
  271MOL0     C36461  11.338   7.909   9.208 -0.5605  0.3377  0.7648
  271MOL0     C36462  11.306   7.758   9.207  0.4430  0.0174 -0.3578
  271MOL0     C36463  11.422   7.682   9.159 -0.3005 -0.2441  0.6358
  271MOL0     C36464  11.413   7.530   9.177 -0.3382 -0.7442 -0.3813
  271MOL0     C36465  11.543   7.471   9.123 -0.5801  0.1101  0.4120
  271MOL0     C36466  11.548   7.316   9.140  0.0593  1.0423  0.2627
  271MOL0     N36467  11.678   7.275   9.111 -0.4342  1.2031  0.3414
  271MOL0     C36468  11.788   7.298   9.181  0.4567  0.1328 -0.2159
  271MOL0     C36469  11.892   7.241   9.114 -0.6488 -0.1944  1.0345
  271MOL0     C36470  12.035   7.268   9.144 -0.7710  0.3212  0.0976
  271MOL0     C36471  12.123   7.138   9.127 -0.0496 -0.2139  0.2980
  271MOL0     C36472  12.271   7.175   9.163  0.8849 -0.0736  0.2511
  271MOL0     C36473  12.370   7.061   9.152 -0.1808 -0.7301 -0.0449
  271MOL0     O36474  12.354   6.986   9.268 -0.6967 -0.1982  0.0516
  271MOL0     C36475  12.425   6.866   9.276  0.6920 -0.6744 -0.1326
  271MOL0     C36476  12.504   6.815   9.181 -0.8860  0.2544 -0.1907
  271MOL0     C36477  12.547   6.686   9.180  0.3267 -0.0401  0.0932
  271MOL0     C36478  12.509   6.593   9.285 -0.0637 -0.2386 -0.3948
  271MOL0     C36479  12.552   6.449   9.284 -0.1075 -0.0837  0.1338
  271MOL0     O36480  12.660   6.412   9.206  0.3532  0.1483 -0.0857
  271MOL0     C36481  12.695   6.275   9.189  0.3301 -0.5792 -0.0220
  271MOL0     C36482  12.669   6.224   9.064  1.1550 -0.7461 -0.0244
  271MOL0     C36483  12.683   6.087   9.041 -0.2308 -0.6128  0.4814
  271MOL0     C36484  12.720   6.007   9.153 -1.0209 -0.8041 -1.3125
  271MOL0     O36485  12.717   5.864   9.145  0.0571  0.5162  0.0783
  271MOL0     C36486  12.813   5.811   9.046 -0.2698 -0.6177  0.7151
  271MOL0     C36487  12.791   5.665   8.999 -0.3632  0.7540 -0.4217
  271MOL0     C36488  12.884   5.624   8.888  0.0441  0.2322 -0.3467
  271MOL0     C36489  12.852   5.476   8.844 -0.1422  0.1714 -0.4541
  271MOL0     C36490  12.930   5.436   8.716 -0.1887 -0.5347  0.7162
  271MOL0     C36491  12.942   5.286   8.698 -0.1310  1.0516 -0.1929
  271MOL0     C36492  13.050   5.225   8.605  0.3097  0.0022 -0.5008
  271MOL0     C36493  13.080   5.097   8.676 -0.1475  0.2616 -0.4996
  271MOL0    Cl36494  13.200   5.003   8.590  0.0360 -0.4481  0.0942
  271MOL0     C36495  12.765   6.061   9.276 -0.3561 -0.0781 -0.3323
  271MOL0     C36496  12.750   6.196   9.294 -0.1022 -0.0044  0.9991
  271MOL0     O36497  12.481   6.369   9.344 -0.5497  0.1206  0.1770
  271MOL0     C36498  12.425   6.654   9.387 -0.2934  1.2712 -0.4836
  271MOL0     C36499  12.384   6.786   9.384  0.1413  0.1946  0.4109
  271MOL0     N36500  11.845   7.176   9.007  0.5721  0.2402  0.3472
  271MOL0     N36501  11.716   7.206   8.998  0.0484 -0.4076  0.2543
  271MOL0     C36502  11.158   8.224   8.939 -0.6069 -0.1217 -1.3868
  271MOL0     C36503  11.104   8.318   8.850 -0.1525 -0.1508 -0.1349
  271MOL0     C36504  11.022   8.761   8.669 -0.1674  0.3763  1.7364
  271MOL0     C36505  11.097   8.760   8.541 -0.0251  0.2127  0.0251
  271MOL0     C36506  11.071   8.843   8.439 -0.2946 -0.2374 -0.1905
  271MOL0     C36507  10.977   8.946   8.448 -0.1908  0.1959 -0.9857
  271MOL0     O36508  10.948   9.050   8.363  0.3118  0.0275  0.4592
  271MOL0     C36509  10.989   9.047   8.228 -1.1927 -0.6473  0.4934
  271MOL0     C36510  11.124   9.121   8.212  0.6755  0.0084 -0.8555
  271MOL0     C36511  11.106   9.279   8.251  1.2203 -0.4364 -0.3063
  271MOL0     C36512  11.199   9.373   8.164 -0.0376 -0.1094 -0.1149
  271MOL0     C36513  11.336   9.341   8.184 -0.3093 -0.2423 -0.0615
  271MOL0     C36514  11.451   9.311   8.173  0.2408  0.5864 -0.8501
  271MOL0     C36515  10.909   8.961   8.569  1.1292  0.5955 -0.4789
  271MOL0     C36516  10.924   8.862   8.679 -0.3416 -0.4785 -0.3764
  271MOL0     C36517  10.840   8.879   8.803  0.4029 -0.4685 -0.0452
  271MOL0     H36518  11.325   8.569   8.882 -1.7913  0.3716 -1.8005
  271MOL0     H36519  11.412   8.422   9.065 -1.5226  1.4201 -0.0231
  271MOL0     H36520  11.312   8.153   9.324 -0.2030 -0.1489  0.1375
  271MOL0     H36521  11.157   8.191   9.232  0.1978  2.1302  1.4935
  271MOL0     H36522  11.135   7.975   9.162 -3.3281 -1.5909  2.3242
  271MOL0     H36523  11.173   7.965   9.334 -0.9043 -0.8221 -1.0638
  271MOL0     H36524  11.423   7.918   9.277  0.1066 -2.9127  0.5463
  271MOL0     H36525  11.389   7.944   9.117 -0.2850  0.0419  0.8011
  271MOL0     H36526  11.291   7.728   9.311 -2.0936  1.3016 -0.2847
  271MOL0     H36527  11.216   7.730   9.152  0.1291 -0.1193  0.2253
  271MOL0     H36528  11.455   7.707   9.058 -0.5978  3.6226  1.3312
  271MOL0     H36529  11.506   7.704   9.226  1.8419 -1.3291 -1.5165
  271MOL0     H36530  11.397   7.505   9.282  1.5551 -1.3149 -0.1810
  271MOL0     H36531  11.329   7.494   9.117 -0.2711 -0.5457 -0.5966
  271MOL0     H36532  11.637   7.513   9.159 -0.6776 -1.3079  2.5629
  271MOL0     H36533  11.531   7.488   9.016 -3.8737  3.3928  1.0830
  271MOL0     H36534  11.520   7.279   9.239  0.2215  0.0168 -0.0600
  271MOL0     H36535  11.477   7.282   9.064 -2.7076 -0.1367  3.1479
  271MOL0     H36536  11.795   7.384   9.248 -0.4628  1.4801 -1.7793
  271MOL0     H36537  12.077   7.336   9.069  3.8798 -0.7708  1.3645
  271MOL0     H36538  12.044   7.296   9.249 -1.1766  0.6916  0.0370
  271MOL0     H36539  12.096   7.068   9.206  0.4027  1.6438  2.1727
  271MOL0     H36540  12.120   7.102   9.023  0.4980  0.1279  0.1626
  271MOL0     H36541  12.269   7.218   9.263  1.4867 -0.4086  0.4101
  271MOL0     H36542  12.317   7.249   9.095 -0.1278  0.9069  0.6038
  271MOL0     H36543  12.473   7.099   9.149 -0.6455  0.5203 -1.4758
  271MOL0     H36544  12.349   7.006   9.060 -1.4454 -0.8018  0.2629
  271MOL0     H36545  12.519   6.871   9.090 -0.0377  0.4397  0.0547
  271MOL0     H36546  12.586   6.648   9.087 -0.4586 -2.2505  0.6095
  271MOL0     H36547  12.630   6.288   8.985 -0.8403 -1.6623  0.1600
  271MOL0     H36548  12.664   6.036   8.947  0.9601 -2.2567  1.0988
  271MOL0     H36549  12.798   5.876   8.959 -1.8963 -1.8731  0.0246
  271MOL0     H36550  12.911   5.823   9.095 -0.4114  2.6335  0.4583
  271MOL0     H36551  12.814   5.602   9.085 -1.0725  0.9933 -0.0496
  271MOL0     H36552  12.690   5.641   8.968  0.2353  0.0892 -1.9348
  271MOL0     H36553  12.861   5.691   8.805 -2.7524 -2.3464 -1.8588
  271MOL0     H36554  12.988   5.637   8.919 -0.2443 -1.1949  1.3951
  271MOL0     H36555  12.745   5.477   8.821 -0.1488  2.8334 -0.6497
  271MOL0     H36556  12.874   5.412   8.929  2.9018  0.9611 -0.5249
  271MOL0     H36557  13.036   5.460   8.730  0.5506 -2.4702 -0.9840
  271MOL0     H36558  12.895   5.489   8.628  0.0500  0.6201  1.2983
  271MOL0     H36559  12.947   5.253   8.802 -0.9380  0.2244 -0.4039
  271MOL0     H36560  12.846   5.249   8.659 -0.1083 -0.8610  1.4582
  271MOL0     H36561  13.135   5.295   8.601 -0.7479  1.4226  0.7629
  271MOL0     H36562  13.018   5.200   8.503  0.8620 -1.9454 -0.2415
  271MOL0     H36563  13.112   5.110   8.780 -4.8014 -2.2302  1.5544
  271MOL0     H36564  12.991   5.038   8.698  0.1088 -0.2115 -0.7031
  271MOL0     H36565  12.802   6.000   9.358 -2.4057 -3.7367 -1.8352
  271MOL0     H36566  12.768   6.235   9.393  0.2716 -0.4228  1.1009
  271MOL0     H36567  12.382   6.590   9.463 -1.7141  2.4912 -0.2222
  271MOL0     H36568  12.326   6.834   9.462  0.5233  3.1507 -0.9813
  271MOL0     H36569  11.103   8.130   8.946 -2.2335  0.6030 -3.4387
  271MOL0     H36570  11.024   8.281   8.787 -1.2417 -1.2748  1.8318
  271MOL0     H36571  11.181   8.692   8.531  0.6598  1.2212 -1.3542
  271MOL0     H36572  11.127   8.828   8.348  0.5385 -1.0226  0.4443
  271MOL0     H36573  10.904   9.093   8.178 -0.9226  1.0826  1.5612
  271MOL0     H36574  11.013   8.945   8.196  0.7420 -0.0534 -0.1234
  271MOL0     H36575  11.152   9.117   8.107 -0.4784 -1.5557 -1.1322
  271MOL0     H36576  11.196   9.086   8.287 -1.3140  3.4743  3.1612
  271MOL0     H36577  11.132   9.290   8.356 -1.5085 -2.4168  0.7098
  271MOL0     H36578  11.001   9.311   8.248  1.6519  1.4196  1.9066
  271MOL0     H36579  11.191   9.358   8.056  1.6663  0.5747 -0.3718
  271MOL0     H36580  11.176   9.478   8.185 -0.5281  0.0919 -1.5606
  271MOL0     H36581  11.548   9.268   8.157 -0.2894 -1.0076 -0.0564
  271MOL0     H36582  10.830   9.035   8.560  0.5034 -0.0192 -0.2126
  271MOL0     H36583  10.797   8.783   8.832  2.8658 -2.2543 -1.8818
  271MOL0     H36584  10.896   8.920   8.888 -1.2613 -1.3036  1.5230
  271MOL0     H36585  10.759   8.951   8.789  0.2798 -0.7641 -0.9033
  272MOL0     O36586   2.578   5.834   2.301 -0.3791 -0.0655 -0.1263
  272MOL0     C36587   2.618   5.912   2.219  1.0482 -1.0088 -0.1354
  272MOL0     O36588   2.627   5.885   2.083 -0.9567 -0.4962  0.6528
  272MOL0     C36589   2.569   5.776   2.033  0.7561  0.7918  1.0938
  272MOL0     C36590   2.483   5.782   1.927  0.2985 -0.3615 -0.0806
  272MOL0     C36591   2.416   5.668   1.870 -0.4491 -0.0685  0.4778
  272MOL0     C36592   2.450   5.537   1.912 -0.5669 -0.3869 -0.8276
  272MOL0     O36593   2.399   5.426   1.858  0.3776  0.5678 -0.3430
  272MOL0     C36594   2.259   5.428   1.815  0.2142  0.5114 -0.2074
  272MOL0     C36595   2.200   5.280   1.826 -1.0507 -0.4673 -1.2175
  272MOL0     C36596   2.223   5.213   1.692 -0.2924 -0.2344 -0.4428
  272MOL0     C36597   2.159   5.073   1.686 -0.2090  0.1991  0.1064
  272MOL0     C36598   2.177   5.010   1.544 -0.3406  0.5078 -0.0942
  272MOL0     C36599   2.105   4.868   1.529 -0.5063  0.2898  0.4217
  272MOL0     C36600   2.184   4.747   1.601  0.4370  0.7074 -0.0375
  272MOL0     C36601   2.338   4.731   1.570 -0.3903  0.4379  0.3689
  272MOL0     N36602   2.378   4.714   1.435  0.2001  0.5119  0.3896
  272MOL0     C36603   2.318   4.634   1.349 -0.5245  0.0095  0.3861
  272MOL0     C36604   2.389   4.628   1.234 -0.4774 -0.2114 -0.4312
  272MOL0     C36605   2.343   4.548   1.116  0.3766 -0.2887 -0.4905
  272MOL0     C36606   2.376   4.400   1.116  0.3657  0.9384 -0.6703
  272MOL0     C36607   2.302   4.335   1.005 -0.6917  0.8491 -0.0343
  272MOL0     C36608   2.365   4.206   0.954  0.4103  0.0748 -0.6430
  272MOL0     O36609   2.304   4.151   0.829 -0.5084 -0.0234 -0.0900
  272MOL0     C36610   2.277   4.017   0.821  0.7007 -1.1487  0.2099
  272MOL0     C36611   2.285   3.916   0.917  0.1825 -0.5405  0.0059
  272MOL0     C36612   2.236   3.785   0.898  0.5263  0.5514  0.0160
  272MOL0     C36613   2.181   3.752   0.781  0.8016 -0.0993 -0.2127
  272MOL0     C36614   2.134   3.617   0.751  1.9040 -0.1187 -0.0413
  272MOL0     O36615   2.108   3.581   0.613  0.2851 -0.3066 -0.0335
  272MOL0     C36616   2.048   3.462   0.591  0.2515 -0.3920  0.0898
  272MOL0     C36617   1.979   3.383   0.685 -0.1292 -0.4590  0.8022
  272MOL0     C36618   1.909   3.277   0.643 -0.2786 -0.2036  0.3043
  272MOL0     C36619   1.903   3.231   0.504  0.9087  0.3898 -0.3830
  272MOL0     O36620   1.819   3.125   0.468  0.3820  0.3759 -0.3850
  272MOL0     C36621   1.805   3.073   0.333 -0.4172  0.3855  0.7423
  272MOL0     C36622   1.721   2.949   0.336 -0.9304 -0.3231  0.4012
  272MOL0     C36623   1.726   2.852   0.215  0.6717 -0.6230  0.0466
  272MOL0     C36624   1.867   2.812   0.170  1.5057  0.6270 -0.4240
  272MOL0     C36625   1.855   2.728   0.046 -0.3490 -0.2643  0.3536
  272MOL0     C36626   1.844   2.578   0.071  0.0829 -0.1167  0.9613
  272MOL0     C36627   1.968   2.501   0.122 -0.8585 -0.2162 -1.0457
  272MOL0     C36628   2.074   2.452   0.022 -0.9904 -1.7726  0.2108
  272MOL0    Cl36629   2.008   2.351  -0.115 -0.8771 -0.2322  0.1135
  272MOL0     C36630   1.976   3.306   0.418  0.2038 -0.6998  0.1992
  272MOL0     C36631   2.045   3.422   0.461 -0.6726  1.3864  0.2495
  272MOL0     O36632   2.127   3.543   0.847 -0.2021  0.6001 -0.5595
  272MOL0     C36633   2.157   3.853   0.683  0.3031 -0.9552  0.3563
  272MOL0     C36634   2.204   3.987   0.711 -0.1892  0.4160  0.1734
  272MOL0     N36635   2.506   4.706   1.242  0.4662 -0.2473  0.8423
  272MOL0     N36636   2.491   4.759   1.362 -0.2249 -0.8610  0.3997
  272MOL0     C36637   2.538   5.531   2.021 -0.1051  0.2287  0.2817
  272MOL0     C36638   2.598   5.644   2.081  0.3516  0.3355  0.4572
  272MOL0     C36639   2.612   6.056   2.261  0.2378  0.9645  0.4012
  272MOL0     C36640   2.540   6.083   2.372  0.4206 -0.0871 -0.8044
  272MOL0     C36641   2.514   6.217   2.411 -0.4375  0.6526 -0.0331
  272MOL0     C36642   2.561   6.321   2.340  0.6527  0.6130  0.9016
  272MOL0     O36643   2.548   6.456   2.354 -0.4449 -0.5129  1.2682
  272MOL0     C36644   2.519   6.504   2.482  0.8733  1.2123  0.0595
  272MOL0     C36645   2.535   6.665   2.490  0.0548  1.0592  0.7999
  272MOL0     C36646   2.449   6.736   2.383  0.4701  0.2860 -0.2193
  272MOL0     C36647   2.433   6.883   2.413  0.3036  1.0666  0.2179
  272MOL0     C36648   2.385   6.908   2.548  0.6265 -0.2448 -0.2013
  272MOL0     C36649   2.334   6.933   2.660  0.4550  0.0918  0.0552
  272MOL0     C36650   2.641   6.289   2.233 -0.3189  0.9506  0.5103
  272MOL0     C36651   2.665   6.164   2.187  0.3029 -0.0594 -0.5852
  272MOL0     C36652   2.738   6.157   2.055  0.1171 -0.1313 -0.2581
  272MOL0     H36653   2.454   5.876   1.882  0.1906  0.1444  1.0188
  272MOL0     H36654   2.341   5.683   1.793  1.2036  0.8224 -1.0166
  272MOL0     H36655   2.195   5.488   1.881 -1.8635 -2.8242  1.1005
  272MOL0     H36656   2.256   5.465   1.713 -1.9570 -1.0279 -0.7668
  272MOL0     H36657   2.091   5.271   1.834 -1.2427  0.5400 -2.4141
  272MOL0     H36658   2.247   5.220   1.904  1.3285  1.6088 -0.9026
  272MOL0     H36659   2.329   5.190   1.675 -0.3036 -0.7340  0.1204
  272MOL0     H36660   2.173   5.273   1.615 -3.1186 -2.1021 -0.1989
  272MOL0     H36661   2.215   5.013   1.759 -0.3629  0.9955  0.8984
  272MOL0     H36662   2.058   5.062   1.726  0.1948 -2.2151  0.6609
  272MOL0     H36663   2.135   5.079   1.470 -3.0476 -2.0485 -1.1093
  272MOL0     H36664   2.286   5.001   1.539 -0.2951 -1.0315  2.0571
  272MOL0     H36665   2.003   4.882   1.564 -1.4151  0.3546 -2.0310
  272MOL0     H36666   2.117   4.835   1.425 -1.6320 -1.3156  0.7648
  272MOL0     H36667   2.128   4.657   1.574  2.4645 -0.5556 -0.2464
  272MOL0     H36668   2.184   4.772   1.707  1.6810 -0.0042  0.1559
  272MOL0     H36669   2.400   4.813   1.607  1.8473 -0.4283 -1.2524
  272MOL0     H36670   2.374   4.642   1.623  0.7792  1.0119  0.5693
  272MOL0     H36671   2.224   4.581   1.362 -0.7578  0.2965 -0.0933
  272MOL0     H36672   2.234   4.551   1.126  0.4663  4.8614  2.7871
  272MOL0     H36673   2.362   4.602   1.022 -1.8534  1.2402 -0.1574
  272MOL0     H36674   2.484   4.394   1.102  0.8242  0.4238  2.4018
  272MOL0     H36675   2.347   4.354   1.210 -2.2146  5.2931  0.9990
  272MOL0     H36676   2.313   4.404   0.921 -2.5494 -1.2658 -2.1791
  272MOL0     H36677   2.203   4.305   1.041 -0.1180 -0.9286  0.1423
  272MOL0     H36678   2.347   4.135   1.035 -0.6902  2.0625  0.9336
  272MOL0     H36679   2.472   4.223   0.938  0.0787  0.7009 -2.4561
  272MOL0     H36680   2.321   3.956   1.011 -0.2510  1.9877 -0.8132
  272MOL0     H36681   2.260   3.707   0.969  1.1745  0.3481 -0.4210
  272MOL0     H36682   1.955   3.415   0.786 -0.3680  1.1104  0.2699
  272MOL0     H36683   1.845   3.228   0.717 -3.5721  2.2180 -0.7031
  272MOL0     H36684   1.761   3.146   0.264 -3.7546 -0.6974  1.5421
  272MOL0     H36685   1.906   3.053   0.298  0.2359  2.2854  1.3963
  272MOL0     H36686   1.737   2.888   0.426  1.1461 -2.1660 -1.1013
  272MOL0     H36687   1.620   2.982   0.360 -0.9212 -0.1093  0.1515
  272MOL0     H36688   1.668   2.764   0.245  0.7121 -0.9628 -0.8335
  272MOL0     H36689   1.681   2.902   0.128  0.9769 -0.7766 -0.2007
  272MOL0     H36690   1.913   2.751   0.249  0.2633  0.4701  0.2003
  272MOL0     H36691   1.937   2.892   0.144  0.9177  0.2531 -3.4526
  272MOL0     H36692   1.950   2.749  -0.003 -0.3470  2.6093  1.3850
  272MOL0     H36693   1.779   2.767  -0.023 -1.3672 -1.0743  0.9982
  272MOL0     H36694   1.769   2.547   0.145 -0.9607 -0.9140 -0.3950
  272MOL0     H36695   1.798   2.533  -0.017 -0.3006 -1.2079  1.6933
  272MOL0     H36696   1.932   2.419   0.185  3.0051 -3.1869 -2.3711
  272MOL0     H36697   2.020   2.560   0.199  0.5936 -1.4437 -1.0345
  272MOL0     H36698   2.120   2.542  -0.020 -1.8166 -1.2913  0.3020
  272MOL0     H36699   2.159   2.407   0.075  0.4678  3.4646  3.0471
  272MOL0     H36700   1.979   3.275   0.314 -2.4275  4.3038 -1.6870
  272MOL0     H36701   2.097   3.475   0.383  1.6641 -1.0967 -0.0321
  272MOL0     H36702   2.103   3.848   0.589  0.1978 -0.1845  0.3651
  272MOL0     H36703   2.186   4.075   0.650  1.0086 -0.3564 -1.3774
  272MOL0     H36704   2.541   5.430   2.061  1.5931 -0.3738 -1.2506
  272MOL0     H36705   2.673   5.623   2.157 -1.7195 -2.4173  1.8908
  272MOL0     H36706   2.492   6.003   2.427 -1.5550 -0.1017 -2.4198
  272MOL0     H36707   2.462   6.239   2.504 -0.1548 -5.2999  1.9297
  272MOL0     H36708   2.585   6.461   2.558 -0.0034  3.4908  2.2720
  272MOL0     H36709   2.416   6.481   2.509  1.0270  0.1413 -0.2133
  272MOL0     H36710   2.643   6.676   2.477  0.5925 -3.1333  0.0725
  272MOL0     H36711   2.494   6.686   2.590 -1.7007 -0.0125  0.3611
  272MOL0     H36712   2.350   6.691   2.394  0.6458  0.1210  0.8330
  272MOL0     H36713   2.497   6.710   2.289 -0.8307 -0.9295 -0.5812
  272MOL0     H36714   2.529   6.937   2.410  1.4838 -0.7676  1.8761
  272MOL0     H36715   2.359   6.927   2.347 -0.5174  1.5340  1.4219
  272MOL0     H36716   2.273   6.930   2.748 -1.5292 -3.3834 -1.2339
  272MOL0     H36717   2.674   6.375   2.176 -0.7696  0.2204 -0.8955
  272MOL0     H36718   2.660   6.187   1.986  1.0487 -1.8190 -2.1539
  272MOL0     H36719   2.827   6.220   2.063 -0.2792  0.2649  1.6081
  272MOL0     H36720   2.775   6.054   2.043  0.5595 -0.7607  4.5119
  273MOL0     O36721   2.147   0.807   9.023  0.3060 -0.2930  0.7822
  273MOL0     C36722   2.155   0.863   9.133  0.7155  0.1844  0.5453
  273MOL0     O36723   2.197   0.990   9.154  0.5512  0.4820  0.3207
  273MOL0     C36724   2.201   1.087   9.058 -0.2168  1.0413  1.1042
  273MOL0     C36725   2.281   1.191   9.078 -0.5099 -0.5557  0.5898
  273MOL0     C36726   2.293   1.294   8.987  0.1935 -0.5818  0.7582
  273MOL0     C36727   2.230   1.286   8.862 -0.4365  0.5629  0.9001
  273MOL0     O36728   2.254   1.357   8.744  0.1198  0.2580  0.5424
  273MOL0     C36729   2.306   1.489   8.748 -0.0994  0.9180 -1.4864
  273MOL0     C36730   2.327   1.544   8.607 -0.7450  1.5277 -0.4637
  273MOL0     C36731   2.202   1.588   8.528  0.2859  0.7906 -0.6478
  273MOL0     C36732   2.104   1.482   8.488 -0.3520 -0.3797 -0.0530
  273MOL0     C36733   1.978   1.555   8.433 -0.3813  0.1569  0.0540
  273MOL0     C36734   1.865   1.444   8.413  0.3160  0.6571  0.3109
  273MOL0     C36735   1.764   1.515   8.324  0.4342  0.8414  0.0204
  273MOL0     C36736   1.665   1.415   8.277 -0.0215 -0.0138  0.4603
  273MOL0     N36737   1.578   1.464   8.171 -0.1514 -0.3873 -0.6681
  273MOL0     C36738   1.619   1.537   8.057  0.5906 -0.5107 -0.2462
  273MOL0     C36739   1.508   1.539   7.977 -1.3173  0.6028 -0.6413
  273MOL0     C36740   1.503   1.615   7.856  0.0174 -0.1938  0.9096
  273MOL0     C36741   1.397   1.560   7.763 -0.7388 -0.1418  0.7757
  273MOL0     C36742   1.358   1.678   7.666  0.6034  0.1767  0.3990
  273MOL0     C36743   1.440   1.693   7.541 -0.8529  0.4341  0.2883
  273MOL0     O36744   1.434   1.589   7.444 -0.2487  0.0887  0.4469
  273MOL0     C36745   1.329   1.592   7.358 -0.2179 -1.0721  0.8359
  273MOL0     C36746   1.227   1.686   7.356 -0.3866  0.0761  0.1648
  273MOL0     C36747   1.126   1.679   7.267  0.4372 -0.0959  0.4003
  273MOL0     C36748   1.117   1.580   7.170  0.7463  0.2422 -0.5554
  273MOL0     C36749   0.992   1.577   7.085 -0.1562  0.7212 -0.2561
  273MOL0     O36750   0.888   1.622   7.161  0.3891  0.7239 -0.2788
  273MOL0     C36751   0.760   1.622   7.127 -0.6137  0.2963 -0.8223
  273MOL0     C36752   0.709   1.607   7.001  0.9122 -0.2503 -0.1467
  273MOL0     C36753   0.567   1.629   6.980 -0.4502  0.4319  0.5086
  273MOL0     C36754   0.486   1.644   7.096  0.1271 -0.1134 -0.9196
  273MOL0     O36755   0.355   1.659   7.069  0.4503  0.3873  0.0179
  273MOL0     C36756   0.280   1.746   7.145  0.2721  0.9290  0.3601
  273MOL0     C36757   0.217   1.836   7.043  0.4382  0.0635 -0.1167
  273MOL0     C36758   0.325   1.897   6.954  0.5192 -0.1070 -0.6286
  273MOL0     C36759   0.277   2.006   6.860 -0.1000  0.6210  0.5196
  273MOL0     C36760   0.302   2.134   6.924  0.0126  0.2071 -1.0501
  273MOL0     C36761   0.206   2.230   6.854 -0.6396 -0.3076  0.3432
  273MOL0     C36762   0.073   2.244   6.930  0.1675 -0.2320  0.5003
  273MOL0     C36763  -0.028   2.328   6.849 -0.5934 -0.2083 -0.3525
  273MOL0    Cl36764  -0.177   2.332   6.924 -0.0880 -0.0742 -0.3203
  273MOL0     C36765   0.542   1.660   7.222  0.1838 -1.9206 -0.1614
  273MOL0     C36766   0.675   1.653   7.235  0.0445  0.7453 -0.7260
  273MOL0     O36767   0.987   1.535   6.970 -0.8469  0.1541 -0.2055
  273MOL0     C36768   1.219   1.480   7.174 -0.7084  0.2180 -0.1928
  273MOL0     C36769   1.328   1.487   7.267  0.6833 -0.2323 -1.0041
  273MOL0     N36770   1.410   1.461   8.037 -0.5544  1.0850  0.1873
  273MOL0     N36771   1.463   1.396   8.137 -0.2507 -0.4480 -0.0111
  273MOL0     C36772   2.117   1.194   8.850 -0.2535 -0.0492  0.2879
  273MOL0     C36773   2.101   1.107   8.961  0.2418  0.0145 -0.5554
  273MOL0     C36774   2.116   0.789   9.249  0.0062  0.8356  0.1114
  273MOL0     C36775   2.150   0.649   9.260  0.3078 -0.8331  1.3429
  273MOL0     C36776   2.124   0.579   9.376 -1.1513 -0.8978 -0.4132
  273MOL0     C36777   2.042   0.629   9.473 -0.1384 -1.4164  0.9814
  273MOL0     O36778   1.992   0.572   9.578  0.0502  0.7478  0.3245
  273MOL0     C36779   2.008   0.430   9.597  0.4586 -0.5472  0.0617
  273MOL0     C36780   1.961   0.399   9.739  0.0243 -0.2978  0.4130
  273MOL0     C36781   1.806   0.375   9.748  0.7581 -0.0051 -0.1610
  273MOL0     C36782   1.753   0.341   9.892  0.3110 -0.0916  0.2397
  273MOL0     C36783   1.780   0.450   9.987 -0.7977  0.3398 -0.5479
  273MOL0     C36784   1.815   0.534  10.064  0.7400  0.3223 -0.0531
  273MOL0     C36785   1.986   0.756   9.444 -0.3776  0.5841 -0.3321
  273MOL0     C36786   2.034   0.849   9.346  0.1317  0.8041 -0.1642
  273MOL0     C36787   1.993   0.994   9.361  0.1415  0.4440  0.1822
  273MOL0     H36788   2.328   1.178   9.175 -1.2017 -2.1297  0.7429
  273MOL0     H36789   2.360   1.376   9.009  0.2187  0.4389 -2.6178
  273MOL0     H36790   2.243   1.555   8.809 -1.4606 -0.6177 -1.1294
  273MOL0     H36791   2.403   1.480   8.798 -1.5709 -2.3381  1.2160
  273MOL0     H36792   2.366   1.462   8.547 -0.3565 -1.1681  3.1319
  273MOL0     H36793   2.397   1.629   8.605  1.2561  0.0415  1.5620
  273MOL0     H36794   2.238   1.644   8.442  0.2330 -0.6479 -1.6335
  273MOL0     H36795   2.143   1.652   8.594 -0.1843  0.4117 -0.6943
  273MOL0     H36796   2.149   1.416   8.413  1.2647  0.0881  0.4713
  273MOL0     H36797   2.072   1.418   8.572  2.3216 -1.0096  0.5786
  273MOL0     H36798   1.940   1.634   8.497 -1.7845 -1.2134  0.9832
  273MOL0     H36799   1.998   1.609   8.340  3.0436  0.4989  0.8537
  273MOL0     H36800   1.902   1.350   8.371 -2.7228 -0.6244  0.1927
  273MOL0     H36801   1.827   1.421   8.513  0.8056 -0.7774  0.2009
  273MOL0     H36802   1.814   1.543   8.231  2.0551  3.3003  1.5205
  273MOL0     H36803   1.725   1.605   8.372  2.2553  2.1116 -0.7656
  273MOL0     H36804   1.713   1.331   8.227 -2.2441  0.7845 -3.4165
  273MOL0     H36805   1.602   1.380   8.359 -0.3413 -0.1861  0.1454
  273MOL0     H36806   1.714   1.587   8.039  2.4557 -4.3603 -2.3242
  273MOL0     H36807   1.490   1.723   7.867 -0.6626 -0.0427 -0.9629
  273MOL0     H36808   1.603   1.605   7.812 -0.3332 -2.2435  0.4900
  273MOL0     H36809   1.442   1.478   7.707  3.6979  1.2251  1.9083
  273MOL0     H36810   1.312   1.529   7.824  1.4854 -0.0721  4.2216
  273MOL0     H36811   1.342   1.769   7.723 -0.3422  1.9813 -2.5026
  273MOL0     H36812   1.259   1.653   7.626  0.2911  2.2541 -0.2556
  273MOL0     H36813   1.547   1.703   7.561 -1.1243 -0.5148  2.4975
  273MOL0     H36814   1.421   1.795   7.506 -0.9404  0.6235  0.8743
  273MOL0     H36815   1.224   1.776   7.417  0.3018  0.7767 -0.8185
  273MOL0     H36816   1.058   1.763   7.269 -0.9152 -1.0769 -1.4288
  273MOL0     H36817   0.770   1.580   6.916  1.6106 -1.0229  0.5789
  273MOL0     H36818   0.515   1.632   6.885 -0.6595  1.9999  0.6489
  273MOL0     H36819   0.193   1.698   7.191  0.7018  2.1328  2.5410
  273MOL0     H36820   0.334   1.805   7.220  2.9440 -2.5833  1.4735
  273MOL0     H36821   0.146   1.786   6.976  0.3878 -1.3282  0.9195
  273MOL0     H36822   0.166   1.917   7.096 -1.0679  0.3107 -1.8528
  273MOL0     H36823   0.411   1.925   7.015 -0.4413  0.3562  0.5781
  273MOL0     H36824   0.366   1.822   6.887  1.7941  0.6663 -0.7467
  273MOL0     H36825   0.170   1.994   6.839  0.1502  1.9540 -1.8537
  273MOL0     H36826   0.341   2.012   6.772  0.4141  0.2479  0.8631
  273MOL0     H36827   0.403   2.170   6.903  0.5898  0.0337  1.1973
  273MOL0     H36828   0.282   2.126   7.032  1.7414  0.5022 -0.6776
  273MOL0     H36829   0.254   2.328   6.840 -2.5263  0.3411 -2.6505
  273MOL0     H36830   0.186   2.196   6.752 -1.1311 -1.8710  0.9446
  273MOL0     H36831   0.082   2.269   7.036 -3.2610 -3.9437  1.9272
  273MOL0     H36832   0.022   2.147   6.934 -0.5261  0.1685  2.8642
  273MOL0     H36833   0.003   2.432   6.835  2.0137 -0.9761 -0.9186
  273MOL0     H36834  -0.042   2.284   6.750 -1.9061  0.7040 -0.6044
  273MOL0     H36835   0.471   1.660   7.305 -3.1602 -1.4235 -2.7945
  273MOL0     H36836   0.716   1.677   7.332 -1.2222  2.0245 -0.4611
  273MOL0     H36837   1.196   1.396   7.108  0.6050 -0.9109  0.7170
  273MOL0     H36838   1.415   1.422   7.264  1.1814  0.4331 -3.4735
  273MOL0     H36839   2.066   1.186   8.754  2.5881 -0.5393 -1.2926
  273MOL0     H36840   2.016   1.041   8.975 -2.1320  3.0434  0.4293
  273MOL0     H36841   2.216   0.601   9.188 -0.8875  0.6663 -0.8605
  273MOL0     H36842   2.168   0.481   9.392 -2.4150 -1.0386  3.2129
  273MOL0     H36843   2.117   0.416   9.590  0.8951  0.5572  3.0117
  273MOL0     H36844   1.959   0.367   9.523 -0.5252  2.0931 -1.6536
  273MOL0     H36845   1.988   0.466   9.821 -2.4932  0.6608  0.5406
  273MOL0     H36846   1.995   0.299   9.765  0.4641 -0.2351  0.0924
  273MOL0     H36847   1.766   0.289   9.692 -3.9958  2.1252 -0.5593
  273MOL0     H36848   1.748   0.462   9.715 -2.7344 -0.7481  3.2947
  273MOL0     H36849   1.655   0.292   9.891  0.3590 -0.1889  0.3104
  273MOL0     H36850   1.820   0.259   9.919  1.0396  0.2768 -0.4319
  273MOL0     H36851   1.850   0.613  10.128  1.7839 -0.5169  0.4487
  273MOL0     H36852   1.907   0.782   9.512 -1.2802 -3.1373  0.2754
  273MOL0     H36853   1.915   0.994   9.438 -0.0905  0.8583 -0.0561
  273MOL0     H36854   2.075   1.050   9.408  0.2935  0.7543 -0.4468
  273MOL0     H36855   1.963   1.039   9.267  4.3993  0.8655 -1.1816
  274MOL0     O36856   6.779   4.253   1.159  0.2766 -0.7233  0.3439
  274MOL0     C36857   6.691   4.329   1.114  0.0317  0.5521  0.9679
  274MOL0     O36858   6.569   4.340   1.162 -0.0995  0.1303 -0.2511
  274MOL0     C36859   6.542   4.259   1.277  0.0216 -0.0811 -0.0944
  274MOL0     C36860   6.556   4.307   1.408 -1.1997  0.3208  0.1829
  274MOL0     C36861   6.545   4.225   1.523  0.9943 -0.6809 -0.1790
  274MOL0     C36862   6.514   4.092   1.508  0.7945  0.1607 -0.2472
  274MOL0     O36863   6.504   4.018   1.622 -0.3313  0.3862 -0.3986
  274MOL0     C36864   6.480   3.875   1.621  0.1914  0.5262 -0.1956
  274MOL0     C36865   6.433   3.843   1.765 -0.3792  0.3321 -1.3149
  274MOL0     C36866   6.329   3.739   1.768  0.2075 -0.5610 -0.4248
  274MOL0     C36867   6.199   3.780   1.692  0.4134  0.1662 -0.7439
  274MOL0     C36868   6.123   3.660   1.646 -0.1511  0.1188 -0.1012
  274MOL0     C36869   6.193   3.601   1.522 -0.2192  1.1547  0.9388
  274MOL0     C36870   6.093   3.505   1.454  0.4885  0.0238  1.0266
  274MOL0     C36871   6.051   3.381   1.539 -0.7856 -0.8223 -0.9516
  274MOL0     N36872   6.010   3.264   1.460  0.0383 -0.5013 -0.6679
  274MOL0     C36873   6.108   3.169   1.436  0.6644 -0.0105  0.0832
  274MOL0     C36874   6.039   3.057   1.395  0.6532  0.5764 -0.2099
  274MOL0     C36875   6.115   2.930   1.368 -0.1989  0.3328  0.1742
  274MOL0     C36876   6.080   2.817   1.470  0.1155 -0.2651 -1.2437
  274MOL0     C36877   6.149   2.683   1.427  1.2649  0.4715  0.1875
  274MOL0     C36878   6.294   2.664   1.482  0.4439 -0.4293 -0.2406
  274MOL0     O36879   6.359   2.791   1.506 -0.8656 -0.9208  0.6642
  274MOL0     C36880   6.498   2.805   1.499  0.5320  0.8044 -0.1805
  274MOL0     C36881   6.539   2.937   1.513  0.0179  0.4209  0.1638
  274MOL0     C36882   6.681   2.966   1.536  0.7967 -0.0982  0.9850
  274MOL0     C36883   6.778   2.862   1.545 -0.3928  0.1766  0.6770
  274MOL0     C36884   6.926   2.882   1.576 -0.2647  0.4903  0.3104
  274MOL0     O36885   6.966   3.007   1.577 -0.7205 -0.4509 -0.7267
  274MOL0     C36886   7.087   3.046   1.627 -0.6454  0.7642 -0.1911
  274MOL0     C36887   7.109   3.072   1.764  0.3194  0.3110  0.0570
  274MOL0     C36888   7.238   3.093   1.812  0.7575  0.2061  0.0995
  274MOL0     C36889   7.345   3.096   1.725  0.2839 -0.0387  0.4843
  274MOL0     O36890   7.476   3.139   1.775  0.5856  0.6333  0.0624
  274MOL0     C36891   7.580   3.171   1.678  0.0009 -0.8989 -0.2027
  274MOL0     C36892   7.656   3.053   1.617  0.9457 -0.5464  0.1821
  274MOL0     C36893   7.802   3.061   1.576  0.1849 -0.4131  0.3528
  274MOL0     C36894   7.829   3.118   1.433  0.5945  0.0980 -0.8348
  274MOL0     C36895   7.968   3.079   1.385  0.1545  0.3371  0.5740
  274MOL0     C36896   8.083   3.124   1.470  1.0543  0.6571  0.0375
  274MOL0     C36897   8.203   3.124   1.382 -0.0578  0.6994  0.5668
  274MOL0     C36898   8.311   3.198   1.448 -0.5252  0.0797  0.2405
  274MOL0    Cl36899   8.454   3.190   1.344 -0.4281  0.0709  0.0817
  274MOL0     C36900   7.323   3.085   1.582 -0.3723 -0.9976 -0.1945
  274MOL0     C36901   7.193   3.063   1.537 -0.2376  0.1726  0.1860
  274MOL0     O36902   6.995   2.787   1.608 -0.1764  0.1221 -0.3235
  274MOL0     C36903   6.726   2.731   1.540 -0.1989  0.0071  0.0180
  274MOL0     C36904   6.588   2.703   1.512 -0.3640 -0.2390  0.0271
  274MOL0     N36905   5.901   3.077   1.404 -0.2867  0.3696  0.0579
  274MOL0     N36906   5.892   3.202   1.423  0.8589 -0.1537  0.5050
  274MOL0     C36907   6.498   4.042   1.374  0.9727  0.0745  0.4050
  274MOL0     C36908   6.512   4.125   1.259 -0.2600 -0.3262 -0.5943
  274MOL0     C36909   6.737   4.393   0.988  0.2780 -0.0690 -0.8245
  274MOL0     C36910   6.872   4.431   0.982 -0.8150 -0.9125 -0.6638
  274MOL0     C36911   6.919   4.496   0.863  0.6437 -0.5002  0.0861
  274MOL0     C36912   6.838   4.488   0.749 -0.6472 -0.2547  0.2080
  274MOL0     O36913   6.869   4.556   0.635 -0.6581  0.8433  0.0939
  274MOL0     C36914   6.891   4.477   0.518 -0.0453  0.3007  0.2622
  274MOL0     C36915   6.945   4.575   0.410  0.4258  0.3655 -0.6890
  274MOL0     C36916   7.085   4.626   0.450 -0.6392  0.3432 -0.8213
  274MOL0     C36917   7.141   4.716   0.347 -0.4237  0.3450  0.1444
  274MOL0     C36918   7.294   4.726   0.359  1.0399 -0.4676 -0.8130
  274MOL0     C36919   7.412   4.753   0.383  0.2689  0.2311  0.6164
  274MOL0     C36920   6.708   4.441   0.758 -0.8423  0.7372 -0.3917
  274MOL0     C36921   6.657   4.395   0.879  0.8969  0.6064 -0.0750
  274MOL0     C36922   6.519   4.330   0.859 -0.0382 -0.4364  0.4720
  274MOL0     H36923   6.597   4.407   1.413  1.2599 -0.4396 -2.3966
  274MOL0     H36924   6.566   4.265   1.622  0.1777 -0.6305 -0.0135
  274MOL0     H36925   6.413   3.840   1.542  1.1816 -3.4990  0.5200
  274MOL0     H36926   6.575   3.822   1.609  0.3789  0.5680  0.9243
  274MOL0     H36927   6.411   3.941   1.809 -3.1321  0.2782 -2.3981
  274MOL0     H36928   6.516   3.806   1.826 -1.9893 -0.7246  0.3394
  274MOL0     H36929   6.301   3.700   1.867  0.7165  1.2316  0.4606
  274MOL0     H36930   6.377   3.658   1.712 -0.4716  1.2838 -3.8839
  274MOL0     H36931   6.137   3.828   1.769 -1.9992 -0.7801 -1.9928
  274MOL0     H36932   6.220   3.849   1.610  2.5604 -3.7431 -3.7819
  274MOL0     H36933   6.131   3.588   1.728  3.1797 -0.0954 -0.4792
  274MOL0     H36934   6.022   3.699   1.626 -0.3756  1.8919  3.6182
  274MOL0     H36935   6.223   3.684   1.458 -2.3401  1.0431 -0.3017
  274MOL0     H36936   6.279   3.534   1.537 -1.7885 -1.5798 -1.3217
  274MOL0     H36937   6.132   3.478   1.355 -2.2949  1.2224 -0.4860
  274MOL0     H36938   6.007   3.565   1.426 -0.5023 -1.3577  1.0280
  274MOL0     H36939   6.131   3.352   1.608 -1.3398 -0.3440 -0.0843
  274MOL0     H36940   5.979   3.430   1.606 -0.6981  1.6208 -2.5618
  274MOL0     H36941   6.216   3.175   1.443  0.9359 -2.2291 -1.1137
  274MOL0     H36942   6.085   2.886   1.273  4.1110 -3.2562  0.1401
  274MOL0     H36943   6.221   2.953   1.378 -0.0706 -0.8925  2.5175
  274MOL0     H36944   6.104   2.835   1.575 -2.1732 -2.3984 -0.2599
  274MOL0     H36945   5.972   2.811   1.457  0.0219 -1.6488  0.0314
  274MOL0     H36946   6.139   2.670   1.319 -0.9301  0.8443  0.2937
  274MOL0     H36947   6.089   2.603   1.471 -0.6633  0.9009 -1.4981
  274MOL0     H36948   6.332   2.590   1.412 -3.9841 -1.6638 -1.6888
  274MOL0     H36949   6.286   2.615   1.579 -0.7465 -0.6137 -0.4161
  274MOL0     H36950   6.465   3.016   1.504 -0.1757  0.0618 -1.9319
  274MOL0     H36951   6.712   3.068   1.552  0.3304  0.3198 -0.5589
  274MOL0     H36952   7.020   3.074   1.825 -1.3988  1.6655 -2.3096
  274MOL0     H36953   7.254   3.112   1.918  0.5230  0.0435  0.1665
  274MOL0     H36954   7.526   3.238   1.611  1.4282  0.9676  0.4369
  274MOL0     H36955   7.657   3.240   1.715 -0.6267 -0.1632 -0.2370
  274MOL0     H36956   7.659   2.969   1.687  2.6165  0.7801  1.8294
  274MOL0     H36957   7.603   3.014   1.530  0.9777 -2.6709  1.0575
  274MOL0     H36958   7.853   3.128   1.647  0.1395  0.2639 -0.2395
  274MOL0     H36959   7.848   2.962   1.585 -0.8039 -1.0584 -1.2020
  274MOL0     H36960   7.814   3.225   1.442 -0.8234 -0.2090  1.3931
  274MOL0     H36961   7.753   3.077   1.367 -0.2934 -1.8017  1.2024
  274MOL0     H36962   7.973   3.112   1.281  0.9870 -0.9854  0.1680
  274MOL0     H36963   7.985   2.971   1.377  1.9857  0.1819  4.2830
  274MOL0     H36964   8.053   3.222   1.510  0.7287  0.8640 -0.6793
  274MOL0     H36965   8.090   3.060   1.558 -2.7235  0.7037  0.5606
  274MOL0     H36966   8.185   3.169   1.284 -0.8617 -1.4730 -0.3563
  274MOL0     H36967   8.222   3.018   1.362 -1.3697 -0.0427  2.9274
  274MOL0     H36968   8.293   3.305   1.454 -0.6376  0.1409 -1.0369
  274MOL0     H36969   8.332   3.155   1.547  0.4060  1.5551  0.7089
  274MOL0     H36970   7.398   3.091   1.504 -2.4007  1.3273 -2.1502
  274MOL0     H36971   7.176   3.069   1.430  4.0197  1.0372 -0.6242
  274MOL0     H36972   6.776   2.635   1.549 -2.3650 -1.7572 -4.0558
  274MOL0     H36973   6.548   2.603   1.524 -3.3447  0.9150  0.8653
  274MOL0     H36974   6.473   3.939   1.351  4.9910 -1.7452  3.0870
  274MOL0     H36975   6.488   4.081   1.163  1.6829 -0.6816 -0.9474
  274MOL0     H36976   6.939   4.439   1.067  0.2738  1.7761 -1.6995
  274MOL0     H36977   7.021   4.531   0.860  0.7667 -0.1307  3.8006
  274MOL0     H36978   6.796   4.434   0.486 -0.4113  2.4088 -1.7676
  274MOL0     H36979   6.958   4.394   0.544  1.7229  1.7284  0.4801
  274MOL0     H36980   6.869   4.653   0.400 -0.5070 -0.5344 -0.8319
  274MOL0     H36981   6.956   4.522   0.314 -0.5740  0.3507 -0.8047
  274MOL0     H36982   7.155   4.542   0.459  1.9907  2.1731 -2.5600
  274MOL0     H36983   7.083   4.684   0.543  0.9270 -0.1170 -0.4627
  274MOL0     H36984   7.134   4.665   0.250 -1.8372 -2.8567  1.7802
  274MOL0     H36985   7.096   4.815   0.339  0.6753  0.7090 -3.8464
  274MOL0     H36986   7.516   4.770   0.400  0.5008 -3.0252  3.6118
  274MOL0     H36987   6.647   4.451   0.668 -0.4273  2.3889 -0.5178
  274MOL0     H36988   6.517   4.294   0.755  1.3775  3.6761 -1.2168
  274MOL0     H36989   6.496   4.251   0.931  0.4103 -0.1333  0.9514
  274MOL0     H36990   6.442   4.408   0.854 -0.8256 -1.2603 -2.4611
  275MOL0     O36991   8.641   3.471   5.510  0.2579 -0.4102 -0.6900
  275MOL0     C36992   8.606   3.387   5.432 -0.9642 -0.4448 -0.0781
  275MOL0     O36993   8.687   3.290   5.391 -0.3570 -0.3084  0.0142
  275MOL0     C36994   8.789   3.259   5.473 -0.0261  0.0433  0.2601
  275MOL0     C36995   8.888   3.351   5.504 -0.0586 -0.4745  0.0228
  275MOL0     C36996   8.986   3.322   5.601  0.1685 -0.3960  0.1497
  275MOL0     C36997   8.982   3.200   5.663  0.1292  0.6942  0.0523
  275MOL0     O36998   9.078   3.170   5.754 -0.3830  0.3757  0.5097
  275MOL0     C36999   9.088   3.049   5.821  0.4226  0.3505  0.5221
  275MOL0     C37000   8.988   3.054   5.928  0.5685  1.2987  0.0077
  275MOL0     C37001   9.000   2.918   6.014 -0.3856 -0.1120  0.7377
  275MOL0     C37002   8.948   2.931   6.156 -0.6447 -0.0356  0.3639
  275MOL0     C37003   8.989   2.803   6.230  0.5087 -0.9375 -1.0124
  275MOL0     C37004   8.908   2.679   6.194 -0.0752  0.9997  1.1059
  275MOL0     C37005   8.959   2.555   6.270  0.1099  0.5403 -0.7393
  275MOL0     C37006   8.850   2.471   6.343  1.0144 -0.9126  0.2434
  275MOL0     N37007   8.793   2.537   6.460 -0.2899 -0.3317 -0.7511
  275MOL0     C37008   8.747   2.474   6.572  0.0392  0.7153 -0.5273
  275MOL0     C37009   8.676   2.572   6.640 -0.5256  0.1777 -0.3778
  275MOL0     C37010   8.613   2.562   6.775 -0.6446  0.2874 -0.1951
  275MOL0     C37011   8.461   2.556   6.763  0.3433 -1.0702  0.2518
  275MOL0     C37012   8.377   2.581   6.895  0.6445 -0.6319 -0.2608
  275MOL0     C37013   8.395   2.475   7.010 -0.3998  0.0250 -0.1012
  275MOL0     O37014   8.292   2.378   6.997  0.2660 -0.4464 -0.2720
  275MOL0     C37015   8.281   2.273   7.087  0.8885 -0.1070  0.6153
  275MOL0     C37016   8.323   2.281   7.216  0.3290  0.6446 -0.2324
  275MOL0     C37017   8.315   2.168   7.309 -0.5647  0.4079  0.5778
  275MOL0     C37018   8.242   2.054   7.266  1.0367  0.7502 -0.8906
  275MOL0     C37019   8.216   1.932   7.351  0.0514 -1.3421 -1.7312
  275MOL0     O37020   8.282   1.920   7.477  0.0895  0.0279 -0.0662
  275MOL0     C37021   8.238   1.820   7.564  0.1389 -1.0616  1.2834
  275MOL0     C37022   8.215   1.685   7.527 -0.0437  0.8154  0.5221
  275MOL0     C37023   8.180   1.595   7.623  0.1006 -0.2848 -0.4048
  275MOL0     C37024   8.161   1.625   7.761  0.5940 -0.5880 -0.9640
  275MOL0     O37025   8.135   1.526   7.858  0.7089 -0.2085 -0.0178
  275MOL0     C37026   8.071   1.413   7.812  0.0520  0.4268  0.3195
  275MOL0     C37027   7.924   1.414   7.759  0.1470 -0.8086 -0.0872
  275MOL0     C37028   7.825   1.405   7.878 -0.6088 -0.4834 -0.0106
  275MOL0     C37029   7.677   1.388   7.836 -0.1205 -0.3307  0.2876
  275MOL0     C37030   7.634   1.250   7.789  0.2718  0.1180  0.0388
  275MOL0     C37031   7.485   1.261   7.760  0.5437  0.1929 -0.1558
  275MOL0     C37032   7.416   1.134   7.705 -0.8902 -0.3849 -0.6562
  275MOL0     C37033   7.476   1.093   7.576 -0.4302  0.5247  0.2823
  275MOL0    Cl37034   7.393   0.952   7.521  0.7806  0.1818  0.2898
  275MOL0     C37035   8.187   1.756   7.796  0.3763  0.1802 -0.7913
  275MOL0     C37036   8.223   1.854   7.700  0.4860 -0.5474 -0.7167
  275MOL0     O37037   8.146   1.848   7.297  0.5764 -0.6445 -0.1093
  275MOL0     C37038   8.193   2.044   7.133 -1.1577 -0.5872  0.4994
  275MOL0     C37039   8.208   2.155   7.041  0.6756 -0.4345  0.3228
  275MOL0     N37040   8.704   2.696   6.580 -1.0454  0.5207  0.4020
  275MOL0     N37041   8.770   2.674   6.475 -0.5876  0.4382  0.5069
  275MOL0     C37042   8.881   3.100   5.629  0.0618 -1.2475  0.1432
  275MOL0     C37043   8.785   3.135   5.541  0.2261 -0.5459 -0.1208
  275MOL0     C37044   8.479   3.394   5.357 -0.4467 -0.1295  0.5558
  275MOL0     C37045   8.477   3.323   5.234  0.9438 -0.1410  0.4573
  275MOL0     C37046   8.356   3.344   5.157 -0.0546 -0.4118  0.5798
  275MOL0     C37047   8.255   3.430   5.205  0.9398 -0.3527  0.4856
  275MOL0     O37048   8.135   3.464   5.134 -0.4978 -0.5888  0.2528
  275MOL0     C37049   8.127   3.425   4.990 -0.0978  0.9003  0.3959
  275MOL0     C37050   8.109   3.553   4.903  0.8525  0.1192  0.1207
  275MOL0     C37051   7.960   3.587   4.891 -0.1453 -0.2356 -0.1048
  275MOL0     C37052   7.929   3.655   4.758  0.4539 -0.1823 -1.5037
  275MOL0     C37053   7.976   3.797   4.750 -1.1619 -0.2102  0.2780
  275MOL0     C37054   8.050   3.888   4.727  0.6112 -0.4552  0.2266
  275MOL0     C37055   8.252   3.486   5.328 -0.4701  0.1992 -0.6874
  275MOL0     C37056   8.366   3.462   5.406  0.0229 -0.3620  0.3951
  275MOL0     C37057   8.342   3.513   5.542 -0.1444  0.8088  1.4717
  275MOL0     H37058   8.902   3.445   5.452  1.6545  0.4919  2.0746
  275MOL0     H37059   9.061   3.396   5.627 -0.4700  0.5189 -0.5673
  275MOL0     H37060   9.077   2.960   5.758 -3.8493 -0.4880  2.1013
  275MOL0     H37061   9.190   3.039   5.859  0.9263 -0.9751 -1.0650
  275MOL0     H37062   8.889   3.053   5.881  0.5249 -4.0652 -0.4054
  275MOL0     H37063   9.017   3.137   5.993  3.0701 -1.3231  2.5402
  275MOL0     H37064   9.105   2.888   6.009  0.4629  2.7550 -2.5565
  275MOL0     H37065   8.954   2.843   5.948 -0.2691  0.9613 -0.6050
  275MOL0     H37066   8.990   3.014   6.213 -2.9924 -1.0692  3.9591
  275MOL0     H37067   8.838   2.930   6.157 -0.7164 -2.8361 -0.7329
  275MOL0     H37068   9.092   2.772   6.212  0.5995 -2.2771  1.4294
  275MOL0     H37069   8.971   2.821   6.336  3.3370 -1.5727 -0.3598
  275MOL0     H37070   8.799   2.695   6.193 -0.1077  1.3070 -2.3064
  275MOL0     H37071   8.927   2.660   6.089  1.4090 -1.6673  1.7768
  275MOL0     H37072   9.027   2.576   6.353 -0.7058  2.0679 -0.4111
  275MOL0     H37073   9.018   2.495   6.201 -0.0117  0.6061 -0.9011
  275MOL0     H37074   8.770   2.459   6.270  2.0502 -1.9277 -0.7697
  275MOL0     H37075   8.888   2.372   6.373 -1.2397 -1.5813  1.1383
  275MOL0     H37076   8.765   2.374   6.609  1.5721  0.5201 -1.7103
  275MOL0     H37077   8.648   2.470   6.822  2.8529  0.7033 -1.6407
  275MOL0     H37078   8.642   2.647   6.838  0.0857  1.0848 -1.5291
  275MOL0     H37079   8.416   2.632   6.698  0.7758 -2.3377 -1.6031
  275MOL0     H37080   8.430   2.467   6.707 -2.7273  1.2512 -2.0490
  275MOL0     H37081   8.272   2.604   6.872  0.6788  0.3974  0.5151
  275MOL0     H37082   8.411   2.676   6.937 -1.5864  0.0986  0.0153
  275MOL0     H37083   8.377   2.529   7.103 -1.4302 -0.4011 -0.0437
  275MOL0     H37084   8.497   2.440   7.026 -0.5476 -0.7555 -0.7891
  275MOL0     H37085   8.369   2.370   7.259 -1.3729  1.6245 -0.3195
  275MOL0     H37086   8.356   2.173   7.410  0.5983 -1.4698  0.2562
  275MOL0     H37087   8.224   1.638   7.429 -4.0271 -0.5666  0.6298
  275MOL0     H37088   8.170   1.491   7.596  1.5625 -0.5919  0.1187
  275MOL0     H37089   8.134   1.344   7.755  3.5579  0.1189  4.0928
  275MOL0     H37090   8.060   1.358   7.906  2.6682  1.8635  1.5623
  275MOL0     H37091   7.911   1.510   7.707 -2.5842  0.9885  3.4884
  275MOL0     H37092   7.904   1.323   7.702 -1.3788 -0.6366  0.1371
  275MOL0     H37093   7.850   1.313   7.932  2.9474 -0.7081 -1.7685
  275MOL0     H37094   7.835   1.492   7.943  3.0085 -1.3192  0.7726
  275MOL0     H37095   7.671   1.454   7.749 -0.0778 -0.9190 -0.1662
  275MOL0     H37096   7.608   1.417   7.916 -0.6742 -1.1610  0.1259
  275MOL0     H37097   7.643   1.182   7.874 -3.1067  0.2439  0.6055
  275MOL0     H37098   7.693   1.215   7.704  0.8238 -0.5812  0.7009
  275MOL0     H37099   7.422   1.283   7.847  0.7698  2.1564 -0.4318
  275MOL0     H37100   7.470   1.337   7.683 -2.4587 -1.0571 -0.9450
  275MOL0     H37101   7.308   1.149   7.698 -1.2332 -1.9016  0.7031
  275MOL0     H37102   7.439   1.054   7.777 -0.6717 -0.3223 -0.6541
  275MOL0     H37103   7.453   1.174   7.506  0.4634  0.9686  0.4844
  275MOL0     H37104   7.585   1.084   7.563 -0.7230 -1.0016 -1.6274
  275MOL0     H37105   8.171   1.776   7.902  1.2229  1.5844 -0.9083
  275MOL0     H37106   8.224   1.957   7.734  1.1528 -0.6988 -0.2462
  275MOL0     H37107   8.155   1.959   7.078  1.2178 -1.1717 -0.3695
  275MOL0     H37108   8.180   2.144   6.936  1.8432 -1.2181  0.0617
  275MOL0     H37109   8.883   2.995   5.658 -2.8975 -0.4500  4.1770
  275MOL0     H37110   8.700   3.080   5.502  0.7525 -1.0345 -0.6016
  275MOL0     H37111   8.556   3.253   5.208  1.4943 -0.8766  3.7421
  275MOL0     H37112   8.347   3.282   5.068  0.0409  1.6096 -0.9145
  275MOL0     H37113   8.043   3.356   4.984  0.3713  0.1302  2.0752
  275MOL0     H37114   8.218   3.379   4.950  1.3112  1.7713  2.3983
  275MOL0     H37115   8.148   3.539   4.802  0.1722 -0.5778 -0.0577
  275MOL0     H37116   8.158   3.638   4.952 -2.8857  2.3341  0.3280
  275MOL0     H37117   7.916   3.649   4.970  0.9786 -0.4461  0.6981
  275MOL0     H37118   7.899   3.496   4.893 -0.9269  0.1327 -2.7353
  275MOL0     H37119   7.972   3.590   4.682  1.4355  0.0218 -1.1509
  275MOL0     H37120   7.823   3.657   4.732  0.0633 -3.8058 -0.7232
  275MOL0     H37121   8.101   3.982   4.719  1.4943 -0.8281  1.1877
  275MOL0     H37122   8.176   3.560   5.352 -1.1576 -0.5852 -0.4021
  275MOL0     H37123   8.396   3.458   5.619 -0.4889  2.1648  2.7381
  275MOL0     H37124   8.377   3.617   5.544 -0.7008  0.9897  2.0740
  275MOL0     H37125   8.237   3.515   5.571  0.1880  2.4936  2.7579
  276MOL0     O37126   6.742  10.063   1.249 -0.9894  0.5193  0.8699
  276MOL0     C37127   6.827   9.982   1.282  0.3091  0.3661  0.1225
  276MOL0     O37128   6.923  10.004   1.383  0.0771 -0.5919  0.8666
  276MOL0     C37129   6.941  10.131   1.437  0.6266  0.6163 -0.9218
  276MOL0     C37130   7.012  10.229   1.356 -0.4884 -1.0956  0.5006
  276MOL0     C37131   7.043  10.357   1.406  1.0142  0.0620  0.3353
  276MOL0     C37132   7.024  10.381   1.542 -0.7700 -0.5047 -1.0808
  276MOL0     O37133   7.064  10.507   1.578  1.0182 -0.7707 -0.3820
  276MOL0     C37134   7.199  10.512   1.614 -0.8552  0.2262 -0.2338
  276MOL0     C37135   7.259  10.641   1.563 -0.4092  0.5153 -0.3076
  276MOL0     C37136   7.369  10.692   1.656 -0.3701  0.3969  0.3278
  276MOL0     C37137   7.434  10.815   1.603  1.0886 -0.3622  0.3153
  276MOL0     C37138   7.560  10.874   1.681  0.5630  0.0279 -1.1511
  276MOL0     C37139   7.683  10.796   1.664 -0.5476 -0.3743 -0.6765
  276MOL0     C37140   7.813  10.849   1.735 -0.7986 -1.2292  0.2661
  276MOL0     C37141   7.930  10.759   1.696 -0.8471  0.0159 -0.2976
  276MOL0     N37142   8.034  10.778   1.802 -0.7884 -0.3918  1.0887
  276MOL0     C37143   8.077  10.673   1.880  0.5378  0.2740 -0.1535
  276MOL0     C37144   8.191  10.711   1.946  0.8989  0.4198 -0.2400
  276MOL0     C37145   8.273  10.619   2.025  0.2082 -0.9659 -0.6318
  276MOL0     C37146   8.415  10.614   1.980  0.0587  0.6395  0.5140
  276MOL0     C37147   8.495  10.754   2.010  0.7376  0.6997 -0.3909
  276MOL0     C37148   8.637  10.771   1.959 -0.4676 -0.1461  0.7311
  276MOL0     O37149   8.619  10.814   1.814  0.3653  0.2077  0.0712
  276MOL0     C37150   8.737  10.803   1.746 -0.0495  0.1106 -1.3781
  276MOL0     C37151   8.854  10.856   1.797  0.3662  0.7664 -1.0028
  276MOL0     C37152   8.960  10.882   1.715  0.4430 -0.7706 -0.4693
  276MOL0     C37153   8.959  10.849   1.575 -0.0836  1.3399  0.0260
  276MOL0     C37154   9.073  10.875   1.480 -0.7157  0.4399 -0.4554
  276MOL0     O37155   9.064  10.824   1.350 -0.1517 -0.1973 -0.3056
  276MOL0     C37156   9.173  10.861   1.274  0.2279 -0.1730 -0.3237
  276MOL0     C37157   9.169  10.961   1.182  0.2093  0.1657 -0.0757
  276MOL0     C37158   9.274  10.992   1.093  0.3352 -0.1426 -0.3151
  276MOL0     C37159   9.391  10.910   1.107 -0.6894 -0.5787  1.0104
  276MOL0     O37160   9.500  10.919   1.020 -0.7103  0.1779  0.4070
  276MOL0     C37161   9.522  11.032   0.945  0.7333  0.1581 -0.1174
  276MOL0     C37162   9.611  11.001   0.826  0.0989 -0.0281  0.1801
  276MOL0     C37163   9.640  11.139   0.755  0.1325  0.8801  0.5424
  276MOL0     C37164   9.732  11.133   0.636 -0.7759  1.1365  0.5827
  276MOL0     C37165   9.754  11.266   0.564 -0.6685 -0.0143 -0.8389
  276MOL0     C37166   9.879  11.264   0.463 -0.1000 -0.5837 -0.2871
  276MOL0     C37167   9.909  11.403   0.395  0.7761  0.1315 -0.0967
  276MOL0     C37168   9.843  11.390   0.260 -0.2571 -0.9005  0.8521
  276MOL0    Cl37169   9.907  11.264   0.153  0.1488  0.0615  0.1613
  276MOL0     C37170   9.391  10.810   1.203  0.0803  0.5845 -0.4973
  276MOL0     C37171   9.287  10.789   1.286  0.5227  0.4839  0.7882
  276MOL0     O37172   9.172  10.918   1.534 -1.2387 -0.0169 -0.1642
  276MOL0     C37173   8.843  10.782   1.525 -0.4082  0.5553  0.5334
  276MOL0     C37174   8.739  10.753   1.622  1.3378 -0.1060  1.2461
  276MOL0     N37175   8.207  10.843   1.902 -0.0630 -0.2441 -0.2824
  276MOL0     N37176   8.122  10.878   1.814  0.1886  1.2337  0.1489
  276MOL0     C37177   6.964  10.276   1.622  0.5154 -0.4434 -0.7559
  276MOL0     C37178   6.918  10.155   1.570  1.2669  0.5844  0.3371
  276MOL0     C37179   6.846   9.864   1.199 -0.5167  0.1078  0.1527
  276MOL0     C37180   6.845   9.733   1.267  0.0224 -0.1892 -0.4394
  276MOL0     C37181   6.889   9.626   1.198 -0.1452 -1.1256  0.1257
  276MOL0     C37182   6.902   9.624   1.058  0.2314  1.1181  0.1125
  276MOL0     O37183   6.904   9.502   1.005  0.1895  0.2993  0.4372
  276MOL0     C37184   6.958   9.487   0.864  0.1509  0.0704 -0.8516
  276MOL0     C37185   6.949   9.351   0.804  0.6639 -0.4200  0.0462
  276MOL0     C37186   7.014   9.240   0.879  0.1694 -1.3298 -0.4515
  276MOL0     C37187   6.991   9.104   0.822  0.7627 -0.8908 -0.0890
  276MOL0     C37188   7.018   9.095   0.680 -1.1967  0.5117  0.2272
  276MOL0     C37189   7.006   9.079   0.555 -0.2808 -0.4282 -0.6804
  276MOL0     C37190   6.901   9.743   0.991  0.4019  0.6292 -0.3064
  276MOL0     C37191   6.871   9.866   1.063  0.0825 -0.8214  0.7299
  276MOL0     C37192   6.888   9.996   0.986  0.7782 -0.6084 -0.9015
  276MOL0     H37193   7.030  10.208   1.251  0.1367 -1.0625  0.5951
  276MOL0     H37194   7.070  10.442   1.345 -6.2688  1.2253 -2.3765
  276MOL0     H37195   7.206  10.523   1.723  3.6519 -1.2858 -0.1307
  276MOL0     H37196   7.267  10.436   1.574 -0.0734  0.4628  0.5998
  276MOL0     H37197   7.190  10.726   1.568  0.7411  1.3910  2.2338
  276MOL0     H37198   7.299  10.636   1.461 -0.2775  1.5115 -0.3196
  276MOL0     H37199   7.453  10.624   1.671  1.3676  1.9131 -1.9375
  276MOL0     H37200   7.327  10.716   1.755 -0.3472 -0.0245  0.4461
  276MOL0     H37201   7.457  10.799   1.497 -1.9585 -2.3699 -0.1884
  276MOL0     H37202   7.360  10.895   1.608  0.3020 -1.1432  2.0797
  276MOL0     H37203   7.586  10.977   1.654 -0.7301  0.9672  0.9426
  276MOL0     H37204   7.536  10.872   1.788 -1.1903 -1.0859 -1.5342
  276MOL0     H37205   7.668  10.691   1.689 -3.8557  0.1099 -0.1371
  276MOL0     H37206   7.699  10.787   1.556 -1.8523  1.5267 -1.0896
  276MOL0     H37207   7.796  10.859   1.842 -0.1734  0.8989  0.2296
  276MOL0     H37208   7.823  10.952   1.699 -1.4758 -0.0769  3.1298
  276MOL0     H37209   7.899  10.655   1.686 -1.6181  0.2374 -0.3052
  276MOL0     H37210   7.974  10.785   1.599  0.1798 -0.4114  0.0463
  276MOL0     H37211   8.035  10.573   1.877  3.1897 -0.9366  0.3716
  276MOL0     H37212   8.268  10.663   2.125  0.2998  1.3846 -1.5997
  276MOL0     H37213   8.239  10.516   2.014  1.5860 -1.4304 -0.6653
  276MOL0     H37214   8.468  10.528   2.020 -0.1891 -1.0905 -2.5678
  276MOL0     H37215   8.415  10.594   1.872  0.8347 -1.8357  0.9060
  276MOL0     H37216   8.503  10.762   2.119  1.6535 -2.2730 -0.1647
  276MOL0     H37217   8.445  10.846   1.976  0.3969  1.7802  2.7414
  276MOL0     H37218   8.698  10.681   1.966  2.4321  1.5544 -0.6452
  276MOL0     H37219   8.703  10.840   2.012  0.5901  0.1692 -0.9168
  276MOL0     H37220   8.868  10.907   1.891 -4.1848 -0.2643  0.4971
  276MOL0     H37221   9.052  10.916   1.761  0.3673  0.2765 -1.0593
  276MOL0     H37222   9.076  11.016   1.185 -0.0862 -0.3711  1.2352
  276MOL0     H37223   9.252  11.065   1.016  4.9949  0.8265 -1.0129
  276MOL0     H37224   9.428  11.061   0.897 -0.4415  2.3654  3.1761
  276MOL0     H37225   9.568  11.110   1.006  1.8943 -0.8454  0.3189
  276MOL0     H37226   9.701  10.955   0.869 -0.6976 -1.2959  0.5617
  276MOL0     H37227   9.565  10.926   0.762 -0.7175  0.8523 -0.2697
  276MOL0     H37228   9.546  11.185   0.722 -0.4294  0.2345  1.2155
  276MOL0     H37229   9.696  11.202   0.824  2.2291  0.3712 -0.5939
  276MOL0     H37230   9.697  11.062   0.560  2.3841  1.4326 -1.3121
  276MOL0     H37231   9.829  11.090   0.663 -0.2421  0.6027 -1.9282
  276MOL0     H37232   9.780  11.335   0.645 -0.6799  1.4152 -2.0161
  276MOL0     H37233   9.664  11.310   0.519  0.4085  3.0982 -0.2020
  276MOL0     H37234   9.967  11.245   0.524 -0.3704  1.4120  0.8032
  276MOL0     H37235   9.871  11.180   0.393 -0.5717 -0.7566 -0.0320
  276MOL0     H37236  10.013  11.430   0.376  0.5342  0.3817 -1.0991
  276MOL0     H37237   9.860  11.482   0.454 -3.2399 -3.3878  1.8741
  276MOL0     H37238   9.735  11.369   0.266 -0.2457 -0.5552  3.0810
  276MOL0     H37239   9.853  11.488   0.214  1.7795 -0.6546  1.7221
  276MOL0     H37240   9.484  10.754   1.204 -0.4627 -0.5683  3.4384
  276MOL0     H37241   9.299  10.710   1.360  2.6534 -0.8819 -0.9232
  276MOL0     H37242   8.849  10.734   1.428  2.2730  1.4354  0.1767
  276MOL0     H37243   8.652  10.723   1.564  2.6268  3.6871 -3.3223
  276MOL0     H37244   6.949  10.300   1.727  0.0105 -0.2941 -0.8572
  276MOL0     H37245   6.858  10.085   1.628  1.9266  1.6947  2.4780
  276MOL0     H37246   6.823   9.710   1.371  0.0784 -1.7477 -0.7553
  276MOL0     H37247   6.883   9.529   1.245  0.1301 -0.7883  0.8765
  276MOL0     H37248   7.059   9.527   0.853 -0.0703 -0.0285 -4.2289
  276MOL0     H37249   6.897   9.545   0.795  1.2855  0.1802 -1.7974
  276MOL0     H37250   6.981   9.357   0.699 -3.6291  2.1410 -1.3523
  276MOL0     H37251   6.841   9.335   0.802  0.0504  2.8199 -2.7751
  276MOL0     H37252   6.967   9.237   0.977  0.4629 -0.7451 -0.2952
  276MOL0     H37253   7.120   9.261   0.892 -0.1791 -1.1768  2.9340
  276MOL0     H37254   7.048   9.032   0.882 -0.7492  0.0989  2.7081
  276MOL0     H37255   6.884   9.084   0.835  0.9101 -0.4995  1.9969
  276MOL0     H37256   7.005   9.083   0.448  1.7732 -0.0648 -0.7322
  276MOL0     H37257   6.922   9.741   0.885  2.0532 -1.0752  0.0082
  276MOL0     H37258   6.976   9.989   0.921  1.8627  1.3126  0.2619
  276MOL0     H37259   6.806  10.015   0.916  2.0063  2.9714 -1.6009
  276MOL0     H37260   6.910  10.085   1.045  0.2308  0.0788 -1.7018
  277MOL0     O37261   6.354   4.562  10.383 -0.3656 -0.3646  0.0884
  277MOL0     C37262   6.476   4.596  10.382 -0.0264  0.5237  0.8857
  277MOL0     O37263   6.532   4.668  10.482  0.2720 -0.6671 -0.2182
  277MOL0     C37264   6.439   4.748  10.545  0.2682  0.7393 -0.2641
  277MOL0     C37265   6.387   4.876  10.505 -0.2141  0.5255  0.1934
  277MOL0     C37266   6.289   4.941  10.580 -0.5743  0.0140  0.0494
  277MOL0     C37267   6.223   4.891  10.682 -0.5829  0.2373  0.1889
  277MOL0     O37268   6.125   4.968  10.745 -0.3220 -0.4261  0.3015
  277MOL0     C37269   6.055   4.937  10.865 -0.3803 -0.0803 -0.2270
  277MOL0     C37270   5.916   4.961  10.836  0.1420 -0.3136 -0.1261
  277MOL0     C37271   5.826   4.877  10.934  0.0465 -0.3040 -0.3258
  277MOL0     C37272   5.819   4.941  11.070 -0.6884 -0.5286  0.5173
  277MOL0     C37273   5.734   4.865  11.172 -0.4294 -0.2082  0.1617
  277MOL0     C37274   5.798   4.750  11.254 -0.0004 -0.1255  0.0782
  277MOL0     C37275   5.696   4.658  11.319  0.4300  0.2505  0.4882
  277MOL0     C37276   5.751   4.530  11.378 -1.1153  0.0510  0.2421
  277MOL0     N37277   5.858   4.551  11.482 -0.8007 -0.5989  0.4690
  277MOL0     C37278   5.834   4.621  11.597 -0.3327 -0.5531  0.4176
  277MOL0     C37279   5.952   4.620  11.665 -0.7079 -0.7780 -0.1304
  277MOL0     C37280   5.986   4.703  11.792 -0.2601 -0.2010  0.3264
  277MOL0     C37281   6.025   4.613  11.917 -0.0872 -0.3474 -0.4256
  277MOL0     C37282   5.908   4.537  11.981  0.2227 -0.2962  0.5531
  277MOL0     C37283   5.831   4.612  12.088 -0.7921 -1.7386  0.4166
  277MOL0     O37284   5.767   4.734  12.044  0.0295  0.0453 -0.2012
  277MOL0     C37285   5.673   4.724  11.947  0.3551  0.1075  0.2943
  277MOL0     C37286   5.656   4.843  11.871  0.1968  1.1499  0.2153
  277MOL0     C37287   5.571   4.845  11.765 -0.1338 -0.2907 -0.1233
  277MOL0     C37288   5.500   4.731  11.720 -1.1470  0.6609  0.4859
  277MOL0     C37289   5.402   4.725  11.608 -0.2595 -0.4614 -0.6530
  277MOL0     O37290   5.427   4.813  11.514  1.2668 -0.1754  1.0147
  277MOL0     C37291   5.343   4.808  11.402  0.2200 -0.1732  0.1185
  277MOL0     C37292   5.271   4.923  11.374 -0.0999 -0.4473  0.0019
  277MOL0     C37293   5.190   4.925  11.262 -0.0431 -0.3033 -0.4106
  277MOL0     C37294   5.176   4.817  11.174 -0.1742 -0.1464 -1.2873
  277MOL0     O37295   5.104   4.822  11.060 -0.0014 -0.4008  0.0439
  277MOL0     C37296   4.955   4.866  11.074 -0.5617 -0.0653  0.0636
  277MOL0     C37297   4.890   4.789  11.184 -0.1439  0.9033  0.4526
  277MOL0     C37298   4.729   4.790  11.182 -0.2856  0.7845 -0.2755
  277MOL0     C37299   4.671   4.722  11.053 -0.3920  0.6828 -0.0558
  277MOL0     C37300   4.519   4.702  11.050 -0.0941 -0.2317 -0.2665
  277MOL0     C37301   4.468   4.594  11.152  0.3428 -0.2832  0.4837
  277MOL0     C37302   4.310   4.596  11.169  0.0879  0.8524 -0.5074
  277MOL0     C37303   4.222   4.532  11.061 -0.1225  0.8552  0.8356
  277MOL0    Cl37304   4.199   4.651  10.926  0.2889 -0.0430  0.0707
  277MOL0     C37305   5.231   4.700  11.216 -0.1643 -0.0099 -0.1302
  277MOL0     C37306   5.319   4.700  11.327  0.2591  0.4466 -0.8277
  277MOL0     O37307   5.319   4.635  11.605  0.3041  0.5027 -0.5395
  277MOL0     C37308   5.516   4.613  11.788 -0.1040 -0.2562  0.5581
  277MOL0     C37309   5.597   4.610  11.904  0.4835  0.0394  0.6543
  277MOL0     N37310   6.038   4.546  11.597  0.5437 -0.1135  0.4832
  277MOL0     N37311   5.980   4.488  11.494  0.3404 -0.6213 -0.2196
  277MOL0     C37312   6.264   4.752  10.728  0.2466 -0.5537  0.1088
  277MOL0     C37313   6.369   4.685  10.655 -0.2875 -0.1782  0.0388
  277MOL0     C37314   6.570   4.515  10.303  0.1213 -0.9820  0.3241
  277MOL0     C37315   6.710   4.500  10.345 -1.4239 -0.2761  0.1180
  277MOL0     C37316   6.797   4.411  10.284 -1.0522 -0.4829  0.7514
  277MOL0     C37317   6.756   4.343  10.178  0.4493  0.4451  0.1564
  277MOL0     O37318   6.851   4.262  10.126  0.4443  0.4714  0.1188
  277MOL0     C37319   6.818   4.123  10.136 -0.4392  0.3246  0.5754
  277MOL0     C37320   6.881   4.072  10.261 -0.8956 -0.1023  0.1874
  277MOL0     C37321   7.031   4.126  10.292  0.2678  0.5008  2.1451
  277MOL0     C37322   7.114   4.031  10.383  0.6316 -0.1739  0.2240
  277MOL0     C37323   7.248   4.079  10.433  0.0152  0.4966  0.7743
  277MOL0     C37324   7.370   4.094  10.458  0.4938  0.2687  0.8376
  277MOL0     C37325   6.629   4.363  10.122 -0.1215 -0.5687 -0.3871
  277MOL0     C37326   6.538   4.444  10.184  0.9562 -0.0279 -1.0380
  277MOL0     C37327   6.403   4.457  10.124  0.7177 -0.0198  0.3016
  277MOL0     H37328   6.426   4.922  10.414 -3.0388  2.4042 -0.2191
  277MOL0     H37329   6.268   5.039  10.536  1.3703 -0.4127 -2.0280
  277MOL0     H37330   6.072   4.834  10.897 -2.8355  0.2532  2.6224
  277MOL0     H37331   6.086   5.002  10.948  1.5160  3.1041 -3.1958
  277MOL0     H37332   5.882   4.925  10.738 -1.4500 -1.4924  0.8126
  277MOL0     H37333   5.891   5.067  10.834 -0.4230 -0.4441 -0.1085
  277MOL0     H37334   5.865   4.775  10.934  1.6260  0.1808 -3.6941
  277MOL0     H37335   5.728   4.864  10.888  0.1685 -1.8529 -0.1928
  277MOL0     H37336   5.916   4.944  11.121 -1.2441  1.7884  1.6193
  277MOL0     H37337   5.765   5.036  11.059 -1.3031 -0.9382  0.0043
  277MOL0     H37338   5.680   4.925  11.245 -2.2303 -1.9520  0.3644
  277MOL0     H37339   5.659   4.813  11.111  0.4470 -0.0332 -1.0972
  277MOL0     H37340   5.859   4.694  11.183  1.6781  0.5284  0.9459
  277MOL0     H37341   5.865   4.785  11.333 -1.1796 -2.3848  2.2206
  277MOL0     H37342   5.608   4.647  11.256  2.4829 -3.1591 -2.1437
  277MOL0     H37343   5.671   4.713  11.410 -2.2698 -0.2501  0.1481
  277MOL0     H37344   5.668   4.473  11.421 -1.4727 -0.5472 -1.1694
  277MOL0     H37345   5.794   4.464  11.302  0.0716  1.1317 -0.0646
  277MOL0     H37346   5.741   4.670  11.627 -0.6108 -1.9290  1.8811
  277MOL0     H37347   6.076   4.762  11.771  0.0790 -0.8157  0.0238
  277MOL0     H37348   5.903   4.774  11.799  0.9714  1.1873  1.3679
  277MOL0     H37349   6.101   4.545  11.879  0.6795 -0.2779  0.9113
  277MOL0     H37350   6.076   4.671  11.995  2.5301 -1.1554 -1.4382
  277MOL0     H37351   5.953   4.445  12.020 -0.6774 -0.5501  1.0017
  277MOL0     H37352   5.842   4.495  11.905 -0.2568  0.3595  0.5923
  277MOL0     H37353   5.911   4.650  12.152  0.6346 -3.3795 -0.3041
  277MOL0     H37354   5.764   4.553  12.152 -2.8033  1.1035  1.0904
  277MOL0     H37355   5.726   4.923  11.893  1.4574  0.7915 -2.1593
  277MOL0     H37356   5.560   4.936  11.707  1.9503 -0.2851 -0.6069
  277MOL0     H37357   5.284   5.006  11.443  0.4371 -0.6007  0.0909
  277MOL0     H37358   5.143   5.019  11.232  2.0738  0.8791 -0.1999
  277MOL0     H37359   4.940   4.970  11.105 -1.6570 -0.0631 -0.4541
  277MOL0     H37360   4.902   4.846  10.980 -2.0973  1.0325  0.6537
  277MOL0     H37361   4.917   4.683  11.180 -0.4995  0.8441 -0.8326
  277MOL0     H37362   4.911   4.836  11.281 -0.1533 -2.6496  2.3318
  277MOL0     H37363   4.701   4.720  11.260  0.2844  0.1404 -0.6366
  277MOL0     H37364   4.689   4.888  11.208 -0.9469 -0.2712  3.1159
  277MOL0     H37365   4.706   4.618  11.050 -4.3389 -0.9287  1.6817
  277MOL0     H37366   4.703   4.780  10.966 -2.5754  1.1361 -0.6416
  277MOL0     H37367   4.491   4.670  10.949  0.8507 -0.8374 -0.3578
  277MOL0     H37368   4.472   4.798  11.072  2.2630  1.5634 -2.3934
  277MOL0     H37369   4.498   4.499  11.107  0.1701 -0.0855 -0.0496
  277MOL0     H37370   4.528   4.600  11.244  0.2963  3.4029  0.4189
  277MOL0     H37371   4.274   4.699  11.179  3.1643  2.0321 -0.3110
  277MOL0     H37372   4.273   4.537  11.253 -4.0940  0.3103 -2.4820
  277MOL0     H37373   4.267   4.439  11.023  0.5294  1.6519 -0.3969
  277MOL0     H37374   4.118   4.522  11.094  0.0454 -0.5259  1.0382
  277MOL0     H37375   5.203   4.613  11.158  2.1095  1.1275 -3.1851
  277MOL0     H37376   5.363   4.607  11.360 -1.1585  0.8568  2.7293
  277MOL0     H37377   5.458   4.524  11.767 -1.5040  0.8345 -0.3367
  277MOL0     H37378   5.599   4.519  11.962 -1.0417 -0.3148  0.1883
  277MOL0     H37379   6.225   4.695  10.811  2.4183 -2.3383 -0.0044
  277MOL0     H37380   6.402   4.588  10.691  3.9034  1.3329  0.8518
  277MOL0     H37381   6.748   4.566  10.422  0.7191  1.7344 -2.4504
  277MOL0     H37382   6.903   4.412  10.306 -1.0967  0.5081  1.0076
  277MOL0     H37383   6.846   4.083  10.038  0.1434 -1.8798  1.5683
  277MOL0     H37384   6.709   4.107  10.143 -0.3422 -2.8344 -2.4379
  277MOL0     H37385   6.875   3.963  10.254  1.3117 -0.2506 -0.1861
  277MOL0     H37386   6.826   4.083  10.355 -0.6891 -4.7112  1.0570
  277MOL0     H37387   7.020   4.229  10.328 -4.2682  2.0238 -2.5119
  277MOL0     H37388   7.077   4.124  10.193 -3.1545 -2.5729  0.3877
  277MOL0     H37389   7.046   4.012  10.467 -0.2055  0.6806 -0.2382
  277MOL0     H37390   7.124   3.933  10.335 -0.3366 -0.8379  1.3338
  277MOL0     H37391   7.477   4.087  10.452  0.8029  1.9737  2.9650
  277MOL0     H37392   6.586   4.313  10.036 -2.0649  2.3120 -1.2626
  277MOL0     H37393   6.390   4.398  10.033 -0.8517  0.6356  0.0857
  277MOL0     H37394   6.328   4.414  10.190  0.2052  1.4545  0.7067
  277MOL0     H37395   6.385   4.560  10.094 -2.7591 -0.3494  0.8668
  278MOL0     O37396  11.432   4.339   9.835  0.3156 -0.1214 -0.8594
  278MOL0     C37397  11.527   4.411   9.787 -1.1452 -1.2070 -0.7212
  278MOL0     O37398  11.576   4.413   9.660 -0.1748  0.4663 -0.2598
  278MOL0     C37399  11.551   4.304   9.583  0.9020  0.5376  0.3886
  278MOL0     C37400  11.419   4.290   9.530  0.1693 -0.3197  0.4589
  278MOL0     C37401  11.397   4.194   9.435  0.1626  0.1192 -0.3044
  278MOL0     C37402  11.502   4.108   9.402 -0.7272 -0.1576 -0.5093
  278MOL0     O37403  11.502   4.002   9.323  0.5142 -0.0678  0.6666
  278MOL0     C37404  11.377   3.954   9.270 -0.3338  0.1924 -1.4399
  278MOL0     C37405  11.409   3.843   9.165 -0.7440 -1.0896  0.6302
  278MOL0     C37406  11.474   3.712   9.214  0.5793  0.0432 -0.0110
  278MOL0     C37407  11.486   3.603   9.110 -0.4443 -0.6708  0.2225
  278MOL0     C37408  11.514   3.462   9.165 -0.0050  1.0305 -0.5961
  278MOL0     C37409  11.427   3.411   9.281 -0.3742 -0.2845  0.4901
  278MOL0     C37410  11.283   3.394   9.252 -0.0688  0.2020  0.1775
  278MOL0     C37411  11.258   3.298   9.141 -0.7595  0.1931  0.5505
  278MOL0     N37412  11.292   3.157   9.174  0.0041 -0.2749 -0.4851
  278MOL0     C37413  11.217   3.092   9.273 -1.2534 -0.2418  0.2561
  278MOL0     C37414  11.248   2.967   9.254 -0.4447  1.0837  0.7635
  278MOL0     C37415  11.205   2.865   9.361  0.4950  0.8968 -0.5759
  278MOL0     C37416  11.235   2.894   9.515 -0.2440 -0.4212  0.0345
  278MOL0     C37417  11.374   2.932   9.551  0.4119 -0.2465 -0.6142
  278MOL0     C37418  11.477   2.829   9.531  0.5265  0.6367  0.0582
  278MOL0     O37419  11.471   2.740   9.640  0.1551  0.6341  0.2133
  278MOL0     C37420  11.539   2.618   9.619  0.0779 -0.1261 -0.2167
  278MOL0     C37421  11.589   2.558   9.500  0.5923 -0.5542  0.9353
  278MOL0     C37422  11.639   2.431   9.493  0.0730 -0.1280 -0.0980
  278MOL0     C37423  11.655   2.358   9.601  0.2027 -0.6559  0.5630
  278MOL0     C37424  11.714   2.226   9.581  0.1933 -0.2395  0.4317
  278MOL0     O37425  11.771   2.193   9.462 -0.4504 -1.0477 -0.7481
  278MOL0     C37426  11.818   2.073   9.436  0.3394  0.5289 -0.3359
  278MOL0     C37427  11.732   1.957   9.428 -0.0774 -0.7607  0.4860
  278MOL0     C37428  11.780   1.833   9.401 -0.7132  0.8923  0.0863
  278MOL0     C37429  11.915   1.806   9.374  0.2309  0.5270 -0.5383
  278MOL0     O37430  11.950   1.674   9.336  0.1207  0.6025  0.5834
  278MOL0     C37431  12.055   1.657   9.233 -0.5265  0.2757 -0.5511
  278MOL0     C37432  12.173   1.575   9.276  0.3892  0.3223 -0.2132
  278MOL0     C37433  12.272   1.651   9.365 -0.0405 -0.1134 -0.3362
  278MOL0     C37434  12.423   1.614   9.334  1.0493  0.7381  0.1965
  278MOL0     C37435  12.469   1.680   9.204  0.3952  0.0795  0.7472
  278MOL0     C37436  12.593   1.600   9.166 -0.0975  0.0861 -0.3872
  278MOL0     C37437  12.667   1.677   9.061 -0.1291 -0.8558  0.4379
  278MOL0     C37438  12.810   1.625   9.038 -0.2826  0.9994 -0.9028
  278MOL0    Cl37439  12.809   1.445   8.986  0.1094 -0.0642 -0.1840
  278MOL0     C37440  12.000   1.917   9.377  0.3352 -0.8434  0.8052
  278MOL0     C37441  11.949   2.047   9.406 -0.2774 -0.6199 -0.3816
  278MOL0     O37442  11.725   2.170   9.687 -0.3472 -0.3179 -0.8215
  278MOL0     C37443  11.622   2.416   9.725 -0.2185 -1.2444 -0.1664
  278MOL0     C37444  11.573   2.549   9.728  0.1461 -0.3398 -0.7374
  278MOL0     N37445  11.334   2.947   9.134  0.0968 -0.5739  0.1953
  278MOL0     N37446  11.362   3.070   9.100 -0.4989  0.0745  0.3669
  278MOL0     C37447  11.630   4.121   9.452 -0.2773 -0.0621  0.1376
  278MOL0     C37448  11.661   4.228   9.544 -0.0000 -0.3217  0.0134
  278MOL0     C37449  11.594   4.512   9.876  0.7126 -0.2503 -0.3392
  278MOL0     C37450  11.714   4.560   9.831 -0.3685 -0.0230 -0.1278
  278MOL0     C37451  11.776   4.669   9.894 -0.7651 -1.2302 -0.7419
  278MOL0     C37452  11.726   4.729  10.013  0.4135  0.1772 -0.1993
  278MOL0     O37453  11.779   4.841  10.067  0.3887  0.5908 -0.9817
  278MOL0     C37454  11.905   4.886  10.019 -0.5420  0.1486 -1.0299
  278MOL0     C37455  11.962   4.994  10.103  1.1939 -0.1881  0.4185
  278MOL0     C37456  12.072   5.086  10.041 -0.5246  1.0905  0.4509
  278MOL0     C37457  12.154   5.147  10.143 -0.0054 -0.6271  0.4866
  278MOL0     C37458  12.275   5.203  10.078 -0.6579  0.4051 -0.5675
  278MOL0     C37459  12.374   5.257  10.033 -0.6118  0.2616 -0.2916
  278MOL0     C37460  11.604   4.677  10.063 -0.5963  0.7081  0.7526
  278MOL0     C37461  11.534   4.581   9.993  0.6617  0.9866  0.1617
  278MOL0     C37462  11.396   4.553  10.039  1.3065  0.9014  0.4139
  278MOL0     H37463  11.346   4.362   9.567 -2.1047 -1.3373 -1.7746
  278MOL0     H37464  11.304   4.198   9.378  1.4703 -2.5909 -2.9501
  278MOL0     H37465  11.317   3.913   9.352 -1.2501  1.2806 -1.5356
  278MOL0     H37466  11.319   4.035   9.224 -1.1117  0.6043  0.1656
  278MOL0     H37467  11.470   3.889   9.086  0.3273 -1.3640  1.2787
  278MOL0     H37468  11.317   3.825   9.109 -0.0464 -2.4105 -0.1462
  278MOL0     H37469  11.412   3.677   9.297 -0.7792  3.5398  0.6426
  278MOL0     H37470  11.572   3.729   9.259  0.8859 -5.8017  2.3864
  278MOL0     H37471  11.398   3.590   9.047 -0.6126  1.5019 -0.0534
  278MOL0     H37472  11.563   3.642   9.043  0.8504  1.0412  2.5456
  278MOL0     H37473  11.519   3.387   9.086 -0.5443 -1.3731  1.5418
  278MOL0     H37474  11.618   3.469   9.200  0.1771  2.2158 -1.2934
  278MOL0     H37475  11.467   3.319   9.324  1.5370  0.2802 -0.0018
  278MOL0     H37476  11.432   3.482   9.365 -2.4251  0.4242  0.0567
  278MOL0     H37477  11.247   3.493   9.221  1.8705  1.0198  0.4006
  278MOL0     H37478  11.229   3.352   9.337 -0.5201  0.4275  0.0068
  278MOL0     H37479  11.151   3.299   9.116 -0.3245 -1.7051 -1.7819
  278MOL0     H37480  11.319   3.324   9.054  2.0992 -3.0025  1.3888
  278MOL0     H37481  11.156   3.128   9.355  1.3040 -0.8626  2.5635
  278MOL0     H37482  11.097   2.845   9.361  0.2865  1.9224 -0.6641
  278MOL0     H37483  11.259   2.774   9.338  2.6989  1.9919  0.0260
  278MOL0     H37484  11.173   2.969   9.565 -1.1896 -1.9733  1.2675
  278MOL0     H37485  11.201   2.804   9.566 -0.6051  0.9957  2.4224
  278MOL0     H37486  11.380   2.963   9.656  1.2911  0.6425 -0.9063
  278MOL0     H37487  11.417   3.021   9.503 -1.2316 -1.0683 -3.8545
  278MOL0     H37488  11.573   2.882   9.524  0.4515  0.7352 -0.2642
  278MOL0     H37489  11.474   2.775   9.436  2.5079 -2.0835  1.4224
  278MOL0     H37490  11.594   2.619   9.410 -2.8591  0.6951  1.4447
  278MOL0     H37491  11.663   2.392   9.394 -0.2222 -0.4638 -0.0376
  278MOL0     H37492  11.626   1.981   9.434  0.0570  0.3705 -1.2451
  278MOL0     H37493  11.706   1.755   9.386  0.6110 -0.5672  0.8491
  278MOL0     H37494  12.000   1.611   9.150  2.3568  2.4950 -4.0493
  278MOL0     H37495  12.098   1.747   9.187  1.2204 -1.0250 -1.6020
  278MOL0     H37496  12.121   1.496   9.331 -0.2851  0.4992 -0.5882
  278MOL0     H37497  12.225   1.530   9.191  1.2374  0.6911  0.1021
  278MOL0     H37498  12.253   1.758   9.362  2.3945  0.3729  0.0487
  278MOL0     H37499  12.238   1.632   9.467  0.2592  2.9859  0.4274
  278MOL0     H37500  12.434   1.506   9.321  0.9399  1.0126 -2.8340
  278MOL0     H37501  12.486   1.652   9.415  1.4922  1.3206 -0.4041
  278MOL0     H37502  12.483   1.787   9.222 -1.0639  0.9096 -2.3063
  278MOL0     H37503  12.391   1.673   9.127  0.0302  3.1274  0.7182
  278MOL0     H37504  12.652   1.583   9.257 -0.8957 -1.4565 -0.1229
  278MOL0     H37505  12.572   1.502   9.123  0.3496 -0.9652  1.6603
  278MOL0     H37506  12.676   1.782   9.093 -1.1939 -0.8919  0.9069
  278MOL0     H37507  12.608   1.668   8.970  3.8860  2.4962 -2.9265
  278MOL0     H37508  12.863   1.675   8.957  1.1515 -1.1002 -1.3546
  278MOL0     H37509  12.873   1.621   9.128 -0.1886  1.2182 -0.9580
  278MOL0     H37510  12.108   1.913   9.364  0.3573  2.1362 -1.0006
  278MOL0     H37511  12.011   2.135   9.397 -0.6580 -0.4177 -1.1239
  278MOL0     H37512  11.636   2.362   9.818  2.9125  0.5037  0.5380
  278MOL0     H37513  11.533   2.588   9.822 -2.1730 -1.6418 -1.1126
  278MOL0     H37514  11.702   4.039   9.451 -2.2977 -1.9824 -2.3054
  278MOL0     H37515  11.760   4.239   9.586 -0.6188  0.5500  1.3120
  278MOL0     H37516  11.765   4.524   9.742 -2.0964  0.2092 -1.2802
  278MOL0     H37517  11.880   4.688   9.869 -0.7196  2.8767  1.6107
  278MOL0     H37518  11.901   4.919   9.914  2.3613  1.5194 -0.8100
  278MOL0     H37519  11.976   4.802  10.024  0.4519  1.0536  1.8984
  278MOL0     H37520  12.007   4.943  10.188 -1.5757  0.7301  2.5894
  278MOL0     H37521  11.879   5.052  10.145 -0.7107 -2.6944  0.3074
  278MOL0     H37522  12.025   5.165   9.981 -1.8816  0.5048  0.7013
  278MOL0     H37523  12.141   5.025   9.981  0.6300 -0.5454  3.2728
  278MOL0     H37524  12.094   5.223  10.195  2.7324  0.5476  2.1835
  278MOL0     H37525  12.186   5.073  10.217 -0.1133 -1.2877 -0.1177
  278MOL0     H37526  12.457   5.304   9.986 -0.6805  1.3319  0.6244
  278MOL0     H37527  11.571   4.728  10.154 -0.8526  0.4844  0.7868
  278MOL0     H37528  11.381   4.448  10.068 -0.2549  0.6353 -1.2250
  278MOL0     H37529  11.363   4.627  10.113  0.4623  2.1469 -1.1417
  278MOL0     H37530  11.328   4.568   9.955 -1.7289 -2.2935  2.0205
  279MOL0     O37531   8.229   5.131   0.139 -0.2660 -0.0543 -0.2723
  279MOL0     C37532   8.146   5.154   0.052  0.0600 -0.2310  0.6774
  279MOL0     O37533   8.147   5.262  -0.026  0.2229  0.2023  0.2493
  279MOL0     C37534   8.224   5.373   0.010 -0.3520 -0.8143 -0.8376
  279MOL0     C37535   8.271   5.413   0.139 -0.0524  0.9213 -0.1283
  279MOL0     C37536   8.349   5.527   0.156 -0.0903 -0.4153 -0.5233
  279MOL0     C37537   8.382   5.616   0.051 -0.0378  0.8816  0.2111
  279MOL0     O37538   8.473   5.715   0.069  1.2552  0.2855  0.3568
  279MOL0     C37539   8.501   5.803  -0.040 -0.2951  0.2487  0.1050
  279MOL0     C37540   8.616   5.895  -0.002  0.0979 -0.1311 -0.3994
  279MOL0     C37541   8.747   5.842  -0.049 -0.2197  0.6230  0.0139
  279MOL0     C37542   8.853   5.939  -0.050  1.3309 -0.2572 -0.1059
  279MOL0     C37543   8.854   6.028  -0.186  0.4349 -0.0438 -0.6679
  279MOL0     C37544   8.986   6.093  -0.187  0.5350  0.0953  0.7973
  279MOL0     C37545   8.999   6.218  -0.277  0.4534 -0.1776 -0.3245
  279MOL0     C37546   9.127   6.296  -0.269  0.6516 -0.0165 -0.1473
  279MOL0     N37547   9.248   6.218  -0.283  0.0651 -1.0474  0.1652
  279MOL0     C37548   9.276   6.136  -0.388 -0.5013  0.1073  0.1459
  279MOL0     C37549   9.406   6.102  -0.368  0.1968 -0.8136 -0.0457
  279MOL0     C37550   9.474   6.004  -0.463 -0.0994 -0.5922  0.2134
  279MOL0     C37551   9.432   5.860  -0.427 -0.3460  0.1373  0.1199
  279MOL0     C37552   9.546   5.760  -0.449  0.0300 -0.3893 -0.1659
  279MOL0     C37553   9.479   5.629  -0.499  1.2760 -0.4762 -0.2899
  279MOL0     O37554   9.552   5.510  -0.484  0.8184  0.0982 -0.5194
  279MOL0     C37555   9.668   5.502  -0.554 -0.2569  0.5685 -0.0401
  279MOL0     C37556   9.790   5.536  -0.490  1.8374  0.4257  0.1462
  279MOL0     C37557   9.910   5.539  -0.550 -0.2313 -1.1075  0.7987
  279MOL0     C37558   9.924   5.491  -0.687 -0.6577  0.0680 -0.1177
  279MOL0     C37559  10.055   5.480  -0.754  0.9475 -0.0421 -0.5222
  279MOL0     O37560  10.074   5.386  -0.850 -0.4883  0.0929 -0.0451
  279MOL0     C37561  10.175   5.402  -0.939  0.5638 -0.3563  0.0643
  279MOL0     C37562  10.140   5.389  -1.073  0.3777 -0.7455  0.0850
  279MOL0     C37563  10.241   5.379  -1.165  0.5593 -0.4692  0.5426
  279MOL0     C37564  10.375   5.404  -1.132 -1.2628 -0.7401 -0.1961
  279MOL0     O37565  10.460   5.397  -1.245  0.4209 -0.5975  0.0255
  279MOL0     C37566  10.599   5.351  -1.237  1.0361 -0.0819  0.2271
  279MOL0     C37567  10.625   5.204  -1.257  0.9188  0.4996  0.0300
  279MOL0     C37568  10.660   5.157  -1.393  0.0688 -1.0004 -0.6814
  279MOL0     C37569  10.679   5.007  -1.406  0.1553 -0.5676 -0.2455
  279MOL0     C37570  10.712   4.961  -1.553 -0.8007 -0.3534  0.0628
  279MOL0     C37571  10.613   4.994  -1.664 -0.1341 -0.7540  0.5001
  279MOL0     C37572  10.642   4.931  -1.799  0.2651 -0.3597 -0.4168
  279MOL0     C37573  10.780   4.988  -1.855 -0.5016 -1.0369 -0.1817
  279MOL0    Cl37574  10.833   4.931  -2.021  0.0501  0.2266  0.1760
  279MOL0     C37575  10.406   5.426  -0.994  0.3627  0.3281  0.3427
  279MOL0     C37576  10.305   5.421  -0.900  0.1409  0.5365  0.4488
  279MOL0     O37577  10.129   5.575  -0.732 -0.2590  0.7418 -0.7779
  279MOL0     C37578   9.807   5.453  -0.759  0.0902  0.0936  0.4618
  279MOL0     C37579   9.682   5.458  -0.687 -0.2835  0.7949 -0.2011
  279MOL0     N37580   9.464   6.165  -0.269  0.6913 -0.5957  0.6007
  279MOL0     N37581   9.369   6.239  -0.213 -1.5129 -0.2766  0.1914
  279MOL0     C37582   8.316   5.580  -0.078 -1.0127  0.2659 -0.8152
  279MOL0     C37583   8.241   5.459  -0.098  0.3349 -0.7867 -0.5549
  279MOL0     C37584   8.044   5.046   0.003 -0.1323 -0.4746 -1.0247
  279MOL0     C37585   7.953   5.072  -0.093  0.1276 -0.7784 -0.3250
  279MOL0     C37586   7.847   4.983  -0.118 -0.1069  0.4612  0.9091
  279MOL0     C37587   7.839   4.863  -0.053  0.1748 -0.2214 -0.0103
  279MOL0     O37588   7.739   4.772  -0.085 -0.3138  0.2740  0.1509
  279MOL0     C37589   7.660   4.715   0.021 -0.2065  0.6159 -0.2785
  279MOL0     C37590   7.523   4.677  -0.026  0.2744  1.1534  1.2375
  279MOL0     C37591   7.472   4.769  -0.141 -0.5281 -0.2872 -0.7039
  279MOL0     C37592   7.459   4.915  -0.092  0.0887  0.7253 -0.6372
  279MOL0     C37593   7.367   4.923   0.019 -0.5512 -0.2983 -0.3901
  279MOL0     C37594   7.272   4.945   0.092 -0.6172 -0.0093 -1.1740
  279MOL0     C37595   7.940   4.827   0.033  0.2183 -0.6679  0.6148
  279MOL0     C37596   8.044   4.918   0.062 -0.8302  0.6305 -0.3169
  279MOL0     C37597   8.140   4.862   0.163  0.0796  0.3116  0.5581
  279MOL0     H37598   8.243   5.356   0.226 -1.9999 -0.6989 -1.7216
  279MOL0     H37599   8.385   5.561   0.253  1.4823 -0.6549 -0.9898
  279MOL0     H37600   8.526   5.751  -0.132 -0.3090 -1.0075  0.7855
  279MOL0     H37601   8.413   5.865  -0.062 -1.3258 -1.4133 -0.6375
  279MOL0     H37602   8.608   5.921   0.104 -6.0829  3.3300 -1.2490
  279MOL0     H37603   8.589   5.988  -0.054  0.3213  1.0085  1.4387
  279MOL0     H37604   8.736   5.800  -0.150  3.6183  2.4823 -1.3667
  279MOL0     H37605   8.776   5.760   0.017 -0.3217 -0.7069 -1.5298
  279MOL0     H37606   8.855   6.002   0.039  2.6027 -1.5477  0.8372
  279MOL0     H37607   8.952   5.894  -0.037  1.8441  0.7673 -0.3438
  279MOL0     H37608   8.854   5.955  -0.268  0.3248 -2.0224  1.0192
  279MOL0     H37609   8.776   6.105  -0.184  1.4396  1.0907  3.4987
  279MOL0     H37610   9.003   6.131  -0.086  0.2304  3.7087 -0.3514
  279MOL0     H37611   9.065   6.024  -0.219  3.9002  3.5001  1.0683
  279MOL0     H37612   8.921   6.284  -0.239 -0.1773 -1.5020  0.7717
  279MOL0     H37613   8.991   6.193  -0.383  1.1264  1.0587 -0.6898
  279MOL0     H37614   9.128   6.375  -0.345  0.5917  3.3624  3.0785
  279MOL0     H37615   9.143   6.352  -0.176  1.0340 -1.0552  0.4291
  279MOL0     H37616   9.205   6.111  -0.465 -1.0025  0.9073  0.3324
  279MOL0     H37617   9.445   6.028  -0.565  0.1442  3.1554  0.8597
  279MOL0     H37618   9.581   6.021  -0.451 -0.3032  2.2212 -1.2484
  279MOL0     H37619   9.405   5.856  -0.321  0.1703 -0.2237  0.2394
  279MOL0     H37620   9.338   5.834  -0.477  0.1701  0.5844 -1.1195
  279MOL0     H37621   9.597   5.748  -0.353 -0.2655  0.5883  0.1249
  279MOL0     H37622   9.609   5.801  -0.529 -0.1478 -1.1612 -0.7153
  279MOL0     H37623   9.448   5.651  -0.601  2.2833 -1.2459 -0.7825
  279MOL0     H37624   9.390   5.614  -0.438  2.1061 -3.3138  0.3866
  279MOL0     H37625   9.785   5.568  -0.386 -0.8255 -1.9404  0.8567
  279MOL0     H37626  10.001   5.570  -0.501 -0.1835 -0.0924  0.0948
  279MOL0     H37627  10.032   5.379  -1.085  0.0094 -0.1228  2.3983
  279MOL0     H37628  10.218   5.361  -1.269  3.3357  1.4067 -0.5256
  279MOL0     H37629  10.654   5.392  -1.322 -1.5466  1.7869 -0.6933
  279MOL0     H37630  10.646   5.384  -1.144 -2.2333 -0.9598  2.3907
  279MOL0     H37631  10.714   5.173  -1.202  1.1814 -0.9231 -1.1281
  279MOL0     H37632  10.545   5.150  -1.205  0.2988  1.3913  0.0169
  279MOL0     H37633  10.579   5.186  -1.461 -1.6103  1.9667  2.3285
  279MOL0     H37634  10.756   5.202  -1.421  0.3157 -2.2960 -2.1114
  279MOL0     H37635  10.584   4.962  -1.376 -2.6775  2.4520 -3.7258
  279MOL0     H37636  10.758   4.967  -1.341 -0.2374 -0.7496  0.1243
  279MOL0     H37637  10.717   4.852  -1.546 -0.3496 -0.4457 -1.3000
  279MOL0     H37638  10.813   5.001  -1.567 -0.8753 -0.4765 -0.8896
  279MOL0     H37639  10.513   4.973  -1.625 -0.7326  1.5950  0.3589
  279MOL0     H37640  10.590   5.099  -1.680 -1.0248 -0.7308  1.7310
  279MOL0     H37641  10.560   4.952  -1.869  1.8385 -1.1528 -2.6133
  279MOL0     H37642  10.646   4.824  -1.778  1.1463 -0.3556 -0.5088
  279MOL0     H37643  10.769   5.096  -1.866  0.6111 -0.7859  1.0207
  279MOL0     H37644  10.865   4.967  -1.789  3.9916  2.5824 -4.1881
  279MOL0     H37645  10.508   5.448  -0.963  1.0811 -2.6954  0.3825
  279MOL0     H37646  10.326   5.424  -0.794 -1.3527 -3.0763  0.9799
  279MOL0     H37647   9.810   5.419  -0.862  2.4188 -0.5794  0.6952
  279MOL0     H37648   9.587   5.443  -0.738 -0.7991 -0.9617  1.1918
  279MOL0     H37649   8.329   5.646  -0.163 -0.1008  2.6012  1.0168
  279MOL0     H37650   8.195   5.443  -0.195  1.4010 -0.1469 -1.1940
  279MOL0     H37651   7.962   5.172  -0.134  3.1426 -0.6664  0.3387
  279MOL0     H37652   7.773   5.003  -0.195  0.3302  0.6046  0.5228
  279MOL0     H37653   7.648   4.789   0.100  1.4251  2.0061 -1.2619
  279MOL0     H37654   7.723   4.629   0.046 -1.5043 -0.0617  0.7860
  279MOL0     H37655   7.450   4.675   0.055 -1.1086 -0.2025  0.0166
  279MOL0     H37656   7.525   4.576  -0.069  0.1467  2.3171 -1.7882
  279MOL0     H37657   7.382   4.737  -0.195 -0.1198  0.6248 -1.9818
  279MOL0     H37658   7.542   4.751  -0.224  0.4807  0.0661  0.0559
  279MOL0     H37659   7.556   4.958  -0.066  0.2566 -0.0312  0.0299
  279MOL0     H37660   7.401   4.971  -0.166  0.8701  0.4307 -1.4998
  279MOL0     H37661   7.199   4.985   0.160  0.7896 -1.1319  1.1335
  279MOL0     H37662   7.935   4.727   0.077  0.3878 -1.4612 -1.0748
  279MOL0     H37663   8.115   4.760   0.193 -0.9512 -0.8975 -3.6587
  279MOL0     H37664   8.236   4.862   0.109  0.5864  3.1329  1.2652
  279MOL0     H37665   8.146   4.934   0.245  1.4606 -0.8345  1.5136
  280MOL0     O37666   8.477   7.297   5.785 -0.1143 -0.1399  0.6475
  280MOL0     C37667   8.460   7.260   5.667  0.3776 -1.0216  0.2177
  280MOL0     O37668   8.547   7.196   5.588 -0.1883 -0.5112 -0.1583
  280MOL0     C37669   8.657   7.161   5.649  0.3610 -0.5148  0.4105
  280MOL0     C37670   8.677   7.052   5.739  0.7174 -0.3333  1.3533
  280MOL0     C37671   8.804   7.042   5.797 -0.9320  0.3528  0.1008
  280MOL0     C37672   8.919   7.117   5.770  0.2633  0.4683  0.4730
  280MOL0     O37673   9.044   7.095   5.816 -0.2297 -0.4930  0.6355
  280MOL0     C37674   9.065   7.036   5.948 -0.7461  0.9935 -0.4216
  280MOL0     C37675   9.117   6.892   5.952 -0.2608 -0.3816  0.0381
  280MOL0     C37676   9.151   6.820   6.082 -0.1564 -0.2371  0.9665
  280MOL0     C37677   9.219   6.685   6.051  0.8580 -0.4083  0.3276
  280MOL0     C37678   9.375   6.690   6.040  0.1763  0.5609 -0.0107
  280MOL0     C37679   9.446   6.561   6.086 -1.1692 -0.4578  1.0142
  280MOL0     C37680   9.408   6.429   6.003  0.1107 -0.5081  0.4791
  280MOL0     C37681   9.462   6.297   6.068  0.2857 -0.1844 -0.4071
  280MOL0     N37682   9.609   6.268   6.040 -0.2759  0.1919  0.6232
  280MOL0     C37683   9.656   6.169   5.954 -0.0705  0.3823 -0.8426
  280MOL0     C37684   9.785   6.180   5.951  0.0040  0.1834 -0.3304
  280MOL0     C37685   9.881   6.098   5.869  0.9175  0.5396 -0.0513
  280MOL0     C37686  10.014   6.146   5.858 -0.9681 -0.3138  0.6534
  280MOL0     C37687  10.134   6.052   5.875  0.6140  0.1915 -0.2959
  280MOL0     C37688  10.150   5.963   5.749 -0.5895  0.8621 -0.7868
  280MOL0     O37689  10.264   5.883   5.772  0.4852 -0.5404  0.0063
  280MOL0     C37690  10.289   5.773   5.702 -0.0438  0.2018 -0.5295
  280MOL0     C37691  10.423   5.741   5.695  0.0255 -0.0529  0.1634
  280MOL0     C37692  10.471   5.624   5.622  0.8561 -0.2792  0.2778
  280MOL0     C37693  10.374   5.548   5.546 -0.7269 -0.7522 -0.2833
  280MOL0     C37694  10.413   5.426   5.468 -0.9296  0.9482  0.2048
  280MOL0     O37695  10.552   5.421   5.431  0.5841  0.1605 -0.1956
  280MOL0     C37696  10.588   5.324   5.342 -0.0788  0.7996  0.7349
  280MOL0     C37697  10.576   5.337   5.204 -1.0473  0.0043  0.8307
  280MOL0     C37698  10.608   5.220   5.119  0.0770  0.2376  0.4057
  280MOL0     C37699  10.674   5.118   5.172 -0.1226  0.6662 -0.8118
  280MOL0     O37700  10.720   5.022   5.090 -0.6102 -0.5050 -0.4055
  280MOL0     C37701  10.790   4.909   5.146  0.3634 -0.2079  0.6464
  280MOL0     C37702  10.817   4.843   5.017 -0.7053  0.2802  0.9926
  280MOL0     C37703  10.912   4.724   5.039  0.9244  0.2531 -0.2863
  280MOL0     C37704  10.947   4.653   4.905  0.3071 -1.3264 -1.0364
  280MOL0     C37705  11.026   4.524   4.932 -0.7779  0.2712  0.0993
  280MOL0     C37706  11.051   4.449   4.801  0.2564 -0.7355 -0.0138
  280MOL0     C37707  11.139   4.332   4.804  0.0953  0.3202  1.1534
  280MOL0     C37708  11.138   4.230   4.682 -0.0683 -0.1656 -0.1071
  280MOL0    Cl37709  10.976   4.165   4.654  0.4258  0.2225 -0.3039
  280MOL0     C37710  10.689   5.106   5.310  0.3703  1.4944  0.1761
  280MOL0     C37711  10.642   5.208   5.397 -0.1822 -0.1054 -0.0349
  280MOL0     O37712  10.332   5.346   5.436  0.4590 -0.7884  0.4192
  280MOL0     C37713  10.240   5.578   5.562 -1.0883 -1.3160  0.5419
  280MOL0     C37714  10.195   5.687   5.643 -0.7312 -0.6561 -0.3695
  280MOL0     N37715   9.810   6.288   6.039 -0.1834 -0.2925  0.3069
  280MOL0     N37716   9.716   6.336   6.096  0.5291 -0.2493 -0.2559
  280MOL0     C37717   8.898   7.213   5.673  0.2795  0.0007  0.4751
  280MOL0     C37718   8.765   7.241   5.620 -0.3819  1.0363  0.5133
  280MOL0     C37719   8.336   7.295   5.600  0.1901  1.1904  1.1315
  280MOL0     C37720   8.346   7.369   5.480  0.8062 -0.3370 -0.5883
  280MOL0     C37721   8.233   7.411   5.413 -0.1675  0.3916  0.2743
  280MOL0     C37722   8.112   7.366   5.458  0.0688  0.0028  0.1232
  280MOL0     O37723   8.026   7.384   5.353  0.3311 -0.9557 -0.2031
  280MOL0     C37724   7.908   7.310   5.335 -0.8021 -0.4759  0.0211
  280MOL0     C37725   7.942   7.170   5.301  0.1290  0.4054  0.7159
  280MOL0     C37726   7.978   7.146   5.151 -0.6056 -0.2076 -0.4275
  280MOL0     C37727   8.090   7.051   5.135  0.8662 -0.5823  1.0981
  280MOL0     C37728   8.061   6.918   5.191  1.1920 -0.2920  0.2431
  280MOL0     C37729   8.045   6.808   5.237 -0.5411 -0.0351  0.6506
  280MOL0     C37730   8.102   7.294   5.585  0.2189  0.2110 -0.2018
  280MOL0     C37731   8.209   7.260   5.660  0.4202  0.8110  0.0937
  280MOL0     C37732   8.195   7.197   5.799 -0.2696  1.1026  0.9382
  280MOL0     H37733   8.602   6.985   5.779 -1.9682  2.6258  1.6606
  280MOL0     H37734   8.813   6.965   5.874  1.1592  0.2976 -0.1364
  280MOL0     H37735   9.143   7.096   5.995  2.3592 -1.2821 -2.2871
  280MOL0     H37736   8.972   7.030   6.005 -2.0197 -1.8591 -2.5456
  280MOL0     H37737   9.210   6.897   5.895  0.7103 -0.0828  1.6070
  280MOL0     H37738   9.039   6.833   5.903 -0.6576 -0.6623  0.9904
  280MOL0     H37739   9.072   6.784   6.148 -0.5109 -1.0335  0.1377
  280MOL0     H37740   9.218   6.887   6.137 -0.7028 -0.5468  2.0210
  280MOL0     H37741   9.192   6.618   6.133  0.2419  0.3973  0.8046
  280MOL0     H37742   9.180   6.650   5.955 -1.4637  3.5913 -0.4130
  280MOL0     H37743   9.407   6.713   5.938 -1.8327 -1.2892 -1.1261
  280MOL0     H37744   9.406   6.766   6.112  2.1415  0.2259 -0.4391
  280MOL0     H37745   9.552   6.582   6.066 -1.7715  3.4135  1.1924
  280MOL0     H37746   9.439   6.542   6.194 -3.8696 -3.7278  0.4414
  280MOL0     H37747   9.442   6.432   5.899  3.5604  1.0445  1.5321
  280MOL0     H37748   9.298   6.431   6.005  0.0655 -0.9857 -0.5693
  280MOL0     H37749   9.446   6.306   6.176 -1.9346  0.1971 -0.7160
  280MOL0     H37750   9.394   6.217   6.037 -1.4503  0.9174  0.4009
  280MOL0     H37751   9.604   6.093   5.896  2.7635 -4.1241  1.9845
  280MOL0     H37752   9.878   5.991   5.894  0.1153  0.6944  0.5471
  280MOL0     H37753   9.839   6.115   5.769 -1.4006  0.4908  0.8453
  280MOL0     H37754  10.017   6.191   5.759 -0.1974 -2.5065 -0.3692
  280MOL0     H37755  10.043   6.219   5.935 -1.1587 -1.5700  1.9497
  280MOL0     H37756  10.129   5.987   5.963 -0.5176  0.1171 -0.4022
  280MOL0     H37757  10.220   6.118   5.887  1.9816 -1.0525 -2.5012
  280MOL0     H37758  10.152   6.030   5.662 -1.0776  4.3181  1.6860
  280MOL0     H37759  10.061   5.900   5.740 -0.7969  1.3019 -2.0997
  280MOL0     H37760  10.498   5.792   5.755 -0.1407  1.1974 -0.6663
  280MOL0     H37761  10.575   5.593   5.620  0.5476 -1.7120 -4.1597
  280MOL0     H37762  10.531   5.427   5.161  1.6256  1.4489  0.8614
  280MOL0     H37763  10.578   5.221   5.015  0.6301  2.9632  0.1924
  280MOL0     H37764  10.885   4.927   5.196  1.9363 -5.8392  0.3034
  280MOL0     H37765  10.724   4.854   5.213 -0.5676  0.6542  0.4782
  280MOL0     H37766  10.724   4.813   4.967 -0.8670  2.8376 -0.4241
  280MOL0     H37767  10.879   4.912   4.960 -0.8880 -0.8746 -0.6856
  280MOL0     H37768  10.989   4.764   5.105 -3.4576  2.5686  4.1745
  280MOL0     H37769  10.850   4.657   5.100  0.5770  1.4939  0.7705
  280MOL0     H37770  11.009   4.722   4.848  0.5682  1.0495  1.8572
  280MOL0     H37771  10.855   4.626   4.853  0.6478 -0.4708 -2.1120
  280MOL0     H37772  10.961   4.468   5.000  0.0072 -2.8611 -1.5535
  280MOL0     H37773  11.126   4.541   4.974  0.3824 -2.0116 -1.5363
  280MOL0     H37774  10.954   4.427   4.756 -1.5283  3.6066  1.1725
  280MOL0     H37775  11.094   4.524   4.733  2.2611 -1.5077  0.3237
  280MOL0     H37776  11.111   4.269   4.888  0.4308 -1.2383  0.1303
  280MOL0     H37777  11.242   4.367   4.810  0.8407 -1.5695  0.2254
  280MOL0     H37778  11.179   4.276   4.591 -1.7877  1.2510 -0.2298
  280MOL0     H37779  11.213   4.155   4.707 -0.0966 -0.7722 -1.7003
  280MOL0     H37780  10.734   5.018   5.356  1.4213  0.5141 -2.5647
  280MOL0     H37781  10.662   5.202   5.503  2.4010  3.8657 -0.1020
  280MOL0     H37782  10.167   5.518   5.510 -1.2341 -2.6793  2.2103
  280MOL0     H37783  10.099   5.738   5.637  0.1632  1.0654 -0.3521
  280MOL0     H37784   8.972   7.280   5.631 -0.3635  1.2104  1.2057
  280MOL0     H37785   8.752   7.327   5.555 -1.8601  0.5948  0.1851
  280MOL0     H37786   8.441   7.414   5.452  0.1445 -0.3432 -3.1384
  280MOL0     H37787   8.244   7.449   5.312 -0.6091 -3.6483 -1.5074
  280MOL0     H37788   7.839   7.349   5.260  1.2828  0.0603 -1.7159
  280MOL0     H37789   7.859   7.310   5.433 -2.2737 -0.0744 -0.6924
  280MOL0     H37790   7.853   7.109   5.317 -0.0607  0.8396  1.3427
  280MOL0     H37791   8.021   7.132   5.366 -0.5564  1.5254  2.2696
  280MOL0     H37792   8.019   7.238   5.108 -2.1031  0.9032  0.4059
  280MOL0     H37793   7.892   7.116   5.092 -1.6364  2.4748 -0.4460
  280MOL0     H37794   8.108   7.046   5.028  0.9799  0.2556  1.0668
  280MOL0     H37795   8.188   7.094   5.159 -0.4137  2.9309  0.6723
  280MOL0     H37796   8.030   6.716   5.290 -1.3613 -0.9067 -1.0071
  280MOL0     H37797   8.004   7.254   5.609 -0.1203 -0.5584 -2.6060
  280MOL0     H37798   8.271   7.120   5.818 -1.5046  0.1211  2.0700
  280MOL0     H37799   8.183   7.268   5.881 -1.0450 -0.7947  2.5504
  280MOL0     H37800   8.106   7.134   5.798  1.3314 -1.3328  0.5486
  281MOL0     O37801   8.262   4.443   0.179  0.6504  0.5963 -0.6401
  281MOL0     C37802   8.319   4.513   0.256 -0.4898  0.0580  0.0950
  281MOL0     O37803   8.451   4.539   0.261 -0.3427  1.2717  0.8093
  281MOL0     C37804   8.525   4.472   0.163 -0.2190  0.7878  0.1444
  281MOL0     C37805   8.564   4.545   0.043  0.0666  0.4043 -0.7488
  281MOL0     C37806   8.615   4.467  -0.068 -0.6485  0.1033 -0.4126
  281MOL0     C37807   8.633   4.329  -0.052  0.1268  0.0359 -0.3849
  281MOL0     O37808   8.701   4.267  -0.155  0.5090 -0.3262 -0.6280
  281MOL0     C37809   8.609   4.180  -0.218  1.1491 -0.3439 -0.1755
  281MOL0     C37810   8.630   4.176  -0.370  0.4999 -0.7832 -0.3313
  281MOL0     C37811   8.661   4.320  -0.429  0.9771 -0.3055  0.6355
  281MOL0     C37812   8.539   4.414  -0.439 -1.0387 -0.1932 -0.0014
  281MOL0     C37813   8.595   4.535  -0.497 -0.2363  0.0153  0.3015
  281MOL0     C37814   8.500   4.640  -0.550 -0.8534 -0.3411  0.0877
  281MOL0     C37815   8.386   4.664  -0.460 -0.3536 -0.3456 -1.4775
  281MOL0     C37816   8.430   4.755  -0.341 -0.7684  0.4217  0.0288
  281MOL0     N37817   8.366   4.881  -0.336  0.0277 -0.5983  0.6270
  281MOL0     C37818   8.327   4.961  -0.446 -0.7258 -0.1143  0.0464
  281MOL0     C37819   8.274   5.075  -0.391 -0.0005  0.1542  0.1426
  281MOL0     C37820   8.261   5.198  -0.476 -0.2700  0.0631  0.4656
  281MOL0     C37821   8.404   5.268  -0.475  0.1371  0.0012  0.0250
  281MOL0     C37822   8.431   5.374  -0.367  0.0376 -0.5284  0.2031
  281MOL0     C37823   8.561   5.452  -0.370 -0.5066  0.8498 -0.0357
  281MOL0     O37824   8.565   5.512  -0.500 -0.5010  0.1370  0.3119
  281MOL0     C37825   8.687   5.571  -0.545 -0.6545  0.8690 -0.5304
  281MOL0     C37826   8.712   5.580  -0.680  0.7032 -0.2386 -0.3917
  281MOL0     C37827   8.826   5.648  -0.724 -0.2125  0.1924  0.5944
  281MOL0     C37828   8.932   5.683  -0.638 -0.0957  0.3463 -0.0624
  281MOL0     C37829   9.052   5.754  -0.695 -0.4167  0.2648 -0.4316
  281MOL0     O37830   9.067   5.752  -0.827 -0.6595  0.4681  0.8536
  281MOL0     C37831   9.190   5.793  -0.885 -0.2441 -0.4831 -0.3565
  281MOL0     C37832   9.188   5.909  -0.966 -0.1334  0.7359 -0.5278
  281MOL0     C37833   9.297   5.955  -1.034  0.1590  0.9399  0.4597
  281MOL0     C37834   9.422   5.879  -1.022  0.1781  0.7924 -0.3404
  281MOL0     O37835   9.525   5.919  -1.103  0.8608  0.0193 -0.7848
  281MOL0     C37836   9.643   5.844  -1.129 -0.1978  0.3454  0.8048
  281MOL0     C37837   9.749   5.884  -1.023  0.1484 -0.2579 -0.2478
  281MOL0     C37838   9.887   5.839  -1.060  0.2506  0.0754  0.1169
  281MOL0     C37839   9.981   5.911  -0.965 -0.1411 -0.5863 -0.9016
  281MOL0     C37840  10.137   5.884  -0.993  0.0367 -0.2026 -0.7602
  281MOL0     C37841  10.227   5.899  -0.874 -0.0726  0.4173  0.2412
  281MOL0     C37842  10.376   5.895  -0.916  0.3361  0.2372  0.3087
  281MOL0     C37843  10.407   5.782  -1.007 -0.8404 -0.4713 -0.1617
  281MOL0    Cl37844  10.582   5.789  -1.060 -0.0238  0.2202 -0.1469
  281MOL0     C37845   9.427   5.764  -0.941  0.3171 -0.0712 -0.5506
  281MOL0     C37846   9.314   5.734  -0.863 -0.4042  0.6553  0.3891
  281MOL0     O37847   9.110   5.827  -0.617 -0.7001 -0.5265 -0.0240
  281MOL0     C37848   8.918   5.655  -0.499  0.5117  0.4329 -0.6490
  281MOL0     C37849   8.794   5.594  -0.454  0.0801 -0.5087 -0.3059
  281MOL0     N37850   8.266   5.056  -0.248  0.2415 -0.5256  1.0897
  281MOL0     N37851   8.333   4.952  -0.221  0.5156  0.8106 -0.3939
  281MOL0     C37852   8.597   4.264   0.072 -0.0186 -0.1181  0.9451
  281MOL0     C37853   8.540   4.335   0.178  0.2594 -0.1161 -0.0608
  281MOL0     C37854   8.234   4.588   0.367 -0.4865 -0.1095  0.1611
  281MOL0     C37855   8.304   4.675   0.452  0.5642 -0.3541  0.6590
  281MOL0     C37856   8.243   4.760   0.539 -0.0019  0.2583  0.2276
  281MOL0     C37857   8.112   4.743   0.562  0.3569  0.1495 -0.4946
  281MOL0     O37858   8.046   4.795   0.663 -0.2938 -0.6150 -0.0975
  281MOL0     C37859   8.090   4.756   0.798 -0.5512 -0.2023  0.0176
  281MOL0     C37860   8.011   4.824   0.901 -0.1892  0.1893 -0.7832
  281MOL0     C37861   8.111   4.849   1.019  0.5801 -0.0315  0.0635
  281MOL0     C37862   8.030   4.901   1.141  0.0437 -0.0329  0.3772
  281MOL0     C37863   8.111   4.946   1.256  0.1836 -0.5119  0.1265
  281MOL0     C37864   8.189   4.977   1.340 -0.5495  0.4917 -0.9407
  281MOL0     C37865   8.039   4.654   0.487 -0.3924  0.0943 -0.6534
  281MOL0     C37866   8.097   4.570   0.392 -0.5830  0.0353 -0.1287
  281MOL0     C37867   8.015   4.476   0.313  0.5080  0.1605  0.7103
  281MOL0     H37868   8.547   4.652   0.056  1.6758  0.3856  2.7221
  281MOL0     H37869   8.629   4.522  -0.161 -1.0584  1.3913  0.2545
  281MOL0     H37870   8.631   4.077  -0.189 -0.4368 -0.8637 -0.7594
  281MOL0     H37871   8.506   4.201  -0.187  1.7001 -0.7662  2.0956
  281MOL0     H37872   8.543   4.134  -0.421 -1.2809 -0.4237  2.2768
  281MOL0     H37873   8.718   4.114  -0.392  0.9493  0.3911 -2.0049
  281MOL0     H37874   8.706   4.302  -0.527  0.2990  2.0074 -0.1730
  281MOL0     H37875   8.737   4.369  -0.367  0.1866  3.0261 -0.8367
  281MOL0     H37876   8.488   4.366  -0.522 -2.2966  0.2004  0.5260
  281MOL0     H37877   8.490   4.426  -0.342  1.4927 -0.6802  1.4359
  281MOL0     H37878   8.648   4.588  -0.418 -0.1874  0.6032 -0.1225
  281MOL0     H37879   8.668   4.506  -0.573 -1.3009  0.1569 -0.8099
  281MOL0     H37880   8.561   4.730  -0.555 -1.6207  0.2537  0.9415
  281MOL0     H37881   8.459   4.600  -0.643  1.7630 -1.7561 -0.5515
  281MOL0     H37882   8.336   4.571  -0.432  2.0084 -1.3494 -0.3176
  281MOL0     H37883   8.319   4.721  -0.525  0.5880  1.4983 -0.9182
  281MOL0     H37884   8.396   4.698  -0.254 -2.0329 -0.0071 -0.7148
  281MOL0     H37885   8.538   4.773  -0.341 -0.4552 -1.2045  1.2405
  281MOL0     H37886   8.363   4.954  -0.548 -1.5451 -0.4372 -0.2255
  281MOL0     H37887   8.221   5.154  -0.568  1.7422 -3.1802  0.9759
  281MOL0     H37888   8.194   5.281  -0.452  1.2529  2.1112 -1.9332
  281MOL0     H37889   8.482   5.193  -0.464 -0.3165 -0.5077 -0.1616
  281MOL0     H37890   8.414   5.305  -0.577 -2.2371 -0.7092 -0.5340
  281MOL0     H37891   8.429   5.323  -0.270  0.2478 -2.5559 -0.8070
  281MOL0     H37892   8.352   5.449  -0.378  0.9344  0.5378  0.8199
  281MOL0     H37893   8.640   5.381  -0.344 -0.1438  0.8246 -1.1518
  281MOL0     H37894   8.561   5.530  -0.293  1.2677 -1.5643  2.6084
  281MOL0     H37895   8.636   5.546  -0.749 -0.0276  1.7448 -0.6287
  281MOL0     H37896   8.853   5.655  -0.829  0.3998 -1.6758  0.5823
  281MOL0     H37897   9.106   5.964  -1.011 -1.4330  0.5109  1.4829
  281MOL0     H37898   9.291   6.039  -1.102 -4.9845  1.4191  1.1340
  281MOL0     H37899   9.630   5.736  -1.142  0.1934  0.3887  0.0199
  281MOL0     H37900   9.686   5.865  -1.227 -1.0621 -0.3500  0.2683
  281MOL0     H37901   9.738   5.992  -1.011 -0.1534 -0.5297  2.5944
  281MOL0     H37902   9.728   5.838  -0.926 -0.8668 -0.1218 -0.4006
  281MOL0     H37903   9.896   5.730  -1.067  0.5132  0.2098 -2.2802
  281MOL0     H37904   9.905   5.884  -1.158  5.6777  1.5805  1.4718
  281MOL0     H37905   9.960   5.877  -0.863  0.1882  2.9341  0.4980
  281MOL0     H37906   9.948   6.015  -0.979 -1.1225 -0.7963 -0.2587
  281MOL0     H37907  10.181   5.940  -1.076 -0.5810 -1.5640 -2.0588
  281MOL0     H37908  10.138   5.778  -1.022 -1.7566  0.3733 -3.2473
  281MOL0     H37909  10.228   5.994  -0.819  1.9376  0.9825 -0.6777
  281MOL0     H37910  10.209   5.825  -0.795  0.3462  1.9132  1.8205
  281MOL0     H37911  10.443   5.907  -0.831  0.3853 -0.9632  0.4509
  281MOL0     H37912  10.381   5.989  -0.973 -3.0536  0.5492  0.3022
  281MOL0     H37913  10.390   5.688  -0.954 -0.9212 -1.0902 -1.2585
  281MOL0     H37914  10.348   5.777  -1.098 -0.2196  1.1582 -0.6827
  281MOL0     H37915   9.519   5.709  -0.927  0.6174  0.7378  0.8765
  281MOL0     H37916   9.307   5.648  -0.797  2.7690  0.0638  0.1072
  281MOL0     H37917   9.002   5.672  -0.431  0.2639 -2.2266  0.4690
  281MOL0     H37918   8.786   5.586  -0.346  1.2347 -2.5906 -0.3099
  281MOL0     H37919   8.593   4.156   0.070 -1.3003 -0.0947 -1.9842
  281MOL0     H37920   8.494   4.285   0.262  1.7355 -0.1046  0.7968
  281MOL0     H37921   8.409   4.691   0.431 -0.0676 -0.1775 -3.1383
  281MOL0     H37922   8.297   4.838   0.592  3.3464  0.4919 -3.1409
  281MOL0     H37923   8.196   4.783   0.801 -0.9400  1.9867 -2.2850
  281MOL0     H37924   8.078   4.649   0.820  1.4254 -0.4064  0.2462
  281MOL0     H37925   7.923   4.767   0.933 -0.1574 -0.8496 -2.4626
  281MOL0     H37926   7.977   4.915   0.851  3.6283  1.2662 -1.7213
  281MOL0     H37927   8.187   4.916   0.977  0.5644 -1.1997 -1.9683
  281MOL0     H37928   8.159   4.758   1.057  2.0330  1.3627  1.7534
  281MOL0     H37929   7.975   4.986   1.098  1.2519  0.6825  0.1993
  281MOL0     H37930   7.968   4.817   1.173 -2.7356  2.5669  2.3850
  281MOL0     H37931   8.261   5.006   1.414 -1.6916 -0.2718  0.5183
  281MOL0     H37932   7.933   4.639   0.502 -0.0562 -0.0348  2.1141
  281MOL0     H37933   8.011   4.502   0.207  0.9847 -0.4274  0.5455
  281MOL0     H37934   8.061   4.377   0.326 -0.3146  0.0743  4.0171
  281MOL0     H37935   7.911   4.469   0.347  1.3680 -2.0826  3.2298
  282MOL0     O37936   4.520   9.135  10.582 -0.3868 -0.2070 -1.0567
  282MOL0     C37937   4.601   9.047  10.602  0.3396  0.1401 -0.2027
  282MOL0     O37938   4.594   8.947  10.693  0.5389  0.2101 -0.6756
  282MOL0     C37939   4.504   8.964  10.794  0.3426 -0.1985  0.6919
  282MOL0     C37940   4.417   8.858  10.820  0.6628  0.4535  0.2615
  282MOL0     C37941   4.333   8.870  10.935  0.4807  1.0835  0.3139
  282MOL0     C37942   4.327   8.995  11.007 -0.3188 -1.2115  0.1056
  282MOL0     O37943   4.228   9.005  11.103 -0.6690  0.7491  0.5084
  282MOL0     C37944   4.162   9.137  11.128 -0.3173  0.0796  1.1135
  282MOL0     C37945   4.220   9.206  11.254 -0.2062 -0.2700 -0.7151
  282MOL0     C37946   4.178   9.119  11.381  0.9729 -0.7572 -0.6583
  282MOL0     C37947   4.227   9.182  11.509  0.2169 -0.0426  0.4746
  282MOL0     C37948   4.171   9.100  11.616  0.0873 -0.9102 -0.7321
  282MOL0     C37949   4.223   9.163  11.752  0.0661  0.0606 -0.0059
  282MOL0     C37950   4.136   9.112  11.869  0.5705  0.8924  0.4966
  282MOL0     C37951   4.139   8.959  11.880  0.5994  0.3477 -1.0389
  282MOL0     N37952   4.065   8.901  11.994  0.5856 -0.0444  0.0698
  282MOL0     C37953   4.104   8.913  12.129 -0.4233  0.2072 -0.1705
  282MOL0     C37954   3.999   8.871  12.196  0.3515  0.5502 -0.5021
  282MOL0     C37955   3.985   8.848  12.342  0.6515 -0.2853  0.2212
  282MOL0     C37956   4.016   8.972  12.423 -0.7633  0.5529 -0.6773
  282MOL0     C37957   3.903   9.071  12.428 -0.1374 -0.2754 -0.5459
  282MOL0     C37958   3.929   9.190  12.518 -1.0352 -0.5494  0.0628
  282MOL0     O37959   3.963   9.153  12.652  0.0937  0.0075  0.0483
  282MOL0     C37960   3.867   9.142  12.745 -0.2654  0.7281  0.0926
  282MOL0     C37961   3.906   9.127  12.877 -0.0487  0.0299 -0.2903
  282MOL0     C37962   3.810   9.126  12.980 -0.4078 -0.2618 -0.8792
  282MOL0     C37963   3.670   9.121  12.960  0.2660  0.1327 -0.0823
  282MOL0     C37964   3.576   9.117  13.074 -0.0320  0.5189  0.0025
  282MOL0     O37965   3.600   9.187  13.186 -1.3780 -0.8967  0.4932
  282MOL0     C37966   3.506   9.224  13.277  0.2390  0.2257  0.1786
  282MOL0     C37967   3.546   9.222  13.407  0.3847 -0.5493 -1.0656
  282MOL0     C37968   3.476   9.293  13.508  0.1031 -0.0020  0.2813
  282MOL0     C37969   3.350   9.349  13.482  0.0210  0.7104  0.5197
  282MOL0     O37970   3.291   9.407  13.591  0.1210 -0.1718 -0.2381
  282MOL0     C37971   3.161   9.453  13.567 -0.3276 -0.8206 -0.5002
  282MOL0     C37972   3.106   9.511  13.694 -0.6840 -0.0095  0.3213
  282MOL0     C37973   3.181   9.623  13.767  0.9178 -0.2814  0.0636
  282MOL0     C37974   3.125   9.624  13.918 -0.3520 -0.2823 -0.5694
  282MOL0     C37975   3.216   9.701  14.021  0.2151 -0.2012 -0.8066
  282MOL0     C37976   3.127   9.742  14.137 -0.6589  0.6010 -1.4499
  282MOL0     C37977   3.216   9.802  14.251  0.3108 -0.2454 -0.5150
  282MOL0     C37978   3.266   9.703  14.354  0.2219 -0.5729  0.9179
  282MOL0    Cl37979   3.375   9.568  14.310  0.2753  0.4915  0.2290
  282MOL0     C37980   3.306   9.338  13.350  0.0864 -1.0297  1.5199
  282MOL0     C37981   3.385   9.281  13.246  0.1943  0.0830  0.0028
  282MOL0     O37982   3.474   9.048  13.056 -0.3066 -0.0405  0.0971
  282MOL0     C37983   3.631   9.124  12.831  0.7693 -0.9309  0.1428
  282MOL0     C37984   3.729   9.142  12.721 -0.1686 -0.4850 -0.3651
  282MOL0     N37985   3.904   8.838  12.109 -0.8698  0.5838 -0.1837
  282MOL0     N37986   3.942   8.861  11.991  0.6335  0.0623  0.8495
  282MOL0     C37987   4.406   9.101  10.969 -0.3046 -0.2220  0.5296
  282MOL0     C37988   4.490   9.082  10.864 -0.6585 -0.1305 -0.5745
  282MOL0     C37989   4.712   9.042  10.506  0.6939 -0.3509  0.9518
  282MOL0     C37990   4.798   9.150  10.534 -0.0865  0.4203 -0.1109
  282MOL0     C37991   4.903   9.161  10.446  0.1480 -1.0685  0.3578
  282MOL0     C37992   4.936   9.078  10.339 -0.7263  0.7162  1.8783
  282MOL0     O37993   5.043   9.116  10.259 -0.5297  0.1159  0.3900
  282MOL0     C37994   5.067   9.026  10.154 -0.0718 -0.7540 -0.2973
  282MOL0     C37995   5.175   9.093  10.063 -0.1070 -0.0329  0.2825
  282MOL0     C37996   5.214   8.995   9.946  0.0502 -0.5769 -0.8243
  282MOL0     C37997   5.320   9.056   9.861 -0.5844  0.3966 -0.9744
  282MOL0     C37998   5.356   8.960   9.765 -0.0073 -0.2718  0.1417
  282MOL0     C37999   5.412   8.879   9.692  0.5406  0.9392 -0.0150
  282MOL0     C38000   4.844   8.968  10.317 -0.3891 -2.0501  0.3884
  282MOL0     C38001   4.735   8.952  10.406 -0.6310 -0.2815  0.0164
  282MOL0     C38002   4.650   8.828  10.407 -0.5161 -0.5551  0.0775
  282MOL0     H38003   4.423   8.761  10.771  0.3122  0.6985 -0.2742
  282MOL0     H38004   4.264   8.791  10.965  1.6529 -0.4160 -0.7286
  282MOL0     H38005   4.167   9.198  11.038 -0.4065 -0.7802  0.5139
  282MOL0     H38006   4.055   9.124  11.147 -0.6952  3.5117  2.0570
  282MOL0     H38007   4.192   9.309  11.280 -0.1520 -0.5386  0.5015
  282MOL0     H38008   4.329   9.202  11.247 -0.0572  0.2558  0.7650
  282MOL0     H38009   4.210   9.015  11.372 -1.2191 -1.6159  0.6658
  282MOL0     H38010   4.069   9.122  11.374  1.0534  1.9531 -2.4929
  282MOL0     H38011   4.335   9.191  11.515  0.1729 -0.3700  3.6057
  282MOL0     H38012   4.193   9.286  11.520  1.4319  0.3272  0.9327
  282MOL0     H38013   4.062   9.092  11.606  0.1726 -1.5369 -1.2238
  282MOL0     H38014   4.202   8.996  11.608  0.8901 -0.9797  2.0164
  282MOL0     H38015   4.325   9.125  11.765 -0.0748 -1.2848 -2.2143
  282MOL0     H38016   4.219   9.272  11.753 -3.8259  0.0571  2.0812
  282MOL0     H38017   4.031   9.142  11.858 -0.6308 -3.5354 -3.8592
  282MOL0     H38018   4.173   9.155  11.963  0.5927  1.5599  0.1923
  282MOL0     H38019   4.090   8.924  11.789  1.6189  1.8898 -2.2129
  282MOL0     H38020   4.244   8.929  11.887  1.2973  2.8572  0.6652
  282MOL0     H38021   4.201   8.951  12.160 -0.3537  0.4492 -0.6785
  282MOL0     H38022   3.879   8.825  12.358  0.5322  0.2216  0.1560
  282MOL0     H38023   4.052   8.763  12.358 -1.8070 -3.0435 -2.6699
  282MOL0     H38024   4.034   8.928  12.521 -0.5803 -1.4674 -1.5549
  282MOL0     H38025   4.106   9.026  12.390 -0.5032 -0.5848 -1.9709
  282MOL0     H38026   3.819   9.018  12.473  0.2022  0.1618  0.6589
  282MOL0     H38027   3.880   9.090  12.323 -2.9977 -1.3201 -0.1850
  282MOL0     H38028   3.849   9.264  12.519  0.2235  0.9861  3.6457
  282MOL0     H38029   4.010   9.254  12.482 -1.0325  1.5752  3.4132
  282MOL0     H38030   4.010   9.130  12.907  0.0567  1.2381 -0.7658
  282MOL0     H38031   3.861   9.108  13.074 -1.7627 -0.3641 -0.1423
  282MOL0     H38032   3.649   9.193  13.425  0.3829  0.5637  1.0993
  282MOL0     H38033   3.521   9.286  13.606  1.4375  0.6628 -0.2637
  282MOL0     H38034   3.156   9.530  13.490 -2.5428 -0.2612  0.1426
  282MOL0     H38035   3.095   9.373  13.532 -0.7122 -1.0450  0.7088
  282MOL0     H38036   3.003   9.543  13.681 -0.6556 -0.1566 -0.3026
  282MOL0     H38037   3.110   9.431  13.769  0.2986  1.3537  1.7918
  282MOL0     H38038   3.290   9.627  13.761  0.9721 -0.7639  0.6088
  282MOL0     H38039   3.137   9.713  13.724 -0.1364 -0.2537  1.1607
  282MOL0     H38040   3.096   9.524  13.955 -1.8695 -0.4584 -2.1182
  282MOL0     H38041   3.030   9.678  13.911 -0.8976 -1.3739 -2.4119
  282MOL0     H38042   3.256   9.787  13.966  0.5647 -0.3981 -0.8672
  282MOL0     H38043   3.298   9.637  14.055  0.9426  3.1202  5.0749
  282MOL0     H38044   3.053   9.821  14.121 -2.9157  0.0679  4.1776
  282MOL0     H38045   3.063   9.660  14.170 -3.2929  2.7859 -0.7876
  282MOL0     H38046   3.152   9.877  14.297  0.2236 -1.3168  1.2021
  282MOL0     H38047   3.306   9.840  14.202  0.7938  0.2219  0.6923
  282MOL0     H38048   3.307   9.763  14.436  3.5699 -0.6619 -0.5088
  282MOL0     H38049   3.170   9.657  14.380 -0.1947  0.6406  1.6109
  282MOL0     H38050   3.216   9.390  13.320  0.0212 -1.4849  0.9286
  282MOL0     H38051   3.351   9.290  13.143  2.5608 -0.0660 -0.8469
  282MOL0     H38052   3.528   9.123  12.796  0.8665  0.0883 -0.1872
  282MOL0     H38053   3.699   9.128  12.618 -1.1541  1.1318 -0.3380
  282MOL0     H38054   4.405   9.198  11.017  2.1460 -1.0144  2.3582
  282MOL0     H38055   4.550   9.164  10.824 -0.7880 -0.2568 -1.0291
  282MOL0     H38056   4.786   9.225  10.611 -4.4259  0.1066 -0.2534
  282MOL0     H38057   4.952   9.254  10.475 -3.0464  0.6036  0.8341
  282MOL0     H38058   4.982   9.022  10.086  1.0840  0.2177 -1.8811
  282MOL0     H38059   5.097   8.924  10.181 -0.9429 -0.8677  0.2500
  282MOL0     H38060   5.263   9.127  10.118  1.9951 -1.8003 -1.7838
  282MOL0     H38061   5.107   9.173  10.030 -2.2618 -1.1078  1.8767
  282MOL0     H38062   5.123   8.974   9.890  0.1636  0.2938 -1.3501
  282MOL0     H38063   5.254   8.909  10.000 -1.4841 -1.3481 -0.8537
  282MOL0     H38064   5.285   9.145   9.809  2.2580  1.6981 -0.8448
  282MOL0     H38065   5.408   9.089   9.918 -2.6707  1.4106  1.9018
  282MOL0     H38066   5.465   8.798   9.646  1.0379 -0.3539  2.6500
  282MOL0     H38067   4.845   8.907  10.227  1.4629 -2.7174  0.8207
  282MOL0     H38068   4.568   8.832  10.479  1.7838 -1.6082  2.9735
  282MOL0     H38069   4.616   8.806  10.305  0.8304  0.1291 -0.5501
  282MOL0     H38070   4.715   8.748  10.444  0.8747  0.4106 -0.1591
  283MOL0     O38071   2.626  10.136   3.075  0.4635 -0.8950 -0.0062
  283MOL0     C38072   2.730  10.133   3.140  0.8963 -0.1353  0.8843
  283MOL0     O38073   2.832  10.041   3.120 -0.0526 -0.0027  0.4767
  283MOL0     C38074   2.824   9.959   3.005  0.0580  0.2001 -0.0097
  283MOL0     C38075   2.856  10.008   2.881  0.0764 -0.6270 -0.8570
  283MOL0     C38076   2.826   9.928   2.776  0.1799 -0.3961  0.0625
  283MOL0     C38077   2.773   9.795   2.778  0.4000 -0.7590 -0.4237
  283MOL0     O38078   2.756   9.728   2.660  0.3285  0.9421 -0.7058
  283MOL0     C38079   2.675   9.609   2.671  1.6626  0.6448 -0.1032
  283MOL0     C38080   2.651   9.563   2.530 -0.0418 -0.2001 -1.2923
  283MOL0     C38081   2.611   9.417   2.529 -0.0120 -0.1617 -0.2234
  283MOL0     C38082   2.602   9.372   2.378  0.2508 -0.0067 -0.7185
  283MOL0     C38083   2.574   9.216   2.387  0.2929  0.0039  0.1291
  283MOL0     C38084   2.700   9.140   2.427  0.4154 -0.3951  0.6012
  283MOL0     C38085   2.719   9.025   2.318  0.7122  0.3723  0.8927
  283MOL0     C38086   2.622   8.916   2.352 -0.1465  0.1658  0.7639
  283MOL0     N38087   2.638   8.801   2.260 -0.9459  0.4186 -0.2398
  283MOL0     C38088   2.716   8.793   2.147  0.2648 -0.0982 -1.0739
  283MOL0     C38089   2.702   8.669   2.087  0.0350  0.3537 -0.0370
  283MOL0     C38090   2.739   8.608   1.954  0.4562  0.5481 -0.2479
  283MOL0     C38091   2.615   8.538   1.889 -0.9220 -1.4849 -0.4982
  283MOL0     C38092   2.656   8.484   1.747  1.0937  0.4067  0.3444
  283MOL0     C38093   2.548   8.378   1.698 -0.4966  0.3805  0.2559
  283MOL0     O38094   2.421   8.442   1.680 -0.0900 -0.6830 -0.3707
  283MOL0     C38095   2.311   8.369   1.647 -0.8923  0.3065  0.0246
  283MOL0     C38096   2.316   8.256   1.559 -0.7815 -0.6566 -0.0060
  283MOL0     C38097   2.209   8.176   1.535 -0.4313 -0.2771  0.5848
  283MOL0     C38098   2.081   8.205   1.591  0.0138 -0.6175 -0.0960
  283MOL0     C38099   1.962   8.116   1.583 -0.0560 -0.0178  0.2163
  283MOL0     O38100   1.972   8.015   1.492 -1.0756  0.0740  0.2950
  283MOL0     C38101   1.903   7.904   1.530  0.0210 -0.3616  0.0394
  283MOL0     C38102   1.952   7.828   1.639 -0.2657  0.2943 -0.2623
  283MOL0     C38103   1.872   7.722   1.682  0.3285  0.3970  0.0951
  283MOL0     C38104   1.759   7.669   1.608 -1.0612  0.0856  0.0356
  283MOL0     O38105   1.697   7.558   1.658 -0.7704 -0.1842  0.1205
  283MOL0     C38106   1.571   7.510   1.609 -0.4253  0.3975  0.7721
  283MOL0     C38107   1.519   7.401   1.703  0.6104 -0.9321 -0.6303
  283MOL0     C38108   1.391   7.343   1.644  0.5984 -0.0465 -1.3628
  283MOL0     C38109   1.368   7.203   1.692  0.1917  0.4369 -0.4113
  283MOL0     C38110   1.212   7.179   1.715 -0.2723  0.5361 -0.4040
  283MOL0     C38111   1.188   7.046   1.792 -0.5329  0.1435 -0.5859
  283MOL0     C38112   1.042   7.009   1.796 -0.4276  1.0440  0.3099
  283MOL0     C38113   0.947   7.119   1.835 -0.2385  0.0237 -0.1167
  283MOL0    Cl38114   0.786   7.047   1.863  0.3052 -0.0514  0.0325
  283MOL0     C38115   1.733   7.730   1.487 -0.3916  0.1754 -0.4212
  283MOL0     C38116   1.805   7.848   1.448  0.3975  0.7731 -0.4957
  283MOL0     O38117   1.877   8.118   1.672  0.2392  0.2753 -0.5130
  283MOL0     C38118   2.078   8.329   1.672  0.6654 -0.2030  1.1048
  283MOL0     C38119   2.192   8.408   1.699 -1.7697  0.0705  0.0312
  283MOL0     N38120   2.626   8.591   2.178 -0.3627 -0.0788 -0.1881
  283MOL0     N38121   2.592   8.673   2.276 -0.4780 -0.4795  0.1131
  283MOL0     C38122   2.736   9.753   2.909  0.1547 -0.1262 -0.5616
  283MOL0     C38123   2.765   9.832   3.020 -0.0385 -0.9351 -0.5619
  283MOL0     C38124   2.740  10.240   3.239 -0.3260 -0.5099  1.3305
  283MOL0     C38125   2.658  10.353   3.224  0.4315 -1.1205 -0.0582
  283MOL0     C38126   2.654  10.464   3.318 -0.6004 -1.1210 -0.3441
  283MOL0     C38127   2.745  10.463   3.421 -0.1991  0.1815 -0.1185
  283MOL0     O38128   2.729  10.565   3.516  0.1568  0.6449  0.8819
  283MOL0     C38129   2.819  10.579   3.628 -0.6207 -0.5228  0.2000
  283MOL0     C38130   2.816  10.726   3.667  0.3071  0.4899 -0.7645
  283MOL0     C38131   2.804  10.736   3.820  0.1623  1.0557  0.3956
  283MOL0     C38132   2.932  10.690   3.898 -0.1608  0.0611  0.2643
  283MOL0     C38133   2.894  10.662   4.037  0.0385 -0.0897 -0.4084
  283MOL0     C38134   2.869  10.639   4.159  0.1743 -0.0554  0.9800
  283MOL0     C38135   2.827  10.352   3.438 -0.1523  0.3075  0.3770
  283MOL0     C38136   2.829  10.234   3.348 -0.6118 -0.5909  0.6375
  283MOL0     C38137   2.915  10.124   3.378 -0.0017  0.3365  0.0380
  283MOL0     H38138   2.891  10.109   2.864  1.4029 -0.9764 -0.2364
  283MOL0     H38139   2.835   9.967   2.676 -2.5623 -1.4593 -0.6986
  283MOL0     H38140   2.733   9.534   2.726 -0.0902  1.1163  2.5690
  283MOL0     H38141   2.585   9.625   2.731  1.8524 -0.8756  0.6231
  283MOL0     H38142   2.733   9.580   2.460  2.9123 -2.9613  1.1927
  283MOL0     H38143   2.558   9.606   2.491  0.7947  2.1647 -0.8331
  283MOL0     H38144   2.513   9.393   2.572  0.8106 -2.5110  0.5285
  283MOL0     H38145   2.682   9.355   2.585 -2.7561  0.2356  4.1406
  283MOL0     H38146   2.517   9.429   2.341 -1.9276  0.0130  3.6057
  283MOL0     H38147   2.684   9.388   2.307  1.5821  0.3901  0.8376
  283MOL0     H38148   2.486   9.189   2.446 -0.4353 -0.3995 -1.1072
  283MOL0     H38149   2.555   9.199   2.281 -0.1205 -2.3155  0.5371
  283MOL0     H38150   2.783   9.209   2.417  0.9680 -1.2726 -1.8272
  283MOL0     H38151   2.686   9.102   2.529  2.3427 -2.3835  0.2166
  283MOL0     H38152   2.816   8.975   2.311  0.2585 -0.3813 -0.3825
  283MOL0     H38153   2.701   9.064   2.217 -1.0799 -3.5351 -0.4813
  283MOL0     H38154   2.639   8.881   2.454 -2.2965  0.8068  1.4034
  283MOL0     H38155   2.523   8.961   2.342  0.5662  1.4899 -0.8959
  283MOL0     H38156   2.772   8.876   2.105 -0.4161  1.3039  0.6264
  283MOL0     H38157   2.786   8.683   1.890  2.4327  0.2860  0.8003
  283MOL0     H38158   2.819   8.537   1.976 -2.7852 -3.0775  0.8709
  283MOL0     H38159   2.582   8.453   1.950 -0.5606 -1.6005 -0.4622
  283MOL0     H38160   2.525   8.600   1.884  0.9830  1.9366  2.6035
  283MOL0     H38161   2.754   8.437   1.750  1.6504  1.5789  1.5518
  283MOL0     H38162   2.653   8.572   1.683  0.4263  0.7567  0.8440
  283MOL0     H38163   2.547   8.299   1.774  3.3538 -1.8232 -1.6625
  283MOL0     H38164   2.592   8.348   1.602 -1.5265 -0.0400 -0.0898
  283MOL0     H38165   2.408   8.226   1.511  0.1743  1.3090  0.4769
  283MOL0     H38166   2.220   8.089   1.471 -0.5608  1.0700 -1.3309
  283MOL0     H38167   2.026   7.870   1.706 -0.4040 -0.7056  0.5499
  283MOL0     H38168   1.910   7.667   1.767 -0.0191  0.7249  0.4614
  283MOL0     H38169   1.503   7.595   1.610 -0.6171  0.3213 -1.5003
  283MOL0     H38170   1.573   7.478   1.504 -0.9242 -1.5805  1.3243
  283MOL0     H38171   1.592   7.320   1.697  2.6629  0.9351 -2.0674
  283MOL0     H38172   1.509   7.439   1.805  3.5687  0.7167 -0.8448
  283MOL0     H38173   1.302   7.399   1.672 -0.2661 -1.6439 -0.7977
  283MOL0     H38174   1.398   7.341   1.535  1.6817 -4.1061 -1.3790
  283MOL0     H38175   1.423   7.180   1.783  1.6559 -0.2019 -1.4274
  283MOL0     H38176   1.410   7.132   1.621  3.0613  0.0433  1.5379
  283MOL0     H38177   1.159   7.167   1.621 -1.2306 -0.6873  0.2688
  283MOL0     H38178   1.180   7.264   1.776 -0.7167  0.4683 -0.5422
  283MOL0     H38179   1.249   6.969   1.744 -0.1066 -0.3350  0.6862
  283MOL0     H38180   1.231   7.054   1.892 -4.9377  1.0367  1.4558
  283MOL0     H38181   1.030   6.943   1.883  3.8955  0.4997  0.7044
  283MOL0     H38182   1.008   6.966   1.702 -3.3695 -0.4846  1.9049
  283MOL0     H38183   0.991   7.176   1.918 -2.9969  0.7665  0.9260
  283MOL0     H38184   0.947   7.189   1.751 -0.6193 -2.0897 -1.9827
  283MOL0     H38185   1.661   7.689   1.416  1.7045 -0.6294 -2.1829
  283MOL0     H38186   1.785   7.868   1.343 -0.3498 -1.4595 -0.8362
  283MOL0     H38187   1.983   8.371   1.703  0.5887 -1.3927  2.5863
  283MOL0     H38188   2.195   8.501   1.755  1.6067 -1.2900  2.3992
  283MOL0     H38189   2.706   9.650   2.924 -0.8768  0.4246  1.6307
  283MOL0     H38190   2.722   9.796   3.114 -1.8755 -2.3379 -1.8684
  283MOL0     H38191   2.583  10.352   3.145 -1.5504 -1.9221  1.7164
  283MOL0     H38192   2.586  10.548   3.304 -1.3851 -0.8668  3.7942
  283MOL0     H38193   2.922  10.561   3.595  1.3004  2.4058  3.9100
  283MOL0     H38194   2.807  10.508   3.710 -0.2847 -0.1746  0.5553
  283MOL0     H38195   2.732  10.774   3.615 -1.1843 -0.9915  0.1379
  283MOL0     H38196   2.908  10.770   3.627 -1.2040  3.5044 -1.2275
  283MOL0     H38197   2.720  10.676   3.856  0.9213 -0.2580  0.0542
  283MOL0     H38198   2.772  10.838   3.841  0.4703  0.2879  6.0480
  283MOL0     H38199   2.982  10.600   3.860  2.0387  2.0672 -2.0184
  283MOL0     H38200   3.011  10.764   3.879 -0.0198 -0.0210  0.5287
  283MOL0     H38201   2.854  10.613   4.262  2.5270 -1.2747  1.0900
  283MOL0     H38202   2.895  10.342   3.522  1.1331 -0.7461 -0.7418
  283MOL0     H38203   2.944  10.118   3.484 -0.4548  0.0017  0.1497
  283MOL0     H38204   2.868  10.028   3.354  1.4962  0.0614 -1.9898
  283MOL0     H38205   3.005  10.127   3.316 -1.1715 -3.0418 -2.1348
  284MOL0     O38206   5.658   2.560   6.864  0.7594  0.2513  0.5265
  284MOL0     C38207   5.643   2.485   6.956  0.8098 -1.1173  0.3887
  284MOL0     O38208   5.601   2.352   6.949 -0.5250 -0.0418  0.0166
  284MOL0     C38209   5.613   2.286   6.832  0.5102 -0.6401 -0.1824
  284MOL0     C38210   5.525   2.184   6.795 -0.5984 -0.0699 -0.6176
  284MOL0     C38211   5.555   2.096   6.691  1.4993  0.4242 -0.2551
  284MOL0     C38212   5.672   2.115   6.621 -0.1166  1.1559 -0.4863
  284MOL0     O38213   5.687   2.017   6.525  0.0038 -0.2754 -0.4025
  284MOL0     C38214   5.772   2.047   6.417 -0.8276  0.3882  0.9949
  284MOL0     C38215   5.836   1.931   6.347  0.5073 -0.3725 -0.1311
  284MOL0     C38216   5.950   1.852   6.421  0.4526  0.1033  0.4791
  284MOL0     C38217   6.017   1.744   6.338 -0.5791 -0.1817  0.2837
  284MOL0     C38218   5.928   1.623   6.337  0.1577 -0.0997 -0.2893
  284MOL0     C38219   5.989   1.492   6.286 -0.2636  0.6484  0.7033
  284MOL0     C38220   6.085   1.508   6.170  0.5854 -0.5908 -0.4648
  284MOL0     C38221   6.120   1.360   6.119  0.3690  0.0266  0.6750
  284MOL0     N38222   6.221   1.363   6.017 -0.7944  0.1309  1.1736
  284MOL0     C38223   6.210   1.333   5.885 -0.1784 -0.4557 -0.1135
  284MOL0     C38224   6.332   1.305   5.840  0.4680  1.1342 -0.4963
  284MOL0     C38225   6.385   1.262   5.715 -0.1747  0.0662 -0.0328
  284MOL0     C38226   6.326   1.329   5.595  0.2023 -0.9009 -0.6089
  284MOL0     C38227   6.375   1.471   5.572 -0.9687 -0.1342  0.1285
  284MOL0     C38228   6.297   1.531   5.454  0.0639  0.4016 -0.1369
  284MOL0     O38229   6.285   1.459   5.328 -0.8897  0.4195 -0.4431
  284MOL0     C38230   6.393   1.488   5.240 -0.6868  0.2019 -1.0768
  284MOL0     C38231   6.497   1.393   5.236 -0.5242  1.7858  1.0397
  284MOL0     C38232   6.607   1.419   5.154  0.2637 -0.0978 -0.4520
  284MOL0     C38233   6.614   1.547   5.084 -0.2622  1.3574  0.5542
  284MOL0     C38234   6.719   1.576   4.981  0.3184 -0.0151 -1.2212
  284MOL0     O38235   6.811   1.479   4.952  0.5219 -1.5597 -0.7340
  284MOL0     C38236   6.899   1.496   4.846  0.2683 -0.1458 -0.8899
  284MOL0     C38237   6.924   1.397   4.764  0.4317 -0.6456  0.1030
  284MOL0     C38238   7.024   1.423   4.666 -0.6230  0.2011 -0.1520
  284MOL0     C38239   7.090   1.543   4.644 -0.2236 -0.2682 -0.3932
  284MOL0     O38240   7.189   1.586   4.550  1.4256 -0.1582  0.2935
  284MOL0     C38241   7.258   1.488   4.485 -1.4144 -0.2275 -0.2910
  284MOL0     C38242   7.392   1.553   4.432  0.0025 -0.1364  0.8578
  284MOL0     C38243   7.368   1.603   4.293  0.9615  0.0729 -0.4060
  284MOL0     C38244   7.485   1.657   4.222 -0.2615 -0.0882  0.0080
  284MOL0     C38245   7.561   1.780   4.272 -0.7147  0.0686 -0.5311
  284MOL0     C38246   7.681   1.816   4.177  0.1558  0.7987  0.5196
  284MOL0     C38247   7.718   1.967   4.208  0.4622  0.0424  0.2008
  284MOL0     C38248   7.847   2.030   4.145 -0.1007 -0.1813 -0.7323
  284MOL0    Cl38249   7.998   1.956   4.190  0.6475  0.0123  0.4381
  284MOL0     C38250   7.044   1.647   4.718  0.5577  0.1268 -0.7076
  284MOL0     C38251   6.966   1.620   4.826 -0.5177 -0.5157  0.7969
  284MOL0     O38252   6.717   1.684   4.929 -0.3404 -0.3696 -0.7606
  284MOL0     C38253   6.521   1.645   5.110  0.9075  0.6046  1.4024
  284MOL0     C38254   6.410   1.606   5.182 -0.2354 -1.2959 -1.1945
  284MOL0     N38255   6.423   1.336   5.944 -0.2050 -0.1204 -0.4162
  284MOL0     N38256   6.352   1.382   6.044 -0.7720 -0.1966  0.1032
  284MOL0     C38257   5.751   2.217   6.644 -1.2258 -0.5013  0.6968
  284MOL0     C38258   5.728   2.295   6.753 -0.0836 -0.8167 -0.0615
  284MOL0     C38259   5.624   2.559   7.089  0.0822  0.2887 -0.2517
  284MOL0     C38260   5.566   2.684   7.096  0.1733 -0.0001 -0.0773
  284MOL0     C38261   5.555   2.757   7.213 -0.1418  0.0591 -0.1091
  284MOL0     C38262   5.584   2.693   7.333  0.3380  0.1414 -0.3088
  284MOL0     O38263   5.550   2.741   7.460  0.6871  0.0146  0.1119
  284MOL0     C38264   5.486   2.871   7.469  0.3952 -0.5089 -1.2956
  284MOL0     C38265   5.433   2.887   7.612  0.1764  0.2652 -0.0037
  284MOL0     C38266   5.555   2.872   7.704 -0.0137 -0.2568 -0.3544
  284MOL0     C38267   5.525   2.892   7.850 -0.4186  0.1098 -0.1232
  284MOL0     C38268   5.628   2.862   7.945 -0.2353  0.2022  0.1843
  284MOL0     C38269   5.724   2.822   8.008 -0.1012  0.0888  0.6315
  284MOL0     C38270   5.639   2.569   7.330  0.2684 -0.3166 -0.2578
  284MOL0     C38271   5.670   2.512   7.210 -1.4369 -0.4691 -0.9783
  284MOL0     C38272   5.723   2.366   7.220 -0.0578 -1.2782 -0.5091
  284MOL0     H38273   5.433   2.164   6.850 -0.2812 -1.0317 -0.4078
  284MOL0     H38274   5.483   2.018   6.672 -1.3379  2.1570  2.3505
  284MOL0     H38275   5.715   2.089   6.333 -0.8103 -1.1572  0.1648
  284MOL0     H38276   5.855   2.117   6.432 -1.9776  1.7823  1.1348
  284MOL0     H38277   5.859   1.969   6.247 -1.6294  1.9508  0.1334
  284MOL0     H38278   5.760   1.855   6.326  0.5977 -0.6411  0.5078
  284MOL0     H38279   5.909   1.799   6.507 -3.2271 -0.8589 -1.6372
  284MOL0     H38280   6.012   1.936   6.454 -1.2054  0.6323  2.4193
  284MOL0     H38281   6.045   1.769   6.235 -1.8438 -1.8019 -0.4971
  284MOL0     H38282   6.109   1.730   6.395 -0.7854 -2.9640  0.0635
  284MOL0     H38283   5.887   1.601   6.436  0.0445  0.5790 -0.1784
  284MOL0     H38284   5.837   1.651   6.282  1.8807  3.1484 -1.7845
  284MOL0     H38285   6.049   1.457   6.371  0.7775  1.0259  0.1406
  284MOL0     H38286   5.911   1.425   6.250  1.2482  0.8752 -3.5658
  284MOL0     H38287   6.169   1.566   6.211 -1.3089  1.7748  0.2996
  284MOL0     H38288   6.047   1.567   6.086  1.7753 -2.5169 -2.4798
  284MOL0     H38289   6.153   1.311   6.211 -2.2892 -1.4629  0.9379
  284MOL0     H38290   6.033   1.302   6.088 -0.0186  0.4176  1.0141
  284MOL0     H38291   6.121   1.338   5.824 -2.6546  0.9184  3.3043
  284MOL0     H38292   6.495   1.269   5.717 -0.1608  0.2680 -1.0594
  284MOL0     H38293   6.369   1.154   5.708 -0.9803  0.2577 -1.4086
  284MOL0     H38294   6.365   1.280   5.505  1.5553 -0.8983 -0.0466
  284MOL0     H38295   6.217   1.338   5.593  0.0582 -0.9837  2.5755
  284MOL0     H38296   6.482   1.472   5.547 -0.9501  1.7617  0.1850
  284MOL0     H38297   6.364   1.539   5.657  1.4209  0.9342 -0.3293
  284MOL0     H38298   6.341   1.631   5.444  3.1102 -0.6102  1.8218
  284MOL0     H38299   6.192   1.542   5.483  0.1284 -1.3547  0.9515
  284MOL0     H38300   6.496   1.303   5.297  1.2371  1.9068  1.2801
  284MOL0     H38301   6.684   1.343   5.148 -0.8824 -1.1991 -2.1738
  284MOL0     H38302   6.889   1.295   4.778 -1.1553 -0.0497  0.6036
  284MOL0     H38303   7.061   1.349   4.597  1.2042  2.5742 -1.9184
  284MOL0     H38304   7.292   1.407   4.550  1.0280  1.3249  0.4966
  284MOL0     H38305   7.199   1.445   4.403  2.0948  0.3084 -3.4025
  284MOL0     H38306   7.415   1.643   4.491  2.5344 -0.7394  0.9044
  284MOL0     H38307   7.477   1.484   4.429  1.9156  2.0948 -1.9990
  284MOL0     H38308   7.323   1.524   4.233 -0.9849 -1.0422  2.3239
  284MOL0     H38309   7.285   1.674   4.292  0.5514 -0.0967  3.7045
  284MOL0     H38310   7.453   1.685   4.121  0.6553 -2.4398 -0.9974
  284MOL0     H38311   7.560   1.578   4.217  0.1855  0.3931 -1.6955
  284MOL0     H38312   7.600   1.763   4.372 -0.8348  0.6039 -0.3909
  284MOL0     H38313   7.488   1.861   4.283 -2.2860 -1.4594  0.9612
  284MOL0     H38314   7.764   1.756   4.216 -1.5856  0.9567  4.9769
  284MOL0     H38315   7.647   1.802   4.073 -0.0340  1.1421  0.5346
  284MOL0     H38316   7.734   1.973   4.316 -0.3091 -1.3385  0.4159
  284MOL0     H38317   7.631   2.027   4.180  2.3708  2.3237 -1.2524
  284MOL0     H38318   7.830   2.025   4.037 -3.9883  3.9270 -0.6350
  284MOL0     H38319   7.864   2.134   4.176  2.0967 -0.3477 -1.2150
  284MOL0     H38320   7.069   1.752   4.702  0.3225  0.4539  0.8478
  284MOL0     H38321   6.959   1.700   4.899 -1.2170  1.8700 -1.6976
  284MOL0     H38322   6.531   1.745   5.069  2.6031  0.0921  0.4557
  284MOL0     H38323   6.326   1.673   5.198  0.3748 -0.8523  0.3171
  284MOL0     H38324   5.845   2.237   6.593 -1.5807 -2.9565 -1.0852
  284MOL0     H38325   5.800   2.373   6.774 -0.5914 -0.8404  1.9082
  284MOL0     H38326   5.533   2.728   7.001  2.2247  0.6798 -0.5246
  284MOL0     H38327   5.521   2.860   7.207 -3.9825 -0.7408  3.2219
  284MOL0     H38328   5.399   2.882   7.402 -0.6499  2.1513  0.3453
  284MOL0     H38329   5.564   2.945   7.450  0.3267  0.1536  0.7894
  284MOL0     H38330   5.364   2.805   7.631  0.8006 -0.4680 -0.8393
  284MOL0     H38331   5.392   2.987   7.630  2.1289  1.7698 -3.0994
  284MOL0     H38332   5.639   2.933   7.668  0.4473 -1.5166 -1.5085
  284MOL0     H38333   5.580   2.766   7.686  1.0641  0.4329 -3.7587
  284MOL0     H38334   5.501   2.998   7.860 -1.5050  0.0032 -1.3335
  284MOL0     H38335   5.444   2.827   7.886  0.2425  1.0336  3.4747
  284MOL0     H38336   5.811   2.777   8.051  0.9232  1.4618  0.0975
  284MOL0     H38337   5.669   2.523   7.423  3.4106  1.6643 -0.1042
  284MOL0     H38338   5.645   2.289   7.219  1.8060 -3.2556 -0.4900
  284MOL0     H38339   5.806   2.346   7.153  1.0883 -0.5366  0.6372
  284MOL0     H38340   5.776   2.363   7.316  2.5604  2.1255 -1.6695
  285MOL0     O38341   2.256   1.878   3.381 -0.7308 -0.0154  0.5700
  285MOL0     C38342   2.286   1.786   3.303  0.2473 -0.2066  0.1868
  285MOL0     O38343   2.204   1.755   3.190  0.1191 -0.1367  0.1729
  285MOL0     C38344   2.067   1.785   3.210  0.2803  0.2102 -0.5587
  285MOL0     C38345   1.998   1.859   3.120  0.0033  0.3423 -0.5207
  285MOL0     C38346   1.872   1.904   3.141  0.3943 -0.2306 -0.1293
  285MOL0     C38347   1.804   1.850   3.252  0.3034  1.0236  0.4909
  285MOL0     O38348   1.670   1.890   3.268 -0.3494  0.3069  0.4923
  285MOL0     C38349   1.597   1.831   3.363 -0.2819  0.0238 -0.4475
  285MOL0     C38350   1.470   1.907   3.380 -0.7102 -0.2862  0.0871
  285MOL0     C38351   1.370   1.844   3.467 -0.0628 -1.0220 -0.0642
  285MOL0     C38352   1.249   1.940   3.479  0.0565 -0.3635 -0.2644
  285MOL0     C38353   1.137   1.879   3.565  0.6074  0.5668 -0.3192
  285MOL0     C38354   1.035   1.989   3.573  0.3734  0.4788 -0.0643
  285MOL0     C38355   0.918   1.982   3.469 -0.2674 -0.3591  0.7766
  285MOL0     C38356   0.815   1.874   3.481  0.7774  0.6815  0.3430
  285MOL0     N38357   0.858   1.753   3.404 -1.2900 -0.3099  0.3120
  285MOL0     C38358   0.902   1.763   3.277 -0.2800  0.0822  1.1442
  285MOL0     C38359   0.939   1.634   3.242  0.5069 -0.4178 -0.4502
  285MOL0     C38360   0.974   1.581   3.103 -0.4969 -0.4001 -1.0103
  285MOL0     C38361   1.122   1.590   3.059  1.1898  0.2424  0.1460
  285MOL0     C38362   1.168   1.739   3.046  0.8973  0.3665  0.3977
  285MOL0     C38363   1.277   1.742   2.940 -0.2017  0.1748 -0.3533
  285MOL0     O38364   1.386   1.650   2.985  0.0595 -0.0874  0.1242
  285MOL0     C38365   1.514   1.674   2.941  0.0633 -0.3393 -0.3041
  285MOL0     C38366   1.625   1.601   2.980  0.2043  0.2350 -0.0684
  285MOL0     C38367   1.751   1.603   2.914  0.9000 -0.0929 -0.1416
  285MOL0     C38368   1.780   1.698   2.811 -0.5808  0.4566 -0.1814
  285MOL0     C38369   1.914   1.711   2.738 -0.4833 -0.5278 -0.5969
  285MOL0     O38370   2.003   1.614   2.791 -0.5289 -0.8130  0.6771
  285MOL0     C38371   2.131   1.620   2.742 -0.0241 -0.1040  0.8433
  285MOL0     C38372   2.165   1.516   2.664  0.7679 -0.0026 -0.1102
  285MOL0     C38373   2.283   1.524   2.595  0.6841 -0.0439 -0.0056
  285MOL0     C38374   2.370   1.638   2.607  0.8171  0.8350 -0.0623
  285MOL0     O38375   2.482   1.629   2.525  0.3984  0.4501  1.0577
  285MOL0     C38376   2.577   1.734   2.541 -0.1923  0.2627 -0.4655
  285MOL0     C38377   2.669   1.749   2.423  0.5668 -0.6280 -0.4957
  285MOL0     C38378   2.741   1.628   2.368 -0.0546 -0.1698  0.0191
  285MOL0     C38379   2.830   1.665   2.248  0.0656 -0.0861  0.0388
  285MOL0     C38380   2.923   1.542   2.218  0.0003 -0.0048 -0.0638
  285MOL0     C38381   3.021   1.584   2.105  0.3741 -0.1653  0.9692
  285MOL0     C38382   3.098   1.463   2.063  0.1506  0.7887 -0.1771
  285MOL0     C38383   3.224   1.420   2.145  1.4109 -0.4321 -0.6846
  285MOL0    Cl38384   3.353   1.536   2.145  0.3187 -0.2033  0.4864
  285MOL0     C38385   2.329   1.745   2.685  0.9091 -0.5813 -0.0020
  285MOL0     C38386   2.206   1.740   2.749  0.1473 -0.3441 -0.9126
  285MOL0     O38387   1.926   1.775   2.640  0.0442 -0.1405 -0.3777
  285MOL0     C38388   1.681   1.788   2.786  0.0239  0.1716  0.4349
  285MOL0     C38389   1.544   1.771   2.840 -0.3797 -0.0224 -0.5704
  285MOL0     N38390   0.935   1.559   3.361  0.4905 -0.2698 -0.1564
  285MOL0     N38391   0.864   1.626   3.446  0.5086 -0.6620 -0.1330
  285MOL0     C38392   1.868   1.754   3.335 -0.2998  0.2862  0.5505
  285MOL0     C38393   2.002   1.720   3.316 -0.0012 -0.0653  0.5443
  285MOL0     C38394   2.398   1.694   3.336 -0.4002  0.7805 -0.3579
  285MOL0     C38395   2.406   1.571   3.269 -0.4833  0.1205 -0.1831
  285MOL0     C38396   2.509   1.488   3.284 -0.7838 -0.5246 -0.9543
  285MOL0     C38397   2.621   1.521   3.360  0.6438 -0.9114 -0.1046
  285MOL0     O38398   2.722   1.432   3.362 -0.1186 -0.3722 -0.4335
  285MOL0     C38399   2.841   1.459   3.437  0.1237 -0.1934 -0.3159
  285MOL0     C38400   2.960   1.383   3.382 -0.2549 -0.9943  1.0812
  285MOL0     C38401   2.979   1.229   3.376 -0.7972  0.1630 -0.2350
  285MOL0     C38402   2.879   1.149   3.292 -0.7689  1.2484 -0.3440
  285MOL0     C38403   2.890   1.005   3.324  0.1344 -0.5057 -0.0847
  285MOL0     C38404   2.908   0.885   3.341 -0.1231  0.5150 -1.0607
  285MOL0     C38405   2.617   1.640   3.430  0.3831  0.5637  0.7771
  285MOL0     C38406   2.506   1.726   3.422  1.1606 -0.1666  0.1963
  285MOL0     C38407   2.526   1.856   3.495  0.0137 -0.5115 -0.2980
  285MOL0     H38408   2.055   1.907   3.041  1.7039  1.0146  1.0515
  285MOL0     H38409   1.824   1.976   3.076 -1.8538  0.0182  1.6716
  285MOL0     H38410   1.574   1.727   3.342  2.0618 -0.7655  0.4809
  285MOL0     H38411   1.651   1.836   3.458 -0.1304 -0.5011 -0.5043
  285MOL0     H38412   1.429   1.919   3.279  0.7300 -1.0029 -0.6224
  285MOL0     H38413   1.509   2.005   3.412  1.2980 -1.6199  2.0084
  285MOL0     H38414   1.425   1.843   3.562  0.2175  1.7746 -0.1080
  285MOL0     H38415   1.334   1.747   3.431 -2.3756  0.3915 -1.8615
  285MOL0     H38416   1.272   2.040   3.519 -2.4188  1.1499 -2.2945
  285MOL0     H38417   1.214   1.958   3.377 -3.1578  0.4057  0.8351
  285MOL0     H38418   1.089   1.792   3.517  0.3190  0.0101  0.9457
  285MOL0     H38419   1.172   1.851   3.664  1.8281  2.4865 -0.1602
  285MOL0     H38420   0.986   1.970   3.669  0.7113  0.4214  0.0981
  285MOL0     H38421   1.071   2.093   3.576  2.8184 -0.2785 -1.0486
  285MOL0     H38422   0.966   1.979   3.370 -0.8166  4.6123  0.1159
  285MOL0     H38423   0.870   2.080   3.472  4.2467  2.1113  1.3953
  285MOL0     H38424   0.791   1.846   3.584 -0.5703 -1.9783 -0.5998
  285MOL0     H38425   0.720   1.913   3.441  0.0457 -1.1310  0.2058
  285MOL0     H38426   0.885   1.851   3.216  5.7518  2.3468  2.0027
  285MOL0     H38427   0.940   1.478   3.087 -0.6312 -0.6371  0.6352
  285MOL0     H38428   0.922   1.639   3.026  1.7149  4.0663  0.5072
  285MOL0     H38429   1.188   1.544   3.134  2.8366  0.4336 -1.1300
  285MOL0     H38430   1.132   1.545   2.960 -2.4427 -1.5663  0.4310
  285MOL0     H38431   1.202   1.773   3.144  0.3018 -0.5627  0.9533
  285MOL0     H38432   1.090   1.805   3.007  2.9827  2.0117 -1.2432
  285MOL0     H38433   1.311   1.845   2.932 -0.6603  0.4256  0.8251
  285MOL0     H38434   1.241   1.703   2.844  1.7385 -2.8710  0.0114
  285MOL0     H38435   1.619   1.543   3.072  0.1037  1.0284  0.4274
  285MOL0     H38436   1.829   1.539   2.952  1.1227 -0.5814 -1.3875
  285MOL0     H38437   2.105   1.426   2.656 -3.0018  2.3967 -1.8163
  285MOL0     H38438   2.312   1.445   2.527 -1.7765 -0.2626 -0.8646
  285MOL0     H38439   2.541   1.833   2.572 -1.3619  0.1224 -1.3255
  285MOL0     H38440   2.643   1.689   2.617  0.5033  0.0806 -1.1664
  285MOL0     H38441   2.602   1.790   2.347 -0.2530 -1.4705 -0.2474
  285MOL0     H38442   2.742   1.827   2.446 -0.6565 -0.4111  3.3049
  285MOL0     H38443   2.805   1.593   2.450  0.0147  0.7688  0.3895
  285MOL0     H38444   2.676   1.549   2.331 -0.1903 -0.1686  0.2526
  285MOL0     H38445   2.892   1.748   2.284 -0.8473 -0.6850  3.3236
  285MOL0     H38446   2.776   1.679   2.154 -0.2199 -1.3284 -0.0033
  285MOL0     H38447   2.863   1.457   2.183  1.1223 -0.7108 -0.3288
  285MOL0     H38448   2.981   1.508   2.304  1.3410 -1.1428 -1.3516
  285MOL0     H38449   2.971   1.630   2.020  1.5287 -2.2564 -0.9442
  285MOL0     H38450   3.088   1.664   2.138  0.3335  0.2608  0.0240
  285MOL0     H38451   3.131   1.473   1.959 -0.6586  0.0457 -0.5172
  285MOL0     H38452   3.037   1.372   2.070  2.3975 -0.7966 -0.3230
  285MOL0     H38453   3.199   1.401   2.250  1.6515 -7.5278 -1.4206
  285MOL0     H38454   3.256   1.321   2.113  1.4970 -0.5865 -0.1333
  285MOL0     H38455   2.384   1.838   2.698 -2.1062  1.1693  1.3618
  285MOL0     H38456   2.162   1.827   2.798 -1.5275 -1.1217 -0.9491
  285MOL0     H38457   1.685   1.866   2.711 -1.3057 -1.5783 -1.5763
  285MOL0     H38458   1.473   1.826   2.779 -1.0963  0.5898  0.7859
  285MOL0     H38459   1.814   1.724   3.424  0.1888 -1.0675  0.4137
  285MOL0     H38460   2.047   1.654   3.389  0.2997  0.3335  0.7229
  285MOL0     H38461   2.338   1.551   3.186  1.5198  0.1349 -1.9111
  285MOL0     H38462   2.511   1.398   3.223 -0.9639 -0.5245 -0.9604
  285MOL0     H38463   2.828   1.442   3.544  3.0637  0.6904  0.2879
  285MOL0     H38464   2.875   1.562   3.422  0.2446  0.0640  1.5098
  285MOL0     H38465   3.043   1.427   3.439  0.8618  0.6222 -1.6190
  285MOL0     H38466   2.966   1.423   3.280 -1.7921  2.3679  2.1516
  285MOL0     H38467   2.964   1.197   3.480 -1.3560  2.8279  0.5709
  285MOL0     H38468   3.084   1.203   3.355 -1.0246 -1.6871  0.6571
  285MOL0     H38469   2.776   1.180   3.307 -1.1127 -0.0146  0.0259
  285MOL0     H38470   2.904   1.169   3.187  1.6890 -5.6543 -1.6293
  285MOL0     H38471   2.938   0.783   3.355  0.0890  0.8304  1.2163
  285MOL0     H38472   2.694   1.661   3.503  1.1651  2.5428 -0.5258
  285MOL0     H38473   2.494   1.854   3.600  0.5747  0.0959 -0.1088
  285MOL0     H38474   2.633   1.877   3.500 -0.0815  0.0634 -0.5774
  285MOL0     H38475   2.481   1.943   3.448 -3.0815 -0.7136  1.9423
  286MOL0     O38476  11.425   2.573   7.486 -0.1941  0.3859 -0.5818
  286MOL0     C38477  11.371   2.683   7.502  0.2172  0.3106  0.4891
  286MOL0     O38478  11.395   2.793   7.417 -0.2710  0.5477 -0.5459
  286MOL0     C38479  11.491   2.783   7.320 -1.1961  1.3387 -0.1664
  286MOL0     C38480  11.465   2.717   7.201  0.1783 -0.1394  0.2639
  286MOL0     C38481  11.556   2.705   7.099 -1.3164  0.5831  1.1500
  286MOL0     C38482  11.684   2.768   7.122 -0.0997 -0.3180  0.1729
  286MOL0     O38483  11.795   2.769   7.038  1.0666 -0.9002 -0.1117
  286MOL0     C38484  11.782   2.685   6.923 -0.6709  0.1950 -0.1778
  286MOL0     C38485  11.915   2.707   6.846  0.0747 -0.7250  0.4569
  286MOL0     C38486  11.929   2.847   6.783  0.1848 -0.1714 -0.2551
  286MOL0     C38487  12.066   2.850   6.715  0.3673 -0.2877 -1.4854
  286MOL0     C38488  12.100   2.973   6.631 -0.5215  0.9203  0.1301
  286MOL0     C38489  12.243   2.981   6.580  0.1827  0.7991 -0.5515
  286MOL0     C38490  12.271   3.097   6.465  0.2753 -0.0805 -1.5397
  286MOL0     C38491  12.405   3.067   6.398 -0.8132 -0.3824 -1.7714
  286MOL0     N38492  12.518   3.109   6.482 -0.8057 -0.2142 -0.7461
  286MOL0     C38493  12.601   3.036   6.558  0.9205 -0.6905  0.2616
  286MOL0     C38494  12.694   3.120   6.608 -1.0117  1.0618 -0.2311
  286MOL0     C38495  12.804   3.086   6.698  0.5483 -0.2195  0.5166
  286MOL0     C38496  12.780   3.145   6.840 -0.3866  0.6718 -0.0021
  286MOL0     C38497  12.664   3.109   6.906  0.8890  1.4356 -0.8111
  286MOL0     C38498  12.557   3.220   6.888  0.8926  0.3673 -0.4982
  286MOL0     O38499  12.473   3.252   7.003 -0.8049  0.3237 -0.1875
  286MOL0     C38500  12.410   3.148   7.056  0.5268 -0.1519 -0.0961
  286MOL0     C38501  12.346   3.042   6.994 -0.2399  0.1715 -0.6601
  286MOL0     C38502  12.269   2.939   7.056 -0.6147  0.1402  0.3913
  286MOL0     C38503  12.284   2.927   7.191 -0.1756 -0.1702 -0.9072
  286MOL0     C38504  12.212   2.812   7.266 -0.4802  0.1699 -0.1934
  286MOL0     O38505  12.144   2.721   7.184  0.7524  0.8731 -0.7754
  286MOL0     C38506  12.045   2.631   7.226  0.5090  0.2229  0.2509
  286MOL0     C38507  11.964   2.664   7.345 -0.3853  0.5089  0.3701
  286MOL0     C38508  11.869   2.562   7.385  0.0634  0.8968  0.5597
  286MOL0     C38509  11.860   2.431   7.326 -0.1632 -0.0753  0.5322
  286MOL0     O38510  11.773   2.325   7.364  0.1016 -0.8832 -0.5526
  286MOL0     C38511  11.690   2.343   7.473  0.4343 -0.0134  0.3786
  286MOL0     C38512  11.660   2.207   7.526  0.5935  0.2798  0.9145
  286MOL0     C38513  11.551   2.218   7.632 -0.0466  0.3638 -0.2943
  286MOL0     C38514  11.493   2.084   7.685 -0.9161  0.6996  0.1486
  286MOL0     C38515  11.403   2.095   7.808 -0.0350 -0.4026  0.6751
  286MOL0     C38516  11.318   1.967   7.823  0.4304  0.2677 -0.1403
  286MOL0     C38517  11.383   1.827   7.814 -0.4163 -0.2694  0.4738
  286MOL0     C38518  11.287   1.725   7.884 -0.1967  0.4275  0.1443
  286MOL0    Cl38519  11.384   1.579   7.933 -0.3507 -0.1186 -0.6133
  286MOL0     C38520  11.931   2.406   7.206 -0.7868  0.5242  0.9222
  286MOL0     C38521  12.024   2.507   7.162 -0.4356  0.1403  0.7103
  286MOL0     O38522  12.227   2.808   7.390  0.6227 -0.2176 -0.1685
  286MOL0     C38523  12.341   3.041   7.266  0.9597  0.5698  0.2835
  286MOL0     C38524  12.410   3.140   7.193 -0.8232  0.4582 -1.0234
  286MOL0     N38525  12.658   3.251   6.578 -0.3917 -0.4311 -0.9898
  286MOL0     N38526  12.560   3.235   6.501  0.5616  0.0404  0.2284
  286MOL0     C38527  11.704   2.850   7.237  0.3455 -0.4334  0.3324
  286MOL0     C38528  11.613   2.849   7.339  0.7260  0.4972  0.5585
  286MOL0     C38529  11.288   2.696   7.627  0.1049 -0.2211  0.2819
  286MOL0     C38530  11.191   2.796   7.629 -0.2610  0.8093 -0.1045
  286MOL0     C38531  11.126   2.839   7.743 -1.1126 -0.4271 -0.0854
  286MOL0     C38532  11.153   2.770   7.865  0.0587 -0.3812 -1.2580
  286MOL0     O38533  11.094   2.800   7.995  0.4422 -0.3085 -0.2651
  286MOL0     C38534  11.012   2.918   8.000 -0.2998  0.0565  0.4492
  286MOL0     C38535  11.103   3.035   8.018 -0.7286 -0.3666  0.6286
  286MOL0     C38536  11.188   3.032   8.147  0.1910  0.2364 -0.1580
  286MOL0     C38537  11.249   3.175   8.173 -0.2327 -0.2461  0.8691
  286MOL0     C38538  11.283   3.179   8.313  0.2250  0.4309 -0.1859
  286MOL0     C38539  11.335   3.185   8.422  0.2609 -0.0414  0.4942
  286MOL0     C38540  11.246   2.663   7.863 -0.3434 -0.6679  0.4626
  286MOL0     C38541  11.316   2.631   7.750  0.6919 -0.1196  0.0416
  286MOL0     C38542  11.424   2.530   7.779  0.0150 -0.5870  0.2139
  286MOL0     H38543  11.357   2.706   7.193  0.1750  0.7866 -1.5543
  286MOL0     H38544  11.528   2.670   7.000 -3.3162 -0.8844  2.1780
  286MOL0     H38545  11.778   2.582   6.959 -1.3079  1.4027  3.5846
  286MOL0     H38546  11.700   2.710   6.854  2.0210  2.0631 -2.9783
  286MOL0     H38547  11.915   2.626   6.772  0.3386 -2.3165  2.1162
  286MOL0     H38548  11.991   2.693   6.923 -0.6350  0.9057  1.5081
  286MOL0     H38549  11.917   2.922   6.861 -0.0167 -2.4410  2.0364
  286MOL0     H38550  11.852   2.869   6.708 -0.2177 -1.1058 -0.1278
  286MOL0     H38551  12.143   2.838   6.792 -0.0837 -1.9907 -1.2586
  286MOL0     H38552  12.078   2.763   6.650  0.1431 -0.2526 -1.5763
  286MOL0     H38553  12.034   2.970   6.544  4.4190 -0.4454 -4.0236
  286MOL0     H38554  12.081   3.055   6.701 -2.2952  0.8239 -0.1830
  286MOL0     H38555  12.307   3.009   6.664  0.3280 -2.3073  0.4985
  286MOL0     H38556  12.288   2.883   6.557  1.9356  1.5106 -0.3244
  286MOL0     H38557  12.265   3.195   6.512  2.4381 -1.0046  0.8972
  286MOL0     H38558  12.190   3.089   6.391 -1.8817  2.4702  0.3335
  286MOL0     H38559  12.423   2.962   6.375  2.4732 -0.0219 -1.3772
  286MOL0     H38560  12.414   3.118   6.301 -1.2594  3.0094 -0.1895
  286MOL0     H38561  12.600   2.928   6.565 -1.2188 -0.6617  1.0860
  286MOL0     H38562  12.825   2.979   6.707  0.8425 -0.5331 -2.5581
  286MOL0     H38563  12.893   3.140   6.663 -0.0431 -0.9017 -2.3564
  286MOL0     H38564  12.867   3.112   6.897  0.9165  0.8570 -1.7691
  286MOL0     H38565  12.797   3.253   6.827 -0.1621  0.8231  1.4331
  286MOL0     H38566  12.686   3.084   7.011  0.6194 -2.2539 -1.4988
  286MOL0     H38567  12.634   3.014   6.862 -0.1634  1.0256  0.7002
  286MOL0     H38568  12.490   3.202   6.804 -0.2119 -1.4242  0.6897
  286MOL0     H38569  12.591   3.322   6.868 -4.5989  3.1152  1.8814
  286MOL0     H38570  12.344   3.032   6.886 -2.2338 -0.2085 -0.6296
  286MOL0     H38571  12.226   2.861   6.995 -0.3921 -0.4145  0.9342
  286MOL0     H38572  11.979   2.753   7.404  3.3953 -0.0561  0.4575
  286MOL0     H38573  11.807   2.581   7.473 -3.7441 -1.6876 -1.2916
  286MOL0     H38574  11.736   2.402   7.553 -0.3125  2.1655 -0.7368
  286MOL0     H38575  11.602   2.402   7.447  2.3909  1.5069 -3.6184
  286MOL0     H38576  11.634   2.120   7.466 -1.4770  0.3014  1.7189
  286MOL0     H38577  11.748   2.169   7.580 -0.2075 -1.2560  1.1736
  286MOL0     H38578  11.588   2.286   7.710  0.4484  1.7438 -1.6782
  286MOL0     H38579  11.464   2.277   7.602 -0.2043  1.3319  1.8854
  286MOL0     H38580  11.585   2.026   7.702  0.7761  3.5068  1.3445
  286MOL0     H38581  11.443   2.039   7.599  3.3812 -0.8518 -1.8191
  286MOL0     H38582  11.341   2.185   7.806 -0.5283 -0.7515 -1.0940
  286MOL0     H38583  11.472   2.091   7.894  3.3346 -1.5714 -1.8588
  286MOL0     H38584  11.285   1.966   7.927 -1.2188  0.3350 -0.6261
  286MOL0     H38585  11.233   1.969   7.754 -1.9310 -1.5313  2.4639
  286MOL0     H38586  11.480   1.839   7.863 -0.4415 -0.7375  0.6362
  286MOL0     H38587  11.392   1.809   7.706 -0.2713 -2.7081  0.8506
  286MOL0     H38588  11.246   1.764   7.978  0.8707  1.7786  0.0778
  286MOL0     H38589  11.203   1.703   7.818  0.2221 -0.9954  0.0561
  286MOL0     H38590  11.929   2.309   7.156 -1.8355 -0.0647  2.0695
  286MOL0     H38591  12.086   2.502   7.073  1.5094  2.3022  1.8124
  286MOL0     H38592  12.330   3.035   7.374 -0.6281  1.0589  0.1856
  286MOL0     H38593  12.451   3.218   7.258 -1.0417  0.8254 -1.3240
  286MOL0     H38594  11.796   2.907   7.249 -0.6529  0.7690  3.4132
  286MOL0     H38595  11.643   2.913   7.421 -0.5559 -0.2192  1.6237
  286MOL0     H38596  11.181   2.860   7.542  1.1569 -1.6069 -2.2139
  286MOL0     H38597  11.047   2.911   7.727 -1.2186 -0.1899  1.3818
  286MOL0     H38598  10.950   2.917   8.090  2.4271 -0.3283  2.4361
  286MOL0     H38599  10.956   2.915   7.906  0.9977  0.3429 -0.3651
  286MOL0     H38600  11.036   3.121   8.012  2.3728  2.3588  1.9079
  286MOL0     H38601  11.171   3.048   7.933  0.3199 -1.6220  1.2527
  286MOL0     H38602  11.258   2.948   8.142 -1.0432 -0.7676 -1.5981
  286MOL0     H38603  11.118   3.008   8.227 -1.2233  0.8186 -1.1860
  286MOL0     H38604  11.341   3.192   8.116 -0.9069 -1.1427 -0.5435
  286MOL0     H38605  11.174   3.251   8.151 -3.1412 -4.0042 -4.3911
  286MOL0     H38606  11.376   3.190   8.521  3.5659  0.6973 -0.7831
  286MOL0     H38607  11.280   2.622   7.957  0.8788  0.8402  0.7262
  286MOL0     H38608  11.382   2.430   7.773 -1.0664 -0.0403 -3.0952
  286MOL0     H38609  11.501   2.549   7.704  0.5538  1.9986  1.2919
  286MOL0     H38610  11.476   2.551   7.873  1.8030  1.2122 -1.0856
  287MOL0     O38611   2.689   9.297   9.291 -0.0533 -0.0594 -0.5574
  287MOL0     C38612   2.764   9.209   9.328 -0.3308  0.0156 -0.7744
  287MOL0     O38613   2.898   9.206   9.308  1.0702 -0.0640  0.1351
  287MOL0     C38614   2.959   9.332   9.295 -0.0910  0.1544  0.3591
  287MOL0     C38615   3.041   9.354   9.192 -0.1586  0.5344 -0.2334
  287MOL0     C38616   3.102   9.483   9.174  0.0505  0.7498 -0.5106
  287MOL0     C38617   3.059   9.595   9.246  0.3576  0.4407  0.1564
  287MOL0     O38618   3.105   9.720   9.211 -0.2122 -0.5493 -0.0552
  287MOL0     C38619   3.099   9.815   9.316  0.2041  0.2377  0.4703
  287MOL0     C38620   3.218   9.906   9.311  0.4902  0.4760  0.6367
  287MOL0     C38621   3.233   9.973   9.447 -0.0192  0.4908  0.1694
  287MOL0     C38622   3.374  10.044   9.440 -0.3439 -0.4323  0.0586
  287MOL0     C38623   3.397  10.117   9.571 -0.1372 -0.3607  0.3807
  287MOL0     C38624   3.537  10.183   9.572 -0.7076 -0.4813 -0.2372
  287MOL0     C38625   3.535  10.328   9.519 -0.8312 -0.7722  0.2849
  287MOL0     C38626   3.681  10.379   9.504 -0.4579  0.1157  0.2076
  287MOL0     N38627   3.736  10.422   9.632 -1.0509  0.0071  0.3290
  287MOL0     C38628   3.769  10.344   9.745 -2.1651 -0.0923 -0.0568
  287MOL0     C38629   3.833  10.426   9.829 -0.0722 -0.1225 -0.8280
  287MOL0     C38630   3.889  10.377   9.960 -0.8289 -0.3463  0.6350
  287MOL0     C38631   3.782  10.375  10.076  0.8114  0.7100  0.0887
  287MOL0     C38632   3.755  10.513  10.140 -0.8237 -0.5063 -1.2068
  287MOL0     C38633   3.657  10.507  10.255 -0.0417 -0.3419 -0.3213
  287MOL0     O38634   3.531  10.443  10.230 -0.3505 -0.1127 -0.0770
  287MOL0     C38635   3.439  10.458  10.330  0.6367  0.3363 -0.3096
  287MOL0     C38636   3.309  10.418  10.312  0.3845 -0.4088  0.9875
  287MOL0     C38637   3.204  10.437  10.408  0.1397 -0.2881  0.9505
  287MOL0     C38638   3.234  10.483  10.529 -1.3604 -0.4861  0.3767
  287MOL0     C38639   3.147  10.508  10.642  0.1136 -0.4982 -0.1975
  287MOL0     O38640   3.200  10.505  10.771 -0.0377 -0.6112  0.8061
  287MOL0     C38641   3.107  10.511  10.874 -0.2986 -0.5816  0.4365
  287MOL0     C38642   3.041  10.393  10.908  0.0299 -0.9010  0.3619
  287MOL0     C38643   2.965  10.391  11.027  0.0460  1.4027  1.0433
  287MOL0     C38644   2.948  10.510  11.099 -0.7674 -0.2138  0.7704
  287MOL0     O38645   2.883  10.521  11.219  0.4791  0.2736  0.2080
  287MOL0     C38646   2.853  10.399  11.292 -0.2795 -0.6566 -0.6480
  287MOL0     C38647   2.763  10.440  11.405  0.4706  0.0148  0.2564
  287MOL0     C38648   2.619  10.464  11.354  0.0552  0.4262  0.0374
  287MOL0     C38649   2.512  10.439  11.467 -0.9169 -0.8236 -0.3207
  287MOL0     C38650   2.376  10.420  11.417  0.1454  0.7625 -0.8136
  287MOL0     C38651   2.264  10.423  11.520  0.5120  0.6456 -0.5498
  287MOL0     C38652   2.243  10.308  11.621 -1.0062  0.0786  0.4297
  287MOL0     C38653   2.184  10.181  11.563 -0.2113  0.3349 -0.5300
  287MOL0    Cl38654   2.127  10.080  11.701  0.3786  0.4645 -0.4660
  287MOL0     C38655   2.988  10.633  11.050 -0.4348  0.7919  0.4964
  287MOL0     C38656   3.075  10.634  10.939  0.8118  0.1354 -0.5827
  287MOL0     O38657   3.028  10.531  10.619 -0.0979  0.1104  0.1033
  287MOL0     C38658   3.371  10.518  10.562 -0.0736 -0.3710  0.0367
  287MOL0     C38659   3.471  10.512  10.458  0.3494  0.2444  0.4039
  287MOL0     N38660   3.815  10.560   9.780  0.7433  0.0016  0.1644
  287MOL0     N38661   3.767  10.553   9.662 -0.4070  0.7395  0.0842
  287MOL0     C38662   2.964   9.564   9.352 -0.5902  1.1705  0.0784
  287MOL0     C38663   2.922   9.439   9.375  0.6511 -0.4502  0.2428
  287MOL0     C38664   2.703   9.077   9.367  0.2262 -0.3783  0.5322
  287MOL0     C38665   2.561   9.066   9.367  0.2671  0.6057 -0.9210
  287MOL0     C38666   2.484   8.948   9.383  0.4780  0.3785  0.2722
  287MOL0     C38667   2.551   8.841   9.440 -0.1446 -0.6620  0.3987
  287MOL0     O38668   2.474   8.733   9.480 -0.3838  0.5660  0.1632
  287MOL0     C38669   2.535   8.614   9.531 -0.0949  0.3238 -0.0568
  287MOL0     C38670   2.399   8.530   9.548  0.8128 -1.0750  0.1816
  287MOL0     C38671   2.429   8.400   9.626  0.0961 -0.5283 -0.1942
  287MOL0     C38672   2.292   8.346   9.676 -0.4021 -0.2518 -0.0609
  287MOL0     C38673   2.295   8.213   9.726  1.3359  0.1915  0.6764
  287MOL0     C38674   2.292   8.091   9.759 -0.2981 -0.0413  0.3841
  287MOL0     C38675   2.691   8.855   9.468  1.2949  0.2989 -0.2689
  287MOL0     C38676   2.766   8.965   9.430 -0.9236  0.3704 -0.1167
  287MOL0     C38677   2.921   8.957   9.446  0.3567  0.1212 -0.8588
  287MOL0     H38678   3.091   9.271   9.143 -0.4688  1.3092 -1.9411
  287MOL0     H38679   3.171   9.500   9.091 -0.9997 -1.3081 -1.9116
  287MOL0     H38680   3.005   9.864   9.291 -0.3885 -1.1352 -0.1402
  287MOL0     H38681   3.093   9.771   9.416 -0.8306 -0.4444  0.1238
  287MOL0     H38682   3.212   9.980   9.231 -0.5262 -1.9554 -1.6888
  287MOL0     H38683   3.307   9.850   9.281  1.8532  2.7056  0.2654
  287MOL0     H38684   3.220   9.897   9.524 -2.0136 -1.4024 -1.8626
  287MOL0     H38685   3.148  10.039   9.466 -1.1882 -1.5672  2.7828
  287MOL0     H38686   3.451   9.967   9.429  1.0046  0.8676  0.1543
  287MOL0     H38687   3.377  10.116   9.358 -0.6015 -0.4592  0.0226
  287MOL0     H38688   3.320  10.193   9.584  1.7408  2.4177 -2.9577
  287MOL0     H38689   3.402  10.043   9.651  0.9477 -1.9622 -1.0698
  287MOL0     H38690   3.554  10.193   9.680 -0.8898 -4.0564  0.2505
  287MOL0     H38691   3.617  10.130   9.521  2.3184  1.5642  2.0654
  287MOL0     H38692   3.477  10.398   9.579  0.8320  0.1766  0.8436
  287MOL0     H38693   3.488  10.329   9.420 -3.4499  2.6888  1.3605
  287MOL0     H38694   3.751  10.306   9.462  3.4539  4.5507 -2.0288
  287MOL0     H38695   3.685  10.464   9.434  5.1355  1.9977  2.2306
  287MOL0     H38696   3.771  10.235   9.754  3.2454 -0.4425 -1.7899
  287MOL0     H38697   3.930  10.280   9.928 -0.1145  0.1144  0.1300
  287MOL0     H38698   3.970  10.442   9.993 -2.1963  2.7566 -1.6077
  287MOL0     H38699   3.685  10.332  10.047  0.6815  0.1127  1.3088
  287MOL0     H38700   3.808  10.307  10.158 -3.2613 -1.7858 -0.3837
  287MOL0     H38701   3.718  10.587  10.069 -1.4174  1.1527  0.7260
  287MOL0     H38702   3.840  10.564  10.186 -3.1599 -0.6516  4.0416
  287MOL0     H38703   3.626  10.607  10.287 -2.6844 -2.1079  3.4102
  287MOL0     H38704   3.708  10.443  10.328  1.2405  2.4870  1.4005
  287MOL0     H38705   3.280  10.370  10.219  0.8585 -0.6646  0.9654
  287MOL0     H38706   3.102  10.415  10.377  1.5352 -2.6616 -2.7405
  287MOL0     H38707   3.048  10.305  10.845 -1.8108 -0.2368 -0.8613
  287MOL0     H38708   2.933  10.292  11.056 -1.1061  1.1037 -1.0339
  287MOL0     H38709   2.822  10.320  11.223 -1.1777 -1.3754  0.5239
  287MOL0     H38710   2.948  10.367  11.337 -0.4616  1.3484  1.3157
  287MOL0     H38711   2.776  10.365  11.485  0.4279  2.0116  2.2427
  287MOL0     H38712   2.791  10.542  11.434 -5.4478  2.1417 -0.2442
  287MOL0     H38713   2.607  10.564  11.310  0.0103  0.7161  0.6971
  287MOL0     H38714   2.601  10.399  11.268  1.1259 -0.9034  0.7762
  287MOL0     H38715   2.517  10.518  11.541 -2.1265 -0.1214 -0.9645
  287MOL0     H38716   2.530  10.356  11.536 -1.9587 -1.2525 -0.5463
  287MOL0     H38717   2.360  10.333  11.352  4.5993 -0.5706 -0.4529
  287MOL0     H38718   2.343  10.502  11.353 -2.4321  1.7546  1.5814
  287MOL0     H38719   2.256  10.517  11.574 -1.4621  1.6062 -2.3497
  287MOL0     H38720   2.174  10.420  11.457  0.4134  1.4198 -0.4490
  287MOL0     H38721   2.165  10.345  11.688 -4.7726 -1.4051 -2.7325
  287MOL0     H38722   2.335  10.290  11.677 -0.8949 -0.4239  0.0920
  287MOL0     H38723   2.104  10.195  11.490 -2.6141 -1.2458  1.6351
  287MOL0     H38724   2.269  10.137  11.511  0.1730 -1.8050  1.7286
  287MOL0     H38725   2.994  10.723  11.110  2.9778  1.1462 -0.1906
  287MOL0     H38726   3.115  10.729  10.904  0.1413  1.4678  2.0135
  287MOL0     H38727   3.395  10.553  10.662 -2.4997  0.8737  0.2579
  287MOL0     H38728   3.573  10.545  10.475  0.5048  0.8079 -1.3873
  287MOL0     H38729   2.922   9.650   9.403  0.8831  1.1846  1.3663
  287MOL0     H38730   2.857   9.423   9.460  0.5707  1.1194  0.4994
  287MOL0     H38731   2.505   9.153   9.337  0.3331  0.6456 -0.9270
  287MOL0     H38732   2.378   8.950   9.360  0.3838  1.6431  0.7025
  287MOL0     H38733   2.595   8.631   9.621  3.5632 -2.5279 -1.7163
  287MOL0     H38734   2.595   8.566   9.454  0.3801  0.7799  0.0244
  287MOL0     H38735   2.365   8.505   9.447 -0.2090 -0.5138  0.3687
  287MOL0     H38736   2.324   8.595   9.594 -0.8613  0.1676 -3.8628
  287MOL0     H38737   2.496   8.421   9.709 -1.7310  2.6338  0.6730
  287MOL0     H38738   2.477   8.330   9.557  1.5801  0.8905 -0.6720
  287MOL0     H38739   2.260   8.411   9.758  4.0624  0.0028  1.7495
  287MOL0     H38740   2.223   8.341   9.591  1.3945  0.9061 -1.6787
  287MOL0     H38741   2.281   7.987   9.780  2.3066 -0.0779  1.9584
  287MOL0     H38742   2.745   8.775   9.519  0.9169  0.6489  0.7011
  287MOL0     H38743   2.945   9.045   9.507  0.6558 -0.1305 -0.6109
  287MOL0     H38744   2.954   8.875   9.511  1.5377 -0.0248 -1.6199
  287MOL0     H38745   2.981   8.947   9.355 -0.5342 -2.9162 -1.2210
  288MOL0     O38746   6.895   5.109  10.480  0.3437 -0.7712  0.1254
  288MOL0     C38747   6.792   5.060  10.431 -0.0591 -0.2694  0.4611
  288MOL0     O38748   6.785   4.940  10.375 -0.8554 -0.1594  0.2971
  288MOL0     C38749   6.899   4.872  10.357 -1.3995  0.9692 -0.7069
  288MOL0     C38750   6.941   4.774  10.454 -0.0867  0.8917  0.2300
  288MOL0     C38751   7.076   4.714  10.451 -0.8134  0.0790  0.5438
  288MOL0     C38752   7.151   4.731  10.330  0.0473 -0.9343  0.5133
  288MOL0     O38753   7.280   4.683  10.313 -0.7748  0.2611 -0.1274
  288MOL0     C38754   7.317   4.552  10.359  0.8146  0.0826 -0.5314
  288MOL0     C38755   7.209   4.435  10.338  0.6208 -0.8797  0.0888
  288MOL0     C38756   7.187   4.424  10.188 -0.6863 -0.9765 -0.5365
  288MOL0     C38757   7.264   4.322  10.110 -0.3612  0.3649 -0.0195
  288MOL0     C38758   7.208   4.313   9.961  0.1349 -0.1541 -0.5962
  288MOL0     C38759   7.264   4.184   9.906  0.4607  0.5200 -0.5948
  288MOL0     C38760   7.242   4.153   9.757  0.6341 -0.7091  0.3721
  288MOL0     C38761   7.110   4.077   9.721  0.6795  0.5099 -0.3656
  288MOL0     N38762   7.079   3.960   9.802 -0.1984  0.1066 -0.2030
  288MOL0     C38763   7.168   3.856   9.810 -0.4134  0.0298  0.4051
  288MOL0     C38764   7.100   3.764   9.880  0.4346  1.0658 -0.4504
  288MOL0     C38765   7.170   3.644   9.936  0.3764  0.2492 -0.5613
  288MOL0     C38766   7.231   3.666  10.077 -0.6854  0.3126  0.9643
  288MOL0     C38767   7.296   3.523  10.116  0.3402 -0.8498  0.2404
  288MOL0     C38768   7.362   3.532  10.255 -0.4367  0.6460 -0.5581
  288MOL0     O38769   7.465   3.643  10.251  0.3662 -0.8275 -0.1000
  288MOL0     C38770   7.486   3.692  10.373 -0.0636  0.0927  1.1564
  288MOL0     C38771   7.391   3.754  10.452  0.0986 -0.2462 -1.3225
  288MOL0     C38772   7.411   3.773  10.596 -0.5831 -0.0136  0.4571
  288MOL0     C38773   7.541   3.748  10.647  0.3831  0.0301 -0.3431
  288MOL0     C38774   7.574   3.786  10.788  0.6313  0.0976 -0.6287
  288MOL0     O38775   7.695   3.750  10.843  0.0924 -0.5080 -0.1596
  288MOL0     C38776   7.699   3.729  10.979 -0.0467  0.2721 -0.6990
  288MOL0     C38777   7.618   3.640  11.050 -0.0586  0.3030 -0.9960
  288MOL0     C38778   7.636   3.606  11.193  0.9729 -0.8022  0.1141
  288MOL0     C38779   7.738   3.662  11.261 -0.9312  0.0475 -1.2695
  288MOL0     O38780   7.750   3.625  11.397 -0.5443 -0.3321  0.4367
  288MOL0     C38781   7.878   3.636  11.455  0.4504 -0.0415  0.8564
  288MOL0     C38782   7.867   3.578  11.598  0.5559  0.9213 -0.0166
  288MOL0     C38783   7.975   3.488  11.650 -0.2069 -0.5680  0.7331
  288MOL0     C38784   8.121   3.545  11.638 -1.1345  0.1788 -0.2712
  288MOL0     C38785   8.226   3.454  11.705  0.4559  0.1503 -0.3541
  288MOL0     C38786   8.202   3.429  11.858 -0.2781 -0.3000  0.2560
  288MOL0     C38787   8.334   3.388  11.926 -0.6471 -0.1842  0.0525
  288MOL0     C38788   8.440   3.495  11.934 -0.6431 -0.3679 -0.7365
  288MOL0    Cl38789   8.573   3.451  12.050  0.1152  0.4270  0.1011
  288MOL0     C38790   7.820   3.753  11.194 -0.4014  0.1739 -0.0203
  288MOL0     C38791   7.797   3.790  11.056 -0.5492  0.8490 -0.3163
  288MOL0     O38792   7.478   3.834  10.857  0.5869 -0.3380  0.9616
  288MOL0     C38793   7.639   3.696  10.565 -0.5323 -0.0080 -0.1277
  288MOL0     C38794   7.612   3.659  10.435  0.8507 -0.8305  0.4912
  288MOL0     N38795   6.972   3.812   9.903 -0.7545  0.1086  0.0255
  288MOL0     N38796   6.961   3.931   9.864  0.4898 -0.1415  0.4348
  288MOL0     C38797   7.105   4.824  10.238  0.1671  0.9403  0.0815
  288MOL0     C38798   6.988   4.894  10.253 -0.7083  0.8779  0.9343
  288MOL0     C38799   6.666   5.141  10.427  0.1327  0.3590 -0.9536
  288MOL0     C38800   6.641   5.206  10.547  0.5455 -1.2127 -0.1227
  288MOL0     C38801   6.528   5.276  10.579 -0.5436 -0.0466  0.4672
  288MOL0     C38802   6.433   5.299  10.480 -0.4913 -0.2025  0.2552
  288MOL0     O38803   6.326   5.379  10.484  0.1174 -0.3885  0.2542
  288MOL0     C38804   6.266   5.377  10.614 -0.2030 -0.1613 -0.0915
  288MOL0     C38805   6.118   5.370  10.596  0.1209 -0.0951  0.1446
  288MOL0     C38806   6.056   5.375  10.733 -0.3848 -0.5050 -0.2521
  288MOL0     C38807   5.909   5.367  10.720 -0.0621 -1.2230  0.1929
  288MOL0     C38808   5.834   5.353  10.845 -0.0703  0.3333 -0.3175
  288MOL0     C38809   5.779   5.336  10.953 -0.9401 -0.5171 -0.3889
  288MOL0     C38810   6.465   5.243  10.354  0.2628 -0.0785  0.0453
  288MOL0     C38811   6.570   5.162  10.323 -0.1557 -0.3318  0.5025
  288MOL0     C38812   6.592   5.101  10.177  0.5343 -0.0863 -0.4044
  288MOL0     H38813   6.873   4.763  10.538  0.3799  0.4541  0.5615
  288MOL0     H38814   7.107   4.645  10.528 -1.6468  0.9327  1.6836
  288MOL0     H38815   7.411   4.525  10.310  2.4309  0.8804  1.9219
  288MOL0     H38816   7.339   4.570  10.465 -2.2496 -2.6686  0.7395
  288MOL0     H38817   7.117   4.468  10.387  0.6294  0.3817 -0.7031
  288MOL0     H38818   7.245   4.336  10.367  3.0629 -0.7245 -2.0564
  288MOL0     H38819   7.201   4.522  10.142  0.6613 -0.3635  1.0686
  288MOL0     H38820   7.081   4.398  10.177 -0.4404 -1.2918 -2.7213
  288MOL0     H38821   7.366   4.356  10.089 -0.8230 -0.7361 -5.4680
  288MOL0     H38822   7.261   4.222  10.155 -0.1935 -1.1306 -3.0959
  288MOL0     H38823   7.100   4.307   9.977  0.2462  2.1686  1.7380
  288MOL0     H38824   7.236   4.393   9.892 -0.6043  0.3457 -0.3275
  288MOL0     H38825   7.371   4.206   9.910  0.0546  3.2185 -2.2005
  288MOL0     H38826   7.237   4.100   9.971  1.7899 -0.8779 -1.7560
  288MOL0     H38827   7.327   4.095   9.721 -0.1690 -1.6410 -0.0659
  288MOL0     H38828   7.242   4.249   9.705 -0.4105 -2.3791 -3.0005
  288MOL0     H38829   7.026   4.146   9.733 -1.1265 -1.3773 -1.5289
  288MOL0     H38830   7.112   4.050   9.615  0.5353  1.6391 -0.6700
  288MOL0     H38831   7.273   3.860   9.779 -0.8251 -0.8256 -1.2665
  288MOL0     H38832   7.093   3.569   9.953  0.1938  0.9267  2.1992
  288MOL0     H38833   7.258   3.618   9.876  2.9910  2.2487  2.0590
  288MOL0     H38834   7.309   3.740  10.060  0.2636 -1.0250 -0.7829
  288MOL0     H38835   7.157   3.695  10.152  1.5072 -2.5675  4.5905
  288MOL0     H38836   7.368   3.511  10.035  1.4679  1.4548  0.8226
  288MOL0     H38837   7.223   3.442  10.121 -0.0197 -0.4502  2.1401
  288MOL0     H38838   7.402   3.432  10.276  2.8478  2.4173  2.5811
  288MOL0     H38839   7.285   3.552  10.330  0.2047  0.1106  0.2595
  288MOL0     H38840   7.291   3.772  10.415 -1.6557 -2.4345  1.8250
  288MOL0     H38841   7.327   3.818  10.647 -1.4789 -1.3137  0.1870
  288MOL0     H38842   7.537   3.584  11.004 -0.5284 -1.6740  1.9610
  288MOL0     H38843   7.560   3.542  11.236 -0.0716  0.3270 -0.0061
  288MOL0     H38844   7.952   3.575  11.404 -0.4105 -0.1937 -0.2398
  288MOL0     H38845   7.896   3.743  11.446 -1.6886  0.2249 -0.7916
  288MOL0     H38846   7.857   3.659  11.672 -0.5684  1.5175 -0.8030
  288MOL0     H38847   7.780   3.512  11.597 -0.3521  1.8678  3.2200
  288MOL0     H38848   7.943   3.474  11.753 -0.9977 -0.0974  0.5564
  288MOL0     H38849   7.968   3.395  11.592  3.9856  0.8368 -2.6292
  288MOL0     H38850   8.127   3.644  11.685 -1.6100  0.9589 -1.7835
  288MOL0     H38851   8.144   3.562  11.533 -0.3350 -1.2743 -0.3453
  288MOL0     H38852   8.324   3.496  11.680  0.4418 -0.6078 -1.8607
  288MOL0     H38853   8.220   3.363  11.644 -2.5413  0.6426 -0.9331
  288MOL0     H38854   8.170   3.523  11.904  0.2170 -0.1216  0.2517
  288MOL0     H38855   8.126   3.354  11.881  0.8642 -0.6915  3.2092
  288MOL0     H38856   8.372   3.299  11.876 -4.4746  0.8028 -5.6976
  288MOL0     H38857   8.309   3.355  12.027 -0.9978 -0.1749 -0.0275
  288MOL0     H38858   8.478   3.499  11.832  1.7527 -1.2791  0.0515
  288MOL0     H38859   8.404   3.598  11.946  1.8919  0.5909 -0.7377
  288MOL0     H38860   7.907   3.805  11.233 -0.2249  3.2998 -3.9856
  288MOL0     H38861   7.875   3.856  11.019  0.5609 -1.8990 -3.4838
  288MOL0     H38862   7.733   3.660  10.607 -0.7929 -1.9383 -1.0884
  288MOL0     H38863   7.691   3.610  10.379 -0.7749 -0.7671 -2.0034
  288MOL0     H38864   7.173   4.831  10.154  1.4926 -2.4697  0.6959
  288MOL0     H38865   6.963   4.977  10.187 -0.5820  2.7830  3.1769
  288MOL0     H38866   6.722   5.205  10.620  1.8010  1.2984 -1.3629
  288MOL0     H38867   6.519   5.319  10.678  0.2059 -0.9074  0.9240
  288MOL0     H38868   6.296   5.471  10.662  0.3888  0.2586 -1.2357
  288MOL0     H38869   6.296   5.298  10.683 -0.3344  0.4760  0.7056
  288MOL0     H38870   6.081   5.272  10.564  0.9549  0.1808 -1.8317
  288MOL0     H38871   6.079   5.452  10.536  0.8724 -0.5812 -1.0539
  288MOL0     H38872   6.093   5.464  10.785  1.1210 -0.7850 -0.7768
  288MOL0     H38873   6.092   5.299  10.803  4.4781  0.0406 -1.7556
  288MOL0     H38874   5.865   5.452  10.668 -0.8692 -2.4974 -1.3093
  288MOL0     H38875   5.901   5.281  10.652  4.5859 -3.1227  1.6049
  288MOL0     H38876   5.723   5.305  11.039 -0.7958  1.0510  0.3070
  288MOL0     H38877   6.391   5.266  10.279 -0.3940  0.9358  0.9738
  288MOL0     H38878   6.674   5.028  10.179 -0.3340 -1.1536 -1.8448
  288MOL0     H38879   6.503   5.060  10.129  2.3928 -0.0077 -4.2636
  288MOL0     H38880   6.628   5.186  10.119 -1.1092 -0.1054 -1.5017
  289MOL0     O38881   7.259  11.293   7.204  0.2023 -0.3320  1.1073
  289MOL0     C38882   7.374  11.269   7.234 -0.5046  1.1894  0.0720
  289MOL0     O38883   7.408  11.156   7.314  0.3036  0.2312  0.1413
  289MOL0     C38884   7.316  11.050   7.342  0.5473  0.1036  0.2722
  289MOL0     C38885   7.351  10.912   7.344  0.1598  0.1632  0.2358
  289MOL0     C38886   7.268  10.810   7.379 -0.4760 -0.5104  0.4540
  289MOL0     C38887   7.137  10.837   7.408  0.0513  0.3395 -0.6672
  289MOL0     O38888   7.055  10.737   7.458 -0.0572 -0.7665 -0.0845
  289MOL0     C38889   7.077  10.741   7.601  0.2907  0.8382 -0.7519
  289MOL0     C38890   6.976  10.641   7.648  0.5558  0.5201  0.5521
  289MOL0     C38891   6.992  10.617   7.801 -0.2903 -0.5476  0.5764
  289MOL0     C38892   6.933  10.490   7.848  0.2699 -0.7044  0.3906
  289MOL0     C38893   6.784  10.501   7.884 -0.1841 -0.5761  0.1571
  289MOL0     C38894   6.759  10.558   8.030  0.2606 -0.7145  0.7317
  289MOL0     C38895   6.825  10.468   8.137 -0.1357 -0.3146  0.1609
  289MOL0     C38896   6.767  10.498   8.282 -0.9121 -0.0375  0.0119
  289MOL0     N38897   6.828  10.407   8.378  0.8477  0.0943  0.0158
  289MOL0     C38898   6.899  10.455   8.488 -0.8282 -0.1889  0.7077
  289MOL0     C38899   6.949  10.343   8.556 -0.1862  0.5233 -0.5959
  289MOL0     C38900   7.034  10.353   8.684  0.2126 -0.8564  0.3119
  289MOL0     C38901   7.011  10.232   8.772  0.0267 -0.2183  0.5383
  289MOL0     C38902   7.105  10.226   8.897 -0.8069 -0.3059 -0.0853
  289MOL0     C38903   7.023  10.172   9.018 -0.5280 -0.2629  0.1095
  289MOL0     O38904   7.030  10.020   9.032 -0.3734 -0.5551 -0.6671
  289MOL0     C38905   7.149   9.973   9.083 -0.2680 -0.4331 -0.0519
  289MOL0     C38906   7.182   9.851   9.048  0.0593  0.0213 -0.5845
  289MOL0     C38907   7.306   9.793   9.084  0.0388 -0.5205  0.8763
  289MOL0     C38908   7.402   9.869   9.147 -0.1123 -0.8615 -1.3935
  289MOL0     C38909   7.538   9.808   9.167 -0.4889  0.3475 -0.3467
  289MOL0     O38910   7.629   9.883   9.237  0.1915 -0.6841  0.4595
  289MOL0     C38911   7.758   9.829   9.265  0.1872  0.2909  0.5896
  289MOL0     C38912   7.758   9.709   9.326  0.1250  0.6271 -0.2739
  289MOL0     C38913   7.870   9.675   9.384 -0.3006  1.1388 -0.7298
  289MOL0     C38914   7.993   9.745   9.375  0.3410  0.0269  0.6828
  289MOL0     O38915   8.116   9.693   9.417  0.6298 -0.5865 -0.3061
  289MOL0     C38916   8.219   9.783   9.460  0.6970  0.3989 -0.7044
  289MOL0     C38917   8.353   9.721   9.495 -0.6765 -0.7658  0.3994
  289MOL0     C38918   8.448   9.717   9.372  0.1679  0.8844  0.3477
  289MOL0     C38919   8.397   9.639   9.248 -0.7801 -0.4154 -0.2949
  289MOL0     C38920   8.512   9.637   9.142 -0.3871  0.8116 -0.5226
  289MOL0     C38921   8.464   9.633   8.993  0.2831 -0.5880 -0.7054
  289MOL0     C38922   8.395   9.502   8.960 -0.4715 -0.6219  0.5387
  289MOL0     C38923   8.412   9.493   8.804  0.3754  0.5674 -0.2465
  289MOL0    Cl38924   8.571   9.467   8.745  0.1820 -0.0325  0.6368
  289MOL0     C38925   7.993   9.846   9.283  0.3538  0.6763 -0.3328
  289MOL0     C38926   7.875   9.897   9.239 -0.1474  0.1226  0.1645
  289MOL0     O38927   7.563   9.704   9.108  0.3615  0.7886  0.5341
  289MOL0     C38928   7.369   9.995   9.191 -0.4225  0.1395 -0.4540
  289MOL0     C38929   7.245  10.041   9.153  0.5016  1.1809  0.0430
  289MOL0     N38930   6.893  10.235   8.502 -0.1261  0.3537 -0.0808
  289MOL0     N38931   6.830  10.267   8.387  0.2306  0.5216  0.3281
  289MOL0     C38932   7.091  10.977   7.404 -0.4522 -0.6452  0.9905
  289MOL0     C38933   7.176  11.077   7.369  0.6007  0.2252  0.1260
  289MOL0     C38934   7.485  11.353   7.172  0.4425  0.0902 -0.8749
  289MOL0     C38935   7.443  11.454   7.079 -0.0591 -0.3521 -0.8835
  289MOL0     C38936   7.538  11.550   7.029  0.5944 -0.7362  0.7786
  289MOL0     C38937   7.669  11.560   7.059  0.0244 -0.7058  0.3908
  289MOL0     O38938   7.763  11.655   7.019  0.1328 -0.1553 -0.0900
  289MOL0     C38939   7.728  11.766   6.933  0.0326 -0.1304  0.1555
  289MOL0     C38940   7.839  11.861   6.897 -0.3587  0.0270  0.6276
  289MOL0     C38941   7.931  11.789   6.796  0.1786 -0.6971  0.2243
  289MOL0     C38942   8.062  11.876   6.770  0.1139  0.5316  0.4863
  289MOL0     C38943   8.164  11.867   6.881  0.9097  0.0537  0.9114
  289MOL0     C38944   8.248  11.839   6.965  0.8109  0.8393 -0.1568
  289MOL0     C38945   7.711  11.462   7.156 -0.0929  0.1709 -0.1949
  289MOL0     C38946   7.621  11.366   7.209 -0.5805  0.9579 -0.4501
  289MOL0     C38947   7.685  11.265   7.308  0.7186  0.1931  0.2618
  289MOL0     H38948   7.457  10.910   7.322  0.4086  0.8603  1.2937
  289MOL0     H38949   7.309  10.710   7.384  0.9997  0.0531  0.2343
  289MOL0     H38950   7.179  10.720   7.635  1.2427  5.2652 -0.2368
  289MOL0     H38951   7.049  10.838   7.643  1.3788  0.2329  1.4906
  289MOL0     H38952   6.992  10.547   7.596 -4.1668 -0.5871  0.5971
  289MOL0     H38953   6.878  10.673   7.612  1.5378  1.1188 -1.7505
  289MOL0     H38954   6.947  10.703   7.851 -1.1217 -0.2282 -0.6607
  289MOL0     H38955   7.098  10.610   7.827  1.0560  2.9590 -2.9095
  289MOL0     H38956   6.949  10.405   7.781  2.9124 -0.0441  0.0838
  289MOL0     H38957   6.994  10.463   7.935  0.0150 -1.0403  0.4694
  289MOL0     H38958   6.723  10.558   7.813  0.4852  1.1295  0.8973
  289MOL0     H38959   6.738  10.402   7.892 -1.1333 -0.0134  2.9676
  289MOL0     H38960   6.826  10.645   8.032 -1.3121  0.5232  1.2753
  289MOL0     H38961   6.655  10.586   8.049 -0.1252  0.8264 -2.7620
  289MOL0     H38962   6.932  10.488   8.147 -0.0693  0.0232 -1.0301
  289MOL0     H38963   6.813  10.361   8.119 -0.2183 -0.2904  0.0688
  289MOL0     H38964   6.782  10.605   8.301 -2.0489 -0.1030  1.4425
  289MOL0     H38965   6.660  10.478   8.269 -0.2063 -3.3268 -2.0283
  289MOL0     H38966   6.928  10.555   8.517  1.2378 -0.8941  1.2707
  289MOL0     H38967   7.138  10.350   8.651  1.0307 -0.3829  2.6500
  289MOL0     H38968   7.025  10.448   8.738  2.9174  0.5410 -1.4798
  289MOL0     H38969   6.904  10.241   8.789  0.3549 -1.4645  4.0541
  289MOL0     H38970   7.025  10.148   8.703 -4.6341 -1.0299  0.2717
  289MOL0     H38971   7.146  10.324   8.920 -3.2791  2.1045 -4.6065
  289MOL0     H38972   7.183  10.152   8.874  0.9744  0.1886  3.7023
  289MOL0     H38973   6.923  10.214   9.006 -0.2074  0.3582 -0.4678
  289MOL0     H38974   7.049  10.231   9.106 -3.2456  1.2711  0.0124
  289MOL0     H38975   7.111   9.790   8.994 -1.2647  0.9415  0.0755
  289MOL0     H38976   7.328   9.690   9.054  1.2189  0.1532 -0.7347
  289MOL0     H38977   7.666   9.657   9.350  1.1906 -1.6689 -0.8384
  289MOL0     H38978   7.863   9.582   9.440 -1.0624  1.3078 -0.5405
  289MOL0     H38979   8.236   9.863   9.387  3.5110  0.8211  0.2882
  289MOL0     H38980   8.176   9.813   9.556  2.4627 -2.5715  1.1991
  289MOL0     H38981   8.398   9.781   9.575 -1.3838 -0.4199  0.5507
  289MOL0     H38982   8.338   9.621   9.536  1.3439 -0.8156  1.1040
  289MOL0     H38983   8.468   9.818   9.336 -1.9087  1.2639  0.1458
  289MOL0     H38984   8.545   9.673   9.397  0.5198  2.0292  1.0615
  289MOL0     H38985   8.313   9.690   9.199 -1.3086  1.2793  2.1753
  289MOL0     H38986   8.373   9.535   9.272  2.1319 -0.8035  1.4603
  289MOL0     H38987   8.565   9.546   9.172 -1.1510  0.1214 -1.2012
  289MOL0     H38988   8.577   9.724   9.156  0.7255 -0.2301  1.1153
  289MOL0     H38989   8.396   9.718   8.979  2.3317  1.5389  1.2517
  289MOL0     H38990   8.551   9.657   8.931  0.2750  2.8910  0.4086
  289MOL0     H38991   8.289   9.516   8.981 -1.1303 -0.7001 -2.3620
  289MOL0     H38992   8.435   9.412   9.007  1.6134 -1.2698 -2.1776
  289MOL0     H38993   8.349   9.407   8.779  2.3657 -1.8311  2.3230
  289MOL0     H38994   8.368   9.573   8.743  0.9484  0.0723 -1.3358
  289MOL0     H38995   8.086   9.894   9.254  0.7447  1.1752  1.6256
  289MOL0     H38996   7.869   9.980   9.168  2.6768 -0.2557 -0.6305
  289MOL0     H38997   7.444  10.058   9.237  3.2783 -0.3793 -5.0718
  289MOL0     H38998   7.209  10.137   9.190  1.5682  1.5370  0.1803
  289MOL0     H38999   6.986  10.992   7.426 -0.2506  2.2003  0.4876
  289MOL0     H39000   7.139  11.179   7.363  4.4108  1.6737 -1.9264
  289MOL0     H39001   7.344  11.469   7.036  0.0590  0.7567 -0.7853
  289MOL0     H39002   7.512  11.621   6.951 -0.2234 -0.2651  1.4732
  289MOL0     H39003   7.653  11.830   6.981  2.4562  0.9550  2.8311
  289MOL0     H39004   7.688  11.723   6.841 -4.4427  2.2312  0.7330
  289MOL0     H39005   7.889  11.886   6.991 -2.2930  0.7813  1.5080
  289MOL0     H39006   7.788  11.945   6.850  0.5193  0.1153 -0.2039
  289MOL0     H39007   7.888  11.782   6.695  1.9264 -3.8279 -0.4245
  289MOL0     H39008   7.948  11.687   6.831 -1.4220 -1.5392 -1.3004
  289MOL0     H39009   8.103  11.835   6.678  3.6942  1.2072  1.6195
  289MOL0     H39010   8.042  11.980   6.740 -0.3929 -0.4652 -3.0686
  289MOL0     H39011   8.327  11.808   7.030 -0.6508 -0.7902  0.9437
  289MOL0     H39012   7.814  11.463   7.191  0.2216  2.7181 -1.0060
  289MOL0     H39013   7.794  11.259   7.296  1.0990  0.1949  3.1375
  289MOL0     H39014   7.670  11.311   7.406 -1.9852  1.1665 -0.5181
  289MOL0     H39015   7.649  11.162   7.308 -0.7813  0.6949 -0.2865
  290MOL0     O39016  11.213   6.570   0.590  0.3479 -0.1209  0.3270
  290MOL0     C39017  11.280   6.493   0.525 -0.2600  0.2830 -0.8313
  290MOL0     O39018  11.282   6.358   0.551  0.8231  0.5269 -0.3862
  290MOL0     C39019  11.215   6.306   0.654 -0.7364 -0.1048 -0.0669
  290MOL0     C39020  11.089   6.251   0.645  0.9824 -0.5692 -0.0899
  290MOL0     C39021  11.027   6.185   0.753  0.2389 -0.0851  0.0881
  290MOL0     C39022  11.091   6.160   0.874 -0.0750  0.4150  0.0564
  290MOL0     O39023  11.025   6.072   0.953  0.1702 -0.0650 -0.0363
  290MOL0     C39024  11.069   6.058   1.096  0.8266 -0.8236  0.2314
  290MOL0     C39025  11.032   6.195   1.164 -0.6528  0.4200 -0.5950
  290MOL0     C39026  11.062   6.192   1.314 -0.5191  0.3885 -0.6818
  290MOL0     C39027  10.956   6.158   1.412  0.5219 -1.2965  0.0307
  290MOL0     C39028  11.001   6.169   1.554 -0.7850  0.4701  0.5258
  290MOL0     C39029  11.087   6.055   1.599 -0.5566 -0.4370  0.2248
  290MOL0     C39030  11.124   6.068   1.738  0.1145 -0.0423  0.0546
  290MOL0     C39031  11.015   6.077   1.845  0.5400 -0.4539  0.1106
  290MOL0     N39032  10.989   5.949   1.912 -0.3013 -0.2478  0.4656
  290MOL0     C39033  11.000   5.928   2.046 -0.6430 -0.7117  0.0176
  290MOL0     C39034  10.925   5.813   2.074 -0.2615 -0.7964 -0.9508
  290MOL0     C39035  10.894   5.756   2.211 -0.6822 -0.1783  0.0299
  290MOL0     C39036  10.968   5.816   2.331  0.4658 -0.4084  0.2464
  290MOL0     C39037  10.965   5.730   2.461 -0.1648 -0.0622 -1.0337
  290MOL0     C39038  10.828   5.683   2.492  0.5615 -0.0075 -0.6188
  290MOL0     O39039  10.806   5.605   2.615  0.9259 -0.1361  0.2432
  290MOL0     C39040  10.846   5.472   2.617  0.3411  0.1105 -0.7042
  290MOL0     C39041  10.919   5.409   2.516  0.3655 -0.2347 -0.2237
  290MOL0     C39042  10.966   5.280   2.533  0.3860 -0.2601 -0.6613
  290MOL0     C39043  10.949   5.217   2.662 -0.1420  0.9168  0.8984
  290MOL0     C39044  11.010   5.079   2.691 -0.4219  0.6505 -0.2305
  290MOL0     O39045  11.000   5.007   2.807  0.0824  0.2964 -0.2985
  290MOL0     C39046  11.049   4.879   2.811 -1.0741  0.7171 -0.1498
  290MOL0     C39047  10.968   4.770   2.771  0.2593 -0.6357  0.0445
  290MOL0     C39048  11.023   4.638   2.764  0.6636 -0.3292 -0.8722
  290MOL0     C39049  11.148   4.612   2.805  0.2707 -0.8373  0.7436
  290MOL0     O39050  11.178   4.485   2.814 -0.3350  0.3440 -0.1320
  290MOL0     C39051  11.314   4.446   2.798  0.0418 -0.0512  0.0869
  290MOL0     C39052  11.305   4.296   2.778 -0.8619  0.0585  0.7702
  290MOL0     C39053  11.441   4.229   2.763 -0.5195  0.0626 -0.5561
  290MOL0     C39054  11.418   4.085   2.750 -0.1802  0.1182  0.0744
  290MOL0     C39055  11.548   4.004   2.765 -0.0678  1.0644  0.0418
  290MOL0     C39056  11.586   4.000   2.912 -0.3959 -0.2385 -0.6207
  290MOL0     C39057  11.726   3.938   2.935 -0.6746 -1.5254 -0.2700
  290MOL0     C39058  11.762   3.937   3.077 -0.6939  1.1139  0.5713
  290MOL0    Cl39059  11.797   4.101   3.135 -0.2129 -0.0789 -0.4560
  290MOL0     C39060  11.229   4.717   2.857  1.2508 -0.0146  0.3324
  290MOL0     C39061  11.183   4.846   2.863  0.0099 -0.0506 -0.3380
  290MOL0     O39062  11.064   5.028   2.588 -0.4276 -0.0107  0.6648
  290MOL0     C39063  10.877   5.279   2.764 -0.0315  0.9811  0.0066
  290MOL0     C39064  10.812   5.395   2.733  0.2880  0.1398 -0.2685
  290MOL0     N39065  10.889   5.767   1.950  1.1970  0.3199 -1.3772
  290MOL0     N39066  10.912   5.853   1.858  0.8560  0.6490 -1.5322
  290MOL0     C39067  11.210   6.224   0.882 -0.3495 -0.0904  0.2332
  290MOL0     C39068  11.277   6.298   0.780  0.1842 -0.4179 -0.2965
  290MOL0     C39069  11.376   6.560   0.437  0.0608 -1.1161 -0.6080
  290MOL0     C39070  11.371   6.710   0.435  0.1504 -0.0057 -0.1329
  290MOL0     C39071  11.459   6.767   0.345  0.0666 -0.5625 -0.0681
  290MOL0     C39072  11.557   6.695   0.277 -0.1718 -1.1467  0.3172
  290MOL0     O39073  11.663   6.749   0.202  0.7757 -1.0796 -0.0755
  290MOL0     C39074  11.655   6.888   0.158 -0.0966 -0.5352 -0.3511
  290MOL0     C39075  11.704   6.997   0.263  0.1689  0.1511  0.3826
  290MOL0     C39076  11.851   6.948   0.287  1.1516 -0.6469 -1.2420
  290MOL0     C39077  11.932   7.040   0.385  0.5301 -0.0938 -0.7424
  290MOL0     C39078  11.893   7.179   0.393 -0.3860  0.1680 -0.4352
  290MOL0     C39079  11.872   7.297   0.378 -0.0260  0.3069 -0.0714
  290MOL0     C39080  11.571   6.563   0.299 -0.5990  0.1083 -0.6529
  290MOL0     C39081  11.483   6.492   0.376  0.9920  0.2930  0.7423
  290MOL0     C39082  11.493   6.342   0.380  0.2484 -0.1649  0.0714
  290MOL0     H39083  11.046   6.282   0.551  1.7957 -1.2892 -0.7108
  290MOL0     H39084  10.928   6.149   0.729 -0.9179  2.3053  0.9981
  290MOL0     H39085  11.029   5.968   1.143  2.3866 -0.6090  2.0751
  290MOL0     H39086  11.177   6.043   1.100  0.7962 -3.4124 -3.5235
  290MOL0     H39087  10.928   6.225   1.152 -1.6130 -1.1723  2.6639
  290MOL0     H39088  11.101   6.271   1.125 -1.0256  2.5359  2.5190
  290MOL0     H39089  11.085   6.294   1.344  0.6882  0.6301 -2.3344
  290MOL0     H39090  11.155   6.138   1.332  1.1656  3.5864  1.0984
  290MOL0     H39091  10.882   6.235   1.387  2.5923  0.7917 -0.0364
  290MOL0     H39092  10.919   6.057   1.394  0.1127 -0.9370 -1.3370
  290MOL0     H39093  11.047   6.268   1.563 -1.9946  0.8374  6.1979
  290MOL0     H39094  10.904   6.184   1.603 -1.9958  0.1855 -1.6769
  290MOL0     H39095  11.035   5.960   1.585 -3.4439  1.0389  0.2932
  290MOL0     H39096  11.176   6.063   1.535 -1.5512  3.2737 -1.0028
  290MOL0     H39097  11.171   6.167   1.746  0.2847 -0.2641  2.1798
  290MOL0     H39098  11.199   5.993   1.764  2.5092  1.7337 -1.2016
  290MOL0     H39099  11.040   6.155   1.918 -0.0433  0.4165 -0.5915
  290MOL0     H39100  10.921   6.107   1.797  0.5954  0.8635  0.7625
  290MOL0     H39101  11.055   5.992   2.115 -1.8237  1.7853 -1.2257
  290MOL0     H39102  10.785   5.752   2.221 -0.8236 -2.5841 -1.6222
  290MOL0     H39103  10.930   5.653   2.200 -0.3806 -0.0431 -0.2307
  290MOL0     H39104  11.070   5.854   2.317 -0.3755  1.5449 -0.9808
  290MOL0     H39105  10.924   5.915   2.350  0.1620 -0.8361  1.9348
  290MOL0     H39106  10.982   5.797   2.547 -0.1199 -0.0384 -1.0617
  290MOL0     H39107  11.034   5.645   2.461  0.6645  0.5508 -3.3404
  290MOL0     H39108  10.792   5.628   2.405  1.8732 -1.2746 -0.3985
  290MOL0     H39109  10.766   5.773   2.487  2.3944  1.4963  1.5770
  290MOL0     H39110  10.945   5.452   2.420 -0.3839  0.5668 -0.0800
  290MOL0     H39111  11.017   5.239   2.446  0.8860  0.5151 -0.7397
  290MOL0     H39112  10.870   4.797   2.734 -1.1027 -5.1998 -0.2953
  290MOL0     H39113  10.966   4.553   2.727 -0.8136 -0.2752  1.1473
  290MOL0     H39114  11.369   4.493   2.716  1.5423 -1.5051  0.2136
  290MOL0     H39115  11.372   4.472   2.887  0.7336  0.1539 -0.4136
  290MOL0     H39116  11.256   4.246   2.862  1.0539  0.5979  2.2824
  290MOL0     H39117  11.248   4.275   2.687  0.6330  0.1410 -0.2214
  290MOL0     H39118  11.504   4.259   2.678  3.7138 -2.5282  1.3407
  290MOL0     H39119  11.506   4.252   2.847 -2.0131 -0.4022  0.7708
  290MOL0     H39120  11.366   4.065   2.656 -4.6954 -0.4639  2.4041
  290MOL0     H39121  11.340   4.049   2.818  0.6740 -1.0357  0.4810
  290MOL0     H39122  11.617   4.045   2.691  0.4195  0.7146  0.3012
  290MOL0     H39123  11.527   3.902   2.731  1.1906  0.5173  0.8383
  290MOL0     H39124  11.579   4.101   2.955 -1.4147  0.4727 -2.3547
  290MOL0     H39125  11.514   3.939   2.967  0.2037  0.1529  0.6417
  290MOL0     H39126  11.801   3.992   2.877  0.5699 -1.2081  1.5840
  290MOL0     H39127  11.732   3.837   2.891  0.3463 -1.1390 -1.0478
  290MOL0     H39128  11.680   3.886   3.128 -3.4319  2.8170 -1.8243
  290MOL0     H39129  11.851   3.875   3.085 -0.1224  1.8348 -0.0060
  290MOL0     H39130  11.327   4.693   2.899  0.5808  1.1469  2.7990
  290MOL0     H39131  11.249   4.923   2.902 -0.1794  1.8635 -3.4728
  290MOL0     H39132  10.854   5.224   2.855 -5.1979 -3.5514 -3.3383
  290MOL0     H39133  10.737   5.434   2.800  1.0320  1.2931 -0.0751
  290MOL0     H39134  11.274   6.199   0.966 -0.1709  0.8508  0.3914
  290MOL0     H39135  11.369   6.351   0.803 -1.5262  1.3852  3.0681
  290MOL0     H39136  11.317   6.781   0.496  0.3773  0.7220 -0.7635
  290MOL0     H39137  11.445   6.875   0.341 -2.4158 -0.8502 -1.2649
  290MOL0     H39138  11.550   6.912   0.140  0.0074 -0.7141 -1.2774
  290MOL0     H39139  11.713   6.892   0.065  2.4870 -0.9889  1.1340
  290MOL0     H39140  11.641   6.983   0.352  4.1139 -1.7643  3.1744
  290MOL0     H39141  11.697   7.102   0.232 -1.8190  0.1803  0.8170
  290MOL0     H39142  11.907   6.949   0.192  4.0670 -1.1244  0.3546
  290MOL0     H39143  11.841   6.843   0.316 -0.8453 -0.2345 -0.2439
  290MOL0     H39144  11.912   7.005   0.486 -1.9585  0.7412 -0.8633
  290MOL0     H39145  12.037   7.027   0.359  0.9223  1.4859 -0.0275
  290MOL0     H39146  11.845   7.400   0.375 -1.0524  0.0793  0.8770
  290MOL0     H39147  11.652   6.506   0.254 -0.3019 -1.9601  2.2159
  290MOL0     H39148  11.419   6.296   0.314 -0.2855  1.4891 -0.5263
  290MOL0     H39149  11.584   6.308   0.330 -0.5794  0.7174 -2.1703
  290MOL0     H39150  11.494   6.289   0.476 -1.4680 -3.2431 -1.4539
  291MOL0     O39151  10.284   1.909   7.405 -0.4083  0.4463  0.6288
  291MOL0     C39152  10.286   1.950   7.516  0.7308 -1.3513 -0.2062
  291MOL0     O39153  10.395   1.936   7.613  0.0076 -0.2060 -0.2339
  291MOL0     C39154  10.460   1.820   7.592 -0.1523 -0.9203  0.5689
  291MOL0     C39155  10.454   1.725   7.686  0.2897 -0.1418  0.3996
  291MOL0     C39156  10.505   1.597   7.651  0.8907  0.3116 -0.2703
  291MOL0     C39157  10.581   1.569   7.539 -0.2757  0.0167 -0.1799
  291MOL0     O39158  10.634   1.444   7.517 -0.1185  0.1432  0.5452
  291MOL0     C39159  10.557   1.329   7.555  0.0820  0.8568  0.1928
  291MOL0     C39160  10.628   1.249   7.669 -0.0558  0.6649  0.3867
  291MOL0     C39161  10.745   1.152   7.615 -0.1923 -0.0322 -0.8326
  291MOL0     C39162  10.772   1.020   7.700  0.5465  0.0823  0.2956
  291MOL0     C39163  10.785   1.061   7.843 -0.3709  0.2786  0.9055
  291MOL0     C39164  10.861   0.953   7.916 -0.4521  0.0932 -0.0191
  291MOL0     C39165  10.781   0.827   7.953  0.9706  0.1748  0.8370
  291MOL0     C39166  10.867   0.733   8.040 -0.1795 -1.2787 -0.0445
  291MOL0     N39167  10.996   0.686   7.983 -0.4412 -0.1130 -0.5825
  291MOL0     C39168  11.018   0.636   7.857  0.2945 -0.5624 -0.0421
  291MOL0     C39169  11.144   0.587   7.863  0.3194  0.4250  0.1928
  291MOL0     C39170  11.220   0.509   7.752 -1.2250  0.4307 -0.1959
  291MOL0     C39171  11.283   0.617   7.658  0.0212 -0.1983 -0.6748
  291MOL0     C39172  11.361   0.540   7.550 -0.0650 -0.0347  0.4843
  291MOL0     C39173  11.414   0.639   7.437 -1.3952 -0.4805  1.2355
  291MOL0     O39174  11.515   0.733   7.492 -0.5507  0.6887 -0.1794
  291MOL0     C39175  11.645   0.697   7.525  0.0690  0.3660 -0.1916
  291MOL0     C39176  11.689   0.565   7.538  0.6808 -0.7814  0.1549
  291MOL0     C39177  11.816   0.538   7.568  0.1905  0.6279 -0.0312
  291MOL0     C39178  11.907   0.640   7.606 -0.2453 -0.1271  0.5258
  291MOL0     C39179  12.038   0.610   7.669 -1.4180 -0.3908 -0.3368
  291MOL0     O39180  12.127   0.709   7.687 -0.8902  0.0782 -0.1206
  291MOL0     C39181  12.260   0.697   7.657  0.1733  0.1093 -0.0868
  291MOL0     C39182  12.341   0.771   7.742  0.0242 -0.0245 -0.3084
  291MOL0     C39183  12.479   0.772   7.711 -0.0152 -0.1781  0.4565
  291MOL0     C39184  12.533   0.710   7.604 -0.5049 -0.4677  0.3845
  291MOL0     O39185  12.673   0.727   7.603  0.1551 -0.0020  0.1607
  291MOL0     C39186  12.741   0.678   7.492 -1.2716  0.2009  0.1514
  291MOL0     C39187  12.884   0.737   7.479 -0.2502  0.2028 -1.3142
  291MOL0     C39188  12.956   0.733   7.614 -0.2063  0.0912 -0.1683
  291MOL0     C39189  13.033   0.866   7.643 -0.5400 -0.0341  0.1523
  291MOL0     C39190  13.120   0.849   7.768 -0.7821  0.2491  0.4682
  291MOL0     C39191  13.197   0.972   7.804  0.0408 -0.2110 -0.5231
  291MOL0     C39192  13.107   1.097   7.807 -0.5423  0.0406  0.6095
  291MOL0     C39193  13.179   1.232   7.807 -0.3388  0.0609 -1.2221
  291MOL0    Cl39194  13.214   1.267   7.638  0.2729 -0.6099  0.0719
  291MOL0     C39195  12.451   0.643   7.515  0.2439  0.1842  0.3025
  291MOL0     C39196  12.312   0.632   7.541 -1.3875  0.2397 -0.3540
  291MOL0     O39197  12.070   0.494   7.671  0.2162  0.4757  0.2135
  291MOL0     C39198  11.863   0.781   7.601 -0.8903  0.8213 -0.3729
  291MOL0     C39199  11.728   0.796   7.570  0.1974  0.7703  0.1318
  291MOL0     N39200  11.208   0.622   7.984 -1.1306  0.4031 -0.4776
  291MOL0     N39201  11.115   0.682   8.045 -0.5562 -0.3030 -0.6194
  291MOL0     C39202  10.602   1.672   7.456  0.1282 -0.2563 -0.8137
  291MOL0     C39203  10.542   1.804   7.471  0.2486  0.9986  0.7838
  291MOL0     C39204  10.182   2.045   7.551  0.2826 -0.6803  0.4517
  291MOL0     C39205  10.129   2.043   7.679 -0.0925  0.3379  0.3477
  291MOL0     C39206  10.023   2.121   7.716  0.4618  0.1962 -1.1114
  291MOL0     C39207   9.956   2.204   7.630 -0.2516 -0.9770 -0.1516
  291MOL0     O39208   9.843   2.286   7.658 -0.7398 -0.3398  0.1914
  291MOL0     C39209   9.778   2.281   7.786 -0.4975  0.7498  0.2995
  291MOL0     C39210   9.863   2.354   7.895 -0.1410  0.5674 -0.9199
  291MOL0     C39211   9.818   2.306   8.043  0.8169 -0.1753  0.6047
  291MOL0     C39212   9.684   2.368   8.080 -1.0493  0.3423  0.0181
  291MOL0     C39213   9.677   2.516   8.079 -0.2482  0.2196  0.4160
  291MOL0     C39214   9.671   2.636   8.089 -0.2192  0.7123 -0.6815
  291MOL0     C39215   9.988   2.201   7.501 -0.2561 -0.3069 -0.2948
  291MOL0     C39216  10.106   2.132   7.457 -0.5263  0.5610 -0.0375
  291MOL0     C39217  10.164   2.160   7.323  0.5540  0.2812  0.3880
  291MOL0     H39218  10.418   1.743   7.787  2.2805  0.5794  1.0242
  291MOL0     H39219  10.483   1.523   7.726 -5.9258  0.4584 -1.4413
  291MOL0     H39220  10.451   1.342   7.578 -0.5200 -3.0529  0.3051
  291MOL0     H39221  10.563   1.255   7.474 -0.6969  0.3254  0.6100
  291MOL0     H39222  10.544   1.184   7.699 -0.2141 -0.6739 -2.6119
  291MOL0     H39223  10.654   1.321   7.747  1.8129 -0.7265  1.1371
  291MOL0     H39224  10.834   1.215   7.609 -0.1148  0.3828  2.7718
  291MOL0     H39225  10.722   1.117   7.514 -0.7706  0.3861 -0.8586
  291MOL0     H39226  10.699   0.941   7.680 -1.7372  1.6413  1.9753
  291MOL0     H39227  10.865   0.975   7.663  0.6255  0.8277 -0.4290
  291MOL0     H39228  10.846   1.152   7.841  1.8650 -1.1421 -0.5328
  291MOL0     H39229  10.682   1.076   7.876 -0.4064 -2.0253  2.1250
  291MOL0     H39230  10.952   0.925   7.863  0.1476 -3.3209  2.5313
  291MOL0     H39231  10.896   1.001   8.008 -1.4716  1.4601 -0.3166
  291MOL0     H39232  10.739   0.782   7.862  2.0928  2.4959 -0.9581
  291MOL0     H39233  10.697   0.864   8.014  0.8904 -0.2018  0.9541
  291MOL0     H39234  10.902   0.778   8.133 -2.8116 -1.5188  1.1505
  291MOL0     H39235  10.796   0.653   8.065 -1.0520 -0.1758  1.1289
  291MOL0     H39236  10.947   0.631   7.775  1.5906  0.2193 -1.2560
  291MOL0     H39237  11.297   0.443   7.795 -0.7706  0.1013 -1.4736
  291MOL0     H39238  11.143   0.447   7.704  0.7899 -0.1569 -2.8769
  291MOL0     H39239  11.205   0.682   7.617 -0.2861  0.3038  0.6428
  291MOL0     H39240  11.352   0.684   7.710 -0.6849  0.9822 -1.2180
  291MOL0     H39241  11.299   0.458   7.512  2.3564 -1.0834 -1.4956
  291MOL0     H39242  11.446   0.485   7.591 -0.6058 -1.6967 -0.5109
  291MOL0     H39243  11.340   0.694   7.379  2.8393  2.1805 -2.2306
  291MOL0     H39244  11.472   0.567   7.379 -2.0602  0.6237 -0.8976
  291MOL0     H39245  11.623   0.484   7.507  0.2206 -0.7790  1.0595
  291MOL0     H39246  11.842   0.436   7.595  0.4705  0.5734 -0.4836
  291MOL0     H39247  12.296   0.822   7.826 -4.5106  0.1307 -2.5543
  291MOL0     H39248  12.547   0.816   7.783 -1.2240  2.1417  0.2735
  291MOL0     H39249  12.731   0.571   7.511 -1.7946  0.6963  3.1770
  291MOL0     H39250  12.703   0.698   7.392 -1.3892  0.1414  0.1844
  291MOL0     H39251  12.949   0.693   7.404 -1.1926 -0.2066 -1.9080
  291MOL0     H39252  12.893   0.843   7.454  0.6969  0.1700 -1.1429
  291MOL0     H39253  12.884   0.722   7.697  0.4907 -0.0219  0.4308
  291MOL0     H39254  13.034   0.657   7.622  0.0171  0.3620  0.2677
  291MOL0     H39255  12.956   0.943   7.655  3.0508  3.7850  1.0506
  291MOL0     H39256  13.097   0.901   7.561  1.2493 -0.9099  1.1053
  291MOL0     H39257  13.182   0.762   7.745 -4.4018 -1.9556 -2.0946
  291MOL0     H39258  13.062   0.829   7.859  1.2483 -1.5199  1.4723
  291MOL0     H39259  13.243   0.970   7.903 -1.0905 -2.5792  0.0459
  291MOL0     H39260  13.275   0.986   7.730 -0.7568 -1.8058 -1.7464
  291MOL0     H39261  13.043   1.101   7.896 -1.1997 -1.4896  0.2257
  291MOL0     H39262  13.051   1.115   7.715 -1.0959 -1.3165  0.6705
  291MOL0     H39263  13.109   1.311   7.837 -0.6256 -0.7064  0.2125
  291MOL0     H39264  13.276   1.232   7.856  2.3385  2.6267 -5.8022
  291MOL0     H39265  12.490   0.611   7.419 -1.0449 -4.3454  1.0636
  291MOL0     H39266  12.244   0.577   7.476 -0.7796 -2.6436  1.2701
  291MOL0     H39267  11.932   0.858   7.635 -1.2397  0.3027  1.6419
  291MOL0     H39268  11.685   0.896   7.574  2.0114  1.7274 -1.6734
  291MOL0     H39269  10.669   1.656   7.372 -2.0774 -0.4126 -2.6339
  291MOL0     H39270  10.561   1.872   7.388  0.8022 -1.0262 -0.8424
  291MOL0     H39271  10.157   1.972   7.756 -4.4166  1.0771  2.9233
  291MOL0     H39272   9.991   2.111   7.820 -0.8027  2.3028 -1.2308
  291MOL0     H39273   9.761   2.182   7.828 -0.3225  0.5822 -0.0274
  291MOL0     H39274   9.681   2.329   7.771  0.0435  3.4643  4.0679
  291MOL0     H39275   9.846   2.462   7.885 -1.0396  0.3127 -2.3060
  291MOL0     H39276   9.968   2.326   7.885 -0.0121 -0.9497  2.8041
  291MOL0     H39277   9.897   2.346   8.107  3.3040  0.6566 -2.6658
  291MOL0     H39278   9.818   2.197   8.048  0.1702 -0.3907 -2.1873
  291MOL0     H39279   9.603   2.319   8.025  0.1932 -1.6913 -0.0910
  291MOL0     H39280   9.667   2.347   8.186 -0.0008  0.4138  0.2080
  291MOL0     H39281   9.676   2.742   8.081 -0.6077  1.1398  2.9540
  291MOL0     H39282   9.927   2.265   7.438 -0.1553 -0.6069 -0.6980
  291MOL0     H39283  10.161   2.075   7.254 -6.4813  0.5141 -0.3147
  291MOL0     H39284  10.103   2.239   7.280 -2.2055 -1.3950  0.9873
  291MOL0     H39285  10.266   2.198   7.338  0.7958 -0.3542  0.3907
  292MOL0     O39286   6.499   8.644   0.402  0.5269 -0.7785 -0.8087
  292MOL0     C39287   6.508   8.613   0.519  0.3748 -0.1169  0.4147
  292MOL0     O39288   6.515   8.483   0.571  0.0245 -0.3996 -0.0865
  292MOL0     C39289   6.475   8.379   0.491  0.3805  0.2139 -0.8113
  292MOL0     C39290   6.331   8.357   0.475 -0.7730  0.5524 -0.4126
  292MOL0     C39291   6.285   8.241   0.408  0.1076  0.2168 -0.2336
  292MOL0     C39292   6.375   8.160   0.348 -0.1893  0.0329  0.7226
  292MOL0     O39293   6.342   8.035   0.289  0.1899  0.2953 -0.3105
  292MOL0     C39294   6.274   7.953   0.372 -0.7118 -0.0522  0.1650
  292MOL0     C39295   6.175   7.885   0.270  0.0139 -0.2450 -0.0086
  292MOL0     C39296   6.054   7.975   0.242 -0.0692 -0.0061  0.2925
  292MOL0     C39297   5.982   7.916   0.114 -0.1118 -0.2678  0.3829
  292MOL0     C39298   6.002   8.012   0.001  0.2313 -0.2339  1.3155
  292MOL0     C39299   5.965   7.963  -0.138  0.4609  0.4018  0.8286
  292MOL0     C39300   6.073   7.872  -0.199 -1.3792  0.8565  0.9043
  292MOL0     C39301   6.028   7.799  -0.334 -0.2940 -0.8140 -0.0379
  292MOL0     N39302   5.924   7.699  -0.323  0.3701  0.5428 -0.4918
  292MOL0     C39303   5.938   7.559  -0.338 -0.3458  0.9304  0.3339
  292MOL0     C39304   5.804   7.523  -0.363  0.7257 -0.5429  0.2978
  292MOL0     C39305   5.760   7.387  -0.406 -0.3138 -0.1373  0.6463
  292MOL0     C39306   5.665   7.334  -0.306 -0.1965  1.1510  0.2741
  292MOL0     C39307   5.663   7.181  -0.298  0.4772 -0.4177 -0.7156
  292MOL0     C39308   5.599   7.105  -0.415 -0.0003  0.8459 -0.4471
  292MOL0     O39309   5.599   6.968  -0.381  0.3173 -0.1175  0.7726
  292MOL0     C39310   5.613   6.872  -0.478 -0.2470 -0.0324 -0.1704
  292MOL0     C39311   5.692   6.760  -0.448  0.3244 -1.2086  0.3650
  292MOL0     C39312   5.713   6.656  -0.539 -0.5364  0.0728 -0.4073
  292MOL0     C39313   5.663   6.671  -0.663  1.0695  0.2119  0.8366
  292MOL0     C39314   5.653   6.546  -0.743 -0.0611  1.1984 -0.5228
  292MOL0     O39315   5.550   6.542  -0.830  0.2921 -0.6018  0.7778
  292MOL0     C39316   5.525   6.423  -0.888 -0.6947  0.3414 -0.1709
  292MOL0     C39317   5.547   6.405  -1.023  0.1819  0.1098 -0.1589
  292MOL0     C39318   5.492   6.294  -1.079 -0.2586 -0.3483  0.1107
  292MOL0     C39319   5.427   6.193  -1.015 -0.0069  0.1755 -0.2434
  292MOL0     O39320   5.363   6.093  -1.087  0.2508 -0.0234  0.6478
  292MOL0     C39321   5.304   5.978  -1.026 -0.1861  0.0775 -0.1515
  292MOL0     C39322   5.356   5.845  -1.092 -0.4675 -0.9093  1.1248
  292MOL0     C39323   5.501   5.802  -1.070 -1.0258  0.0304  0.7577
  292MOL0     C39324   5.518   5.663  -1.140 -0.3788 -0.2143  0.4925
  292MOL0     C39325   5.669   5.630  -1.146  0.1103 -0.7380 -0.1015
  292MOL0     C39326   5.700   5.498  -1.216  0.4450  0.8627  0.7371
  292MOL0     C39327   5.846   5.475  -1.268  0.3906 -0.9909 -0.4313
  292MOL0     C39328   5.871   5.335  -1.318 -0.1438 -0.5437 -1.2521
  292MOL0    Cl39329   5.870   5.215  -1.181 -0.4704 -0.1455 -0.1463
  292MOL0     C39330   5.419   6.205  -0.872  0.8261 -0.1526  0.3694
  292MOL0     C39331   5.460   6.323  -0.812  0.1875 -0.3267 -0.3170
  292MOL0     O39332   5.725   6.444  -0.716 -0.5352  0.1308  0.6027
  292MOL0     C39333   5.598   6.798  -0.705  0.3300 -0.5926 -0.4877
  292MOL0     C39334   5.569   6.887  -0.605  0.4010 -0.3343  0.6287
  292MOL0     N39335   5.731   7.634  -0.345 -0.5066  0.8135  0.1841
  292MOL0     N39336   5.791   7.731  -0.320 -0.9964  0.1918 -0.7157
  292MOL0     C39337   6.521   8.186   0.358  0.8808 -0.1830  0.2720
  292MOL0     C39338   6.567   8.294   0.426 -0.7288  0.0040  0.2575
  292MOL0     C39339   6.528   8.732   0.609 -0.5188  0.3109 -0.1042
  292MOL0     C39340   6.579   8.855   0.561  0.2785  0.3442  0.2776
  292MOL0     C39341   6.613   8.964   0.645  0.2546 -0.9282  0.4762
  292MOL0     C39342   6.582   8.972   0.781  0.1540  0.7692 -1.0837
  292MOL0     O39343   6.622   9.085   0.841 -0.2637 -0.1542  0.2459
  292MOL0     C39344   6.602   9.111   0.977 -0.5487 -0.4835  0.1202
  292MOL0     C39345   6.626   9.252   1.021  0.3568  0.0857 -0.1110
  292MOL0     C39346   6.539   9.355   0.968  0.1303  0.0218 -0.4428
  292MOL0     C39347   6.405   9.362   1.030 -0.1526 -0.4522  0.0708
  292MOL0     C39348   6.403   9.436   1.153 -0.3526 -0.6334  0.8508
  292MOL0     C39349   6.406   9.507   1.251  0.9347 -0.3989  0.0062
  292MOL0     C39350   6.510   8.859   0.826 -0.2344 -0.2398 -1.1786
  292MOL0     C39351   6.494   8.740   0.751  0.0931 -0.2486 -0.2629
  292MOL0     C39352   6.404   8.633   0.802 -0.3248 -0.3909 -0.1243
  292MOL0     H39353   6.270   8.424   0.534  1.0509  0.5598  1.5946
  292MOL0     H39354   6.181   8.209   0.415  0.3251 -0.5893 -0.5019
  292MOL0     H39355   6.334   7.865   0.399  2.2566  1.3106 -1.5493
  292MOL0     H39356   6.222   7.988   0.462 -1.0207 -1.1465  0.4332
  292MOL0     H39357   6.130   7.803   0.327  0.2186  0.7769  1.7318
  292MOL0     H39358   6.233   7.847   0.186  0.2443  1.9656 -0.9312
  292MOL0     H39359   6.079   8.080   0.226 -2.8383  0.7247  0.1980
  292MOL0     H39360   5.995   7.961   0.333  0.0893 -0.1543  0.3734
  292MOL0     H39361   6.017   7.817   0.080 -1.0460  0.4937 -3.2066
  292MOL0     H39362   5.874   7.922   0.129 -1.2845  1.4810 -5.8875
  292MOL0     H39363   5.934   8.096   0.014  2.0504  1.5749 -0.0987
  292MOL0     H39364   6.105   8.049  -0.002  0.3227 -0.4354 -2.7405
  292MOL0     H39365   5.867   7.915  -0.134  1.2071 -1.2379  0.2875
  292MOL0     H39366   5.944   8.042  -0.210  0.0807 -0.3455  0.1037
  292MOL0     H39367   6.091   7.789  -0.129  2.9374  0.6713 -0.1509
  292MOL0     H39368   6.171   7.919  -0.209  0.1788 -2.3993 -0.3399
  292MOL0     H39369   5.985   7.878  -0.396  0.2546  2.0075  2.9247
  292MOL0     H39370   6.119   7.754  -0.377  0.0540  0.1997 -0.3877
  292MOL0     H39371   6.034   7.508  -0.341 -0.6627  0.3473 -1.3828
  292MOL0     H39372   5.709   7.398  -0.502  1.2119 -1.8685 -0.4439
  292MOL0     H39373   5.846   7.322  -0.428  0.8251  2.2251 -2.5217
  292MOL0     H39374   5.693   7.369  -0.207 -2.4424  3.6167  0.1663
  292MOL0     H39375   5.567   7.374  -0.336 -2.4396 -3.6518  0.1986
  292MOL0     H39376   5.614   7.142  -0.207 -1.0355 -3.0735 -2.5248
  292MOL0     H39377   5.771   7.167  -0.291  0.8193  2.2735  1.1421
  292MOL0     H39378   5.651   7.122  -0.510 -1.8462  1.8986 -1.3270
  292MOL0     H39379   5.496   7.141  -0.420 -0.3473 -0.1423 -0.5784
  292MOL0     H39380   5.746   6.769  -0.355 -0.3705  1.7271  0.5794
  292MOL0     H39381   5.768   6.570  -0.503  0.6597 -0.3329 -2.9891
  292MOL0     H39382   5.607   6.469  -1.086 -0.1338  0.4076 -0.1619
  292MOL0     H39383   5.508   6.268  -1.184 -1.3000 -0.6554  0.0102
  292MOL0     H39384   5.334   5.968  -0.922  0.3356 -1.4652 -0.4253
  292MOL0     H39385   5.196   5.978  -1.047 -0.6345  0.8981  1.9719
  292MOL0     H39386   5.300   5.761  -1.049 -4.7955 -0.2970 -2.5770
  292MOL0     H39387   5.326   5.852  -1.197  0.2487 -1.2481  0.8928
  292MOL0     H39388   5.565   5.878  -1.116 -1.7621 -0.3858 -1.0368
  292MOL0     H39389   5.529   5.781  -0.966 -1.2401 -0.7767  0.6609
  292MOL0     H39390   5.482   5.658  -1.244 -0.1076 -1.2532  0.4393
  292MOL0     H39391   5.467   5.592  -1.075  1.5155 -1.3903  0.7446
  292MOL0     H39392   5.705   5.640  -1.043  2.0149  1.0051 -0.8609
  292MOL0     H39393   5.707   5.714  -1.204  0.6193 -0.5600  0.4778
  292MOL0     H39394   5.691   5.423  -1.137 -1.8985  0.0236 -0.2464
  292MOL0     H39395   5.627   5.468  -1.291  0.9819  0.9436  0.1790
  292MOL0     H39396   5.912   5.491  -1.183 -0.7388 -2.0552  0.6819
  292MOL0     H39397   5.868   5.559  -1.335  0.1587  2.3104  3.3061
  292MOL0     H39398   5.784   5.315  -1.382 -0.5827  1.9022 -1.5195
  292MOL0     H39399   5.970   5.343  -1.364  0.9303  0.0054  1.0471
  292MOL0     H39400   5.380   6.124  -0.811  1.1972 -0.6712 -0.0755
  292MOL0     H39401   5.452   6.333  -0.705  3.0759  1.4654 -0.1771
  292MOL0     H39402   5.558   6.824  -0.803 -0.4201  4.2963  0.8112
  292MOL0     H39403   5.518   6.975  -0.643  2.5193 -0.9644 -4.5472
  292MOL0     H39404   6.588   8.114   0.312 -0.8141 -0.6405 -1.5958
  292MOL0     H39405   6.673   8.316   0.425 -1.2958  3.4324 -1.3894
  292MOL0     H39406   6.606   8.867   0.456  0.9390  1.5788  0.5672
  292MOL0     H39407   6.670   9.045   0.601  0.3757 -0.6816  1.0736
  292MOL0     H39408   6.674   9.052   1.034 -1.1205  0.4181  1.8482
  292MOL0     H39409   6.506   9.071   1.012 -1.1773  1.8902  1.3110
  292MOL0     H39410   6.723   9.279   0.978  1.3058 -0.9825  1.2733
  292MOL0     H39411   6.634   9.266   1.129 -5.4293 -0.9349  0.7550
  292MOL0     H39412   6.523   9.331   0.862  1.3583  0.4257 -0.7343
  292MOL0     H39413   6.579   9.456   0.959 -0.9281  0.4335 -0.6824
  292MOL0     H39414   6.332   9.398   0.957  1.1105  0.4061 -0.8202
  292MOL0     H39415   6.361   9.267   1.060 -1.7783  0.4666  0.7545
  292MOL0     H39416   6.408   9.565   1.341  2.5794  1.4877 -1.1659
  292MOL0     H39417   6.472   8.871   0.927  1.6792 -0.7760 -0.3551
  292MOL0     H39418   6.365   8.657   0.901 -2.3974 -0.5724 -0.8545
  292MOL0     H39419   6.318   8.644   0.735 -0.1302  1.6280 -0.1148
  292MOL0     H39420   6.466   8.543   0.797  1.4284  0.8264 -1.8532
  293MOL0     O39421   2.728   2.660  11.038  0.5416 -0.3380  0.4228
  293MOL0     C39422   2.789   2.592  10.952  0.1191  0.4832 -0.4160
  293MOL0     O39423   2.773   2.465  10.934  0.6632 -0.2888 -1.0392
  293MOL0     C39424   2.644   2.414  10.937  1.0530  0.2637  0.3825
  293MOL0     C39425   2.580   2.371  10.821  0.4636  0.9114  1.1017
  293MOL0     C39426   2.449   2.325  10.822  0.0549  0.0671 -0.4281
  293MOL0     C39427   2.373   2.321  10.942  0.4821  0.0632 -0.3816
  293MOL0     O39428   2.254   2.262  10.940  0.4077  0.1866  0.3646
  293MOL0     C39429   2.162   2.299  10.841 -0.5621  0.4018  0.3228
  293MOL0     C39430   2.023   2.253  10.891 -0.1346  0.2768 -0.5431
  293MOL0     C39431   1.969   2.306  11.034  0.2872  0.2853  0.9522
  293MOL0     C39432   1.820   2.261  11.045 -0.1787  0.1918 -0.2621
  293MOL0     C39433   1.769   2.343  11.168 -0.2151  0.4425 -0.4454
  293MOL0     C39434   1.621   2.319  11.187 -1.5314  0.5530 -0.5194
  293MOL0     C39435   1.544   2.413  11.088 -0.0730  1.5181 -0.0423
  293MOL0     C39436   1.403   2.381  11.089  0.0679  0.0904 -0.6605
  293MOL0     N39437   1.358   2.256  11.033 -0.3888 -0.4678  0.7283
  293MOL0     C39438   1.383   2.205  10.905  0.5796  0.0288  0.0816
  293MOL0     C39439   1.290   2.102  10.905  0.4560 -0.5816  0.4778
  293MOL0     C39440   1.273   2.020  10.783 -0.2067  0.6229  0.4356
  293MOL0     C39441   1.137   1.951  10.760  0.7045 -0.1914  0.1049
  293MOL0     C39442   1.026   2.059  10.703 -0.1775  0.3213  0.2434
  293MOL0     C39443   0.953   2.137  10.815 -0.2173  0.8470 -0.6061
  293MOL0     O39444   1.005   2.265  10.837 -0.1920 -0.8705 -1.0165
  293MOL0     C39445   0.947   2.354  10.748 -0.2305  1.0567 -0.7207
  293MOL0     C39446   0.808   2.389  10.738  0.9525 -1.1035 -0.2396
  293MOL0     C39447   0.762   2.489  10.658 -0.1833  0.4543  0.1284
  293MOL0     C39448   0.848   2.549  10.568 -0.8644  0.2216  0.4857
  293MOL0     C39449   0.804   2.655  10.479 -0.1156 -0.9877  0.7569
  293MOL0     O39450   0.689   2.707  10.520 -0.3754 -0.2398  1.6689
  293MOL0     C39451   0.649   2.836  10.467 -0.4614 -0.5132  0.0664
  293MOL0     C39452   0.602   2.858  10.334 -0.6224  0.4437  0.0679
  293MOL0     C39453   0.599   2.989  10.285 -0.4459  0.0493 -0.0360
  293MOL0     C39454   0.619   3.104  10.369 -0.3289  1.1802  0.2466
  293MOL0     O39455   0.598   3.228  10.324  0.1212  0.5989 -0.3394
  293MOL0     C39456   0.495   3.312  10.387 -0.2826  0.0831  0.2448
  293MOL0     C39457   0.352   3.239  10.361  0.1008  0.4739 -0.3282
  293MOL0     C39458   0.231   3.325  10.407 -0.0731  0.6285  0.0734
  293MOL0     C39459   0.188   3.302  10.542 -0.0505 -0.3124 -0.7434
  293MOL0     C39460   0.089   3.185  10.577  0.2128 -0.0757  0.3174
  293MOL0     C39461  -0.052   3.178  10.496  0.5017 -1.1409  0.3251
  293MOL0     C39462  -0.166   3.263  10.558 -0.6803 -0.3329  0.7253
  293MOL0     C39463  -0.298   3.199  10.514  0.3014 -0.1008  0.2777
  293MOL0    Cl39464  -0.334   3.239  10.334 -0.2619 -0.4834  0.3865
  293MOL0     C39465   0.658   3.091  10.497 -0.3790  0.0434  0.1887
  293MOL0     C39466   0.669   2.960  10.546  0.2384  0.5462  0.0406
  293MOL0     O39467   0.863   2.698  10.381 -0.0792 -0.1478  0.3559
  293MOL0     C39468   0.981   2.507  10.561  0.5705 -0.6049 -0.0387
  293MOL0     C39469   1.022   2.410  10.655  0.2026 -0.1815 -0.1236
  293MOL0     N39470   1.208   2.091  11.019 -0.1281 -0.2363  0.8165
  293MOL0     N39471   1.251   2.188  11.090 -0.1987 -0.2922  0.5899
  293MOL0     C39472   2.441   2.360  11.059  0.0752  0.7214 -0.2787
  293MOL0     C39473   2.570   2.411  11.064 -0.2446  0.0725 -0.0702
  293MOL0     C39474   2.894   2.662  10.868 -0.7764  0.1108 -0.5054
  293MOL0     C39475   3.004   2.597  10.795  0.3152 -0.4915 -0.0278
  293MOL0     C39476   3.092   2.670  10.716 -0.4232  1.4882  0.6233
  293MOL0     C39477   3.091   2.796  10.701 -0.3766 -0.4906 -0.8104
  293MOL0     O39478   3.189   2.858  10.630 -0.1143  0.3865 -0.3199
  293MOL0     C39479   3.159   2.881  10.490  0.0082 -0.7546 -1.6835
  293MOL0     C39480   3.152   2.753  10.397  0.8101 -0.1855 -1.0084
  293MOL0     C39481   3.105   2.758  10.256 -0.1000 -0.2272 -0.0416
  293MOL0     C39482   3.177   2.867  10.171  0.2540 -0.9842  0.4315
  293MOL0     C39483   3.150   2.851  10.028  0.1272 -0.0359  0.6869
  293MOL0     C39484   3.118   2.830   9.910  0.7136  0.0836  0.6734
  293MOL0     C39485   2.987   2.863  10.757  0.2674  0.2711 -0.2538
  293MOL0     C39486   2.888   2.801  10.843  0.3040  0.2566 -0.2627
  293MOL0     C39487   2.780   2.899  10.892  0.9117 -0.8156  0.4636
  293MOL0     H39488   2.644   2.370  10.733 -0.6253  2.1356  0.2612
  293MOL0     H39489   2.413   2.301  10.723 -0.7911  2.9113 -0.8784
  293MOL0     H39490   2.148   2.408  10.839 -2.1049  0.2338  0.7778
  293MOL0     H39491   2.181   2.264  10.739 -1.2579  4.5982 -1.4712
  293MOL0     H39492   2.008   2.145  10.889  1.4931 -0.0018  0.1880
  293MOL0     H39493   1.959   2.296  10.814 -0.5487 -1.3689 -1.1395
  293MOL0     H39494   1.982   2.413  11.054  1.3993  0.1665  0.9366
  293MOL0     H39495   2.025   2.246  11.108  0.0400 -3.8035 -1.8330
  293MOL0     H39496   1.772   2.289  10.951  1.6134 -0.5230 -1.4399
  293MOL0     H39497   1.814   2.152  11.042 -0.3073  0.2136 -1.7892
  293MOL0     H39498   1.812   2.312  11.263 -0.9550  0.1841 -0.1845
  293MOL0     H39499   1.788   2.451  11.171 -1.7385  0.7639  3.7222
  293MOL0     H39500   1.605   2.211  11.179  0.0513  0.3419 -1.2990
  293MOL0     H39501   1.592   2.337  11.290  2.1520  0.6149  0.6426
  293MOL0     H39502   1.589   2.407  10.988 -2.9854 -0.5784 -1.4017
  293MOL0     H39503   1.561   2.517  11.114 -0.6794  2.1089 -1.8645
  293MOL0     H39504   1.364   2.390  11.191  2.1269  3.5618 -0.0048
  293MOL0     H39505   1.354   2.471  11.050 -1.3933  0.4866  1.8724
  293MOL0     H39506   1.460   2.224  10.831  0.7516 -1.0314 -0.0300
  293MOL0     H39507   1.301   2.092  10.705  4.0219 -0.4457  0.7697
  293MOL0     H39508   1.347   1.940  10.780  1.0577  1.7742 -0.2186
  293MOL0     H39509   1.156   1.875  10.684 -1.2421 -0.0005 -0.6278
  293MOL0     H39510   1.096   1.887  10.840  1.6900 -1.9624 -0.7432
  293MOL0     H39511   0.946   2.007  10.650 -0.7179 -1.9614  3.0390
  293MOL0     H39512   1.079   2.126  10.635  0.7249 -2.6333 -2.1754
  293MOL0     H39513   0.968   2.075  10.904  1.2459  0.1987 -1.2631
  293MOL0     H39514   0.846   2.122  10.803 -0.0824 -1.3441  0.3477
  293MOL0     H39515   0.752   2.345  10.820  1.8987 -1.2004  0.3742
  293MOL0     H39516   0.656   2.511  10.661 -0.2413  0.7302 -2.2208
  293MOL0     H39517   0.561   2.776  10.276  1.0869 -0.9566  0.7287
  293MOL0     H39518   0.537   3.008  10.199 -1.1936  1.7504  0.8436
  293MOL0     H39519   0.527   3.321  10.491  5.3818 -1.4234 -1.0536
  293MOL0     H39520   0.502   3.413  10.345 -0.1784  0.0797  0.2553
  293MOL0     H39521   0.341   3.211  10.256  6.2680 -0.8726 -0.9721
  293MOL0     H39522   0.356   3.143  10.415 -0.4610  1.0011  0.6905
  293MOL0     H39523   0.251   3.432  10.396 -0.6094  0.8817  1.3813
  293MOL0     H39524   0.143   3.320  10.343  1.8139 -1.4202 -2.6139
  293MOL0     H39525   0.118   3.386  10.551 -3.1472 -2.3805 -3.1509
  293MOL0     H39526   0.276   3.304  10.606  0.5134  3.5024 -1.4163
  293MOL0     H39527   0.066   3.188  10.684  3.1537 -0.5257  1.0437
  293MOL0     H39528   0.139   3.089  10.565  0.0900  0.2033 -3.9956
  293MOL0     H39529  -0.053   3.224  10.396 -0.6022 -0.1495  0.7602
  293MOL0     H39530  -0.081   3.073  10.499  3.2763 -2.0590 -1.6249
  293MOL0     H39531  -0.166   3.370  10.535  1.3458 -0.4216  0.1462
  293MOL0     H39532  -0.150   3.248  10.666 -0.3375 -3.6250  0.3252
  293MOL0     H39533  -0.306   3.091  10.528  1.7497 -0.5200 -1.6437
  293MOL0     H39534  -0.372   3.246  10.580 -0.4173 -3.3385  1.9635
  293MOL0     H39535   0.678   3.175  10.563 -3.1603 -0.7228  2.1696
  293MOL0     H39536   0.714   2.946  10.644  4.7606  0.0930 -1.8606
  293MOL0     H39537   1.046   2.537  10.479  1.1297 -1.6774 -0.0118
  293MOL0     H39538   1.122   2.369  10.646 -0.7093 -2.9517  1.1921
  293MOL0     H39539   2.388   2.343  11.153 -1.2672 -1.3480 -1.3224
  293MOL0     H39540   2.624   2.430  11.156 -0.5856 -2.4135  0.6946
  293MOL0     H39541   3.024   2.490  10.793  0.6409 -0.4384  0.4175
  293MOL0     H39542   3.174   2.623  10.663 -0.4936  2.5327 -0.4305
  293MOL0     H39543   3.238   2.949  10.458 -1.4821  0.2464 -3.3665
  293MOL0     H39544   3.064   2.933  10.476  0.1576  0.0481  0.0256
  293MOL0     H39545   3.092   2.678  10.451 -1.4253  2.9157  1.1395
  293MOL0     H39546   3.257   2.721  10.394  1.2464  0.6072  2.1922
  293MOL0     H39547   2.997   2.770  10.243 -0.0177  0.7689  0.0939
  293MOL0     H39548   3.126   2.664  10.205 -0.9863 -0.6889  0.4206
  293MOL0     H39549   3.151   2.968  10.204  2.1631 -0.5938  0.8685
  293MOL0     H39550   3.285   2.855  10.183  0.3905  0.5431  1.0291
  293MOL0     H39551   3.091   2.828   9.806 -2.1105  1.0887  1.2954
  293MOL0     H39552   2.986   2.969  10.732  1.4886 -0.0271 -1.7564
  293MOL0     H39553   2.780   2.892  11.002  0.6772 -2.6393  0.3691
  293MOL0     H39554   2.791   3.001  10.853  0.0715 -0.9613 -0.1832
  293MOL0     H39555   2.677   2.885  10.856  0.8945  1.2563 -0.4519
  294MOL0     O39556   3.354   5.217  10.248 -0.3725  0.6256 -0.5934
  294MOL0     C39557   3.293   5.111  10.226 -0.0092  0.0011 -0.0218
  294MOL0     O39558   3.221   5.034  10.314  0.0892 -0.3329 -0.3925
  294MOL0     C39559   3.177   5.106  10.424 -0.1476  0.7339  0.6926
  294MOL0     C39560   3.052   5.169  10.421 -1.1803 -0.5820  0.7005
  294MOL0     C39561   3.001   5.234  10.531 -0.6802 -0.0208 -1.0158
  294MOL0     C39562   3.076   5.230  10.643 -0.0595 -1.2919 -0.6586
  294MOL0     O39563   3.049   5.294  10.757  0.5231 -0.4608  0.5955
  294MOL0     C39564   3.102   5.430  10.787  0.7221 -0.8648 -0.1439
  294MOL0     C39565   3.039   5.468  10.930 -0.1798  0.3662  0.3157
  294MOL0     C39566   3.117   5.387  11.040  0.1240  0.1126  0.5991
  294MOL0     C39567   3.054   5.422  11.172 -0.0716 -0.1079 -0.5473
  294MOL0     C39568   3.123   5.356  11.286  0.2744  0.1080  0.7514
  294MOL0     C39569   3.083   5.406  11.430  0.4311  0.4639 -0.9102
  294MOL0     C39570   2.930   5.366  11.451  1.1367  0.3209 -0.2328
  294MOL0     C39571   2.900   5.378  11.593  0.0721 -0.6984 -0.3198
  294MOL0     N39572   2.770   5.324  11.627  0.1053  0.1213  0.0238
  294MOL0     C39573   2.657   5.381  11.606 -0.2489 -0.7887  0.3388
  294MOL0     C39574   2.560   5.290  11.630  1.2356 -0.0945 -0.3398
  294MOL0     C39575   2.411   5.309  11.606 -0.6878  0.1535 -0.4707
  294MOL0     C39576   2.382   5.262  11.464 -0.2594  0.1913 -0.2127
  294MOL0     C39577   2.232   5.259  11.442  0.5163  0.4903 -0.1030
  294MOL0     C39578   2.185   5.248  11.295 -1.2669  0.0878  0.4569
  294MOL0     O39579   2.188   5.116  11.239 -0.1624  0.0069 -0.2554
  294MOL0     C39580   2.131   5.096  11.114 -0.7590  0.2103 -1.0120
  294MOL0     C39581   2.088   5.186  11.018  0.3244  0.4472 -0.0454
  294MOL0     C39582   2.044   5.139  10.892 -0.7103  0.4626 -0.2389
  294MOL0     C39583   2.061   5.003  10.854  0.3533  0.1986  0.4706
  294MOL0     C39584   2.018   4.954  10.716  0.6005  0.6986 -0.5120
  294MOL0     O39585   2.046   4.829  10.677  0.1379 -0.3251  0.6823
  294MOL0     C39586   2.009   4.786  10.546 -0.1036  0.1251 -0.5846
  294MOL0     C39587   1.924   4.676  10.542  0.3195 -0.2719  0.0253
  294MOL0     C39588   1.909   4.599  10.435 -0.4110  0.9432  0.7674
  294MOL0     C39589   1.969   4.632  10.317 -0.2618 -0.7793  0.1894
  294MOL0     O39590   1.932   4.558  10.208  0.1640  0.3111  0.0690
  294MOL0     C39591   1.953   4.599  10.075 -0.1378  0.6390  0.8217
  294MOL0     C39592   1.848   4.536   9.985 -0.0098 -0.6185 -0.7312
  294MOL0     C39593   1.857   4.389   9.983 -0.4823 -0.7974  0.1216
  294MOL0     C39594   1.771   4.329   9.886  0.2402  1.2477  0.6033
  294MOL0     C39595   1.758   4.172   9.902 -1.0880 -0.7571  0.4653
  294MOL0     C39596   1.645   4.110   9.830  0.3330 -0.7136  0.5246
  294MOL0     C39597   1.648   4.118   9.674 -0.2711  0.0507  0.0558
  294MOL0     C39598   1.558   4.231   9.620 -0.6438 -0.8257 -0.0829
  294MOL0    Cl39599   1.571   4.192   9.443 -0.1785 -0.5363  0.1426
  294MOL0     C39600   2.053   4.750  10.309 -0.1835 -0.5231 -0.3119
  294MOL0     C39601   2.074   4.827  10.428 -0.0153 -0.4240  0.6449
  294MOL0     O39602   1.962   5.040  10.640 -0.8127 -0.9089 -0.0193
  294MOL0     C39603   2.124   4.920  10.950 -0.1917  0.3161  0.0422
  294MOL0     C39604   2.165   4.963  11.075 -0.3654 -0.0986  0.9377
  294MOL0     N39605   2.621   5.171  11.669  0.1919  0.3588  0.2852
  294MOL0     N39606   2.744   5.194  11.669 -0.8738 -0.8374  0.2021
  294MOL0     C39607   3.201   5.166  10.655  0.0219  0.0413  0.7924
  294MOL0     C39608   3.256   5.110  10.550 -0.2529  0.3137 -0.4092
  294MOL0     C39609   3.335   5.033  10.113  0.3845  0.0822  0.0669
  294MOL0     C39610   3.326   4.899  10.120  0.2760  0.2022 -0.6100
  294MOL0     C39611   3.370   4.817  10.014 -0.0069 -0.3285  0.1681
  294MOL0     C39612   3.432   4.866   9.903  0.0830  0.1273  0.5420
  294MOL0     O39613   3.481   4.793   9.802 -0.3655 -0.0619 -0.2570
  294MOL0     C39614   3.476   4.651   9.811  0.1815 -0.1439  0.2415
  294MOL0     C39615   3.448   4.576   9.681  0.5377 -0.3077 -0.4866
  294MOL0     C39616   3.294   4.579   9.633  0.4780 -0.4675 -0.5887
  294MOL0     C39617   3.256   4.464   9.550  0.5067 -1.3214  0.6298
  294MOL0     C39618   3.267   4.328   9.604 -0.1030 -0.0389 -0.4453
  294MOL0     C39619   3.275   4.210   9.641 -0.5064  0.5555 -0.9057
  294MOL0     C39620   3.449   5.007   9.899  0.6502 -0.1433 -0.3144
  294MOL0     C39621   3.411   5.089  10.005  0.7058 -0.2350  0.6759
  294MOL0     C39622   3.426   5.244   9.988 -0.7027 -0.7572 -0.7955
  294MOL0     H39623   3.000   5.157  10.326 -1.1101  3.0264  0.0615
  294MOL0     H39624   2.909   5.293  10.533 -1.0928 -0.6665  1.2037
  294MOL0     H39625   3.211   5.434  10.779  0.7006  1.9841 -0.0422
  294MOL0     H39626   3.057   5.499  10.715  2.1968 -1.7786 -2.0285
  294MOL0     H39627   2.934   5.440  10.934 -0.0127 -0.4184  4.5954
  294MOL0     H39628   3.043   5.577  10.935 -2.1276  0.7189 -2.9556
  294MOL0     H39629   3.224   5.410  11.039  0.5278 -1.6298  0.0181
  294MOL0     H39630   3.110   5.280  11.016 -0.7199  0.2950 -0.0310
  294MOL0     H39631   3.047   5.531  11.180  0.7763 -0.0334 -0.6957
  294MOL0     H39632   2.953   5.381  11.163 -0.1395 -0.8904  2.5523
  294MOL0     H39633   3.107   5.248  11.281 -2.8793  0.5102 -0.4096
  294MOL0     H39634   3.230   5.374  11.278  0.4765 -1.7397 -2.4587
  294MOL0     H39635   3.152   5.356  11.499  2.5037  0.0045 -3.1568
  294MOL0     H39636   3.103   5.513  11.436  0.5599  0.5699 -2.6730
  294MOL0     H39637   2.919   5.264  11.413  0.9826  0.2070  0.1058
  294MOL0     H39638   2.858   5.435  11.406 -0.5097 -0.1486  1.5305
  294MOL0     H39639   2.981   5.335  11.653 -0.3342  0.3712  1.0362
  294MOL0     H39640   2.898   5.484  11.620 -0.2913 -1.0727  1.2431
  294MOL0     H39641   2.645   5.485  11.578 -2.0994 -1.1422 -0.3082
  294MOL0     H39642   2.356   5.254  11.683  0.0281  0.2574  0.1253
  294MOL0     H39643   2.387   5.415  11.616 -2.2327 -0.1144 -0.9321
  294MOL0     H39644   2.445   5.326  11.401  1.7672 -0.9668  0.5225
  294MOL0     H39645   2.398   5.155  11.445 -2.8695 -0.1571 -0.7645
  294MOL0     H39646   2.197   5.357  11.475  0.3366  1.6212 -3.2617
  294MOL0     H39647   2.195   5.178  11.505 -0.2545  1.7082  1.0664
  294MOL0     H39648   2.236   5.320  11.231 -0.1704 -0.9571  0.1111
  294MOL0     H39649   2.080   5.278  11.300 -1.9314 -2.1406  0.9636
  294MOL0     H39650   2.060   5.285  11.052 -3.6095 -0.5149  0.0611
  294MOL0     H39651   2.008   5.218  10.827 -0.7859  1.5613  1.0936
  294MOL0     H39652   1.867   4.635  10.624  2.0817 -2.3276  0.3100
  294MOL0     H39653   1.849   4.508  10.428  4.4538 -2.5393 -2.7558
  294MOL0     H39654   1.959   4.707  10.056 -4.7543  1.2174  1.3582
  294MOL0     H39655   2.050   4.559  10.045 -0.6209 -0.2249  0.3957
  294MOL0     H39656   1.754   4.571  10.029  1.9333 -0.6286  4.0832
  294MOL0     H39657   1.842   4.590   9.890 -3.2531  2.5855  1.0294
  294MOL0     H39658   1.961   4.367   9.958  0.5724  2.2030  1.5031
  294MOL0     H39659   1.823   4.362  10.083 -1.0049 -0.2193  0.1035
  294MOL0     H39660   1.799   4.352   9.783  0.4773 -1.4898 -0.0263
  294MOL0     H39661   1.669   4.364   9.906 -0.2673 -0.0993  0.5038
  294MOL0     H39662   1.744   4.155  10.009 -2.1009  2.7814  1.0353
  294MOL0     H39663   1.849   4.116   9.880  1.4418  2.4757  1.7723
  294MOL0     H39664   1.632   4.006   9.861 -1.0487 -0.9942 -0.8595
  294MOL0     H39665   1.555   4.155   9.874 -0.0132  0.6271 -1.4318
  294MOL0     H39666   1.614   4.023   9.630  0.5077 -0.6186  0.8470
  294MOL0     H39667   1.753   4.134   9.647  0.6836 -2.1000  2.0607
  294MOL0     H39668   1.459   4.242   9.664  1.2532  3.3733  3.8777
  294MOL0     H39669   1.611   4.324   9.642  1.2690 -1.7197 -0.7016
  294MOL0     H39670   2.108   4.767  10.217  1.7330 -0.3200  0.8319
  294MOL0     H39671   2.153   4.900  10.442 -0.7322 -0.1189  3.9693
  294MOL0     H39672   2.147   4.818  10.922  0.9316  0.8235 -0.9829
  294MOL0     H39673   2.216   4.894  11.141 -2.0841 -1.7234  0.6501
  294MOL0     H39674   3.269   5.166  10.739 -0.4313 -0.1161  1.1589
  294MOL0     H39675   3.358   5.075  10.548  0.4629  2.1805  1.0638
  294MOL0     H39676   3.269   4.847  10.196  2.1079 -3.5470 -1.5543
  294MOL0     H39677   3.350   4.715  10.044 -2.1894  0.3503  1.1976
  294MOL0     H39678   3.416   4.603   9.888 -0.3151 -0.4253 -0.3082
  294MOL0     H39679   3.579   4.621   9.831  0.1519 -0.7925 -0.5275
  294MOL0     H39680   3.479   4.472   9.693  0.4818 -0.2713 -0.0089
  294MOL0     H39681   3.513   4.620   9.605  2.6685 -1.9923  0.2811
  294MOL0     H39682   3.264   4.669   9.579 -1.1546 -2.2263 -2.7728
  294MOL0     H39683   3.237   4.567   9.726  2.8700  1.1563  1.2327
  294MOL0     H39684   3.154   4.486   9.515  0.5166  2.8647  2.6988
  294MOL0     H39685   3.335   4.450   9.476  1.6355 -1.3200  1.7948
  294MOL0     H39686   3.268   4.108   9.673  1.6895  0.8552  0.7940
  294MOL0     H39687   3.493   5.055   9.812 -1.2390  3.0379  0.3167
  294MOL0     H39688   3.450   5.276   9.886 -3.0645 -0.5703 -1.3520
  294MOL0     H39689   3.334   5.290  10.024  0.2239  0.7506 -0.2762
  294MOL0     H39690   3.500   5.281  10.060 -1.1842 -1.6331  0.1776
  295MOL0     O39691   2.694   6.620   7.071 -0.1144 -0.0630  0.3957
  295MOL0     C39692   2.572   6.622   7.047 -0.0644 -0.1012 -0.6082
  295MOL0     O39693   2.497   6.738   7.053 -0.6856  0.1173  0.0929
  295MOL0     C39694   2.551   6.862   7.063 -0.8932  0.4876  0.3908
  295MOL0     C39695   2.656   6.900   6.986  0.0317 -0.3837  0.7551
  295MOL0     C39696   2.695   7.037   6.988 -0.3846 -0.6232 -1.0678
  295MOL0     C39697   2.635   7.134   7.073 -0.5909  0.2362 -0.7184
  295MOL0     O39698   2.692   7.254   7.057 -0.3417  0.0902 -0.1415
  295MOL0     C39699   2.628   7.371   7.113 -0.6101 -0.0254  1.0052
  295MOL0     C39700   2.552   7.433   6.998  0.6601  0.1227 -0.3976
  295MOL0     C39701   2.484   7.565   7.045  0.0437  0.3707 -0.1824
  295MOL0     C39702   2.364   7.602   6.957 -0.5879 -0.2822  0.3017
  295MOL0     C39703   2.247   7.667   7.029 -0.6701  0.9530 -0.1591
  295MOL0     C39704   2.115   7.655   6.947 -1.0087 -0.3512  0.6203
  295MOL0     C39705   1.988   7.697   7.033 -0.2798  0.1641 -0.0605
  295MOL0     C39706   1.854   7.663   6.987  1.1358  0.1197 -0.4862
  295MOL0     N39707   1.748   7.708   7.084  0.8683  0.4014  0.4174
  295MOL0     C39708   1.667   7.621   7.159  0.0864 -0.4096 -0.5823
  295MOL0     C39709   1.558   7.689   7.202  0.7403  0.2388 -0.2276
  295MOL0     C39710   1.431   7.639   7.263  0.7241 -0.1118  0.1410
  295MOL0     C39711   1.432   7.677   7.415  0.2810 -0.1195  0.5608
  295MOL0     C39712   1.374   7.817   7.446  0.4823  0.3072  0.4537
  295MOL0     C39713   1.365   7.845   7.594 -0.9116  0.6036  0.7903
  295MOL0     O39714   1.303   7.972   7.612 -0.4529  0.1087  0.3539
  295MOL0     C39715   1.300   8.023   7.741 -1.4288 -0.0026 -0.1642
  295MOL0     C39716   1.353   7.980   7.862  0.1763  1.1366 -0.4052
  295MOL0     C39717   1.349   8.060   7.974 -0.2249 -0.0885 -0.7028
  295MOL0     C39718   1.290   8.184   7.979 -0.1941  0.0601  0.3521
  295MOL0     C39719   1.290   8.270   8.102  0.1239 -1.1633 -0.1629
  295MOL0     O39720   1.196   8.371   8.112 -0.1796  0.6613 -0.1318
  295MOL0     C39721   1.192   8.447   8.232 -0.4206  0.6262  0.7846
  295MOL0     C39722   1.206   8.584   8.229 -0.3616 -0.7046  0.1685
  295MOL0     C39723   1.205   8.664   8.345 -0.6008  1.5042  0.7399
  295MOL0     C39724   1.174   8.603   8.466  0.5307  0.1280 -0.2762
  295MOL0     O39725   1.169   8.670   8.591 -0.3127 -0.6252  1.2100
  295MOL0     C39726   1.279   8.626   8.689  0.6351  0.2250  0.1872
  295MOL0     C39727   1.430   8.649   8.666 -0.5655  0.1911 -0.4919
  295MOL0     C39728   1.457   8.792   8.621  0.2741  0.4984  0.1318
  295MOL0     C39729   1.611   8.827   8.640  0.7198 -0.0626 -0.4381
  295MOL0     C39730   1.632   8.978   8.611 -0.3415  0.5398 -0.8839
  295MOL0     C39731   1.769   9.034   8.659 -0.2890  0.2337 -0.5193
  295MOL0     C39732   1.880   8.924   8.661  0.5378 -0.2933  1.1148
  295MOL0     C39733   2.011   8.968   8.728 -0.0421  0.9251  0.0414
  295MOL0    Cl39734   2.102   8.813   8.718 -0.0936 -0.2627  0.1193
  295MOL0     C39735   1.147   8.466   8.463  0.1409  0.1427 -0.3173
  295MOL0     C39736   1.168   8.384   8.354  0.3929 -0.0275  0.0905
  295MOL0     O39737   1.373   8.242   8.190 -0.8064  0.3848  0.6510
  295MOL0     C39738   1.230   8.230   7.857 -0.2870 -0.2195 -0.1652
  295MOL0     C39739   1.228   8.143   7.746 -0.1438 -0.5993  0.2792
  295MOL0     N39740   1.578   7.819   7.165 -0.7270  0.0283 -0.1265
  295MOL0     N39741   1.680   7.827   7.087  0.1781  0.4005  0.4994
  295MOL0     C39742   2.539   7.086   7.163  0.1956 -0.2173 -0.3308
  295MOL0     C39743   2.496   6.948   7.161 -0.2667 -0.4609 -0.8255
  295MOL0     C39744   2.496   6.494   7.021 -0.3895  0.1116 -0.4824
  295MOL0     C39745   2.358   6.486   7.063 -0.8931  0.0743 -0.0904
  295MOL0     C39746   2.278   6.373   7.029 -0.2892 -0.7850  1.5198
  295MOL0     C39747   2.321   6.273   6.948  0.0249 -0.1066 -0.2422
  295MOL0     O39748   2.235   6.179   6.894  0.2395 -0.0064  0.0004
  295MOL0     C39749   2.225   6.062   6.974  0.2249  0.6639  0.1823
  295MOL0     C39750   2.135   5.971   6.902  0.0060 -0.7008 -0.5866
  295MOL0     C39751   2.208   5.922   6.777  0.1568  0.5970 -0.8154
  295MOL0     C39752   2.106   5.856   6.686 -0.5492  0.2168  0.2702
  295MOL0     C39753   2.186   5.788   6.579 -0.0412 -0.3103  0.8681
  295MOL0     C39754   2.230   5.735   6.476  0.3616 -0.3639 -0.0756
  295MOL0     C39755   2.462   6.270   6.918 -0.0802 -0.1827 -1.4018
  295MOL0     C39756   2.551   6.373   6.968 -0.6297  0.3771  0.8794
  295MOL0     C39757   2.691   6.366   6.929 -0.3425  0.7267  0.1850
  295MOL0     H39758   2.704   6.833   6.915 -0.3555 -1.4146  1.4457
  295MOL0     H39759   2.771   7.079   6.923  1.1704 -0.5021  0.7459
  295MOL0     H39760   2.557   7.346   7.192 -2.1890 -2.8472 -1.1214
  295MOL0     H39761   2.699   7.448   7.145  1.3547 -0.0419 -2.7000
  295MOL0     H39762   2.475   7.361   6.967  0.0339  2.1307 -4.0560
  295MOL0     H39763   2.612   7.451   6.909 -3.6721  2.6952 -3.1516
  295MOL0     H39764   2.562   7.638   7.025 -0.5978  2.2091  3.3223
  295MOL0     H39765   2.473   7.566   7.154  1.9715  0.9048  0.0465
  295MOL0     H39766   2.388   7.673   6.877 -1.9580 -0.7670 -0.5719
  295MOL0     H39767   2.329   7.508   6.914 -1.1574  0.4370 -0.8689
  295MOL0     H39768   2.224   7.604   7.115  2.2077 -1.5472 -1.0518
  295MOL0     H39769   2.269   7.769   7.062  2.8211 -0.8439  3.8787
  295MOL0     H39770   2.116   7.714   6.855  4.1958  2.8517  2.2990
  295MOL0     H39771   2.097   7.549   6.926 -0.5441 -1.3012  4.3170
  295MOL0     H39772   1.978   7.805   7.048  0.8843 -0.0896  3.3723
  295MOL0     H39773   1.999   7.645   7.129 -1.1064 -1.0767 -0.6140
  295MOL0     H39774   1.833   7.708   6.890  0.5934 -1.7928 -1.3007
  295MOL0     H39775   1.851   7.554   6.988  0.3822  0.1330  0.3835
  295MOL0     H39776   1.677   7.513   7.166  1.9559 -0.3316 -1.4444
  295MOL0     H39777   1.347   7.688   7.213 -1.5595 -1.7600  2.1106
  295MOL0     H39778   1.416   7.532   7.251 -0.0192 -0.3766  2.8320
  295MOL0     H39779   1.374   7.603   7.472  0.8475 -0.7719  0.3050
  295MOL0     H39780   1.534   7.672   7.454  2.1311  0.4820 -3.7146
  295MOL0     H39781   1.272   7.819   7.408  0.6115  1.2619  0.1274
  295MOL0     H39782   1.419   7.904   7.398 -0.6760  0.1196 -1.0117
  295MOL0     H39783   1.466   7.843   7.636 -0.9956 -1.5084  0.9921
  295MOL0     H39784   1.294   7.773   7.636 -0.2355 -0.5289  0.0292
  295MOL0     H39785   1.423   7.897   7.866  1.1855  2.0016  0.4135
  295MOL0     H39786   1.397   8.022   8.064 -1.7471 -0.0666  0.1536
  295MOL0     H39787   1.233   8.619   8.130  1.0358  0.7506  1.0094
  295MOL0     H39788   1.244   8.765   8.342  3.7605  0.0333 -0.4390
  295MOL0     H39789   1.249   8.690   8.773  1.1534  0.4956  0.1670
  295MOL0     H39790   1.250   8.523   8.711  0.8250  0.0354 -0.4245
  295MOL0     H39791   1.479   8.630   8.762 -0.0421 -3.6956 -1.3832
  295MOL0     H39792   1.465   8.576   8.592  3.0333 -0.5536  1.6735
  295MOL0     H39793   1.444   8.786   8.512  5.9935 -0.8850 -0.8167
  295MOL0     H39794   1.394   8.854   8.685  1.8885 -0.8945  3.2898
  295MOL0     H39795   1.674   8.761   8.578  0.6742 -1.2156  0.6894
  295MOL0     H39796   1.638   8.796   8.741  0.2016  3.6012  0.9729
  295MOL0     H39797   1.563   9.043   8.666 -2.3062  0.7307 -3.4198
  295MOL0     H39798   1.636   8.987   8.502  1.2668 -0.4969 -0.9494
  295MOL0     H39799   1.783   9.120   8.593 -1.3738  0.0190 -1.0538
  295MOL0     H39800   1.766   9.071   8.761  0.6770  0.6590 -0.6342
  295MOL0     H39801   1.897   8.905   8.555 -3.9156  0.7695  0.0003
  295MOL0     H39802   1.843   8.834   8.710  0.7871 -1.4998 -0.8127
  295MOL0     H39803   2.066   9.058   8.699  0.5921  0.8560  1.0005
  295MOL0     H39804   2.001   8.979   8.836  2.4806 -0.6542  0.5312
  295MOL0     H39805   1.122   8.417   8.556 -2.4499 -3.4989 -2.6331
  295MOL0     H39806   1.150   8.279   8.374  2.9036 -0.8149 -1.4168
  295MOL0     H39807   1.171   8.320   7.870  0.8607  0.3178  1.9238
  295MOL0     H39808   1.169   8.173   7.660  2.0490 -0.5032 -1.2641
  295MOL0     H39809   2.474   7.135   7.235 -0.6930  1.6738 -2.3296
  295MOL0     H39810   2.427   6.898   7.229 -0.0208 -3.0359 -2.3588
  295MOL0     H39811   2.315   6.572   7.112 -2.4800 -0.0681 -1.1839
  295MOL0     H39812   2.176   6.362   7.064 -1.3228  0.1940 -0.9518
  295MOL0     H39813   2.172   6.079   7.068 -0.2845 -5.1290  1.2538
  295MOL0     H39814   2.322   6.013   6.989  0.7817  0.8169 -2.4574
  295MOL0     H39815   2.056   6.031   6.855  1.6472  1.0724 -1.1912
  295MOL0     H39816   2.079   5.898   6.961 -0.6361  2.1851  2.6646
  295MOL0     H39817   2.282   5.853   6.819 -0.7023  1.5331  2.6137
  295MOL0     H39818   2.266   5.999   6.726 -1.3780  0.7409 -2.4504
  295MOL0     H39819   2.050   5.783   6.745 -0.6404 -1.0333 -1.2922
  295MOL0     H39820   2.043   5.935   6.645 -0.5304  2.3725  3.9645
  295MOL0     H39821   2.277   5.704   6.385  0.7970  3.6560 -1.4315
  295MOL0     H39822   2.501   6.181   6.870 -2.3390 -3.5889  2.4856
  295MOL0     H39823   2.719   6.264   6.899  0.9128  0.5592  1.8176
  295MOL0     H39824   2.708   6.426   6.839  0.6821 -0.1298 -0.2265
  295MOL0     H39825   2.751   6.381   7.019  0.5490  2.8157 -0.7024
  296MOL0     O39826   7.137   2.098   1.483  0.1830 -1.0025  0.0294
  296MOL0     C39827   7.177   2.062   1.589  0.4529  0.0527 -0.7581
  296MOL0     O39828   7.132   2.103   1.709 -0.1074 -0.1722 -0.3286
  296MOL0     C39829   7.036   2.200   1.726 -1.1003 -1.5051  1.3377
  296MOL0     C39830   7.036   2.336   1.662  0.0626 -1.0116 -1.2677
  296MOL0     C39831   6.935   2.429   1.709  0.7377 -0.4338 -0.1340
  296MOL0     C39832   6.834   2.385   1.797  0.4310 -0.9424  0.1236
  296MOL0     O39833   6.717   2.457   1.802 -0.4620  0.5530  0.5283
  296MOL0     C39834   6.643   2.446   1.920  1.0534 -0.3525  0.5492
  296MOL0     C39835   6.506   2.439   1.881 -0.0058 -0.3413  0.7005
  296MOL0     C39836   6.418   2.435   2.006  0.3221  0.0950 -0.3986
  296MOL0     C39837   6.266   2.404   1.984  0.4294 -0.2902 -0.5713
  296MOL0     C39838   6.194   2.477   1.866 -0.3910 -0.5222  0.4983
  296MOL0     C39839   6.039   2.478   1.869  0.7105 -0.5330  0.5170
  296MOL0     C39840   5.967   2.538   1.738  0.2827  0.8439 -0.4803
  296MOL0     C39841   5.809   2.533   1.762  0.7541 -0.0362  0.2701
  296MOL0     N39842   5.747   2.572   1.639 -0.4161 -0.0349  0.1142
  296MOL0     C39843   5.760   2.698   1.586 -0.2178  1.2700 -0.3963
  296MOL0     C39844   5.685   2.708   1.472 -0.6847  0.7608 -0.7554
  296MOL0     C39845   5.685   2.829   1.380  1.1308  0.7388 -0.3956
  296MOL0     C39846   5.610   2.805   1.247 -0.2900 -0.1266  0.5681
  296MOL0     C39847   5.577   2.935   1.169  0.2038 -0.0756 -0.9102
  296MOL0     C39848   5.696   2.996   1.085  0.3861  1.1676  1.2307
  296MOL0     O39849   5.697   2.924   0.959 -0.1822 -0.0128  0.3591
  296MOL0     C39850   5.782   2.985   0.863  0.4318  0.5728  1.1900
  296MOL0     C39851   5.725   3.045   0.752 -0.8289  0.3897 -0.4602
  296MOL0     C39852   5.810   3.110   0.658  0.1355 -0.0593  0.3503
  296MOL0     C39853   5.938   3.134   0.677 -0.3497 -0.2786 -0.2282
  296MOL0     C39854   6.020   3.207   0.572 -0.4307 -1.5007  0.8791
  296MOL0     O39855   5.945   3.275   0.472  0.4321  0.2980 -0.4876
  296MOL0     C39856   6.002   3.336   0.364  0.0660 -0.3284  0.0421
  296MOL0     C39857   5.922   3.413   0.280  0.5686  0.2309 -0.8123
  296MOL0     C39858   5.983   3.468   0.165  0.8398  0.1308  0.4581
  296MOL0     C39859   6.108   3.430   0.112  0.8973  0.5959  0.3726
  296MOL0     O39860   6.154   3.467  -0.005  0.4115 -0.1325  0.7338
  296MOL0     C39861   6.158   3.614  -0.026 -0.2187  1.1044 -0.1546
  296MOL0     C39862   6.286   3.669  -0.051  0.5801 -0.7763  0.3228
  296MOL0     C39863   6.275   3.792  -0.148  0.5525 -1.1246 -0.2914
  296MOL0     C39864   6.236   3.918  -0.061  1.1062 -0.7396 -0.0470
  296MOL0     C39865   6.249   4.050  -0.135 -0.3862 -0.6901 -0.5083
  296MOL0     C39866   6.166   4.070  -0.264  0.0814 -0.9856  0.0425
  296MOL0     C39867   6.042   4.142  -0.219 -0.2487 -0.4794  0.8509
  296MOL0     C39868   5.955   4.179  -0.330  1.7171 -0.0302  0.1039
  296MOL0    Cl39869   6.005   4.332  -0.387  0.4448 -0.7912 -0.2655
  296MOL0     C39870   6.186   3.349   0.195  0.1118  0.0709 -1.1020
  296MOL0     C39871   6.137   3.302   0.316  0.8990 -0.0454 -0.9586
  296MOL0     O39872   6.137   3.207   0.589 -0.2211 -0.2357  0.5151
  296MOL0     C39873   5.997   3.096   0.807  0.8445  0.9874 -0.0746
  296MOL0     C39874   5.915   3.004   0.885 -0.5392 -0.1095 -0.3395
  296MOL0     N39875   5.632   2.577   1.458 -0.5403  0.3084  0.4350
  296MOL0     N39876   5.662   2.503   1.565 -0.0002  0.2521  0.5892
  296MOL0     C39877   6.829   2.250   1.843  0.3772  0.6771 -0.3941
  296MOL0     C39878   6.933   2.164   1.813  0.3559 -0.2789  0.7714
  296MOL0     C39879   7.287   1.962   1.601  0.8963 -0.8698 -0.1436
  296MOL0     C39880   7.313   1.904   1.474 -0.0210 -0.6705  0.5232
  296MOL0     C39881   7.419   1.817   1.457 -1.1550 -0.7880  0.5457
  296MOL0     C39882   7.503   1.787   1.567 -0.0322 -0.0890 -0.9376
  296MOL0     O39883   7.617   1.720   1.557 -0.1123  0.2867  0.3252
  296MOL0     C39884   7.679   1.680   1.429 -0.7619 -0.2256 -0.6240
  296MOL0     C39885   7.792   1.592   1.475 -0.6954  0.3335  0.8222
  296MOL0     C39886   7.916   1.669   1.532 -0.6132  0.2562  0.3731
  296MOL0     C39887   7.999   1.742   1.425 -0.0126  0.3860  0.4374
  296MOL0     C39888   8.111   1.821   1.478  0.1658 -0.6087  0.2126
  296MOL0     C39889   8.200   1.877   1.535 -0.2253  0.0039  0.2288
  296MOL0     C39890   7.469   1.843   1.697  0.3759  0.3739  0.7866
  296MOL0     C39891   7.365   1.931   1.716  0.2654 -0.7888  0.1077
  296MOL0     C39892   7.354   1.996   1.848  0.0303  0.2724  0.3632
  296MOL0     H39893   7.121   2.369   1.602  0.4224 -1.7838 -1.1964
  296MOL0     H39894   6.946   2.533   1.680  3.4032 -0.3916  0.7852
  296MOL0     H39895   6.668   2.368   1.992 -1.9267 -1.9623  0.0205
  296MOL0     H39896   6.659   2.545   1.962  1.2619 -0.4040  0.5903
  296MOL0     H39897   6.487   2.347   1.824 -2.4648  1.5355 -1.7617
  296MOL0     H39898   6.488   2.531   1.825  2.6896 -0.0432  0.2155
  296MOL0     H39899   6.425   2.529   2.063  0.6118  0.3277 -0.8169
  296MOL0     H39900   6.455   2.353   2.068  0.0163 -0.0131 -0.3569
  296MOL0     H39901   6.250   2.299   1.958  0.8141 -0.3177 -0.7003
  296MOL0     H39902   6.212   2.422   2.077 -3.0352 -3.2888 -1.7224
  296MOL0     H39903   6.230   2.579   1.856  0.9349 -1.1041 -1.2473
  296MOL0     H39904   6.226   2.442   1.768  0.5843 -0.3145  0.7261
  296MOL0     H39905   6.018   2.372   1.883  0.2164 -0.4287  0.5850
  296MOL0     H39906   5.995   2.534   1.953 -1.2082 -0.6609 -0.3554
  296MOL0     H39907   6.004   2.472   1.658  0.2726 -0.0520  0.2376
  296MOL0     H39908   5.998   2.641   1.719  2.6447 -0.0624 -2.0709
  296MOL0     H39909   5.781   2.433   1.798 -1.2682 -0.1800 -1.4954
  296MOL0     H39910   5.780   2.601   1.843  3.3907  3.8503 -1.7625
  296MOL0     H39911   5.815   2.781   1.630 -1.0059  0.3644  2.5588
  296MOL0     H39912   5.619   2.905   1.423  0.9977  0.5912 -0.3382
  296MOL0     H39913   5.787   2.867   1.370  1.2719  1.9820  3.6563
  296MOL0     H39914   5.676   2.738   1.191  1.5988  1.7414  0.4043
  296MOL0     H39915   5.513   2.758   1.261  0.2030 -2.3555 -2.5973
  296MOL0     H39916   5.533   3.007   1.239 -2.2371 -1.1777 -1.1899
  296MOL0     H39917   5.498   2.902   1.101  1.6473 -2.8792 -1.3901
  296MOL0     H39918   5.796   2.967   1.119  0.3313  0.3125  0.6822
  296MOL0     H39919   5.689   3.103   1.065 -0.4854  1.1051  1.1483
  296MOL0     H39920   5.620   3.038   0.724 -0.4825 -1.0060 -1.4775
  296MOL0     H39921   5.769   3.155   0.569  0.5809  1.8005  1.0298
  296MOL0     H39922   5.822   3.441   0.310  0.2828  0.9016 -2.2629
  296MOL0     H39923   5.916   3.525   0.102 -0.4137  0.8966  2.3928
  296MOL0     H39924   6.098   3.627  -0.116  2.5730  0.2650 -2.2988
  296MOL0     H39925   6.111   3.676   0.051 -0.7988  2.5803 -1.6490
  296MOL0     H39926   6.337   3.684   0.044  1.7897 -2.4268 -0.0364
  296MOL0     H39927   6.353   3.603  -0.107  2.0389  0.1104  0.9507
  296MOL0     H39928   6.376   3.817  -0.183 -0.1422  1.4176 -0.6581
  296MOL0     H39929   6.196   3.775  -0.221 -0.6901  0.5710  0.6180
  296MOL0     H39930   6.302   3.914   0.026  0.3507 -3.3116  0.4960
  296MOL0     H39931   6.128   3.916  -0.043  1.1625  0.8243  0.5826
  296MOL0     H39932   6.358   4.060  -0.146 -0.5992  4.2110 -0.2688
  296MOL0     H39933   6.238   4.136  -0.068 -4.1199  1.6184 -3.6284
  296MOL0     H39934   6.214   4.133  -0.339  0.1675 -0.6367  0.3826
  296MOL0     H39935   6.137   3.977  -0.314  2.0223 -2.0489  0.7851
  296MOL0     H39936   6.056   4.236  -0.164  2.2675  2.3195 -3.9780
  296MOL0     H39937   5.989   4.075  -0.150  1.4290 -2.7207  0.0689
  296MOL0     H39938   5.951   4.097  -0.403  0.5137 -2.2836  2.5255
  296MOL0     H39939   5.848   4.187  -0.307  1.4416  0.8711 -1.3466
  296MOL0     H39940   6.278   3.303   0.160  0.2037  0.6683 -1.6492
  296MOL0     H39941   6.202   3.230   0.364 -2.4963 -1.1720  2.5527
  296MOL0     H39942   6.098   3.131   0.823  1.8411 -1.2895 -0.9119
  296MOL0     H39943   5.963   2.943   0.961 -0.0698  0.2361 -0.3545
  296MOL0     H39944   6.746   2.201   1.893  2.3055  0.5301  2.9868
  296MOL0     H39945   6.927   2.060   1.843 -2.1701 -1.0407 -1.8948
  296MOL0     H39946   7.272   1.933   1.378  2.4656  0.3811 -0.2924
  296MOL0     H39947   7.439   1.781   1.357 -0.4298  0.5352  0.1986
  296MOL0     H39948   7.700   1.763   1.361  1.1358 -0.9582 -0.9979
  296MOL0     H39949   7.598   1.618   1.387 -0.5443 -1.5126  0.7730
  296MOL0     H39950   7.820   1.531   1.389  1.1587  0.5033  1.2544
  296MOL0     H39951   7.763   1.518   1.550 -2.8409 -1.4128 -1.5830
  296MOL0     H39952   7.978   1.601   1.591  1.3520  1.8348  0.2236
  296MOL0     H39953   7.877   1.752   1.592  1.4190  1.2816  0.3488
  296MOL0     H39954   8.054   1.667   1.368 -1.0669 -2.7373  3.2381
  296MOL0     H39955   7.941   1.806   1.358  3.4220  2.6450 -0.6363
  296MOL0     H39956   8.281   1.922   1.589  1.0245  0.3171 -1.7975
  296MOL0     H39957   7.535   1.821   1.780  0.1312  2.3705  1.5712
  296MOL0     H39958   7.428   1.960   1.920  0.5217 -0.6369 -0.5694
  296MOL0     H39959   7.352   2.105   1.841  0.2064  0.1712 -2.4809
  296MOL0     H39960   7.258   1.963   1.889  0.8488  0.3817  2.5337
  297MOL0     O39961   2.449   7.697   2.154  1.3054 -1.2535  0.0021
  297MOL0     C39962   2.471   7.628   2.056 -0.3674  0.4112  0.0168
  297MOL0     O39963   2.592   7.588   2.013 -0.3499  0.0361 -0.1811
  297MOL0     C39964   2.708   7.640   2.071 -1.6678  0.1911 -0.8089
  297MOL0     C39965   2.730   7.773   2.078 -0.0289  0.7948  0.7406
  297MOL0     C39966   2.849   7.831   2.133  0.7121 -0.4276 -0.0713
  297MOL0     C39967   2.953   7.746   2.163  0.2705  0.1714 -0.4971
  297MOL0     O39968   3.079   7.790   2.196 -0.6002  0.0242  0.2268
  297MOL0     C39969   3.124   7.916   2.139  0.6923 -0.0887  0.0086
  297MOL0     C39970   3.272   7.930   2.175 -0.3597  0.7389 -1.4047
  297MOL0     C39971   3.360   7.804   2.159  0.4202  0.2465 -0.5250
  297MOL0     C39972   3.373   7.728   2.299 -0.1443 -0.4630 -0.2204
  297MOL0     C39973   3.458   7.614   2.298 -0.6357  0.5434 -0.3105
  297MOL0     C39974   3.607   7.647   2.303  1.3184  0.6247  0.3218
  297MOL0     C39975   3.691   7.527   2.258  0.0154 -0.7883 -0.2265
  297MOL0     C39976   3.724   7.436   2.380  0.4451  0.2982 -0.0978
  297MOL0     N39977   3.835   7.348   2.333  0.2695  0.7370 -0.2242
  297MOL0     C39978   3.829   7.208   2.338  0.8778  0.1095 -1.0172
  297MOL0     C39979   3.961   7.173   2.326  0.0768  0.8215  0.4101
  297MOL0     C39980   4.013   7.032   2.322  0.0006 -1.3185  0.7200
  297MOL0     C39981   4.045   6.974   2.458 -0.2842  0.7005  0.0074
  297MOL0     C39982   3.939   7.006   2.555 -0.4266 -0.2889 -1.4336
  297MOL0     C39983   3.981   6.931   2.687  0.0010  0.5947 -0.6720
  297MOL0     O39984   3.962   6.787   2.678 -0.1397  0.0069  0.0356
  297MOL0     C39985   3.989   6.696   2.784 -0.9918 -0.8275 -0.7668
  297MOL0     C39986   3.973   6.566   2.765  0.8040  1.2446  0.5149
  297MOL0     C39987   3.993   6.473   2.863  0.4204  0.2427 -0.0511
  297MOL0     C39988   4.056   6.504   2.987  0.2690 -0.2295  0.4005
  297MOL0     C39989   4.085   6.399   3.090 -0.6289  0.0647 -0.2243
  297MOL0     O39990   3.997   6.300   3.108  1.0118 -0.9707  0.0182
  297MOL0     C39991   4.001   6.211   3.216 -0.5111  0.0727  0.6379
  297MOL0     C39992   3.927   6.092   3.182  0.0489 -0.4884  0.7454
  297MOL0     C39993   3.927   5.988   3.275 -0.2611  0.4158  0.0224
  297MOL0     C39994   4.004   5.989   3.390 -0.6357  0.4319  0.8151
  297MOL0     O39995   4.007   5.878   3.471  0.2345  0.1209 -0.1630
  297MOL0     C39996   4.126   5.853   3.544 -0.8962 -0.2841 -0.1235
  297MOL0     C39997   4.133   5.715   3.602  0.5561  0.3860 -0.7301
  297MOL0     C39998   3.993   5.700   3.675 -0.0353  0.0351 -0.8490
  297MOL0     C39999   4.013   5.709   3.827 -0.1198 -0.1280  0.3095
  297MOL0     C40000   3.999   5.850   3.889  0.3320  0.0958  0.4014
  297MOL0     C40001   4.042   5.854   4.034 -0.7696 -0.6215 -0.0593
  297MOL0     C40002   3.951   5.765   4.123 -0.3268  0.8257 -0.3047
  297MOL0     C40003   3.947   5.815   4.265  0.0354  0.3551  1.3745
  297MOL0    Cl40004   3.807   5.935   4.258  0.0012 -0.2462  0.1411
  297MOL0     C40005   4.075   6.102   3.416 -0.0669 -0.2613  0.7801
  297MOL0     C40006   4.081   6.217   3.327  0.6002 -0.3749  0.5231
  297MOL0     O40007   4.195   6.405   3.141  0.2683 -0.3428  0.5510
  297MOL0     C40008   4.086   6.638   3.002  0.3829 -0.0701  0.5631
  297MOL0     C40009   4.056   6.734   2.904 -0.2586 -0.0522  0.1918
  297MOL0     N40010   4.042   7.289   2.317  0.4975  0.0139  0.6010
  297MOL0     N40011   3.965   7.394   2.328  0.0002  0.0327  0.1728
  297MOL0     C40012   2.942   7.616   2.138  0.3043  0.0284  0.5163
  297MOL0     C40013   2.814   7.558   2.099  0.7707  0.3180 -0.0913
  297MOL0     C40014   2.353   7.579   1.982  0.1991  0.1718 -0.5922
  297MOL0     C40015   2.385   7.549   1.848  0.0042 -0.4833 -0.4339
  297MOL0     C40016   2.286   7.493   1.756 -0.0161  0.5989  0.4324
  297MOL0     C40017   2.153   7.478   1.794 -0.7215 -0.1662  0.2718
  297MOL0     O40018   2.058   7.430   1.704  0.0471  0.2521  0.6603
  297MOL0     C40019   1.968   7.321   1.748  0.3852 -0.2093 -0.2039
  297MOL0     C40020   1.876   7.257   1.634 -0.0636 -0.3273 -0.1682
  297MOL0     C40021   1.957   7.209   1.523  0.5440  1.0452  0.5884
  297MOL0     C40022   1.882   7.129   1.417  0.7161  0.2226 -0.0655
  297MOL0     C40023   1.849   6.993   1.460  0.3258  0.6107 -0.3058
  297MOL0     C40024   1.821   6.884   1.507 -0.1047 -0.2016 -0.5190
  297MOL0     C40025   2.116   7.524   1.920 -0.0872  0.8580 -0.0731
  297MOL0     C40026   2.215   7.563   2.010 -0.4812 -0.9429  1.0833
  297MOL0     C40027   2.175   7.616   2.143  0.5145 -0.4239  0.3576
  297MOL0     H40028   2.662   7.837   2.023 -2.8452 -0.4903  2.5289
  297MOL0     H40029   2.861   7.938   2.139 -0.0880 -0.4040  1.3802
  297MOL0     H40030   3.109   7.909   2.030 -3.9047 -1.9503  0.5310
  297MOL0     H40031   3.059   7.997   2.173 -1.0763 -1.7386  0.7829
  297MOL0     H40032   3.281   7.963   2.279 -2.4399 -0.0574 -0.9330
  297MOL0     H40033   3.326   7.998   2.108  2.9999 -0.3235  0.0002
  297MOL0     H40034   3.460   7.833   2.127 -0.0878  1.9544 -0.6698
  297MOL0     H40035   3.304   7.741   2.090 -0.3637 -2.4918  2.3714
  297MOL0     H40036   3.385   7.799   2.381 -2.5931  1.4534 -1.4034
  297MOL0     H40037   3.272   7.688   2.314  0.2277 -1.1888  0.3998
  297MOL0     H40038   3.422   7.566   2.389 -3.8208  3.2787  0.0694
  297MOL0     H40039   3.439   7.557   2.206 -1.0962 -0.5427  0.4360
  297MOL0     H40040   3.629   7.735   2.242 -0.4386  0.0926 -1.1799
  297MOL0     H40041   3.634   7.672   2.406  1.2120  2.0076  0.0309
  297MOL0     H40042   3.786   7.566   2.221  0.1926  1.2061  2.0914
  297MOL0     H40043   3.635   7.478   2.177  0.1445  2.2913 -2.3702
  297MOL0     H40044   3.754   7.492   2.468  1.2353 -0.7230  0.2940
  297MOL0     H40045   3.636   7.372   2.394 -1.3967  2.2450 -1.9091
  297MOL0     H40046   3.741   7.145   2.345 -2.2781  4.1627 -0.3964
  297MOL0     H40047   3.936   6.966   2.280  1.0176 -2.4299  0.5563
  297MOL0     H40048   4.099   7.029   2.254 -1.4382  2.0085 -1.5015
  297MOL0     H40049   4.046   6.867   2.433  0.6014  0.7697 -0.3119
  297MOL0     H40050   4.148   6.995   2.490  0.0682 -0.2396 -0.4558
  297MOL0     H40051   3.840   6.966   2.528 -0.8028 -0.6571  0.3810
  297MOL0     H40052   3.927   7.115   2.564 -2.9709 -0.5261 -1.0566
  297MOL0     H40053   3.929   6.980   2.770  4.2313  2.5728  1.1601
  297MOL0     H40054   4.087   6.955   2.702 -0.0679 -0.4840  2.1238
  297MOL0     H40055   3.929   6.530   2.672  2.1264 -2.8325  1.2751
  297MOL0     H40056   3.964   6.370   2.845  2.2652 -0.9585  2.8914
  297MOL0     H40057   3.861   6.088   3.096  2.2788  2.4225 -1.2714
  297MOL0     H40058   3.879   5.895   3.245 -4.0331  1.7963  1.1195
  297MOL0     H40059   4.215   5.864   3.481  0.8944  2.6553  2.6485
  297MOL0     H40060   4.124   5.916   3.633  1.8167 -0.6468  0.2710
  297MOL0     H40061   4.158   5.641   3.526  0.3461 -0.8625  0.3694
  297MOL0     H40062   4.217   5.709   3.671 -0.1277 -1.7193  0.0062
  297MOL0     H40063   3.911   5.767   3.649  1.9717  3.5812  1.1228
  297MOL0     H40064   3.954   5.603   3.644  0.9668 -2.0476  3.5192
  297MOL0     H40065   4.112   5.668   3.845  1.1229  1.4819 -2.2557
  297MOL0     H40066   3.932   5.654   3.876 -1.7110 -0.0972 -2.1042
  297MOL0     H40067   3.893   5.876   3.879  0.2822  0.2498  1.1993
  297MOL0     H40068   4.062   5.913   3.827  2.3631 -2.0152  0.1796
  297MOL0     H40069   4.144   5.819   4.048 -0.9347 -1.0443  0.1173
  297MOL0     H40070   4.038   5.959   4.064  1.8257 -0.3920 -0.2939
  297MOL0     H40071   3.999   5.667   4.110 -0.6378  0.6104  0.1266
  297MOL0     H40072   3.854   5.752   4.074 -0.3121  0.1880 -0.1775
  297MOL0     H40073   3.922   5.742   4.343 -2.8882 -0.7333 -0.4234
  297MOL0     H40074   4.042   5.858   4.297  1.5076 -2.5407  1.2567
  297MOL0     H40075   4.141   6.116   3.502  1.4129  0.3860 -0.3999
  297MOL0     H40076   4.146   6.300   3.352 -1.4952  1.4011  0.3544
  297MOL0     H40077   4.136   6.663   3.095  1.5188 -1.6328  0.4225
  297MOL0     H40078   4.082   6.836   2.931 -1.1618  0.2466 -0.0590
  297MOL0     H40079   3.032   7.561   2.165  1.6362  1.5597 -0.6172
  297MOL0     H40080   2.813   7.455   2.065  3.6506 -0.0003  0.5292
  297MOL0     H40081   2.485   7.572   1.812  0.5516 -0.2153  1.1533
  297MOL0     H40082   2.311   7.460   1.656  2.0385 -0.6265  1.3021
  297MOL0     H40083   1.898   7.350   1.827  1.0603 -2.2439  1.2472
  297MOL0     H40084   2.023   7.247   1.808  3.2974  2.5429  0.7970
  297MOL0     H40085   1.806   7.325   1.585 -0.6525 -3.8550 -5.0728
  297MOL0     H40086   1.814   7.177   1.676  0.1962  0.9391  2.8437
  297MOL0     H40087   2.029   7.143   1.573  2.1738  3.4035  1.5591
  297MOL0     H40088   2.011   7.291   1.475 -2.3949  2.3642 -0.7420
  297MOL0     H40089   1.790   7.179   1.385  2.0231  2.0476 -1.1523
  297MOL0     H40090   1.928   7.113   1.319  0.6120 -2.7215  0.2668
  297MOL0     H40091   1.814   6.786   1.550  0.9994  0.6483  1.7625
  297MOL0     H40092   2.012   7.499   1.939  0.2942 -0.0150  0.9587
  297MOL0     H40093   2.239   7.574   2.220  2.6334 -0.4151 -1.3173
  297MOL0     H40094   2.183   7.725   2.151  6.2208 -0.0468 -4.1813
  297MOL0     H40095   2.076   7.572   2.162  2.1081 -3.5504  2.1497
  298MOL0     O40096   7.439   9.114   4.592  0.0705  0.7385 -0.6226
  298MOL0     C40097   7.509   9.193   4.527  0.1828  0.4257 -0.5750
  298MOL0     O40098   7.563   9.161   4.413 -0.3289 -0.2526 -0.3091
  298MOL0     C40099   7.583   9.035   4.360 -0.4082 -0.0044 -0.6678
  298MOL0     C40100   7.617   9.029   4.229 -0.1532 -0.4790 -0.3420
  298MOL0     C40101   7.658   8.911   4.164 -0.5748 -0.3557 -0.9501
  298MOL0     C40102   7.671   8.800   4.243  0.2674  1.1228  0.5704
  298MOL0     O40103   7.748   8.695   4.205  0.1708  0.3801  0.5505
  298MOL0     C40104   7.894   8.706   4.205 -0.1115 -0.3930  0.1064
  298MOL0     C40105   7.966   8.584   4.158 -1.6575  0.2367 -1.9122
  298MOL0     C40106   7.922   8.457   4.237 -0.3794 -0.4390  0.4277
  298MOL0     C40107   7.954   8.466   4.380 -0.6778  0.0430 -0.3680
  298MOL0     C40108   7.953   8.345   4.462  0.6918 -0.1482  0.7248
  298MOL0     C40109   7.818   8.273   4.500  0.2489  0.6257  0.4010
  298MOL0     C40110   7.760   8.321   4.626  0.5675 -0.8757  0.6567
  298MOL0     C40111   7.638   8.239   4.667  1.5132 -0.5471  0.7226
  298MOL0     N40112   7.525   8.245   4.571  0.6566  0.2167 -0.8641
  298MOL0     C40113   7.471   8.351   4.492  0.0409  0.4630 -1.1203
  298MOL0     C40114   7.380   8.290   4.421 -0.5045 -0.5740  0.1120
  298MOL0     C40115   7.293   8.340   4.316 -0.5884 -0.6754 -1.3175
  298MOL0     C40116   7.348   8.344   4.179  0.2837  1.1253  0.5951
  298MOL0     C40117   7.489   8.398   4.169  0.2540  0.4189  0.1375
  298MOL0     C40118   7.551   8.405   4.035 -0.1748 -0.3639 -0.5624
  298MOL0     O40119   7.471   8.478   3.950  1.2530  0.0103  0.2727
  298MOL0     C40120   7.498   8.469   3.819 -0.5203  0.6819  0.0370
  298MOL0     C40121   7.572   8.368   3.750 -0.1803  0.9997 -0.2403
  298MOL0     C40122   7.585   8.371   3.612 -0.2804  0.2489  0.4153
  298MOL0     C40123   7.544   8.481   3.530  0.0044  0.3410 -0.2912
  298MOL0     C40124   7.550   8.484   3.388  0.3698  0.5975  0.5147
  298MOL0     O40125   7.534   8.609   3.330  0.5795  0.1871  0.3437
  298MOL0     C40126   7.555   8.631   3.201  1.2858  0.1302  0.4670
  298MOL0     C40127   7.651   8.555   3.124  0.6471  0.8654 -0.6409
  298MOL0     C40128   7.673   8.589   2.991 -0.4386 -0.4185  1.1773
  298MOL0     C40129   7.601   8.699   2.934  0.6448 -0.1393 -0.2681
  298MOL0     O40130   7.631   8.726   2.800  0.5411 -0.3288 -0.8223
  298MOL0     C40131   7.658   8.864   2.772  0.6357 -0.0485  0.2459
  298MOL0     C40132   7.800   8.902   2.799  0.1178 -0.3017  0.5911
  298MOL0     C40133   7.818   8.973   2.931  0.4919 -0.1419  0.4554
  298MOL0     C40134   7.843   8.881   3.046 -0.0281 -1.0590  0.2310
  298MOL0     C40135   7.917   8.945   3.161 -0.0778 -0.2924  0.6011
  298MOL0     C40136   7.977   8.848   3.259 -0.5396  0.1675  0.1315
  298MOL0     C40137   7.861   8.827   3.361 -0.2015 -0.1710  0.4570
  298MOL0     C40138   7.894   8.700   3.440 -0.4515 -0.0221 -0.0523
  298MOL0    Cl40139   7.779   8.671   3.579 -0.0267  0.0447 -0.3036
  298MOL0     C40140   7.499   8.768   3.003  0.1671  0.1756  0.0568
  298MOL0     C40141   7.477   8.732   3.139 -0.7577  0.0565  1.1430
  298MOL0     O40142   7.570   8.379   3.323 -0.3739  0.5447  0.2605
  298MOL0     C40143   7.463   8.565   3.598 -0.2252 -0.6491  0.5819
  298MOL0     C40144   7.444   8.561   3.742  0.0088  0.3436  0.7403
  298MOL0     N40145   7.375   8.150   4.457  0.1181  0.5493  0.2660
  298MOL0     N40146   7.457   8.123   4.546  0.2799 -0.1888  0.1510
  298MOL0     C40147   7.617   8.790   4.371 -0.4240  1.3786 -0.6674
  298MOL0     C40148   7.578   8.907   4.429  0.2920  0.2917  0.1845
  298MOL0     C40149   7.544   9.325   4.582 -0.3709 -0.4664  0.2350
  298MOL0     C40150   7.654   9.385   4.521 -0.2450 -0.7287 -0.7367
  298MOL0     C40151   7.696   9.519   4.547 -0.5077  0.1373 -0.7414
  298MOL0     C40152   7.631   9.601   4.633  0.2911  0.1999  0.8138
  298MOL0     O40153   7.660   9.735   4.620 -0.2961  0.3871  0.9189
  298MOL0     C40154   7.676   9.810   4.742 -0.6268  0.9433  0.1696
  298MOL0     C40155   7.694   9.958   4.709 -0.7988 -0.3368 -0.0671
  298MOL0     C40156   7.561  10.008   4.654 -0.0578 -0.4900  0.4617
  298MOL0     C40157   7.554  10.163   4.650  0.6724  0.7241 -0.4668
  298MOL0     C40158   7.621  10.205   4.535 -0.3544 -0.5213  0.4288
  298MOL0     C40159   7.667  10.247   4.427  0.0336 -0.9778 -0.6908
  298MOL0     C40160   7.528   9.540   4.704 -0.6209  0.1934  0.3045
  298MOL0     C40161   7.484   9.406   4.685  0.1236  0.4018  0.3784
  298MOL0     C40162   7.353   9.367   4.749  0.7619  0.1146  0.3462
  298MOL0     H40163   7.611   9.119   4.169 -5.2143 -0.6115 -0.4774
  298MOL0     H40164   7.696   8.919   4.063  0.0897 -2.7348 -0.9303
  298MOL0     H40165   7.915   8.796   4.146 -0.7783 -0.7584 -0.7132
  298MOL0     H40166   7.937   8.731   4.302  1.7802  1.8227 -1.2006
  298MOL0     H40167   8.074   8.581   4.175 -1.9498 -4.0149  0.6515
  298MOL0     H40168   7.945   8.577   4.051  1.8195 -0.3177 -2.6929
  298MOL0     H40169   7.984   8.374   4.203  2.4181 -0.1170  4.1080
  298MOL0     H40170   7.817   8.447   4.208 -0.0532  1.6551 -1.8411
  298MOL0     H40171   8.051   8.515   4.376 -1.0881  0.7961 -1.4318
  298MOL0     H40172   7.898   8.541   4.436 -0.1575 -1.4875  2.4059
  298MOL0     H40173   8.022   8.274   4.417 -0.4464  0.0469 -1.4854
  298MOL0     H40174   8.001   8.385   4.552 -2.5863  0.6048  2.2952
  298MOL0     H40175   7.753   8.309   4.420  1.2888  1.3537 -0.1343
  298MOL0     H40176   7.834   8.165   4.501 -1.7994  0.2793  0.1421
  298MOL0     H40177   7.735   8.427   4.615  3.1371 -0.0895  1.5929
  298MOL0     H40178   7.840   8.324   4.702  2.0321  2.4857 -0.7841
  298MOL0     H40179   7.670   8.135   4.682  0.5800 -0.8124  0.9135
  298MOL0     H40180   7.593   8.274   4.760  1.3739 -2.5692  1.4576
  298MOL0     H40181   7.489   8.458   4.492  0.7571  0.3932  1.2404
  298MOL0     H40182   7.203   8.278   4.326  0.2429 -1.5207  4.3873
  298MOL0     H40183   7.266   8.441   4.349  0.8935 -0.7439  0.2709
  298MOL0     H40184   7.354   8.238   4.154 -0.4811  1.8778 -3.6398
  298MOL0     H40185   7.286   8.395   4.105 -2.3463 -0.8298  1.3301
  298MOL0     H40186   7.556   8.341   4.234 -1.5878 -1.7587  0.2478
  298MOL0     H40187   7.485   8.502   4.205  2.7500 -0.5664  3.9025
  298MOL0     H40188   7.560   8.299   4.007  2.5595 -0.9811  2.1103
  298MOL0     H40189   7.653   8.443   4.046 -0.4138 -0.3214  2.4001
  298MOL0     H40190   7.618   8.280   3.792 -3.0768 -0.2052  0.6641
  298MOL0     H40191   7.627   8.283   3.565  2.1864  1.3589  0.3967
  298MOL0     H40192   7.705   8.479   3.179 -1.7199 -0.1489  0.4595
  298MOL0     H40193   7.743   8.539   2.924 -0.5449  0.4795  0.3656
  298MOL0     H40194   7.628   8.879   2.668  0.4910  1.6280  0.5005
  298MOL0     H40195   7.599   8.938   2.828 -1.1505 -2.1334  1.2708
  298MOL0     H40196   7.856   8.807   2.795 -2.4344 -1.8796 -0.0942
  298MOL0     H40197   7.827   8.972   2.720  1.1783  0.6087  1.7316
  298MOL0     H40198   7.911   9.030   2.922  0.6302 -0.4136  0.1636
  298MOL0     H40199   7.739   9.043   2.961  1.8820  1.5464  0.3214
  298MOL0     H40200   7.907   8.797   3.017  0.1283 -1.5205  1.8344
  298MOL0     H40201   7.740   8.846   3.062 -0.4816 -0.0966 -0.5122
  298MOL0     H40202   7.852   9.016   3.213 -2.8827 -3.4110  1.8090
  298MOL0     H40203   8.002   8.986   3.107  0.4721 -0.1709  1.5387
  298MOL0     H40204   7.994   8.760   3.196  2.1609  2.2854 -2.3905
  298MOL0     H40205   8.072   8.876   3.307 -0.3111 -0.5521  0.1200
  298MOL0     H40206   7.761   8.823   3.316 -0.2387 -0.1337  0.5358
  298MOL0     H40207   7.861   8.919   3.420  0.3239  3.0681 -4.0978
  298MOL0     H40208   7.884   8.616   3.370 -1.4832 -0.6532  0.8112
  298MOL0     H40209   7.990   8.693   3.492 -0.4858  0.7934  0.1259
  298MOL0     H40210   7.450   8.850   2.952 -0.3687 -0.1707  0.0093
  298MOL0     H40211   7.395   8.763   3.202 -0.2029 -1.6559  2.8279
  298MOL0     H40212   7.403   8.645   3.557 -0.0987  0.2690  2.1326
  298MOL0     H40213   7.385   8.633   3.798 -1.7271 -1.1377  0.8956
  298MOL0     H40214   7.610   8.699   4.429 -3.6332  1.6271 -0.4762
  298MOL0     H40215   7.556   8.895   4.534 -0.9279  1.6046  0.1149
  298MOL0     H40216   7.730   9.336   4.462  1.1789  1.3152 -0.7185
  298MOL0     H40217   7.773   9.572   4.492  0.5995  0.7208  1.2891
  298MOL0     H40218   7.756   9.775   4.808 -2.4908 -1.4592  1.3549
  298MOL0     H40219   7.587   9.787   4.802 -0.3763 -0.6238  0.0039
  298MOL0     H40220   7.785   9.964   4.648  0.3591 -2.2712  1.3403
  298MOL0     H40221   7.712  10.009   4.804  2.1327 -2.4551  0.6729
  298MOL0     H40222   7.478   9.966   4.710 -1.4986  1.2561 -0.2505
  298MOL0     H40223   7.548   9.976   4.550 -1.9864 -0.2852  0.6093
  298MOL0     H40224   7.446  10.179   4.658 -0.4346 -4.8928  0.5758
  298MOL0     H40225   7.592  10.204   4.744 -2.2668 -0.7961  1.5772
  298MOL0     H40226   7.711  10.277   4.334 -1.6562  1.2750 -0.8512
  298MOL0     H40227   7.469   9.605   4.768  0.0481 -0.7968  2.0010
  298MOL0     H40228   7.371   9.323   4.848 -1.9245  1.0445  1.3313
  298MOL0     H40229   7.294   9.456   4.773  0.6917 -0.4758  2.6535
  298MOL0     H40230   7.285   9.299   4.697 -1.0773  1.6232  0.6657
  299MOL0     O40231   1.701   6.416  10.307 -0.0798  0.2371 -0.3312
  299MOL0     C40232   1.636   6.512  10.267  0.4105 -0.7939 -0.9153
  299MOL0     O40233   1.554   6.523  10.162 -1.1667 -0.2522  0.6423
  299MOL0     C40234   1.525   6.410  10.084 -0.2052  0.3803  0.4607
  299MOL0     C40235   1.516   6.280  10.141 -0.1620  0.3944  0.2320
  299MOL0     C40236   1.468   6.176  10.055 -0.0524 -0.0154  0.8184
  299MOL0     C40237   1.419   6.194   9.928 -0.1740  1.1977 -0.2989
  299MOL0     O40238   1.376   6.083   9.857  0.6182 -0.6137 -0.3359
  299MOL0     C40239   1.469   6.035   9.760  0.9800  0.1757 -0.1066
  299MOL0     C40240   1.422   5.899   9.693 -0.1144  0.3581  0.0988
  299MOL0     C40241   1.278   5.898   9.651  0.5537 -0.9211 -0.3207
  299MOL0     C40242   1.239   5.774   9.570  0.4291  0.2409  0.4804
  299MOL0     C40243   1.093   5.783   9.523  0.7117 -0.3342  1.2235
  299MOL0     C40244   1.064   5.671   9.412 -0.2342 -0.1234  0.1114
  299MOL0     C40245   0.936   5.707   9.330  0.3256 -0.4335  0.2068
  299MOL0     C40246   0.905   5.601   9.226  0.6279  0.2106  0.2702
  299MOL0     N40247   0.850   5.480   9.281 -0.3107  0.0458 -1.3494
  299MOL0     C40248   0.750   5.484   9.370  2.0540 -0.5028 -0.5038
  299MOL0     C40249   0.734   5.353   9.395 -1.1474  1.2242 -0.3905
  299MOL0     C40250   0.647   5.299   9.504  0.1398 -0.4335  0.4203
  299MOL0     C40251   0.634   5.382   9.639  0.0953  0.3374 -0.0322
  299MOL0     C40252   0.527   5.312   9.726  0.8655 -0.3985 -0.3027
  299MOL0     C40253   0.473   5.419   9.829 -0.4638 -1.0333  0.1090
  299MOL0     O40254   0.561   5.440   9.938 -0.2623 -0.9233 -0.7903
  299MOL0     C40255   0.521   5.525  10.046 -1.5215  1.3080 -0.8168
  299MOL0     C40256   0.413   5.614  10.045  0.0324 -0.7799  0.6352
  299MOL0     C40257   0.399   5.704  10.145 -0.6189 -0.4780 -0.3734
  299MOL0     C40258   0.473   5.699  10.269 -0.0349 -0.3163 -0.3229
  299MOL0     C40259   0.427   5.786  10.389  0.2638 -0.2125 -0.0828
  299MOL0     O40260   0.468   5.733  10.507  0.4091  0.2451 -0.2338
  299MOL0     C40261   0.387   5.781  10.607 -0.4318 -0.4312 -0.4973
  299MOL0     C40262   0.454   5.836  10.716  0.7804 -0.0861  0.0248
  299MOL0     C40263   0.382   5.885  10.821 -0.0378 -0.0546 -0.0570
  299MOL0     C40264   0.246   5.877  10.834 -0.1186 -0.7964  0.5531
  299MOL0     O40265   0.156   5.931  10.924 -0.1448 -0.6844 -0.0479
  299MOL0     C40266   0.208   5.978  11.049 -0.1986 -0.8295 -0.3450
  299MOL0     C40267   0.100   6.034  11.145 -0.0780 -0.0525  0.7898
  299MOL0     C40268   0.140   6.109  11.271 -0.1840 -0.5353  0.3542
  299MOL0     C40269   0.022   6.117  11.376  1.2225 -0.8398  0.1115
  299MOL0     C40270   0.045   6.211  11.498 -0.3399 -1.1647  0.8085
  299MOL0     C40271   0.177   6.186  11.575 -0.0018  0.8805  0.2268
  299MOL0     C40272   0.202   6.038  11.611  0.5622 -0.2413  0.1628
  299MOL0     C40273   0.200   6.026  11.759  1.0195  0.1585 -1.5688
  299MOL0    Cl40274   0.025   6.032  11.814 -0.4128 -0.0331 -0.2122
  299MOL0     C40275   0.184   5.806  10.728 -0.0634  0.2442 -0.4569
  299MOL0     C40276   0.248   5.758  10.613 -0.3773  0.7424 -0.5037
  299MOL0     O40277   0.343   5.874  10.367 -0.0801 -0.4851 -0.2325
  299MOL0     C40278   0.586   5.612  10.275  0.2038  0.7852 -0.4132
  299MOL0     C40279   0.611   5.545  10.157  0.1608  0.8640  0.6206
  299MOL0     N40280   0.811   5.273   9.316 -0.6856  0.2762 -0.7977
  299MOL0     N40281   0.885   5.355   9.245 -0.6930 -0.5847  0.6743
  299MOL0     C40282   1.428   6.317   9.879 -0.0232  0.4017 -0.3725
  299MOL0     C40283   1.476   6.422   9.950 -0.1079 -0.8570 -0.2491
  299MOL0     C40284   1.675   6.643  10.333 -0.8524 -0.0941 -0.3261
  299MOL0     C40285   1.661   6.759  10.255 -0.3744 -0.4305 -0.1574
  299MOL0     C40286   1.667   6.885  10.307  0.1426 -0.0660  0.0225
  299MOL0     C40287   1.705   6.898  10.444 -0.5817 -0.0832  0.4592
  299MOL0     O40288   1.712   7.018  10.508  0.4176 -0.3558  0.1983
  299MOL0     C40289   1.630   7.124  10.455 -0.1735  0.8850  0.5259
  299MOL0     C40290   1.492   7.120  10.529 -0.7498 -0.1712 -0.8998
  299MOL0     C40291   1.398   7.247  10.512  0.0833  0.0804 -1.1584
  299MOL0     C40292   1.283   7.232  10.614  0.0957 -0.5432  0.0291
  299MOL0     C40293   1.203   7.109  10.619  0.1879 -0.3804 -0.2343
  299MOL0     C40294   1.144   7.003  10.624  0.4428  0.0664  0.5810
  299MOL0     C40295   1.737   6.789  10.519 -0.0651 -0.4593 -0.0780
  299MOL0     C40296   1.711   6.655  10.471  0.8031  0.0316  0.0855
  299MOL0     C40297   1.693   6.547  10.581 -0.3450  0.0571 -0.3971
  299MOL0     H40298   1.519   6.263  10.248 -0.1819  2.4749  0.5980
  299MOL0     H40299   1.454   6.075  10.093 -1.1703 -0.3746 -0.4745
  299MOL0     H40300   1.498   6.117   9.694  3.4845  1.6592  2.6201
  299MOL0     H40301   1.560   6.000   9.809 -0.8492 -2.7001  1.5217
  299MOL0     H40302   1.426   5.823   9.772 -3.1553  2.6072  2.6761
  299MOL0     H40303   1.489   5.866   9.613 -0.1616 -0.4131  0.3665
  299MOL0     H40304   1.254   5.991   9.600 -0.3640  1.8308  4.5120
  299MOL0     H40305   1.211   5.906   9.737 -0.4994  0.9312 -1.2704
  299MOL0     H40306   1.297   5.755   9.479 -0.3148 -1.8745  0.3960
  299MOL0     H40307   1.251   5.685   9.633 -2.4545 -1.5426 -1.2667
  299MOL0     H40308   1.020   5.761   9.601 -1.3183 -0.4209 -0.6078
  299MOL0     H40309   1.067   5.881   9.483  0.9711 -0.5395  0.5336
  299MOL0     H40310   1.145   5.669   9.338 -0.3809 -2.0074 -0.0429
  299MOL0     H40311   1.053   5.574   9.460  0.1658  1.1187  2.9585
  299MOL0     H40312   0.957   5.798   9.272 -1.7649  0.2066  0.3954
  299MOL0     H40313   0.856   5.725   9.402  0.9397  2.6600  0.2514
  299MOL0     H40314   0.831   5.634   9.152  0.0113 -2.3573 -0.3699
  299MOL0     H40315   0.995   5.573   9.170  0.0611  2.5479 -1.9687
  299MOL0     H40316   0.697   5.566   9.417 -0.7652 -2.3761 -0.1327
  299MOL0     H40317   0.553   5.291   9.448 -1.0429 -1.4024  2.4477
  299MOL0     H40318   0.674   5.196   9.530 -1.2343 -1.0920 -0.6072
  299MOL0     H40319   0.728   5.373   9.693 -0.1108  0.9488  0.4307
  299MOL0     H40320   0.611   5.484   9.605  1.1350  0.1588 -1.3801
  299MOL0     H40321   0.563   5.225   9.782  0.7483 -0.5846 -0.5159
  299MOL0     H40322   0.447   5.272   9.663 -0.9604 -1.0387  2.2917
  299MOL0     H40323   0.383   5.381   9.879 -1.2293 -0.4196 -0.7828
  299MOL0     H40324   0.459   5.511   9.772 -0.7444  1.3103  3.6395
  299MOL0     H40325   0.355   5.620   9.953  1.4059  3.3267 -0.1862
  299MOL0     H40326   0.303   5.754  10.147 -1.1948 -1.3195  3.9337
  299MOL0     H40327   0.562   5.829  10.727  1.1186 -2.3808 -3.2066
  299MOL0     H40328   0.435   5.922  10.908 -0.0888  2.4967 -1.0130
  299MOL0     H40329   0.268   5.896  11.090 -1.4028  0.0105  3.5608
  299MOL0     H40330   0.271   6.065  11.030 -0.8942 -0.7755 -2.7184
  299MOL0     H40331   0.047   6.109  11.086  5.1477  1.0875 -3.2192
  299MOL0     H40332   0.038   5.951  11.180 -2.1234  1.5468  1.1620
  299MOL0     H40333   0.237   6.066  11.299 -0.4506 -1.7682 -0.5274
  299MOL0     H40334   0.164   6.216  11.261  0.4619 -0.8261 -1.8352
  299MOL0     H40335  -0.014   6.021  11.415  1.2047 -0.4863  0.9980
  299MOL0     H40336  -0.055   6.167  11.318  2.0627 -1.1930 -1.3495
  299MOL0     H40337  -0.040   6.203  11.566 -1.3633 -0.7771 -0.3981
  299MOL0     H40338   0.044   6.315  11.465 -2.5107 -1.4553 -0.2388
  299MOL0     H40339   0.263   6.225  11.521  1.4563  1.7261  2.9931
  299MOL0     H40340   0.175   6.244  11.668 -2.6294  3.9489 -1.5161
  299MOL0     H40341   0.285   5.977  11.575 -0.0332  0.2003 -2.1063
  299MOL0     H40342   0.116   5.976  11.583 -0.7128 -0.1433  3.3322
  299MOL0     H40343   0.234   5.929  11.797 -1.0068 -1.2925 -3.2488
  299MOL0     H40344   0.275   6.096  11.797 -1.3160  2.7792 -1.4519
  299MOL0     H40345   0.079   5.791  10.749  0.2504 -0.7735  0.4914
  299MOL0     H40346   0.192   5.710  10.533 -1.4240  0.6212  0.2827
  299MOL0     H40347   0.657   5.586  10.352  1.6151  1.1505 -1.5604
  299MOL0     H40348   0.699   5.482  10.166 -1.6538 -1.5604  3.1113
  299MOL0     H40349   1.405   6.334   9.775  0.4180 -0.7826 -0.6760
  299MOL0     H40350   1.478   6.525   9.916 -3.4121  0.4004  2.7750
  299MOL0     H40351   1.638   6.758  10.149  1.8647 -0.8811 -0.6899
  299MOL0     H40352   1.659   6.964  10.233  1.8669 -2.9874 -3.6296
  299MOL0     H40353   1.610   7.115  10.348  0.9293 -1.4940  0.4660
  299MOL0     H40354   1.685   7.218  10.470 -1.4191  2.2802 -2.6640
  299MOL0     H40355   1.517   7.121  10.636  3.2200  0.2431 -1.6624
  299MOL0     H40356   1.440   7.029  10.499  1.2038 -2.0144  0.9476
  299MOL0     H40357   1.351   7.263  10.414  1.5854 -1.0553 -2.1198
  299MOL0     H40358   1.461   7.334  10.532  0.2464 -0.6833  2.1768
  299MOL0     H40359   1.321   7.255  10.714 -1.1063  1.8297 -0.0027
  299MOL0     H40360   1.207   7.302  10.578 -1.5349 -2.4905 -0.4673
  299MOL0     H40361   1.080   6.916  10.628  2.2648 -1.3491  0.4419
  299MOL0     H40362   1.777   6.794  10.620  2.1264 -1.2013 -0.8296
  299MOL0     H40363   1.702   6.591  10.681 -0.1929 -0.9395  0.0470
  299MOL0     H40364   1.592   6.506  10.572 -0.1535 -0.7847  0.9617
  299MOL0     H40365   1.771   6.472  10.564 -1.4245 -1.1685 -0.1154
  300MOL0     O40366  10.865   1.390   1.853 -0.2674 -0.0499  0.2677
  300MOL0     C40367  10.862   1.483   1.783  0.6316 -0.8265  0.3705
  300MOL0     O40368  10.810   1.484   1.650 -0.1716 -0.2855  0.0575
  300MOL0     C40369  10.765   1.368   1.592  0.2312  0.8335  0.1562
  300MOL0     C40370  10.813   1.334   1.473 -0.6772 -0.0445  0.3699
  300MOL0     C40371  10.754   1.232   1.405 -0.9019 -0.3272  0.4988
  300MOL0     C40372  10.669   1.146   1.459  0.2071  0.6661 -0.9173
  300MOL0     O40373  10.641   1.030   1.390  0.1783  0.5312 -0.2603
  300MOL0     C40374  10.554   0.936   1.446 -0.8598  0.2514  0.7693
  300MOL0     C40375  10.543   0.822   1.344  0.3840 -0.8457 -0.9627
  300MOL0     C40376  10.426   0.731   1.369  0.1641 -0.3062  0.2498
  300MOL0     C40377  10.478   0.583   1.399  0.3874 -0.2106 -0.0721
  300MOL0     C40378  10.527   0.574   1.540  0.3123 -0.0241 -0.8085
  300MOL0     C40379  10.427   0.565   1.651 -0.2558  0.7015  0.7267
  300MOL0     C40380  10.488   0.543   1.793  0.5672 -0.5903  0.4912
  300MOL0     C40381  10.374   0.552   1.898 -0.6255 -0.5603 -0.5478
  300MOL0     N40382  10.438   0.578   2.029  0.4733  0.1617  0.7320
  300MOL0     C40383  10.565   0.552   2.065 -0.8888 -0.2041 -0.7898
  300MOL0     C40384  10.594   0.622   2.179  0.4236  0.0929  0.0338
  300MOL0     C40385  10.727   0.633   2.232 -0.1109 -0.3955 -0.4829
  300MOL0     C40386  10.774   0.776   2.209 -0.1059  0.5262 -0.8280
  300MOL0     C40387  10.773   0.822   2.064  0.2831  0.7947 -0.5709
  300MOL0     C40388  10.870   0.729   1.977  0.9452 -1.0683  0.2260
  300MOL0     O40389  10.887   0.791   1.844 -0.7669 -0.0515  0.4454
  300MOL0     C40390  10.970   0.737   1.753 -1.2725 -0.0401 -0.7654
  300MOL0     C40391  10.988   0.818   1.645 -0.4247  0.3299 -0.5882
  300MOL0     C40392  11.075   0.780   1.538  1.1861 -0.1897 -0.2550
  300MOL0     C40393  11.152   0.654   1.546 -0.9395 -0.0308 -0.2799
  300MOL0     C40394  11.239   0.608   1.434  0.1145 -0.7489  0.7393
  300MOL0     O40395  11.229   0.679   1.312  0.2661 -0.5746 -0.0309
  300MOL0     C40396  11.274   0.634   1.193 -0.2892  0.6173 -0.4737
  300MOL0     C40397  11.336   0.721   1.097 -0.0787 -0.2726  0.6980
  300MOL0     C40398  11.348   0.673   0.967  0.4274  0.3211  0.2132
  300MOL0     C40399  11.325   0.539   0.929 -0.3009  0.4636 -0.1154
  300MOL0     O40400  11.375   0.509   0.808 -0.3749  0.5169 -0.4873
  300MOL0     C40401  11.396   0.371   0.778 -0.0140  0.0245  0.5000
  300MOL0     C40402  11.417   0.365   0.635  0.1458  0.1406 -1.1686
  300MOL0     C40403  11.285   0.382   0.547 -0.3082 -0.2033  0.3753
  300MOL0     C40404  11.235   0.244   0.505  0.5714 -0.2743  0.2133
  300MOL0     C40405  11.098   0.221   0.432  0.0425 -0.3720  0.4717
  300MOL0     C40406  10.971   0.246   0.515 -0.2542  0.8893  0.0983
  300MOL0     C40407  10.840   0.226   0.430  0.4140 -0.7009 -0.0737
  300MOL0     C40408  10.725   0.203   0.527  0.4664 -0.0174 -0.2158
  300MOL0    Cl40409  10.696   0.361   0.609 -0.0959 -0.0686 -0.2216
  300MOL0     C40410  11.276   0.456   1.026  0.4702  0.3303  0.1670
  300MOL0     C40411  11.261   0.492   1.155  0.0588 -0.1771 -0.9666
  300MOL0     O40412  11.312   0.509   1.457 -0.0269  0.3201  0.5718
  300MOL0     C40413  11.134   0.577   1.657 -0.1638  0.5759 -0.7071
  300MOL0     C40414  11.046   0.617   1.764 -0.5523 -0.8408 -1.5355
  300MOL0     N40415  10.473   0.685   2.218 -0.2593 -0.4203  0.6276
  300MOL0     N40416  10.387   0.667   2.122  0.1195 -0.2311 -0.8642
  300MOL0     C40417  10.632   1.167   1.595  0.6965 -0.4689  0.2668
  300MOL0     C40418  10.684   1.278   1.661 -0.1315 -0.8943  0.5666
  300MOL0     C40419  10.884   1.623   1.839  0.2969 -0.0553  0.3089
  300MOL0     C40420  10.937   1.713   1.744  0.4363  0.3356 -0.8971
  300MOL0     C40421  10.976   1.845   1.775  0.1574  0.1226 -0.5884
  300MOL0     C40422  10.940   1.884   1.905  0.7864  0.1439 -0.4826
  300MOL0     O40423  10.955   2.022   1.932 -0.5819 -0.6813  0.2944
  300MOL0     C40424  10.848   2.082   2.008  0.0580 -0.8495 -0.1364
  300MOL0     C40425  10.796   2.213   1.946 -0.2464  0.0665  0.8672
  300MOL0     C40426  10.777   2.205   1.801  0.0888 -0.0028 -0.3094
  300MOL0     C40427  10.674   2.307   1.751  0.7644  0.7739 -0.4348
  300MOL0     C40428  10.661   2.312   1.602 -0.1926 -0.0327  0.1350
  300MOL0     C40429  10.633   2.305   1.492 -0.1188 -0.0229  0.4087
  300MOL0     C40430  10.893   1.786   2.010  0.4989 -0.0014 -0.3917
  300MOL0     C40431  10.859   1.659   1.971 -0.0985 -0.6222  0.0794
  300MOL0     C40432  10.790   1.562   2.071  0.8991 -1.0539  0.7566
  300MOL0     H40433  10.892   1.398   1.436  0.1033 -1.4921 -0.5732
  300MOL0     H40434  10.804   1.208   1.311  3.0366  2.0203  1.7620
  300MOL0     H40435  10.589   0.897   1.542 -0.7576  0.5092  0.8378
  300MOL0     H40436  10.461   0.992   1.462 -0.2427  2.0537 -1.3929
  300MOL0     H40437  10.639   0.771   1.333  0.8408  0.1071 -1.5297
  300MOL0     H40438  10.528   0.865   1.245 -0.5570  2.8344  0.5969
  300MOL0     H40439  10.377   0.724   1.272  1.2952 -0.1918 -0.3407
  300MOL0     H40440  10.363   0.768   1.450  0.5923  0.3294  0.3019
  300MOL0     H40441  10.398   0.515   1.369  1.0539 -0.4342 -1.4085
  300MOL0     H40442  10.565   0.566   1.335 -0.9265 -2.5239 -1.3467
  300MOL0     H40443  10.575   0.476   1.543 -0.7505 -0.5615 -0.7703
  300MOL0     H40444  10.590   0.663   1.546 -3.0555  2.6139 -1.2788
  300MOL0     H40445  10.354   0.646   1.642  0.5432  1.3630 -0.0056
  300MOL0     H40446  10.378   0.468   1.639  1.3353 -0.4124  2.6040
  300MOL0     H40447  10.553   0.630   1.805  1.5592 -1.3662  0.8203
  300MOL0     H40448  10.553   0.457   1.809 -0.4592 -1.2119  1.5360
  300MOL0     H40449  10.317   0.644   1.885  0.2228  0.1047  0.2437
  300MOL0     H40450  10.313   0.461   1.904 -2.7494  0.7649 -1.0506
  300MOL0     H40451  10.637   0.487   2.015 -1.3544 -1.3664  0.0160
  300MOL0     H40452  10.728   0.607   2.338 -2.2101 -2.3128 -0.8411
  300MOL0     H40453  10.801   0.567   2.184  2.5232  0.2245  2.4062
  300MOL0     H40454  10.714   0.838   2.277  0.2698  0.1634 -0.1495
  300MOL0     H40455  10.880   0.793   2.233  0.1306  1.8886 -2.6840
  300MOL0     H40456  10.795   0.929   2.055 -1.6838  1.0944 -2.5753
  300MOL0     H40457  10.669   0.812   2.034  0.0167  1.6661  0.0204
  300MOL0     H40458  10.811   0.638   1.970  0.9324 -1.1585  1.3661
  300MOL0     H40459  10.969   0.717   2.024  1.2727  0.3727 -0.0363
  300MOL0     H40460  10.919   0.901   1.642  1.0775  1.6200 -1.3083
  300MOL0     H40461  11.074   0.845   1.451  1.6288 -3.6465 -3.1226
  300MOL0     H40462  11.356   0.826   1.114  3.2799 -0.9360  1.5065
  300MOL0     H40463  11.375   0.744   0.889 -2.3323 -0.3237 -1.4678
  300MOL0     H40464  11.481   0.331   0.833  1.2391  0.8745 -0.7387
  300MOL0     H40465  11.303   0.314   0.793  0.1436 -0.8073 -1.2963
  300MOL0     H40466  11.492   0.437   0.601  1.2331 -1.9146 -3.4547
  300MOL0     H40467  11.463   0.266   0.626 -2.7565 -1.6989  1.8532
  300MOL0     H40468  11.211   0.437   0.605 -1.3894  2.7426 -3.3561
  300MOL0     H40469  11.314   0.442   0.460 -1.3833  0.8038  0.6977
  300MOL0     H40470  11.237   0.170   0.585  1.1382 -2.2676 -1.5580
  300MOL0     H40471  11.313   0.196   0.446  2.9724  1.3512  1.8666
  300MOL0     H40472  11.096   0.119   0.391  0.4766  0.9755 -3.2946
  300MOL0     H40473  11.095   0.285   0.344  0.2300 -1.3272 -0.2472
  300MOL0     H40474  10.971   0.187   0.607  0.8826 -1.6349 -1.4097
  300MOL0     H40475  10.964   0.350   0.550  0.8096  1.1466 -0.4247
  300MOL0     H40476  10.860   0.139   0.368  1.6054 -0.9139  0.5775
  300MOL0     H40477  10.817   0.309   0.362  0.1450 -3.1648 -3.1985
  300MOL0     H40478  10.635   0.184   0.467  2.0131 -0.2333 -2.6106
  300MOL0     H40479  10.729   0.117   0.594 -4.0658  0.3850  0.9000
  300MOL0     H40480  11.255   0.350   1.017  2.8460 -0.0664 -1.2375
  300MOL0     H40481  11.234   0.415   1.226  1.4675  2.4000  2.6796
  300MOL0     H40482  11.189   0.483   1.661 -0.1966  0.5869  0.2238
  300MOL0     H40483  11.034   0.569   1.861 -2.5399 -0.5881 -1.6239
  300MOL0     H40484  10.556   1.099   1.633  0.0482 -0.2421 -0.6034
  300MOL0     H40485  10.647   1.296   1.762  2.5842  0.7178  1.3676
  300MOL0     H40486  10.959   1.671   1.646  0.1690 -0.6541 -0.5396
  300MOL0     H40487  11.001   1.913   1.695 -0.0934  0.5805 -0.2848
  300MOL0     H40488  10.879   2.093   2.112  2.4710 -3.6901 -0.4555
  300MOL0     H40489  10.760   2.020   1.990 -0.6022  0.7103 -3.0021
  300MOL0     H40490  10.866   2.296   1.956  1.9801 -1.4512 -1.2018
  300MOL0     H40491  10.697   2.242   1.983 -1.7939 -0.2674 -2.6628
  300MOL0     H40492  10.749   2.104   1.768  0.8352 -0.4941  0.4922
  300MOL0     H40493  10.875   2.217   1.754  0.5655 -1.8175  0.1138
  300MOL0     H40494  10.580   2.290   1.804  1.8379 -0.5110  1.1731
  300MOL0     H40495  10.694   2.405   1.796  0.0065 -0.3281  2.5303
  300MOL0     H40496  10.596   2.294   1.392 -0.3030 -4.0928  0.7456
  300MOL0     H40497  10.888   1.816   2.114  0.7323 -1.4931  0.0679
  300MOL0     H40498  10.774   1.602   2.172 -0.1008  4.5218 -1.3066
  300MOL0     H40499  10.688   1.529   2.047 -0.7040  2.2509  2.4097
  300MOL0     H40500  10.859   1.478   2.090  2.2330 -0.9053 -2.7652
  301MOL0     O40501  10.356   9.307   4.168 -0.9583 -0.6629 -0.5541
  301MOL0     C40502  10.242   9.329   4.218 -0.3523  0.6335  1.3588
  301MOL0     O40503  10.155   9.428   4.175  0.3175 -0.5750  0.3048
  301MOL0     C40504  10.177   9.540   4.099 -1.2739 -0.0167 -0.8865
  301MOL0     C40505  10.073   9.633   4.092  0.6139 -0.2625  0.3395
  301MOL0     C40506  10.079   9.753   4.020 -0.2717  0.3362  0.4699
  301MOL0     C40507  10.192   9.774   3.939  0.5889 -0.0656 -0.5896
  301MOL0     O40508  10.200   9.881   3.855 -0.9536 -0.6594 -0.1249
  301MOL0     C40509  10.323   9.906   3.788 -0.1943 -0.4792 -1.0467
  301MOL0     C40510  10.308  10.026   3.690  0.5993 -0.0326 -0.0722
  301MOL0     C40511  10.240   9.991   3.552  0.6743 -0.4707 -0.1231
  301MOL0     C40512  10.264  10.110   3.464 -0.2438  0.7358  0.2839
  301MOL0     C40513  10.201  10.104   3.327 -0.0666  0.4215  0.1770
  301MOL0     C40514  10.229  10.218   3.230  0.2499 -0.2557 -0.8409
  301MOL0     C40515  10.176  10.360   3.290 -0.1774  0.4151 -0.7050
  301MOL0     C40516  10.181  10.475   3.191  0.1905 -0.7963 -0.8677
  301MOL0     N40517  10.098  10.584   3.233 -0.6665 -0.1239 -0.3651
  301MOL0     C40518   9.959  10.573   3.251 -0.9553  0.6227  0.3158
  301MOL0     C40519   9.922  10.698   3.280 -0.8525  0.0063  0.0754
  301MOL0     C40520   9.776  10.722   3.295  0.1412  0.3466  0.6115
  301MOL0     C40521   9.742  10.842   3.382 -0.1794 -0.7553 -0.3704
  301MOL0     C40522   9.742  10.831   3.536 -0.8874  0.1549  0.5554
  301MOL0     C40523   9.711  10.960   3.617 -0.1027  0.5107  0.8616
  301MOL0     O40524   9.570  10.996   3.583 -0.5626  0.1012  0.0694
  301MOL0     C40525   9.504  11.056   3.684  0.1136 -0.0456  0.3714
  301MOL0     C40526   9.369  11.066   3.669  0.6251  0.5629 -0.0856
  301MOL0     C40527   9.288  11.126   3.770 -0.2330  0.6186 -0.2476
  301MOL0     C40528   9.343  11.178   3.890 -0.1297  0.1859 -0.3160
  301MOL0     C40529   9.262  11.272   3.974  0.0748 -0.6459 -0.1463
  301MOL0     O40530   9.125  11.285   3.969  0.2234  0.4356  0.6489
  301MOL0     C40531   9.044  11.368   4.053 -0.2923 -0.0737  0.6620
  301MOL0     C40532   8.928  11.314   4.105 -0.3207  1.3675 -0.1310
  301MOL0     C40533   8.843  11.391   4.186  0.1678  0.5401 -0.5094
  301MOL0     C40534   8.862  11.529   4.202  0.2006 -0.1690 -0.1046
  301MOL0     O40535   8.768  11.605   4.262  0.0097  0.2680  0.7312
  301MOL0     C40536   8.794  11.727   4.331 -0.6572 -0.3703 -0.1690
  301MOL0     C40537   8.661  11.785   4.374  0.0401 -0.3676  0.8840
  301MOL0     C40538   8.603  11.696   4.492  1.0197 -0.4698 -0.0006
  301MOL0     C40539   8.464  11.741   4.531  0.0189  0.6174  0.3452
  301MOL0     C40540   8.410  11.683   4.665 -0.0794 -0.1783  0.0287
  301MOL0     C40541   8.393  11.530   4.661 -0.2417 -0.0725  0.0426
  301MOL0     C40542   8.277  11.480   4.759  0.7928 -0.5891 -0.6914
  301MOL0     C40543   8.229  11.339   4.759 -0.1613 -0.2360  0.4330
  301MOL0    Cl40544   8.347  11.239   4.844  0.0921 -0.0072  0.2367
  301MOL0     C40545   8.981  11.594   4.159  0.0832  1.0577 -0.7540
  301MOL0     C40546   9.073  11.509   4.096 -0.5672  0.0141  0.3614
  301MOL0     O40547   9.333  11.345   4.042  0.0633  0.5079 -0.6162
  301MOL0     C40548   9.492  11.156   3.905  0.0136  0.6852  0.1874
  301MOL0     C40549   9.564  11.105   3.802  0.3970  0.5069  1.1757
  301MOL0     N40550  10.030  10.774   3.295  0.6973  0.1705  0.2250
  301MOL0     N40551  10.139  10.707   3.272 -0.0740 -0.7047 -0.1208
  301MOL0     C40552  10.303   9.683   3.957 -0.1343 -0.7772  1.0219
  301MOL0     C40553  10.295   9.566   4.027 -0.0365  0.2677 -0.8506
  301MOL0     C40554  10.165   9.227   4.304  0.5709  0.8110 -0.2278
  301MOL0     C40555  10.028   9.252   4.347 -0.2506  0.7318  0.1395
  301MOL0     C40556   9.951   9.153   4.416 -0.5701 -0.6422 -0.2496
  301MOL0     C40557   9.997   9.023   4.445 -0.5868 -0.4359 -0.8647
  301MOL0     O40558   9.926   8.929   4.514 -0.3689  0.4363  0.9861
  301MOL0     C40559   9.994   8.868   4.629  0.4468 -0.4464  0.1799
  301MOL0     C40560  10.050   8.728   4.595 -0.2651  0.0164 -0.1560
  301MOL0     C40561  10.094   8.682   4.731 -2.0316  0.7887  1.0561
  301MOL0     C40562  10.179   8.551   4.720 -0.0676  0.0434 -0.2099
  301MOL0     C40563  10.078   8.446   4.719 -0.5869  1.1671  0.4061
  301MOL0     C40564   9.994   8.361   4.746  0.3230 -0.6244  0.9718
  301MOL0     C40565  10.136   9.006   4.402  0.9682  0.2481 -0.3512
  301MOL0     C40566  10.215   9.095   4.332  0.9084 -0.7951  0.6641
  301MOL0     C40567  10.337   9.050   4.273 -0.1159 -0.8161  0.1442
  301MOL0     H40568   9.986   9.609   4.153  0.8072 -5.6209 -0.9276
  301MOL0     H40569   9.986   9.809   4.018  0.0410  0.9037  1.3554
  301MOL0     H40570  10.392   9.936   3.867 -1.8284  1.1699 -0.1703
  301MOL0     H40571  10.365   9.823   3.730  1.8311 -0.0838 -0.1997
  301MOL0     H40572  10.410  10.061   3.671  0.9696  0.0222  1.8200
  301MOL0     H40573  10.265  10.112   3.742  1.6599  0.5933 -0.2017
  301MOL0     H40574  10.134   9.984   3.578  0.7347 -1.8977 -0.2113
  301MOL0     H40575  10.287   9.903   3.507  3.2015  0.4973  0.4469
  301MOL0     H40576  10.232  10.202   3.513  2.2655  3.0231 -2.0385
  301MOL0     H40577  10.371  10.126   3.449  0.2139 -1.9037  0.1973
  301MOL0     H40578  10.240  10.007   3.293  0.6146  1.6272 -2.7294
  301MOL0     H40579  10.093  10.098   3.337 -0.0722  1.8766  1.2373
  301MOL0     H40580  10.333  10.217   3.195  1.3593 -1.3088  2.1465
  301MOL0     H40581  10.184  10.179   3.138  2.7252  0.8662 -2.6559
  301MOL0     H40582  10.233  10.402   3.373 -0.2472  2.6041 -1.6853
  301MOL0     H40583  10.072  10.354   3.323  0.5849  1.1979  2.1578
  301MOL0     H40584  10.284  10.511   3.186  0.2720 -0.7779  0.6603
  301MOL0     H40585  10.145  10.447   3.091  3.2186 -1.1375 -1.9653
  301MOL0     H40586   9.895  10.487   3.237 -0.8859  0.8443 -1.7402
  301MOL0     H40587   9.733  10.740   3.195 -1.3298 -2.9232  0.5264
  301MOL0     H40588   9.717  10.638   3.331  1.4422  0.1409  2.3702
  301MOL0     H40589   9.821  10.915   3.360  0.9398 -1.8061  0.0505
  301MOL0     H40590   9.646  10.873   3.339 -0.8228 -2.5817 -0.3284
  301MOL0     H40591   9.844  10.793   3.550 -0.3640  0.3161 -2.2463
  301MOL0     H40592   9.679  10.744   3.561  0.9106 -1.4034 -0.0896
  301MOL0     H40593   9.775  11.045   3.593 -1.9601  0.6045 -5.9357
  301MOL0     H40594   9.734  10.935   3.721  3.3435  2.3461  0.6551
  301MOL0     H40595   9.322  11.021   3.582  0.4205 -1.1520  0.8628
  301MOL0     H40596   9.180  11.125   3.759 -0.3649 -0.1886  0.9176
  301MOL0     H40597   8.901  11.212   4.079 -0.7448  2.0931 -2.7527
  301MOL0     H40598   8.749  11.348   4.218  0.6915  2.4616  4.5216
  301MOL0     H40599   8.851  11.701   4.421  0.9193  1.3327 -0.6142
  301MOL0     H40600   8.858  11.797   4.275  1.9171 -1.0613  1.7240
  301MOL0     H40601   8.669  11.893   4.391  0.2347 -0.6233  2.6823
  301MOL0     H40602   8.597  11.777   4.286 -0.5763  0.6101  1.2241
  301MOL0     H40603   8.596  11.597   4.445 -1.0461 -0.9899  1.2878
  301MOL0     H40604   8.666  11.688   4.582  0.0290 -2.1846  0.5897
  301MOL0     H40605   8.398  11.710   4.449 -0.8814  3.9233 -0.3404
  301MOL0     H40606   8.452  11.849   4.545  0.0280  0.3182  3.2476
  301MOL0     H40607   8.319  11.734   4.698 -0.2475  0.0228 -0.7303
  301MOL0     H40608   8.484  11.720   4.736 -0.5592  0.4251  0.2184
  301MOL0     H40609   8.363  11.502   4.559  2.7071 -0.1678 -0.9108
  301MOL0     H40610   8.492  11.486   4.679 -0.1224  1.0251  2.3929
  301MOL0     H40611   8.190  11.539   4.731  0.5475  0.2297  1.5964
  301MOL0     H40612   8.299  11.505   4.863  2.6376 -1.4622 -0.8159
  301MOL0     H40613   8.134  11.346   4.812 -0.5920  1.1692 -0.4784
  301MOL0     H40614   8.216  11.294   4.660 -2.0360 -1.2515  1.0892
  301MOL0     H40615   9.006  11.698   4.175 -2.3008  2.0517 -2.8016
  301MOL0     H40616   9.161  11.556   4.052  0.9747 -2.5063  0.5751
  301MOL0     H40617   9.546  11.183   3.996  0.8070 -0.4066  0.0689
  301MOL0     H40618   9.672  11.098   3.808  0.5704  0.2451 -1.3831
  301MOL0     H40619  10.386   9.682   3.887  0.0662 -3.6708  1.1599
  301MOL0     H40620  10.379   9.498   4.020 -0.8789 -1.7005  3.9705
  301MOL0     H40621   9.981   9.349   4.334 -2.8334  0.0025  2.9099
  301MOL0     H40622   9.851   9.167   4.455  0.1591  0.6217  1.2811
  301MOL0     H40623   9.908   8.862   4.697  0.5746  0.5228  0.4488
  301MOL0     H40624  10.070   8.929   4.679 -0.2497  1.1844 -0.6862
  301MOL0     H40625  10.126   8.728   4.517  1.0977  2.2287  1.0604
  301MOL0     H40626   9.972   8.660   4.560  0.2707  0.0433 -1.4514
  301MOL0     H40627  10.007   8.659   4.793 -4.0626  2.0400 -1.1711
  301MOL0     H40628  10.153   8.762   4.775  2.4438 -0.3723 -2.0181
  301MOL0     H40629  10.252   8.563   4.639  0.5706  0.3185  0.4018
  301MOL0     H40630  10.239   8.546   4.811 -1.0881 -1.3835  0.4250
  301MOL0     H40631   9.925   8.279   4.748  0.2141 -0.7978 -2.9256
  301MOL0     H40632  10.177   8.905   4.408  0.6032  0.1829  2.1518
  301MOL0     H40633  10.324   9.051   4.165  1.5066 -0.1103 -0.0724
  301MOL0     H40634  10.415   9.115   4.314 -0.3679 -0.6911  0.4338
  301MOL0     H40635  10.356   8.951   4.317  4.6166 -1.3987 -2.6134
  302MOL0     O40636   2.170   0.412   4.612 -0.7586  0.2081 -0.1118
  302MOL0     C40637   2.068   0.471   4.648  0.6544  0.2030 -0.1056
  302MOL0     O40638   1.935   0.435   4.602  0.3362  0.3226 -0.7013
  302MOL0     C40639   1.942   0.335   4.520  0.7024  0.3813  1.0637
  302MOL0     C40640   1.954   0.198   4.555 -1.1981  0.4992  0.1276
  302MOL0     C40641   1.945   0.089   4.466 -0.4385  0.8537 -0.5098
  302MOL0     C40642   1.921   0.125   4.330 -0.3056 -0.1798 -0.2859
  302MOL0     O40643   1.919   0.037   4.217 -0.1046  0.3929 -0.5534
  302MOL0     C40644   1.958  -0.099   4.224  1.1114  0.3907 -0.5975
  302MOL0     C40645   1.886  -0.185   4.112 -0.1663 -0.5459  0.2809
  302MOL0     C40646   1.929  -0.115   3.988  0.0761 -1.9519 -0.5768
  302MOL0     C40647   1.873  -0.188   3.866  0.5945 -1.0898 -1.1668
  302MOL0     C40648   1.905  -0.135   3.728 -0.2658 -0.1747  0.5833
  302MOL0     C40649   1.840   0.008   3.695  1.3448  0.3013 -0.4395
  302MOL0     C40650   1.697   0.026   3.736  0.3970  1.1138 -0.1418
  302MOL0     C40651   1.601  -0.087   3.693  0.7106  0.4576 -0.7647
  302MOL0     N40652   1.544  -0.043   3.561 -0.6323 -0.2396 -0.4540
  302MOL0     C40653   1.610  -0.069   3.439  0.2030 -0.1661 -0.1119
  302MOL0     C40654   1.509  -0.047   3.345 -0.2710 -0.3179  0.4450
  302MOL0     C40655   1.546  -0.067   3.198 -0.2774 -0.4251  0.2488
  302MOL0     C40656   1.504  -0.206   3.142 -0.0713  0.0272  0.7167
  302MOL0     C40657   1.554  -0.211   2.994  1.0057 -0.2356 -0.4932
  302MOL0     C40658   1.483  -0.317   2.911  0.9829  0.3752  0.3488
  302MOL0     O40659   1.530  -0.311   2.777  0.7577  0.2887 -1.1127
  302MOL0     C40660   1.460  -0.390   2.679 -0.5319  1.0722 -0.3505
  302MOL0     C40661   1.353  -0.479   2.711 -0.0723 -0.3466  1.0066
  302MOL0     C40662   1.295  -0.554   2.620 -0.0413  0.3325  0.3869
  302MOL0     C40663   1.328  -0.550   2.488  0.0290  0.2291  0.1832
  302MOL0     C40664   1.276  -0.640   2.384  0.1835 -0.6429 -0.3700
  302MOL0     O40665   1.198  -0.749   2.426  0.1138  0.0111 -0.7752
  302MOL0     C40666   1.137  -0.843   2.338  0.1200  0.0929 -0.4497
  302MOL0     C40667   1.017  -0.878   2.362  0.2222  0.3085 -0.2642
  302MOL0     C40668   0.940  -0.957   2.275 -0.7505 -0.3784  0.4437
  302MOL0     C40669   0.978  -0.990   2.145  0.2354 -0.3554 -0.0006
  302MOL0     O40670   0.899  -1.069   2.061  0.0212 -0.2788 -1.0561
  302MOL0     C40671   0.821  -1.185   2.106 -0.0119  0.5251 -0.6190
  302MOL0     C40672   0.813  -1.290   2.003 -0.5407 -0.0207 -0.0267
  302MOL0     C40673   0.935  -1.299   1.909 -0.2446  1.1474 -0.2982
  302MOL0     C40674   0.952  -1.448   1.853 -0.4973 -0.8780 -0.0643
  302MOL0     C40675   1.038  -1.464   1.746 -0.0388 -0.2675 -0.7093
  302MOL0     C40676   1.059  -1.617   1.698  0.1792 -0.4161  0.2363
  302MOL0     C40677   1.120  -1.702   1.815  0.4834  0.2534  0.0098
  302MOL0     C40678   1.179  -1.842   1.778  0.5979 -0.3097 -1.4426
  302MOL0    Cl40679   1.341  -1.821   1.710 -0.0904  0.3941 -0.2810
  302MOL0     C40680   1.112  -0.947   2.115  0.3240 -0.9211  0.0915
  302MOL0     C40681   1.197  -0.876   2.210 -0.3195 -0.9166 -0.1599
  302MOL0     O40682   1.308  -0.606   2.265 -0.2224 -1.2996  0.0337
  302MOL0     C40683   1.424  -0.451   2.455 -0.3333 -0.1385 -0.3078
  302MOL0     C40684   1.493  -0.375   2.545 -0.0699  0.3933  0.3199
  302MOL0     N40685   1.392  -0.001   3.409 -0.4690  0.3803  0.6350
  302MOL0     N40686   1.415   0.006   3.533 -0.6084 -0.2222  0.6492
  302MOL0     C40687   1.904   0.263   4.301  0.6711  1.2301 -0.0033
  302MOL0     C40688   1.919   0.368   4.389 -0.2695  0.2901 -0.9837
  302MOL0     C40689   2.089   0.596   4.717 -0.4417 -0.8140  0.1386
  302MOL0     C40690   2.006   0.711   4.676  0.3400  0.7945  0.2146
  302MOL0     C40691   2.013   0.831   4.735 -0.3906 -0.8043  0.2852
  302MOL0     C40692   2.102   0.858   4.838 -0.6237 -0.9224 -0.3654
  302MOL0     O40693   2.110   0.973   4.911 -0.1843  0.0784  0.5836
  302MOL0     C40694   2.006   1.070   4.889 -0.7173 -0.8030  0.0589
  302MOL0     C40695   2.022   1.198   4.971  0.1961 -0.2980 -0.8816
  302MOL0     C40696   2.138   1.281   4.943  0.2726  0.1245 -0.6423
  302MOL0     C40697   2.165   1.368   5.067 -0.3879 -0.5090 -0.4894
  302MOL0     C40698   2.261   1.478   5.047  0.7085  1.0213 -0.1828
  302MOL0     C40699   2.340   1.570   5.027 -0.1713 -1.0646 -0.2314
  302MOL0     C40700   2.181   0.749   4.880  0.2081 -0.9075  0.2504
  302MOL0     C40701   2.176   0.616   4.829 -1.7016 -0.5616  0.4943
  302MOL0     C40702   2.266   0.509   4.893  0.5860  0.2974  0.2716
  302MOL0     H40703   1.997   0.176   4.652 -2.5660  1.7080  1.0454
  302MOL0     H40704   1.961  -0.013   4.502  0.4781  0.8817 -0.8094
  302MOL0     H40705   2.066  -0.108   4.213  1.3433  3.2326 -1.5095
  302MOL0     H40706   1.937  -0.142   4.322  0.7149 -0.7874 -1.1803
  302MOL0     H40707   1.782  -0.195   4.141 -0.7640 -0.9197 -1.7992
  302MOL0     H40708   1.929  -0.286   4.107 -1.2419 -0.9693 -1.0068
  302MOL0     H40709   2.036  -0.093   3.982 -0.4996  1.8594  0.4580
  302MOL0     H40710   1.881  -0.017   3.992  2.3484 -0.8053 -0.0060
  302MOL0     H40711   1.912  -0.289   3.883  3.0595  0.2176  1.7389
  302MOL0     H40712   1.764  -0.184   3.883  0.7039  1.9212 -0.6493
  302MOL0     H40713   2.014  -0.130   3.718 -0.2446 -0.9503  0.3715
  302MOL0     H40714   1.879  -0.215   3.658 -0.9661 -3.5736  4.3794
  302MOL0     H40715   1.910   0.082   3.735  0.5464  0.4475  0.7263
  302MOL0     H40716   1.851   0.018   3.586 -3.6951 -1.3724 -1.3616
  302MOL0     H40717   1.660   0.117   3.687 -1.9724 -0.9571 -2.5116
  302MOL0     H40718   1.689   0.037   3.845 -0.1354 -3.0415  0.4180
  302MOL0     H40719   1.642  -0.189   3.695  1.2019  0.6703  0.1667
  302MOL0     H40720   1.525  -0.075   3.771  3.9576  0.6013  2.5996
  302MOL0     H40721   1.706  -0.108   3.406  0.5843  1.7821 -1.4468
  302MOL0     H40722   1.496   0.011   3.139  1.6348 -0.8508 -2.1054
  302MOL0     H40723   1.651  -0.055   3.171 -0.2867 -1.9454 -0.5700
  302MOL0     H40724   1.562  -0.284   3.192  2.2753 -0.3723 -2.3702
  302MOL0     H40725   1.396  -0.217   3.146 -0.1185 -0.2377 -0.8049
  302MOL0     H40726   1.660  -0.231   3.008  1.1661 -0.4246 -1.8409
  302MOL0     H40727   1.552  -0.113   2.946  1.7893  0.2708  0.4819
  302MOL0     H40728   1.375  -0.304   2.903  0.7744 -0.8477  0.9330
  302MOL0     H40729   1.507  -0.417   2.949  0.1525  0.0243 -0.0534
  302MOL0     H40730   1.313  -0.516   2.805 -1.4003  0.5542  0.8242
  302MOL0     H40731   1.216  -0.619   2.657  0.0067  0.4641  0.7281
  302MOL0     H40732   0.952  -0.853   2.445 -1.5645 -1.5241 -1.0332
  302MOL0     H40733   0.836  -0.982   2.294 -1.0083  0.4210  0.1177
  302MOL0     H40734   0.867  -1.234   2.192  0.4769 -0.1597 -1.2695
  302MOL0     H40735   0.715  -1.158   2.116  0.6173  3.3226 -0.5116
  302MOL0     H40736   0.779  -1.386   2.042  0.7025 -0.2473  0.5632
  302MOL0     H40737   0.738  -1.247   1.937  0.5927  1.3973 -0.4553
  302MOL0     H40738   0.912  -1.232   1.825  0.1767 -0.2151 -1.5494
  302MOL0     H40739   1.033  -1.269   1.948 -0.1084 -0.3209  0.5380
  302MOL0     H40740   0.855  -1.486   1.820 -1.0736  2.1102 -2.2729
  302MOL0     H40741   0.989  -1.509   1.936 -0.0781 -0.1590  0.2914
  302MOL0     H40742   1.134  -1.413   1.751 -0.4457  0.6406 -1.7825
  302MOL0     H40743   0.984  -1.410   1.668 -1.6147 -3.0446 -1.6863
  302MOL0     H40744   0.970  -1.664   1.656 -0.0538  0.0656  0.1824
  302MOL0     H40745   1.139  -1.619   1.623 -2.0334 -2.1108 -2.2695
  302MOL0     H40746   1.035  -1.732   1.877  1.3442 -3.1637 -0.2461
  302MOL0     H40747   1.191  -1.631   1.859  1.8585  0.3999 -2.2723
  302MOL0     H40748   1.190  -1.904   1.867 -0.5168  0.3990 -0.7825
  302MOL0     H40749   1.115  -1.895   1.707 -0.8639 -2.1483  1.1147
  302MOL0     H40750   1.164  -0.969   2.022  0.3520  1.1587 -0.4540
  302MOL0     H40751   1.299  -0.850   2.181 -0.1965 -0.2926  0.8091
  302MOL0     H40752   1.479  -0.449   2.362  0.4225  1.7654  0.1167
  302MOL0     H40753   1.582  -0.322   2.512  0.3341  0.4966  1.5513
  302MOL0     H40754   1.884   0.289   4.197 -0.6085 -0.2861 -0.1710
  302MOL0     H40755   1.897   0.472   4.366 -0.4527  0.2729 -0.8884
  302MOL0     H40756   1.927   0.694   4.604  0.1328 -0.2910  0.6894
  302MOL0     H40757   1.947   0.908   4.696 -0.8618 -1.2926  0.0995
  302MOL0     H40758   1.907   1.027   4.908 -1.2548  0.5239  0.3228
  302MOL0     H40759   2.018   1.107   4.787 -1.9758 -0.3419  0.0633
  302MOL0     H40760   2.020   1.152   5.071 -2.7576 -0.3463 -0.8759
  302MOL0     H40761   1.928   1.253   4.975  0.9534  1.0116  0.1496
  302MOL0     H40762   2.123   1.344   4.855  0.9320 -1.2100 -1.7480
  302MOL0     H40763   2.234   1.229   4.935 -0.6509 -1.8236  0.2485
  302MOL0     H40764   2.070   1.406   5.104 -0.5557 -2.1950  0.9584
  302MOL0     H40765   2.197   1.310   5.154 -1.5542 -1.3487 -0.5994
  302MOL0     H40766   2.415   1.644   5.006 -1.2752 -0.0436 -0.6677
  302MOL0     H40767   2.232   0.768   4.973  1.2735 -0.8871 -0.3193
  302MOL0     H40768   2.333   0.544   4.972  0.8749 -1.2381  0.7407
  302MOL0     H40769   2.200   0.438   4.943 -0.4914  0.1083 -1.3415
  302MOL0     H40770   2.324   0.452   4.819 -2.2165 -1.3329 -0.8345
  303MOL0     O40771   8.297  11.213   5.544 -0.0627 -0.0625 -0.3278
  303MOL0     C40772   8.220  11.142   5.473 -0.3060  0.2610  0.8954
  303MOL0     O40773   8.151  11.187   5.361  0.2483  0.0425 -0.9157
  303MOL0     C40774   8.157  11.322   5.326  0.6011  0.1188  0.2019
  303MOL0     C40775   8.228  11.356   5.211  0.2753  0.4647 -0.1795
  303MOL0     C40776   8.245  11.492   5.178  1.1921 -0.3660 -0.3918
  303MOL0     C40777   8.193  11.595   5.250  0.4741  0.6716 -0.0826
  303MOL0     O40778   8.207  11.726   5.208  0.4780  0.2412 -0.3760
  303MOL0     C40779   8.323  11.762   5.121  0.0286 -0.4173 -0.7041
  303MOL0     C40780   8.351  11.918   5.113  0.2159  0.0643 -0.4248
  303MOL0     C40781   8.225  11.997   5.091  0.6009 -0.7179  1.3750
  303MOL0     C40782   8.151  11.953   4.961 -0.9143 -0.3658  0.3702
  303MOL0     C40783   8.004  11.993   4.960  0.7040  0.2464 -1.1630
  303MOL0     C40784   7.975  12.145   4.962 -0.5273 -0.0765 -0.0035
  303MOL0     C40785   8.027  12.213   4.837 -0.6651  0.1342  0.1203
  303MOL0     C40786   8.037  12.367   4.856 -0.4429  0.8387  0.3880
  303MOL0     N40787   8.093  12.428   4.735 -0.7126  0.3717 -0.4181
  303MOL0     C40788   8.030  12.532   4.666 -0.4050 -0.8985 -0.6587
  303MOL0     C40789   8.118  12.576   4.576  1.2555 -1.0251 -0.5861
  303MOL0     C40790   8.074  12.687   4.475  0.0926  0.4479 -0.0003
  303MOL0     C40791   8.184  12.770   4.417 -0.3456  0.4310 -0.2910
  303MOL0     C40792   8.268  12.729   4.296  0.3623 -0.1211 -0.1882
  303MOL0     C40793   8.405  12.805   4.282  0.2266  0.1699  0.2169
  303MOL0     O40794   8.508  12.732   4.217 -0.4090 -0.1179 -0.4650
  303MOL0     C40795   8.590  12.653   4.304  1.3840 -0.2227  0.3483
  303MOL0     C40796   8.722  12.645   4.248 -0.2595 -0.6662  0.4110
  303MOL0     C40797   8.823  12.561   4.303 -0.5051  0.4743  0.1245
  303MOL0     C40798   8.786  12.482   4.417 -0.3050  0.0722  0.2799
  303MOL0     C40799   8.885  12.388   4.485  0.0244 -0.1970 -0.5239
  303MOL0     O40800   8.855  12.338   4.613  0.0965  0.0314 -0.1067
  303MOL0     C40801   8.953  12.301   4.712 -0.1301 -0.4085  0.5000
  303MOL0     C40802   9.091  12.308   4.709  0.2655 -0.2715  0.2047
  303MOL0     C40803   9.163  12.268   4.822  0.8304  0.4712  0.1593
  303MOL0     C40804   9.109  12.212   4.934  0.2048 -0.4723 -0.1307
  303MOL0     O40805   9.189  12.152   5.036  0.2163 -0.0413  0.3433
  303MOL0     C40806   9.333  12.143   5.017 -1.3549 -0.3474  0.1218
  303MOL0     C40807   9.387  12.096   5.150  0.4238  0.1866 -0.0015
  303MOL0     C40808   9.538  12.060   5.133 -0.0336  0.0393 -0.1383
  303MOL0     C40809   9.554  11.911   5.086  0.2715  0.9541 -0.4631
  303MOL0     C40810   9.697  11.860   5.088  0.7620  0.2474  0.3620
  303MOL0     C40811   9.806  11.951   5.016 -0.4085  0.4376  1.2426
  303MOL0     C40812   9.950  11.907   5.037  0.3176  0.1888  0.3520
  303MOL0     C40813  10.045  12.018   5.023  0.3038  0.2228 -0.0940
  303MOL0    Cl40814  10.211  11.974   5.022 -0.0730  0.2787 -0.0028
  303MOL0     C40815   8.972  12.206   4.937  0.1966 -0.1728  0.6229
  303MOL0     C40816   8.900  12.250   4.830  0.7862  0.1857  0.5224
  303MOL0     O40817   8.995  12.382   4.429 -0.9444  0.2526  0.1802
  303MOL0     C40818   8.657  12.493   4.468  0.3636 -0.0285 -0.8181
  303MOL0     C40819   8.564  12.572   4.412  0.4865  0.3817  0.2011
  303MOL0     N40820   8.227  12.499   4.583  0.7276  0.2764 -0.8968
  303MOL0     N40821   8.213  12.407   4.678 -0.4168 -0.6207  1.2179
  303MOL0     C40822   8.127  11.566   5.367 -0.8515  0.5339 -0.4246
  303MOL0     C40823   8.104  11.431   5.399  0.5910  1.3530  0.8464
  303MOL0     C40824   8.220  10.993   5.489  0.4195  0.2440  0.1983
  303MOL0     C40825   8.189  10.910   5.374  0.1819  0.1424  0.6909
  303MOL0     C40826   8.194  10.769   5.368 -0.3156  0.5159 -0.1464
  303MOL0     C40827   8.236  10.706   5.484 -0.0909  0.6153 -0.5620
  303MOL0     O40828   8.267  10.570   5.499 -0.5628  0.4161  0.7555
  303MOL0     C40829   8.245  10.493   5.382 -0.6163  0.4172 -0.1675
  303MOL0     C40830   8.358  10.510   5.279  0.3877 -0.0962  0.1310
  303MOL0     C40831   8.312  10.448   5.145 -0.0956 -0.8716  0.7049
  303MOL0     C40832   8.447  10.450   5.056  0.1443  1.2751  0.5113
  303MOL0     C40833   8.531  10.340   5.088  1.0685 -0.7334 -0.4639
  303MOL0     C40834   8.611  10.253   5.105 -0.7643 -1.2879 -0.3606
  303MOL0     C40835   8.274  10.777   5.594 -0.1260 -0.4141 -0.4391
  303MOL0     C40836   8.270  10.920   5.602 -0.8337  0.0593  0.0173
  303MOL0     C40837   8.305  10.986   5.731 -0.0815  0.1238  0.4432
  303MOL0     H40838   8.270  11.288   5.137  1.9096  0.4427  0.7003
  303MOL0     H40839   8.293  11.519   5.085 -0.4758  2.6309 -0.5290
  303MOL0     H40840   8.410  11.719   5.171 -1.1469 -1.9279  0.1219
  303MOL0     H40841   8.331  11.716   5.022  2.9829  0.5772 -1.0267
  303MOL0     H40842   8.416  11.942   5.029 -2.6796  0.7189 -2.6308
  303MOL0     H40843   8.398  11.947   5.208 -1.8161 -3.0581  1.7294
  303MOL0     H40844   8.242  12.105   5.081  0.7854 -0.7172  1.7044
  303MOL0     H40845   8.155  11.981   5.174 -2.8629  0.6401 -1.0397
  303MOL0     H40846   8.218  11.990   4.882  4.4660 -2.7384  3.2643
  303MOL0     H40847   8.151  11.844   4.950  1.7168 -0.2857 -1.3307
  303MOL0     H40848   7.946  11.968   4.870 -1.5080  0.6579  0.0809
  303MOL0     H40849   7.970  11.947   5.053  3.1151  0.1725 -0.2505
  303MOL0     H40850   7.869  12.172   4.965  0.2213  3.1634  0.6505
  303MOL0     H40851   8.025  12.190   5.048  0.3289  1.2046 -1.1289
  303MOL0     H40852   7.960  12.177   4.757  0.9362 -3.2287  0.1264
  303MOL0     H40853   8.127  12.187   4.802  0.3920  5.1733 -1.4331
  303MOL0     H40854   7.942  12.416   4.876 -0.2456  0.4530  2.4882
  303MOL0     H40855   8.110  12.382   4.937  2.9178 -3.0873 -1.5179
  303MOL0     H40856   7.930  12.570   4.684 -1.8183 -4.9133  1.0658
  303MOL0     H40857   8.023  12.629   4.398 -0.7334 -0.5037  1.2204
  303MOL0     H40858   8.005  12.760   4.517  1.5072  1.5080  0.5601
  303MOL0     H40859   8.135  12.864   4.392 -0.1561  0.4211 -0.6998
  303MOL0     H40860   8.248  12.786   4.504 -2.9628  0.8302  1.6751
  303MOL0     H40861   8.206  12.733   4.206  1.5055  0.8193 -0.9555
  303MOL0     H40862   8.287  12.626   4.326 -0.0596 -0.0710  0.2701
  303MOL0     H40863   8.458  12.832   4.374  2.1154 -0.4504 -0.6235
  303MOL0     H40864   8.399  12.904   4.236 -0.1688  0.3849  0.7258
  303MOL0     H40865   8.740  12.723   4.174 -0.3494  0.3925  1.4695
  303MOL0     H40866   8.925  12.552   4.268  0.4594  1.2393  2.5554
  303MOL0     H40867   9.144  12.337   4.619  2.1228  2.7812  2.1038
  303MOL0     H40868   9.270  12.275   4.806  0.6382  1.0458 -1.0441
  303MOL0     H40869   9.367  12.077   4.936 -1.3315  0.2368 -0.3539
  303MOL0     H40870   9.383  12.236   4.987 -2.0292 -0.0343 -0.0610
  303MOL0     H40871   9.386  12.176   5.225 -0.7710  1.7810 -1.6285
  303MOL0     H40872   9.325  12.011   5.181 -1.2535  0.2994 -2.7001
  303MOL0     H40873   9.589  12.135   5.072 -0.4842 -0.9728 -1.8163
  303MOL0     H40874   9.583  12.065   5.233  3.3150  0.0426 -1.5191
  303MOL0     H40875   9.511  11.907   4.985 -0.5593  0.7468 -0.1102
  303MOL0     H40876   9.490  11.845   5.145  1.0506  0.6091  0.0194
  303MOL0     H40877   9.696  11.765   5.034 -2.4719  0.6110 -0.3683
  303MOL0     H40878   9.727  11.839   5.192  3.9927 -0.7604 -0.6489
  303MOL0     H40879   9.789  11.946   4.908  1.5383  1.4774  0.8343
  303MOL0     H40880   9.798  12.052   5.058  3.2842  0.7652  1.4583
  303MOL0     H40881   9.973  11.826   4.967 -0.5491  1.2839 -1.2527
  303MOL0     H40882   9.966  11.875   5.140 -1.2158 -0.3922  0.4417
  303MOL0     H40883  10.010  12.078   4.939 -0.1655  1.5180  0.9858
  303MOL0     H40884  10.035  12.073   5.117  1.1328 -1.7328  1.2027
  303MOL0     H40885   8.914  12.171   5.021 -1.1644 -1.3895 -0.7659
  303MOL0     H40886   8.793  12.262   4.842  0.1426 -1.1968 -2.6628
  303MOL0     H40887   8.631  12.455   4.566  3.1734 -0.6159 -0.1933
  303MOL0     H40888   8.466  12.575   4.459 -0.4661  0.1241 -1.6594
  303MOL0     H40889   8.091  11.650   5.425  0.4939  0.1331  1.0918
  303MOL0     H40890   8.060  11.406   5.495 -2.0418 -1.7393 -0.9674
  303MOL0     H40891   8.169  10.964   5.282 -0.0163  1.8944  1.7168
  303MOL0     H40892   8.170  10.735   5.268  0.0375  0.7326 -0.3064
  303MOL0     H40893   8.154  10.525   5.329 -2.1352 -1.5046  1.1402
  303MOL0     H40894   8.238  10.387   5.405  0.5450 -0.0425 -1.8176
  303MOL0     H40895   8.449  10.468   5.324 -0.2039  1.2341  2.7666
  303MOL0     H40896   8.371  10.618   5.266 -0.0899 -0.1489 -0.9046
  303MOL0     H40897   8.249  10.521   5.093  1.5029 -0.1646 -0.3229
  303MOL0     H40898   8.272  10.347   5.156 -0.9441 -0.4340  1.8475
  303MOL0     H40899   8.420  10.426   4.952  1.5732 -2.4506  0.8643
  303MOL0     H40900   8.502  10.544   5.042  1.8469  0.3022  0.3316
  303MOL0     H40901   8.680  10.175   5.129 -3.1765 -2.6835  2.8172
  303MOL0     H40902   8.315  10.713   5.672 -0.5776 -0.7298 -0.4567
  303MOL0     H40903   8.392  11.049   5.708  1.1901 -1.3287  1.0995
  303MOL0     H40904   8.225  11.054   5.763 -0.0038 -0.4482  1.8718
  303MOL0     H40905   8.341  10.915   5.806  2.0288 -0.7156 -1.2355
  304MOL0     O40906   4.620  11.263   4.242  0.2642 -0.2091 -0.4729
  304MOL0     C40907   4.596  11.168   4.169 -0.4826  0.1114 -0.4239
  304MOL0     O40908   4.704  11.080   4.136 -0.1194 -0.6114 -0.1086
  304MOL0     C40909   4.821  11.090   4.215  0.3316 -0.5366 -0.4897
  304MOL0     C40910   4.938  11.097   4.147 -0.1634  0.1434  0.0452
  304MOL0     C40911   5.076  11.110   4.204  0.2311 -0.4920  0.1510
  304MOL0     C40912   5.080  11.094   4.340 -1.0398 -0.5338 -0.1748
  304MOL0     O40913   5.203  11.115   4.393 -0.2650  0.6099 -0.1608
  304MOL0     C40914   5.258  10.988   4.443 -0.0503 -1.2809 -0.9691
  304MOL0     C40915   5.383  11.010   4.535  0.7880 -0.1722  0.3956
  304MOL0     C40916   5.356  11.101   4.666 -0.7590  0.4017  1.0460
  304MOL0     C40917   5.257  11.027   4.761 -0.0354 -0.6468 -1.0336
  304MOL0     C40918   5.291  11.056   4.916  0.6346 -0.0790  0.5236
  304MOL0     C40919   5.224  10.946   5.002 -0.1599 -0.4447  1.2057
  304MOL0     C40920   5.116  10.987   5.100  0.1309  1.0692 -0.4027
  304MOL0     C40921   4.998  11.073   5.044  0.3878 -0.5245 -0.2274
  304MOL0     N40922   4.939  11.007   4.926  1.3312  0.3591 -0.0424
  304MOL0     C40923   4.884  10.882   4.927  0.5394  0.5904 -0.3642
  304MOL0     C40924   4.833  10.862   4.796  0.0254 -0.1449 -0.0599
  304MOL0     C40925   4.777  10.736   4.731  0.2310 -0.1695  0.2129
  304MOL0     C40926   4.872  10.621   4.695  0.1266 -1.0012  1.3336
  304MOL0     C40927   4.980  10.660   4.592 -0.3304  0.1759 -0.6466
  304MOL0     C40928   4.912  10.681   4.461  0.1043  1.0476 -0.3475
  304MOL0     O40929   5.020  10.676   4.366  0.2561 -0.3697  0.2134
  304MOL0     C40930   4.985  10.739   4.245 -0.4812 -0.6873  0.0817
  304MOL0     C40931   5.089  10.733   4.147 -0.0635  0.5557  0.3401
  304MOL0     C40932   5.059  10.766   4.021 -0.2984 -0.0325  0.5150
  304MOL0     C40933   4.930  10.794   3.972 -0.8222  0.5570  0.1992
  304MOL0     C40934   4.898  10.794   3.824 -0.3615  0.3838 -0.1295
  304MOL0     O40935   5.002  10.774   3.738 -0.6085  0.7031  0.4184
  304MOL0     C40936   4.969  10.723   3.611 -0.0376  1.0269 -0.3874
  304MOL0     C40937   4.937  10.592   3.615 -0.1383 -0.4519 -0.9517
  304MOL0     C40938   4.917  10.531   3.494  0.8076 -0.0531  0.3980
  304MOL0     C40939   4.931  10.605   3.377 -0.9258 -0.1616  0.5603
  304MOL0     O40940   4.926  10.555   3.250  0.0371 -0.2548  0.2531
  304MOL0     C40941   4.837  10.440   3.236  0.5871 -0.1133 -0.4218
  304MOL0     C40942   4.788  10.452   3.091 -0.2467  0.0216  1.1381
  304MOL0     C40943   4.656  10.382   3.063  0.3173 -0.4365  0.5317
  304MOL0     C40944   4.542  10.486   3.097  0.1910  0.6309 -0.2915
  304MOL0     C40945   4.411  10.441   3.018  0.1409  0.2065 -0.5949
  304MOL0     C40946   4.308  10.550   3.020 -0.5033 -0.5972 -0.6418
  304MOL0     C40947   4.172  10.500   2.961 -0.0618  0.8074  0.1220
  304MOL0     C40948   4.071  10.620   2.947  1.1980 -0.0946  0.3159
  304MOL0    Cl40949   3.996  10.664   3.087 -0.1643 -0.4404  0.3063
  304MOL0     C40950   4.969  10.743   3.377  0.1088  0.0813  0.3733
  304MOL0     C40951   4.985  10.805   3.499  1.0297 -0.0426  0.0157
  304MOL0     O40952   4.781  10.801   3.797 -0.3556 -0.4747 -0.3962
  304MOL0     C40953   4.829  10.789   4.061  0.3231 -0.2696  0.1677
  304MOL0     C40954   4.854  10.765   4.198 -0.5427 -0.2412  0.2374
  304MOL0     N40955   4.864  10.970   4.726  0.2133 -0.0214 -0.0053
  304MOL0     N40956   4.916  11.063   4.800 -0.2017 -0.7385 -0.3539
  304MOL0     C40957   4.964  11.088   4.420  0.8412  0.2839 -1.1834
  304MOL0     C40958   4.834  11.084   4.355  0.0738 -0.9639  0.1150
  304MOL0     C40959   4.464  11.155   4.101  0.6090 -0.5765 -0.2017
  304MOL0     C40960   4.467  11.102   3.975  1.2371  0.0323  0.3969
  304MOL0     C40961   4.349  11.105   3.900 -0.2543 -1.3501 -0.0516
  304MOL0     C40962   4.235  11.158   3.954 -0.0506  0.4253 -0.5118
  304MOL0     O40963   4.116  11.133   3.890  0.5231 -0.3888 -0.6248
  304MOL0     C40964   4.095  11.215   3.777  0.9352  0.4094 -0.3349
  304MOL0     C40965   3.962  11.291   3.811  0.2098 -0.0221 -0.0729
  304MOL0     C40966   3.917  11.408   3.708 -0.1092  0.7272 -0.1003
  304MOL0     C40967   3.809  11.491   3.767  0.3961  0.1652  1.1502
  304MOL0     C40968   3.744  11.562   3.658 -0.3744  0.2876 -0.2257
  304MOL0     C40969   3.685  11.618   3.569 -0.0093  0.9938  0.7468
  304MOL0     C40970   4.234  11.213   4.083  0.7532  0.1239 -0.1447
  304MOL0     C40971   4.348  11.213   4.157 -0.2925 -0.4689 -0.2343
  304MOL0     C40972   4.345  11.288   4.291  0.0826 -0.3518 -0.1423
  304MOL0     H40973   4.944  11.089   4.039  2.5360 -2.6465  0.2737
  304MOL0     H40974   5.163  11.132   4.144  0.2193 -0.3040  0.2008
  304MOL0     H40975   5.188  10.937   4.510  0.6102  0.3559  1.0464
  304MOL0     H40976   5.278  10.925   4.355 -1.8605  0.0259 -2.4163
  304MOL0     H40977   5.459  11.055   4.470 -0.7672  0.7822 -0.8424
  304MOL0     H40978   5.425  10.915   4.569 -1.0656 -0.9525  0.5922
  304MOL0     H40979   5.327  11.201   4.631 -0.9592  0.2171  0.6865
  304MOL0     H40980   5.455  11.107   4.712 -0.8835  0.6413  1.2908
  304MOL0     H40981   5.153  11.056   4.743 -0.7787 -1.8511  0.9005
  304MOL0     H40982   5.261  10.919   4.745 -0.2939 -0.6104 -1.3623
  304MOL0     H40983   5.397  11.049   4.942  0.5461  2.8948  2.0364
  304MOL0     H40984   5.268  11.160   4.941  1.1910 -0.1477  1.3481
  304MOL0     H40985   5.201  10.852   4.951  2.0122 -2.5766  3.8684
  304MOL0     H40986   5.308  10.910   5.062  1.9939  2.0592 -0.0882
  304MOL0     H40987   5.167  11.040   5.181 -2.3498  1.5865  0.9478
  304MOL0     H40988   5.080  10.901   5.157 -1.4432  3.2928  2.2510
  304MOL0     H40989   4.926  11.075   5.126  0.8470  2.4680  0.1997
  304MOL0     H40990   5.031  11.174   5.019 -0.7639 -0.5260 -1.9001
  304MOL0     H40991   4.894  10.814   5.010 -2.5254  2.9123  2.1784
  304MOL0     H40992   4.702  10.693   4.799 -1.4146  1.5564 -0.4466
  304MOL0     H40993   4.723  10.767   4.641 -0.0007 -1.3762 -0.0802
  304MOL0     H40994   4.911  10.580   4.788  1.8270  1.0908  1.6239
  304MOL0     H40995   4.801  10.552   4.649  0.5096  0.3396 -1.5279
  304MOL0     H40996   5.057  10.583   4.577  1.5438  2.0870 -1.4691
  304MOL0     H40997   5.035  10.751   4.618  3.1287 -2.5703  2.7851
  304MOL0     H40998   4.870  10.782   4.466 -2.0282  0.1942  0.0322
  304MOL0     H40999   4.827  10.616   4.440 -0.8065  2.8529 -2.5952
  304MOL0     H41000   5.187  10.691   4.165  0.4597  0.6070 -2.0055
  304MOL0     H41001   5.139  10.780   3.949  0.6796  3.2101  2.0484
  304MOL0     H41002   4.929  10.549   3.715 -1.3767  2.5519  0.3649
  304MOL0     H41003   4.900  10.424   3.484  0.8459  0.0824 -1.3362
  304MOL0     H41004   4.881  10.341   3.252 -1.1846 -0.8079  0.5055
  304MOL0     H41005   4.743  10.458   3.288 -1.9852 -0.9885 -4.3060
  304MOL0     H41006   4.781  10.554   3.052 -0.5366 -0.1913  0.6332
  304MOL0     H41007   4.863  10.422   3.017 -1.0554  1.5142 -0.3674
  304MOL0     H41008   4.660  10.363   2.955  2.0160  2.3679  0.0005
  304MOL0     H41009   4.659  10.292   3.124  0.3006  0.3045  1.6500
  304MOL0     H41010   4.565  10.590   3.070 -1.6662  0.7870 -1.4373
  304MOL0     H41011   4.532  10.485   3.206 -0.9326 -1.1779 -0.3759
  304MOL0     H41012   4.375  10.348   3.062  0.2624 -0.1395 -1.2252
  304MOL0     H41013   4.440  10.432   2.913 -0.1198 -2.5081 -0.5051
  304MOL0     H41014   4.293  10.590   3.121  1.8248 -0.1921 -0.3955
  304MOL0     H41015   4.345  10.646   2.983 -2.0705  1.8624  3.4809
  304MOL0     H41016   4.135  10.421   3.027 -0.3468  3.1844  3.0167
  304MOL0     H41017   4.197  10.450   2.867  0.8283  0.2319  0.6478
  304MOL0     H41018   4.115  10.713   2.911  2.0167 -0.7806 -0.5087
  304MOL0     H41019   4.002  10.576   2.875 -1.7884  1.7348  1.8346
  304MOL0     H41020   4.980  10.794   3.283  2.9673  2.0404  1.6446
  304MOL0     H41021   5.023  10.906   3.493  3.6027 -0.9543 -0.2957
  304MOL0     H41022   4.730  10.817   4.028  0.8090  0.5084 -0.6747
  304MOL0     H41023   4.765  10.769   4.259 -1.6322  3.2588 -1.3202
  304MOL0     H41024   4.973  11.095   4.528  0.1063  0.1268 -1.1048
  304MOL0     H41025   4.747  11.079   4.420  0.8527 -2.7994  1.0952
  304MOL0     H41026   4.556  11.051   3.939  2.4401  0.9173  1.9957
  304MOL0     H41027   4.346  11.068   3.798  2.3666 -0.0432 -0.6901
  304MOL0     H41028   4.087  11.156   3.685  0.9757 -0.4159  0.1859
  304MOL0     H41029   4.176  11.285   3.752  1.2017 -0.7947 -3.2867
  304MOL0     H41030   3.975  11.344   3.905  0.5441  1.2594 -0.8214
  304MOL0     H41031   3.881  11.219   3.826  1.2552 -1.2111  0.1394
  304MOL0     H41032   3.864  11.362   3.624 -3.2172  2.7848  0.5694
  304MOL0     H41033   4.002  11.461   3.664  0.0403 -0.0269 -0.7396
  304MOL0     H41034   3.741  11.434   3.831  1.4171 -0.7204  1.4878
  304MOL0     H41035   3.850  11.565   3.836  1.1786 -0.0868  0.9715
  304MOL0     H41036   3.623  11.652   3.488 -2.3703  0.5552  2.2729
  304MOL0     H41037   4.140  11.258   4.115  0.1627  2.2493 -4.1856
  304MOL0     H41038   4.385  11.388   4.274  0.0484 -0.5467 -1.5269
  304MOL0     H41039   4.236  11.279   4.302 -0.3667 -0.2501 -3.3797
  304MOL0     H41040   4.404  11.247   4.373  3.0124  1.1281 -1.3593
  305MOL0     O41041   2.896   1.254   6.046  0.5114 -0.2722 -0.2423
  305MOL0     C41042   2.974   1.338   6.016 -0.0620 -0.1519  0.2141
  305MOL0     O41043   2.957   1.426   5.915  0.5289 -0.5189 -0.9418
  305MOL0     C41044   2.860   1.406   5.813  0.3239 -1.3796  0.4949
  305MOL0     C41045   2.812   1.521   5.749  0.8519  0.2343 -0.7887
  305MOL0     C41046   2.726   1.513   5.645  1.4740 -0.0815 -0.6128
  305MOL0     C41047   2.679   1.390   5.592  0.5788  0.3360 -0.3452
  305MOL0     O41048   2.591   1.395   5.490 -0.1644  0.1791  0.0011
  305MOL0     C41049   2.574   1.263   5.428 -0.5698 -0.4296  0.2761
  305MOL0     C41050   2.518   1.274   5.282  0.0663 -0.0232  0.2970
  305MOL0     C41051   2.615   1.349   5.195 -0.3755  0.5020 -0.0465
  305MOL0     C41052   2.726   1.255   5.145  0.2707 -0.4754  0.4808
  305MOL0     C41053   2.806   1.327   5.033 -0.7558 -0.2444 -0.0737
  305MOL0     C41054   2.927   1.245   4.988 -0.1202 -0.6424 -0.8116
  305MOL0     C41055   3.029   1.226   5.098 -0.1467  0.1611 -0.4615
  305MOL0     C41056   3.163   1.170   5.048  0.4281 -0.1539  0.9021
  305MOL0     N41057   3.261   1.138   5.152  0.1572 -0.5081  0.1757
  305MOL0     C41058   3.258   1.016   5.215 -0.1426 -0.2999 -0.9109
  305MOL0     C41059   3.348   1.027   5.318 -0.3094  0.5136  1.4525
  305MOL0     C41060   3.368   0.932   5.434  0.7608 -1.7077  0.6304
  305MOL0     C41061   3.510   0.878   5.458  0.2009 -0.6857  0.0477
  305MOL0     C41062   3.510   0.789   5.577  0.3247  0.1426 -0.6234
  305MOL0     C41063   3.647   0.729   5.615  0.6142  0.3285  0.5297
  305MOL0     O41064   3.719   0.814   5.702 -1.1117  0.4005  0.5616
  305MOL0     C41065   3.855   0.805   5.699  1.0066 -0.5933 -0.1038
  305MOL0     C41066   3.907   0.831   5.824 -0.2550 -0.0804 -0.6820
  305MOL0     C41067   4.039   0.820   5.853 -0.0542 -0.8920  0.4429
  305MOL0     C41068   4.128   0.799   5.747  0.2738 -0.1164 -0.5956
  305MOL0     C41069   4.270   0.792   5.783  0.0530  0.2156  0.9139
  305MOL0     O41070   4.308   0.733   5.889 -0.0518 -0.3750  1.1464
  305MOL0     C41071   4.442   0.702   5.900  0.1048  0.0198  1.0008
  305MOL0     C41072   4.522   0.760   6.003 -0.2131  0.5316 -0.1005
  305MOL0     C41073   4.655   0.721   6.017 -0.4984  0.1644  0.5971
  305MOL0     C41074   4.704   0.620   5.929  0.0780 -0.3104  0.1028
  305MOL0     O41075   4.834   0.577   5.936 -0.1495 -0.1364  0.1531
  305MOL0     C41076   4.859   0.438   5.968 -0.1520  0.9317 -1.0394
  305MOL0     C41077   4.953   0.383   5.874 -0.4716 -0.0945 -0.3212
  305MOL0     C41078   5.100   0.427   5.913 -0.4460  0.1204 -0.1786
  305MOL0     C41079   5.165   0.322   5.999 -0.0332  0.6017 -0.7155
  305MOL0     C41080   5.199   0.370   6.143  0.3728  0.5253  0.1600
  305MOL0     C41081   5.302   0.476   6.146 -0.6168 -0.3672 -0.0905
  305MOL0     C41082   5.356   0.488   6.285  0.0715  0.6406 -2.2195
  305MOL0     C41083   5.460   0.604   6.299  0.8533  0.0697  0.0786
  305MOL0    Cl41084   5.632   0.571   6.251 -0.0870 -0.0812  0.1722
  305MOL0     C41085   4.621   0.558   5.836 -0.2789  0.1237  0.4756
  305MOL0     C41086   4.492   0.595   5.817  0.2431 -0.0707  0.5525
  305MOL0     O41087   4.347   0.847   5.699 -0.0918  0.3458  0.2353
  305MOL0     C41088   4.076   0.780   5.615 -0.2235  0.3835  0.7334
  305MOL0     C41089   3.938   0.777   5.590  0.0160 -0.4206 -0.6380
  305MOL0     N41090   3.422   1.139   5.290  0.0389 -0.0643  0.1837
  305MOL0     N41091   3.365   1.208   5.197  0.0888 -0.2923  0.5554
  305MOL0     C41092   2.736   1.279   5.646  0.8826 -0.3836 -0.1771
  305MOL0     C41093   2.820   1.282   5.767 -0.2813  0.3714  1.0944
  305MOL0     C41094   3.088   1.360   6.112  0.8228 -0.2215 -1.2570
  305MOL0     C41095   3.114   1.252   6.204 -0.7103  0.0439  0.5561
  305MOL0     C41096   3.219   1.266   6.294 -0.3783 -0.5466  0.2649
  305MOL0     C41097   3.302   1.382   6.299  0.3919 -1.3987  0.1922
  305MOL0     O41098   3.393   1.399   6.388 -0.1358  0.6248 -0.1485
  305MOL0     C41099   3.523   1.379   6.328 -0.0096  0.2468 -0.2428
  305MOL0     C41100   3.622   1.357   6.436  0.2185  0.6217  0.0891
  305MOL0     C41101   3.774   1.338   6.387 -0.5483 -0.6628  0.3381
  305MOL0     C41102   3.838   1.462   6.326  0.5593 -0.3133 -0.2097
  305MOL0     C41103   3.836   1.585   6.409 -0.1423 -0.5750  0.0467
  305MOL0     C41104   3.841   1.693   6.468  0.7372  0.5882  0.0731
  305MOL0     C41105   3.283   1.481   6.205  0.2408  0.4921 -0.4786
  305MOL0     C41106   3.177   1.473   6.115 -0.6167  0.5768  0.2180
  305MOL0     C41107   3.157   1.607   6.041 -0.5394 -0.3554  0.8905
  305MOL0     H41108   2.833   1.616   5.798  0.6520 -0.1201  0.0041
  305MOL0     H41109   2.675   1.601   5.607  0.0980  0.5609  2.3778
  305MOL0     H41110   2.672   1.219   5.406  1.0925  1.7214  2.7678
  305MOL0     H41111   2.520   1.196   5.496  0.3823  0.5905  2.1414
  305MOL0     H41112   2.422   1.325   5.290  0.2811  0.3907  0.2974
  305MOL0     H41113   2.493   1.178   5.238  1.2868 -0.2519  0.0536
  305MOL0     H41114   2.658   1.429   5.255  0.9056  0.8409 -1.3503
  305MOL0     H41115   2.566   1.392   5.108  1.9048 -0.2112 -1.7911
  305MOL0     H41116   2.791   1.227   5.229  1.7948 -0.6462 -0.7130
  305MOL0     H41117   2.678   1.172   5.092 -1.9432  1.9128 -1.5461
  305MOL0     H41118   2.739   1.335   4.947  0.4477  1.0431 -0.9345
  305MOL0     H41119   2.841   1.426   5.065  1.4868 -1.1695  0.4449
  305MOL0     H41120   2.913   1.145   4.946  3.4492 -1.8463  0.4424
  305MOL0     H41121   2.979   1.316   4.923 -3.6538  4.0463  0.9848
  305MOL0     H41122   2.980   1.158   5.168 -0.9266  3.8033  2.8839
  305MOL0     H41123   3.045   1.317   5.155 -0.5128 -1.3220  2.1568
  305MOL0     H41124   3.136   1.083   4.988 -0.7538  2.2702 -2.3778
  305MOL0     H41125   3.207   1.251   4.989 -2.0942  3.5795  3.6545
  305MOL0     H41126   3.176   0.945   5.222 -0.9400  0.6389 -0.4828
  305MOL0     H41127   3.337   0.990   5.522  0.2531  0.4921 -0.8865
  305MOL0     H41128   3.289   0.857   5.424 -0.8481 -0.1571  0.9509
  305MOL0     H41129   3.535   0.820   5.369 -2.4347 -2.2323  0.2109
  305MOL0     H41130   3.578   0.963   5.471 -0.9397 -0.0319  2.3991
  305MOL0     H41131   3.435   0.713   5.555  0.4099  0.9470 -4.4143
  305MOL0     H41132   3.483   0.853   5.662  1.1044  1.2223 -1.1533
  305MOL0     H41133   3.694   0.693   5.523  1.6694 -0.3162  1.3110
  305MOL0     H41134   3.626   0.644   5.679 -1.5829 -2.4349 -3.4040
  305MOL0     H41135   3.832   0.862   5.897  0.8478 -1.2783  1.0393
  305MOL0     H41136   4.073   0.839   5.954  1.3362 -0.7663 -0.0214
  305MOL0     H41137   4.489   0.841   6.066  0.6138 -1.0379  2.4968
  305MOL0     H41138   4.722   0.767   6.089  0.5686  0.3185 -0.4684
  305MOL0     H41139   4.902   0.438   6.069 -1.9716  0.3776 -0.2291
  305MOL0     H41140   4.767   0.379   5.969 -0.6360  1.6065  0.9888
  305MOL0     H41141   4.944   0.275   5.864  0.3918 -0.1264 -0.8322
  305MOL0     H41142   4.930   0.417   5.773  1.3254  2.9225  0.1420
  305MOL0     H41143   5.152   0.420   5.817 -1.8209 -1.6687 -0.8417
  305MOL0     H41144   5.108   0.529   5.952 -2.1167  0.6022 -0.9658
  305MOL0     H41145   5.262   0.302   5.953  0.4505  1.4434 -0.0884
  305MOL0     H41146   5.108   0.229   6.009  1.8710 -0.6181 -0.6960
  305MOL0     H41147   5.236   0.282   6.196  2.4944  0.3560 -1.4454
  305MOL0     H41148   5.109   0.395   6.200 -1.3751  0.8855 -2.5437
  305MOL0     H41149   5.390   0.463   6.083  0.0758  2.5083  0.1581
  305MOL0     H41150   5.263   0.571   6.109  0.2928 -0.1127 -0.4080
  305MOL0     H41151   5.405   0.394   6.311 -2.4425  0.3941  3.0183
  305MOL0     H41152   5.278   0.498   6.361  0.8885 -1.8482 -0.9507
  305MOL0     H41153   5.431   0.685   6.232 -0.6911 -2.4089 -2.4815
  305MOL0     H41154   5.463   0.633   6.405  1.5345 -3.2121  1.0812
  305MOL0     H41155   4.663   0.472   5.784  1.1439  1.8358 -1.3600
  305MOL0     H41156   4.422   0.545   5.751  1.4579 -0.9253 -0.1210
  305MOL0     H41157   4.144   0.764   5.532 -0.5483 -0.4258  0.6096
  305MOL0     H41158   3.881   0.764   5.498 -0.5373  0.9970 -0.5251
  305MOL0     H41159   2.717   1.181   5.604 -2.6070  1.1009 -2.5128
  305MOL0     H41160   2.867   1.190   5.800  1.0948 -1.0931 -4.0731
  305MOL0     H41161   3.051   1.164   6.209  0.2993 -0.8715 -1.6372
  305MOL0     H41162   3.234   1.177   6.356 -3.7663 -1.9345 -0.6718
  305MOL0     H41163   3.544   1.472   6.275  0.2555 -0.6291 -1.7099
  305MOL0     H41164   3.527   1.300   6.253 -0.9567  0.9164 -1.0267
  305MOL0     H41165   3.601   1.266   6.492  1.9369  0.3768  0.3713
  305MOL0     H41166   3.624   1.444   6.503  0.6439  1.1235 -0.5644
  305MOL0     H41167   3.785   1.262   6.310 -1.8540  1.5425 -2.2030
  305MOL0     H41168   3.841   1.307   6.468  0.9722  1.6199  0.0472
  305MOL0     H41169   3.940   1.443   6.294  0.2002 -1.3629 -0.7990
  305MOL0     H41170   3.782   1.482   6.234 -1.2599  1.3637  1.1749
  305MOL0     H41171   3.844   1.794   6.506 -2.9220  0.7503  0.3560
  305MOL0     H41172   3.346   1.569   6.215  1.3845 -0.4379  0.9062
  305MOL0     H41173   3.181   1.696   6.099  1.1849  0.0589 -0.3598
  305MOL0     H41174   3.230   1.590   5.961 -0.4527  2.8267  0.1876
  305MOL0     H41175   3.066   1.616   5.982  1.2404  0.1797 -1.9840
  306MOL0     O41176   5.380   9.083   3.377 -0.2926  0.2911  0.2440
  306MOL0     C41177   5.267   9.044   3.357  0.9958  0.3177 -0.2868
  306MOL0     O41178   5.242   8.908   3.316  1.1587 -0.0610  0.0929
  306MOL0     C41179   5.310   8.833   3.399  0.0437  0.5602 -0.1483
  306MOL0     C41180   5.444   8.786   3.377 -0.2513 -0.3004 -0.0090
  306MOL0     C41181   5.505   8.690   3.458 -0.4464 -0.4791  0.8434
  306MOL0     C41182   5.438   8.637   3.569  0.3436 -1.0833 -0.6824
  306MOL0     O41183   5.486   8.538   3.660 -0.8409 -0.1162  0.4419
  306MOL0     C41184   5.632   8.510   3.666  0.6981  0.7762 -0.3023
  306MOL0     C41185   5.679   8.392   3.746 -0.4923 -0.0300 -0.3113
  306MOL0     C41186   5.570   8.341   3.851 -0.4365 -0.4851  0.2610
  306MOL0     C41187   5.628   8.222   3.933  0.0390  0.1478 -0.1327
  306MOL0     C41188   5.519   8.163   4.020 -0.5192  0.0827 -0.5988
  306MOL0     C41189   5.531   8.207   4.163  0.1973  0.8532  0.0406
  306MOL0     C41190   5.412   8.146   4.235  0.4359 -0.7476  0.3590
  306MOL0     C41191   5.423   8.160   4.389  0.3403 -1.2216  0.0608
  306MOL0     N41192   5.293   8.122   4.457  0.0732 -0.4363 -0.2768
  306MOL0     C41193   5.231   8.184   4.567 -0.2681 -0.6561  0.4568
  306MOL0     C41194   5.122   8.111   4.604 -0.6681 -0.3186 -0.6161
  306MOL0     C41195   5.045   8.140   4.726  0.9519  0.4084 -0.4934
  306MOL0     C41196   4.955   8.269   4.710  0.2802 -0.0278 -0.4548
  306MOL0     C41197   4.891   8.300   4.844  0.8488 -0.1339  0.7945
  306MOL0     C41198   4.776   8.399   4.838 -0.2718  0.3659 -0.1899
  306MOL0     O41199   4.733   8.446   4.972 -0.3368 -0.2746 -0.5140
  306MOL0     C41200   4.612   8.500   4.997  0.6278 -0.4373 -0.0185
  306MOL0     C41201   4.596   8.527   5.141  0.1357 -0.5859  0.4815
  306MOL0     C41202   4.473   8.586   5.188  1.0351 -0.7990  0.9013
  306MOL0     C41203   4.374   8.632   5.091 -0.0121 -0.2185  0.4015
  306MOL0     C41204   4.253   8.693   5.138 -0.4987  0.9112 -1.1374
  306MOL0     O41205   4.147   8.714   5.061 -0.8703 -0.6419  1.1305
  306MOL0     C41206   4.023   8.751   5.105 -0.7413 -0.1655  0.8261
  306MOL0     C41207   3.945   8.814   5.009 -0.3307  0.0883 -0.0356
  306MOL0     C41208   3.814   8.853   5.036 -0.1014  0.9339 -0.9723
  306MOL0     C41209   3.768   8.844   5.163 -0.1589  0.0140 -0.7125
  306MOL0     O41210   3.652   8.910   5.175  0.7695 -0.5346  0.2459
  306MOL0     C41211   3.569   8.906   5.300 -0.9275  0.5872 -0.2166
  306MOL0     C41212   3.472   9.028   5.289 -0.0273  0.2881 -0.1630
  306MOL0     C41213   3.402   9.041   5.410 -0.4361 -0.3346 -0.1368
  306MOL0     C41214   3.273   9.124   5.400  0.0017  0.0844  0.1485
  306MOL0     C41215   3.202   9.160   5.535  0.8340 -0.0718  0.2792
  306MOL0     C41216   3.050   9.215   5.530 -1.6245  0.3082 -0.5729
  306MOL0     C41217   3.003   9.266   5.670 -0.2795  0.8630 -0.0821
  306MOL0     C41218   2.849   9.241   5.692 -0.8724  0.1737 -0.9009
  306MOL0    Cl41219   2.797   9.074   5.743  0.0443  0.8887  0.4323
  306MOL0     C41220   3.842   8.783   5.258  0.8451 -0.0365 -0.5637
  306MOL0     C41221   3.967   8.728   5.226 -0.5200  0.0898  0.6047
  306MOL0     O41222   4.266   8.730   5.259 -0.1960 -0.0333  0.1724
  306MOL0     C41223   4.396   8.597   4.956 -0.7637  0.5521  0.1342
  306MOL0     C41224   4.518   8.547   4.906  0.9059  0.4164 -0.8038
  306MOL0     N41225   5.116   8.001   4.529 -0.3592  0.1652  0.4386
  306MOL0     N41226   5.213   8.013   4.439  0.4493  0.1510  0.7288
  306MOL0     C41227   5.310   8.686   3.596 -0.6385 -0.8777  0.1224
  306MOL0     C41228   5.243   8.781   3.507  0.3542  0.4562  0.2790
  306MOL0     C41229   5.147   9.128   3.352 -0.0788  0.0501 -0.2996
  306MOL0     C41230   5.046   9.080   3.265  0.4701 -0.2197  0.0318
  306MOL0     C41231   4.915   9.130   3.279 -0.6542 -0.5574 -0.5454
  306MOL0     C41232   4.892   9.229   3.369  0.2157 -0.6238 -0.2607
  306MOL0     O41233   4.769   9.302   3.385 -0.7633  0.0319 -0.4776
  306MOL0     C41234   4.650   9.231   3.340  0.8872  0.0823  0.3363
  306MOL0     C41235   4.524   9.259   3.428  0.1371  0.2398  0.4875
  306MOL0     C41236   4.552   9.242   3.581  0.4968  1.1449  0.9898
  306MOL0     C41237   4.587   9.370   3.653 -0.5683  0.9439  0.2362
  306MOL0     C41238   4.639   9.359   3.788  0.6686  0.6279 -1.1905
  306MOL0     C41239   4.684   9.352   3.896 -0.6674  0.9800 -0.6130
  306MOL0     C41240   4.996   9.288   3.437 -0.6376  0.3579  0.0597
  306MOL0     C41241   5.128   9.238   3.440  0.7119 -0.5574 -1.4884
  306MOL0     C41242   5.226   9.304   3.528 -0.3052 -0.1425  0.7220
  306MOL0     H41243   5.498   8.836   3.297 -1.1260  2.6955  1.1190
  306MOL0     H41244   5.606   8.660   3.434 -0.7903  0.7125 -2.6938
  306MOL0     H41245   5.660   8.486   3.563 -1.6344 -0.6538 -0.6830
  306MOL0     H41246   5.680   8.598   3.710 -1.4879  1.1394  1.5506
  306MOL0     H41247   5.776   8.418   3.789  0.0801 -1.3539 -0.7379
  306MOL0     H41248   5.704   8.305   3.684  0.9803  0.6750 -0.7531
  306MOL0     H41249   5.473   8.318   3.804  0.0530 -0.9909 -0.5330
  306MOL0     H41250   5.559   8.408   3.937  0.6261 -1.3715  1.1096
  306MOL0     H41251   5.666   8.146   3.864 -1.7943  0.1025 -1.1445
  306MOL0     H41252   5.715   8.248   3.995  1.0345  1.3506 -1.9370
  306MOL0     H41253   5.418   8.184   3.986 -0.8630 -2.5767 -1.4088
  306MOL0     H41254   5.537   8.056   4.013  0.9207  0.3487 -1.6898
  306MOL0     H41255   5.623   8.174   4.212 -1.5003 -1.2456  2.0590
  306MOL0     H41256   5.515   8.314   4.179  0.7658  1.0282 -0.5355
  306MOL0     H41257   5.398   8.043   4.202 -0.2804 -0.3103 -0.7517
  306MOL0     H41258   5.319   8.198   4.213  0.2677 -1.6157 -1.0988
  306MOL0     H41259   5.504   8.101   4.433 -0.2076 -1.1300  1.2193
  306MOL0     H41260   5.452   8.264   4.405  1.1164 -0.9661 -2.4786
  306MOL0     H41261   5.266   8.278   4.610 -0.6527 -1.2684  2.1750
  306MOL0     H41262   4.969   8.063   4.744 -1.6574  2.8993 -0.2327
  306MOL0     H41263   5.111   8.150   4.813  1.6078  1.5999 -1.1073
  306MOL0     H41264   5.016   8.351   4.670  1.0326 -0.4545 -0.2173
  306MOL0     H41265   4.874   8.254   4.638 -2.0427  2.0053  1.5738
  306MOL0     H41266   4.967   8.337   4.914 -0.1141  3.2092  0.2563
  306MOL0     H41267   4.851   8.207   4.883 -1.1006 -1.1626 -3.1357
  306MOL0     H41268   4.691   8.345   4.795 -0.1521  1.7102 -2.2655
  306MOL0     H41269   4.808   8.477   4.769  0.5966 -2.0591 -2.7280
  306MOL0     H41270   4.672   8.513   5.217 -2.0734  3.0435  3.7201
  306MOL0     H41271   4.465   8.607   5.294  1.8840  2.1034  0.4674
  306MOL0     H41272   3.981   8.822   4.907 -0.4535 -0.4361 -0.1268
  306MOL0     H41273   3.754   8.900   4.958  1.7011  0.7641 -2.5553
  306MOL0     H41274   3.518   8.809   5.300 -2.5634  1.4024  0.0749
  306MOL0     H41275   3.629   8.903   5.391  1.6418 -2.0720 -1.7938
  306MOL0     H41276   3.536   9.116   5.290 -0.9047  0.9390 -0.0564
  306MOL0     H41277   3.404   9.020   5.204  0.4257 -1.5030 -0.3908
  306MOL0     H41278   3.371   8.941   5.445 -0.6070 -1.1878 -2.5520
  306MOL0     H41279   3.474   9.076   5.484 -0.8287 -1.1354  0.6504
  306MOL0     H41280   3.206   9.084   5.322  1.5225  4.9492 -4.1711
  306MOL0     H41281   3.299   9.220   5.355  2.3392 -0.6109 -0.1021
  306MOL0     H41282   3.253   9.232   5.599 -0.5333 -1.5310  3.2241
  306MOL0     H41283   3.197   9.065   5.589  0.7074 -1.4020 -1.9572
  306MOL0     H41284   3.054   9.305   5.468  1.8513  2.0617  1.8308
  306MOL0     H41285   2.983   9.136   5.496 -3.3841  1.7976 -0.7400
  306MOL0     H41286   3.018   9.374   5.669 -0.1015  0.8432  0.2830
  306MOL0     H41287   3.056   9.224   5.756 -0.0455  1.2886 -0.0131
  306MOL0     H41288   2.826   9.308   5.775  2.5142  3.6999 -2.5137
  306MOL0     H41289   2.785   9.271   5.609 -3.2326 -3.3059 -0.5548
  306MOL0     H41290   3.794   8.760   5.352 -0.0276  2.0641 -0.4616
  306MOL0     H41291   4.028   8.668   5.292  2.0700  1.9878  0.0755
  306MOL0     H41292   4.315   8.619   4.888 -1.1633  0.6107  0.6238
  306MOL0     H41293   4.533   8.544   4.799 -0.3875 -1.2517 -0.9665
  306MOL0     H41294   5.256   8.640   3.678  2.0011  0.5176  2.8533
  306MOL0     H41295   5.146   8.826   3.529 -0.2697 -0.5702 -0.3004
  306MOL0     H41296   5.073   8.996   3.202 -4.7281 -1.9474 -0.3169
  306MOL0     H41297   4.837   9.087   3.218 -2.1924  0.7957  0.3700
  306MOL0     H41298   4.663   9.123   3.351  0.3857 -0.0041  0.1299
  306MOL0     H41299   4.632   9.239   3.232 -1.2005 -2.5943  0.3904
  306MOL0     H41300   4.447   9.194   3.386  1.1382  0.3422 -1.6264
  306MOL0     H41301   4.490   9.361   3.407  2.2756  0.9506  0.2384
  306MOL0     H41302   4.629   9.166   3.601  0.5886  1.1418  0.6402
  306MOL0     H41303   4.456   9.212   3.625  1.2283 -1.9317  0.7745
  306MOL0     H41304   4.654   9.433   3.594  0.8252  0.0849  0.8405
  306MOL0     H41305   4.489   9.417   3.641 -1.6122 -1.5461 -1.7356
  306MOL0     H41306   4.719   9.357   3.997  0.0072  1.4285 -0.8635
  306MOL0     H41307   4.971   9.360   3.514 -0.3413 -0.8182  1.2966
  306MOL0     H41308   5.283   9.225   3.577  3.9221  2.9682  1.3566
  306MOL0     H41309   5.292   9.363   3.464 -2.4938  0.1429 -1.4272
  306MOL0     H41310   5.181   9.369   3.604 -1.6660  0.8590 -0.8578
  307MOL0     O41311   2.737   4.615   9.547 -0.0280  0.1325 -0.1341
  307MOL0     C41312   2.762   4.505   9.603  1.0486 -0.4379  0.0198
  307MOL0     O41313   2.827   4.501   9.723 -0.3033 -1.5218  0.0153
  307MOL0     C41314   2.868   4.619   9.775  0.0369 -0.4312  0.5498
  307MOL0     C41315   2.978   4.695   9.724  0.0001 -1.1181 -0.0652
  307MOL0     C41316   3.024   4.809   9.784 -0.0623  0.6292 -0.3731
  307MOL0     C41317   2.959   4.855   9.903  0.4401 -0.5713 -0.1662
  307MOL0     O41318   2.993   4.972   9.957 -0.6662  0.3950  0.2176
  307MOL0     C41319   3.040   5.071   9.868 -0.1625 -0.4540  0.6588
  307MOL0     C41320   2.953   5.203   9.901 -0.6266  0.2651  0.2194
  307MOL0     C41321   2.986   5.315   9.805  0.9646  0.5801  0.4780
  307MOL0     C41322   3.128   5.376   9.840  0.5208  0.2303 -0.9611
  307MOL0     C41323   3.166   5.470   9.728 -0.3132 -0.9173  0.3994
  307MOL0     C41324   3.063   5.582   9.720  0.2621 -0.4258 -0.0515
  307MOL0     C41325   3.120   5.708   9.653 -0.3839 -0.1474  0.2761
  307MOL0     C41326   3.146   5.695   9.498  0.5779 -0.2005  0.0575
  307MOL0     N41327   3.020   5.663   9.431  1.0222  0.4170  0.6081
  307MOL0     C41328   2.938   5.744   9.358  0.1273  0.4083  0.0358
  307MOL0     C41329   2.854   5.654   9.287 -1.1327 -1.4869 -0.6243
  307MOL0     C41330   2.733   5.699   9.211 -0.7894 -0.1789 -0.0813
  307MOL0     C41331   2.616   5.732   9.305 -0.0725 -0.4619  0.5313
  307MOL0     C41332   2.544   5.630   9.382  0.4322  0.0321  0.5879
  307MOL0     C41333   2.411   5.665   9.447  0.1191 -0.4435  0.3306
  307MOL0     O41334   2.372   5.571   9.545  0.1106 -0.5119  0.1159
  307MOL0     C41335   2.302   5.466   9.508 -0.4969  0.3503  0.4243
  307MOL0     C41336   2.255   5.393   9.618 -0.2434  0.0092 -0.4803
  307MOL0     C41337   2.157   5.296   9.613  0.9681  0.0499 -0.5385
  307MOL0     C41338   2.101   5.259   9.490 -0.2402 -0.5021 -0.2656
  307MOL0     C41339   1.998   5.150   9.483  0.7234  0.1653  0.3099
  307MOL0     O41340   1.917   5.137   9.594 -0.3842  0.1733 -1.1578
  307MOL0     C41341   1.810   5.052   9.589 -0.3193  0.2253 -0.9012
  307MOL0     C41342   1.708   5.064   9.494  0.0538  0.5187 -1.1441
  307MOL0     C41343   1.606   4.976   9.501  0.8799  0.8580  0.2203
  307MOL0     C41344   1.586   4.873   9.597  0.7160  0.3392 -0.0920
  307MOL0     O41345   1.474   4.791   9.587  0.1830 -0.2433  1.0236
  307MOL0     C41346   1.430   4.746   9.710  1.0715  0.3985 -0.7483
  307MOL0     C41347   1.296   4.675   9.696 -1.1408  0.0318 -0.0937
  307MOL0     C41348   1.320   4.539   9.621 -0.6151 -0.3287  0.1332
  307MOL0     C41349   1.190   4.460   9.616 -0.5401 -0.4690  0.4520
  307MOL0     C41350   1.203   4.326   9.535  1.4090 -0.4260 -0.4174
  307MOL0     C41351   1.068   4.257   9.533  0.0856  0.0029 -0.3137
  307MOL0     C41352   1.035   4.185   9.410 -0.4425  0.9515 -0.9390
  307MOL0     C41353   0.878   4.157   9.413 -0.3065 -0.0442 -0.8072
  307MOL0    Cl41354   0.824   4.087   9.260 -0.0896 -0.3443  0.3995
  307MOL0     C41355   1.697   4.863   9.698 -0.0819  0.5063  0.2362
  307MOL0     C41356   1.805   4.961   9.694 -0.5551  0.3762  0.1542
  307MOL0     O41357   1.975   5.101   9.371  0.7252  0.1751  0.1819
  307MOL0     C41358   2.142   5.337   9.380  0.0236 -0.0643  0.2170
  307MOL0     C41359   2.232   5.442   9.385  0.7289 -0.2417  0.4818
  307MOL0     N41360   2.884   5.528   9.338  0.3114 -0.5348  0.6830
  307MOL0     N41361   2.993   5.530   9.406  0.0032 -0.4970 -0.1551
  307MOL0     C41362   2.855   4.780   9.960 -0.2803 -0.2055 -1.0527
  307MOL0     C41363   2.813   4.662   9.898 -0.0909  0.2849 -0.1039
  307MOL0     C41364   2.724   4.372   9.540 -0.0504 -0.7547  0.1491
  307MOL0     C41365   2.653   4.379   9.418 -0.5567  1.2348 -0.3140
  307MOL0     C41366   2.615   4.266   9.349 -0.1164 -0.1328 -1.1630
  307MOL0     C41367   2.646   4.137   9.394 -0.3023 -0.0205  0.2881
  307MOL0     O41368   2.596   4.012   9.337 -0.0185  0.0121 -0.1986
  307MOL0     C41369   2.537   4.014   9.205 -0.4687  0.1230 -0.4647
  307MOL0     C41370   2.536   3.872   9.151  0.3501  0.9555  0.9087
  307MOL0     C41371   2.435   3.856   9.039  0.7526 -0.1494 -1.4546
  307MOL0     C41372   2.417   3.711   8.993 -0.1524 -0.0130 -0.6460
  307MOL0     C41373   2.386   3.603   9.089 -0.0291 -0.5630 -0.2465
  307MOL0     C41374   2.388   3.497   9.146  0.8131  0.2005 -0.4813
  307MOL0     C41375   2.722   4.123   9.518 -0.1457  0.3417  0.5182
  307MOL0     C41376   2.761   4.241   9.584 -0.4393  0.0434  0.8471
  307MOL0     C41377   2.842   4.207   9.708 -0.6894  0.1358  0.2649
  307MOL0     H41378   3.039   4.668   9.638  0.5636  0.4688 -0.1960
  307MOL0     H41379   3.104   4.863   9.733  1.7122  1.3456  2.8956
  307MOL0     H41380   3.145   5.085   9.895 -0.4892  3.1119  0.6160
  307MOL0     H41381   3.024   5.047   9.762 -4.4923  1.7789  0.5858
  307MOL0     H41382   2.966   5.229  10.006  0.7591  1.4739 -0.2088
  307MOL0     H41383   2.852   5.176   9.870 -0.9968  0.5418  1.1778
  307MOL0     H41384   2.908   5.390   9.823 -1.5483 -2.6249  4.4969
  307MOL0     H41385   2.977   5.280   9.701 -2.1594  1.0658  0.4742
  307MOL0     H41386   3.126   5.434   9.933  5.2438  2.2260 -1.7786
  307MOL0     H41387   3.208   5.302   9.845  0.3796 -0.0118  5.0158
  307MOL0     H41388   3.261   5.517   9.758  0.8643 -2.6151 -0.4761
  307MOL0     H41389   3.180   5.430   9.627  2.4772  1.4886 -0.3099
  307MOL0     H41390   2.977   5.533   9.673 -0.3664  1.0598 -0.5153
  307MOL0     H41391   3.042   5.611   9.823 -0.6849 -2.0956  0.2688
  307MOL0     H41392   3.203   5.753   9.708 -2.9112  3.1382  1.7639
  307MOL0     H41393   3.048   5.790   9.659  1.0048  1.2664 -1.5313
  307MOL0     H41394   3.181   5.793   9.463 -0.8307  1.2486  2.3909
  307MOL0     H41395   3.220   5.616   9.483  0.4279 -1.3618  4.1507
  307MOL0     H41396   2.939   5.853   9.356 -1.0494  0.4233 -0.2968
  307MOL0     H41397   2.759   5.795   9.167  1.1017  1.7622  4.6610
  307MOL0     H41398   2.722   5.617   9.138 -2.2921 -0.4449  0.3992
  307MOL0     H41399   2.659   5.803   9.377  2.6793  1.3225 -2.5738
  307MOL0     H41400   2.547   5.797   9.251  1.8305  1.4645  0.2454
  307MOL0     H41401   2.603   5.600   9.470 -2.9322  0.4540  3.1730
  307MOL0     H41402   2.540   5.540   9.319 -0.3060  0.8138 -0.5072
  307MOL0     H41403   2.338   5.688   9.369 -0.0773 -1.2763  0.2574
  307MOL0     H41404   2.435   5.759   9.497  2.0252  0.3971 -1.9587
  307MOL0     H41405   2.312   5.415   9.708  0.3910  0.2507 -0.9294
  307MOL0     H41406   2.119   5.235   9.694 -0.6527 -1.4436 -2.3066
  307MOL0     H41407   1.718   5.145   9.422 -1.1338  2.6951  0.9966
  307MOL0     H41408   1.521   4.996   9.436  2.0791  0.0166 -1.6700
  307MOL0     H41409   1.512   4.687   9.751  1.5371  2.3894  1.3837
  307MOL0     H41410   1.417   4.833   9.776 -0.0112 -0.3327  0.0508
  307MOL0     H41411   1.251   4.656   9.794 -1.0002 -0.1449 -0.0637
  307MOL0     H41412   1.233   4.747   9.643  1.1735  2.0704 -0.2789
  307MOL0     H41413   1.354   4.552   9.518 -0.0867  2.1080  0.5531
  307MOL0     H41414   1.393   4.479   9.677 -1.0311  1.4877  2.7930
  307MOL0     H41415   1.119   4.528   9.568  0.6247  2.1161  2.1655
  307MOL0     H41416   1.157   4.440   9.718  1.4640 -1.0836  1.0296
  307MOL0     H41417   1.268   4.261   9.595 -1.6672 -1.6321  1.8764
  307MOL0     H41418   1.233   4.348   9.432 -2.7982 -1.9496 -2.1651
  307MOL0     H41419   1.051   4.189   9.616  0.0058 -0.0059 -0.3368
  307MOL0     H41420   1.003   4.345   9.526  0.2423  0.0744 -0.9737
  307MOL0     H41421   1.090   4.091   9.397  1.4335  1.1821  3.6115
  307MOL0     H41422   1.074   4.249   9.330  1.2024 -0.3564 -1.2449
  307MOL0     H41423   0.853   4.078   9.484  1.0747  0.2868  0.0762
  307MOL0     H41424   0.818   4.247   9.433 -1.3551  0.4162 -5.0658
  307MOL0     H41425   1.705   4.788   9.777  3.6775  1.0581  0.5660
  307MOL0     H41426   1.884   4.953   9.768 -0.5151  0.6560  0.1400
  307MOL0     H41427   2.110   5.328   9.277  3.1721  2.5813 -1.2019
  307MOL0     H41428   2.253   5.505   9.299 -1.2895  2.9558  2.1465
  307MOL0     H41429   2.822   4.781  10.064  1.9512  1.1562 -0.2790
  307MOL0     H41430   2.747   4.598   9.955  1.5334 -1.7475 -0.3931
  307MOL0     H41431   2.634   4.477   9.374  1.6428  0.3292 -3.6458
  307MOL0     H41432   2.566   4.281   9.254 -4.4494 -1.5284  0.6023
  307MOL0     H41433   2.594   4.082   9.142  0.3347 -2.0619 -2.2327
  307MOL0     H41434   2.436   4.055   9.218  0.1973  2.0428 -1.0672
  307MOL0     H41435   2.514   3.793   9.223 -1.8602 -3.3142 -3.8336
  307MOL0     H41436   2.638   3.849   9.117  0.0632  0.6704  0.2114
  307MOL0     H41437   2.488   3.904   8.956  3.7641 -1.0803 -0.2046
  307MOL0     H41438   2.342   3.905   9.071  1.5370  1.2374 -1.2512
  307MOL0     H41439   2.329   3.719   8.928  0.6904  1.1580 -1.6948
  307MOL0     H41440   2.497   3.674   8.929  0.7004 -1.8718  1.3775
  307MOL0     H41441   2.377   3.407   9.203  2.5201  1.2052  1.5800
  307MOL0     H41442   2.744   4.026   9.561 -2.3212  1.3213  4.3252
  307MOL0     H41443   2.868   4.103   9.729  0.1510  0.7660  2.6253
  307MOL0     H41444   2.932   4.267   9.692 -0.0287 -1.6016 -3.7322
  307MOL0     H41445   2.776   4.245   9.787 -1.2290  1.6390 -0.8383
  308MOL0     O41446   7.605   0.802   5.457  0.7390 -0.0811 -0.5569
  308MOL0     C41447   7.480   0.765   5.457 -1.0656  0.0151 -0.3019
  308MOL0     O41448   7.428   0.655   5.398 -0.4613  0.1558 -0.6198
  308MOL0     C41449   7.508   0.568   5.338 -0.0998 -0.1205  0.6127
  308MOL0     C41450   7.523   0.438   5.395  0.5826 -0.5604  0.4995
  308MOL0     C41451   7.590   0.335   5.323 -0.0722 -0.8336 -0.8182
  308MOL0     C41452   7.660   0.363   5.201 -0.2467 -0.8421 -0.1706
  308MOL0     O41453   7.733   0.271   5.136  0.7331 -0.0043 -0.4978
  308MOL0     C41454   7.838   0.206   5.213  0.4512  0.1378  0.2128
  308MOL0     C41455   7.794   0.066   5.247  0.0377  0.8234 -0.3691
  308MOL0     C41456   7.843  -0.044   5.151 -0.5284  0.7534 -0.1661
  308MOL0     C41457   7.732  -0.124   5.084 -0.0277 -0.3736  0.0773
  308MOL0     C41458   7.784  -0.248   5.000  0.8915 -0.4601 -0.4806
  308MOL0     C41459   7.812  -0.213   4.855 -0.6896  0.2974  0.6757
  308MOL0     C41460   7.748  -0.328   4.758  0.1222  0.2300 -0.7396
  308MOL0     C41461   7.811  -0.464   4.766  0.3390  0.4345 -0.3613
  308MOL0     N41462   7.793  -0.543   4.649 -0.1797  0.4931 -0.1281
  308MOL0     C41463   7.708  -0.657   4.643  0.5492 -0.6795  0.6820
  308MOL0     C41464   7.727  -0.702   4.521 -0.0652 -1.0778 -0.4250
  308MOL0     C41465   7.644  -0.812   4.461 -0.1558  0.0727  0.2683
  308MOL0     C41466   7.656  -0.944   4.545  0.1373 -1.1152 -0.3427
  308MOL0     C41467   7.804  -0.977   4.590  0.2825  1.0618 -0.5358
  308MOL0     C41468   7.884  -0.998   4.470  0.0464  0.2014  0.6222
  308MOL0     O41469   8.011  -1.029   4.504 -0.2990  0.0710 -0.0591
  308MOL0     C41470   8.069  -1.113   4.419 -0.3498 -0.0041  0.6829
  308MOL0     C41471   8.152  -1.067   4.321  0.4101  0.4569  1.0993
  308MOL0     C41472   8.193  -1.155   4.220  0.4288 -0.3013  0.6686
  308MOL0     C41473   8.161  -1.293   4.221  0.3089 -0.2217  0.9519
  308MOL0     C41474   8.183  -1.383   4.107  0.6554 -0.2178 -0.9435
  308MOL0     O41475   8.191  -1.324   3.980  0.0146  0.3057 -0.0575
  308MOL0     C41476   8.222  -1.405   3.874  0.4552  1.0050 -0.0801
  308MOL0     C41477   8.317  -1.511   3.871 -0.4796 -0.1867  0.3809
  308MOL0     C41478   8.332  -1.580   3.750  0.4569 -0.0732 -0.6842
  308MOL0     C41479   8.259  -1.549   3.633 -0.2057  0.0087 -0.2866
  308MOL0     O41480   8.279  -1.626   3.524 -0.1202  0.9220 -0.2157
  308MOL0     C41481   8.225  -1.609   3.391  0.5192  0.2682 -0.6122
  308MOL0     C41482   8.304  -1.496   3.316  1.4732  0.2875 -0.5659
  308MOL0     C41483   8.254  -1.500   3.171  0.3856 -0.2783  0.0268
  308MOL0     C41484   8.342  -1.405   3.081  1.0968  0.1739 -0.4995
  308MOL0     C41485   8.317  -1.257   3.115 -0.2015  0.3573 -0.1978
  308MOL0     C41486   8.400  -1.165   3.034 -0.3028 -1.3564 -0.0639
  308MOL0     C41487   8.393  -1.017   3.092 -0.3082  1.1011 -0.4097
  308MOL0     C41488   8.505  -0.916   3.042  0.5675  0.4022 -0.2085
  308MOL0    Cl41489   8.476  -0.882   2.868  0.3875 -0.3322 -0.2473
  308MOL0     C41490   8.165  -1.451   3.643  0.2476 -0.5343  0.6442
  308MOL0     C41491   8.145  -1.378   3.759  0.1066  0.5178  0.1383
  308MOL0     O41492   8.180  -1.507   4.133 -0.1036 -0.1384  0.5947
  308MOL0     C41493   8.094  -1.342   4.337 -0.1218  0.6405  0.1301
  308MOL0     C41494   8.047  -1.255   4.428 -0.4363 -0.5371  0.6921
  308MOL0     N41495   7.813  -0.622   4.451 -0.8684  0.1965 -0.6015
  308MOL0     N41496   7.859  -0.534   4.535  0.2702  0.9409  0.9369
  308MOL0     C41497   7.639   0.488   5.140 -0.3168  0.5089 -0.2752
  308MOL0     C41498   7.559   0.582   5.210 -1.3927 -0.2443 -0.0100
  308MOL0     C41499   7.376   0.843   5.521  0.1143  0.5605 -0.0615
  308MOL0     C41500   7.257   0.861   5.455 -0.1828 -0.1805 -0.3830
  308MOL0     C41501   7.163   0.961   5.487 -0.1573 -0.7164 -1.0234
  308MOL0     C41502   7.188   1.047   5.600  0.1715  0.4466  0.2655
  308MOL0     O41503   7.100   1.144   5.629 -0.7176 -0.0374 -0.3494
  308MOL0     C41504   7.140   1.256   5.696 -0.2708 -0.5888  0.3027
  308MOL0     C41505   7.027   1.362   5.675  0.0524  0.9542 -0.0938
  308MOL0     C41506   6.904   1.316   5.757 -0.7616  0.2311  1.0617
  308MOL0     C41507   6.791   1.421   5.755 -0.8531 -0.4979  0.1192
  308MOL0     C41508   6.837   1.546   5.808  0.4520  0.5596  0.5706
  308MOL0     C41509   6.860   1.648   5.861  0.4208 -0.8119 -0.0904
  308MOL0     C41510   7.311   1.029   5.664  1.0428 -0.0078 -0.4463
  308MOL0     C41511   7.397   0.931   5.627 -0.2021  0.0121 -0.5609
  308MOL0     C41512   7.520   0.938   5.709 -0.3477 -0.0248 -1.2429
  308MOL0     H41513   7.478   0.410   5.490  1.7273 -1.2823  0.8594
  308MOL0     H41514   7.601   0.243   5.380 -2.9267  1.7162  4.5688
  308MOL0     H41515   7.926   0.201   5.148  0.2178  0.9471 -0.1862
  308MOL0     H41516   7.873   0.270   5.295  1.8220  1.1307 -1.0946
  308MOL0     H41517   7.685   0.064   5.248  0.0093 -2.6491  0.3862
  308MOL0     H41518   7.839   0.032   5.341  0.8771  0.0194 -1.0472
  308MOL0     H41519   7.897  -0.123   5.204 -0.0185  1.4747  0.4213
  308MOL0     H41520   7.911   0.000   5.077 -1.0857 -3.0981 -3.3022
  308MOL0     H41521   7.670  -0.164   5.165 -0.7868  2.6688  1.1155
  308MOL0     H41522   7.666  -0.055   5.031 -1.4311 -1.2183  0.6470
  308MOL0     H41523   7.861  -0.297   5.060 -0.6389  1.2060  3.0778
  308MOL0     H41524   7.706  -0.324   5.004  0.7241 -0.2682 -0.0869
  308MOL0     H41525   7.774  -0.116   4.823 -0.0171  0.8117  1.3773
  308MOL0     H41526   7.921  -0.201   4.852 -0.8624  2.1819  0.7330
  308MOL0     H41527   7.750  -0.290   4.655  0.2518 -1.5607 -1.4394
  308MOL0     H41528   7.641  -0.329   4.783 -0.8222  1.2972 -4.1879
  308MOL0     H41529   7.917  -0.463   4.792  0.5568  0.3108 -1.2020
  308MOL0     H41530   7.766  -0.523   4.846  4.8218 -2.2785  0.4888
  308MOL0     H41531   7.639  -0.688   4.721  0.9139 -0.8966  0.9233
  308MOL0     H41532   7.540  -0.781   4.467  0.3314  2.2851 -1.1914
  308MOL0     H41533   7.676  -0.826   4.357 -0.8144  0.4307  0.0112
  308MOL0     H41534   7.593  -0.929   4.633 -0.7259  1.8946 -1.3448
  308MOL0     H41535   7.616  -1.030   4.491  2.5879 -2.6963  0.1830
  308MOL0     H41536   7.802  -1.067   4.652  0.6640  0.9983 -0.6138
  308MOL0     H41537   7.834  -0.896   4.656 -1.5652  0.0321  1.6805
  308MOL0     H41538   7.879  -0.913   4.402  2.8252  0.4762  0.6369
  308MOL0     H41539   7.841  -1.079   4.410  2.9555 -2.9026  2.3765
  308MOL0     H41540   8.162  -0.959   4.310 -1.7389  0.8708  2.5763
  308MOL0     H41541   8.233  -1.101   4.135 -1.3795 -0.7924 -0.5403
  308MOL0     H41542   8.380  -1.537   3.956 -0.8733 -0.2428  0.6581
  308MOL0     H41543   8.403  -1.662   3.742 -0.9591 -1.3109 -1.0140
  308MOL0     H41544   8.230  -1.700   3.330 -1.5482 -0.4936  0.2693
  308MOL0     H41545   8.122  -1.578   3.408  1.2165  3.5819 -1.6304
  308MOL0     H41546   8.275  -1.409   3.375  2.3204  0.3829 -0.2680
  308MOL0     H41547   8.413  -1.496   3.311  1.5608  0.9534  0.7501
  308MOL0     H41548   8.266  -1.601   3.129 -0.3921  0.2852 -1.6626
  308MOL0     H41549   8.149  -1.468   3.169  0.2190 -0.5872  1.8720
  308MOL0     H41550   8.318  -1.419   2.976 -0.6124  3.9494 -0.7561
  308MOL0     H41551   8.450  -1.426   3.088  1.0811  0.3759  0.5928
  308MOL0     H41552   8.332  -1.250   3.224 -0.9592 -0.9960  0.0195
  308MOL0     H41553   8.213  -1.235   3.094  0.0592  2.2127  0.3247
  308MOL0     H41554   8.502  -1.202   3.022  0.9041  1.8049 -0.4953
  308MOL0     H41555   8.361  -1.164   2.932 -0.3584 -1.4505 -0.0445
  308MOL0     H41556   8.407  -1.017   3.200  0.7696  0.6552 -0.5436
  308MOL0     H41557   8.295  -0.977   3.065 -0.7079 -1.3227 -3.0892
  308MOL0     H41558   8.495  -0.823   3.100 -3.9084 -1.7274  3.0659
  308MOL0     H41559   8.612  -0.940   3.046  0.4091 -0.4996 -1.0847
  308MOL0     H41560   8.100  -1.434   3.558 -2.7538 -1.4053  2.6107
  308MOL0     H41561   8.070  -1.300   3.746  1.6896  1.9197 -1.0632
  308MOL0     H41562   8.063  -1.444   4.355  0.4966  0.0399 -1.9912
  308MOL0     H41563   7.984  -1.293   4.509  0.6418 -3.6348  0.2217
  308MOL0     H41564   7.694   0.512   5.049 -2.1681  2.1756 -1.0124
  308MOL0     H41565   7.536   0.674   5.158  5.0398  0.5776 -2.2807
  308MOL0     H41566   7.243   0.809   5.360 -2.8626  0.4746 -0.4238
  308MOL0     H41567   7.071   0.971   5.429 -1.1045  1.7098  0.7100
  308MOL0     H41568   7.225   1.315   5.660 -0.3169  3.1489  5.2594
  308MOL0     H41569   7.161   1.248   5.803 -0.9853 -0.6442  0.4413
  308MOL0     H41570   7.008   1.385   5.570 -1.3529 -1.9919 -0.6013
  308MOL0     H41571   7.079   1.444   5.726  1.4326  1.3887 -2.1142
  308MOL0     H41572   6.956   1.306   5.852  1.8435  3.2973  0.1404
  308MOL0     H41573   6.865   1.220   5.722  3.1019 -2.6078  3.7278
  308MOL0     H41574   6.758   1.449   5.655  0.8370  1.1294 -0.0425
  308MOL0     H41575   6.710   1.377   5.814 -1.0670 -0.4811 -0.1621
  308MOL0     H41576   6.871   1.747   5.901 -2.6540 -0.1450 -0.6588
  308MOL0     H41577   7.337   1.105   5.737 -3.5510  1.9558 -0.5224
  308MOL0     H41578   7.525   1.015   5.787 -4.0718 -0.4935 -0.3587
  308MOL0     H41579   7.513   0.852   5.776 -5.3778  1.2735  0.3640
  308MOL0     H41580   7.612   0.940   5.649 -0.7111  1.1493 -1.7912
  309MOL0     O41581   7.223  11.380   3.175 -0.4360  0.3550 -0.6070
  309MOL0     C41582   7.288  11.366   3.069  0.7270  0.3630  0.0082
  309MOL0     O41583   7.282  11.257   2.980  1.1793 -0.5918 -0.2479
  309MOL0     C41584   7.214  11.144   3.016 -0.0427  0.9905 -0.1330
  309MOL0     C41585   7.153  11.062   2.918 -0.6861 -0.4230 -0.7200
  309MOL0     C41586   7.113  10.932   2.956 -0.2837  0.5436  0.8178
  309MOL0     C41587   7.120  10.883   3.095 -0.1344  0.1973  1.0163
  309MOL0     O41588   7.064  10.767   3.142  0.4464  0.4391 -0.1497
  309MOL0     C41589   7.039  10.670   3.039  0.1885 -0.4361  0.0892
  309MOL0     C41590   6.971  10.554   3.121 -0.4600  0.4897 -0.4886
  309MOL0     C41591   6.926  10.440   3.023  0.3475  0.1541 -0.4816
  309MOL0     C41592   6.850  10.327   3.095  0.0364 -0.4005  0.1701
  309MOL0     C41593   6.795  10.204   3.016 -0.6382  0.2152 -0.0192
  309MOL0     C41594   6.688  10.236   2.912 -0.1397 -0.0907  0.1951
  309MOL0     C41595   6.657  10.112   2.836 -0.3105  0.1828 -0.4791
  309MOL0     C41596   6.575  10.001   2.907 -0.2795 -0.1811  0.5123
  309MOL0     N41597   6.560   9.887   2.810  0.0506 -0.3779  0.3021
  309MOL0     C41598   6.655   9.800   2.759 -0.7989  0.5931  0.3635
  309MOL0     C41599   6.587   9.713   2.684  0.9738 -0.0490 -0.2147
  309MOL0     C41600   6.647   9.604   2.619  0.2130  0.5616 -0.4010
  309MOL0     C41601   6.543   9.502   2.570 -0.1088 -0.1891 -0.9370
  309MOL0     C41602   6.584   9.359   2.609 -0.1542 -0.4542 -0.5082
  309MOL0     C41603   6.470   9.256   2.565 -0.5028 -1.0175  0.7089
  309MOL0     O41604   6.530   9.132   2.532 -0.1263 -0.0551  0.0737
  309MOL0     C41605   6.535   9.099   2.395 -0.4143  0.5192 -1.3435
  309MOL0     C41606   6.529   9.188   2.290 -0.2447  0.3453 -0.5901
  309MOL0     C41607   6.525   9.142   2.158 -0.3311 -0.0565 -0.2542
  309MOL0     C41608   6.523   9.005   2.122 -0.3139  0.1518 -0.5597
  309MOL0     C41609   6.513   8.950   1.991  0.4104 -0.1518  0.2819
  309MOL0     O41610   6.523   9.037   1.886  0.0369 -0.3984  0.5340
  309MOL0     C41611   6.519   8.979   1.759  0.1950 -0.1438 -0.5718
  309MOL0     C41612   6.524   8.849   1.709  0.4170 -0.2892 -0.1259
  309MOL0     C41613   6.503   8.824   1.571 -1.1255 -0.1506  0.3379
  309MOL0     C41614   6.474   8.927   1.488 -0.2756 -0.6189  0.7681
  309MOL0     O41615   6.449   8.916   1.351 -0.8371 -0.5303  0.4768
  309MOL0     C41616   6.453   8.783   1.289  0.3999 -0.8538 -0.7759
  309MOL0     C41617   6.319   8.710   1.314 -0.2323 -0.7168  0.2304
  309MOL0     C41618   6.265   8.641   1.193 -0.3427 -0.0981  0.7653
  309MOL0     C41619   6.120   8.623   1.189 -0.3160 -0.6618 -0.3180
  309MOL0     C41620   6.075   8.522   1.081  0.0151 -0.2036  0.0848
  309MOL0     C41621   5.922   8.534   1.057  0.6435  0.7931 -0.5750
  309MOL0     C41622   5.880   8.630   0.945  0.2956 -0.1381 -0.3497
  309MOL0     C41623   5.921   8.597   0.803  0.2396  0.3162 -0.2121
  309MOL0    Cl41624   5.832   8.696   0.686  0.3704  0.0227  0.1702
  309MOL0     C41625   6.468   9.059   1.541 -0.4498  0.0558  0.0783
  309MOL0     C41626   6.495   9.083   1.671  0.4512 -0.5482 -0.6057
  309MOL0     O41627   6.457   8.839   1.988  0.4958  0.4045 -0.0123
  309MOL0     C41628   6.541   8.923   2.235 -0.5660 -0.4462 -0.4806
  309MOL0     C41629   6.558   8.965   2.371  0.9238 -0.0185  1.1183
  309MOL0     N41630   6.457   9.736   2.704  0.7293 -0.6738  0.6680
  309MOL0     N41631   6.435   9.845   2.764  0.5835  0.5986  0.0871
  309MOL0     C41632   7.169  10.974   3.187  1.1117  0.0555 -0.7219
  309MOL0     C41633   7.215  11.095   3.154 -0.1634 -0.4866 -0.1850
  309MOL0     C41634   7.404  11.459   3.052  0.6252 -0.7957  0.0339
  309MOL0     C41635   7.409  11.569   3.136  0.2118 -1.1050 -0.1116
  309MOL0     C41636   7.525  11.654   3.141  0.1294  0.5547 -0.1816
  309MOL0     C41637   7.620  11.642   3.046 -0.2899  0.9599  1.2519
  309MOL0     O41638   7.738  11.719   3.041 -0.8766 -0.0360  0.7173
  309MOL0     C41639   7.803  11.745   3.168 -0.0419  0.1774 -0.5842
  309MOL0     C41640   7.948  11.790   3.146 -0.2902  0.1025  0.8676
  309MOL0     C41641   7.959  11.939   3.124  0.1261 -0.1713 -0.9274
  309MOL0     C41642   8.104  11.967   3.095  0.2703 -0.2920 -0.5851
  309MOL0     C41643   8.130  12.108   3.091  0.3439 -0.7074  0.2514
  309MOL0     C41644   8.178  12.223   3.095 -0.1431  0.7370 -0.6288
  309MOL0     C41645   7.607  11.542   2.942 -0.4237  0.0760 -0.4624
  309MOL0     C41646   7.510  11.445   2.958  0.2582  0.5108  0.9768
  309MOL0     C41647   7.513  11.335   2.850 -0.7633 -0.5038 -0.8152
  309MOL0     H41648   7.129  11.107   2.823 -0.4372  0.7661 -0.2395
  309MOL0     H41649   7.054  10.876   2.884  0.0092  2.1157 -0.7233
  309MOL0     H41650   6.976  10.694   2.953 -0.6211 -1.0283  0.4974
  309MOL0     H41651   7.138  10.650   2.997  0.1554 -0.3622 -0.0226
  309MOL0     H41652   6.894  10.581   3.194  1.1439  0.3181  1.3530
  309MOL0     H41653   7.051  10.518   3.187  0.3611  1.1903 -1.0825
  309MOL0     H41654   7.023  10.404   2.985 -0.0076 -2.7621  1.0681
  309MOL0     H41655   6.859  10.477   2.945 -0.8373 -1.9565 -0.5516
  309MOL0     H41656   6.921  10.291   3.170  1.8093  0.0861 -1.1974
  309MOL0     H41657   6.763  10.377   3.138  0.7036 -0.8084  2.0762
  309MOL0     H41658   6.885  10.155   2.977 -1.8705 -0.3728 -2.3293
  309MOL0     H41659   6.748  10.137   3.089  0.5024 -1.6020 -0.8670
  309MOL0     H41660   6.596  10.273   2.960 -0.4212 -1.8649  1.1040
  309MOL0     H41661   6.716  10.311   2.838  1.6911  0.1907  1.1088
  309MOL0     H41662   6.756  10.075   2.809 -0.3484  0.6903 -1.3431
  309MOL0     H41663   6.620  10.127   2.734  3.0910  0.9426 -1.7226
  309MOL0     H41664   6.631   9.963   2.993  0.2674  1.1065  0.7432
  309MOL0     H41665   6.478  10.043   2.936  0.2255  1.8668 -0.5232
  309MOL0     H41666   6.762   9.799   2.779  0.3891  0.8559 -4.6367
  309MOL0     H41667   6.718   9.639   2.544 -1.6067  0.6929 -2.1658
  309MOL0     H41668   6.696   9.546   2.697 -3.4494  0.6766  2.2828
  309MOL0     H41669   6.447   9.520   2.619  1.8896  0.0592  3.3642
  309MOL0     H41670   6.531   9.516   2.462  0.6608 -3.3248 -1.5294
  309MOL0     H41671   6.601   9.359   2.717  1.5369  0.4991 -0.7441
  309MOL0     H41672   6.681   9.329   2.569  0.8758  1.8307  0.1085
  309MOL0     H41673   6.410   9.299   2.484 -0.0035 -2.0186 -0.2168
  309MOL0     H41674   6.404   9.249   2.652 -1.8274  1.9957  0.0561
  309MOL0     H41675   6.538   9.296   2.304 -2.0885  0.3665  0.8812
  309MOL0     H41676   6.516   9.210   2.074  1.5272  0.9692  0.3195
  309MOL0     H41677   6.548   8.775   1.785  1.8579  0.5207  0.2342
  309MOL0     H41678   6.516   8.717   1.557  4.0755  0.3776 -1.2917
  309MOL0     H41679   6.445   8.820   1.186 -0.6803 -4.8345 -2.3254
  309MOL0     H41680   6.540   8.718   1.303  0.2089 -0.9568 -0.0401
  309MOL0     H41681   6.353   8.636   1.387  2.2116  0.5438  0.4539
  309MOL0     H41682   6.249   8.781   1.359  0.8421 -0.1372  1.0200
  309MOL0     H41683   6.298   8.686   1.099  3.3018 -2.1866  0.8463
  309MOL0     H41684   6.312   8.542   1.187 -3.9656 -1.8943 -1.8588
  309MOL0     H41685   6.069   8.716   1.161  1.4626  0.0029 -1.5049
  309MOL0     H41686   6.087   8.582   1.285 -2.4214 -1.5557 -1.3450
  309MOL0     H41687   6.101   8.418   1.102 -2.2997 -0.5378  1.6462
  309MOL0     H41688   6.123   8.551   0.987  1.7028 -2.0420  0.3103
  309MOL0     H41689   5.888   8.437   1.021 -0.1403  0.6030  0.6169
  309MOL0     H41690   5.865   8.551   1.149  1.2105 -4.4367  1.0390
  309MOL0     H41691   5.921   8.729   0.967 -1.9274  1.1389 -1.5339
  309MOL0     H41692   5.771   8.641   0.943  0.4196  1.3708 -0.2628
  309MOL0     H41693   6.029   8.617   0.794  0.0507  0.5419 -2.6556
  309MOL0     H41694   5.892   8.497   0.769 -0.5603  0.7524 -0.8398
  309MOL0     H41695   6.449   9.128   1.460 -3.2775  1.7635  2.0085
  309MOL0     H41696   6.510   9.187   1.696  0.0509 -0.7405  0.4901
  309MOL0     H41697   6.540   8.814   2.227  0.8810 -0.6119  0.9830
  309MOL0     H41698   6.575   8.894   2.451  1.9103  1.3353  2.1456
  309MOL0     H41699   7.144  10.956   3.291 -0.8465  3.8938 -0.3303
  309MOL0     H41700   7.268  11.156   3.226  1.1375  1.3591 -2.5709
  309MOL0     H41701   7.326  11.596   3.200  0.8649 -1.5691  0.9635
  309MOL0     H41702   7.535  11.730   3.218 -0.0068  0.9680 -0.5610
  309MOL0     H41703   7.823  11.646   3.211 -2.2484  0.3133  0.9071
  309MOL0     H41704   7.747  11.809   3.236  1.3699  0.9050 -0.0793
  309MOL0     H41705   7.996  11.738   3.062 -1.4902  2.3389 -1.3108
  309MOL0     H41706   8.011  11.778   3.235  2.7001  5.7942  0.0126
  309MOL0     H41707   7.938  11.978   3.223  0.2409 -2.8948  0.2534
  309MOL0     H41708   7.888  11.970   3.046 -1.3021  3.5003  1.5534
  309MOL0     H41709   8.171  11.910   3.161 -0.2083 -0.1490  0.0385
  309MOL0     H41710   8.118  11.924   2.996  3.0477  1.3084 -0.9989
  309MOL0     H41711   8.229  12.317   3.106  1.0782 -0.1580  2.4178
  309MOL0     H41712   7.687  11.544   2.869 -2.3662 -0.1966 -2.6851
  309MOL0     H41713   7.441  11.358   2.771 -2.4789  0.1893  0.8725
  309MOL0     H41714   7.611  11.317   2.805 -1.3634  1.5178 -3.1108
  309MOL0     H41715   7.497  11.234   2.889  0.1303  0.3519  2.0191
  310MOL0     O41716  11.353   6.491   8.322 -0.1361  0.5869  0.2174
  310MOL0     C41717  11.341   6.596   8.387 -1.0982 -0.9755 -0.4200
  310MOL0     O41718  11.421   6.639   8.490  0.5111  0.4033  0.1869
  310MOL0     C41719  11.541   6.573   8.512 -0.1857 -0.7384 -0.0139
  310MOL0     C41720  11.638   6.548   8.409 -0.5076 -0.8278 -0.0204
  310MOL0     C41721  11.756   6.480   8.433 -0.5727  0.7211 -0.3029
  310MOL0     C41722  11.794   6.425   8.557 -0.1561 -0.2955 -1.1678
  310MOL0     O41723  11.913   6.357   8.586  0.3707 -0.6735 -0.2628
  310MOL0     C41724  12.026   6.375   8.503  1.3573 -0.4054 -0.8852
  310MOL0     C41725  12.024   6.303   8.373  0.1599  1.0535 -0.5878
  310MOL0     C41726  11.941   6.176   8.370  0.7012 -0.6709  0.9669
  310MOL0     C41727  11.982   6.083   8.255  0.8575  0.0930 -0.4239
  310MOL0     C41728  11.874   5.988   8.221 -0.2767 -0.2839 -0.2075
  310MOL0     C41729  11.820   5.894   8.335  0.9729 -0.1336  0.4620
  310MOL0     C41730  11.750   5.769   8.282 -0.6234  0.6992 -0.0878
  310MOL0     C41731  11.850   5.678   8.210 -0.5942  1.5019 -0.6291
  310MOL0     N41732  11.790   5.586   8.113 -0.2088 -0.4407  0.2189
  310MOL0     C41733  11.700   5.493   8.144  0.0840  0.8975 -0.2483
  310MOL0     C41734  11.614   5.492   8.037 -0.1238  0.1703  0.0175
  310MOL0     C41735  11.481   5.422   8.028 -0.3351  0.2073  0.3045
  310MOL0     C41736  11.498   5.273   8.046 -0.7035 -0.6967 -0.1289
  310MOL0     C41737  11.367   5.206   8.016 -0.0871 -0.2922  0.5617
  310MOL0     C41738  11.375   5.051   8.011  0.4500  0.3610  1.0633
  310MOL0     O41739  11.397   4.996   8.147 -0.5847  0.0890 -0.3570
  310MOL0     C41740  11.287   5.007   8.221  0.3028  0.5754 -1.2081
  310MOL0     C41741  11.316   5.081   8.332  0.3957 -0.4052 -0.7568
  310MOL0     C41742  11.220   5.122   8.428  0.1791  0.0063 -0.5687
  310MOL0     C41743  11.091   5.075   8.412  0.4279  0.3797 -1.5055
  310MOL0     C41744  10.993   5.088   8.519  0.7344  0.4268  0.5578
  310MOL0     O41745  10.862   5.059   8.492  1.1037  0.8155  0.4922
  310MOL0     C41746  10.760   5.122   8.552  0.8289 -0.1127 -0.2794
  310MOL0     C41747  10.771   5.206   8.655  0.1489 -0.8701 -0.1833
  310MOL0     C41748  10.654   5.257   8.718  0.3836  0.6875  0.0925
  310MOL0     C41749  10.529   5.217   8.670  0.4441 -0.5138 -0.2742
  310MOL0     O41750  10.407   5.252   8.730  0.8150 -0.3996 -0.0142
  310MOL0     C41751  10.333   5.142   8.786  0.5300  0.6279  0.5512
  310MOL0     C41752  10.343   5.155   8.942  0.6382  0.3548  0.1142
  310MOL0     C41753  10.349   5.020   9.017  0.7006 -0.3365  0.4853
  310MOL0     C41754  10.260   4.907   8.970  0.7534 -0.3688  0.3111
  310MOL0     C41755  10.200   4.814   9.076  0.0867 -0.0266 -0.7244
  310MOL0     C41756  10.073   4.735   9.030 -0.6769  0.1221  0.8270
  310MOL0     C41757  10.005   4.675   9.150  0.6600  0.2446  0.8112
  310MOL0     C41758  10.064   4.545   9.207 -0.0343  0.2946  0.0564
  310MOL0    Cl41759   9.999   4.530   9.379  0.3037  0.1168 -0.1310
  310MOL0     C41760  10.526   5.139   8.559 -0.3281 -0.1452  0.0321
  310MOL0     C41761  10.635   5.088   8.507 -0.4985  0.0489 -0.3382
  310MOL0     O41762  11.047   5.088   8.633  0.7955 -0.5386  0.0345
  310MOL0     C41763  11.060   5.001   8.293 -0.2187  0.2085  0.4838
  310MOL0     C41764  11.155   4.969   8.195  0.1426 -0.6272  0.0949
  310MOL0     N41765  11.651   5.582   7.947 -0.2709 -0.0661 -0.1472
  310MOL0     N41766  11.750   5.643   7.997 -0.3085 -0.0853  0.4516
  310MOL0     C41767  11.685   6.436   8.664  0.5561  0.4163  0.9581
  310MOL0     C41768  11.563   6.503   8.631  0.4399 -0.3184  0.4779
  310MOL0     C41769  11.246   6.693   8.332  0.7508 -0.3234  0.6496
  310MOL0     C41770  11.279   6.831   8.331 -0.0534  0.8486 -0.0419
  310MOL0     C41771  11.200   6.935   8.260 -0.0223  0.2990  0.2522
  310MOL0     C41772  11.090   6.881   8.188 -0.7168 -0.0492  0.1817
  310MOL0     O41773  11.011   6.946   8.107  0.2322  0.0774  0.3060
  310MOL0     C41774  10.968   7.085   8.145 -1.2131 -0.1691  0.3791
  310MOL0     C41775  10.867   7.075   8.268  0.0739 -0.1231  0.4576
  310MOL0     C41776  10.843   7.218   8.326  0.7718 -0.2120 -0.5187
  310MOL0     C41777  10.742   7.222   8.438 -0.4253  0.1356  0.5452
  310MOL0     C41778  10.716   7.360   8.490 -0.0879  0.2544  0.2131
  310MOL0     C41779  10.700   7.475   8.529  0.2942  0.4056  0.4739
  310MOL0     C41780  11.062   6.745   8.192 -0.1704 -0.3879 -0.6244
  310MOL0     C41781  11.132   6.649   8.262 -1.1411 -0.5312  0.6555
  310MOL0     C41782  11.071   6.505   8.265 -0.1791  0.2019  1.0533
  310MOL0     H41783  11.596   6.588   8.317 -3.0359 -1.6244  0.6989
  310MOL0     H41784  11.814   6.470   8.342 -0.8076 -0.3781 -0.3445
  310MOL0     H41785  12.043   6.482   8.493 -0.7133 -0.0007 -0.5325
  310MOL0     H41786  12.120   6.346   8.551  2.4702  1.2589 -1.9873
  310MOL0     H41787  12.130   6.279   8.357  0.8882 -0.5728  4.9164
  310MOL0     H41788  11.979   6.364   8.294  0.5739  1.7869 -0.2642
  310MOL0     H41789  11.838   6.212   8.360  0.7312 -0.0735  2.5918
  310MOL0     H41790  11.959   6.115   8.459  0.7476  0.4480  1.7527
  310MOL0     H41791  12.010   6.138   8.165 -0.7054  0.2891 -0.8146
  310MOL0     H41792  12.075   6.029   8.277  1.8906  1.7250 -0.5735
  310MOL0     H41793  11.790   6.047   8.183  1.2316  1.2289 -1.3506
  310MOL0     H41794  11.913   5.925   8.140 -0.2829 -0.1286 -0.3313
  310MOL0     H41795  11.910   5.869   8.393  1.9369  0.5507 -0.6929
  310MOL0     H41796  11.746   5.953   8.389  0.5599 -1.1146  0.9919
  310MOL0     H41797  11.676   5.801   8.207  0.8625 -0.7651 -2.3074
  310MOL0     H41798  11.706   5.702   8.356  0.2020  0.4035  0.1436
  310MOL0     H41799  11.938   5.728   8.169  1.7946 -2.6630 -1.1346
  310MOL0     H41800  11.895   5.622   8.293  1.4367  2.5647 -0.9614
  310MOL0     H41801  11.698   5.446   8.242  0.3227 -1.1954 -1.1831
  310MOL0     H41802  11.443   5.460   8.124  2.4443  3.0032  0.4416
  310MOL0     H41803  11.416   5.432   7.940 -0.3608  2.0026  0.4866
  310MOL0     H41804  11.579   5.240   7.981 -1.3191  0.6279 -1.6256
  310MOL0     H41805  11.531   5.254   8.149  3.0449 -2.1939 -1.4302
  310MOL0     H41806  11.353   5.228   7.909  1.1092 -2.8494 -0.1945
  310MOL0     H41807  11.284   5.241   8.078 -2.0867  1.8048 -2.9392
  310MOL0     H41808  11.460   5.007   7.958  0.0892 -0.1840  0.9311
  310MOL0     H41809  11.285   5.012   7.963  1.7813 -1.6136  0.0366
  310MOL0     H41810  11.415   5.120   8.349 -1.5383  4.1760  1.6479
  310MOL0     H41811  11.245   5.184   8.513  1.4730 -1.8023  0.4301
  310MOL0     H41812  10.863   5.229   8.708 -1.4207  0.5210  2.0951
  310MOL0     H41813  10.654   5.307   8.815  0.9297  1.3521 -0.2403
  310MOL0     H41814  10.229   5.158   8.757  1.4356  1.6204 -2.5160
  310MOL0     H41815  10.363   5.044   8.748 -3.1173 -1.0204  1.4553
  310MOL0     H41816  10.427   5.218   8.974 -0.9343  1.9235  1.3681
  310MOL0     H41817  10.257   5.204   8.988 -2.7990 -4.6285 -0.2428
  310MOL0     H41818  10.452   4.983   9.011  0.9954  0.4074  0.9153
  310MOL0     H41819  10.329   5.025   9.124 -0.4763  0.3123  0.2574
  310MOL0     H41820  10.309   4.847   8.893  1.2213  3.8759 -3.0950
  310MOL0     H41821  10.174   4.940   8.911  0.6985  0.7458  0.9857
  310MOL0     H41822  10.163   4.876   9.159  1.5852 -0.2634  0.1552
  310MOL0     H41823  10.264   4.735   9.115 -1.9782 -1.1460  0.6151
  310MOL0     H41824  10.006   4.798   8.970  2.5756  1.4080 -1.7842
  310MOL0     H41825  10.105   4.662   8.956 -2.7796  1.7462 -1.9166
  310MOL0     H41826   9.901   4.661   9.116  0.5557  5.2657 -1.8268
  310MOL0     H41827  10.003   4.746   9.233 -1.7531 -0.0185  1.0625
  310MOL0     H41828  10.062   4.452   9.149 -0.5046 -0.1608  0.7687
  310MOL0     H41829  10.172   4.562   9.208 -0.1197  1.6376 -3.3683
  310MOL0     H41830  10.427   5.105   8.531 -0.2639 -1.9312  1.7585
  310MOL0     H41831  10.625   5.017   8.426  3.2730 -2.1188  0.8115
  310MOL0     H41832  10.957   4.967   8.289 -0.9773  2.4364  0.0194
  310MOL0     H41833  11.127   4.938   8.094 -1.7676  3.4829 -0.8794
  310MOL0     H41834  11.688   6.403   8.767  0.7515 -1.1142  0.4884
  310MOL0     H41835  11.484   6.505   8.706 -2.2737  0.0684 -2.1951
  310MOL0     H41836  11.370   6.874   8.373  1.4755 -1.3453 -0.8944
  310MOL0     H41837  11.236   7.036   8.279 -0.2596  0.8691 -2.0889
  310MOL0     H41838  10.930   7.123   8.050 -1.0138 -1.4396 -0.2363
  310MOL0     H41839  11.059   7.139   8.173 -0.7106 -1.3167  1.0554
  310MOL0     H41840  10.906   7.014   8.350 -1.3315 -1.2260  0.3494
  310MOL0     H41841  10.781   7.020   8.228  0.0024  0.6809 -0.5264
  310MOL0     H41842  10.801   7.290   8.255 -2.0825  0.2101  1.4050
  310MOL0     H41843  10.932   7.266   8.367  0.8602 -1.0419  0.2986
  310MOL0     H41844  10.649   7.180   8.399  0.5250 -0.7906 -0.7866
  310MOL0     H41845  10.791   7.168   8.519  3.0843  0.4148 -1.2437
  310MOL0     H41846  10.690   7.576   8.563  1.4248  0.7535 -0.1625
  310MOL0     H41847  10.972   6.710   8.142 -1.2263  2.1913 -0.7105
  310MOL0     H41848  10.982   6.495   8.203 -0.1124  0.7991  0.8470
  310MOL0     H41849  11.137   6.424   8.235 -2.9387 -0.6144 -3.8330
  310MOL0     H41850  11.035   6.484   8.366 -1.1204 -0.5576  0.5846
  311MOL0     O41851   9.766   9.482   7.243 -0.1769  0.5396 -0.0446
  311MOL0     C41852   9.653   9.483   7.193  0.4149 -0.5984 -0.1726
  311MOL0     O41853   9.546   9.546   7.237 -0.7747 -0.2876  0.2446
  311MOL0     C41854   9.542   9.613   7.357  0.0188 -0.0747  0.5546
  311MOL0     C41855   9.428   9.590   7.432 -0.2273  0.3183  0.5330
  311MOL0     C41856   9.420   9.648   7.556 -1.1995  0.5110  0.3236
  311MOL0     C41857   9.523   9.732   7.613 -0.0043 -0.6626 -0.8253
  311MOL0     O41858   9.540   9.778   7.739  1.7609 -0.6863 -0.2334
  311MOL0     C41859   9.459   9.706   7.830 -0.4986 -0.7666 -0.2388
  311MOL0     C41860   9.456   9.798   7.958  0.7799  0.5919  0.1522
  311MOL0     C41861   9.367   9.755   8.064  0.6578 -0.3369 -1.2349
  311MOL0     C41862   9.291   9.884   8.123 -0.1581 -0.3923  0.4504
  311MOL0     C41863   9.191   9.857   8.239  0.6666  0.7225 -0.0479
  311MOL0     C41864   9.143   9.988   8.296 -0.0723 -0.3671  0.0253
  311MOL0     C41865   9.092   9.970   8.444  0.0293 -1.0000 -1.1718
  311MOL0     C41866   9.216   9.944   8.540  0.1984 -1.2777 -0.3190
  311MOL0     N41867   9.254   9.800   8.558 -0.8436  0.4494 -0.6198
  311MOL0     C41868   9.164   9.691   8.558 -0.0565 -1.4868  0.6936
  311MOL0     C41869   9.241   9.583   8.526  0.1868 -0.4744 -0.0546
  311MOL0     C41870   9.193   9.446   8.495  0.3455  0.2609 -0.3914
  311MOL0     C41871   9.055   9.453   8.425  0.3055 -0.2022 -1.0133
  311MOL0     C41872   9.025   9.343   8.325 -1.0351 -0.2007  1.1927
  311MOL0     C41873   9.124   9.362   8.205 -0.1351 -0.1269  0.4842
  311MOL0     O41874   9.061   9.274   8.107  0.4961  0.1241 -0.0674
  311MOL0     C41875   9.092   9.292   7.975  1.2565 -0.6614 -0.3141
  311MOL0     C41876   9.029   9.201   7.900 -0.1708 -0.8376  0.7112
  311MOL0     C41877   9.043   9.196   7.757  0.1673  0.2037  0.4305
  311MOL0     C41878   9.138   9.280   7.697 -0.4421 -0.2125  0.1738
  311MOL0     C41879   9.173   9.254   7.548 -0.7962  0.6429 -0.5927
  311MOL0     O41880   9.072   9.211   7.467  0.0261 -0.2152  0.6777
  311MOL0     C41881   9.087   9.169   7.340  0.7624  0.4787  0.4337
  311MOL0     C41882   8.997   9.225   7.254  0.1721 -0.0200  0.3669
  311MOL0     C41883   8.987   9.196   7.117 -1.1984  0.3637  0.4451
  311MOL0     C41884   9.072   9.104   7.061 -0.4687  0.1506 -0.6328
  311MOL0     O41885   9.078   9.085   6.929 -0.2997 -0.6949 -0.1748
  311MOL0     C41886   8.967   9.109   6.843  0.1320  0.6909  0.6165
  311MOL0     C41887   9.004   9.060   6.692 -0.1244 -0.0123  0.3172
  311MOL0     C41888   8.882   9.074   6.605  0.0167 -0.4166  0.2914
  311MOL0     C41889   8.768   8.965   6.619 -0.7746  1.1023 -0.1007
  311MOL0     C41890   8.637   8.979   6.545  0.7699 -1.3726 -0.6021
  311MOL0     C41891   8.546   9.093   6.610  0.3881  0.2761  0.8472
  311MOL0     C41892   8.408   9.125   6.544 -1.3361  0.6406 -0.0667
  311MOL0     C41893   8.332   9.249   6.597  0.3081 -0.1543  0.3339
  311MOL0    Cl41894   8.301   9.215   6.778 -0.2053 -0.0258 -0.2955
  311MOL0     C41895   9.169   9.038   7.145 -0.2080  0.0731 -1.5560
  311MOL0     C41896   9.167   9.068   7.290 -0.1009 -0.1891  0.6103
  311MOL0     O41897   9.294   9.260   7.514  0.3781 -0.6603  0.9707
  311MOL0     C41898   9.214   9.368   7.782 -0.2123  0.5431  1.0984
  311MOL0     C41899   9.182   9.377   7.916 -1.0365  0.7546 -0.6552
  311MOL0     N41900   9.368   9.617   8.546  0.1139  1.5463  0.3160
  311MOL0     N41901   9.383   9.748   8.546  0.9405  0.3187  1.0443
  311MOL0     C41902   9.634   9.747   7.533 -0.0487  0.6089  0.3100
  311MOL0     C41903   9.641   9.695   7.405  0.6012  0.3912 -0.7339
  311MOL0     C41904   9.629   9.404   7.081 -0.8232  0.8138 -0.7016
  311MOL0     C41905   9.502   9.335   7.079 -0.7471 -0.3163  0.1518
  311MOL0     C41906   9.462   9.264   6.966 -0.4535 -0.2565 -0.1570
  311MOL0     C41907   9.546   9.241   6.862 -0.0322 -0.6773  0.2585
  311MOL0     O41908   9.503   9.189   6.747  0.0368 -0.2788  0.3349
  311MOL0     C41909   9.376   9.221   6.701 -0.2106 -0.6550 -0.1643
  311MOL0     C41910   9.374   9.254   6.544 -0.2906  0.1273  0.0573
  311MOL0     C41911   9.466   9.377   6.502 -0.2190 -0.5752 -0.2116
  311MOL0     C41912   9.446   9.425   6.360  0.2771  0.3026  0.3328
  311MOL0     C41913   9.516   9.549   6.327  1.0553 -0.5427  0.5763
  311MOL0     C41914   9.590   9.642   6.310  0.2378 -0.2638  0.2791
  311MOL0     C41915   9.677   9.293   6.869 -0.8409 -0.1131  0.5478
  311MOL0     C41916   9.719   9.381   6.972  0.1680  0.3657 -0.4592
  311MOL0     C41917   9.857   9.438   6.946  0.7030  0.3085  0.0337
  311MOL0     H41918   9.351   9.536   7.378  0.0640  1.7444 -1.4242
  311MOL0     H41919   9.324   9.642   7.607 -0.3945 -0.4470  1.8035
  311MOL0     H41920   9.357   9.705   7.791  0.3963 -0.0252 -2.8182
  311MOL0     H41921   9.494   9.604   7.846  0.9423 -0.1404  0.9653
  311MOL0     H41922   9.425   9.898   7.928 -4.8509 -0.4502  1.3530
  311MOL0     H41923   9.557   9.795   8.002  0.5708  0.3177  0.6193
  311MOL0     H41924   9.413   9.709   8.152 -2.3763 -1.8838 -0.3270
  311MOL0     H41925   9.292   9.685   8.025 -2.2101  3.2699 -2.8317
  311MOL0     H41926   9.372   9.950   8.157  1.0570 -0.4872 -2.0060
  311MOL0     H41927   9.225   9.919   8.043  1.6684 -0.9570 -1.4200
  311MOL0     H41928   9.108   9.794   8.207  0.8882  0.3603  0.0952
  311MOL0     H41929   9.243   9.806   8.321 -1.9332  0.0879  1.3176
  311MOL0     H41930   9.220  10.066   8.298 -0.3687 -0.0035  3.6557
  311MOL0     H41931   9.061  10.026   8.234  1.6033 -0.1216 -2.1378
  311MOL0     H41932   9.014   9.894   8.454  0.1690 -0.9273  0.8760
  311MOL0     H41933   9.054  10.062   8.489  2.2121 -0.5681 -0.0981
  311MOL0     H41934   9.306   9.999   8.508  0.8756 -1.9130  0.4596
  311MOL0     H41935   9.189   9.970   8.642  0.0710  1.4859 -0.9968
  311MOL0     H41936   9.056   9.687   8.545 -0.3152  1.6477  0.9671
  311MOL0     H41937   9.273   9.393   8.441  0.6543 -0.1594  0.4534
  311MOL0     H41938   9.183   9.400   8.593 -1.2039 -1.0261 -1.1086
  311MOL0     H41939   8.974   9.453   8.498 -1.3903 -0.5044 -2.7964
  311MOL0     H41940   9.040   9.549   8.374 -1.0924  0.8588  1.2552
  311MOL0     H41941   8.917   9.355   8.310 -1.3701 -2.1053  1.7899
  311MOL0     H41942   9.044   9.244   8.366 -1.3578  0.2985  2.5969
  311MOL0     H41943   9.228   9.334   8.224 -0.7810 -2.0443  1.4348
  311MOL0     H41944   9.119   9.463   8.161  1.4791 -0.1669  0.1465
  311MOL0     H41945   8.959   9.143   7.959 -0.8647  2.1210  3.0231
  311MOL0     H41946   8.984   9.124   7.702  0.9877  0.6832 -1.1584
  311MOL0     H41947   8.938   9.308   7.292  0.5058  0.4971 -0.2416
  311MOL0     H41948   8.905   9.245   7.066 -0.1806 -0.0760 -1.7095
  311MOL0     H41949   8.878   9.059   6.881 -0.2949  2.3031  1.8450
  311MOL0     H41950   8.958   9.218   6.834  0.5919  0.6358 -0.7158
  311MOL0     H41951   9.100   9.098   6.657  0.9320 -2.1714  0.6732
  311MOL0     H41952   9.032   8.954   6.685 -0.0600 -0.0925  1.4991
  311MOL0     H41953   8.829   9.168   6.621 -1.9276 -0.8941 -2.5678
  311MOL0     H41954   8.917   9.085   6.502 -0.7092  2.0306  0.2597
  311MOL0     H41955   8.751   8.956   6.726  2.4187 -4.0370  0.3119
  311MOL0     H41956   8.806   8.865   6.594 -4.8763 -1.2363  1.9211
  311MOL0     H41957   8.581   8.887   6.564 -1.8096  0.4233  1.3128
  311MOL0     H41958   8.660   8.993   6.439  5.2644 -0.9670  0.2074
  311MOL0     H41959   8.514   9.077   6.713 -6.5620 -0.6237 -0.9297
  311MOL0     H41960   8.602   9.187   6.604  0.0546  0.4249 -0.2761
  311MOL0     H41961   8.352   9.033   6.565  1.0715 -0.6265  1.1727
  311MOL0     H41962   8.430   9.134   6.438  0.2984 -1.5589  0.0237
  311MOL0     H41963   8.398   9.337   6.595  1.7134 -1.1984 -0.3649
  311MOL0     H41964   8.234   9.262   6.550  0.3423  1.8286  0.7008
  311MOL0     H41965   9.241   8.964   7.110  1.7995  0.9661  0.3805
  311MOL0     H41966   9.231   9.019   7.363 -1.4238 -2.3076  0.4365
  311MOL0     H41967   9.305   9.416   7.748  1.0795 -1.9686  0.8056
  311MOL0     H41968   9.258   9.431   7.972 -1.3896  0.5097  0.0665
  311MOL0     H41969   9.708   9.800   7.593  0.6069 -3.2941  3.3528
  311MOL0     H41970   9.736   9.698   7.353  1.8905 -1.0288  1.3604
  311MOL0     H41971   9.426   9.349   7.155 -3.0236  0.1228 -2.0645
  311MOL0     H41972   9.358   9.234   6.957 -1.1132  1.9763 -0.6164
  311MOL0     H41973   9.335   9.306   6.756  1.2283  1.5689 -2.3419
  311MOL0     H41974   9.318   9.130   6.718 -0.8965  0.2239  2.7277
  311MOL0     H41975   9.271   9.274   6.512 -0.5589  3.1661  2.3339
  311MOL0     H41976   9.420   9.171   6.489 -1.4533 -1.2080  1.0487
  311MOL0     H41977   9.569   9.346   6.518 -0.1531 -1.8616 -2.6564
  311MOL0     H41978   9.438   9.456   6.572 -0.5548 -0.9981  0.1365
  311MOL0     H41979   9.504   9.347   6.309 -1.3068 -0.8708  0.2371
  311MOL0     H41980   9.345   9.419   6.318  0.5433  1.6192 -0.5487
  311MOL0     H41981   9.667   9.713   6.286  1.4992 -1.1032  1.6957
  311MOL0     H41982   9.747   9.262   6.793 -1.2476 -1.8989  0.8553
  311MOL0     H41983   9.879   9.411   6.842 -1.8980 -3.3705  0.2465
  311MOL0     H41984   9.859   9.544   6.971 -3.6441  0.6130 -0.2231
  311MOL0     H41985   9.927   9.382   7.009 -0.0600 -1.0218 -0.2660
  312MOL0     O41986   0.509   2.570   3.485  0.5797 -0.3233  0.1648
  312MOL0     C41987   0.454   2.678   3.515  0.5714 -0.3268  0.0542
  312MOL0     O41988   0.472   2.745   3.636  0.1328 -0.2356  0.3719
  312MOL0     C41989   0.524   2.670   3.739  0.0222  1.0315  0.5105
  312MOL0     C41990   0.654   2.639   3.733 -1.1601 -0.8984  0.3131
  312MOL0     C41991   0.707   2.565   3.840 -0.1488 -0.4475  0.2767
  312MOL0     C41992   0.618   2.504   3.936 -1.0810  0.1530 -0.4652
  312MOL0     O41993   0.672   2.425   4.032 -0.1348 -0.2629  0.4443
  312MOL0     C41994   0.574   2.366   4.124  0.3347  0.3876  0.1021
  312MOL0     C41995   0.649   2.273   4.219  0.0640 -0.5903  0.0948
  312MOL0     C41996   0.767   2.340   4.293 -0.2985 -0.1281  0.5240
  312MOL0     C41997   0.827   2.252   4.395 -0.2299 -0.3433  0.9378
  312MOL0     C41998   0.950   2.312   4.472 -0.7011 -0.4522 -0.4163
  312MOL0     C41999   0.925   2.447   4.540 -0.4149  0.0250  1.0086
  312MOL0     C42000   1.021   2.471   4.655  0.3434  0.0212  0.2180
  312MOL0     C42001   1.143   2.554   4.616  0.5238 -0.1971  0.7021
  312MOL0     N42002   1.231   2.587   4.730 -0.7491 -0.0400  0.4497
  312MOL0     C42003   1.336   2.514   4.774  0.6329 -0.5150 -0.1155
  312MOL0     C42004   1.359   2.559   4.897  0.4091  0.0618 -0.7082
  312MOL0     C42005   1.481   2.515   4.986  0.3279 -0.0158  0.1148
  312MOL0     C42006   1.613   2.603   4.965  0.0642  0.5015  0.2169
  312MOL0     C42007   1.585   2.754   4.981  0.7271  0.3975  0.1916
  312MOL0     C42008   1.706   2.853   4.991  0.6186 -0.1630  0.3957
  312MOL0     O42009   1.753   2.867   4.857 -0.0011 -0.0176  0.1090
  312MOL0     C42010   1.863   2.944   4.835  0.2229 -1.0248 -0.8327
  312MOL0     C42011   1.905   2.970   4.705 -0.7322 -0.4075 -0.5070
  312MOL0     C42012   2.005   3.059   4.670 -0.2699  0.1061  0.0043
  312MOL0     C42013   2.066   3.135   4.772  0.0669  0.0430  0.8271
  312MOL0     C42014   2.167   3.229   4.732 -0.6739 -0.5446 -0.0695
  312MOL0     O42015   2.148   3.295   4.610  0.2148  0.1579  0.7001
  312MOL0     C42016   2.220   3.409   4.586  1.1553 -0.1457 -0.0388
  312MOL0     C42017   2.233   3.518   4.676 -0.3137  0.1674 -0.2003
  312MOL0     C42018   2.304   3.636   4.661  0.0731  0.1741 -0.3939
  312MOL0     C42019   2.349   3.657   4.528  0.0596 -0.3446 -0.5540
  312MOL0     O42020   2.418   3.769   4.491 -0.9460  0.6189 -0.0344
  312MOL0     C42021   2.491   3.848   4.583  0.0562  0.4142 -0.1669
  312MOL0     C42022   2.586   3.949   4.513 -0.3867  0.1873  0.8108
  312MOL0     C42023   2.526   4.036   4.406 -1.1487  0.6514 -0.1751
  312MOL0     C42024   2.415   4.125   4.455 -0.3677 -1.0332  0.2977
  312MOL0     C42025   2.391   4.238   4.353  0.6065 -0.0127  0.3097
  312MOL0     C42026   2.285   4.328   4.411  0.6007 -0.4681  0.2526
  312MOL0     C42027   2.139   4.268   4.401  0.3112 -0.0438 -0.5309
  312MOL0     C42028   2.031   4.346   4.485  0.5687 -0.0570  0.2194
  312MOL0    Cl42029   1.864   4.277   4.525 -0.3212  0.1203  0.4059
  312MOL0     C42030   2.340   3.553   4.436 -0.3565  1.2213 -0.8930
  312MOL0     C42031   2.271   3.433   4.459 -0.2393 -0.2587 -0.3919
  312MOL0     O42032   2.275   3.242   4.805  0.5340 -0.1239  0.4130
  312MOL0     C42033   2.032   3.102   4.905 -0.5938  0.1098  0.8945
  312MOL0     C42034   1.940   3.006   4.937 -0.7866 -0.5660 -0.9693
  312MOL0     N42035   1.249   2.638   4.931 -0.8349  0.3734 -1.5410
  312MOL0     N42036   1.182   2.666   4.833  1.3421 -0.6841 -0.2290
  312MOL0     C42037   0.485   2.532   3.932 -0.6838  0.5858  0.7770
  312MOL0     C42038   0.443   2.608   3.827  0.3202  0.4798 -0.0839
  312MOL0     C42039   0.378   2.747   3.409 -0.6916 -0.1878  0.2649
  312MOL0     C42040   0.423   2.730   3.275  0.0701 -0.2276  1.1478
  312MOL0     C42041   0.357   2.768   3.158  0.2612  0.1818 -0.5801
  312MOL0     C42042   0.249   2.861   3.173  0.3192 -0.0350  0.1756
  312MOL0     O42043   0.204   2.918   3.055  0.0290 -0.6929 -0.0383
  312MOL0     C42044   0.084   2.991   3.068  0.8636  1.0395 -0.4857
  312MOL0     C42045  -0.026   2.883   3.076  0.5297  0.2823  0.1891
  312MOL0     C42046  -0.041   2.823   2.936  0.0397  0.2024  0.0790
  312MOL0     C42047  -0.103   2.925   2.840  0.1633  0.6893 -0.1441
  312MOL0     C42048  -0.145   2.882   2.710  0.9764  0.4185  0.8544
  312MOL0     C42049  -0.196   2.851   2.600  0.4732  0.2106 -0.6485
  312MOL0     C42050   0.212   2.892   3.307  0.0086  0.6038 -0.0616
  312MOL0     C42051   0.275   2.843   3.427 -0.6639 -0.3759 -0.8540
  312MOL0     C42052   0.216   2.876   3.569 -0.2112 -0.3147  0.2974
  312MOL0     H42053   0.727   2.683   3.666 -0.5694  0.1425  1.5814
  312MOL0     H42054   0.814   2.549   3.834  0.3910  1.5601  2.8699
  312MOL0     H42055   0.525   2.438   4.191  0.8141 -1.2943  2.3905
  312MOL0     H42056   0.500   2.307   4.071  1.7957 -0.7141 -0.7816
  312MOL0     H42057   0.699   2.201   4.155  3.2397  1.1776  0.3574
  312MOL0     H42058   0.581   2.228   4.293  0.4041  3.2304  3.0721
  312MOL0     H42059   0.747   2.434   4.346 -0.7126 -0.0873  0.2989
  312MOL0     H42060   0.840   2.366   4.216 -1.2236  0.6402 -0.1205
  312MOL0     H42061   0.748   2.213   4.461 -0.8988  2.1418  1.7171
  312MOL0     H42062   0.863   2.175   4.326 -0.9885  0.5014 -0.4368
  312MOL0     H42063   0.979   2.233   4.541 -3.6111 -0.0856  1.4066
  312MOL0     H42064   1.038   2.324   4.408  0.5339 -1.2437  1.0943
  312MOL0     H42065   0.951   2.528   4.472  2.4134 -0.0434  1.8641
  312MOL0     H42066   0.826   2.449   4.586 -0.6595 -0.7010  0.5183
  312MOL0     H42067   1.053   2.374   4.693 -1.3967 -1.0301 -0.8605
  312MOL0     H42068   0.978   2.535   4.733  1.8550  0.3036  0.8583
  312MOL0     H42069   1.211   2.505   4.545 -0.6457  0.7129 -1.1424
  312MOL0     H42070   1.109   2.649   4.573 -1.9098 -1.0647  0.5550
  312MOL0     H42071   1.395   2.438   4.723 -0.0951 -0.7977 -0.5412
  312MOL0     H42072   1.473   2.527   5.094 -2.3759  1.6016 -0.1903
  312MOL0     H42073   1.496   2.408   4.968 -1.7137 -0.6825  1.9012
  312MOL0     H42074   1.693   2.577   5.035  1.7960  0.9435 -1.5190
  312MOL0     H42075   1.658   2.576   4.869  1.1917 -1.6140  1.2608
  312MOL0     H42076   1.541   2.774   5.080  5.2522  0.2524  2.4756
  312MOL0     H42077   1.509   2.782   4.907 -1.1948 -1.5218  1.3187
  312MOL0     H42078   1.781   2.815   5.061 -0.9805  1.7323  3.3463
  312MOL0     H42079   1.667   2.939   5.045  1.9572  0.4483  0.4114
  312MOL0     H42080   1.866   2.905   4.627 -0.5838 -3.1672  1.5715
  312MOL0     H42081   2.040   3.082   4.570 -1.3060  3.8020  0.3600
  312MOL0     H42082   2.194   3.509   4.777  0.5975  0.2179  0.1622
  312MOL0     H42083   2.317   3.716   4.733 -3.1640  0.4597 -0.0095
  312MOL0     H42084   2.418   3.919   4.624  1.5463  1.7484  0.2532
  312MOL0     H42085   2.543   3.778   4.649  1.4176 -1.3497 -2.9263
  312MOL0     H42086   2.622   4.010   4.596 -0.2224 -4.4059  4.5661
  312MOL0     H42087   2.672   3.890   4.480 -0.7863 -0.4470  0.8737
  312MOL0     H42088   2.612   4.095   4.371 -1.6435  0.5119 -1.7279
  312MOL0     H42089   2.489   3.971   4.327  0.4489 -2.8501  1.7455
  312MOL0     H42090   2.440   4.166   4.554 -0.2312 -2.1721  0.7538
  312MOL0     H42091   2.332   4.056   4.472 -2.4203  1.2379  0.0405
  312MOL0     H42092   2.362   4.193   4.257 -3.4535  0.1311  1.2689
  312MOL0     H42093   2.484   4.288   4.325  0.1284  0.3705 -0.6462
  312MOL0     H42094   2.312   4.341   4.516 -0.7011 -2.3595  0.8777
  312MOL0     H42095   2.274   4.424   4.360 -0.3730 -1.5360 -1.6833
  312MOL0     H42096   2.147   4.166   4.439 -0.1452 -0.4104 -1.4007
  312MOL0     H42097   2.106   4.254   4.298 -1.6554 -2.1373  0.3020
  312MOL0     H42098   2.070   4.381   4.581 -1.8916  4.9648 -0.2689
  312MOL0     H42099   2.005   4.438   4.433 -1.0280  0.6357  2.1337
  312MOL0     H42100   2.383   3.568   4.338  1.2024  2.2701 -0.0918
  312MOL0     H42101   2.260   3.355   4.383 -2.8167 -2.6989  2.2174
  312MOL0     H42102   2.089   3.138   4.990  2.3505 -0.3597 -0.7383
  312MOL0     H42103   1.911   2.984   5.039 -2.3036 -4.5258 -2.0841
  312MOL0     H42104   0.419   2.491   4.007  0.7598  0.7950  2.2115
  312MOL0     H42105   0.339   2.631   3.808  1.2664  2.2905 -4.2133
  312MOL0     H42106   0.521   2.692   3.249  0.0889  1.2226 -1.1995
  312MOL0     H42107   0.403   2.737   3.064 -0.8833 -3.4132 -0.0991
  312MOL0     H42108   0.079   3.064   2.987  1.7704 -1.0972 -2.5818
  312MOL0     H42109   0.083   3.049   3.160 -0.6277  0.1865  0.0673
  312MOL0     H42110  -0.124   2.920   3.105  1.6241  2.4794  1.3715
  312MOL0     H42111   0.002   2.808   3.150  1.4318  1.3294  0.9459
  312MOL0     H42112  -0.105   2.736   2.954 -0.2874  0.5329  0.5131
  312MOL0     H42113   0.055   2.786   2.898  1.0843  2.5369  0.2871
  312MOL0     H42114  -0.190   2.974   2.884  0.3008 -1.5851  2.9161
  312MOL0     H42115  -0.040   3.013   2.824  2.1264 -1.0004 -2.4259
  312MOL0     H42116  -0.242   2.820   2.508 -0.1758 -1.9433  0.3244
  312MOL0     H42117   0.127   2.957   3.328  2.0700  4.2930 -2.1002
  312MOL0     H42118   0.275   2.949   3.625  1.9753 -0.8668 -1.1438
  312MOL0     H42119   0.116   2.912   3.544  0.4541 -0.5055 -3.0440
  312MOL0     H42120   0.226   2.781   3.623  0.7376  0.5801  1.7767
  313MOL0     O42121  11.462   5.113   8.658 -0.0222 -0.0115 -0.2442
  313MOL0     C42122  11.579   5.077   8.632 -0.0404 -0.2181  0.2522
  313MOL0     O42123  11.677   5.175   8.618 -0.0939 -0.3450  0.6999
  313MOL0     C42124  11.645   5.309   8.620 -0.0173 -0.6074 -0.0672
  313MOL0     C42125  11.568   5.364   8.518 -0.1331  0.3734 -0.2013
  313MOL0     C42126  11.510   5.494   8.520 -0.3126  0.3146 -0.6336
  313MOL0     C42127  11.550   5.581   8.622  0.3992 -0.5542  1.2877
  313MOL0     O42128  11.504   5.711   8.614  0.9475  0.6908 -0.2153
  313MOL0     C42129  11.530   5.811   8.709 -0.5460  0.2339  0.3874
  313MOL0     C42130  11.445   5.935   8.675  0.3864 -0.8667 -0.2562
  313MOL0     C42131  11.466   5.993   8.534  0.6463  0.3484  0.1578
  313MOL0     C42132  11.450   6.135   8.518 -0.2839  0.2134 -0.7881
  313MOL0     C42133  11.511   6.183   8.386  0.4684  0.1330  0.1088
  313MOL0     C42134  11.403   6.184   8.285 -0.2152  1.2884 -0.8041
  313MOL0     C42135  11.447   6.202   8.141 -0.0898 -0.9485  0.3155
  313MOL0     C42136  11.547   6.313   8.120  0.1908  0.3384 -0.2205
  313MOL0     N42137  11.571   6.360   7.984  0.4512  0.2976 -0.2222
  313MOL0     C42138  11.478   6.384   7.890  0.0956 -0.7944 -0.5571
  313MOL0     C42139  11.552   6.393   7.780  0.2338 -0.0739  0.4399
  313MOL0     C42140  11.492   6.417   7.644  0.6615 -0.1680 -0.1058
  313MOL0     C42141  11.363   6.333   7.602 -0.6051 -0.5902 -0.4439
  313MOL0     C42142  11.398   6.185   7.592  0.1994 -1.0965  0.0098
  313MOL0     C42143  11.413   6.111   7.728  0.0196 -0.0624 -0.0828
  313MOL0     O42144  11.278   6.098   7.776  0.1712 -0.7633  0.0831
  313MOL0     C42145  11.237   6.024   7.880 -0.6045  0.4778  1.3020
  313MOL0     C42146  11.327   5.929   7.941  1.0560 -0.4576 -0.0454
  313MOL0     C42147  11.278   5.847   8.054 -0.0668 -0.4094  0.3862
  313MOL0     C42148  11.139   5.859   8.103  0.1226 -0.8130 -0.8251
  313MOL0     C42149  11.084   5.807   8.231 -0.4301 -0.3276 -0.3484
  313MOL0     O42150  11.173   5.737   8.311  0.5680 -0.3902  0.4419
  313MOL0     C42151  11.131   5.688   8.433 -0.1783  0.3787 -1.2508
  313MOL0     C42152  11.119   5.551   8.463 -0.7179 -0.3659 -0.5515
  313MOL0     C42153  11.093   5.510   8.591 -0.8513  0.4561 -1.7470
  313MOL0     C42154  11.062   5.601   8.693  0.1371 -0.7842 -1.0910
  313MOL0     O42155  11.019   5.582   8.830 -0.0451 -0.8203  0.2140
  313MOL0     C42156  10.971   5.448   8.864 -0.3349  0.5504 -0.1752
  313MOL0     C42157  10.886   5.445   8.993 -0.1366 -0.7019 -0.3780
  313MOL0     C42158  10.744   5.507   8.994  0.4745  0.0148 -0.0822
  313MOL0     C42159  10.683   5.500   9.136  0.4109  0.2693  0.6281
  313MOL0     C42160  10.614   5.367   9.173  0.7278  0.5994 -1.3313
  313MOL0     C42161  10.526   5.376   9.302  0.3125  0.1404 -0.4161
  313MOL0     C42162  10.450   5.248   9.309 -0.2085  0.4049 -0.0193
  313MOL0     C42163  10.539   5.126   9.327  0.7191 -0.6961 -1.1986
  313MOL0    Cl42164  10.414   5.012   9.391 -0.1566 -0.2562  0.2453
  313MOL0     C42165  11.080   5.729   8.667  0.0235  0.9147  0.4773
  313MOL0     C42166  11.106   5.779   8.537  0.6105  0.1523  0.1441
  313MOL0     O42167  10.968   5.819   8.257  0.2533  0.2468 -0.5557
  313MOL0     C42168  11.056   5.940   8.033  0.3113 -0.5530 -1.3791
  313MOL0     C42169  11.096   6.018   7.916 -0.9673  0.1994  0.5826
  313MOL0     N42170  11.693   6.372   7.813 -0.1313 -0.6032 -0.3460
  313MOL0     N42171  11.700   6.355   7.939  0.3131 -0.0827 -0.1333
  313MOL0     C42172  11.631   5.529   8.722  0.2159 -0.2460 -0.4590
  313MOL0     C42173  11.686   5.397   8.718  0.2621 -0.1934  0.1837
  313MOL0     C42174  11.634   4.933   8.630  0.5611 -0.7419  0.6170
  313MOL0     C42175  11.778   4.926   8.644 -0.0091 -0.1605  1.5340
  313MOL0     C42176  11.836   4.803   8.661  0.7949 -0.1687 -0.2212
  313MOL0     C42177  11.757   4.689   8.650  0.9123  0.1781  0.3114
  313MOL0     O42178  11.820   4.574   8.689  0.6477 -0.3581 -0.6914
  313MOL0     C42179  11.767   4.445   8.667  0.1563  0.6073 -1.2455
  313MOL0     C42180  11.876   4.346   8.643  0.3115  0.1146 -0.2748
  313MOL0     C42181  11.841   4.200   8.646  0.8188  0.3498  0.0426
  313MOL0     C42182  11.755   4.169   8.524 -0.2281  0.3962  0.2202
  313MOL0     C42183  11.663   4.055   8.551 -0.6918  1.0321 -0.9220
  313MOL0     C42184  11.593   3.957   8.581 -0.3426 -0.0922  0.0070
  313MOL0     C42185  11.622   4.691   8.618  0.1732  0.8447  0.5620
  313MOL0     C42186  11.556   4.814   8.621  0.2429  0.4808 -0.5103
  313MOL0     C42187  11.410   4.815   8.594  0.5792 -0.4415  0.1390
  313MOL0     H42188  11.539   5.291   8.443  0.5994 -0.1125 -0.0243
  313MOL0     H42189  11.440   5.523   8.443  1.2894  0.1758 -2.2065
  313MOL0     H42190  11.511   5.792   8.815 -0.8212  5.3919  1.5277
  313MOL0     H42191  11.636   5.837   8.702 -0.2274 -1.2022 -0.5180
  313MOL0     H42192  11.449   6.013   8.751  0.8785  0.3433 -1.4910
  313MOL0     H42193  11.350   5.882   8.677  0.9173 -1.8191  0.7419
  313MOL0     H42194  11.378   5.948   8.487 -0.3906  1.3383  1.0978
  313MOL0     H42195  11.552   5.953   8.480 -0.3587  1.9957 -2.9569
  313MOL0     H42196  11.345   6.163   8.531 -0.7659 -1.1828 -1.4388
  313MOL0     H42197  11.511   6.182   8.595  1.2805 -1.0302 -1.2007
  313MOL0     H42198  11.548   6.285   8.397  3.0207 -0.8742  1.7804
  313MOL0     H42199  11.595   6.127   8.345  0.4200  1.7978 -2.5083
  313MOL0     H42200  11.371   6.080   8.287  1.0489  0.8808 -1.1158
  313MOL0     H42201  11.313   6.241   8.311  1.4283  3.1112  1.2084
  313MOL0     H42202  11.355   6.216   8.083 -1.1610  2.5064  2.5269
  313MOL0     H42203  11.496   6.113   8.100  1.8709  1.0033 -1.8758
  313MOL0     H42204  11.513   6.402   8.175 -2.6861  0.3925 -1.8898
  313MOL0     H42205  11.633   6.268   8.171 -2.3958 -3.4519  1.2838
  313MOL0     H42206  11.371   6.373   7.897  0.1288 -2.4918 -1.8866
  313MOL0     H42207  11.460   6.521   7.645 -1.0224 -0.5854  3.2611
  313MOL0     H42208  11.565   6.397   7.565  2.9430  0.1837  1.7890
  313MOL0     H42209  11.275   6.352   7.664 -0.0852  2.0449 -0.3815
  313MOL0     H42210  11.344   6.371   7.501  1.8154  0.5568 -0.5506
  313MOL0     H42211  11.490   6.168   7.536  0.0254 -1.8356 -0.0632
  313MOL0     H42212  11.321   6.130   7.537  1.2041  0.0225 -2.6815
  313MOL0     H42213  11.489   6.145   7.799  1.2153 -1.1617 -0.7953
  313MOL0     H42214  11.450   6.010   7.710 -0.2366 -0.3137  0.7694
  313MOL0     H42215  11.433   5.934   7.919  1.7233  0.4456  3.0464
  313MOL0     H42216  11.343   5.779   8.109 -1.5275 -0.5069  2.0577
  313MOL0     H42217  11.131   5.474   8.388 -1.0405  1.3933 -2.5085
  313MOL0     H42218  11.081   5.404   8.613 -0.4891  0.4712 -1.4702
  313MOL0     H42219  10.912   5.414   8.778  0.1533 -2.5889  0.6273
  313MOL0     H42220  11.049   5.374   8.881 -2.0353 -2.4786 -4.0695
  313MOL0     H42221  10.871   5.338   9.008 -1.3163 -0.9238 -2.8045
  313MOL0     H42222  10.945   5.492   9.072  1.3846 -1.5997 -0.9429
  313MOL0     H42223  10.763   5.606   8.952  0.6405 -1.4254 -3.7723
  313MOL0     H42224  10.684   5.457   8.917  2.1927 -2.6623  0.1854
  313MOL0     H42225  10.597   5.567   9.134 -1.4358 -1.9905  0.4603
  313MOL0     H42226  10.749   5.532   9.217  2.8953  1.8668 -1.8495
  313MOL0     H42227  10.700   5.302   9.189  1.6828  1.3316 -3.2008
  313MOL0     H42228  10.554   5.323   9.093 -1.8114  2.1227 -0.4036
  313MOL0     H42229  10.586   5.395   9.392  0.3744  2.1398 -0.8407
  313MOL0     H42230  10.449   5.452   9.291  3.0460  2.9476 -1.6070
  313MOL0     H42231  10.386   5.216   9.226  1.8834 -2.2287 -0.7867
  313MOL0     H42232  10.376   5.257   9.389 -0.1101 -0.3843  0.1753
  313MOL0     H42233  10.597   5.089   9.243  0.0327 -1.1304 -1.4887
  313MOL0     H42234  10.606   5.147   9.412 -2.0611 -2.1458  1.5625
  313MOL0     H42235  11.049   5.804   8.739 -3.3163  0.4100 -0.2657
  313MOL0     H42236  11.128   5.883   8.519  0.6510  0.7651  3.1555
  313MOL0     H42237  10.953   5.962   8.060  0.0799 -1.1134 -1.7810
  313MOL0     H42238  11.030   6.070   7.847 -0.2412 -1.3808 -1.3870
  313MOL0     H42239  11.662   5.594   8.804  1.6369 -0.5441 -0.7333
  313MOL0     H42240  11.738   5.359   8.805  1.3497 -0.2586 -0.4865
  313MOL0     H42241  11.845   5.011   8.645 -0.9302  0.6668 -0.8180
  313MOL0     H42242  11.942   4.801   8.684  0.7815  2.9972  0.6355
  313MOL0     H42243  11.703   4.436   8.579  0.8174 -3.8119 -1.4720
  313MOL0     H42244  11.712   4.410   8.755 -0.2451 -1.6869 -2.3433
  313MOL0     H42245  11.950   4.354   8.724  1.0424 -1.1773 -0.7847
  313MOL0     H42246  11.929   4.388   8.557 -1.1135  0.0661 -1.1898
  313MOL0     H42247  11.792   4.179   8.742 -1.9026  0.3761 -1.2288
  313MOL0     H42248  11.928   4.133   8.645 -1.5358 -2.9963  0.3598
  313MOL0     H42249  11.694   4.250   8.483 -2.6061 -0.2390  2.2380
  313MOL0     H42250  11.819   4.142   8.440 -2.9834  0.8457 -2.1581
  313MOL0     H42251  11.538   3.871   8.610  1.8570 -1.8254 -0.6409
  313MOL0     H42252  11.566   4.602   8.590  2.5449 -0.4754 -0.3005
  313MOL0     H42253  11.388   4.850   8.492  4.0116  1.9161  0.0485
  313MOL0     H42254  11.364   4.720   8.622  0.8934 -0.3549  0.9599
  313MOL0     H42255  11.359   4.885   8.660  1.0085  0.2260 -0.2233
  314MOL0     O42256   1.753  11.064   3.758 -0.7106  1.1287 -0.6481
  314MOL0     C42257   1.748  10.969   3.832 -0.6651 -0.3742  0.0466
  314MOL0     O42258   1.839  10.931   3.923 -0.3331  0.2555  0.6326
  314MOL0     C42259   1.968  10.994   3.921  0.2561 -0.7765  0.2304
  314MOL0     C42260   2.026  11.042   3.800  0.7892 -0.8343 -0.0708
  314MOL0     C42261   2.152  11.112   3.810 -0.0433  0.3694 -0.5387
  314MOL0     C42262   2.226  11.125   3.928  0.6174  0.2562  0.4311
  314MOL0     O42263   2.334  11.211   3.953  0.0939  0.3445 -0.3845
  314MOL0     C42264   2.301  11.341   3.909 -0.0761  0.3842 -0.2086
  314MOL0     C42265   2.393  11.456   3.950  0.6195 -0.1088  0.7189
  314MOL0     C42266   2.376  11.497   4.096  0.3322  0.9150 -0.0645
  314MOL0     C42267   2.426  11.391   4.203  0.0595  0.5665 -0.6795
  314MOL0     C42268   2.433  11.436   4.351  0.8137 -0.6698 -0.2258
  314MOL0     C42269   2.295  11.477   4.406  0.5235 -0.0046 -0.0616
  314MOL0     C42270   2.293  11.515   4.552 -1.1549  0.5295  0.1422
  314MOL0     C42271   2.375  11.642   4.578 -0.3535  0.1294  0.2863
  314MOL0     N42272   2.521  11.616   4.610 -0.4221 -0.5517 -0.1523
  314MOL0     C42273   2.630  11.683   4.557  1.1903 -0.8303  0.0283
  314MOL0     C42274   2.741  11.641   4.618 -0.0984 -0.0462 -0.4391
  314MOL0     C42275   2.877  11.676   4.572 -0.5039  0.6451  0.7362
  314MOL0     C42276   2.993  11.582   4.591 -0.3899 -0.1621  0.0087
  314MOL0     C42277   2.953  11.441   4.535 -0.8366  0.0532  0.8901
  314MOL0     C42278   3.073  11.345   4.549 -0.4294  0.1524  0.5768
  314MOL0     O42279   3.191  11.392   4.492 -0.4383  0.3585 -0.1779
  314MOL0     C42280   3.305  11.314   4.480  0.5556  0.3229  0.0609
  314MOL0     C42281   3.311  11.178   4.527 -0.3640 -0.0199 -0.6286
  314MOL0     C42282   3.431  11.113   4.512  0.2790 -0.0196  0.5001
  314MOL0     C42283   3.546  11.173   4.450 -0.3882 -0.2492 -0.3552
  314MOL0     C42284   3.677  11.109   4.428 -0.2166  0.2456  0.0182
  314MOL0     O42285   3.783  11.180   4.376  0.1001  0.2886 -0.7735
  314MOL0     C42286   3.874  11.102   4.316 -0.2483 -0.8149  0.4809
  314MOL0     C42287   3.847  11.079   4.176 -0.2221  0.2333 -1.1764
  314MOL0     C42288   3.923  10.989   4.099 -0.1023 -0.6326  0.0080
  314MOL0     C42289   4.021  10.910   4.161  0.8568 -0.8049 -0.3068
  314MOL0     O42290   4.106  10.816   4.103  0.2940 -0.5381  0.2633
  314MOL0     C42291   4.042  10.745   3.989 -0.8704 -0.3256 -0.3974
  314MOL0     C42292   4.125  10.611   3.961  0.7082 -0.1396  0.2031
  314MOL0     C42293   4.277  10.626   3.939  0.2764  0.5786  0.5313
  314MOL0     C42294   4.330  10.492   3.907  0.3951 -0.2626  0.0699
  314MOL0     C42295   4.486  10.486   3.907 -0.7127  0.5235  0.1379
  314MOL0     C42296   4.560  10.341   3.911 -0.3438 -0.0232  0.4452
  314MOL0     C42297   4.717  10.342   3.903  0.5246  0.0613 -0.2471
  314MOL0     C42298   4.781  10.430   3.998  0.1240  0.3497 -0.0608
  314MOL0    Cl42299   4.771  10.347   4.153 -0.3801 -0.1235  0.0886
  314MOL0     C42300   4.045  10.939   4.296 -0.7147  0.4230 -0.5639
  314MOL0     C42301   3.972  11.033   4.376 -0.4424  0.3053  0.0839
  314MOL0     O42302   3.684  10.984   4.454 -0.6985 -0.6387 -0.2796
  314MOL0     C42303   3.543  11.311   4.412 -0.2722 -0.5038 -0.1306
  314MOL0     C42304   3.424  11.383   4.430 -0.3327  0.6016 -0.4308
  314MOL0     N42305   2.700  11.558   4.724  0.0634 -0.2067  0.6131
  314MOL0     N42306   2.569  11.549   4.715  0.4416  0.0672 -0.6305
  314MOL0     C42307   2.174  11.062   4.040 -0.0720  0.8299 -0.1746
  314MOL0     C42308   2.051  10.991   4.039  0.2860 -1.1095  0.2011
  314MOL0     C42309   1.625  10.887   3.832  0.2025 -0.8466  0.5373
  314MOL0     C42310   1.626  10.768   3.756 -0.3323  0.1108 -0.3423
  314MOL0     C42311   1.515  10.676   3.751  0.0987 -0.0433 -1.3205
  314MOL0     C42312   1.398  10.724   3.818 -0.9011  1.1015 -0.1803
  314MOL0     O42313   1.287  10.649   3.839  0.0520 -0.2904  0.0356
  314MOL0     C42314   1.273  10.511   3.799 -0.5363 -0.1200  0.3454
  314MOL0     C42315   1.131  10.460   3.820 -0.6586  0.5401  0.5638
  314MOL0     C42316   1.120  10.304   3.816  0.6531  0.8689 -0.8964
  314MOL0     C42317   1.164  10.236   3.943 -0.0510  0.1040  0.2400
  314MOL0     C42318   1.310  10.220   3.942 -0.6244  0.3795 -0.6912
  314MOL0     C42319   1.432  10.207   3.961  0.2624 -0.4178  0.2905
  314MOL0     C42320   1.396  10.842   3.877 -0.6511 -0.7651 -0.5208
  314MOL0     C42321   1.506  10.928   3.891  0.3356  0.1760  0.4321
  314MOL0     C42322   1.500  11.053   3.975 -0.0422 -0.7069 -1.4620
  314MOL0     H42323   1.980  11.021   3.704  0.9516 -1.0054 -0.1116
  314MOL0     H42324   2.185  11.176   3.729  4.1983  0.7875  1.2750
  314MOL0     H42325   2.285  11.345   3.801 -0.9339 -0.1290 -0.1157
  314MOL0     H42326   2.200  11.360   3.947  0.3863  1.2616  0.6018
  314MOL0     H42327   2.354  11.533   3.884  0.6814 -1.2954 -0.7398
  314MOL0     H42328   2.496  11.428   3.926  0.8139  0.7143  0.5576
  314MOL0     H42329   2.270  11.518   4.112  0.6990  2.9739 -0.0767
  314MOL0     H42330   2.433  11.587   4.120  2.0832 -0.7791  2.6620
  314MOL0     H42331   2.362  11.303   4.192 -0.2351  0.5781  0.8163
  314MOL0     H42332   2.531  11.368   4.183  0.0873 -0.9501  1.0125
  314MOL0     H42333   2.475  11.358   4.415  2.3899 -0.4869 -0.9916
  314MOL0     H42334   2.496  11.525   4.355  1.4661 -1.0421 -1.7296
  314MOL0     H42335   2.258  11.566   4.353 -2.7659 -3.0370 -3.4254
  314MOL0     H42336   2.225  11.394   4.397  1.0863 -0.2114 -3.7440
  314MOL0     H42337   2.330  11.432   4.612 -0.4555  1.2803  0.7688
  314MOL0     H42338   2.186  11.524   4.576 -0.7376 -0.2507  2.4963
  314MOL0     H42339   2.356  11.710   4.495 -2.5503  4.2083  3.7039
  314MOL0     H42340   2.326  11.679   4.668 -1.4607  0.1819 -0.3294
  314MOL0     H42341   2.616  11.763   4.485  1.0673  0.0227  0.9654
  314MOL0     H42342   2.859  11.707   4.469  1.0723 -0.5915  0.0458
  314MOL0     H42343   2.910  11.760   4.634 -0.1131  1.0637 -0.0208
  314MOL0     H42344   3.084  11.616   4.542  0.3626  1.7044  2.5064
  314MOL0     H42345   3.010  11.574   4.699 -1.8660 -0.8467  0.2158
  314MOL0     H42346   2.923  11.449   4.430 -1.3214  1.5652  1.1298
  314MOL0     H42347   2.866  11.395   4.582 -0.8033 -0.7090  0.2359
  314MOL0     H42348   3.056  11.246   4.505  0.3774  0.6422 -0.8970
  314MOL0     H42349   3.071  11.334   4.658 -3.0964 -0.5971  0.5162
  314MOL0     H42350   3.220  11.136   4.567 -1.1622  2.7350  0.7532
  314MOL0     H42351   3.429  11.006   4.532 -0.7334 -0.2280 -0.5854
  314MOL0     H42352   3.768  11.136   4.128 -0.2291  0.7038 -0.6147
  314MOL0     H42353   3.923  10.982   3.991 -1.3989 -0.2430 -0.0433
  314MOL0     H42354   3.937  10.715   4.001  0.1698 -4.3925 -0.2965
  314MOL0     H42355   4.042  10.816   3.906  3.3423  0.3638 -0.0428
  314MOL0     H42356   4.099  10.538   4.039 -0.3546  0.7586  0.7153
  314MOL0     H42357   4.081  10.567   3.871 -2.9737 -1.1191  2.2294
  314MOL0     H42358   4.297  10.694   3.856  0.2509  0.3231  0.3146
  314MOL0     H42359   4.337  10.676   4.016  3.3625  1.7573 -2.3678
  314MOL0     H42360   4.288  10.450   3.815 -0.6559  1.6415 -0.3636
  314MOL0     H42361   4.296  10.422   3.984 -1.1685 -1.1562 -1.3578
  314MOL0     H42362   4.526  10.543   3.991 -0.9045 -1.8228  1.9002
  314MOL0     H42363   4.517  10.536   3.815  4.6491  2.0642  2.4210
  314MOL0     H42364   4.530  10.328   4.016 -0.1856  1.4147  0.6839
  314MOL0     H42365   4.517  10.287   3.827  3.4627 -0.6446 -1.3051
  314MOL0     H42366   4.743  10.382   3.805  1.1875 -0.5179 -0.3216
  314MOL0     H42367   4.763  10.244   3.919  2.0837  0.9009  0.7413
  314MOL0     H42368   4.885  10.446   3.966 -0.3006  5.6981  0.2077
  314MOL0     H42369   4.724  10.524   3.991 -2.2357 -1.1473 -3.7971
  314MOL0     H42370   4.131  10.885   4.335  0.5302  3.0679  0.5917
  314MOL0     H42371   3.988  11.062   4.479 -0.4064 -0.0290  0.1755
  314MOL0     H42372   3.628  11.375   4.392 -0.8907 -0.0337 -1.3525
  314MOL0     H42373   3.410  11.487   4.403 -0.0514  0.4424 -1.2156
  314MOL0     H42374   2.244  11.058   4.123  0.3803  1.7054 -0.5062
  314MOL0     H42375   2.020  10.942   4.130 -1.7958  0.4300  0.3944
  314MOL0     H42376   1.715  10.732   3.705 -1.9599 -0.7186 -2.7840
  314MOL0     H42377   1.529  10.574   3.717  2.6083  0.9145 -3.5255
  314MOL0     H42378   1.351  10.448   3.841 -1.5865 -1.6921  0.0319
  314MOL0     H42379   1.289  10.500   3.692 -1.5696 -1.5250  0.3138
  314MOL0     H42380   1.061  10.492   3.743 -1.2214  0.6214  1.0975
  314MOL0     H42381   1.096  10.487   3.920  1.4763  0.7189  1.3129
  314MOL0     H42382   1.178  10.267   3.731  2.2556 -0.2503  0.6158
  314MOL0     H42383   1.011  10.297   3.806  0.2517  1.1089  2.2555
  314MOL0     H42384   1.141  10.305   4.026 -1.3628  0.5184 -0.4364
  314MOL0     H42385   1.126  10.136   3.968  1.2559 -0.4357  0.1102
  314MOL0     H42386   1.535  10.179   3.973 -0.0858 -0.9559  2.4763
  314MOL0     H42387   1.300  10.864   3.923 -0.4195  0.5022 -0.6114
  314MOL0     H42388   1.488  11.144   3.916 -0.8952  2.1344  2.6470
  314MOL0     H42389   1.433  11.049   4.062  3.7444 -1.2468  1.7727
  314MOL0     H42390   1.598  11.071   4.022 -1.0359  1.4981 -0.0888
  315MOL0     O42391   7.964   4.752   5.634 -0.0445  0.8585 -0.1406
  315MOL0     C42392   7.850   4.730   5.581 -0.2900 -0.7202 -0.0957
  315MOL0     O42393   7.737   4.711   5.653  0.3635 -0.4965  0.2577
  315MOL0     C42394   7.739   4.677   5.788  1.0232  0.1071  0.2000
  315MOL0     C42395   7.763   4.780   5.879 -0.0991  0.5212 -0.3316
  315MOL0     C42396   7.735   4.759   6.015  0.9206  0.0618 -0.0314
  315MOL0     C42397   7.671   4.638   6.062 -0.3858  0.3329 -0.2634
  315MOL0     O42398   7.651   4.623   6.197 -0.6208  0.1331  0.1137
  315MOL0     C42399   7.681   4.492   6.254 -0.4549  0.0699  0.5030
  315MOL0     C42400   7.662   4.502   6.405 -0.3920 -0.4186 -0.1364
  315MOL0     C42401   7.520   4.497   6.454 -0.6219  0.2518  0.0210
  315MOL0     C42402   7.436   4.373   6.411  0.2652  0.1150 -0.1210
  315MOL0     C42403   7.318   4.359   6.500 -0.4080 -0.8313  0.4142
  315MOL0     C42404   7.212   4.269   6.433 -0.3447 -0.7134 -0.2413
  315MOL0     C42405   7.108   4.204   6.519  0.0710  0.4283  0.5668
  315MOL0     C42406   7.005   4.145   6.418 -0.5802  1.2535 -0.5298
  315MOL0     N42407   6.912   4.058   6.498  0.0744  0.9423  0.3092
  315MOL0     C42408   6.790   4.089   6.546  0.4613  0.2196  0.3237
  315MOL0     C42409   6.745   3.967   6.597  0.5382 -0.4589 -0.2523
  315MOL0     C42410   6.605   3.968   6.664  0.6054  0.0858 -0.6787
  315MOL0     C42411   6.623   3.944   6.820 -0.3490 -0.1057  0.5676
  315MOL0     C42412   6.749   3.991   6.888  0.3530 -0.8072 -0.3062
  315MOL0     C42413   6.729   4.009   7.034 -0.7461 -0.0080  0.4571
  315MOL0     O42414   6.640   4.127   7.053 -0.5464  0.3455 -0.6324
  315MOL0     C42415   6.611   4.175   7.179  0.6956 -0.2282  0.0421
  315MOL0     C42416   6.557   4.093   7.280  0.3231 -0.2498  0.6517
  315MOL0     C42417   6.558   4.130   7.413 -0.7267 -0.1296  0.0158
  315MOL0     C42418   6.577   4.265   7.452 -0.5659  0.7833  1.2764
  315MOL0     C42419   6.578   4.308   7.587 -0.6824 -0.6377  1.0599
  315MOL0     O42420   6.637   4.427   7.619  0.2179 -0.4145  0.7203
  315MOL0     C42421   6.662   4.467   7.743  0.0326 -0.0016  0.6382
  315MOL0     C42422   6.668   4.382   7.854 -0.9507  1.1056  0.1065
  315MOL0     C42423   6.677   4.434   7.979  0.2614  1.0399 -0.3632
  315MOL0     C42424   6.692   4.567   8.000  0.0458 -0.2548 -0.2406
  315MOL0     O42425   6.732   4.613   8.124  0.8052  0.6976 -0.8184
  315MOL0     C42426   6.646   4.692   8.199  0.2937 -0.1852  0.0316
  315MOL0     C42427   6.663   4.847   8.166  0.0571 -0.8662  0.1830
  315MOL0     C42428   6.569   4.943   8.260  1.0250 -0.0907  0.3338
  315MOL0     C42429   6.422   4.909   8.248 -0.9255  0.1755  0.1052
  315MOL0     C42430   6.325   5.013   8.312  0.2433  0.0773  0.2954
  315MOL0     C42431   6.335   5.025   8.465 -0.1249  0.1674 -0.8548
  315MOL0     C42432   6.316   4.889   8.540 -0.5063  0.0570  0.1785
  315MOL0     C42433   6.216   4.917   8.650 -0.2684  0.6269 -0.9240
  315MOL0    Cl42434   6.205   4.780   8.747  0.2425  0.0800 -0.1520
  315MOL0     C42435   6.679   4.656   7.885 -0.2026 -1.0752 -0.4566
  315MOL0     C42436   6.650   4.601   7.756 -0.9299 -0.8641  0.1376
  315MOL0     O42437   6.521   4.237   7.664 -0.0363 -0.0157 -1.0088
  315MOL0     C42438   6.623   4.352   7.351 -0.2170 -0.2334 -0.0641
  315MOL0     C42439   6.637   4.301   7.215  1.2796 -0.5683 -0.7892
  315MOL0     N42440   6.841   3.869   6.585  0.6161  0.4547  0.1027
  315MOL0     N42441   6.939   3.928   6.521 -0.7690 -0.3800 -0.0844
  315MOL0     C42442   7.644   4.546   5.963  0.2987  0.2489 -0.0555
  315MOL0     C42443   7.678   4.559   5.835 -0.3326  0.0641  0.0831
  315MOL0     C42444   7.852   4.712   5.436  0.3334 -0.3721 -0.8804
  315MOL0     C42445   7.727   4.701   5.377 -0.7130  0.0481 -0.0535
  315MOL0     C42446   7.712   4.692   5.238 -1.3830 -0.8543  1.4373
  315MOL0     C42447   7.826   4.683   5.150  0.3963  0.0530 -0.0130
  315MOL0     O42448   7.791   4.689   5.023 -0.2881  0.4976 -0.0295
  315MOL0     C42449   7.860   4.605   4.941  0.5017  0.4133  0.7108
  315MOL0     C42450   7.815   4.447   4.938  0.1254 -0.0886  0.2263
  315MOL0     C42451   7.912   4.352   5.005  0.2555 -0.8744 -0.1347
  315MOL0     C42452   7.844   4.218   5.032  0.1723  0.9077  0.4671
  315MOL0     C42453   7.813   4.127   4.919  0.5032 -0.1390 -1.0601
  315MOL0     C42454   7.797   4.062   4.818 -0.4563 -1.0265  0.5822
  315MOL0     C42455   7.949   4.694   5.206  0.3584 -0.3694  0.7347
  315MOL0     C42456   7.966   4.708   5.349  0.4451 -0.2822  0.4499
  315MOL0     C42457   8.116   4.721   5.398  0.8689 -0.3389  0.2745
  315MOL0     H42458   7.812   4.871   5.848  0.8126  0.1897  0.0852
  315MOL0     H42459   7.755   4.845   6.078 -1.6291 -1.0303  2.5071
  315MOL0     H42460   7.616   4.419   6.205 -1.0471  0.1818  1.1075
  315MOL0     H42461   7.785   4.467   6.231 -0.9105  0.5768 -2.4966
  315MOL0     H42462   7.710   4.591   6.447 -2.6125  1.9813 -2.3334
  315MOL0     H42463   7.710   4.412   6.444 -0.0315  0.3440  1.2423
  315MOL0     H42464   7.478   4.589   6.412 -0.7671  0.8101  1.3405
  315MOL0     H42465   7.519   4.510   6.563 -3.2096  1.4388 -0.0563
  315MOL0     H42466   7.392   4.389   6.312 -1.5123 -0.2055  0.5792
  315MOL0     H42467   7.492   4.279   6.408  0.5481  0.3112 -1.3052
  315MOL0     H42468   7.338   4.326   6.602 -2.3685  0.0550  1.1578
  315MOL0     H42469   7.267   4.456   6.508  0.9410  0.0927 -1.4490
  315MOL0     H42470   7.156   4.341   6.371  0.4334 -0.8413 -1.1235
  315MOL0     H42471   7.253   4.191   6.369 -0.9318 -2.5648  1.5372
  315MOL0     H42472   7.061   4.290   6.567  0.5609  1.6829 -1.0956
  315MOL0     H42473   7.126   4.126   6.594  0.9576  1.1933  1.1612
  315MOL0     H42474   6.957   4.231   6.370 -1.5839  2.6269  2.6842
  315MOL0     H42475   7.044   4.078   6.341 -1.8875  0.0964 -0.2285
  315MOL0     H42476   6.740   4.186   6.543  2.7489  1.4496  0.1897
  315MOL0     H42477   6.535   4.051   6.648 -0.8696 -1.3565 -2.1099
  315MOL0     H42478   6.551   3.879   6.628 -1.0284 -0.1243  1.9880
  315MOL0     H42479   6.538   3.992   6.869  0.5554  1.5588  0.5853
  315MOL0     H42480   6.613   3.839   6.849  1.7859 -0.4368  0.2489
  315MOL0     H42481   6.777   4.092   6.854 -0.7278 -0.0879  0.8631
  315MOL0     H42482   6.827   3.916   6.874 -0.3702 -1.4875 -0.7932
  315MOL0     H42483   6.827   4.028   7.078 -2.2344  0.2163  3.9883
  315MOL0     H42484   6.693   3.918   7.083 -0.9092  0.1684  0.6633
  315MOL0     H42485   6.522   3.995   7.248  3.3537 -1.0510 -0.5288
  315MOL0     H42486   6.528   4.056   7.487 -0.1102  0.3285  0.7485
  315MOL0     H42487   6.668   4.274   7.837 -4.5115  0.5570  2.4733
  315MOL0     H42488   6.685   4.358   8.056  0.1723 -2.7524 -3.7801
  315MOL0     H42489   6.546   4.661   8.168 -0.0477  0.5131  0.4178
  315MOL0     H42490   6.669   4.672   8.304 -0.1802  1.9065  0.5751
  315MOL0     H42491   6.771   4.868   8.169 -0.2863  1.1077 -0.1248
  315MOL0     H42492   6.636   4.868   8.062  1.5918  3.0176  0.4000
  315MOL0     H42493   6.592   4.930   8.366 -0.7423  1.5988  0.9839
  315MOL0     H42494   6.577   5.048   8.232 -6.2484  1.4327  2.0958
  315MOL0     H42495   6.402   4.808   8.283 -1.1232 -0.1976 -1.0208
  315MOL0     H42496   6.399   4.901   8.141  2.1049  1.0379 -0.7138
  315MOL0     H42497   6.229   4.972   8.280 -0.8076  2.0853  0.7789
  315MOL0     H42498   6.332   5.115   8.274 -1.6507  0.3535  0.6133
  315MOL0     H42499   6.426   5.068   8.507 -1.1115  0.8475  0.6508
  315MOL0     H42500   6.246   5.083   8.492 -2.2429 -3.0823 -0.1637
  315MOL0     H42501   6.416   4.856   8.570  0.0913  0.2527 -1.4973
  315MOL0     H42502   6.260   4.816   8.481 -0.4111 -0.5055  0.7699
  315MOL0     H42503   6.244   4.991   8.726  3.4676 -0.9250 -0.5510
  315MOL0     H42504   6.114   4.933   8.616  0.3205  0.2450 -3.0455
  315MOL0     H42505   6.693   4.763   7.891  0.4288 -1.1694 -0.1118
  315MOL0     H42506   6.633   4.654   7.663  1.9740 -1.8272 -1.0415
  315MOL0     H42507   6.660   4.452   7.371  2.6520 -0.6882 -2.4822
  315MOL0     H42508   6.674   4.372   7.142 -3.5941  0.5467 -2.5381
  315MOL0     H42509   7.585   4.459   5.988  1.7255 -1.1015 -1.1450
  315MOL0     H42510   7.652   4.471   5.778 -2.4661 -1.5624  3.2180
  315MOL0     H42511   7.639   4.708   5.440 -0.3889 -0.0327  0.4132
  315MOL0     H42512   7.615   4.673   5.195 -1.7720 -0.7372  2.2469
  315MOL0     H42513   7.969   4.605   4.952  0.7210  0.5025 -1.1695
  315MOL0     H42514   7.838   4.643   4.841 -0.7929 -0.0283  0.8052
  315MOL0     H42515   7.812   4.424   4.831 -1.4337 -0.3840  0.3137
  315MOL0     H42516   7.716   4.450   4.984 -1.4118  1.6180 -2.8744
  315MOL0     H42517   7.943   4.397   5.100 -1.3543  1.8429 -0.7874
  315MOL0     H42518   8.002   4.326   4.949 -0.0125  0.9271 -1.5050
  315MOL0     H42519   7.927   4.163   5.078 -0.4119 -1.0354 -0.6603
  315MOL0     H42520   7.765   4.220   5.108 -2.0425  1.3567 -1.7242
  315MOL0     H42521   7.787   3.994   4.736 -2.9283  0.5080 -0.5124
  315MOL0     H42522   8.042   4.701   5.149  0.1954  0.7169  0.5785
  315MOL0     H42523   8.150   4.643   5.467  3.0031  0.9657  0.7923
  315MOL0     H42524   8.186   4.705   5.316  2.3003 -1.6947  1.7039
  315MOL0     H42525   8.128   4.814   5.453  1.2602 -1.6093  2.4802
  316MOL0     O42526   4.796  11.024   8.469  0.7889  0.5030 -0.3841
  316MOL0     C42527   4.899  10.975   8.494  0.4554 -0.8878 -0.8675
  316MOL0     O42528   4.925  10.847   8.472 -0.5816 -0.4459 -0.2841
  316MOL0     C42529   4.830  10.753   8.447 -0.5623 -0.3054 -0.0896
  316MOL0     C42530   4.879  10.637   8.395  0.0747  0.9804 -0.4146
  316MOL0     C42531   4.798  10.531   8.353 -0.1276  0.3310 -0.1514
  316MOL0     C42532   4.663  10.533   8.380 -0.6455 -0.0464  1.0087
  316MOL0     O42533   4.601  10.413   8.339  0.5486 -0.2273  0.2469
  316MOL0     C42534   4.553  10.428   8.205  0.1623 -0.3031  0.1919
  316MOL0     C42535   4.558  10.292   8.131 -0.4486  0.6386 -0.3052
  316MOL0     C42536   4.461  10.184   8.180  1.1589 -0.0160 -0.4112
  316MOL0     C42537   4.311  10.231   8.159  0.2497  0.4660 -0.3824
  316MOL0     C42538   4.221  10.114   8.175 -0.1443  1.6018  0.6616
  316MOL0     C42539   4.064  10.135   8.170 -0.5762  0.0284  0.4937
  316MOL0     C42540   4.018  10.253   8.245  0.7345  0.0698  0.7321
  316MOL0     C42541   4.045  10.234   8.390 -0.0986 -0.1780 -0.3569
  316MOL0     N42542   4.005  10.356   8.460 -0.2448  1.0849 -0.6432
  316MOL0     C42543   4.097  10.454   8.478  0.5085 -0.5588 -0.6174
  316MOL0     C42544   4.026  10.541   8.561 -0.1675  0.0121 -0.8428
  316MOL0     C42545   4.064  10.679   8.633 -0.8921  0.0230  0.8169
  316MOL0     C42546   4.088  10.679   8.787 -0.0247  1.3767 -0.9661
  316MOL0     C42547   4.120  10.813   8.848 -0.4883 -0.1056 -0.6351
  316MOL0     C42548   4.179  10.805   8.993  0.4980 -0.1226  0.6880
  316MOL0     O42549   4.183  10.942   9.042  0.8063  0.2492 -0.1046
  316MOL0     C42550   4.207  10.957   9.181 -0.4936  0.0990 -0.1978
  316MOL0     C42551   4.241  10.844   9.269 -0.2868  0.2336 -0.2294
  316MOL0     C42552   4.263  10.875   9.411 -0.0048 -1.1173  0.2006
  316MOL0     C42553   4.275  11.014   9.449  0.5329  1.2331  0.0563
  316MOL0     C42554   4.308  11.055   9.586  0.0481  0.0177 -0.2304
  316MOL0     O42555   4.337  10.959   9.682  0.7497  0.1022 -0.4351
  316MOL0     C42556   4.357  10.991   9.810  0.7710 -0.3732 -0.5165
  316MOL0     C42557   4.419  10.882   9.883 -0.7945 -0.1216 -0.0607
  316MOL0     C42558   4.443  10.894  10.020  0.3678 -0.3870 -1.0528
  316MOL0     C42559   4.413  11.016  10.090 -0.9332 -1.0297  1.0232
  316MOL0     O42560   4.457  11.057  10.212  0.3451  1.1767 -0.5066
  316MOL0     C42561   4.514  10.956  10.300  0.3887 -0.2902  0.3312
  316MOL0     C42562   4.503  10.991  10.450 -0.5316 -0.4158  0.3350
  316MOL0     C42563   4.543  10.892  10.544  0.9697  0.4666  0.6216
  316MOL0     C42564   4.567  10.958  10.683 -0.4278  0.7197 -0.4450
  316MOL0     C42565   4.621  10.856  10.777  0.4121  1.3380 -0.3753
  316MOL0     C42566   4.671  10.919  10.909  0.9694 -0.0551  0.5799
  316MOL0     C42567   4.562  11.001  10.984 -0.5663  0.0185  0.6563
  316MOL0     C42568   4.599  11.075  11.110  0.2001 -0.4524  0.6118
  316MOL0    Cl42569   4.631  10.964  11.245  0.2510 -0.3383 -0.1684
  316MOL0     C42570   4.341  11.121  10.019 -0.5173 -0.4293 -0.6730
  316MOL0     C42571   4.309  11.101   9.884  0.0102 -0.1754  0.5585
  316MOL0     O42572   4.314  11.177   9.600 -0.3231  0.2462 -0.0471
  316MOL0     C42573   4.257  11.107   9.350  0.6791 -0.5654  0.1011
  316MOL0     C42574   4.222  11.082   9.221 -0.9027 -0.2374  0.6698
  316MOL0     N42575   3.911  10.479   8.589  0.9282 -0.7167  0.1926
  316MOL0     N42576   3.885  10.368   8.531 -0.2062 -0.5313  0.8914
  316MOL0     C42577   4.607  10.642   8.444 -0.3947 -1.0290 -0.3017
  316MOL0     C42578   4.690  10.755   8.474  0.5237  0.1735 -0.7256
  316MOL0     C42579   5.006  11.069   8.521  0.2393 -0.0785 -0.4649
  316MOL0     C42580   5.133  11.036   8.462  0.9436  0.8082 -0.8983
  316MOL0     C42581   5.242  11.129   8.468  0.8008  0.0511 -0.0264
  316MOL0     C42582   5.226  11.246   8.539  0.0524  1.0449 -0.6006
  316MOL0     O42583   5.330  11.339   8.553 -0.1341  0.3663 -0.0836
  316MOL0     C42584   5.461  11.303   8.513 -0.1009  0.9390  0.4752
  316MOL0     C42585   5.565  11.406   8.538  0.6560 -0.2845  0.7098
  316MOL0     C42586   5.536  11.554   8.480  0.1197  0.1793  0.2143
  316MOL0     C42587   5.640  11.665   8.514  0.3209 -1.1242  0.1624
  316MOL0     C42588   5.643  11.690   8.660 -0.4829  0.7309 -0.6106
  316MOL0     C42589   5.642  11.683   8.784 -1.1667 -0.4854 -0.1169
  316MOL0     C42590   5.109  11.276   8.599  0.4846  1.2020  0.0233
  316MOL0     C42591   4.993  11.194   8.591 -0.2899 -0.0738  0.3696
  316MOL0     C42592   4.864  11.243   8.640 -0.1555 -0.1705 -0.1080
  316MOL0     H42593   4.986  10.636   8.374  0.7444 -0.7660  2.4381
  316MOL0     H42594   4.837  10.450   8.291 -5.0453 -1.0145 -1.9432
  316MOL0     H42595   4.457  10.479   8.193  1.7559  3.3944  1.8772
  316MOL0     H42596   4.613  10.499   8.147 -0.2826 -0.1243 -0.0583
  316MOL0     H42597   4.658  10.257   8.158 -1.0149 -1.7804 -1.1056
  316MOL0     H42598   4.538  10.286   8.024  2.7491  0.1472 -1.0025
  316MOL0     H42599   4.476  10.168   8.287  1.1560 -3.2116 -0.8031
  316MOL0     H42600   4.473  10.091   8.124  2.4191 -0.7035  0.9361
  316MOL0     H42601   4.276  10.299   8.237  3.8892  1.8835  0.2195
  316MOL0     H42602   4.302  10.272   8.058  0.6548 -0.6668 -0.8872
  316MOL0     H42603   4.252  10.042   8.098  1.9271  2.5699  0.5264
  316MOL0     H42604   4.252  10.064   8.267 -2.0116  1.7257  1.3991
  316MOL0     H42605   4.039  10.153   8.065  0.5957  1.4496  0.4185
  316MOL0     H42606   4.007  10.048   8.203  2.6356 -2.6222 -0.3394
  316MOL0     H42607   3.909  10.264   8.233  0.7899 -0.5306 -0.4913
  316MOL0     H42608   4.063  10.342   8.201 -0.8993  0.8546  0.5592
  316MOL0     H42609   3.978  10.159   8.433  2.7038 -2.5677  0.1497
  316MOL0     H42610   4.149  10.207   8.413  0.4322 -0.1447 -2.5504
  316MOL0     H42611   4.200  10.468   8.449  1.2880  2.2262  2.8354
  316MOL0     H42612   4.166  10.693   8.596 -1.0102 -0.6353  0.2406
  316MOL0     H42613   3.996  10.758   8.602 -0.4437  1.0574  2.3430
  316MOL0     H42614   3.997  10.637   8.830  1.8345 -0.9138  1.0591
  316MOL0     H42615   4.166  10.606   8.812 -2.7817 -0.6430  2.6627
  316MOL0     H42616   4.026  10.868   8.847 -0.7603 -0.5534 -0.2099
  316MOL0     H42617   4.197  10.858   8.785  0.6024 -2.2060 -0.9148
  316MOL0     H42618   4.280  10.763   8.994  0.5538 -0.0227 -0.2093
  316MOL0     H42619   4.100  10.748   9.043 -0.4140  0.7712  0.3068
  316MOL0     H42620   4.232  10.744   9.226 -3.7708  0.9149 -1.4413
  316MOL0     H42621   4.271  10.794   9.483  0.1437 -0.8256  0.5214
  316MOL0     H42622   4.437  10.786   9.835 -3.3716 -0.2152 -0.9503
  316MOL0     H42623   4.482  10.818  10.086 -0.4788  0.1367  0.0811
  316MOL0     H42624   4.457  10.864  10.278  1.4849 -0.4241 -2.3990
  316MOL0     H42625   4.617  10.933  10.271  0.6069 -0.7681  1.4615
  316MOL0     H42626   4.573  11.075  10.456 -0.3184 -0.7088  2.3303
  316MOL0     H42627   4.402  11.025  10.475 -0.2847  0.8133 -0.2629
  316MOL0     H42628   4.465  10.816  10.561  1.7398 -0.6022 -0.4747
  316MOL0     H42629   4.629  10.833  10.510  1.2572  1.3207 -0.1604
  316MOL0     H42630   4.471  10.995  10.720 -1.1339  0.3594 -1.8532
  316MOL0     H42631   4.646  11.034  10.677 -2.8153  3.4985  0.9365
  316MOL0     H42632   4.702  10.800  10.728  0.8770  1.4756  0.2349
  316MOL0     H42633   4.554  10.773  10.802  0.4720  0.8435 -1.7703
  316MOL0     H42634   4.698  10.828  10.963  1.0997  0.4618  1.4159
  316MOL0     H42635   4.759  10.983  10.904 -0.4240  1.9261  0.2969
  316MOL0     H42636   4.471  10.943  11.001 -0.4174 -0.0382  1.3078
  316MOL0     H42637   4.527  11.077  10.914  1.3343  0.6853  0.3827
  316MOL0     H42638   4.684  11.129  11.068  0.5652 -2.2019 -1.0009
  316MOL0     H42639   4.525  11.148  11.145 -0.4207  0.6433 -2.6247
  316MOL0     H42640   4.311  11.213  10.068  1.4611 -0.4679  0.7179
  316MOL0     H42641   4.248  11.173   9.831 -1.7311 -1.2776  0.9795
  316MOL0     H42642   4.249  11.213   9.374 -0.7343 -0.2046 -1.6874
  316MOL0     H42643   4.209  11.155   9.141  1.9288 -0.4845 -0.1157
  316MOL0     H42644   4.516  10.626   8.500  0.8604  0.0949  2.2405
  316MOL0     H42645   4.640  10.831   8.534  0.1607 -0.4695 -0.2041
  316MOL0     H42646   5.139  10.937   8.417 -6.1419 -2.2088  3.1911
  316MOL0     H42647   5.333  11.099   8.415 -1.1595 -6.9417 -0.4275
  316MOL0     H42648   5.463  11.282   8.406 -1.6864 -0.5115  0.6977
  316MOL0     H42649   5.503  11.214   8.561  1.0643 -1.3141 -4.1334
  316MOL0     H42650   5.670  11.387   8.516  0.3209  0.7298 -2.1469
  316MOL0     H42651   5.552  11.408   8.647 -2.5741  0.6735  0.4129
  316MOL0     H42652   5.438  11.571   8.524  1.4090 -0.7065  3.7301
  316MOL0     H42653   5.532  11.541   8.371 -0.0696  0.6051  0.1697
  316MOL0     H42654   5.740  11.645   8.474  0.9615  2.5033 -0.3608
  316MOL0     H42655   5.616  11.754   8.456  5.2223 -2.0918 -4.0129
  316MOL0     H42656   5.651  11.677   8.891 -0.1422 -0.4895 -0.1980
  316MOL0     H42657   5.103  11.377   8.640 -3.3072  1.0301  0.2239
  316MOL0     H42658   4.817  11.182   8.717 -1.8694  0.4523 -0.6279
  316MOL0     H42659   4.873  11.338   8.694 -1.4756 -0.8662  1.4390
  316MOL0     H42660   4.794  11.266   8.560 -1.7724  2.3659  1.8584
  317MOL0     O42661   5.335  10.027   9.789  0.9182 -0.6173  0.0760
  317MOL0     C42662   5.239   9.966   9.751 -0.2845  0.7861 -1.2273
  317MOL0     O42663   5.237   9.829   9.747  0.0268  0.1897  0.4339
  317MOL0     C42664   5.328   9.755   9.820  1.3202  1.1421  0.5305
  317MOL0     C42665   5.362   9.779   9.950 -0.6800 -0.5813  0.2992
  317MOL0     C42666   5.428   9.687  10.031  0.2207  0.5566 -1.1701
  317MOL0     C42667   5.471   9.566   9.976 -0.1934 -0.3578  0.2293
  317MOL0     O42668   5.550   9.467  10.038  0.9575 -0.1917  0.2673
  317MOL0     C42669   5.658   9.509  10.114 -1.1336 -0.0214  0.1974
  317MOL0     C42670   5.756   9.387  10.102  0.6510 -0.6494 -0.3868
  317MOL0     C42671   5.692   9.268  10.166 -0.4719 -0.0851  0.6698
  317MOL0     C42672   5.798   9.154  10.167 -0.6023  0.0698  0.0989
  317MOL0     C42673   5.740   9.017  10.173  0.4029  0.9661 -0.2321
  317MOL0     C42674   5.655   8.992  10.292 -0.5436 -0.1391 -0.3055
  317MOL0     C42675   5.750   9.027  10.418  0.7423 -0.0317 -0.9388
  317MOL0     C42676   5.683   8.963  10.545 -1.4086  1.4613  0.4181
  317MOL0     N42677   5.666   8.815  10.537  0.2403  0.0226  0.3532
  317MOL0     C42678   5.770   8.720  10.521  0.9057  0.8335 -0.3284
  317MOL0     C42679   5.698   8.607  10.494  1.9083 -0.2084  0.0723
  317MOL0     C42680   5.767   8.478  10.469 -0.7303  0.2740  0.8818
  317MOL0     C42681   5.770   8.456  10.317  0.1365  0.4175  1.0507
  317MOL0     C42682   5.846   8.555  10.232 -0.0425 -0.1115  0.0962
  317MOL0     C42683   6.000   8.549  10.262  0.6686 -0.6530  0.1590
  317MOL0     O42684   6.064   8.648  10.175  0.1524  0.2156  0.2134
  317MOL0     C42685   6.080   8.606  10.040 -0.3792 -0.2775 -0.1881
  317MOL0     C42686   6.123   8.693   9.952  0.4349 -0.8811  0.0132
  317MOL0     C42687   6.140   8.648   9.811 -0.4890  0.0156 -0.1991
  317MOL0     C42688   6.096   8.517   9.768  0.1065  0.2509  0.3053
  317MOL0     C42689   6.119   8.464   9.625 -0.8119 -0.4134 -0.3841
  317MOL0     O42690   6.100   8.329   9.606  0.1914 -0.1801  0.4921
  317MOL0     C42691   6.113   8.263   9.478  0.1092 -0.5810  0.3541
  317MOL0     C42692   6.142   8.125   9.482 -0.6871  0.2609 -0.6290
  317MOL0     C42693   6.154   8.044   9.363  0.1059 -0.1788 -0.1628
  317MOL0     C42694   6.148   8.099   9.237  0.0124  0.2691 -1.3987
  317MOL0     O42695   6.175   8.019   9.130 -1.0358  0.2780  1.1475
  317MOL0     C42696   6.207   8.063   9.001  1.1860 -0.3523 -0.6599
  317MOL0     C42697   6.247   7.948   8.907 -0.4268 -0.5925 -1.2460
  317MOL0     C42698   6.365   7.875   8.966 -0.2547 -0.2190 -0.3630
  317MOL0     C42699   6.425   7.754   8.889 -0.8859 -0.7034  1.2932
  317MOL0     C42700   6.575   7.732   8.913  0.1716 -0.5496  0.6576
  317MOL0     C42701   6.595   7.676   9.047  1.0617  1.1589 -0.0680
  317MOL0     C42702   6.738   7.671   9.080  0.2602  0.5496 -1.1792
  317MOL0     C42703   6.774   7.528   9.108  0.4347  0.0672 -0.3598
  317MOL0    Cl42704   6.769   7.437   8.951 -0.1208 -0.2963 -0.6374
  317MOL0     C42705   6.122   8.240   9.238  0.6643 -0.7158 -0.5907
  317MOL0     C42706   6.112   8.318   9.356  0.1062 -1.2365 -0.3842
  317MOL0     O42707   6.191   8.536   9.551 -0.1322 -0.0813  0.2366
  317MOL0     C42708   6.051   8.429   9.868  0.4665  1.0086  1.1671
  317MOL0     C42709   6.049   8.469   9.997 -0.9788 -0.3195  0.6293
  317MOL0     N42710   5.562   8.636  10.484 -0.6291  0.5981 -0.3672
  317MOL0     N42711   5.543   8.758  10.527 -0.4763 -0.5794  0.2585
  317MOL0     C42712   5.428   9.535   9.842  0.3468 -0.6171 -0.0943
  317MOL0     C42713   5.360   9.633   9.772 -0.3526 -0.7915 -0.2726
  317MOL0     C42714   5.121  10.031   9.701 -0.9605  0.3922  0.0088
  317MOL0     C42715   5.006   9.938   9.691 -0.1162 -0.4476  0.3849
  317MOL0     C42716   4.888   9.992   9.640 -0.5431 -0.5404  0.0636
  317MOL0     C42717   4.870  10.128   9.613  0.4335  1.0813  0.0678
  317MOL0     O42718   4.747  10.182   9.574  0.7411 -0.6770  0.2166
  317MOL0     C42719   4.630  10.104   9.578  0.4895  0.6043  0.7100
  317MOL0     C42720   4.510  10.196   9.579  0.3835 -0.5795 -0.4130
  317MOL0     C42721   4.465  10.251   9.440 -0.0381 -0.7396 -0.7944
  317MOL0     C42722   4.376  10.160   9.354  0.0555  0.9391  0.3624
  317MOL0     C42723   4.455  10.049   9.291  0.3295 -0.1073 -1.2153
  317MOL0     C42724   4.510   9.952   9.248  0.2879 -0.5833  1.2647
  317MOL0     C42725   4.978  10.212   9.624 -0.1836  1.0022  0.4392
  317MOL0     C42726   5.103  10.168   9.661 -0.1632  1.1555  0.0836
  317MOL0     C42727   5.206  10.265   9.621  0.2338  0.0128  0.0130
  317MOL0     H42728   5.328   9.872   9.995  1.9339  0.3993  0.3744
  317MOL0     H42729   5.455   9.704  10.134  1.1275 -1.9266 -0.9331
  317MOL0     H42730   5.709   9.604  10.099 -2.3843  1.0518  2.2416
  317MOL0     H42731   5.620   9.511  10.217 -3.1056 -1.1477 -0.4462
  317MOL0     H42732   5.850   9.412  10.151 -0.0330  1.5236 -0.0845
  317MOL0     H42733   5.760   9.365   9.994 -0.7815 -2.6888 -0.0899
  317MOL0     H42734   5.603   9.233  10.113 -1.2679  2.1598  0.4044
  317MOL0     H42735   5.655   9.293  10.266  0.9973  1.2093  0.9178
  317MOL0     H42736   5.862   9.171  10.080 -0.7551 -0.8728 -0.2099
  317MOL0     H42737   5.864   9.183  10.250  1.5341  1.3496 -1.9325
  317MOL0     H42738   5.681   8.992  10.084  1.0230 -1.0532 -0.1223
  317MOL0     H42739   5.820   8.943  10.174 -1.3775 -1.1114 -1.1019
  317MOL0     H42740   5.578   9.069  10.294  0.1516  0.5325  0.8704
  317MOL0     H42741   5.620   8.888  10.291  0.1449 -0.4624  2.1716
  317MOL0     H42742   5.751   9.132  10.446 -0.9267 -0.5437  1.4856
  317MOL0     H42743   5.852   8.989  10.417  0.6721 -0.2532 -0.4343
  317MOL0     H42744   5.747   8.983  10.631  0.7236 -0.0006 -0.7279
  317MOL0     H42745   5.584   9.008  10.555 -1.0305  3.1081 -2.2061
  317MOL0     H42746   5.879   8.722  10.527  1.0469 -1.6827 -1.1229
  317MOL0     H42747   5.865   8.473  10.517  0.6214 -2.4954 -1.8066
  317MOL0     H42748   5.710   8.404  10.526 -0.9580 -0.0751  0.2100
  317MOL0     H42749   5.805   8.356  10.289  4.0520  2.3495 -1.8657
  317MOL0     H42750   5.672   8.466  10.269  1.4573  2.9008 -1.4361
  317MOL0     H42751   5.815   8.659  10.249  0.0360 -0.1445  0.4492
  317MOL0     H42752   5.823   8.522  10.130 -1.7543 -1.2768  0.8041
  317MOL0     H42753   6.047   8.451  10.270 -0.1607 -0.9429  2.2886
  317MOL0     H42754   6.011   8.588  10.364 -0.0805 -1.0909  0.4131
  317MOL0     H42755   6.155   8.790   9.988  1.7357 -0.3350 -2.3550
  317MOL0     H42756   6.195   8.715   9.747  0.1094 -0.6061 -0.3501
  317MOL0     H42757   6.142   8.077   9.579 -3.9762  1.6484  0.1899
  317MOL0     H42758   6.171   7.939   9.380  1.1623  0.0997  0.6007
  317MOL0     H42759   6.117   8.110   8.959  2.4438  0.6776 -2.3426
  317MOL0     H42760   6.278   8.144   9.019  3.7804 -2.5406 -0.4742
  317MOL0     H42761   6.166   7.874   8.914  1.3047 -2.4953 -0.2255
  317MOL0     H42762   6.258   7.974   8.801 -1.1022 -5.1165 -2.6434
  317MOL0     H42763   6.452   7.942   8.973  2.5189 -3.5785  0.0112
  317MOL0     H42764   6.331   7.845   9.066 -0.3505  2.8516  0.6269
  317MOL0     H42765   6.429   7.773   8.782  1.8147 -5.7422  0.2283
  317MOL0     H42766   6.370   7.661   8.905  1.4264 -2.0700  1.6642
  317MOL0     H42767   6.633   7.824   8.904 -0.9699 -0.0212 -2.2957
  317MOL0     H42768   6.608   7.661   8.837  1.0928  0.9112 -0.3477
  317MOL0     H42769   6.542   7.743   9.116 -0.8459  0.7195 -1.0357
  317MOL0     H42770   6.535   7.584   9.049  0.2762  1.6634  2.1514
  317MOL0     H42771   6.765   7.725   9.171  0.9517 -1.9200  0.1508
  317MOL0     H42772   6.808   7.706   9.004  2.7567  0.9962  1.1779
  317MOL0     H42773   6.877   7.527   9.145 -0.0680 -2.4880  1.2334
  317MOL0     H42774   6.719   7.487   9.193 -0.6996  2.2341  0.0084
  317MOL0     H42775   6.130   8.301   9.149  0.1353 -0.3179 -0.3723
  317MOL0     H42776   6.107   8.425   9.342  0.7067 -1.1622 -0.0622
  317MOL0     H42777   6.022   8.331   9.831  2.1575  2.0938 -3.8064
  317MOL0     H42778   6.003   8.395  10.060 -4.4167  0.4292 -0.8041
  317MOL0     H42779   5.456   9.442   9.793 -0.6648 -1.0916  0.1959
  317MOL0     H42780   5.329   9.614   9.670 -1.2325  1.9138 -0.6090
  317MOL0     H42781   4.998   9.836   9.727  2.9212 -1.1357 -0.5885
  317MOL0     H42782   4.805   9.923   9.652  1.0552 -2.3538  1.3534
  317MOL0     H42783   4.619  10.052   9.673 -1.6770 -0.7013 -0.1827
  317MOL0     H42784   4.629  10.027   9.501  0.0217 -1.1105  2.3707
  317MOL0     H42785   4.519  10.275   9.654 -2.6083 -0.5116 -0.0113
  317MOL0     H42786   4.427  10.139   9.622  0.4477  0.7833  1.6184
  317MOL0     H42787   4.548  10.282   9.375  2.4029 -3.8899  0.5073
  317MOL0     H42788   4.411  10.344   9.459  0.8467 -0.7234  2.1147
  317MOL0     H42789   4.291  10.118   9.407 -0.4114  0.3435 -0.8307
  317MOL0     H42790   4.326  10.212   9.272  1.0701  0.5407 -0.5389
  317MOL0     H42791   4.549   9.862   9.206  0.9633  0.9840 -1.7262
  317MOL0     H42792   4.972  10.317   9.598  0.0859  0.5054 -1.8319
  317MOL0     H42793   5.177  10.302   9.522  0.8116 -0.1461 -0.2215
  317MOL0     H42794   5.217  10.357   9.678  0.1580  0.4734 -0.6922
  317MOL0     H42795   5.301  10.215   9.601 -1.8551 -3.0879 -3.5552
  318MOL0     O42796   2.568   6.014   6.647 -0.6269 -1.1637  0.1155
  318MOL0     C42797   2.688   5.985   6.669 -0.6347 -0.1547  0.4533
  318MOL0     O42798   2.784   5.976   6.574 -0.8004  0.1268  0.6432
  318MOL0     C42799   2.746   5.972   6.443 -0.0650  0.9079 -0.7721
  318MOL0     C42800   2.836   6.040   6.352 -0.7717  0.1794  0.1126
  318MOL0     C42801   2.820   6.018   6.210  0.1748 -0.4593  0.8606
  318MOL0     C42802   2.716   5.946   6.161  1.6602 -0.7577 -0.2433
  318MOL0     O42803   2.689   5.947   6.025 -0.0368 -0.1972  0.3190
  318MOL0     C42804   2.690   6.080   5.967 -0.0565  0.0445 -0.0413
  318MOL0     C42805   2.752   6.099   5.832 -0.8668  0.3659  0.3481
  318MOL0     C42806   2.889   6.037   5.816 -0.4528  0.2983  0.0363
  318MOL0     C42807   2.935   6.026   5.673 -0.2634 -0.6216 -0.7911
  318MOL0     C42808   2.876   5.901   5.594  0.9253  0.0764 -0.1817
  318MOL0     C42809   2.894   5.754   5.642 -0.4776 -0.5308  0.1842
  318MOL0     C42810   2.847   5.661   5.532 -0.3508 -0.1408  0.1776
  318MOL0     C42811   2.913   5.521   5.567  0.0474 -0.2967 -0.8221
  318MOL0     N42812   2.897   5.428   5.460 -0.0981  0.3189 -1.2027
  318MOL0     C42813   2.768   5.396   5.412 -0.8325 -0.2333  1.4130
  318MOL0     C42814   2.796   5.322   5.307 -0.8234  0.3901 -0.3432
  318MOL0     C42815   2.689   5.264   5.216  0.0612 -0.7561 -0.0848
  318MOL0     C42816   2.633   5.138   5.290  0.5204  0.0443  0.2068
  318MOL0     C42817   2.539   5.063   5.201  0.5246 -0.0513  0.0990
  318MOL0     C42818   2.443   4.969   5.273  0.5151  0.1928  0.6461
  318MOL0     O42819   2.369   4.888   5.172  0.1318  0.0730 -0.6219
  318MOL0     C42820   2.378   4.756   5.188  0.0021 -0.8023  0.0268
  318MOL0     C42821   2.504   4.695   5.187 -0.0107 -1.1448  0.1164
  318MOL0     C42822   2.515   4.563   5.218  0.5290  0.5978  0.6512
  318MOL0     C42823   2.402   4.488   5.260  0.5288  0.0074 -0.6167
  318MOL0     C42824   2.409   4.341   5.279  0.4172 -0.2931 -0.4396
  318MOL0     O42825   2.298   4.281   5.338 -0.6427  0.2348 -0.5158
  318MOL0     C42826   2.306   4.155   5.395  0.5782 -0.7918 -0.1860
  318MOL0     C42827   2.192   4.078   5.400  0.4620 -0.5576  0.4359
  318MOL0     C42828   2.201   3.941   5.436  0.1625 -0.3024  0.1133
  318MOL0     C42829   2.314   3.898   5.503  0.1970  0.6138 -0.2567
  318MOL0     O42830   2.324   3.769   5.547 -0.2992 -1.2705 -0.1259
  318MOL0     C42831   2.416   3.698   5.461 -0.2573  0.7203 -0.2792
  318MOL0     C42832   2.549   3.689   5.532  0.1073  0.4558 -0.7072
  318MOL0     C42833   2.625   3.550   5.536  0.3774 -0.6640 -0.7105
  318MOL0     C42834   2.643   3.492   5.681 -0.9237 -0.4093 -0.5183
  318MOL0     C42835   2.748   3.580   5.753 -0.3595 -0.1534 -0.4029
  318MOL0     C42836   2.804   3.518   5.884 -0.1839 -0.6169 -0.5504
  318MOL0     C42837   2.886   3.385   5.843 -0.4240 -0.4662  0.3101
  318MOL0     C42838   2.984   3.322   5.938 -0.5672  0.0865  0.0124
  318MOL0    Cl42839   3.063   3.171   5.860  0.3799 -0.1727 -0.0058
  318MOL0     C42840   2.419   3.995   5.517 -0.2045 -0.2288 -0.0492
  318MOL0     C42841   2.419   4.116   5.454  0.0924  0.5757  0.1224
  318MOL0     O42842   2.511   4.282   5.254 -0.0052 -0.0230  0.3309
  318MOL0     C42843   2.278   4.549   5.250  0.0895 -0.5415 -0.2052
  318MOL0     C42844   2.265   4.681   5.218 -0.1219  0.3738 -0.6827
  318MOL0     N42845   2.940   5.308   5.283  0.1480  0.5436  0.6419
  318MOL0     N42846   2.992   5.371   5.379 -0.1992 -0.0121 -0.4672
  318MOL0     C42847   2.629   5.884   6.252 -0.4389 -0.2018  0.0648
  318MOL0     C42848   2.640   5.891   6.397  0.7523 -0.3323  0.1364
  318MOL0     C42849   2.728   5.981   6.812  0.5069 -1.1493 -0.8431
  318MOL0     C42850   2.622   5.950   6.908  0.4575 -0.7311 -0.3022
  318MOL0     C42851   2.640   5.957   7.037 -0.2356  0.2666 -0.1881
  318MOL0     C42852   2.761   5.999   7.090  0.0492 -1.5857  0.4477
  318MOL0     O42853   2.776   5.988   7.226 -0.1137  0.4801  0.0059
  318MOL0     C42854   2.848   6.092   7.293 -0.2340 -0.7181 -0.2014
  318MOL0     C42855   2.774   6.227   7.295 -0.3675 -0.2221 -0.5823
  318MOL0     C42856   2.654   6.242   7.391  1.0434 -0.1441  0.4948
  318MOL0     C42857   2.575   6.366   7.341  0.2958 -0.8737  0.1237
  318MOL0     C42858   2.473   6.370   7.439 -0.0824 -0.3503 -0.2082
  318MOL0     C42859   2.375   6.397   7.510 -0.0633 -0.3318 -0.7052
  318MOL0     C42860   2.866   6.025   7.002  0.0517 -1.1843 -0.9979
  318MOL0     C42861   2.855   6.011   6.864  0.2402 -0.3488 -0.5529
  318MOL0     C42862   2.982   6.015   6.788 -0.0901 -0.3473  0.2875
  318MOL0     H42863   2.926   6.090   6.389 -0.5437  0.7411 -1.1657
  318MOL0     H42864   2.900   6.065   6.154  0.8291 -1.9801  0.4744
  318MOL0     H42865   2.584   6.108   5.966 -0.3941 -1.0282 -2.6894
  318MOL0     H42866   2.738   6.157   6.029 -1.3101  0.2808  0.6583
  318MOL0     H42867   2.742   6.198   5.787 -2.0990  0.1453  0.0978
  318MOL0     H42868   2.698   6.042   5.756  1.8272 -1.4374 -0.3432
  318MOL0     H42869   2.882   5.939   5.864  0.8741  0.2995  0.2838
  318MOL0     H42870   2.970   6.099   5.857  1.8865 -2.9091  0.6213
  318MOL0     H42871   2.899   6.115   5.621 -1.1205 -0.7979 -0.5182
  318MOL0     H42872   3.044   6.038   5.680 -0.6122  2.2399  1.6008
  318MOL0     H42873   2.768   5.917   5.588  0.7496 -1.4960 -2.6997
  318MOL0     H42874   2.915   5.910   5.493  1.4693  3.0778  0.2023
  318MOL0     H42875   3.002   5.747   5.659 -0.3833  3.0677  2.0315
  318MOL0     H42876   2.840   5.741   5.736 -0.4694 -0.6457  0.1732
  318MOL0     H42877   2.908   5.694   5.448  1.3352 -2.5170  0.3897
  318MOL0     H42878   2.739   5.648   5.521 -0.1896 -0.6391 -0.8392
  318MOL0     H42879   3.018   5.544   5.586 -0.4682 -0.4817  2.9620
  318MOL0     H42880   2.864   5.473   5.652 -2.2484  1.9855 -0.7433
  318MOL0     H42881   2.669   5.431   5.441 -0.8484  3.4832 -2.1371
  318MOL0     H42882   2.604   5.332   5.210  0.0331 -0.1219  4.2017
  318MOL0     H42883   2.722   5.241   5.114 -0.6181  1.6134 -0.8984
  318MOL0     H42884   2.714   5.069   5.315  0.6552 -0.1993 -0.8542
  318MOL0     H42885   2.580   5.181   5.375 -0.8558  1.0772 -1.1182
  318MOL0     H42886   2.593   5.002   5.128  0.1286  0.6716 -0.8217
  318MOL0     H42887   2.478   5.122   5.132  0.7917 -1.0064 -0.9883
  318MOL0     H42888   2.379   5.026   5.341 -1.0546 -0.2446 -0.4142
  318MOL0     H42889   2.493   4.899   5.341 -0.6025 -1.1639  0.1120
  318MOL0     H42890   2.588   4.749   5.144 -0.2364 -0.8051  0.0977
  318MOL0     H42891   2.605   4.513   5.185 -1.4211 -1.1362 -2.5751
  318MOL0     H42892   2.099   4.112   5.355  0.0317 -4.2510 -1.8456
  318MOL0     H42893   2.116   3.876   5.418  1.2116 -1.4456 -1.0003
  318MOL0     H42894   2.388   3.592   5.462  3.8172 -0.5306 -0.9988
  318MOL0     H42895   2.415   3.730   5.357 -2.8008 -2.4367 -1.3940
  318MOL0     H42896   2.615   3.765   5.490  3.3089 -0.2207  2.4882
  318MOL0     H42897   2.535   3.710   5.638  0.4399 -0.8398 -0.3849
  318MOL0     H42898   2.570   3.476   5.477  0.9921 -2.0971  0.4605
  318MOL0     H42899   2.727   3.550   5.496  0.4782 -0.3243 -0.4546
  318MOL0     H42900   2.686   3.391   5.674  1.1479  0.4232 -0.4745
  318MOL0     H42901   2.555   3.490   5.746  1.1150 -3.1464  2.4414
  318MOL0     H42902   2.718   3.684   5.771  1.8951  0.8561 -1.9808
  318MOL0     H42903   2.830   3.599   5.683 -0.3737  0.2717 -0.3089
  318MOL0     H42904   2.877   3.593   5.916  1.6188 -2.6135  0.2948
  318MOL0     H42905   2.738   3.505   5.970  1.3308 -1.5515  0.5374
  318MOL0     H42906   2.937   3.401   5.747  0.5280  1.9799  1.1448
  318MOL0     H42907   2.818   3.301   5.825 -4.9426  3.3668 -3.3380
  318MOL0     H42908   3.060   3.399   5.954  0.8231 -1.4465  1.0861
  318MOL0     H42909   2.934   3.297   6.032  3.9363 -3.2258  1.9463
  318MOL0     H42910   2.508   3.965   5.572  2.5925  1.8403 -3.0932
  318MOL0     H42911   2.509   4.175   5.466  0.3640 -0.2338  2.6037
  318MOL0     H42912   2.189   4.487   5.256 -1.4691  1.5055 -1.0513
  318MOL0     H42913   2.175   4.742   5.212 -1.6319 -1.8467 -2.1915
  318MOL0     H42914   2.539   5.842   6.210 -0.1254 -0.6261 -0.1927
  318MOL0     H42915   2.568   5.839   6.460  1.3054 -2.3199 -0.7991
  318MOL0     H42916   2.528   5.906   6.874  0.4754 -0.3955 -0.7998
  318MOL0     H42917   2.554   5.930   7.098  0.3706  0.6435  0.8629
  318MOL0     H42918   2.943   6.111   7.242 -0.8323  1.9704 -0.4366
  318MOL0     H42919   2.879   6.058   7.392  0.9213  1.4580  0.2425
  318MOL0     H42920   2.744   6.244   7.191 -1.6614  0.9225 -0.0564
  318MOL0     H42921   2.851   6.301   7.316 -0.2182 -0.0834 -1.5638
  318MOL0     H42922   2.702   6.260   7.488  1.0019  0.4665  0.4051
  318MOL0     H42923   2.589   6.154   7.390  1.7578 -0.7139 -1.2726
  318MOL0     H42924   2.635   6.457   7.348 -0.9676 -0.0815  0.8665
  318MOL0     H42925   2.526   6.355   7.244  0.4118  2.7165 -0.4872
  318MOL0     H42926   2.292   6.433   7.568 -0.1444  0.6019 -1.3708
  318MOL0     H42927   2.962   6.046   7.048 -0.7670  1.4090 -0.2598
  318MOL0     H42928   3.011   5.911   6.771 -2.0285 -0.7302 -0.9032
  318MOL0     H42929   2.962   6.075   6.698  0.6735  1.7416  1.4453
  318MOL0     H42930   3.063   6.067   6.840 -1.3822  1.5692  0.4985
  319MOL0     O42931   3.368   8.867   0.532 -0.6950 -0.1687  0.4116
  319MOL0     C42932   3.257   8.914   0.558 -0.0500  0.1008 -0.5980
  319MOL0     O42933   3.235   9.017   0.644  0.2015 -0.7851  0.2724
  319MOL0     C42934   3.338   9.084   0.704  0.1899  0.2759 -0.2139
  319MOL0     C42935   3.459   9.119   0.637  0.1342  0.4657 -1.0881
  319MOL0     C42936   3.559   9.196   0.705  0.0280  0.7794 -0.1053
  319MOL0     C42937   3.538   9.241   0.841 -0.4181 -0.1965 -0.3634
  319MOL0     O42938   3.647   9.318   0.899  0.0053  0.4229  0.3570
  319MOL0     C42939   3.618   9.451   0.943  0.9103  0.7771  0.5963
  319MOL0     C42940   3.732   9.539   0.908 -0.3651 -0.2339 -0.1456
  319MOL0     C42941   3.763   9.528   0.753  0.0913  0.1060 -0.0888
  319MOL0     C42942   3.898   9.597   0.726  0.0032  0.1775  0.3684
  319MOL0     C42943   3.940   9.602   0.582 -0.8189  0.1300  0.2111
  319MOL0     C42944   3.851   9.684   0.483  0.2440  0.5129  0.1819
  319MOL0     C42945   3.866   9.836   0.509 -0.4461  0.7104 -0.5691
  319MOL0     C42946   3.787   9.916   0.400 -0.6903  0.3205 -0.1784
  319MOL0     N42947   3.817  10.062   0.420 -0.4606 -0.5182  0.0340
  319MOL0     C42948   3.942  10.134   0.461  0.0794  0.6447 -0.2882
  319MOL0     C42949   3.920  10.261   0.418 -0.5964  0.1851 -0.6906
  319MOL0     C42950   4.030  10.358   0.391 -0.2459 -0.0115 -0.0479
  319MOL0     C42951   4.096  10.432   0.510  0.5578 -0.8073 -0.1885
  319MOL0     C42952   4.005  10.519   0.582  0.5084 -0.0096  0.0782
  319MOL0     C42953   4.065  10.583   0.700  0.2253 -0.2172 -0.1705
  319MOL0     O42954   4.188  10.649   0.677  0.2726  0.2666  0.0711
  319MOL0     C42955   4.193  10.759   0.604 -0.4069 -0.1816  0.6625
  319MOL0     C42956   4.326  10.784   0.574 -0.5356  0.3788  0.5505
  319MOL0     C42957   4.360  10.886   0.481 -0.2979 -0.0594 -0.2420
  319MOL0     C42958   4.258  10.958   0.417  0.3727  0.6086  0.4198
  319MOL0     C42959   4.290  11.051   0.296 -0.6200  0.0389 -0.5591
  319MOL0     O42960   4.421  11.061   0.247  0.6490 -0.2146 -0.3372
  319MOL0     C42961   4.445  11.157   0.150 -0.4767  0.0843  0.2429
  319MOL0     C42962   4.399  11.285   0.167 -0.9886  0.2431 -0.2923
  319MOL0     C42963   4.438  11.388   0.078 -0.4272 -0.1074  0.1474
  319MOL0     C42964   4.513  11.361  -0.035  0.1737  1.4277 -0.3076
  319MOL0     O42965   4.551  11.473  -0.109 -0.8654 -0.0664 -0.0424
  319MOL0     C42966   4.613  11.442  -0.235 -0.6154  0.1961 -0.0587
  319MOL0     C42967   4.628  11.558  -0.328  0.2048  0.3955 -0.2829
  319MOL0     C42968   4.699  11.523  -0.462  0.7700  0.2682 -1.9683
  319MOL0     C42969   4.715  11.645  -0.555 -0.2383 -0.3899 -0.7298
  319MOL0     C42970   4.754  11.599  -0.701 -0.5964 -0.0772 -0.6252
  319MOL0     C42971   4.781  11.711  -0.790 -0.4188  0.1923  1.3463
  319MOL0     C42972   4.928  11.761  -0.813  0.2929  0.7478 -0.4136
  319MOL0     C42973   4.981  11.850  -0.700 -0.0029 -0.1811 -0.5714
  319MOL0    Cl42974   5.149  11.914  -0.708 -0.0738 -0.0855 -0.1501
  319MOL0     C42975   4.553  11.225  -0.057 -0.3503 -0.8346 -0.4797
  319MOL0     C42976   4.517  11.128   0.040 -1.4436  0.2514  0.0899
  319MOL0     O42977   4.191  11.119   0.269  0.3704  0.5155  0.7133
  319MOL0     C42978   4.122  10.935   0.447 -0.6652 -0.0408  0.3293
  319MOL0     C42979   4.091  10.831   0.541 -0.0185 -0.6845 -0.7089
  319MOL0     N42980   3.789  10.275   0.378  0.4407  0.1437  0.1781
  319MOL0     N42981   3.735  10.161   0.377  0.5899 -0.0860  0.3260
  319MOL0     C42982   3.422   9.204   0.903 -0.3541 -0.8823  0.4912
  319MOL0     C42983   3.318   9.137   0.835 -0.2211  0.3221  0.2769
  319MOL0     C42984   3.137   8.842   0.499  0.4905 -0.7532 -0.0253
  319MOL0     C42985   3.009   8.884   0.529  0.4870  0.2862  0.4634
  319MOL0     C42986   2.894   8.812   0.488 -0.5681 -0.2671 -0.1204
  319MOL0     C42987   2.912   8.705   0.388 -1.2557 -1.1295 -1.3205
  319MOL0     O42988   2.805   8.642   0.340 -0.1287 -0.2515  0.3840
  319MOL0     C42989   2.673   8.701   0.337  1.1345 -0.0216 -0.8600
  319MOL0     C42990   2.577   8.619   0.256  0.0807 -0.4348 -0.5817
  319MOL0     C42991   2.429   8.662   0.267  0.8852 -0.8761 -1.5613
  319MOL0     C42992   2.346   8.586   0.158 -0.0731 -1.4878 -0.1281
  319MOL0     C42993   2.361   8.444   0.190  0.5774  0.4744 -0.1975
  319MOL0     C42994   2.373   8.327   0.216 -0.0276 -0.8375 -0.1854
  319MOL0     C42995   3.038   8.663   0.365  0.0737 -0.1930 -0.1972
  319MOL0     C42996   3.153   8.720   0.417  0.8153 -0.3354 -0.4201
  319MOL0     C42997   3.284   8.653   0.364  0.1784 -0.0530  0.2844
  319MOL0     H42998   3.472   9.089   0.534  0.0219 -1.2765 -0.6343
  319MOL0     H42999   3.656   9.210   0.660 -0.4037  0.0153 -1.3071
  319MOL0     H43000   3.529   9.482   0.888  0.6769 -0.1695  0.4374
  319MOL0     H43001   3.596   9.453   1.050 -4.2818  1.3804 -0.2150
  319MOL0     H43002   3.824   9.504   0.957 -1.1384 -0.5354  1.1660
  319MOL0     H43003   3.720   9.644   0.936 -0.7695 -0.7856  1.9176
  319MOL0     H43004   3.688   9.568   0.684  2.0662  3.2345 -0.5984
  319MOL0     H43005   3.768   9.422   0.726 -0.1391  0.4769 -1.6712
  319MOL0     H43006   3.893   9.694   0.776 -0.9581 -0.4646  1.6022
  319MOL0     H43007   3.972   9.530   0.770 -0.2154 -2.0337 -2.3211
  319MOL0     H43008   4.029   9.665   0.584 -1.5663  1.1970  0.8012
  319MOL0     H43009   3.973   9.506   0.540  1.1521  0.6336  0.5137
  319MOL0     H43010   3.894   9.652   0.387  0.9122 -2.1312  1.2636
  319MOL0     H43011   3.746   9.655   0.485 -0.0596  1.3550 -1.5895
  319MOL0     H43012   3.969   9.872   0.505  0.1176 -0.9221 -1.6469
  319MOL0     H43013   3.829   9.852   0.611  2.4030 -0.2539  0.7201
  319MOL0     H43014   3.807   9.877   0.300  1.6652  3.0950 -0.9258
  319MOL0     H43015   3.680   9.899   0.410 -0.7232 -2.6582 -3.6562
  319MOL0     H43016   4.037  10.087   0.487  0.0019  1.4174  1.5937
  319MOL0     H43017   4.115  10.323   0.332 -0.8030  0.8207 -1.3903
  319MOL0     H43018   3.995  10.438   0.324  1.9468  1.9115  0.9639
  319MOL0     H43019   4.125  10.358   0.585 -2.0441 -2.8625 -1.0134
  319MOL0     H43020   4.189  10.471   0.469 -0.1061 -1.2269 -2.2350
  319MOL0     H43021   3.936  10.454   0.638  0.5559 -0.2359 -0.1222
  319MOL0     H43022   3.952  10.594   0.522  1.1667 -0.5427 -1.2036
  319MOL0     H43023   4.078  10.505   0.776 -2.1753 -1.0568 -0.5324
  319MOL0     H43024   3.991  10.655   0.738 -1.6477 -1.7160 -0.8102
  319MOL0     H43025   4.408  10.722   0.608 -0.7531  0.6921  1.6672
  319MOL0     H43026   4.463  10.916   0.463  0.8629 -3.4819 -0.0080
  319MOL0     H43027   4.356  11.310   0.263 -2.8904  1.8221 -1.4788
  319MOL0     H43028   4.430  11.493   0.104 -1.3293 -0.0692 -0.2535
  319MOL0     H43029   4.707  11.390  -0.215 -0.2756  0.7188 -0.2790
  319MOL0     H43030   4.556  11.370  -0.295  0.0517 -0.2054 -0.2115
  319MOL0     H43031   4.528  11.591  -0.359 -1.5148 -3.8892  0.0454
  319MOL0     H43032   4.684  11.628  -0.265  1.8500 -0.8880 -0.2513
  319MOL0     H43033   4.789  11.467  -0.437 -1.0623 -1.1096  2.5101
  319MOL0     H43034   4.641  11.444  -0.512 -2.7844  0.8802  0.7536
  319MOL0     H43035   4.803  11.690  -0.507  3.0706 -4.6094 -2.2102
  319MOL0     H43036   4.633  11.717  -0.559  1.1423  1.3080 -0.1009
  319MOL0     H43037   4.665  11.553  -0.743 -2.8483  2.1245  1.3836
  319MOL0     H43038   4.834  11.525  -0.694 -2.3104 -1.9135  0.9393
  319MOL0     H43039   4.773  11.677  -0.893  0.2159  3.6370  0.0337
  319MOL0     H43040   4.722  11.802  -0.778  3.0783  3.4813 -2.8640
  319MOL0     H43041   4.926  11.810  -0.910 -0.9149  2.5621  0.4802
  319MOL0     H43042   4.994  11.674  -0.820 -2.0328 -1.2177  0.4778
  319MOL0     H43043   4.921  11.940  -0.687  1.9361  0.9395  1.3596
  319MOL0     H43044   4.977  11.795  -0.605 -2.3533  0.7847 -0.0450
  319MOL0     H43045   4.601  11.194  -0.150  0.7780 -1.9305  0.4350
  319MOL0     H43046   4.562  11.029   0.032  1.1840  1.1732  1.7947
  319MOL0     H43047   4.041  10.970   0.383 -1.5486 -1.6843  0.5050
  319MOL0     H43048   3.986  10.823   0.568 -0.3126  1.0793 -1.2033
  319MOL0     H43049   3.403   9.245   1.002 -1.2643  4.2031 -1.4863
  319MOL0     H43050   3.227   9.106   0.886  1.2514 -2.0529  1.6212
  319MOL0     H43051   2.986   8.969   0.593  2.5040  0.3938  1.1101
  319MOL0     H43052   2.793   8.840   0.517 -1.2209 -0.0903 -2.3724
  319MOL0     H43053   2.679   8.803   0.297 -2.6461  0.2037 -1.1653
  319MOL0     H43054   2.633   8.707   0.438  1.2429 -1.9779 -0.6602
  319MOL0     H43055   2.579   8.520   0.301 -2.4120  1.2979  3.9682
  319MOL0     H43056   2.616   8.607   0.154  0.1685  0.3081 -0.6432
  319MOL0     H43057   2.431   8.770   0.250  1.7689 -0.4470  0.8485
  319MOL0     H43058   2.383   8.633   0.362 -0.1495 -1.2532 -2.1547
  319MOL0     H43059   2.241   8.616   0.164  0.4693  0.8995 -1.4319
  319MOL0     H43060   2.380   8.608   0.057  0.7806 -1.1430  0.2275
  319MOL0     H43061   2.396   8.231   0.258 -0.9959 -0.9125  0.1945
  319MOL0     H43062   3.042   8.587   0.288 -1.9846  0.3240 -0.8908
  319MOL0     H43063   3.358   8.640   0.443  0.8876 -3.2109 -0.7560
  319MOL0     H43064   3.268   8.552   0.326  0.4430  0.0448 -0.0919
  319MOL0     H43065   3.340   8.722   0.300 -1.4167  3.3349  2.2307
  320MOL0     O43066  11.067   2.894  10.548  0.0449 -0.4198  0.5474
  320MOL0     C43067  11.088   2.853  10.662 -0.2201  0.0080 -0.7090
  320MOL0     O43068  11.030   2.904  10.768  1.5979 -0.0301 -0.2976
  320MOL0     C43069  10.930   2.993  10.736  0.2663 -0.3204  1.0314
  320MOL0     C43070  10.958   3.127  10.761 -0.2790 -0.0352 -0.2909
  320MOL0     C43071  10.863   3.224  10.741 -0.4239 -0.0201  0.2396
  320MOL0     C43072  10.728   3.191  10.707  0.1215  0.5353 -0.4133
  320MOL0     O43073  10.631   3.288  10.694  0.0952 -0.1059 -0.1694
  320MOL0     C43074  10.664   3.400  10.605 -0.8493  0.2058 -0.0874
  320MOL0     C43075  10.544   3.479  10.571  0.5958  0.5156  0.9121
  320MOL0     C43076  10.540   3.564  10.440 -0.4617  0.4309 -0.7064
  320MOL0     C43077  10.398   3.621  10.419  0.9052 -0.3707  0.4930
  320MOL0     C43078  10.398   3.753  10.337 -1.2798  0.2932 -0.5554
  320MOL0     C43079  10.262   3.809  10.315  0.1498  0.5779  0.4265
  320MOL0     C43080  10.268   3.953  10.251 -0.4767  0.7169 -0.2086
  320MOL0     C43081  10.134   4.011  10.223  0.0048 -0.2216 -0.5124
  320MOL0     N43082  10.146   4.134  10.153 -0.6310  0.0402 -0.4252
  320MOL0     C43083  10.250   4.229  10.159 -0.7551  0.1849  0.8595
  320MOL0     C43084  10.208   4.328  10.077 -0.9390  1.3001 -0.3376
  320MOL0     C43085  10.291   4.442  10.040  1.1743  0.4808  0.6662
  320MOL0     C43086  10.364   4.507  10.166  0.0999 -0.0722  0.3452
  320MOL0     C43087  10.379   4.659  10.141  1.0542 -1.1957  0.5776
  320MOL0     C43088  10.237   4.726  10.166  0.2030 -0.8584  0.1107
  320MOL0     O43089  10.262   4.868  10.191 -0.0083 -0.1183  0.7584
  320MOL0     C43090  10.266   4.960  10.092 -0.9732 -0.2458 -0.4439
  320MOL0     C43091  10.238   4.946   9.949  0.0829  0.5613 -0.1288
  320MOL0     C43092  10.247   5.052   9.860  0.4979  1.0176  0.2162
  320MOL0     C43093  10.289   5.176   9.908  0.0847  0.2953  0.2973
  320MOL0     C43094  10.307   5.281   9.807 -0.9897  0.1659  1.1627
  320MOL0     O43095  10.366   5.400   9.850 -0.1111  0.4988 -0.3513
  320MOL0     C43096  10.401   5.493   9.759  0.3522 -0.6305  0.0988
  320MOL0     C43097  10.533   5.517   9.729  0.4536  0.0825  0.0742
  320MOL0     C43098  10.581   5.584   9.615  0.3341 -0.3745 -0.0160
  320MOL0     C43099  10.484   5.621   9.518  0.7503 -1.5537  0.9273
  320MOL0     O43100  10.511   5.691   9.396 -0.0981 -0.4395  0.4084
  320MOL0     C43101  10.654   5.730   9.376 -0.0231  0.0085 -0.3089
  320MOL0     C43102  10.674   5.868   9.453 -0.2739 -1.7247 -0.1612
  320MOL0     C43103  10.814   5.901   9.491 -1.0637 -0.0624  0.1640
  320MOL0     C43104  10.905   5.924   9.361  0.1098  0.4440 -0.3270
  320MOL0     C43105  11.031   6.009   9.370  0.0502  0.0182 -0.5340
  320MOL0     C43106  11.045   6.106   9.489  0.1460  0.1049  0.4568
  320MOL0     C43107  11.152   6.210   9.453 -0.1339  0.5819  0.6119
  320MOL0     C43108  11.125   6.340   9.518 -0.7957  0.2255 -0.7084
  320MOL0    Cl43109  11.266   6.445   9.509 -0.0853 -0.2854  0.2595
  320MOL0     C43110  10.346   5.600   9.551  1.1772 -0.2196  0.2271
  320MOL0     C43111  10.307   5.554   9.675 -0.4031  0.0724 -0.7868
  320MOL0     O43112  10.271   5.255   9.692 -0.3170  0.3122 -0.1418
  320MOL0     C43113  10.310   5.198  10.045 -0.1431 -0.6225  0.5641
  320MOL0     C43114  10.307   5.094  10.132  1.1092 -0.0801 -0.7274
  320MOL0     N43115  10.079   4.305  10.035 -0.0600  0.5749  0.4511
  320MOL0     N43116  10.050   4.183  10.070 -0.3480  0.0311  0.0392
  320MOL0     C43117  10.698   3.056  10.698  0.1366 -1.0192  0.0189
  320MOL0     C43118  10.798   2.958  10.707 -0.5040 -0.0093 -0.4913
  320MOL0     C43119  11.179   2.744  10.676  0.3080  0.7821 -0.0448
  320MOL0     C43120  11.226   2.712  10.802 -0.0938 -0.9826 -0.7172
  320MOL0     C43121  11.316   2.605  10.823 -0.0044  0.2743  0.1708
  320MOL0     C43122  11.345   2.522  10.723  0.6395  0.4815 -1.1505
  320MOL0     O43123  11.420   2.411  10.764  0.3253 -0.3259 -0.4712
  320MOL0     C43124  11.484   2.339  10.650  0.9299  0.0613 -0.3065
  320MOL0     C43125  11.593   2.252  10.696 -0.1321 -0.5374  0.3526
  320MOL0     C43126  11.701   2.325  10.781  0.3068 -1.1032 -0.2435
  320MOL0     C43127  11.836   2.249  10.769  0.1204 -0.0649  1.5058
  320MOL0     C43128  11.890   2.234  10.630 -0.8577 -0.0906  0.0737
  320MOL0     C43129  11.927   2.237  10.519 -0.0290 -0.1511 -0.4376
  320MOL0     C43130  11.276   2.533  10.603  0.1972  0.7462 -0.9205
  320MOL0     C43131  11.209   2.647  10.574 -0.1108  0.0776  0.4779
  320MOL0     C43132  11.176   2.649  10.420  0.5953 -0.0598 -0.7943
  320MOL0     H43133  11.058   3.163  10.783  1.5024 -2.3805 -3.6870
  320MOL0     H43134  10.897   3.325  10.762 -0.2896  0.1224 -0.6231
  320MOL0     H43135  10.725   3.470  10.662 -1.3117 -0.2572  0.9917
  320MOL0     H43136  10.734   3.368  10.526  0.3085 -2.3734  1.8271
  320MOL0     H43137  10.518   3.545  10.655 -0.9563  1.4863 -0.2764
  320MOL0     H43138  10.461   3.409  10.560 -0.7287  1.8541  1.8927
  320MOL0     H43139  10.582   3.505  10.358 -0.3008 -0.9801  0.3471
  320MOL0     H43140  10.610   3.648  10.446  1.8099 -1.0761 -3.5043
  320MOL0     H43141  10.330   3.552  10.368 -0.5418  1.2354  0.1777
  320MOL0     H43142  10.350   3.650  10.513  0.5916  0.9521 -0.0625
  320MOL0     H43143  10.451   3.832  10.390 -0.6283 -0.1165 -0.5896
  320MOL0     H43144  10.451   3.743  10.241  0.3986  1.1055  0.2482
  320MOL0     H43145  10.210   3.741  10.247  1.4119 -0.0323  0.0403
  320MOL0     H43146  10.200   3.808  10.405 -2.6257  0.5955 -1.3611
  320MOL0     H43147  10.324   3.954  10.158 -0.0096  2.6442  0.0551
  320MOL0     H43148  10.335   4.012  10.314  4.6135 -4.2787 -0.0967
  320MOL0     H43149  10.063   3.939  10.182 -1.6160  0.8840  0.2574
  320MOL0     H43150  10.096   4.046  10.319  0.6261  0.6936 -0.5940
  320MOL0     H43151  10.352   4.216  10.193  0.4919 -1.6570 -3.0178
  320MOL0     H43152  10.351   4.400   9.959 -0.6541 -2.3673  0.6451
  320MOL0     H43153  10.225   4.510   9.986  0.1769 -2.6742 -2.4721
  320MOL0     H43154  10.311   4.464  10.252  0.6025 -2.6753 -0.5488
  320MOL0     H43155  10.464   4.462  10.172 -1.1963 -3.4890 -0.9817
  320MOL0     H43156  10.410   4.692  10.042 -1.5559 -1.1146 -0.2796
  320MOL0     H43157  10.456   4.687  10.214 -1.2840  3.7132  1.5546
  320MOL0     H43158  10.199   4.684  10.260 -4.2069 -2.7146 -2.1844
  320MOL0     H43159  10.160   4.707  10.090 -1.7367  0.8519  1.5125
  320MOL0     H43160  10.202   4.847   9.922  1.1378  0.1558 -0.0684
  320MOL0     H43161  10.208   5.032   9.761  3.0683 -1.1320 -0.4917
  320MOL0     H43162  10.593   5.469   9.806  1.4489  2.5356  0.9013
  320MOL0     H43163  10.687   5.595   9.596  0.2428  1.9055  0.5928
  320MOL0     H43164  10.723   5.650   9.405 -2.7103 -2.6355 -0.6234
  320MOL0     H43165  10.683   5.751   9.273  0.2293  1.6261  0.0708
  320MOL0     H43166  10.629   5.956   9.405  1.9327 -0.4777 -0.0705
  320MOL0     H43167  10.622   5.863   9.549 -0.4743  1.3782 -0.0287
  320MOL0     H43168  10.808   5.977   9.569  1.6984  2.7522 -2.1189
  320MOL0     H43169  10.851   5.812   9.543 -1.3441  0.0138  0.4916
  320MOL0     H43170  10.842   5.965   9.281 -2.6021 -1.2793  0.7700
  320MOL0     H43171  10.929   5.823   9.328 -7.6114 -1.4935 -2.1440
  320MOL0     H43172  11.042   6.066   9.277 -1.0026 -2.9093 -2.6155
  320MOL0     H43173  11.118   5.943   9.376 -2.4128 -3.6101 -1.4959
  320MOL0     H43174  10.949   6.159   9.490 -0.1219 -0.2952  3.0417
  320MOL0     H43175  11.063   6.076   9.593 -1.7844 -1.3573  0.4380
  320MOL0     H43176  11.153   6.232   9.346  2.3041  5.0971  1.3314
  320MOL0     H43177  11.246   6.168   9.490 -0.4381 -1.6941 -0.9575
  320MOL0     H43178  11.047   6.400   9.470 -0.6059  0.4355 -0.7540
  320MOL0     H43179  11.091   6.322   9.621  0.0672 -1.7816 -0.7218
  320MOL0     H43180  10.263   5.626   9.486  0.9747 -2.1073 -0.3317
  320MOL0     H43181  10.204   5.536   9.705 -0.1844 -1.7600 -1.0211
  320MOL0     H43182  10.344   5.293  10.084 -1.9850  0.3335 -0.0562
  320MOL0     H43183  10.346   5.106  10.232 -2.4020 -0.7559  0.8883
  320MOL0     H43184  10.601   3.026  10.660 -1.6334 -0.4063  3.6316
  320MOL0     H43185  10.760   2.856  10.706 -0.1407 -0.1542  0.1560
  320MOL0     H43186  11.200   2.764  10.893  0.1485 -4.3292  1.4234
  320MOL0     H43187  11.365   2.606  10.919 -2.1358  0.9499  1.3200
  320MOL0     H43188  11.517   2.400  10.566 -1.0173  1.5846 -0.0376
  320MOL0     H43189  11.406   2.276  10.606 -1.9192  4.1674 -1.7734
  320MOL0     H43190  11.641   2.217  10.604  1.0358 -2.2265  1.5580
  320MOL0     H43191  11.542   2.170  10.748 -0.7035 -1.1464 -1.0927
  320MOL0     H43192  11.663   2.328  10.884 -0.2000  0.0013 -0.4515
  320MOL0     H43193  11.706   2.426  10.739  1.7000 -0.9585  0.2276
  320MOL0     H43194  11.914   2.296  10.829  0.4345  0.9645  0.3394
  320MOL0     H43195  11.824   2.145  10.802 -0.7975 -0.5488 -0.2278
  320MOL0     H43196  11.952   2.241  10.415  0.6112 -0.6070 -0.3049
  320MOL0     H43197  11.297   2.457  10.528  1.3963 -0.0182  0.1563
  320MOL0     H43198  11.187   2.546  10.385 -1.7771 -2.1278  3.7785
  320MOL0     H43199  11.074   2.687  10.407 -0.0932 -1.5247  0.2119
  320MOL0     H43200  11.238   2.721  10.366  0.0974  0.4272 -0.7302
  321MOL0     O43201   9.578   8.625   5.607  0.1828  0.2840  0.9987
  321MOL0     C43202   9.574   8.751   5.622 -0.3547  1.1070  1.1198
  321MOL0     O43203   9.675   8.828   5.606  0.1212 -0.0273 -0.2701
  321MOL0     C43204   9.797   8.767   5.579 -0.8223  0.3985  0.4966
  321MOL0     C43205   9.810   8.677   5.475  0.2017 -0.0971  0.0009
  321MOL0     C43206   9.936   8.610   5.459 -0.1255  0.4386  0.0376
  321MOL0     C43207  10.050   8.658   5.526  0.4089 -0.0632 -0.9495
  321MOL0     O43208  10.168   8.629   5.475  0.1920 -0.0222 -0.3038
  321MOL0     C43209  10.289   8.637   5.554  0.5047  0.7377 -0.3416
  321MOL0     C43210  10.407   8.564   5.466  0.2358  0.9330 -0.5911
  321MOL0     C43211  10.458   8.630   5.338  1.0578 -0.6118 -0.1373
  321MOL0     C43212  10.586   8.569   5.291 -0.0340 -0.3964  0.3829
  321MOL0     C43213  10.648   8.657   5.173  0.8686 -0.0807  0.8056
  321MOL0     C43214  10.760   8.575   5.103  0.3243  0.2523  0.4803
  321MOL0     C43215  10.821   8.653   4.982  0.3364 -0.0168 -1.2622
  321MOL0     C43216  10.895   8.786   5.018 -0.5831 -0.1772  0.9654
  321MOL0     N43217  10.944   8.854   4.895 -0.4282 -0.5205  0.1195
  321MOL0     C43218  11.068   8.840   4.832  0.3340 -0.1200 -0.2987
  321MOL0     C43219  11.060   8.917   4.725 -0.1534  0.2558 -0.1337
  321MOL0     C43220  11.140   8.939   4.597  0.6159 -0.7765  0.1328
  321MOL0     C43221  11.050   8.925   4.472 -0.2804  0.6676 -0.6662
  321MOL0     C43222  11.135   8.948   4.351 -0.2417  0.4270 -0.3344
  321MOL0     C43223  11.088   8.876   4.223  0.5348  0.8392 -0.2170
  321MOL0     O43224  11.095   8.731   4.250  0.0771 -0.0162 -0.1851
  321MOL0     C43225  11.131   8.644   4.156  0.6350  0.0140  0.2279
  321MOL0     C43226  11.102   8.510   4.197 -0.9977 -0.5419  0.0674
  321MOL0     C43227  11.149   8.410   4.118  0.4966  0.3972  0.4955
  321MOL0     C43228  11.207   8.436   3.994 -0.1156  0.2840 -0.2618
  321MOL0     C43229  11.242   8.317   3.912  0.3369 -0.7760 -0.1343
  321MOL0     O43230  11.219   8.186   3.961  0.0238 -0.0011 -1.0667
  321MOL0     C43231  11.258   8.074   3.899  0.6992 -0.4108  0.5997
  321MOL0     C43232  11.372   8.064   3.807  0.3467 -0.2640  0.5610
  321MOL0     C43233  11.387   7.932   3.744 -0.8012 -0.5218  0.4399
  321MOL0     C43234  11.296   7.833   3.776  0.1307  0.2643  0.8813
  321MOL0     O43235  11.319   7.705   3.723 -0.9511 -0.7929 -0.7692
  321MOL0     C43236  11.431   7.671   3.629  0.5755  0.0229  0.0448
  321MOL0     C43237  11.426   7.513   3.619  0.0629  0.2971 -0.0620
  321MOL0     C43238  11.554   7.459   3.547 -0.2024 -0.3088  0.5472
  321MOL0     C43239  11.576   7.549   3.415 -0.4144 -0.7704  0.1326
  321MOL0     C43240  11.668   7.481   3.310  0.0743  0.0534  0.0259
  321MOL0     C43241  11.800   7.429   3.359  0.5523  0.0705  0.0978
  321MOL0     C43242  11.905   7.536   3.396 -0.1242  0.9357 -0.1206
  321MOL0     C43243  12.046   7.479   3.416 -0.9069  0.1491 -0.4660
  321MOL0    Cl43244  12.048   7.328   3.515 -0.5264 -0.0319  0.1372
  321MOL0     C43245  11.184   7.849   3.857  0.0600  0.1659 -1.1027
  321MOL0     C43246  11.168   7.981   3.917 -0.6200  0.5203  0.2385
  321MOL0     O43247  11.286   8.342   3.799  0.5424 -0.2454 -0.2719
  321MOL0     C43248  11.234   8.568   3.956 -0.4539 -0.0964  0.4119
  321MOL0     C43249  11.189   8.676   4.033  0.5401  0.9572 -0.1149
  321MOL0     N43250  10.949   8.997   4.733  0.3861 -0.2375 -0.1097
  321MOL0     N43251  10.887   8.962   4.839 -0.1851  0.6745 -0.2325
  321MOL0     C43252  10.031   8.751   5.630 -1.0012 -0.4925  0.4008
  321MOL0     C43253   9.907   8.805   5.653 -0.7782 -0.6808 -1.0251
  321MOL0     C43254   9.447   8.802   5.657 -1.4992 -0.4404  0.6196
  321MOL0     C43255   9.333   8.731   5.618  0.6422 -0.6521 -0.2748
  321MOL0     C43256   9.212   8.787   5.649  0.2711  0.1684 -0.0247
  321MOL0     C43257   9.196   8.903   5.725  0.7807 -0.3430  0.2788
  321MOL0     O43258   9.068   8.964   5.744  0.4861 -0.2388 -0.1018
  321MOL0     C43259   8.970   8.934   5.640 -0.6750 -0.8536  0.1079
  321MOL0     C43260   8.844   9.023   5.652 -0.5232  0.1990 -0.0180
  321MOL0     C43261   8.749   8.999   5.524 -0.2344  0.1278  0.4995
  321MOL0     C43262   8.636   9.103   5.509 -0.1028  0.6196 -0.7002
  321MOL0     C43263   8.537   9.074   5.618  0.7658 -0.0394  0.2309
  321MOL0     C43264   8.464   9.020   5.697 -0.3682 -0.5980 -0.5879
  321MOL0     C43265   9.307   8.968   5.771  0.1943  0.3186 -0.7783
  321MOL0     C43266   9.433   8.914   5.747  1.0724 -0.7882  0.6989
  321MOL0     C43267   9.548   8.963   5.831 -0.2476 -0.0378  0.1931
  321MOL0     H43268   9.727   8.636   5.418  1.1337 -0.3655 -1.1832
  321MOL0     H43269   9.941   8.541   5.375  1.9898  1.3725 -0.6696
  321MOL0     H43270  10.316   8.739   5.585 -1.5387  0.2025  3.8639
  321MOL0     H43271  10.281   8.577   5.646  0.6672 -0.6521 -1.2006
  321MOL0     H43272  10.371   8.465   5.438  0.7676  0.6385 -0.2655
  321MOL0     H43273  10.495   8.546   5.529  2.1973  1.9706 -2.8492
  321MOL0     H43274  10.464   8.739   5.344  0.7826 -0.5704 -0.5314
  321MOL0     H43275  10.394   8.607   5.252  1.9564 -1.6702 -0.5487
  321MOL0     H43276  10.668   8.573   5.363  3.1922 -1.2219 -2.9632
  321MOL0     H43277  10.569   8.462   5.279  3.2920 -1.0584  0.6160
  321MOL0     H43278  10.575   8.668   5.092  1.7291 -1.3068 -0.1661
  321MOL0     H43279  10.681   8.755   5.208  2.6779  0.7207 -2.7302
  321MOL0     H43280  10.845   8.542   5.165  0.9020  1.2532  0.2336
  321MOL0     H43281  10.711   8.492   5.052 -4.4455  3.6914 -1.2658
  321MOL0     H43282  10.738   8.685   4.917 -1.3172  0.4791  0.9639
  321MOL0     H43283  10.888   8.586   4.927  1.2615  0.9482 -1.3451
  321MOL0     H43284  10.817   8.848   5.062 -2.3667  0.6365 -2.9747
  321MOL0     H43285  10.977   8.765   5.088 -0.6268  0.2254  1.1403
  321MOL0     H43286  11.157   8.795   4.874  0.2778  0.5939  0.6151
  321MOL0     H43287  11.170   9.045   4.601 -0.7691 -0.2988 -1.3143
  321MOL0     H43288  11.227   8.873   4.597  1.6852  0.5591  0.7794
  321MOL0     H43289  10.999   8.829   4.459  1.2609  0.1141 -3.4748
  321MOL0     H43290  10.971   9.000   4.480 -0.0942  0.8751 -0.7647
  321MOL0     H43291  11.238   8.924   4.379 -0.1005  3.5675  2.4232
  321MOL0     H43292  11.124   9.055   4.332  0.0538  0.3125 -1.2089
  321MOL0     H43293  11.152   8.901   4.138 -1.1007  0.3447 -1.6441
  321MOL0     H43294  10.988   8.908   4.193 -0.3262 -1.4219  0.0170
  321MOL0     H43295  11.044   8.494   4.287 -0.9466  0.4773  0.3008
  321MOL0     H43296  11.127   8.313   4.160  0.4991 -0.7437 -1.9704
  321MOL0     H43297  11.445   8.145   3.800 -0.2132  0.1808 -0.3978
  321MOL0     H43298  11.475   7.919   3.681  0.1103  1.7672  1.1767
  321MOL0     H43299  11.422   7.727   3.535 -4.0843  3.3156  2.0370
  321MOL0     H43300  11.527   7.708   3.666  1.2225  2.7826 -3.7361
  321MOL0     H43301  11.417   7.466   3.717 -1.3366  4.3170  1.9691
  321MOL0     H43302  11.328   7.488   3.578  0.4309 -2.8023  0.7156
  321MOL0     H43303  11.638   7.469   3.617  1.7878 -0.2241 -1.7204
  321MOL0     H43304  11.552   7.351   3.531  2.0623 -0.1837 -1.1302
  321MOL0     H43305  11.637   7.634   3.446  0.1095 -0.8417 -0.6787
  321MOL0     H43306  11.493   7.592   3.358 -1.9918 -2.5045  1.0211
  321MOL0     H43307  11.690   7.540   3.221  1.2174 -1.7143 -0.9227
  321MOL0     H43308  11.611   7.400   3.264  1.1979 -0.4383 -0.5305
  321MOL0     H43309  11.781   7.365   3.446  0.9753 -0.3290 -0.0994
  321MOL0     H43310  11.840   7.365   3.280  1.8109  1.8406 -0.7834
  321MOL0     H43311  11.884   7.586   3.491 -0.3291  1.8170 -0.6091
  321MOL0     H43312  11.899   7.607   3.313 -3.8546 -0.4557 -1.2451
  321MOL0     H43313  12.088   7.446   3.320  2.6720 -1.4486  1.4748
  321MOL0     H43314  12.104   7.559   3.462  0.8744 -1.6373  0.5560
  321MOL0     H43315  11.111   7.772   3.881  1.0142 -0.0245  1.4949
  321MOL0     H43316  11.088   7.993   3.990  0.2743 -1.7002  1.6860
  321MOL0     H43317  11.284   8.589   3.862  0.9050 -1.4599  0.7828
  321MOL0     H43318  11.211   8.775   3.994  0.2840  1.2920  0.5931
  321MOL0     H43319  10.114   8.794   5.686  0.1090  0.0960 -1.6021
  321MOL0     H43320   9.878   8.873   5.731 -0.8909 -3.3194  1.3821
  321MOL0     H43321   9.341   8.638   5.561  1.0930  0.5265 -2.2108
  321MOL0     H43322   9.132   8.720   5.622  1.3528 -1.8539  1.4905
  321MOL0     H43323   8.949   8.827   5.633  1.2220 -1.2220 -0.5374
  321MOL0     H43324   9.015   8.956   5.543  1.2025  1.4393  1.3832
  321MOL0     H43325   8.878   9.125   5.630 -0.0160 -0.2454 -1.4424
  321MOL0     H43326   8.791   9.015   5.747 -0.1378 -3.4443  0.0439
  321MOL0     H43327   8.710   8.899   5.543 -1.5695  0.5426  0.0766
  321MOL0     H43328   8.811   8.999   5.433 -1.0077 -1.0759 -0.0522
  321MOL0     H43329   8.667   9.207   5.522  2.1793 -0.1227  0.3880
  321MOL0     H43330   8.598   9.091   5.407 -1.8812  3.6017 -0.4846
  321MOL0     H43331   8.393   8.963   5.754 -0.6471 -1.1903 -1.5105
  321MOL0     H43332   9.294   9.047   5.844 -1.7680 -0.9636  0.3678
  321MOL0     H43333   9.610   9.038   5.781  0.5897 -0.7006  0.2147
  321MOL0     H43334   9.504   8.992   5.927 -0.5880  2.0805 -0.5578
  321MOL0     H43335   9.624   8.884   5.842 -1.0356 -0.8673 -0.1872
  322MOL0     O43336   0.945   5.631   4.932 -0.7875 -0.2171 -0.1473
  322MOL0     C43337   0.904   5.524   4.967 -0.3222  0.5062 -0.0856
  322MOL0     O43338   0.931   5.402   4.899 -0.1702 -0.2722 -0.4426
  322MOL0     C43339   1.032   5.403   4.814 -0.6800  0.8389 -0.2406
  322MOL0     C43340   1.163   5.374   4.865 -0.7938 -0.1586  0.4926
  322MOL0     C43341   1.265   5.364   4.763 -0.3484 -0.3196  0.1607
  322MOL0     C43342   1.238   5.390   4.634  0.6172 -0.5439 -0.0191
  322MOL0     O43343   1.343   5.374   4.550  0.3750  1.0257  0.2125
  322MOL0     C43344   1.331   5.311   4.416 -0.9891 -0.8804  0.3019
  322MOL0     C43345   1.468   5.306   4.351 -0.7244  0.6231  0.3944
  322MOL0     C43346   1.541   5.443   4.346  0.2136 -0.7102 -0.2892
  322MOL0     C43347   1.549   5.498   4.195 -0.1159 -0.5149 -1.0536
  322MOL0     C43348   1.584   5.643   4.186  0.6835 -1.1490  0.3207
  322MOL0     C43349   1.595   5.683   4.039 -0.1817 -0.2558  0.0693
  322MOL0     C43350   1.668   5.814   4.027 -0.3237 -0.2080 -0.3204
  322MOL0     C43351   1.687   5.868   3.883 -0.0252  0.7054 -0.1738
  322MOL0     N43352   1.743   6.006   3.873 -0.4439  0.1116  0.5700
  322MOL0     C43353   1.808   6.068   3.974  0.0033  0.5363  0.6797
  322MOL0     C43354   1.864   6.177   3.912  0.0792  0.1857 -0.0508
  322MOL0     C43355   1.937   6.287   3.995  0.1732  0.3914 -0.9102
  322MOL0     C43356   1.854   6.344   4.116 -0.0267 -0.3884 -0.4100
  322MOL0     C43357   1.898   6.474   4.191  0.3551  0.2994  1.3848
  322MOL0     C43358   2.041   6.462   4.243  0.9861  0.5079 -0.8239
  322MOL0     O43359   2.127   6.505   4.136  0.5583 -0.1284  0.4894
  322MOL0     C43360   2.264   6.479   4.152 -0.0264  0.4971 -0.1357
  322MOL0     C43361   2.341   6.490   4.036 -0.1205  0.0595 -0.4162
  322MOL0     C43362   2.477   6.508   4.046  0.5273  0.2219  1.1197
  322MOL0     C43363   2.553   6.477   4.159 -0.7055  0.3880  0.7303
  322MOL0     C43364   2.706   6.496   4.152  0.9257 -0.7425 -0.8216
  322MOL0     O43365   2.771   6.476   4.266 -0.0678  0.0292 -0.1700
  322MOL0     C43366   2.900   6.518   4.263 -0.3142 -0.0367  1.3091
  322MOL0     C43367   2.948   6.646   4.299 -0.3961 -0.3578  0.4663
  322MOL0     C43368   3.086   6.669   4.309 -1.1657 -0.1642 -0.4630
  322MOL0     C43369   3.181   6.564   4.286 -0.5507  0.9876 -0.0336
  322MOL0     O43370   3.316   6.574   4.318 -0.7697 -0.7249 -0.5518
  322MOL0     C43371   3.407   6.510   4.225 -0.0535  0.2262  0.5872
  322MOL0     C43372   3.485   6.388   4.296  0.4452 -0.2061  0.3583
  322MOL0     C43373   3.597   6.342   4.206 -0.9652  0.4656  0.3245
  322MOL0     C43374   3.731   6.410   4.246  0.8390  1.2874 -0.9953
  322MOL0     C43375   3.787   6.354   4.380 -0.7523 -0.8775 -0.2999
  322MOL0     C43376   3.941   6.343   4.407  0.0086 -0.1361  0.4655
  322MOL0     C43377   3.983   6.214   4.479  0.0497 -0.2189 -0.4637
  322MOL0     C43378   3.908   6.197   4.603  0.0230  0.0759  0.5559
  322MOL0    Cl43379   3.959   6.336   4.708  0.1771  0.8680  0.6963
  322MOL0     C43380   3.120   6.439   4.262  0.4368 -0.4921  0.2572
  322MOL0     C43381   2.996   6.419   4.237  0.7095 -0.7337  1.0387
  322MOL0     O43382   2.757   6.529   4.043 -0.3555 -0.5011 -0.4583
  322MOL0     C43383   2.483   6.458   4.277  0.0386  0.3138  0.3279
  322MOL0     C43384   2.339   6.457   4.274 -0.0682 -0.1647  0.3200
  322MOL0     N43385   1.828   6.184   3.775  0.3374  0.3467  0.3447
  322MOL0     N43386   1.761   6.073   3.756  1.0195  0.4416  0.7964
  322MOL0     C43387   1.110   5.414   4.593 -0.8601  0.6231  0.5791
  322MOL0     C43388   1.007   5.412   4.678 -1.1875  0.4513 -0.7477
  322MOL0     C43389   0.804   5.498   5.068  0.8462 -0.3220 -0.5083
  322MOL0     C43390   0.819   5.401   5.164  0.1826  0.2908 -0.0749
  322MOL0     C43391   0.707   5.365   5.236 -0.6635  0.2582  0.6293
  322MOL0     C43392   0.574   5.405   5.213 -1.1797  0.4494 -0.2581
  322MOL0     O43393   0.470   5.368   5.298 -0.2127  0.7215  0.5503
  322MOL0     C43394   0.448   5.454   5.414 -0.2681 -0.3229  0.6082
  322MOL0     C43395   0.307   5.521   5.399  0.1860  0.7668  0.5145
  322MOL0     C43396   0.276   5.637   5.298  0.1353  0.4448 -0.5350
  322MOL0     C43397   0.331   5.767   5.338 -0.5480 -0.1485 -0.3545
  322MOL0     C43398   0.259   5.818   5.457 -0.3029  0.4715  0.7851
  322MOL0     C43399   0.237   5.859   5.563  0.0779  0.0053  0.5551
  322MOL0     C43400   0.564   5.503   5.118 -0.4580 -0.0331  0.4332
  322MOL0     C43401   0.674   5.553   5.044  0.3129  0.4775 -1.1435
  322MOL0     C43402   0.655   5.647   4.933 -0.3164  0.3931  0.7154
  322MOL0     H43403   1.188   5.367   4.971  0.0437  1.7382  0.4665
  322MOL0     H43404   1.369   5.356   4.791 -0.3704  1.7909  1.0438
  322MOL0     H43405   1.281   5.214   4.429 -0.4458 -0.9845  1.7399
  322MOL0     H43406   1.280   5.380   4.348  3.6539  1.6279 -1.0619
  322MOL0     H43407   1.469   5.275   4.246  2.7538  1.5634  0.0320
  322MOL0     H43408   1.521   5.235   4.415 -1.7282 -2.0026 -1.5130
  322MOL0     H43409   1.642   5.451   4.386 -0.2094  1.0085  0.5564
  322MOL0     H43410   1.482   5.524   4.390 -1.5143  0.1469 -3.7612
  322MOL0     H43411   1.621   5.435   4.142 -1.4639 -2.4924 -0.6694
  322MOL0     H43412   1.459   5.486   4.132 -1.2434 -0.6876  0.5258
  322MOL0     H43413   1.527   5.722   4.234  0.4509 -2.4443  2.2826
  322MOL0     H43414   1.684   5.646   4.232  2.4879 -1.8178 -3.1671
  322MOL0     H43415   1.638   5.612   3.968 -0.6757  1.9481 -2.6043
  322MOL0     H43416   1.498   5.701   3.993 -0.9485 -0.2320  1.6382
  322MOL0     H43417   1.762   5.825   4.082 -2.8568  6.6550  3.8609
  322MOL0     H43418   1.612   5.899   4.067  2.0895  1.8686 -1.0522
  322MOL0     H43419   1.762   5.807   3.832 -0.0330  2.3815 -2.3718
  322MOL0     H43420   1.593   5.867   3.827 -0.1373  0.3987  0.0186
  322MOL0     H43421   1.814   6.045   4.080  4.9922 -0.0315  0.5144
  322MOL0     H43422   2.030   6.249   4.040 -0.2736  1.8357  1.4178
  322MOL0     H43423   1.973   6.364   3.925  2.2353  2.6982  2.3895
  322MOL0     H43424   1.761   6.373   4.068  0.1620 -0.4792 -0.8333
  322MOL0     H43425   1.837   6.274   4.199 -1.2385 -1.5333 -1.5742
  322MOL0     H43426   1.817   6.489   4.263  1.3367 -0.6026  2.7232
  322MOL0     H43427   1.897   6.559   4.122  4.2047  0.4679  1.3186
  322MOL0     H43428   2.060   6.357   4.268 -2.5847  0.3468  1.9694
  322MOL0     H43429   2.054   6.526   4.331  0.5031  1.3427 -1.3497
  322MOL0     H43430   2.302   6.516   3.938 -3.5582  2.3108  1.3456
  322MOL0     H43431   2.531   6.522   3.953 -0.2977  2.7331  0.9440
  322MOL0     H43432   2.875   6.727   4.293  0.8225  0.7399 -0.0999
  322MOL0     H43433   3.121   6.770   4.328  0.3211 -0.9564  1.2642
  322MOL0     H43434   3.346   6.473   4.142 -0.5779 -1.7972  1.8198
  322MOL0     H43435   3.482   6.583   4.192 -0.1440  0.5632  1.1126
  322MOL0     H43436   3.520   6.422   4.394 -1.3604 -0.5994  1.1880
  322MOL0     H43437   3.418   6.305   4.322  0.9001 -1.3779 -1.9624
  322MOL0     H43438   3.602   6.234   4.222 -0.3730  0.3830 -0.3638
  322MOL0     H43439   3.571   6.373   4.104  0.7220  0.8782 -0.0118
  322MOL0     H43440   3.705   6.516   4.247 -0.7183  0.9506  1.1714
  322MOL0     H43441   3.806   6.380   4.172 -0.2312  0.6664 -1.8797
  322MOL0     H43442   3.769   6.247   4.373  5.5691 -2.2401 -4.3081
  322MOL0     H43443   3.724   6.387   4.463 -2.5895  0.7111 -2.2353
  322MOL0     H43444   3.997   6.349   4.313  0.8830  1.0872  1.0360
  322MOL0     H43445   3.978   6.427   4.466 -0.4120  2.5763 -2.8217
  322MOL0     H43446   4.089   6.217   4.505 -0.1980 -0.0859  0.6092
  322MOL0     H43447   3.974   6.127   4.414 -1.1706 -1.6657  1.4950
  322MOL0     H43448   3.802   6.203   4.578  0.3558  1.4206 -0.6509
  322MOL0     H43449   3.922   6.103   4.657  0.2708 -2.0575 -2.8888
  322MOL0     H43450   3.182   6.351   4.252  2.3364  0.7849  0.1383
  322MOL0     H43451   2.959   6.324   4.201  0.0794  0.9250 -3.2524
  322MOL0     H43452   2.540   6.447   4.368  0.7022  2.8522  0.3109
  322MOL0     H43453   2.297   6.436   4.372 -1.4457 -0.7469 -0.3701
  322MOL0     H43454   1.093   5.424   4.487 -3.5970 -1.0475  0.7576
  322MOL0     H43455   0.910   5.439   4.639 -0.4608  4.0801 -0.3862
  322MOL0     H43456   0.915   5.352   5.168  1.3888  1.9038 -4.0544
  322MOL0     H43457   0.711   5.287   5.312 -0.9098  0.9913  1.4099
  322MOL0     H43458   0.532   5.522   5.433  0.4434 -1.2961  1.0383
  322MOL0     H43459   0.441   5.384   5.498 -0.0447 -2.9813 -1.4701
  322MOL0     H43460   0.275   5.550   5.500  1.4350 -1.6893  1.7126
  322MOL0     H43461   0.243   5.436   5.373  1.9751 -0.3102 -0.6063
  322MOL0     H43462   0.167   5.632   5.291  0.1284 -3.8989 -0.0935
  322MOL0     H43463   0.311   5.610   5.199  0.3914  1.7549 -0.8154
  322MOL0     H43464   0.439   5.750   5.341 -0.6455 -0.6587  0.9818
  322MOL0     H43465   0.323   5.840   5.258  2.2984  2.7987  1.7833
  322MOL0     H43466   0.217   5.883   5.666 -2.4201 -1.8770  0.6109
  322MOL0     H43467   0.477   5.558   5.083  1.5054  1.1817 -3.0560
  322MOL0     H43468   0.725   5.730   4.943  1.6758 -1.1710  0.6092
  322MOL0     H43469   0.687   5.598   4.840 -0.4738  2.3506 -0.4071
  322MOL0     H43470   0.550   5.673   4.918 -0.4833  0.9291  2.6193
  323MOL0     O43471   1.750   4.947   5.973  0.0360 -0.6204  0.0363
  323MOL0     C43472   1.634   4.891   5.974 -0.7347 -0.8845  0.2763
  323MOL0     O43473   1.558   4.883   6.083 -0.7648 -0.1381  0.0248
  323MOL0     C43474   1.592   4.941   6.200  0.5209  0.0302 -0.0837
  323MOL0     C43475   1.712   4.924   6.273  0.6029 -0.4654 -0.2683
  323MOL0     C43476   1.729   4.975   6.402  0.5255  0.1585 -0.2858
  323MOL0     C43477   1.626   5.053   6.465 -0.2934 -1.1161  0.9079
  323MOL0     O43478   1.646   5.087   6.600  0.1307 -0.7808 -0.5745
  323MOL0     C43479   1.639   4.977   6.685 -0.1719 -0.5620 -0.3947
  323MOL0     C43480   1.628   5.036   6.818 -0.4590 -0.7858 -0.1617
  323MOL0     C43481   1.626   4.926   6.917 -0.6562 -0.1839 -0.3086
  323MOL0     C43482   1.589   4.972   7.059  0.4735  0.8188 -0.5430
  323MOL0     C43483   1.594   4.850   7.157 -1.1117 -0.2281  0.1839
  323MOL0     C43484   1.567   4.891   7.303  0.7548  0.3335  0.2585
  323MOL0     C43485   1.528   4.763   7.392 -0.3881  0.6071  0.8885
  323MOL0     C43486   1.385   4.716   7.358  0.3820  0.9560  1.0073
  323MOL0     N43487   1.360   4.589   7.429  0.0612  0.0118 -0.3475
  323MOL0     C43488   1.347   4.588   7.566  0.0883  0.5645  0.3438
  323MOL0     C43489   1.330   4.455   7.599  0.8665  0.0804  0.3220
  323MOL0     C43490   1.286   4.400   7.730 -0.3623 -0.5221 -0.5007
  323MOL0     C43491   1.140   4.419   7.763  0.2742 -0.3348 -0.0951
  323MOL0     C43492   1.041   4.363   7.664 -0.3618  0.2833  1.0506
  323MOL0     C43493   1.075   4.231   7.603 -0.0409 -1.2447  0.0718
  323MOL0     O43494   0.960   4.178   7.531  0.8253 -0.8352  0.2494
  323MOL0     C43495   0.930   4.236   7.406 -0.1953 -0.0912  0.0500
  323MOL0     C43496   0.798   4.233   7.372 -0.0998  0.6584 -0.0966
  323MOL0     C43497   0.751   4.286   7.257 -0.1518 -0.5758 -0.3467
  323MOL0     C43498   0.833   4.347   7.157 -1.0573  0.0062 -0.0569
  323MOL0     C43499   0.767   4.408   7.034 -0.6093  0.6146 -0.2758
  323MOL0     O43500   0.647   4.475   7.043  0.6805 -0.1903 -0.1946
  323MOL0     C43501   0.631   4.581   6.958 -0.1592  0.1423 -0.5435
  323MOL0     C43502   0.683   4.712   6.985 -0.7194 -0.1490  0.5454
  323MOL0     C43503   0.687   4.811   6.892  0.0369 -0.8349 -0.5541
  323MOL0     C43504   0.640   4.787   6.761  0.6551  0.2527  0.1823
  323MOL0     O43505   0.664   4.884   6.667  0.3290 -0.5578 -0.0868
  323MOL0     C43506   0.599   4.882   6.537  0.9225  0.6534 -0.8508
  323MOL0     C43507   0.645   5.001   6.453  0.7942 -0.1444  0.2255
  323MOL0     C43508   0.540   5.059   6.362 -0.2293  0.0131 -0.5317
  323MOL0     C43509   0.613   5.158   6.271  0.0558  0.0287  0.0689
  323MOL0     C43510   0.511   5.243   6.198 -0.7182  0.0725 -0.6311
  323MOL0     C43511   0.496   5.390   6.264 -0.1472  1.1022  0.3136
  323MOL0     C43512   0.619   5.477   6.270 -0.6686  0.3200 -0.1117
  323MOL0     C43513   0.657   5.525   6.125 -0.0736 -0.5393  0.3060
  323MOL0    Cl43514   0.801   5.620   6.118 -0.3667 -0.0450 -0.1293
  323MOL0     C43515   0.577   4.662   6.733  0.2750  0.1004  0.3334
  323MOL0     C43516   0.569   4.558   6.831 -0.5187 -0.5114 -0.2962
  323MOL0     O43517   0.823   4.377   6.928 -0.0487  0.1070 -0.4460
  323MOL0     C43518   0.973   4.353   7.197  0.8504 -1.8369  0.2293
  323MOL0     C43519   1.023   4.300   7.317  0.3204  0.4979 -0.8132
  323MOL0     N43520   1.356   4.376   7.483  0.3556  0.4793 -0.3687
  323MOL0     N43521   1.362   4.460   7.382  0.2783 -0.4124 -0.0149
  323MOL0     C43522   1.516   5.081   6.383 -0.0900 -0.0314 -0.0210
  323MOL0     C43523   1.493   5.018   6.260 -0.4112 -0.3743 -0.0876
  323MOL0     C43524   1.597   4.818   5.856  0.5820  0.2821  0.9283
  323MOL0     C43525   1.502   4.711   5.880  0.6617  0.0067 -0.0567
  323MOL0     C43526   1.448   4.646   5.778 -0.5193 -0.7622 -0.0548
  323MOL0     C43527   1.491   4.660   5.652 -0.4484  0.1557 -0.0994
  323MOL0     O43528   1.429   4.598   5.556 -0.5043 -0.5186 -0.9190
  323MOL0     C43529   1.369   4.691   5.467  0.1478  0.8025 -0.4858
  323MOL0     C43530   1.272   4.618   5.371  0.6248 -0.5997  0.2644
  323MOL0     C43531   1.125   4.607   5.416 -0.4551 -0.3653  0.7351
  323MOL0     C43532   1.047   4.510   5.319  0.3865 -1.6887  0.5883
  323MOL0     C43533   1.063   4.365   5.328  0.6210  0.0882 -0.0178
  323MOL0     C43534   1.076   4.240   5.342 -0.2601 -0.1643  0.3976
  323MOL0     C43535   1.603   4.745   5.621 -0.2801  0.8003  0.6061
  323MOL0     C43536   1.652   4.834   5.720  0.6869  0.3688  0.2617
  323MOL0     C43537   1.772   4.927   5.684 -0.5089  0.1874 -0.2049
  323MOL0     H43538   1.795   4.882   6.218  2.1431  3.0305 -0.8861
  323MOL0     H43539   1.825   4.953   6.449 -0.9699 -4.0955  1.1928
  323MOL0     H43540   1.556   4.908   6.666 -0.9604 -0.2327  1.6147
  323MOL0     H43541   1.740   4.934   6.691  0.8052  1.7645  1.7885
  323MOL0     H43542   1.540   5.100   6.823 -0.4329 -0.8480  1.9700
  323MOL0     H43543   1.705   5.110   6.842 -1.9511 -0.0507  2.8619
  323MOL0     H43544   1.727   4.886   6.915 -2.2404 -4.7738 -1.1219
  323MOL0     H43545   1.560   4.846   6.882  0.0059 -0.8001 -0.1760
  323MOL0     H43546   1.648   5.057   7.093 -0.3201  1.1732 -0.0151
  323MOL0     H43547   1.484   5.003   7.051  0.6686  1.0616 -3.1651
  323MOL0     H43548   1.532   4.766   7.124 -1.6272 -0.0700  0.7477
  323MOL0     H43549   1.692   4.802   7.154 -1.3795 -0.8884  1.4215
  323MOL0     H43550   1.647   4.953   7.345 -0.4836  1.0588  1.6636
  323MOL0     H43551   1.480   4.958   7.304 -1.0924 -1.9440  0.3783
  323MOL0     H43552   1.530   4.781   7.500 -1.1215  1.7243  0.7254
  323MOL0     H43553   1.595   4.680   7.367 -0.1871  1.9125 -3.8145
  323MOL0     H43554   1.317   4.798   7.385 -2.4226 -0.5922 -0.8068
  323MOL0     H43555   1.385   4.703   7.249  3.3995  0.8316  0.9533
  323MOL0     H43556   1.356   4.671   7.635  0.3466  0.7811  0.0504
  323MOL0     H43557   1.315   4.295   7.732 -1.6881 -1.0022 -2.8706
  323MOL0     H43558   1.337   4.453   7.811 -1.8989  0.0884  0.1061
  323MOL0     H43559   1.125   4.368   7.859 -3.9691 -2.5892 -1.6686
  323MOL0     H43560   1.126   4.527   7.762  0.1619 -0.3483 -0.0400
  323MOL0     H43561   1.036   4.431   7.577 -2.4762 -3.6695 -2.2616
  323MOL0     H43562   0.937   4.358   7.698 -0.1506  0.6965  1.7725
  323MOL0     H43563   1.107   4.165   7.684  1.4098 -0.9448 -0.2399
  323MOL0     H43564   1.165   4.232   7.541  1.4642  1.3831  2.0330
  323MOL0     H43565   0.740   4.184   7.450 -0.7610  0.6689 -0.5636
  323MOL0     H43566   0.647   4.286   7.229 -0.9812  0.9817  2.3911
  323MOL0     H43567   0.738   4.728   7.077 -0.7823  1.6356  0.3015
  323MOL0     H43568   0.758   4.890   6.917  0.4231 -1.1898 -0.5051
  323MOL0     H43569   0.625   4.789   6.486  1.2537  1.9929 -3.2537
  323MOL0     H43570   0.491   4.894   6.541  1.0697  1.8833  0.6350
  323MOL0     H43571   0.681   5.078   6.521  0.2447 -0.7003  1.1651
  323MOL0     H43572   0.730   4.969   6.392 -0.4811 -0.5439 -1.4333
  323MOL0     H43573   0.487   4.983   6.304  0.2868 -0.8442  0.1037
  323MOL0     H43574   0.473   5.120   6.424  1.0009  2.1868 -1.2519
  323MOL0     H43575   0.666   5.102   6.194  0.5905 -1.4848  1.4827
  323MOL0     H43576   0.690   5.208   6.330  0.9163 -2.4050  1.1262
  323MOL0     H43577   0.417   5.188   6.199 -0.8251  0.2550 -0.6582
  323MOL0     H43578   0.542   5.265   6.095 -0.1941  1.4030 -0.2164
  323MOL0     H43579   0.409   5.441   6.220 -1.0017 -0.1225  0.5434
  323MOL0     H43580   0.477   5.372   6.370  1.8823  0.3948  0.5922
  323MOL0     H43581   0.701   5.423   6.319 -1.7272 -1.5346 -0.2864
  323MOL0     H43582   0.589   5.563   6.330 -2.2807 -1.4578  1.7673
  323MOL0     H43583   0.689   5.435   6.072  1.0900  1.2179 -2.1475
  323MOL0     H43584   0.572   5.579   6.082 -1.5749 -1.9249  1.4113
  323MOL0     H43585   0.521   4.639   6.643  2.5026  2.1028 -1.7413
  323MOL0     H43586   0.531   4.460   6.804  0.9200 -1.3084  0.4139
  323MOL0     H43587   1.040   4.421   7.145  0.6986 -1.9338 -0.0994
  323MOL0     H43588   1.128   4.318   7.337  0.3796 -0.4784 -0.1799
  323MOL0     H43589   1.437   5.138   6.432  0.1197  0.5157 -0.3100
  323MOL0     H43590   1.406   5.048   6.202  3.3456  4.9545 -3.9607
  323MOL0     H43591   1.465   4.694   5.980  1.2729  0.7761  0.3080
  323MOL0     H43592   1.364   4.581   5.799 -2.0362  1.2635  0.5221
  323MOL0     H43593   1.442   4.752   5.414 -1.5218  3.4101  0.0091
  323MOL0     H43594   1.310   4.762   5.525 -0.5590  1.6370 -2.1472
  323MOL0     H43595   1.316   4.520   5.355  2.3612  0.1976 -0.0823
  323MOL0     H43596   1.272   4.668   5.274  1.5587 -1.5190 -0.2310
  323MOL0     H43597   1.083   4.708   5.419  2.9670  1.1828  2.0427
  323MOL0     H43598   1.120   4.578   5.521 -2.9284  3.0664  1.7380
  323MOL0     H43599   0.938   4.518   5.324  0.0068 -0.9896 -4.0644
  323MOL0     H43600   1.070   4.550   5.220 -2.5165  3.3262  1.5822
  323MOL0     H43601   1.076   4.134   5.357  0.7147 -0.6603 -2.5554
  323MOL0     H43602   1.647   4.749   5.523  0.2358 -0.5383  0.7577
  323MOL0     H43603   1.852   4.926   5.758  0.2053 -0.2497 -0.9737
  323MOL0     H43604   1.824   4.896   5.593  1.5387 -4.1780  2.1197
  323MOL0     H43605   1.741   5.032   5.682 -1.1229  0.0041 -0.9416
  324MOL0     O43606   8.033   2.911   2.087 -0.1420 -0.1529 -0.6118
  324MOL0     C43607   7.948   2.984   2.045 -0.5409 -0.8453 -0.3542
  324MOL0     O43608   7.966   3.051   1.932  0.3876  0.5410 -0.8351
  324MOL0     C43609   8.090   3.099   1.913  1.4692  1.2891 -0.3829
  324MOL0     C43610   8.205   3.028   1.870  0.7495  1.2243 -0.8490
  324MOL0     C43611   8.326   3.093   1.862 -1.1843 -0.5651  0.1853
  324MOL0     C43612   8.338   3.232   1.882 -0.7707  0.7620 -0.1548
  324MOL0     O43613   8.450   3.300   1.877 -0.4444  0.5669 -0.7792
  324MOL0     C43614   8.535   3.281   1.993 -0.1827 -0.0241 -0.0024
  324MOL0     C43615   8.667   3.227   1.947 -0.6924 -0.1064 -0.3110
  324MOL0     C43616   8.761   3.221   2.068 -0.0491  0.0215 -0.7426
  324MOL0     C43617   8.920   3.224   2.021  0.3729 -0.2118 -0.7416
  324MOL0     C43618   8.972   3.363   1.981  0.1589 -0.0830 -0.2624
  324MOL0     C43619   9.121   3.391   1.978  0.2262 -0.6078  1.0375
  324MOL0     C43620   9.191   3.290   1.881 -0.4658  0.0523 -0.2262
  324MOL0     C43621   9.343   3.296   1.853  0.4856 -0.3075  0.1401
  324MOL0     N43622   9.393   3.443   1.851 -0.4236 -0.3266  0.3496
  324MOL0     C43623   9.431   3.507   1.960  0.0649  0.1046 -0.5197
  324MOL0     C43624   9.485   3.627   1.924  0.4131  0.2381  0.5204
  324MOL0     C43625   9.537   3.717   2.020  0.5168 -0.3710  0.8634
  324MOL0     C43626   9.652   3.797   1.963  0.5920  0.7188  0.1165
  324MOL0     C43627   9.674   3.918   2.057  0.6799  0.5780  0.2297
  324MOL0     C43628   9.821   3.967   2.060  0.2073  0.3297 -0.1826
  324MOL0     O43629   9.840   4.059   2.171 -0.1914  0.0190 -0.1799
  324MOL0     C43630   9.954   4.134   2.161  0.4138 -0.1565  0.2214
  324MOL0     C43631   9.956   4.250   2.235  0.0188  0.4696 -0.1734
  324MOL0     C43632  10.072   4.315   2.270  0.4863  0.0608 -0.3413
  324MOL0     C43633  10.192   4.273   2.217 -1.1624 -0.8390 -0.5795
  324MOL0     C43634  10.319   4.341   2.252  0.4646 -0.1497 -0.2780
  324MOL0     O43635  10.306   4.433   2.352  0.4413  0.7359  0.5167
  324MOL0     C43636  10.403   4.535   2.379  0.4158  0.3340 -0.3430
  324MOL0     C43637  10.479   4.614   2.290  1.1220  0.0522 -0.3337
  324MOL0     C43638  10.570   4.710   2.333 -0.2607 -0.6023  0.5456
  324MOL0     C43639  10.591   4.730   2.468  0.4883 -0.2046 -0.5355
  324MOL0     O43640  10.687   4.812   2.519  0.6504 -0.1822 -0.2112
  324MOL0     C43641  10.759   4.911   2.443  0.8615  0.2986  0.4708
  324MOL0     C43642  10.672   5.033   2.425 -0.2370  0.3102 -0.2739
  324MOL0     C43643  10.717   5.120   2.300 -0.5665  0.4838  0.1041
  324MOL0     C43644  10.619   5.234   2.290 -0.0916 -0.4582 -0.7102
  324MOL0     C43645  10.663   5.356   2.206  0.4230  0.6905 -0.2812
  324MOL0     C43646  10.665   5.333   2.060 -0.7612 -1.1846 -0.3317
  324MOL0     C43647  10.718   5.467   1.996 -0.2336  1.2679  0.2403
  324MOL0     C43648  10.714   5.468   1.843 -0.3746 -0.8260  0.5260
  324MOL0    Cl43649  10.864   5.409   1.773  0.0872 -0.1873  0.5288
  324MOL0     C43650  10.515   4.653   2.558  0.0220 -0.1459  0.1162
  324MOL0     C43651  10.417   4.566   2.516  0.7261  1.2025 -0.3917
  324MOL0     O43652  10.419   4.327   2.183  0.2952 -0.0733 -0.0021
  324MOL0     C43653  10.195   4.157   2.137  0.1075  0.1389 -0.2339
  324MOL0     C43654  10.076   4.094   2.108  0.0646 -0.2842  0.6626
  324MOL0     N43655   9.455   3.632   1.784  0.7024  0.7860 -0.8582
  324MOL0     N43656   9.401   3.521   1.742 -0.3947 -0.1536 -0.9143
  324MOL0     C43657   8.230   3.305   1.912  0.2052 -0.2965  0.9140
  324MOL0     C43658   8.106   3.244   1.918  0.4115  0.7153 -0.1102
  324MOL0     C43659   7.838   3.027   2.133 -0.0294  0.3098  0.4163
  324MOL0     C43660   7.755   3.134   2.081 -0.6603  0.4270 -0.5586
  324MOL0     C43661   7.658   3.203   2.153  0.7855  0.3514 -0.5691
  324MOL0     C43662   7.620   3.140   2.278 -0.2759 -0.3569 -0.1036
  324MOL0     O43663   7.521   3.198   2.349  0.5838 -0.1461  0.3298
  324MOL0     C43664   7.438   3.122   2.442 -0.3260 -0.2444 -0.7674
  324MOL0     C43665   7.309   3.190   2.459  1.8684 -0.7045 -0.4405
  324MOL0     C43666   7.232   3.200   2.318 -0.1545  0.0984 -0.5347
  324MOL0     C43667   7.193   3.060   2.270 -0.0153 -0.0161  0.4578
  324MOL0     C43668   7.074   3.083   2.192 -0.1626 -0.9705  0.2108
  324MOL0     C43669   6.979   3.109   2.125 -0.8210 -0.4048  0.4963
  324MOL0     C43670   7.690   3.031   2.323 -0.1927 -0.0375  0.4810
  324MOL0     C43671   7.791   2.968   2.247 -0.4597 -0.0805 -0.8941
  324MOL0     C43672   7.831   2.835   2.291  0.5741  0.0579 -1.0565
  324MOL0     H43673   8.196   2.920   1.862  1.8091  1.1449 -1.2380
  324MOL0     H43674   8.408   3.029   1.831  0.3036  0.8790  1.0271
  324MOL0     H43675   8.545   3.382   2.033 -1.7713  0.5360 -0.9093
  324MOL0     H43676   8.497   3.214   2.070 -2.7130  1.1524 -0.1134
  324MOL0     H43677   8.712   3.283   1.865  2.0926 -0.5458  0.7947
  324MOL0     H43678   8.666   3.121   1.921  1.7222 -1.1466  3.1348
  324MOL0     H43679   8.736   3.127   2.119  0.3036  1.3698  2.0853
  324MOL0     H43680   8.743   3.306   2.135  3.6536  2.1957 -2.2193
  324MOL0     H43681   8.974   3.186   2.108 -0.6400 -2.3226 -0.9727
  324MOL0     H43682   8.933   3.141   1.951 -2.2281 -0.5168 -0.9526
  324MOL0     H43683   8.939   3.375   1.878  1.3852 -0.6408 -0.7455
  324MOL0     H43684   8.931   3.441   2.046  4.2211  1.6479  0.5594
  324MOL0     H43685   9.134   3.494   1.943 -1.9214 -0.9751 -1.1275
  324MOL0     H43686   9.162   3.378   2.079 -0.2691  2.8291  1.7971
  324MOL0     H43687   9.149   3.310   1.782  2.8147 -3.2666 -2.5494
  324MOL0     H43688   9.170   3.190   1.922  1.5441  0.4595  2.0245
  324MOL0     H43689   9.390   3.243   1.935 -1.3697 -1.5657  0.4690
  324MOL0     H43690   9.388   3.240   1.770  0.9616 -1.3316  1.0796
  324MOL0     H43691   9.418   3.471   2.061  0.1380  0.1806 -0.4828
  324MOL0     H43692   9.453   3.784   2.040  0.8280  0.7130 -1.2056
  324MOL0     H43693   9.576   3.664   2.108  1.1522  0.7733  1.2909
  324MOL0     H43694   9.745   3.740   1.958 -1.0023 -2.1532  0.8574
  324MOL0     H43695   9.633   3.816   1.857  0.2567 -1.3967 -0.2461
  324MOL0     H43696   9.640   3.903   2.160 -1.9163  2.4637 -0.2459
  324MOL0     H43697   9.603   3.994   2.024  1.0604  0.4670 -0.8949
  324MOL0     H43698   9.847   4.017   1.967  0.9645 -1.0750 -0.7646
  324MOL0     H43699   9.874   3.872   2.071  1.7719  1.1681 -0.3126
  324MOL0     H43700   9.865   4.283   2.284 -0.1279  1.2465 -0.9577
  324MOL0     H43701  10.071   4.402   2.334  1.9403 -0.4306  0.3802
  324MOL0     H43702  10.478   4.607   2.182  1.9581  1.6131 -0.4691
  324MOL0     H43703  10.629   4.764   2.260  0.7366 -3.0741 -0.5758
  324MOL0     H43704  10.833   4.947   2.516  0.1596  1.8677  0.4407
  324MOL0     H43705  10.807   4.878   2.350  1.6520  2.8912 -0.1278
  324MOL0     H43706  10.571   4.995   2.413 -0.0275 -0.5165  0.4980
  324MOL0     H43707  10.682   5.100   2.511 -2.5411 -1.7788  1.7669
  324MOL0     H43708  10.821   5.152   2.311  0.8848 -3.9566  1.2156
  324MOL0     H43709  10.721   5.060   2.208 -1.1879  2.0690 -1.0152
  324MOL0     H43710  10.606   5.282   2.387  0.1852  2.6394 -2.0977
  324MOL0     H43711  10.527   5.182   2.260 -0.4401  1.4615 -3.2659
  324MOL0     H43712  10.750   5.407   2.247  0.2160 -0.6327  1.9683
  324MOL0     H43713  10.580   5.425   2.223 -1.5928 -1.7093  0.2959
  324MOL0     H43714  10.737   5.252   2.046 -0.5585 -1.6849  2.7994
  324MOL0     H43715  10.563   5.305   2.030 -1.5984  0.6210  0.6846
  324MOL0     H43716  10.816   5.506   2.024  0.6421 -0.4972 -0.2784
  324MOL0     H43717  10.645   5.545   2.023  1.1917  2.4094  0.9327
  324MOL0     H43718  10.630   5.417   1.796  0.4753  1.0954 -3.5359
  324MOL0     H43719  10.709   5.574   1.816 -2.3846 -1.7973 -3.6633
  324MOL0     H43720  10.545   4.680   2.659  2.7566  0.3873 -0.7438
  324MOL0     H43721  10.360   4.497   2.578  0.2949 -0.1108 -2.1559
  324MOL0     H43722  10.281   4.112   2.087  2.5495  0.0589  3.6344
  324MOL0     H43723  10.077   4.006   2.044  0.8278  0.7070 -0.7224
  324MOL0     H43724   8.241   3.413   1.921  1.3443 -0.3573  0.3656
  324MOL0     H43725   8.020   3.310   1.931  0.3341  1.0836 -2.1331
  324MOL0     H43726   7.775   3.179   1.984  3.3094  0.4803  0.1184
  324MOL0     H43727   7.595   3.281   2.112 -2.3555 -2.2193 -1.0406
  324MOL0     H43728   7.502   3.141   2.529 -2.4583 -2.6689  1.5009
  324MOL0     H43729   7.435   3.013   2.435  0.5579 -0.6145  2.5323
  324MOL0     H43730   7.329   3.285   2.509 -1.8347  0.8721 -1.6206
  324MOL0     H43731   7.253   3.120   2.521 -3.5418  3.2436 -0.2189
  324MOL0     H43732   7.301   3.250   2.250  0.4348  0.5533  0.3670
  324MOL0     H43733   7.145   3.264   2.335 -0.8364 -0.4466 -1.8278
  324MOL0     H43734   7.279   3.009   2.225 -1.3274 -2.5692  0.6927
  324MOL0     H43735   7.167   3.006   2.362 -0.9472  1.0258  0.8168
  324MOL0     H43736   6.899   3.117   2.054  0.3259 -2.5296 -1.1642
  324MOL0     H43737   7.667   2.997   2.423 -0.9083  0.7918  0.6136
  324MOL0     H43738   7.811   2.759   2.215  0.2486 -1.5169  0.5620
  324MOL0     H43739   7.940   2.838   2.301  0.4601  0.2620  0.3116
  324MOL0     H43740   7.782   2.819   2.387 -1.8471  3.2643 -1.5875
  325MOL0     O43741   6.265   7.712   3.190 -0.9096 -0.3576  0.0139
  325MOL0     C43742   6.211   7.802   3.253 -0.9626 -0.4702 -0.6529
  325MOL0     O43743   6.187   7.789   3.384 -0.2979 -0.5670 -0.4176
  325MOL0     C43744   6.220   7.676   3.445 -0.7096 -0.3147 -0.1444
  325MOL0     C43745   6.114   7.601   3.511  0.1112 -0.2116  0.3031
  325MOL0     C43746   6.135   7.478   3.568  0.2762  0.0379  0.0800
  325MOL0     C43747   6.264   7.410   3.549 -0.1946 -1.0787  0.0504
  325MOL0     O43748   6.297   7.291   3.606  0.2237 -0.7910  0.1040
  325MOL0     C43749   6.201   7.189   3.565 -0.3008 -0.3101  0.4169
  325MOL0     C43750   6.296   7.064   3.533  0.2430 -0.3149  0.5116
  325MOL0     C43751   6.214   6.938   3.534 -0.1335  0.1653 -0.1008
  325MOL0     C43752   6.295   6.810   3.507  0.7016 -0.3933 -0.5197
  325MOL0     C43753   6.214   6.678   3.525  0.4859  0.5427 -0.8950
  325MOL0     C43754   6.285   6.592   3.419 -0.0304  0.1384 -0.0208
  325MOL0     C43755   6.239   6.444   3.431 -0.5113  0.5731 -0.2112
  325MOL0     C43756   6.308   6.358   3.328 -0.5165  1.6610  0.5034
  325MOL0     N43757   6.304   6.212   3.352  0.8216  0.3537  0.3572
  325MOL0     C43758   6.186   6.140   3.343  0.3922 -0.0529  1.0112
  325MOL0     C43759   6.226   6.008   3.359 -0.4841  0.4555  0.6392
  325MOL0     C43760   6.150   5.876   3.353  1.1240  0.1852  0.6720
  325MOL0     C43761   6.204   5.763   3.439 -0.2433 -0.5023 -0.1816
  325MOL0     C43762   6.185   5.781   3.593 -0.3352  0.5973  0.0081
  325MOL0     C43763   6.029   5.772   3.624 -1.0049  0.8090  0.0205
  325MOL0     O43764   5.954   5.669   3.564  0.6134  0.7811  0.3204
  325MOL0     C43765   5.823   5.664   3.600 -0.7365 -1.4928 -0.2231
  325MOL0     C43766   5.767   5.539   3.591 -0.2156 -0.6193 -0.8056
  325MOL0     C43767   5.631   5.511   3.626  1.2935  0.9578 -0.9256
  325MOL0     C43768   5.545   5.615   3.671 -0.3976 -0.1854 -1.4640
  325MOL0     C43769   5.413   5.588   3.729  0.4299  0.8088 -0.8509
  325MOL0     O43770   5.355   5.475   3.690 -0.7708 -0.0979 -0.8481
  325MOL0     C43771   5.258   5.431   3.765 -0.1132  0.0620 -0.3112
  325MOL0     C43772   5.130   5.477   3.736 -0.7361  0.0002  0.0671
  325MOL0     C43773   5.026   5.429   3.807  1.0530  0.0384  0.7113
  325MOL0     C43774   5.031   5.327   3.903 -0.5766 -0.5765  1.0006
  325MOL0     O43775   4.920   5.274   3.960 -0.9825  0.2261 -0.2397
  325MOL0     C43776   4.942   5.174   4.057 -0.0365 -0.3293  0.0336
  325MOL0     C43777   4.808   5.128   4.100  0.5478 -0.4112  0.3997
  325MOL0     C43778   4.734   5.077   3.982  1.5375  0.2070  0.0223
  325MOL0     C43779   4.586   5.064   4.032  0.1517  0.1480  0.0898
  325MOL0     C43780   4.493   4.990   3.935 -0.1074 -0.6612  0.6779
  325MOL0     C43781   4.351   4.996   3.983 -0.1089 -0.4357  0.2261
  325MOL0     C43782   4.299   4.872   4.059  0.4277 -0.0961  1.0424
  325MOL0     C43783   4.173   4.903   4.132 -0.4139 -0.5678  0.6408
  325MOL0    Cl43784   4.091   4.754   4.198  0.2043  0.1180 -0.1991
  325MOL0     C43785   5.166   5.274   3.921 -0.4240 -0.4448 -0.7524
  325MOL0     C43786   5.276   5.330   3.853 -0.3584  0.6349 -0.0505
  325MOL0     O43787   5.368   5.667   3.808 -0.0325  0.5987 -0.0868
  325MOL0     C43788   5.607   5.746   3.671 -0.0371 -0.0151  0.5074
  325MOL0     C43789   5.735   5.771   3.640  0.4708  0.7200 -0.8623
  325MOL0     N43790   6.368   6.006   3.376  0.4452  0.4507 -0.6788
  325MOL0     N43791   6.409   6.138   3.381  0.5919 -0.1382  0.3819
  325MOL0     C43792   6.374   7.494   3.505 -0.3052  0.7216 -0.1306
  325MOL0     C43793   6.352   7.617   3.442  1.3700 -0.1309 -0.2250
  325MOL0     C43794   6.151   7.924   3.194 -0.5597  0.0480 -1.0208
  325MOL0     C43795   6.021   7.960   3.249 -0.3881  0.2681  0.8484
  325MOL0     C43796   5.953   8.076   3.219  0.1697  0.2915 -0.7944
  325MOL0     C43797   5.997   8.165   3.125  0.4690 -0.1381  1.1505
  325MOL0     O43798   5.942   8.283   3.084  0.0701 -0.7330  0.1618
  325MOL0     C43799   5.804   8.296   3.113 -0.4716  0.4095 -0.1294
  325MOL0     C43800   5.747   8.410   3.028  0.1631  0.7772 -0.6884
  325MOL0     C43801   5.606   8.447   3.077 -0.4819 -0.1707 -0.2287
  325MOL0     C43802   5.520   8.557   2.999 -0.6943  0.4248  0.3713
  325MOL0     C43803   5.574   8.695   3.035  0.0608  0.8239  1.1241
  325MOL0     C43804   5.605   8.814   3.058 -0.1671  0.7161  0.3588
  325MOL0     C43805   6.123   8.134   3.068  0.6494  0.2910  0.2160
  325MOL0     C43806   6.202   8.015   3.096  0.0621 -0.7804 -1.3173
  325MOL0     C43807   6.331   7.995   3.023  0.3288  0.6579 -0.6602
  325MOL0     H43808   6.017   7.641   3.487  0.5352 -0.8539 -2.8936
  325MOL0     H43809   6.046   7.438   3.616 -0.6788  0.3970 -1.3474
  325MOL0     H43810   6.137   7.168   3.651 -2.4435  0.1571 -0.9876
  325MOL0     H43811   6.139   7.228   3.483 -1.6746 -0.9847  1.1011
  325MOL0     H43812   6.367   7.059   3.615  0.8844  1.6659  0.1341
  325MOL0     H43813   6.340   7.080   3.434  3.4090  0.2622  1.8861
  325MOL0     H43814   6.136   6.946   3.459  1.6039 -1.6401 -2.2379
  325MOL0     H43815   6.170   6.940   3.634 -4.9897  4.8435 -1.8262
  325MOL0     H43816   6.328   6.825   3.403 -0.0311  0.6866 -0.6111
  325MOL0     H43817   6.382   6.814   3.573  0.9713  4.2114 -0.8100
  325MOL0     H43818   6.211   6.627   3.622  3.0385 -0.7696 -1.4226
  325MOL0     H43819   6.110   6.682   3.490  1.6537 -0.8229 -5.1671
  325MOL0     H43820   6.253   6.618   3.318  2.6482  0.5102 -0.8576
  325MOL0     H43821   6.394   6.589   3.426  0.0372 -1.5325 -1.1866
  325MOL0     H43822   6.132   6.442   3.409  0.2226 -2.1810 -4.5668
  325MOL0     H43823   6.263   6.405   3.530  0.4756  2.7497  0.4838
  325MOL0     H43824   6.247   6.362   3.237 -0.4319 -2.4307  0.0571
  325MOL0     H43825   6.414   6.380   3.309 -0.1532  2.1355  2.7806
  325MOL0     H43826   6.088   6.164   3.303 -0.2558 -1.8966  1.3923
  325MOL0     H43827   6.049   5.901   3.386  0.0783  0.2199 -2.2916
  325MOL0     H43828   6.141   5.839   3.250 -3.4054 -0.1301  1.0039
  325MOL0     H43829   6.150   5.673   3.408 -1.9305  0.3786  0.0630
  325MOL0     H43830   6.312   5.763   3.424  0.0380  0.1394  1.5574
  325MOL0     H43831   6.213   5.883   3.623  1.0346  0.4865 -0.7830
  325MOL0     H43832   6.230   5.695   3.643  0.4950  0.5689 -0.7563
  325MOL0     H43833   5.985   5.869   3.602 -2.4342  0.7094  2.1483
  325MOL0     H43834   6.018   5.756   3.732  0.8917 -1.7682 -0.0669
  325MOL0     H43835   5.828   5.456   3.558 -3.6588 -4.3220  1.3450
  325MOL0     H43836   5.583   5.414   3.632 -1.5588  2.0913 -3.0294
  325MOL0     H43837   5.127   5.543   3.650  4.2294 -1.7663 -1.8400
  325MOL0     H43838   4.927   5.468   3.786  0.4386 -2.4886 -1.7694
  325MOL0     H43839   5.002   5.097   4.009  0.8157  0.4902 -0.2495
  325MOL0     H43840   4.987   5.220   4.146  0.5688 -0.5146 -0.1756
  325MOL0     H43841   4.828   5.040   4.162  0.7521 -0.6182  0.0468
  325MOL0     H43842   4.753   5.208   4.149  0.5678 -0.6494  0.8098
  325MOL0     H43843   4.731   5.152   3.902  1.5031  0.3939  0.2003
  325MOL0     H43844   4.762   4.979   3.941 -3.0888 -0.2277 -2.8333
  325MOL0     H43845   4.540   5.160   4.055 -2.6728 -0.9782 -0.4259
  325MOL0     H43846   4.566   5.018   4.130 -0.9935 -0.0190 -0.2095
  325MOL0     H43847   4.533   4.889   3.945  0.2521 -0.7251 -1.0907
  325MOL0     H43848   4.510   5.025   3.832  1.6016  0.7273  1.3646
  325MOL0     H43849   4.335   5.078   4.053  0.0272 -0.0449 -0.1881
  325MOL0     H43850   4.286   5.008   3.895  1.1618 -1.6612 -0.9505
  325MOL0     H43851   4.371   4.836   4.134  0.8015 -0.0660  0.7009
  325MOL0     H43852   4.285   4.786   3.993 -2.3541  2.1366 -1.5195
  325MOL0     H43853   4.199   4.971   4.213  0.3351 -0.3820  0.2548
  325MOL0     H43854   4.092   4.944   4.071  0.5254  0.8562  0.3088
  325MOL0     H43855   5.189   5.182   3.974 -1.1069  2.0925  4.5220
  325MOL0     H43856   5.375   5.286   3.857  0.4701  2.0410 -2.6395
  325MOL0     H43857   5.560   5.827   3.726  0.1356 -0.8747  1.9792
  325MOL0     H43858   5.774   5.872   3.653  2.6402 -0.1261 -0.2196
  325MOL0     H43859   6.473   7.452   3.520 -0.3392  1.4932  2.9044
  325MOL0     H43860   6.445   7.646   3.394  1.9162 -0.8807  0.3486
  325MOL0     H43861   5.978   7.883   3.313  1.2213 -1.1442  0.3238
  325MOL0     H43862   5.857   8.097   3.266  0.5236 -1.5921  0.9472
  325MOL0     H43863   5.789   8.327   3.217 -1.8683 -3.2836  0.9259
  325MOL0     H43864   5.754   8.199   3.099 -0.1586  0.1061  0.8232
  325MOL0     H43865   5.746   8.368   2.927  2.1669  0.5400 -0.6384
  325MOL0     H43866   5.817   8.493   3.032  3.0962 -1.5562 -0.4025
  325MOL0     H43867   5.601   8.487   3.179  2.8781 -1.0746  0.4175
  325MOL0     H43868   5.542   8.358   3.078 -0.1298 -0.4284  0.4020
  325MOL0     H43869   5.541   8.540   2.893 -1.3625 -5.4838  0.8986
  325MOL0     H43870   5.418   8.534   3.032 -0.4561 -3.5822 -1.1649
  325MOL0     H43871   5.626   8.919   3.057 -3.1974  1.4140 -1.3467
  325MOL0     H43872   6.165   8.215   3.010  1.1461 -0.2697 -0.2164
  325MOL0     H43873   6.351   8.068   2.944  1.5174 -1.3860 -2.3533
  325MOL0     H43874   6.414   8.001   3.095  1.3545  1.2942 -1.8528
  325MOL0     H43875   6.337   7.906   2.960  6.5559  1.6135 -2.0488
  326MOL0     O43876   5.026   4.169   9.570 -0.5688  0.2989  0.5079
  326MOL0     C43877   5.059   4.076   9.638 -0.6436  0.4467 -0.4939
  326MOL0     O43878   5.189   4.016   9.634 -0.4376 -0.6719 -0.4013
  326MOL0     C43879   5.292   4.082   9.564  0.2147 -0.5666 -0.3249
  326MOL0     C43880   5.283   4.104   9.428 -0.1749 -0.4925  0.7620
  326MOL0     C43881   5.394   4.153   9.350 -0.0484 -0.3627 -0.0604
  326MOL0     C43882   5.511   4.182   9.422 -0.2269 -0.6244 -1.3147
  326MOL0     O43883   5.617   4.242   9.364 -0.0192  0.4551 -0.0481
  326MOL0     C43884   5.659   4.366   9.427 -0.3100  0.7280  0.5583
  326MOL0     C43885   5.570   4.481   9.384 -0.5759  0.6952 -0.1832
  326MOL0     C43886   5.590   4.513   9.235  0.0080 -0.0496 -0.1846
  326MOL0     C43887   5.517   4.641   9.197  0.0825  0.6099  0.4875
  326MOL0     C43888   5.516   4.670   9.042 -0.4993  0.7946 -0.4526
  326MOL0     C43889   5.426   4.781   8.998  0.4930 -0.0605  0.4300
  326MOL0     C43890   5.367   4.761   8.861 -0.7684 -0.4941  0.7712
  326MOL0     C43891   5.242   4.666   8.864  1.3808  0.0607 -0.2369
  326MOL0     N43892   5.180   4.626   8.737  0.1036  0.4003 -0.5659
  326MOL0     C43893   5.184   4.695   8.619  0.0878  0.5103  0.2156
  326MOL0     C43894   5.087   4.635   8.539  0.3442 -0.3499 -0.5826
  326MOL0     C43895   5.041   4.683   8.402  0.2483  0.8174 -0.2065
  326MOL0     C43896   5.044   4.828   8.379  0.5425 -0.6581 -0.1885
  326MOL0     C43897   4.968   4.873   8.259 -0.1476  0.4022  0.2587
  326MOL0     C43898   4.924   5.019   8.254 -0.0933 -0.2366 -0.5220
  326MOL0     O43899   4.841   5.030   8.132 -0.2550  0.5205  1.0846
  326MOL0     C43900   4.883   5.125   8.039 -0.2554  0.3467 -0.8263
  326MOL0     C43901   4.864   5.095   7.907  0.4005 -0.2273  0.3517
  326MOL0     C43902   4.923   5.172   7.807  0.0556  0.1867  0.5478
  326MOL0     C43903   5.005   5.291   7.828 -0.6385  0.0109  0.6443
  326MOL0     C43904   5.062   5.372   7.722  0.3454 -1.2191 -0.1320
  326MOL0     O43905   5.109   5.496   7.744  0.1751  0.1569  0.6546
  326MOL0     C43906   5.162   5.564   7.641  0.2166  0.1806  0.5292
  326MOL0     C43907   5.251   5.665   7.675 -0.7064  0.2503  0.5226
  326MOL0     C43908   5.312   5.757   7.586 -0.9492  0.4594 -0.1228
  326MOL0     C43909   5.260   5.750   7.454 -0.3767 -0.6254 -0.4631
  326MOL0     O43910   5.327   5.823   7.364 -0.1381 -0.7840  0.4709
  326MOL0     C43911   5.266   5.863   7.238  0.4223  0.4254 -0.5232
  326MOL0     C43912   5.342   5.974   7.154  0.0303  1.1878 -0.8377
  326MOL0     C43913   5.376   6.100   7.238  0.6250  0.7070  0.1588
  326MOL0     C43914   5.492   6.083   7.336 -0.2163 -0.8570 -1.0097
  326MOL0     C43915   5.529   6.205   7.413  0.6844  0.1220 -0.1616
  326MOL0     C43916   5.403   6.255   7.502 -0.5031  1.0328  0.3120
  326MOL0     C43917   5.324   6.372   7.430  0.5052  0.7000 -0.2254
  326MOL0     C43918   5.262   6.475   7.524 -0.0013 -0.8141 -0.6346
  326MOL0    Cl43919   5.379   6.617   7.549 -0.5776  0.2198 -0.0219
  326MOL0     C43920   5.148   5.675   7.417 -0.2847  1.0410  0.0853
  326MOL0     C43921   5.103   5.583   7.514  0.1957  0.5729  0.6758
  326MOL0     O43922   5.067   5.316   7.614 -0.1124 -0.1240 -0.0579
  326MOL0     C43923   5.016   5.321   7.965 -0.2868 -0.6845 -0.0884
  326MOL0     C43924   4.955   5.246   8.055 -0.2152 -0.0842  0.3948
  326MOL0     N43925   5.032   4.533   8.610  0.0346  0.1798 -0.0816
  326MOL0     N43926   5.074   4.546   8.728 -0.3191 -0.8754  0.7582
  326MOL0     C43927   5.517   4.153   9.562  1.3078  0.4042 -0.0068
  326MOL0     C43928   5.409   4.104   9.641 -1.3468 -0.6358 -1.0163
  326MOL0     C43929   4.955   4.029   9.729  0.6923 -0.4553  0.6603
  326MOL0     C43930   4.963   3.894   9.774 -0.2981  0.1959  0.2300
  326MOL0     C43931   4.861   3.825   9.835 -0.2677 -1.4727  0.3934
  326MOL0     C43932   4.758   3.895   9.887  0.9172  0.1473  0.1923
  326MOL0     O43933   4.658   3.833   9.961  0.2632 -0.2527 -0.2664
  326MOL0     C43934   4.668   3.707  10.019 -0.0620  0.7240 -0.7280
  326MOL0     C43935   4.577   3.683  10.139  0.4234  0.2520 -0.0136
  326MOL0     C43936   4.566   3.798  10.239  0.3870 -0.0308  0.2674
  326MOL0     C43937   4.555   3.748  10.384  0.8087 -1.2074 -0.6109
  326MOL0     C43938   4.494   3.865  10.458  0.0143  0.1757  0.0739
  326MOL0     C43939   4.435   3.954  10.515 -0.1578  0.0762 -0.5722
  326MOL0     C43940   4.756   4.026   9.863  1.1446  0.3073  0.5922
  326MOL0     C43941   4.837   4.093   9.770  0.2748 -0.5873 -0.2436
  326MOL0     C43942   4.807   4.242   9.741 -0.7971  0.3201 -0.0429
  326MOL0     H43943   5.184   4.091   9.384  0.2409  0.5177 -0.5255
  326MOL0     H43944   5.391   4.169   9.243 -3.2667 -0.8806 -0.1683
  326MOL0     H43945   5.672   4.353   9.535  1.5630 -1.0979  0.1870
  326MOL0     H43946   5.761   4.375   9.388  0.1104 -0.7444  1.2202
  326MOL0     H43947   5.601   4.564   9.448  0.3593 -0.4803  0.9575
  326MOL0     H43948   5.465   4.461   9.408 -0.7833 -0.0074 -1.5589
  326MOL0     H43949   5.545   4.436   9.171 -0.5966  1.0734 -1.1580
  326MOL0     H43950   5.692   4.522   9.197  0.8311 -1.0744  1.6699
  326MOL0     H43951   5.414   4.622   9.228 -0.4707  1.2699 -0.8592
  326MOL0     H43952   5.568   4.723   9.248  0.4880  1.6934 -1.5787
  326MOL0     H43953   5.616   4.702   9.011 -0.1280 -1.1085 -1.3355
  326MOL0     H43954   5.498   4.579   8.984  3.6480 -0.1741 -0.5267
  326MOL0     H43955   5.335   4.768   9.057 -0.7116 -1.9231 -1.6815
  326MOL0     H43956   5.470   4.879   9.019  3.4562 -0.7846 -1.7216
  326MOL0     H43957   5.427   4.728   8.776 -3.1176  1.9855 -2.0368
  326MOL0     H43958   5.327   4.858   8.832  0.5272 -0.6519 -1.8274
  326MOL0     H43959   5.262   4.570   8.913 -3.1704 -1.7064 -1.2812
  326MOL0     H43960   5.170   4.713   8.931 -1.3194 -0.3125 -2.6601
  326MOL0     H43961   5.232   4.789   8.594 -0.8247  1.5180  2.0154
  326MOL0     H43962   5.101   4.629   8.328  0.6216  1.6151 -0.4956
  326MOL0     H43963   4.944   4.633   8.393  0.7049  0.0962 -1.3301
  326MOL0     H43964   5.010   4.883   8.467  0.9280 -0.7249  0.0047
  326MOL0     H43965   5.149   4.857   8.364  0.1983  0.2624 -0.9001
  326MOL0     H43966   4.884   4.805   8.268  1.1743 -1.0164  3.3160
  326MOL0     H43967   5.025   4.846   8.169 -0.3715 -0.5763  0.3982
  326MOL0     H43968   5.021   5.070   8.264 -0.9148  1.3098 -0.0053
  326MOL0     H43969   4.877   5.048   8.348  2.3729  2.1195  0.1239
  326MOL0     H43970   4.815   5.002   7.880  1.5520 -1.5420  2.5454
  326MOL0     H43971   4.921   5.126   7.708  1.7965  0.7708  0.1973
  326MOL0     H43972   5.288   5.662   7.777 -1.6451  2.0321  0.9650
  326MOL0     H43973   5.402   5.818   7.596 -1.8421  2.1608 -1.9527
  326MOL0     H43974   5.272   5.767   7.187  3.1106 -0.4331  1.2048
  326MOL0     H43975   5.163   5.898   7.254  0.1353 -1.0434  1.3406
  326MOL0     H43976   5.437   5.924   7.133 -0.6591  0.0798 -1.3747
  326MOL0     H43977   5.275   5.998   7.071 -0.9244  3.1564  0.4195
  326MOL0     H43978   5.412   6.175   7.167  0.4718 -1.3934 -2.2583
  326MOL0     H43979   5.280   6.141   7.272 -0.1058 -1.5070  0.9156
  326MOL0     H43980   5.589   6.069   7.287  0.1661  1.9729 -1.2251
  326MOL0     H43981   5.480   6.000   7.406 -1.6504  0.9702  1.0363
  326MOL0     H43982   5.568   6.286   7.351 -1.0937  0.7330 -0.5537
  326MOL0     H43983   5.605   6.168   7.483 -1.3952 -2.0933  1.0839
  326MOL0     H43984   5.342   6.167   7.525  3.8681 -2.7987 -1.1523
  326MOL0     H43985   5.438   6.293   7.598  2.4841  0.8068 -0.5903
  326MOL0     H43986   5.248   6.322   7.369  0.4703  1.4296 -0.7926
  326MOL0     H43987   5.380   6.443   7.368  0.5087  2.5848  1.8170
  326MOL0     H43988   5.175   6.521   7.477 -1.4320  0.6719  3.1220
  326MOL0     H43989   5.224   6.456   7.624 -1.0888  1.8900 -0.4464
  326MOL0     H43990   5.096   5.690   7.323 -2.8884 -0.1655  1.2181
  326MOL0     H43991   5.018   5.524   7.482  2.0335 -2.0918  0.3381
  326MOL0     H43992   5.076   5.401   8.008  3.5718 -2.6984 -1.3740
  326MOL0     H43993   4.958   5.273   8.160 -0.0990 -0.5903  0.5265
  326MOL0     H43994   5.602   4.166   9.629  0.3792 -0.7855  1.4815
  326MOL0     H43995   5.425   4.064   9.741  0.5593  1.1898 -0.5257
  326MOL0     H43996   5.042   3.838   9.725 -1.3527 -0.0210 -1.2950
  326MOL0     H43997   4.870   3.718   9.854  2.3704 -1.2324  0.7772
  326MOL0     H43998   4.767   3.689  10.060 -0.9180 -2.9344  0.1061
  326MOL0     H43999   4.652   3.629   9.944 -0.7913  0.1746 -0.0150
  326MOL0     H44000   4.610   3.590  10.187  0.3375  1.2252  2.0397
  326MOL0     H44001   4.479   3.668  10.093  1.3459  0.2999 -2.0841
  326MOL0     H44002   4.463   3.829  10.223 -0.5194 -2.1199  1.5955
  326MOL0     H44003   4.642   3.874  10.220  0.1690 -0.0084 -0.5590
  326MOL0     H44004   4.495   3.657  10.378 -4.4463  1.9264 -3.0392
  326MOL0     H44005   4.646   3.720  10.437  0.1596 -3.3293 -0.5179
  326MOL0     H44006   4.376   4.032  10.558  1.3761  0.8319  0.2296
  326MOL0     H44007   4.666   4.067   9.908 -0.0481 -3.2911  1.8890
  326MOL0     H44008   4.889   4.303   9.780  0.7036 -1.3138 -0.5099
  326MOL0     H44009   4.804   4.255   9.632 -1.2748 -1.7818 -0.3281
  326MOL0     H44010   4.709   4.273   9.780 -1.8999  1.4551 -3.3862
  327MOL0     O44011   5.378   0.085   0.934 -0.0223 -0.0257 -0.4361
  327MOL0     C44012   5.390   0.204   0.920 -1.8730 -1.4494 -0.4338
  327MOL0     O44013   5.303   0.296   0.962 -0.3066 -0.2554  0.4309
  327MOL0     C44014   5.172   0.268   0.969  0.4929 -0.1205 -0.8029
  327MOL0     C44015   5.099   0.304   0.860 -0.4829 -0.1277 -0.1311
  327MOL0     C44016   4.958   0.284   0.865 -0.4825 -0.7020  0.1980
  327MOL0     C44017   4.896   0.232   0.980 -0.6735  0.4761  0.6992
  327MOL0     O44018   4.764   0.197   0.990  0.2195  0.1083 -0.0038
  327MOL0     C44019   4.688   0.199   0.874  0.0550  0.4171  0.8366
  327MOL0     C44020   4.537   0.149   0.902  0.0144 -0.3434 -0.4192
  327MOL0     C44021   4.485   0.171   1.045  1.1350  0.2900  0.5130
  327MOL0     C44022   4.539   0.077   1.153  1.3467  0.3109 -0.1368
  327MOL0     C44023   4.509   0.132   1.285  0.0674 -1.2657 -0.2599
  327MOL0     C44024   4.541   0.029   1.395 -1.1553 -0.5351  0.8405
  327MOL0     C44025   4.689  -0.006   1.384 -0.6756 -0.3057 -0.1231
  327MOL0     C44026   4.740  -0.076   1.517  0.1608  0.1726  0.5378
  327MOL0     N44027   4.674  -0.206   1.520 -0.4747 -0.4946  0.5551
  327MOL0     C44028   4.554  -0.225   1.583 -0.7039 -0.5346 -0.3128
  327MOL0     C44029   4.528  -0.359   1.572 -1.0644 -0.1459  0.6060
  327MOL0     C44030   4.409  -0.444   1.626 -0.2772 -1.5262 -0.0879
  327MOL0     C44031   4.314  -0.467   1.517  0.0703  0.2785  0.1498
  327MOL0     C44032   4.199  -0.552   1.591 -0.0059  0.4513  0.3645
  327MOL0     C44033   4.073  -0.544   1.508 -0.2826  0.3444 -0.8050
  327MOL0     O44034   3.995  -0.432   1.531 -0.3847  0.7938  0.2469
  327MOL0     C44035   3.862  -0.456   1.531 -0.2385 -0.7761  0.2123
  327MOL0     C44036   3.803  -0.532   1.626 -0.0723 -0.1083 -0.3639
  327MOL0     C44037   3.670  -0.555   1.638  0.5244 -0.6795  0.1263
  327MOL0     C44038   3.579  -0.498   1.540 -0.0631  0.5280  0.6412
  327MOL0     C44039   3.434  -0.532   1.539 -0.5038 -1.1011 -0.6046
  327MOL0     O44040   3.402  -0.643   1.601  0.5327  0.1001 -0.6870
  327MOL0     C44041   3.271  -0.683   1.619  1.3860 -0.7174  0.1198
  327MOL0     C44042   3.204  -0.767   1.527  0.1835  1.3277 -0.6008
  327MOL0     C44043   3.071  -0.809   1.551  1.1188 -0.5367  0.3041
  327MOL0     C44044   3.005  -0.761   1.665  0.3619 -0.4366  0.3355
  327MOL0     O44045   2.872  -0.805   1.682  0.3696 -0.7227 -0.1275
  327MOL0     C44046   2.796  -0.777   1.801  0.0662 -0.5878  1.5427
  327MOL0     C44047   2.658  -0.856   1.786 -0.0038  0.8350  0.8255
  327MOL0     C44048   2.561  -0.832   1.909 -0.6459 -0.2862 -0.4189
  327MOL0     C44049   2.513  -0.688   1.924 -0.1347 -0.2918 -0.9735
  327MOL0     C44050   2.411  -0.657   2.042 -0.0722 -0.8660  0.1134
  327MOL0     C44051   2.478  -0.637   2.178 -0.0610  1.1683  0.2001
  327MOL0     C44052   2.384  -0.630   2.302  0.5810 -1.1353 -0.7259
  327MOL0     C44053   2.278  -0.514   2.280 -0.3123 -0.8813  0.3210
  327MOL0    Cl44054   2.365  -0.370   2.234  0.3963 -0.1145 -0.7931
  327MOL0     C44055   3.069  -0.674   1.760  0.9474  0.3210 -0.2415
  327MOL0     C44056   3.203  -0.630   1.730  1.1187 -0.6304 -0.0571
  327MOL0     O44057   3.355  -0.443   1.508 -0.4472  0.9875  0.6265
  327MOL0     C44058   3.636  -0.404   1.446  0.3061  0.7199 -0.0830
  327MOL0     C44059   3.775  -0.389   1.442  0.1721  0.5471 -0.9531
  327MOL0     N44060   4.642  -0.416   1.511 -0.1629 -0.2385  0.8211
  327MOL0     N44061   4.730  -0.325   1.486  0.7066 -0.0793 -0.6359
  327MOL0     C44062   4.971   0.197   1.092  0.1860 -1.0649 -0.1965
  327MOL0     C44063   5.113   0.215   1.087  0.0473  0.7997 -0.4835
  327MOL0     C44064   5.515   0.243   0.834 -0.7130 -0.1821  0.1219
  327MOL0     C44065   5.545   0.378   0.844  0.5890 -1.3159  1.2162
  327MOL0     C44066   5.656   0.427   0.786 -0.1226  0.2611  0.6800
  327MOL0     C44067   5.749   0.346   0.709 -0.0925 -0.3820  0.3771
  327MOL0     O44068   5.849   0.414   0.639 -0.9277  0.3894  0.1975
  327MOL0     C44069   5.972   0.350   0.600  0.4921 -0.0979  0.3796
  327MOL0     C44070   5.961   0.285   0.458  0.8806  0.8958  0.0185
  327MOL0     C44071   5.931   0.383   0.340 -0.3996 -0.0626 -0.3679
  327MOL0     C44072   6.050   0.368   0.240  0.2008 -1.0006  0.3141
  327MOL0     C44073   6.057   0.478   0.142 -0.0159  0.4821 -0.2558
  327MOL0     C44074   6.085   0.551   0.055 -0.8571 -0.8653 -0.8889
  327MOL0     C44075   5.728   0.203   0.712  1.0583 -0.1915 -0.6146
  327MOL0     C44076   5.610   0.154   0.768  1.0637  0.1767 -0.6312
  327MOL0     C44077   5.611   0.006   0.788  0.6149 -0.0591 -0.2006
  327MOL0     H44078   5.157   0.330   0.772 -1.0256  1.1587 -0.1290
  327MOL0     H44079   4.906   0.305   0.772  0.3051 -3.0542 -0.8593
  327MOL0     H44080   4.699   0.297   0.825  1.7599 -1.3719 -2.7112
  327MOL0     H44081   4.722   0.126   0.800 -0.3394  1.1315 -0.0706
  327MOL0     H44082   4.533   0.041   0.887 -1.8878 -1.0943  3.9802
  327MOL0     H44083   4.480   0.208   0.830 -1.6152  1.3940  2.1016
  327MOL0     H44084   4.377   0.167   1.034  1.3913 -0.3566 -2.7836
  327MOL0     H44085   4.501   0.277   1.066  0.1688  0.9580 -1.8185
  327MOL0     H44086   4.490  -0.021   1.145  2.3014 -0.1186 -0.9418
  327MOL0     H44087   4.648   0.075   1.145  1.6867  1.9211  2.6524
  327MOL0     H44088   4.570   0.221   1.300 -0.1674 -0.9192 -1.2772
  327MOL0     H44089   4.403   0.160   1.284  0.2447 -0.5580 -0.2184
  327MOL0     H44090   4.505   0.055   1.495 -2.2274  2.7598 -0.2656
  327MOL0     H44091   4.502  -0.072   1.377  2.2015 -1.4817 -2.5038
  327MOL0     H44092   4.747   0.086   1.366  0.9646 -1.1444  0.6509
  327MOL0     H44093   4.727  -0.068   1.302  0.8745  0.0525  0.2866
  327MOL0     H44094   4.848  -0.089   1.517  0.5110  1.7077 -3.4139
  327MOL0     H44095   4.711  -0.007   1.597  1.0260  0.5857  0.5012
  327MOL0     H44096   4.500  -0.150   1.640  1.1550 -0.6382  1.7373
  327MOL0     H44097   4.451  -0.526   1.686  3.6661 -1.2185 -2.1237
  327MOL0     H44098   4.355  -0.370   1.686  2.5430  3.0962 -2.7014
  327MOL0     H44099   4.275  -0.374   1.476  0.9845  0.0017 -1.4485
  327MOL0     H44100   4.368  -0.518   1.436 -0.9752 -0.8910  0.1646
  327MOL0     H44101   4.187  -0.506   1.690  1.9603 -1.9247  1.8103
  327MOL0     H44102   4.213  -0.658   1.612 -0.7384  0.5285  1.3037
  327MOL0     H44103   4.026  -0.641   1.524 -1.6367  0.9112 -1.2433
  327MOL0     H44104   4.091  -0.542   1.400 -0.6035  1.1309 -0.8470
  327MOL0     H44105   3.865  -0.571   1.706 -1.2101 -4.6500 -1.4518
  327MOL0     H44106   3.633  -0.599   1.730  0.2563  4.2879  2.7811
  327MOL0     H44107   3.261  -0.795   1.439 -0.4809 -0.9181 -0.3666
  327MOL0     H44108   3.026  -0.872   1.475 -0.3836  1.2800 -0.3922
  327MOL0     H44109   2.839  -0.805   1.898  0.9599  1.4609  1.7995
  327MOL0     H44110   2.784  -0.669   1.815  1.5706 -0.2486  0.5117
  327MOL0     H44111   2.612  -0.839   1.688  0.3327  1.7623  0.8216
  327MOL0     H44112   2.683  -0.962   1.782 -0.8938  0.6041  1.1758
  327MOL0     H44113   2.479  -0.903   1.916 -1.0767  0.2705  6.1265
  327MOL0     H44114   2.627  -0.859   1.993 -0.2185  0.2971 -0.5589
  327MOL0     H44115   2.474  -0.658   1.826 -2.4087  3.6998  0.8730
  327MOL0     H44116   2.605  -0.631   1.937  0.5064 -1.6006  0.4610
  327MOL0     H44117   2.346  -0.745   2.038 -0.7883 -0.3379  0.0883
  327MOL0     H44118   2.352  -0.567   2.023  2.9420  0.5830 -3.9496
  327MOL0     H44119   2.534  -0.729   2.201  0.1814  1.0820 -0.6940
  327MOL0     H44120   2.550  -0.555   2.190  1.7014 -0.4650  1.5869
  327MOL0     H44121   2.438  -0.607   2.394 -1.0447 -0.0295  0.0170
  327MOL0     H44122   2.330  -0.722   2.325  1.5063 -1.3290  0.8114
  327MOL0     H44123   2.194  -0.530   2.213 -0.2413 -0.1826  0.0547
  327MOL0     H44124   2.232  -0.493   2.377 -0.6954  5.1833 -0.7847
  327MOL0     H44125   3.018  -0.625   1.842  3.1311  1.5766  0.4620
  327MOL0     H44126   3.265  -0.571   1.796  1.6392 -0.9268 -0.2816
  327MOL0     H44127   3.577  -0.338   1.384  2.3970  3.5083  0.6755
  327MOL0     H44128   3.821  -0.303   1.394  1.9232  1.7393  2.4951
  327MOL0     H44129   4.927   0.160   1.184 -0.5996  1.2373  0.4297
  327MOL0     H44130   5.176   0.188   1.171 -2.6840  1.8003  2.0491
  327MOL0     H44131   5.477   0.448   0.892  2.2855  1.9788 -0.8264
  327MOL0     H44132   5.676   0.533   0.796  2.0314  0.0525 -0.6966
  327MOL0     H44133   5.994   0.275   0.676 -1.0107 -1.6248 -0.6204
  327MOL0     H44134   6.060   0.415   0.595  2.4731 -2.5897 -4.3662
  327MOL0     H44135   5.879   0.215   0.476 -0.6888  2.5807 -0.2960
  327MOL0     H44136   6.058   0.235   0.445  0.2387  0.0425 -1.6304
  327MOL0     H44137   5.941   0.485   0.379 -1.3954 -0.4280  0.9087
  327MOL0     H44138   5.831   0.379   0.294 -0.2279 -2.4961 -0.6692
  327MOL0     H44139   6.149   0.385   0.282  0.7466  1.5121 -1.7144
  327MOL0     H44140   6.039   0.271   0.190  0.5416  0.4619 -2.8367
  327MOL0     H44141   6.091   0.614  -0.032 -0.9552  0.1278 -0.1967
  327MOL0     H44142   5.789   0.129   0.660  0.8004 -0.1454 -0.9827
  327MOL0     H44143   5.671  -0.034   0.706 -1.5720  3.0014 -3.5535
  327MOL0     H44144   5.640  -0.030   0.888  0.2974  1.3813  0.4392
  327MOL0     H44145   5.513  -0.043   0.786  0.4517  0.2468  0.2665
  328MOL0     O44146   7.808   8.443   2.487 -0.3544 -0.5027  0.2689
  328MOL0     C44147   7.926   8.436   2.467 -0.1063 -0.1873  0.3827
  328MOL0     O44148   8.002   8.332   2.496 -0.7570  0.2099  0.3199
  328MOL0     C44149   7.948   8.212   2.527  0.2110  0.0469  0.1170
  328MOL0     C44150   7.862   8.140   2.440  0.7303  0.0785  0.2086
  328MOL0     C44151   7.827   8.009   2.461 -0.1307  0.0939 -0.5934
  328MOL0     C44152   7.870   7.942   2.578 -0.3263 -0.0429  0.2242
  328MOL0     O44153   7.833   7.815   2.625 -0.3854 -0.9309  0.1077
  328MOL0     C44154   7.714   7.755   2.557 -0.2505 -0.5757 -0.6232
  328MOL0     C44155   7.592   7.816   2.618  0.2172 -0.9250 -0.0025
  328MOL0     C44156   7.461   7.758   2.556 -0.2613  0.2236  0.0250
  328MOL0     C44157   7.401   7.835   2.438  0.1710 -0.0432  0.0233
  328MOL0     C44158   7.264   7.769   2.405 -0.2113  0.7125  0.5026
  328MOL0     C44159   7.148   7.773   2.507 -0.0444 -0.2215  0.6255
  328MOL0     C44160   7.127   7.916   2.542 -1.4211 -0.8181 -0.6329
  328MOL0     C44161   6.997   7.954   2.594  0.2765 -1.0063 -0.0799
  328MOL0     N44162   6.979   8.094   2.637  0.3586 -1.0134  0.0786
  328MOL0     C44163   7.082   8.181   2.678 -0.0128 -0.5602  0.2233
  328MOL0     C44164   7.020   8.270   2.753 -0.3787 -0.9346  0.3361
  328MOL0     C44165   7.096   8.388   2.806 -0.7745 -0.5769  0.6998
  328MOL0     C44166   7.054   8.433   2.950  0.2070 -1.1209  0.1392
  328MOL0     C44167   7.146   8.544   3.007  0.0949  0.1775  0.8002
  328MOL0     C44168   7.169   8.547   3.158  0.0214 -0.6859  0.6857
  328MOL0     O44169   7.074   8.631   3.229  0.9782 -0.0761 -1.1095
  328MOL0     C44170   7.066   8.629   3.362 -0.4149  1.1250 -1.0942
  328MOL0     C44171   6.967   8.714   3.411  0.0503 -0.5281  0.9920
  328MOL0     C44172   6.935   8.706   3.548  0.3333 -0.2826  0.1226
  328MOL0     C44173   7.025   8.625   3.630 -0.4497  0.3920  0.2493
  328MOL0     C44174   6.978   8.605   3.770 -0.8855 -0.9113  0.2171
  328MOL0     O44175   7.046   8.507   3.838  0.8348  0.7245 -0.2478
  328MOL0     C44176   7.018   8.497   3.971  1.0090 -0.5732 -0.5002
  328MOL0     C44177   6.939   8.397   4.027  0.3656 -0.1704 -0.9976
  328MOL0     C44178   6.931   8.389   4.171  0.1801 -1.6322 -0.1569
  328MOL0     C44179   7.010   8.473   4.250  0.7191 -0.4171 -0.5013
  328MOL0     O44180   7.013   8.454   4.385 -0.8001 -0.0500  0.0184
  328MOL0     C44181   6.972   8.565   4.472 -0.5731  0.4807 -0.0907
  328MOL0     C44182   7.075   8.575   4.592  0.9584 -0.2026 -0.1012
  328MOL0     C44183   7.024   8.667   4.706  0.0612  0.3905 -0.8041
  328MOL0     C44184   7.069   8.807   4.704 -0.2312 -1.0476  0.4225
  328MOL0     C44185   7.014   8.883   4.837 -0.8885  0.3357  0.2350
  328MOL0     C44186   7.092   9.009   4.856 -0.3671 -0.6248  0.1373
  328MOL0     C44187   7.066   9.075   4.986  0.1305 -0.5389 -0.0069
  328MOL0     C44188   7.172   9.184   5.004  1.0156  0.0301  0.9475
  328MOL0    Cl44189   7.178   9.210   5.176 -0.0899 -0.0860  0.1612
  328MOL0     C44190   7.073   8.581   4.190 -0.1688 -0.1114 -0.4468
  328MOL0     C44191   7.075   8.593   4.050  0.8997  0.3524  0.5272
  328MOL0     O44192   6.899   8.680   3.818  0.5935  0.0536  0.1114
  328MOL0     C44193   7.143   8.564   3.578  0.3734 -0.2363  0.0146
  328MOL0     C44194   7.162   8.564   3.444  0.5569  0.4322  0.3624
  328MOL0     N44195   6.884   8.244   2.762 -0.2429 -0.7283 -0.2617
  328MOL0     N44196   6.861   8.142   2.689  0.1899  0.2678  0.1598
  328MOL0     C44197   7.966   8.001   2.654 -0.0602 -0.4465 -0.7068
  328MOL0     C44198   8.001   8.137   2.635 -0.1714 -0.4767 -0.3580
  328MOL0     C44199   7.995   8.560   2.420 -0.4813  0.4024 -0.2469
  328MOL0     C44200   8.138   8.548   2.394 -0.4200  0.8056  0.3988
  328MOL0     C44201   8.220   8.650   2.363  0.0010 -0.3835  0.3516
  328MOL0     C44202   8.160   8.782   2.366 -0.3008  0.3590 -0.3523
  328MOL0     O44203   8.249   8.889   2.330  0.3524 -0.3796  0.1982
  328MOL0     C44204   8.250   8.914   2.191  0.4904 -0.4094  0.3325
  328MOL0     C44205   8.318   9.047   2.179 -0.9688  0.2668 -0.1273
  328MOL0     C44206   8.243   9.159   2.234  0.6667 -0.7715  0.9602
  328MOL0     C44207   8.274   9.303   2.169  0.2668  1.9308 -0.2351
  328MOL0     C44208   8.393   9.352   2.239  0.0765 -0.2806  0.0492
  328MOL0     C44209   8.487   9.400   2.298 -0.1575 -0.3427  1.2279
  328MOL0     C44210   8.027   8.802   2.389 -0.0906  0.1062  0.4123
  328MOL0     C44211   7.947   8.695   2.415  0.6922  0.3071 -0.2229
  328MOL0     C44212   7.802   8.732   2.447  0.3202  0.2535  0.3600
  328MOL0     H44213   7.824   8.189   2.351 -1.7800  2.1087  2.2331
  328MOL0     H44214   7.761   7.971   2.383  1.6097 -1.3447 -1.4220
  328MOL0     H44215   7.713   7.776   2.450  0.1551  0.7346 -0.3861
  328MOL0     H44216   7.713   7.647   2.571 -1.7507 -0.2204  3.2824
  328MOL0     H44217   7.590   7.923   2.595 -0.5891 -1.0772 -0.6551
  328MOL0     H44218   7.593   7.801   2.727 -0.1480  3.5333  0.8128
  328MOL0     H44219   7.387   7.750   2.636  1.3000 -0.6743  1.4544
  328MOL0     H44220   7.476   7.652   2.531 -0.5615  0.0961  0.3811
  328MOL0     H44221   7.393   7.944   2.449 -0.2747 -0.2143  1.5658
  328MOL0     H44222   7.457   7.827   2.344 -1.6562 -0.6595 -1.0645
  328MOL0     H44223   7.222   7.810   2.312  1.0882 -0.4084 -0.6236
  328MOL0     H44224   7.278   7.665   2.374  0.6324  1.1414 -0.6364
  328MOL0     H44225   7.063   7.747   2.444 -0.0260  0.0555  0.4808
  328MOL0     H44226   7.157   7.707   2.594 -0.1583  0.2837  1.0314
  328MOL0     H44227   7.145   7.982   2.456 -1.3810  4.0649  2.6788
  328MOL0     H44228   7.209   7.937   2.611  0.2086 -0.8924 -2.4665
  328MOL0     H44229   6.923   7.911   2.525  1.1214  0.2404 -1.8342
  328MOL0     H44230   6.979   7.897   2.686  0.5154 -0.5757  0.2409
  328MOL0     H44231   7.188   8.174   2.659  0.0705  0.8126  0.0664
  328MOL0     H44232   7.201   8.360   2.802  0.0181  2.1896 -1.6484
  328MOL0     H44233   7.079   8.464   2.729 -2.9427 -0.8783  0.8194
  328MOL0     H44234   6.948   8.457   2.964 -0.6567 -5.2039  1.8816
  328MOL0     H44235   7.066   8.352   3.023  0.2635 -0.3229  1.0440
  328MOL0     H44236   7.104   8.639   2.973 -0.2373  0.3237  1.6078
  328MOL0     H44237   7.240   8.540   2.951 -1.4049 -1.0339 -1.8817
  328MOL0     H44238   7.268   8.588   3.182 -0.7948  2.9052 -1.3389
  328MOL0     H44239   7.160   8.444   3.193 -0.5586 -0.3445  1.5643
  328MOL0     H44240   6.907   8.770   3.339 -2.5101 -2.6774  1.2775
  328MOL0     H44241   6.853   8.764   3.589 -0.7587 -1.0606 -0.8633
  328MOL0     H44242   6.899   8.311   3.973  1.8809 -2.5433  1.3861
  328MOL0     H44243   6.877   8.307   4.220  0.9633 -1.5055  0.9613
  328MOL0     H44244   6.967   8.662   4.422  1.2479  0.9621  0.5779
  328MOL0     H44245   6.875   8.543   4.516 -0.2456 -0.1110  0.3604
  328MOL0     H44246   7.090   8.475   4.635 -0.1777 -1.6445 -2.8179
  328MOL0     H44247   7.174   8.606   4.558 -0.0682  1.3821 -1.8199
  328MOL0     H44248   6.917   8.649   4.712  0.1953 -0.8694 -1.7685
  328MOL0     H44249   7.064   8.630   4.801 -0.4776 -1.3332 -1.2088
  328MOL0     H44250   7.039   8.857   4.612  0.9089  2.2893  1.7170
  328MOL0     H44251   7.178   8.803   4.709 -0.3227 -3.4851  2.1714
  328MOL0     H44252   7.032   8.820   4.924 -0.1676 -1.6310 -1.2753
  328MOL0     H44253   6.908   8.899   4.812 -0.6525  1.6225 -0.0276
  328MOL0     H44254   7.196   8.976   4.868 -0.8247 -2.2050  0.0420
  328MOL0     H44255   7.087   9.067   4.764  1.8533 -1.1224 -0.3486
  328MOL0     H44256   7.089   9.000   5.062  0.5512  2.3418  2.9674
  328MOL0     H44257   6.963   9.104   5.011  0.8536  1.8368  0.4859
  328MOL0     H44258   7.268   9.148   4.965  0.1882 -0.8288 -0.3932
  328MOL0     H44259   7.147   9.266   4.936 -0.7075 -0.6208  0.7419
  328MOL0     H44260   7.143   8.643   4.246  1.8437 -2.5874 -0.0214
  328MOL0     H44261   7.135   8.672   4.005  0.7879 -0.4804 -1.1726
  328MOL0     H44262   7.205   8.499   3.639 -0.4284  0.8000  2.0637
  328MOL0     H44263   7.245   8.506   3.403  0.8044  1.0111  0.0376
  328MOL0     H44264   8.010   7.948   2.738 -1.6141 -1.2303 -0.3666
  328MOL0     H44265   8.062   8.178   2.714 -1.0392 -0.7159  0.4535
  328MOL0     H44266   8.186   8.453   2.409 -1.0823  0.0093 -2.0678
  328MOL0     H44267   8.324   8.633   2.341 -0.2989  0.5068 -1.9596
  328MOL0     H44268   8.148   8.918   2.153  0.4444  2.9011  0.5008
  328MOL0     H44269   8.313   8.834   2.151  2.9446 -0.3706  3.6923
  328MOL0     H44270   8.341   9.059   2.073  1.6674 -0.7707  0.2359
  328MOL0     H44271   8.415   9.041   2.230 -0.3853 -3.6191 -1.3370
  328MOL0     H44272   8.244   9.160   2.343  0.6846 -2.2646  0.9896
  328MOL0     H44273   8.134   9.151   2.222  0.5029  3.0269 -2.6995
  328MOL0     H44274   8.293   9.292   2.062 -0.7653  2.2422 -0.4599
  328MOL0     H44275   8.187   9.368   2.181 -0.1038  1.6078 -1.0972
  328MOL0     H44276   8.554   9.471   2.343  0.2315 -0.8327  1.4298
  328MOL0     H44277   7.993   8.904   2.400  0.7172  0.4415 -0.1177
  328MOL0     H44278   7.751   8.673   2.524  0.7608  1.2068  1.4245
  328MOL0     H44279   7.782   8.832   2.487  1.9505 -0.7867  4.3143
  328MOL0     H44280   7.741   8.717   2.358  0.1607 -0.1969  0.5399
  329MOL0     O44281   9.775   2.881   9.083  0.5872  0.4585  0.5229
  329MOL0     C44282   9.792   2.761   9.117  0.3704  0.1013  0.3626
  329MOL0     O44283   9.877   2.674   9.051 -1.2556 -1.1809 -0.3641
  329MOL0     C44284   9.950   2.716   8.936 -0.9735 -0.2182 -0.5648
  329MOL0     C44285   9.922   2.675   8.806 -0.2620 -0.0537 -0.9435
  329MOL0     C44286   9.999   2.697   8.689 -0.3237 -0.1592  0.5347
  329MOL0     C44287  10.111   2.775   8.711 -0.6117 -0.3201 -0.6604
  329MOL0     O44288  10.185   2.819   8.605 -0.2750 -0.1983 -0.2347
  329MOL0     C44289  10.325   2.779   8.594  0.3969 -0.6682  0.3006
  329MOL0     C44290  10.392   2.899   8.534  0.2284 -0.2752 -0.8168
  329MOL0     C44291  10.545   2.903   8.544 -0.9956 -0.7305 -1.3966
  329MOL0     C44292  10.605   3.010   8.454  0.3383 -0.2425  0.2602
  329MOL0     C44293  10.758   3.005   8.429  0.1415 -0.2664 -0.3158
  329MOL0     C44294  10.831   3.047   8.558 -0.1096 -0.5807  0.4466
  329MOL0     C44295  10.985   3.048   8.527  0.8784 -0.8782 -0.0803
  329MOL0     C44296  11.073   3.109   8.640 -0.2922  0.2574  0.0403
  329MOL0     N44297  11.054   3.255   8.668  0.1596  0.1530  0.7448
  329MOL0     C44298  11.018   3.355   8.579  0.1249 -0.0486  0.1960
  329MOL0     C44299  10.992   3.459   8.652  0.5323  0.0706 -0.4098
  329MOL0     C44300  10.942   3.584   8.591 -0.0506 -0.7482  0.6832
  329MOL0     C44301  10.791   3.595   8.604  0.7151  0.6869 -0.5550
  329MOL0     C44302  10.725   3.608   8.461 -0.3431 -0.3521  0.1622
  329MOL0     C44303  10.729   3.749   8.392  0.0549  0.0850 -0.4899
  329MOL0     O44304  10.673   3.754   8.260  0.5003 -0.3139 -1.2675
  329MOL0     C44305  10.713   3.871   8.188 -0.5757  0.9179  0.4331
  329MOL0     C44306  10.628   3.983   8.186 -1.0962 -0.9020  0.5178
  329MOL0     C44307  10.674   4.106   8.132 -0.5991 -0.4431  0.5538
  329MOL0     C44308  10.799   4.126   8.075 -0.0332  1.2445 -0.7306
  329MOL0     C44309  10.828   4.246   8.002 -0.1888 -0.0042 -0.3936
  329MOL0     O44310  10.717   4.325   7.985  0.1410  0.3086 -0.7954
  329MOL0     C44311  10.709   4.458   7.946 -0.1432  0.8929 -0.8279
  329MOL0     C44312  10.700   4.566   8.040 -0.3864  0.2253 -0.6851
  329MOL0     C44313  10.696   4.691   7.989  0.5665  0.8570 -0.2967
  329MOL0     C44314  10.696   4.716   7.851 -0.7922  0.4065  0.2581
  329MOL0     O44315  10.701   4.845   7.811 -0.0816 -0.6158 -0.3521
  329MOL0     C44316  10.613   4.891   7.707 -0.0691  0.8468  0.3644
  329MOL0     C44317  10.463   4.865   7.750 -0.0323  1.0042 -0.2887
  329MOL0     C44318  10.430   4.975   7.853 -0.2467  0.2236  0.2448
  329MOL0     C44319  10.329   4.920   7.958 -0.2589  0.0580 -0.4072
  329MOL0     C44320  10.400   4.835   8.070 -0.8265 -0.0064 -0.0958
  329MOL0     C44321  10.297   4.766   8.163  0.9461 -0.0311 -0.1549
  329MOL0     C44322  10.372   4.725   8.289 -1.1218  0.0246 -0.2546
  329MOL0     C44323  10.271   4.654   8.385  0.5438  0.0387 -1.0032
  329MOL0    Cl44324  10.353   4.597   8.532 -0.2468  0.7022  0.4296
  329MOL0     C44325  10.711   4.613   7.762  0.4973  0.6678  0.7998
  329MOL0     C44326  10.702   4.487   7.809  1.0464  0.4597  0.5138
  329MOL0     O44327  10.946   4.278   7.968  0.2790 -0.7136 -0.4449
  329MOL0     C44328  10.884   4.015   8.074  0.5983  0.5264  0.7099
  329MOL0     C44329  10.838   3.898   8.134 -0.5557 -0.3034 -0.8085
  329MOL0     N44330  11.022   3.429   8.791 -1.0447  0.3270  0.1427
  329MOL0     N44331  11.070   3.307   8.791  0.1001  0.1900 -0.0206
  329MOL0     C44332  10.153   2.819   8.834 -0.2842  0.8614 -0.3369
  329MOL0     C44333  10.073   2.786   8.951 -0.7902 -0.3996  0.0652
  329MOL0     C44334   9.698   2.702   9.217 -0.7541  0.0866 -0.2074
  329MOL0     C44335   9.690   2.566   9.232 -1.0021  1.5385 -0.8180
  329MOL0     C44336   9.604   2.502   9.324  0.4912 -0.0600  0.0004
  329MOL0     C44337   9.530   2.578   9.411 -0.5632  0.8814 -0.4181
  329MOL0     O44338   9.437   2.509   9.496  0.5122 -0.4212  0.5931
  329MOL0     C44339   9.475   2.531   9.630 -0.2882  0.1442 -0.4974
  329MOL0     C44340   9.360   2.497   9.726 -0.2046 -0.5749  0.6072
  329MOL0     C44341   9.381   2.547   9.863  0.3877 -0.3192  0.7945
  329MOL0     C44342   9.494   2.466   9.928 -0.6784 -0.6063 -0.0936
  329MOL0     C44343   9.532   2.532  10.062 -1.0811  0.4162  0.3428
  329MOL0     C44344   9.568   2.597  10.160  0.6105  0.1975  0.3728
  329MOL0     C44345   9.536   2.715   9.400  0.6733  0.1022  0.2334
  329MOL0     C44346   9.620   2.783   9.310 -1.2694  0.5042  1.1145
  329MOL0     C44347   9.622   2.940   9.332  0.2126  0.9326 -0.9828
  329MOL0     H44348   9.837   2.610   8.790  1.6220 -2.2679 -2.7215
  329MOL0     H44349   9.980   2.654   8.591 -2.2893  0.0197  0.7992
  329MOL0     H44350  10.366   2.750   8.692  0.7996 -0.7919  0.0961
  329MOL0     H44351  10.319   2.686   8.537  0.5112 -0.6781  0.3046
  329MOL0     H44352  10.365   2.980   8.602  2.0387 -0.4763  0.2045
  329MOL0     H44353  10.352   2.927   8.436 -0.2197  1.3348 -0.2140
  329MOL0     H44354  10.586   2.804   8.522  0.8489 -0.4882  0.5773
  329MOL0     H44355  10.577   2.931   8.645 -1.4047  1.7922 -1.9190
  329MOL0     H44356  10.563   3.002   8.353 -1.9129 -0.2183  1.1487
  329MOL0     H44357  10.586   3.106   8.501 -0.7732  0.1422 -0.9119
  329MOL0     H44358  10.795   2.906   8.401  1.6458 -0.6891  2.7587
  329MOL0     H44359  10.793   3.072   8.349  0.6247  1.4423  1.2589
  329MOL0     H44360  10.795   3.143   8.594  0.1282 -1.4876  3.3878
  329MOL0     H44361  10.805   2.981   8.641 -2.8356  0.4678  0.5009
  329MOL0     H44362  11.007   3.104   8.436  5.2394  0.8216  1.7641
  329MOL0     H44363  11.016   2.943   8.517 -4.5522 -2.8656  0.3531
  329MOL0     H44364  11.046   3.057   8.732  1.7400  2.8713  2.2897
  329MOL0     H44365  11.177   3.078   8.628 -0.7692 -1.4041 -0.0562
  329MOL0     H44366  11.016   3.342   8.471  1.5578  1.2942 -0.0266
  329MOL0     H44367  10.989   3.677   8.624  0.1281 -0.3510 -0.6073
  329MOL0     H44368  10.975   3.582   8.487 -2.2778 -0.2352 -0.0886
  329MOL0     H44369  10.755   3.498   8.639  1.0965  1.5457  2.4934
  329MOL0     H44370  10.753   3.670   8.673 -1.6217  0.8546 -1.9213
  329MOL0     H44371  10.618   3.586   8.465 -0.5302  0.5842  0.4279
  329MOL0     H44372  10.765   3.524   8.403 -1.0349 -1.0058  0.6146
  329MOL0     H44373  10.828   3.794   8.379 -0.1275  0.2181 -1.5114
  329MOL0     H44374  10.670   3.800   8.468  0.1869  0.2678 -0.5088
  329MOL0     H44375  10.526   3.966   8.218 -2.2140  3.5535  0.0118
  329MOL0     H44376  10.599   4.184   8.119 -0.8612 -0.4648  1.7558
  329MOL0     H44377  10.706   4.538   8.144  2.5486  0.1985 -0.7950
  329MOL0     H44378  10.697   4.771   8.061  2.9967  1.0584 -0.4790
  329MOL0     H44379  10.634   4.995   7.680 -1.8422  2.0252  3.0637
  329MOL0     H44380  10.641   4.827   7.623  2.2628 -0.7048  2.2063
  329MOL0     H44381  10.401   4.876   7.661 -0.9763  0.7737  0.3287
  329MOL0     H44382  10.456   4.763   7.787  0.6148  0.3272 -1.9577
  329MOL0     H44383  10.520   5.012   7.904  0.0579 -0.3701  0.1521
  329MOL0     H44384  10.372   5.047   7.795 -4.0541 -3.8577 -1.6165
  329MOL0     H44385  10.248   4.869   7.904 -1.8754  2.1027 -0.0471
  329MOL0     H44386  10.284   5.009   8.003  1.3683  1.0746 -0.7289
  329MOL0     H44387  10.460   4.905   8.129 -1.8843  0.3008  0.6512
  329MOL0     H44388  10.475   4.775   8.019  0.9574  3.2448 -1.5750
  329MOL0     H44389  10.219   4.834   8.196  0.1214 -0.4089 -1.2274
  329MOL0     H44390  10.256   4.675   8.117 -1.3971  2.3415 -3.2839
  329MOL0     H44391  10.411   4.818   8.332 -0.9344 -1.2113  2.5022
  329MOL0     H44392  10.450   4.651   8.271 -1.5991 -0.2201 -1.3839
  329MOL0     H44393  10.186   4.719   8.407 -1.2212 -2.6368  0.8049
  329MOL0     H44394  10.239   4.564   8.332  1.1622  1.2218 -3.5530
  329MOL0     H44395  10.729   4.619   7.656 -1.2123 -1.5555  0.3336
  329MOL0     H44396  10.706   4.410   7.732 -0.6936  1.0013 -0.1519
  329MOL0     H44397  10.977   4.014   8.018  0.6795 -0.1562  0.8559
  329MOL0     H44398  10.911   3.820   8.114 -1.4192 -0.5573 -3.3900
  329MOL0     H44399  10.240   2.884   8.838  0.8547 -0.7019  1.9954
  329MOL0     H44400  10.118   2.814   9.046 -1.1484  0.7351 -0.0896
  329MOL0     H44401   9.745   2.507   9.160  0.6623 -0.9069  2.2114
  329MOL0     H44402   9.603   2.394   9.331  1.4052 -0.0470  0.4727
  329MOL0     H44403   9.506   2.635   9.644 -1.3582  1.1043 -4.0974
  329MOL0     H44404   9.553   2.459   9.653 -0.0548  0.7311  0.6108
  329MOL0     H44405   9.347   2.388   9.731 -0.5504 -0.4676  2.7519
  329MOL0     H44406   9.272   2.558   9.702 -0.8337 -2.2722 -1.8730
  329MOL0     H44407   9.294   2.529   9.927 -0.7702  0.6417 -0.4442
  329MOL0     H44408   9.400   2.654   9.852 -1.6526 -0.1097 -1.6529
  329MOL0     H44409   9.467   2.360   9.931  0.1302 -0.8614 -1.1664
  329MOL0     H44410   9.574   2.476   9.854 -1.9011 -0.5173 -1.4434
  329MOL0     H44411   9.624   2.654  10.231  1.4637 -0.6842  0.4336
  329MOL0     H44412   9.463   2.776   9.452  1.8254 -0.1743  2.2760
  329MOL0     H44413   9.718   2.980   9.364  1.0232 -2.4710  1.4097
  329MOL0     H44414   9.597   2.996   9.241 -0.2708  1.3807 -0.5722
  329MOL0     H44415   9.546   2.975   9.402  0.4867 -1.9464  0.9627
  330MOL0     O44416   8.856   0.595   5.451  0.2811 -0.2437  0.3508
  330MOL0     C44417   8.820   0.713   5.465  0.2893 -0.0483 -0.6583
  330MOL0     O44418   8.824   0.777   5.583  0.2314  0.2688 -0.5453
  330MOL0     C44419   8.812   0.702   5.702 -0.3513  0.0428 -0.7347
  330MOL0     C44420   8.756   0.575   5.723  0.6987 -0.0500  0.2428
  330MOL0     C44421   8.766   0.506   5.851 -0.1003 -0.9190  0.2315
  330MOL0     C44422   8.829   0.565   5.962  0.2822  0.2138 -0.7003
  330MOL0     O44423   8.842   0.497   6.084  0.3368 -0.8277  0.2281
  330MOL0     C44424   8.791   0.569   6.193 -0.3566 -0.0263 -0.3332
  330MOL0     C44425   8.687   0.476   6.247 -0.2960  0.4339 -0.1161
  330MOL0     C44426   8.564   0.460   6.156  0.3488  0.0469  0.0194
  330MOL0     C44427   8.429   0.403   6.213 -0.7208 -0.8647  0.6842
  330MOL0     C44428   8.341   0.366   6.094 -0.6069  0.6616 -0.5333
  330MOL0     C44429   8.201   0.325   6.143  0.4667 -1.2697 -0.0928
  330MOL0     C44430   8.200   0.212   6.257  1.4485 -1.0035  0.0482
  330MOL0     C44431   8.051   0.167   6.266 -0.9058 -0.4313  0.9041
  330MOL0     N44432   7.960   0.272   6.301  1.2061 -0.3964  0.4986
  330MOL0     C44433   7.858   0.330   6.215  0.6603  0.3627 -0.0379
  330MOL0     C44434   7.772   0.396   6.298 -1.3154 -0.7328  0.6927
  330MOL0     C44435   7.668   0.483   6.243  0.5875  0.7361 -0.9902
  330MOL0     C44436   7.719   0.601   6.164 -0.2922 -0.6725 -0.1713
  330MOL0     C44437   7.813   0.684   6.248 -0.6494 -0.3782 -0.0733
  330MOL0     C44438   7.869   0.798   6.156 -0.5610 -0.3254 -0.1855
  330MOL0     O44439   7.974   0.861   6.236  0.6527 -0.7098 -0.3101
  330MOL0     C44440   8.044   0.965   6.177  0.1259  0.5336 -0.1361
  330MOL0     C44441   8.022   1.016   6.047 -0.0431  0.3265 -0.2139
  330MOL0     C44442   8.095   1.127   6.008 -0.0280  0.5663 -0.1470
  330MOL0     C44443   8.182   1.206   6.080 -0.5520 -0.0978 -0.7237
  330MOL0     C44444   8.221   1.346   6.051 -0.2889 -0.7989 -0.9288
  330MOL0     O44445   8.203   1.385   5.920 -0.5622 -0.7435  0.4179
  330MOL0     C44446   8.283   1.495   5.879  0.7484  0.9334 -0.1290
  330MOL0     C44447   8.219   1.623   5.869  0.2142  0.4530  0.3853
  330MOL0     C44448   8.297   1.718   5.805  0.5877 -0.0164 -0.3228
  330MOL0     C44449   8.426   1.699   5.753  0.6120  0.0632  1.0600
  330MOL0     O44450   8.488   1.812   5.702  0.2630 -0.3404  0.3829
  330MOL0     C44451   8.570   1.804   5.581 -0.5245 -0.7749  0.0590
  330MOL0     C44452   8.612   1.946   5.525 -0.3002  0.1123  0.5514
  330MOL0     C44453   8.521   2.007   5.416 -0.0289 -0.0996 -0.1506
  330MOL0     C44454   8.523   1.948   5.269 -0.3547  0.7857 -0.0831
  330MOL0     C44455   8.450   2.050   5.181 -0.3121 -0.3352  0.9798
  330MOL0     C44456   8.468   2.014   5.028  1.1814 -0.0103 -0.3998
  330MOL0     C44457   8.372   2.092   4.934  0.4307 -1.0462  0.7164
  330MOL0     C44458   8.417   2.111   4.785 -1.2950  0.3597 -0.5658
  330MOL0    Cl44459   8.476   1.954   4.733 -0.5814 -0.2263  0.1196
  330MOL0     C44460   8.475   1.570   5.765 -0.1106 -0.5443  0.2967
  330MOL0     C44461   8.410   1.470   5.828  0.4091 -0.4523 -0.5701
  330MOL0     O44462   8.274   1.414   6.141 -0.3476 -0.2038 -0.2748
  330MOL0     C44463   8.217   1.144   6.210  0.9163  0.3369 -0.3223
  330MOL0     C44464   8.144   1.034   6.255  1.2301  0.0464  0.1446
  330MOL0     N44465   7.812   0.366   6.430 -0.0728 -0.8085  0.4033
  330MOL0     N44466   7.909   0.281   6.423  0.4543  0.9582 -0.0757
  330MOL0     C44467   8.890   0.692   5.936  0.9407 -0.2308  0.5054
  330MOL0     C44468   8.879   0.760   5.811 -1.1396 -0.4747 -0.8800
  330MOL0     C44469   8.777   0.787   5.339 -0.1997 -0.5393  0.2483
  330MOL0     C44470   8.808   0.923   5.316  0.3914  0.4409 -0.3559
  330MOL0     C44471   8.781   0.985   5.187  0.7978  0.1847 -0.7158
  330MOL0     C44472   8.713   0.911   5.084  1.0870 -1.0596 -0.3978
  330MOL0     O44473   8.694   0.956   4.954  0.4317  0.1717 -0.6215
  330MOL0     C44474   8.749   1.082   4.917  0.3631  0.2710 -0.2021
  330MOL0     C44475   8.725   1.131   4.771  0.2098 -0.4287 -0.0230
  330MOL0     C44476   8.794   1.260   4.740 -1.0084  0.1327 -0.3294
  330MOL0     C44477   8.815   1.270   4.590  1.0428  0.2105 -0.2493
  330MOL0     C44478   8.908   1.384   4.569  0.1627  0.4013  0.2309
  330MOL0     C44479   8.979   1.481   4.545  0.1168  1.0725 -0.2827
  330MOL0     C44480   8.686   0.783   5.109  0.5513 -0.5236 -1.2868
  330MOL0     C44481   8.715   0.722   5.228  0.1005  0.2220  0.2813
  330MOL0     C44482   8.670   0.572   5.241  0.3781  0.2284  0.5890
  330MOL0     H44483   8.704   0.529   5.639  2.1405  2.9478 -2.5175
  330MOL0     H44484   8.730   0.404   5.847  1.2705 -1.4292  0.3739
  330MOL0     H44485   8.868   0.567   6.272 -1.2898 -2.9924  0.6505
  330MOL0     H44486   8.762   0.672   6.169  1.2978  0.1551 -1.7447
  330MOL0     H44487   8.659   0.516   6.346 -0.1144 -0.3640  0.2662
  330MOL0     H44488   8.740   0.382   6.264 -1.1578 -0.5198 -2.3058
  330MOL0     H44489   8.594   0.397   6.071  3.5754 -0.9373  1.7034
  330MOL0     H44490   8.542   0.563   6.125  0.5541 -0.0014 -0.2924
  330MOL0     H44491   8.446   0.329   6.291 -1.3840 -0.0344  1.6482
  330MOL0     H44492   8.371   0.480   6.266 -1.3528 -0.2664 -0.8140
  330MOL0     H44493   8.331   0.452   6.027  1.7112  2.1361  0.8832
  330MOL0     H44494   8.398   0.282   6.052  0.9349  0.8065  1.1332
  330MOL0     H44495   8.147   0.414   6.178  0.8188 -1.0670 -0.0567
  330MOL0     H44496   8.142   0.292   6.057 -1.0048 -2.8038  1.4376
  330MOL0     H44497   8.241   0.252   6.350  3.3451  0.0471 -1.1414
  330MOL0     H44498   8.269   0.130   6.236 -0.0527 -3.2136  3.0974
  330MOL0     H44499   8.011   0.114   6.178 -1.2880 -1.7102  1.8162
  330MOL0     H44500   8.055   0.095   6.348 -1.1445  0.1674  1.4396
  330MOL0     H44501   7.866   0.337   6.107  2.0425  1.4887  0.1018
  330MOL0     H44502   7.591   0.438   6.179  0.8005 -2.8623  0.9912
  330MOL0     H44503   7.629   0.529   6.334  3.7264 -1.6403  1.8392
  330MOL0     H44504   7.773   0.556   6.080 -1.0186 -0.6843 -0.6367
  330MOL0     H44505   7.632   0.655   6.125 -1.1824 -2.5164 -0.8354
  330MOL0     H44506   7.899   0.624   6.277  0.8297  1.8200  0.3740
  330MOL0     H44507   7.775   0.731   6.339 -3.0331  0.9521 -1.6382
  330MOL0     H44508   7.784   0.864   6.135 -1.1376 -0.9527  0.1524
  330MOL0     H44509   7.908   0.758   6.062  2.1337  3.7979 -1.0874
  330MOL0     H44510   7.966   0.964   5.968 -0.5365  0.3605  0.1086
  330MOL0     H44511   8.068   1.159   5.908  0.5613  1.2094 -0.1054
  330MOL0     H44512   8.111   1.614   5.882  0.4743 -3.4433  0.9200
  330MOL0     H44513   8.244   1.812   5.793  3.3292  1.9989  1.7435
  330MOL0     H44514   8.659   1.748   5.610  0.8258  1.0961 -0.2265
  330MOL0     H44515   8.521   1.747   5.502 -1.1245 -1.2055  0.7313
  330MOL0     H44516   8.606   2.004   5.617 -3.0023  2.5136 -0.9653
  330MOL0     H44517   8.712   1.944   5.482 -0.7600 -1.5722 -0.5425
  330MOL0     H44518   8.424   2.029   5.461  1.1002  0.3745  2.2233
  330MOL0     H44519   8.569   2.103   5.399  2.6286 -1.0607  1.3467
  330MOL0     H44520   8.486   1.846   5.259 -0.4204  0.7600  0.4310
  330MOL0     H44521   8.631   1.952   5.250  0.3447  0.3608  3.3016
  330MOL0     H44522   8.501   2.143   5.205  4.2947 -3.1102  3.3332
  330MOL0     H44523   8.347   2.042   5.216 -0.6308  3.1944  1.1876
  330MOL0     H44524   8.573   2.035   5.004  0.5520  2.5292 -1.2570
  330MOL0     H44525   8.444   1.907   5.025 -1.6554  0.3958  2.3543
  330MOL0     H44526   8.354   2.192   4.976 -0.4305 -1.0517  0.3837
  330MOL0     H44527   8.283   2.028   4.927  1.6189 -2.5657 -2.7175
  330MOL0     H44528   8.349   2.156   4.712 -0.6679  1.9958 -0.1982
  330MOL0     H44529   8.502   2.180   4.781 -0.4286 -0.5016  1.4457
  330MOL0     H44530   8.573   1.541   5.729 -0.7765 -0.1808 -1.9729
  330MOL0     H44531   8.455   1.373   5.848 -2.2608 -1.7706 -0.4807
  330MOL0     H44532   8.292   1.195   6.269 -0.4970  2.0699  0.0492
  330MOL0     H44533   8.150   1.004   6.359 -0.2263  2.7873  1.1336
  330MOL0     H44534   8.940   0.737   6.021  1.3135  0.1750  0.0810
  330MOL0     H44535   8.913   0.859   5.785 -2.1324 -0.4250 -2.1168
  330MOL0     H44536   8.867   0.974   5.392  1.9852 -2.1655  0.2737
  330MOL0     H44537   8.799   1.092   5.182  1.0463  0.4835  3.3671
  330MOL0     H44538   8.857   1.085   4.933 -0.0242  2.5324  2.9251
  330MOL0     H44539   8.715   1.163   4.982  3.2542  1.2254  0.2252
  330MOL0     H44540   8.618   1.152   4.757 -0.1783 -1.3516  1.3399
  330MOL0     H44541   8.762   1.055   4.702  0.2607 -1.1458  0.7750
  330MOL0     H44542   8.892   1.259   4.788 -0.8403  0.8934 -0.6386
  330MOL0     H44543   8.746   1.349   4.782 -2.2348 -1.0096  0.7463
  330MOL0     H44544   8.867   1.189   4.538  3.6044  0.0540  2.3396
  330MOL0     H44545   8.720   1.273   4.535  0.8234 -1.0841  0.0028
  330MOL0     H44546   9.042   1.561   4.512 -1.8909  1.8588 -2.5405
  330MOL0     H44547   8.615   0.734   5.042 -0.0761 -1.5120  0.0473
  330MOL0     H44548   8.587   0.562   5.171  1.6526  2.7276 -1.4105
  330MOL0     H44549   8.744   0.504   5.197 -3.7277 -3.1513 -1.9142
  330MOL0     H44550   8.644   0.538   5.342  0.4077  0.1291  0.5640
  331MOL0     O44551   0.975   8.846   7.387  0.0156 -0.5834 -0.3697
  331MOL0     C44552   0.977   8.938   7.466  0.2134  0.6225  0.3212
  331MOL0     O44553   0.924   8.941   7.596  0.1660 -0.1240 -0.0443
  331MOL0     C44554   0.826   8.847   7.637  0.5844  0.3005  0.2383
  331MOL0     C44555   0.761   8.744   7.564 -0.2281  0.0773  0.0258
  331MOL0     C44556   0.665   8.676   7.628 -0.1767  0.0371 -0.6584
  331MOL0     C44557   0.613   8.716   7.760  0.0143  0.4165  0.4150
  331MOL0     O44558   0.529   8.622   7.811 -0.0245 -0.1280  0.1900
  331MOL0     C44559   0.492   8.641   7.945 -0.1351 -0.1525  0.1598
  331MOL0     C44560   0.369   8.727   7.961  0.5866  0.2363  0.7597
  331MOL0     C44561   0.327   8.747   8.102  0.3638  0.6690 -0.5507
  331MOL0     C44562   0.434   8.842   8.159 -0.0423 -0.6314 -0.6220
  331MOL0     C44563   0.396   8.871   8.310 -0.0771 -0.7981  0.9932
  331MOL0     C44564   0.347   9.007   8.331 -0.0956  0.0004 -0.2109
  331MOL0     C44565   0.460   9.107   8.361 -0.0671  0.4622 -0.0634
  331MOL0     C44566   0.524   9.100   8.508 -0.0217 -0.2592  0.5936
  331MOL0     N44567   0.634   9.199   8.519  1.1780  0.0648 -0.4073
  331MOL0     C44568   0.731   9.224   8.436 -0.5694 -0.0342  0.5336
  331MOL0     C44569   0.813   9.313   8.492  0.0793 -0.1536  0.5659
  331MOL0     C44570   0.958   9.364   8.454  0.9662  0.1485  0.1963
  331MOL0     C44571   0.951   9.525   8.439 -0.2182 -1.2053 -0.0056
  331MOL0     C44572   1.076   9.570   8.350  0.8439  0.0831 -0.1849
  331MOL0     C44573   1.094   9.720   8.364  0.7525 -0.1259  0.3778
  331MOL0     O44574   0.977   9.771   8.288 -0.0582  0.6151  0.8330
  331MOL0     C44575   0.998   9.892   8.221  0.5907  0.6946 -0.4262
  331MOL0     C44576   0.949   9.897   8.091  0.2018  0.3567 -0.8170
  331MOL0     C44577   0.967  10.015   8.016  0.7074  0.0860 -0.1314
  331MOL0     C44578   1.044  10.116   8.063  0.7580  0.5796  0.1098
  331MOL0     C44579   1.052  10.239   7.976  0.4941  0.0650 -0.4184
  331MOL0     O44580   1.136  10.331   8.031  0.4002  0.5018 -0.0394
  331MOL0     C44581   1.141  10.455   7.981  0.5289 -0.4825 -0.9390
  331MOL0     C44582   1.025  10.533   7.956 -0.6834  0.6371 -0.1214
  331MOL0     C44583   1.028  10.664   7.926 -0.2288 -1.4545 -0.2944
  331MOL0     C44584   1.155  10.730   7.935 -0.2133 -0.4044  0.1668
  331MOL0     O44585   1.174  10.864   7.902 -0.3497 -0.2425 -0.0365
  331MOL0     C44586   1.075  10.966   7.942  0.2387  0.9501 -0.8989
  331MOL0     C44587   0.990  10.993   7.817 -0.1230  0.1822  0.4079
  331MOL0     C44588   0.935  11.139   7.819 -0.0969  0.1764  0.0324
  331MOL0     C44589   0.861  11.181   7.940 -0.5393 -0.4798  0.0659
  331MOL0     C44590   0.905  11.329   7.981  0.3041  0.3287  0.1171
  331MOL0     C44591   0.816  11.369   8.101 -1.0041  0.6432  0.4037
  331MOL0     C44592   0.850  11.514   8.146  0.4808  0.0103 -1.0581
  331MOL0     C44593   0.721  11.591   8.167 -0.2085  0.8420  0.1699
  331MOL0    Cl44594   0.635  11.542   8.310  0.1945  0.3602 -0.3123
  331MOL0     C44595   1.266  10.660   7.975  0.3405 -0.8452 -0.7670
  331MOL0     C44596   1.259  10.520   7.986  0.1349 -0.5353 -0.2498
  331MOL0     O44597   0.986  10.242   7.867 -0.0111 -0.0193 -0.2948
  331MOL0     C44598   1.107  10.104   8.189  0.1489  0.9657  0.0302
  331MOL0     C44599   1.082   9.992   8.269  0.0309  0.4630 -0.5046
  331MOL0     N44600   0.762   9.351   8.612  0.2046 -0.3788 -0.1238
  331MOL0     N44601   0.646   9.292   8.620 -0.0634  0.0846 -0.3711
  331MOL0     C44602   0.674   8.824   7.824 -0.4503  0.6241 -1.1197
  331MOL0     C44603   0.788   8.871   7.771  0.1614 -1.1321 -0.6127
  331MOL0     C44604   1.061   9.061   7.432 -0.0472  0.0331 -0.4985
  331MOL0     C44605   1.131   9.104   7.545 -0.8671  0.2707  0.1199
  331MOL0     C44606   1.205   9.221   7.524  0.2373  0.0141  0.9747
  331MOL0     C44607   1.231   9.280   7.401  0.5286  0.1573 -0.7208
  331MOL0     O44608   1.309   9.389   7.410 -0.1758  0.8748 -0.6104
  331MOL0     C44609   1.341   9.477   7.298 -0.3047 -0.1380  1.0198
  331MOL0     C44610   1.427   9.416   7.191  0.2344  0.7224 -0.2639
  331MOL0     C44611   1.558   9.353   7.242  0.5515 -0.1491  0.1834
  331MOL0     C44612   1.656   9.325   7.128 -0.2914  0.6156  0.7206
  331MOL0     C44613   1.755   9.229   7.169  0.0660 -0.0489  0.4123
  331MOL0     C44614   1.851   9.173   7.207  0.3347  0.0643  0.0062
  331MOL0     C44615   1.165   9.225   7.294 -0.3982  0.0476  0.0959
  331MOL0     C44616   1.084   9.121   7.309  0.8014 -0.3287  0.6600
  331MOL0     C44617   1.015   9.073   7.182  0.3109  0.5330  0.1369
  331MOL0     H44618   0.807   8.715   7.471  5.8499 -0.7799  2.8091
  331MOL0     H44619   0.642   8.581   7.581  1.0023 -0.4336 -0.3084
  331MOL0     H44620   0.467   8.539   7.976  1.0792 -0.4033  0.3590
  331MOL0     H44621   0.570   8.674   8.015 -1.5287 -3.1170  3.4448
  331MOL0     H44622   0.285   8.680   7.909  0.4028  1.6900 -0.3391
  331MOL0     H44623   0.387   8.822   7.910  2.2503  0.1964  1.2337
  331MOL0     H44624   0.320   8.651   8.155 -1.8285 -0.8686 -3.3229
  331MOL0     H44625   0.228   8.792   8.107  0.1336  0.4515 -2.3500
  331MOL0     H44626   0.530   8.794   8.176 -0.3975 -1.8769 -1.9403
  331MOL0     H44627   0.451   8.939   8.111 -1.5722 -0.6255 -1.2234
  331MOL0     H44628   0.311   8.807   8.335 -1.9452  1.4257  0.6348
  331MOL0     H44629   0.487   8.847   8.367  0.5747 -2.0340 -0.4980
  331MOL0     H44630   0.292   9.045   8.244  2.0368  2.9753 -0.4453
  331MOL0     H44631   0.270   8.995   8.408 -2.1521  0.9020 -2.0076
  331MOL0     H44632   0.428   9.211   8.357  0.0469  0.4683 -1.4067
  331MOL0     H44633   0.532   9.105   8.278 -1.6662  2.7592 -1.6284
  331MOL0     H44634   0.444   9.134   8.574 -0.2133  0.9928 -0.2361
  331MOL0     H44635   0.550   8.998   8.538 -3.7863 -1.4105  0.5123
  331MOL0     H44636   0.751   9.175   8.341  1.3141  3.2737 -0.9634
  331MOL0     H44637   1.017   9.337   8.542 -0.0862  1.3446  1.3222
  331MOL0     H44638   0.999   9.301   8.375 -0.5550 -0.8875  0.1832
  331MOL0     H44639   0.857   9.550   8.390 -0.6361 -2.0687  0.3266
  331MOL0     H44640   0.955   9.566   8.541  0.0823 -1.1365 -0.0451
  331MOL0     H44641   1.069   9.538   8.245 -0.9275 -0.0138 -0.0665
  331MOL0     H44642   1.163   9.520   8.394 -0.2788  0.2070  2.2938
  331MOL0     H44643   1.190   9.739   8.315  1.3987 -1.2761  1.1317
  331MOL0     H44644   1.101   9.760   8.465  1.0298 -0.6897  0.5842
  331MOL0     H44645   0.904   9.806   8.053 -0.1344 -0.7619  1.9811
  331MOL0     H44646   0.917  10.001   7.921  0.2844  0.9707 -0.0513
  331MOL0     H44647   0.931  10.483   7.974  0.4264 -1.1399  1.0296
  331MOL0     H44648   0.934  10.716   7.908 -1.7717 -2.8505  2.9277
  331MOL0     H44649   1.011  10.944   8.028 -0.5492  0.5942 -1.5629
  331MOL0     H44650   1.130  11.058   7.964  2.9976 -0.5474 -1.0609
  331MOL0     H44651   1.044  10.980   7.723  0.7552  1.4424  0.7086
  331MOL0     H44652   0.906  10.922   7.823 -0.3570  0.5752  3.1883
  331MOL0     H44653   1.027  11.197   7.812 -1.3316  2.9587  3.5988
  331MOL0     H44654   0.879  11.143   7.725 -0.1871 -0.4507  0.0529
  331MOL0     H44655   0.885  11.116   8.024  3.4822 -0.2695 -0.6802
  331MOL0     H44656   0.757  11.190   7.908 -1.1493 -4.6192  0.4090
  331MOL0     H44657   0.896  11.393   7.893 -1.5760  1.4327  1.0554
  331MOL0     H44658   1.005  11.336   8.025 -0.2444  4.3903  1.1761
  331MOL0     H44659   0.712  11.355   8.072  0.3173 -1.2982 -4.4056
  331MOL0     H44660   0.842  11.299   8.181 -3.1861 -1.9939 -1.0349
  331MOL0     H44661   0.906  11.571   8.071 -1.3542  3.0774 -0.2844
  331MOL0     H44662   0.906  11.509   8.240  1.6976 -0.7629 -1.7979
  331MOL0     H44663   0.758  11.693   8.177 -1.4705  1.1616  2.0405
  331MOL0     H44664   0.654  11.576   8.082  2.2666 -3.6673 -1.3143
  331MOL0     H44665   1.366  10.698   7.990 -0.3131 -0.2467  2.8654
  331MOL0     H44666   1.351  10.465   8.005 -0.3169 -0.3204  3.3772
  331MOL0     H44667   1.150  10.185   8.246 -2.3979  0.4632  2.9510
  331MOL0     H44668   1.117   9.974   8.370 -1.9256 -2.6718 -0.2286
  331MOL0     H44669   0.645   8.846   7.926 -0.9638  1.2796 -1.3973
  331MOL0     H44670   0.832   8.953   7.828 -0.8197 -0.7117 -0.4532
  331MOL0     H44671   1.133   9.058   7.643 -1.7302 -1.0996 -0.4843
  331MOL0     H44672   1.258   9.245   7.615  0.6954 -1.0971  1.0138
  331MOL0     H44673   1.388   9.570   7.332 -0.4471  0.4853 -0.4091
  331MOL0     H44674   1.248   9.511   7.252  0.1418 -2.0047 -1.5262
  331MOL0     H44675   1.464   9.495   7.125  1.7861  0.4458  0.2139
  331MOL0     H44676   1.363   9.349   7.133 -0.3512  1.2967 -0.2929
  331MOL0     H44677   1.537   9.262   7.299 -1.1184 -0.3395 -0.6738
  331MOL0     H44678   1.617   9.420   7.306  3.3750 -1.5090 -0.8037
  331MOL0     H44679   1.613   9.290   7.034  1.6419 -1.9245  0.6598
  331MOL0     H44680   1.715   9.412   7.097  2.9427 -1.3509  0.8547
  331MOL0     H44681   1.939   9.124   7.243  1.1150  1.1103 -0.4354
  331MOL0     H44682   1.180   9.263   7.194 -2.0347  1.0920  0.2183
  331MOL0     H44683   0.927   9.011   7.199  0.8696 -0.0338  1.0528
  331MOL0     H44684   0.983   9.159   7.122 -0.9415 -0.5720 -0.8399
  331MOL0     H44685   1.089   9.034   7.111  1.0443  1.4056  0.3943
  332MOL0     O44686   3.263   5.913   2.844 -0.2690  0.3141  0.1546
  332MOL0     C44687   3.214   5.827   2.771 -0.3493  0.5571 -0.4721
  332MOL0     O44688   3.108   5.851   2.687  0.2620  0.7088 -0.2341
  332MOL0     C44689   3.059   5.968   2.657 -0.2730  0.9372  0.8177
  332MOL0     C44690   2.914   5.973   2.645 -0.0966  0.2373  0.8394
  332MOL0     C44691   2.849   6.091   2.609 -0.4776  0.6186 -0.7645
  332MOL0     C44692   2.915   6.210   2.598 -0.4825 -0.2664 -0.3052
  332MOL0     O44693   2.832   6.309   2.548  0.2793  0.1102 -0.6176
  332MOL0     C44694   2.902   6.438   2.521 -0.8072  0.1853 -0.4012
  332MOL0     C44695   2.895   6.534   2.632 -0.1883  0.4131  0.5009
  332MOL0     C44696   2.907   6.687   2.586 -0.6529 -0.0622 -0.5411
  332MOL0     C44697   3.053   6.738   2.562 -0.2072 -0.1328  0.0685
  332MOL0     C44698   3.097   6.877   2.517  0.1169 -0.2351 -0.1274
  332MOL0     C44699   3.242   6.905   2.487  0.0054 -0.5233 -0.1942
  332MOL0     C44700   3.315   6.900   2.623 -0.4596  0.1005 -0.0854
  332MOL0     C44701   3.449   6.979   2.612 -0.3496  1.3042 -0.1176
  332MOL0     N44702   3.431   7.125   2.594 -0.3322 -0.1587  0.3870
  332MOL0     C44703   3.398   7.208   2.706 -0.0203 -0.5302 -1.3053
  332MOL0     C44704   3.381   7.331   2.659  0.1122  0.6708 -0.4373
  332MOL0     C44705   3.339   7.461   2.736 -0.1827  0.1979  0.5565
  332MOL0     C44706   3.451   7.510   2.831  0.3601 -0.2716  0.0138
  332MOL0     C44707   3.561   7.568   2.730 -0.4373  1.4983 -0.3312
  332MOL0     C44708   3.676   7.643   2.796  0.3722 -0.3720  0.5228
  332MOL0     O44709   3.799   7.630   2.722 -0.2028  0.0861  1.0925
  332MOL0     C44710   3.843   7.724   2.635 -0.6814  1.3109  0.0070
  332MOL0     C44711   3.770   7.838   2.597  0.0837 -0.7466 -0.7935
  332MOL0     C44712   3.814   7.931   2.505 -0.9472  1.4346 -0.4717
  332MOL0     C44713   3.944   7.910   2.451 -0.2076 -0.0486 -0.6262
  332MOL0     C44714   4.002   8.025   2.357 -0.5183 -0.4329 -0.2938
  332MOL0     O44715   3.941   8.146   2.358  0.4504  0.4618  0.4719
  332MOL0     C44716   3.996   8.243   2.280 -0.1460  1.0833  0.3532
  332MOL0     C44717   3.936   8.285   2.166 -0.2598  0.2324 -0.4634
  332MOL0     C44718   3.993   8.370   2.073 -0.1182  0.3110 -0.4859
  332MOL0     C44719   4.115   8.432   2.111  0.6676  0.6589 -0.7365
  332MOL0     O44720   4.178   8.516   2.033 -0.0664 -0.5821  0.6854
  332MOL0     C44721   4.229   8.641   2.084  0.3552  0.3908  0.6967
  332MOL0     C44722   4.384   8.658   2.070 -0.1330 -0.1216  0.1811
  332MOL0     C44723   4.425   8.619   1.923  0.2551  0.2421  0.9595
  332MOL0     C44724   4.577   8.644   1.917 -0.1560  0.3004 -0.4128
  332MOL0     C44725   4.660   8.604   1.789  0.3702  0.6650 -0.3506
  332MOL0     C44726   4.793   8.673   1.765 -0.0567 -0.1941 -0.2776
  332MOL0     C44727   4.886   8.677   1.890  0.2302 -0.6615 -0.3879
  332MOL0     C44728   5.028   8.721   1.850 -0.2838 -0.0175  0.0297
  332MOL0    Cl44729   4.997   8.885   1.781 -0.4155  0.2611  0.2206
  332MOL0     C44730   4.171   8.394   2.235 -0.6207 -0.0399  0.3404
  332MOL0     C44731   4.123   8.296   2.309  0.3393  0.0399  0.4922
  332MOL0     O44732   4.088   7.985   2.276 -0.3530  0.0434  0.5414
  332MOL0     C44733   4.019   7.792   2.488 -0.2607 -0.5434 -0.1603
  332MOL0     C44734   3.967   7.705   2.585  0.3981  0.7039 -0.0712
  332MOL0     N44735   3.385   7.325   2.521 -0.7986  0.4762  0.1754
  332MOL0     N44736   3.404   7.205   2.486 -0.2984  0.5929 -0.0298
  332MOL0     C44737   3.056   6.207   2.611  0.1861  0.0617 -0.5814
  332MOL0     C44738   3.129   6.088   2.642  0.2660  0.1668  0.2313
  332MOL0     C44739   3.258   5.684   2.805  0.4780 -0.3411  0.7020
  332MOL0     C44740   3.377   5.655   2.876 -0.8163 -0.1076  0.0849
  332MOL0     C44741   3.439   5.524   2.891  0.4741 -0.7254 -0.3916
  332MOL0     C44742   3.368   5.423   2.834 -0.1690 -0.5659 -0.5501
  332MOL0     O44743   3.414   5.300   2.825  0.1258  0.2858  0.1479
  332MOL0     C44744   3.539   5.296   2.753  0.1308  0.3857 -0.2548
  332MOL0     C44745   3.598   5.159   2.788  0.5267 -0.4254  0.5960
  332MOL0     C44746   3.628   5.145   2.930 -0.2791  0.1249  0.4920
  332MOL0     C44747   3.718   5.022   2.959 -0.2020 -0.9907  0.0137
  332MOL0     C44748   3.853   5.017   2.884 -0.0336  0.4236 -0.3535
  332MOL0     C44749   3.951   5.020   2.814 -0.5037 -0.1186 -0.4826
  332MOL0     C44750   3.241   5.450   2.772 -1.1054  0.0933 -0.5236
  332MOL0     C44751   3.184   5.575   2.753 -0.0122  0.2685  1.2777
  332MOL0     C44752   3.032   5.579   2.700 -0.4841 -0.1498  0.1750
  332MOL0     H44753   2.850   5.886   2.655 -2.1782  1.5401 -0.3061
  332MOL0     H44754   2.743   6.081   2.588 -0.5053 -1.1727 -0.0122
  332MOL0     H44755   2.998   6.426   2.469 -0.7823  2.2313 -0.9167
  332MOL0     H44756   2.858   6.471   2.426 -0.6002  2.8772  0.3574
  332MOL0     H44757   2.983   6.513   2.694  1.4386  1.4562 -1.3153
  332MOL0     H44758   2.806   6.518   2.694  0.2675 -0.3829  0.9668
  332MOL0     H44759   2.848   6.752   2.652 -0.7097 -0.2347 -0.4219
  332MOL0     H44760   2.863   6.691   2.486 -0.4932 -1.5590 -0.6923
  332MOL0     H44761   3.098   6.714   2.659 -1.5452  0.2153  0.8075
  332MOL0     H44762   3.093   6.667   2.490 -3.2539 -0.6433 -1.2585
  332MOL0     H44763   3.035   6.905   2.431 -2.5695 -0.6185  1.5654
  332MOL0     H44764   3.057   6.943   2.595  0.5033  1.6442 -1.4405
  332MOL0     H44765   3.289   6.827   2.426  1.2660 -1.0295  1.3324
  332MOL0     H44766   3.246   6.999   2.432  0.8014 -0.9714 -0.9221
  332MOL0     H44767   3.321   6.791   2.631  0.1023 -0.6811 -6.1693
  332MOL0     H44768   3.248   6.938   2.700 -0.5602 -5.3045  2.9249
  332MOL0     H44769   3.496   6.964   2.709 -0.6399 -2.6329 -0.4038
  332MOL0     H44770   3.508   6.942   2.528  1.2760  1.3759  0.9567
  332MOL0     H44771   3.386   7.165   2.806  1.5987 -2.0628 -1.7043
  332MOL0     H44772   3.321   7.538   2.661 -2.3885 -0.5746  0.2144
  332MOL0     H44773   3.246   7.445   2.792  1.3087  1.6251  3.7209
  332MOL0     H44774   3.416   7.598   2.885  1.4336  1.8778 -2.5519
  332MOL0     H44775   3.489   7.430   2.895 -0.0119 -2.1043 -1.8975
  332MOL0     H44776   3.527   7.654   2.672  0.9849  1.1499 -1.7435
  332MOL0     H44777   3.601   7.490   2.665  1.5028 -0.1113  2.5315
  332MOL0     H44778   3.698   7.589   2.889  0.9722 -2.9927 -1.0373
  332MOL0     H44779   3.642   7.744   2.821 -3.3667 -1.3783  0.1374
  332MOL0     H44780   3.672   7.859   2.638  0.6988  0.0782  0.2734
  332MOL0     H44781   3.750   8.008   2.464 -2.7014  0.7612  0.8724
  332MOL0     H44782   3.851   8.223   2.139 -0.9320  0.6414  0.6716
  332MOL0     H44783   3.960   8.397   1.974 -0.3997  2.0164  0.0478
  332MOL0     H44784   4.186   8.720   2.021 -3.4501 -0.9900  1.2782
  332MOL0     H44785   4.198   8.659   2.187 -2.7902 -2.0211  0.3399
  332MOL0     H44786   4.401   8.764   2.089 -2.3415  1.0043 -3.1956
  332MOL0     H44787   4.428   8.592   2.144 -1.2583 -0.5492  0.4905
  332MOL0     H44788   4.410   8.518   1.883 -0.9941  0.1488  1.6172
  332MOL0     H44789   4.396   8.687   1.842  0.4898 -2.5055 -1.6373
  332MOL0     H44790   4.612   8.583   2.001 -0.7733  2.2542  1.3380
  332MOL0     H44791   4.600   8.748   1.940 -2.6138  0.5100  1.5424
  332MOL0     H44792   4.596   8.618   1.702  0.5908  2.3002 -0.2901
  332MOL0     H44793   4.670   8.495   1.794 -0.3769  0.6370  2.1594
  332MOL0     H44794   4.846   8.625   1.682  2.8220  4.3819 -1.4738
  332MOL0     H44795   4.763   8.777   1.744 -0.4333  0.0404  1.2863
  332MOL0     H44796   4.890   8.576   1.932 -0.8309 -0.5597 -0.0008
  332MOL0     H44797   4.854   8.755   1.960 -2.5251  0.0650 -2.2897
  332MOL0     H44798   5.092   8.731   1.938 -2.8104  3.9046  1.7051
  332MOL0     H44799   5.077   8.658   1.776 -0.7020  1.5269 -1.6447
  332MOL0     H44800   4.264   8.444   2.261 -2.3350  2.1508  2.7720
  332MOL0     H44801   4.186   8.256   2.388 -2.9512 -1.3689  2.6048
  332MOL0     H44802   4.115   7.784   2.439 -0.0750  0.5167 -0.0073
  332MOL0     H44803   4.023   7.615   2.611 -0.8734 -0.4153 -1.0426
  332MOL0     H44804   3.101   6.301   2.581 -2.0453  1.1358 -0.7188
  332MOL0     H44805   3.238   6.089   2.646  0.3629  2.6439 -0.8986
  332MOL0     H44806   3.441   5.736   2.912  1.2815 -0.1018 -3.2287
  332MOL0     H44807   3.527   5.507   2.952  0.5511 -2.7571 -1.0107
  332MOL0     H44808   3.606   5.375   2.788 -0.2014 -0.1134  1.6416
  332MOL0     H44809   3.527   5.311   2.646 -1.7100 -0.7273 -0.2621
  332MOL0     H44810   3.682   5.134   2.724  0.6525 -2.1801  1.3827
  332MOL0     H44811   3.524   5.085   2.758  1.5883 -0.5037 -2.0329
  332MOL0     H44812   3.533   5.127   2.982 -0.4185 -0.5269  0.0257
  332MOL0     H44813   3.674   5.237   2.967 -1.8572  1.5720 -0.9700
  332MOL0     H44814   3.746   5.033   3.064 -2.0608 -1.2596  0.5766
  332MOL0     H44815   3.670   4.925   2.937  1.6931 -1.9786  0.0220
  332MOL0     H44816   4.044   5.033   2.761  0.8524  1.0704  2.0314
  332MOL0     H44817   3.189   5.360   2.743  0.1024 -0.9119  0.3454
  332MOL0     H44818   3.031   5.650   2.617 -0.3472  0.8684  1.0200
  332MOL0     H44819   2.991   5.484   2.668 -1.3616  0.4750 -0.6068
  332MOL0     H44820   2.969   5.599   2.788 -0.2096  1.2479  0.0792
  333MOL0     O44821   0.197   0.418   2.025 -0.4084 -0.2394 -0.8450
  333MOL0     C44822   0.254   0.400   2.132 -0.5772  0.4902 -0.0890
  333MOL0     O44823   0.327   0.284   2.162 -0.0165  0.3886  0.5133
  333MOL0     C44824   0.310   0.183   2.073  0.8044  0.9578  0.9913
  333MOL0     C44825   0.405   0.183   1.972 -0.1111 -0.1507 -0.1762
  333MOL0     C44826   0.414   0.078   1.881 -0.1953 -1.0384  0.7512
  333MOL0     C44827   0.314  -0.019   1.888 -0.6766 -0.2931  0.3426
  333MOL0     O44828   0.305  -0.129   1.803 -0.2448 -0.1325  0.3178
  333MOL0     C44829   0.371  -0.116   1.676  1.2826 -0.8845 -0.5932
  333MOL0     C44830   0.321  -0.229   1.584 -1.0464  0.3976 -0.2081
  333MOL0     C44831   0.368  -0.211   1.440 -0.2371 -0.5595  0.2434
  333MOL0     C44832   0.301  -0.301   1.332  0.8724  0.1719  0.1275
  333MOL0     C44833   0.364  -0.306   1.199  0.1807  1.0933 -0.0692
  333MOL0     C44834   0.286  -0.384   1.094  0.9308 -0.0104 -0.1295
  333MOL0     C44835   0.371  -0.386   0.979  0.4860  0.1174  0.7322
  333MOL0     C44836   0.315  -0.442   0.850 -0.0805 -0.4280  0.4610
  333MOL0     N44837   0.285  -0.583   0.859  0.6237  0.9999 -1.0886
  333MOL0     C44838   0.164  -0.646   0.885 -0.0593  0.0998  0.0505
  333MOL0     C44839   0.204  -0.771   0.912 -0.2982 -0.3668  0.5987
  333MOL0     C44840   0.129  -0.892   0.944 -0.1241 -0.4800  0.5050
  333MOL0     C44841   0.032  -0.857   1.054  0.6497  0.2649  0.1499
  333MOL0     C44842  -0.067  -0.970   1.089 -0.1217 -0.3285  0.0806
  333MOL0     C44843  -0.162  -1.003   0.982  0.5231 -0.0168  0.1837
  333MOL0     O44844  -0.221  -0.883   0.936  0.1391 -0.5205 -0.5224
  333MOL0     C44845  -0.332  -0.905   0.857 -0.5632 -0.9960  0.8661
  333MOL0     C44846  -0.426  -1.000   0.865 -0.0619 -0.0595 -0.1656
  333MOL0     C44847  -0.549  -0.997   0.792  0.2131 -0.2742 -0.3956
  333MOL0     C44848  -0.573  -0.890   0.700  0.8146 -0.1201 -0.4638
  333MOL0     C44849  -0.703  -0.885   0.637  0.0268  1.2652  0.6597
  333MOL0     O44850  -0.800  -0.982   0.665 -0.4262 -0.1636 -0.8737
  333MOL0     C44851  -0.928  -0.945   0.624 -0.4572  0.0150  0.1864
  333MOL0     C44852  -1.020  -0.881   0.702  0.4069  0.2176  0.8315
  333MOL0     C44853  -1.143  -0.848   0.642  0.0184 -0.3082 -0.6804
  333MOL0     C44854  -1.178  -0.878   0.510  1.9162 -0.1060 -0.6066
  333MOL0     O44855  -1.300  -0.833   0.463 -0.3773  0.3126  0.4900
  333MOL0     C44856  -1.334  -0.876   0.333  0.3416 -0.0135 -0.1597
  333MOL0     C44857  -1.464  -0.808   0.297  1.1078  0.4459 -0.2518
  333MOL0     C44858  -1.517  -0.851   0.158  0.3853 -0.6001 -0.6758
  333MOL0     C44859  -1.649  -0.785   0.158  0.0775 -1.3289  0.9083
  333MOL0     C44860  -1.734  -0.817   0.033 -0.0825  0.0623 -0.2742
  333MOL0     C44861  -1.680  -0.766  -0.107  0.0105 -0.1494 -0.3956
  333MOL0     C44862  -1.758  -0.821  -0.222 -0.0592 -1.2129  0.7207
  333MOL0     C44863  -1.731  -0.740  -0.356  0.8769 -0.2052 -1.6930
  333MOL0    Cl44864  -1.640  -0.835  -0.465  0.2715  0.2357 -0.8472
  333MOL0     C44865  -1.078  -0.953   0.436  0.0969 -0.9953  1.6933
  333MOL0     C44866  -0.951  -0.978   0.487 -0.3758  0.0795  0.1069
  333MOL0     O44867  -0.705  -0.816   0.538 -0.0860 -0.2789 -0.8750
  333MOL0     C44868  -0.461  -0.801   0.672  0.5461 -1.5374 -0.1614
  333MOL0     C44869  -0.345  -0.816   0.748 -0.3921 -0.9411  1.4593
  333MOL0     N44870   0.341  -0.785   0.889 -0.4244 -0.2110 -0.0233
  333MOL0     N44871   0.389  -0.671   0.847 -1.3218 -0.3192  0.4047
  333MOL0     C44872   0.213  -0.014   1.987  0.8216 -0.1152 -0.2931
  333MOL0     C44873   0.211   0.091   2.082  0.3254  0.2661  0.7513
  333MOL0     C44874   0.230   0.514   2.224  0.5014  0.6384  0.3435
  333MOL0     C44875   0.113   0.585   2.219  0.5743 -1.4516 -0.0089
  333MOL0     C44876   0.102   0.707   2.298  0.5970  0.2006 -0.0659
  333MOL0     C44877   0.202   0.740   2.397  1.3856 -0.0356  0.3396
  333MOL0     O44878   0.198   0.849   2.480 -0.0548  0.0630  0.6751
  333MOL0     C44879   0.084   0.905   2.548  0.2473  0.2295  0.2851
  333MOL0     C44880  -0.003   0.808   2.634  0.4712 -0.2160 -0.8576
  333MOL0     C44881   0.078   0.717   2.732  0.3477  0.5693  0.5875
  333MOL0     C44882   0.046   0.571   2.713  0.4101  0.5206  1.2826
  333MOL0     C44883   0.132   0.483   2.795  0.4460  0.0625 -0.2573
  333MOL0     C44884   0.215   0.415   2.856 -0.6234 -0.4687 -0.2654
  333MOL0     C44885   0.310   0.660   2.396 -0.4609  0.8142 -0.3315
  333MOL0     C44886   0.330   0.552   2.314  0.6204  0.5796  0.1046
  333MOL0     C44887   0.449   0.463   2.341 -0.5476  0.1260  0.9716
  333MOL0     H44888   0.480   0.262   1.965 -0.7825  0.3454 -2.7000
  333MOL0     H44889   0.486   0.087   1.801 -1.6933  0.0722 -0.5218
  333MOL0     H44890   0.344  -0.019   1.632  1.0809 -0.8335 -0.3546
  333MOL0     H44891   0.481  -0.113   1.676  1.2911 -0.7172 -1.7203
  333MOL0     H44892   0.212  -0.238   1.588 -1.0885 -0.5035 -2.2068
  333MOL0     H44893   0.371  -0.323   1.612 -3.1446 -0.0943  2.3523
  333MOL0     H44894   0.476  -0.226   1.444 -0.0759  0.2148 -0.7324
  333MOL0     H44895   0.348  -0.108   1.408  1.5672  0.0986  1.0654
  333MOL0     H44896   0.295  -0.403   1.373  1.1819 -1.3822 -3.2880
  333MOL0     H44897   0.196  -0.276   1.319  0.3712 -1.1453  1.3938
  333MOL0     H44898   0.381  -0.203   1.166  0.0136  1.6486  1.5128
  333MOL0     H44899   0.458  -0.360   1.208  1.9987  4.2595  1.8831
  333MOL0     H44900   0.265  -0.488   1.122 -3.5086 -0.2629 -3.3196
  333MOL0     H44901   0.190  -0.341   1.064  0.8134 -0.5554 -0.5567
  333MOL0     H44902   0.458  -0.446   1.006  2.1680  2.4490  0.7282
  333MOL0     H44903   0.419  -0.289   0.965 -1.0085  0.8402  0.3882
  333MOL0     H44904   0.219  -0.392   0.830 -0.2008 -1.9546 -3.8019
  333MOL0     H44905   0.392  -0.423   0.775  0.4549  3.2463  1.7241
  333MOL0     H44906   0.067  -0.601   0.901  0.1770 -0.0408  2.1361
  333MOL0     H44907   0.077  -0.927   0.855  0.7644 -0.4764 -0.0291
  333MOL0     H44908   0.198  -0.971   0.976  0.8006 -1.0059 -2.5227
  333MOL0     H44909   0.085  -0.830   1.146  0.2105  1.8206 -0.0362
  333MOL0     H44910  -0.024  -0.767   1.028 -1.0095 -0.8949 -0.4992
  333MOL0     H44911  -0.129  -0.932   1.171 -0.4462  2.6424 -1.3985
  333MOL0     H44912  -0.009  -1.057   1.122  0.5263  0.2324  0.4439
  333MOL0     H44913  -0.232  -1.081   1.011  0.7252  0.4395  1.9912
  333MOL0     H44914  -0.106  -1.048   0.899 -0.2985 -1.3716  0.3365
  333MOL0     H44915  -0.413  -1.077   0.941  0.6805 -2.2204 -2.3674
  333MOL0     H44916  -0.628  -1.070   0.805  0.4540 -1.2895 -3.6779
  333MOL0     H44917  -0.989  -0.847   0.801  1.0591  0.1635  0.6481
  333MOL0     H44918  -1.209  -0.788   0.703  2.9965  1.7280  0.8027
  333MOL0     H44919  -1.263  -0.845   0.255  1.4190  0.1994  0.8822
  333MOL0     H44920  -1.315  -0.983   0.330  1.3706  0.1531  0.1041
  333MOL0     H44921  -1.537  -0.826   0.377  0.0945  0.2186 -1.2028
  333MOL0     H44922  -1.437  -0.702   0.294 -0.6346  1.0012  1.4680
  333MOL0     H44923  -1.444  -0.833   0.077  0.3125 -0.0259 -0.6121
  333MOL0     H44924  -1.526  -0.960   0.146  0.9478 -0.5185 -2.0382
  333MOL0     H44925  -1.630  -0.677   0.157  0.0540 -1.3243  0.9888
  333MOL0     H44926  -1.698  -0.801   0.254  0.1703 -0.8321  1.0411
  333MOL0     H44927  -1.837  -0.780   0.042 -1.5011 -2.1901 -4.4139
  333MOL0     H44928  -1.737  -0.926   0.048  3.1501 -0.0236  0.4290
  333MOL0     H44929  -1.680  -0.657  -0.100  0.0504 -0.1899  0.3346
  333MOL0     H44930  -1.575  -0.792  -0.121  1.1042  2.0284  2.6438
  333MOL0     H44931  -1.860  -0.803  -0.186 -0.3024 -0.7043 -0.1811
  333MOL0     H44932  -1.741  -0.928  -0.231 -3.4181 -1.7657 -0.3572
  333MOL0     H44933  -1.830  -0.713  -0.393  1.2935 -0.5575 -3.0973
  333MOL0     H44934  -1.678  -0.644  -0.351 -0.5833  0.5766  1.2255
  333MOL0     H44935  -1.112  -0.988   0.340 -1.0999 -1.3426  2.2211
  333MOL0     H44936  -0.874  -1.034   0.435  1.3931  0.7388  1.8634
  333MOL0     H44937  -0.467  -0.724   0.596 -0.6914 -0.8909  0.5730
  333MOL0     H44938  -0.257  -0.753   0.736 -1.9003  1.0661  0.4574
  333MOL0     H44939   0.127  -0.080   1.992  0.7295  0.0745  0.7986
  333MOL0     H44940   0.138   0.110   2.160  1.0556 -0.2717  1.5890
  333MOL0     H44941   0.022   0.564   2.165 -1.8969  1.7277  2.5084
  333MOL0     H44942   0.010   0.765   2.303 -1.6905 -3.2264  2.0123
  333MOL0     H44943   0.022   0.949   2.469  1.1052  2.0523  0.5800
  333MOL0     H44944   0.114   0.982   2.619  0.0111 -0.2822  0.9485
  333MOL0     H44945  -0.066   0.754   2.563 -0.0805  0.0939 -0.6105
  333MOL0     H44946  -0.073   0.871   2.690  1.7471  2.7173 -2.3532
  333MOL0     H44947   0.066   0.751   2.835 -0.3749  3.0580 -0.2439
  333MOL0     H44948   0.181   0.732   2.698  0.4899 -1.9348 -0.3108
  333MOL0     H44949  -0.060   0.555   2.738 -0.3409  3.5999  0.5383
  333MOL0     H44950   0.058   0.547   2.607 -0.2520  0.3704  1.2359
  333MOL0     H44951   0.298   0.360   2.896 -1.8811 -1.3432  1.2542
  333MOL0     H44952   0.378   0.678   2.479 -0.7129  0.7692 -0.1153
  333MOL0     H44953   0.520   0.532   2.389 -1.7179  0.7210  1.9189
  333MOL0     H44954   0.425   0.375   2.401 -1.8763 -0.4999 -0.4290
  333MOL0     H44955   0.492   0.415   2.253  0.1610 -0.0592  1.4073
  334MOL0     O44956   6.103   8.397   7.102 -0.2743 -0.2036  0.2894
  334MOL0     C44957   6.134   8.280   7.074 -0.6856 -1.0518  0.5634
  334MOL0     O44958   6.182   8.187   7.157 -1.3727 -0.0452 -0.8678
  334MOL0     C44959   6.211   8.214   7.288 -0.7012 -0.7214  0.8202
  334MOL0     C44960   6.135   8.129   7.376 -1.0153 -0.0844 -0.5279
  334MOL0     C44961   6.158   8.142   7.514  0.7910  0.9574  0.0411
  334MOL0     C44962   6.247   8.240   7.566  0.8611 -0.2543  0.1128
  334MOL0     O44963   6.266   8.256   7.701  0.3860 -0.3829  0.4038
  334MOL0     C44964   6.325   8.149   7.770 -0.6976  0.5200  0.3748
  334MOL0     C44965   6.482   8.157   7.749  0.3499  0.6479  0.2836
  334MOL0     C44966   6.549   8.077   7.862  0.3801  0.1054 -0.0672
  334MOL0     C44967   6.700   8.080   7.861 -0.4948  0.2904 -0.3553
  334MOL0     C44968   6.773   8.009   7.975  0.1428  0.7994 -0.3156
  334MOL0     C44969   6.919   8.077   7.972  0.0200 -0.1654 -0.1560
  334MOL0     C44970   7.011   8.041   8.096 -1.0280  0.2784  0.6216
  334MOL0     C44971   7.076   7.906   8.080  0.0855 -0.3158 -0.2874
  334MOL0     N44972   7.179   7.875   8.184  0.5227  0.1423 -0.0130
  334MOL0     C44973   7.285   7.792   8.177  0.1953 -0.7116  0.8381
  334MOL0     C44974   7.331   7.789   8.306  0.0065  1.4741  0.6299
  334MOL0     C44975   7.465   7.744   8.357  0.5065 -1.2401 -0.2916
  334MOL0     C44976   7.516   7.605   8.316  0.1951 -0.0682  0.6869
  334MOL0     C44977   7.663   7.584   8.343  0.0265 -0.1139 -0.0972
  334MOL0     C44978   7.702   7.590   8.496 -0.3025  0.5551 -0.5969
  334MOL0     O44979   7.823   7.532   8.524  0.2395 -0.7656 -0.3612
  334MOL0     C44980   7.899   7.550   8.640  0.3426 -0.0198  0.5892
  334MOL0     C44981   7.831   7.590   8.760 -0.5237 -0.3087 -1.6558
  334MOL0     C44982   7.912   7.603   8.881 -0.3555 -0.3491 -1.2440
  334MOL0     C44983   8.060   7.589   8.870  0.3039  0.5648  0.1107
  334MOL0     C44984   8.147   7.606   8.991 -0.6845  0.8366 -0.3173
  334MOL0     O44985   8.276   7.558   8.990  0.6803 -0.2355 -0.0540
  334MOL0     C44986   8.342   7.574   9.108  0.2963 -0.1465  0.1455
  334MOL0     C44987   8.430   7.678   9.135 -0.2524 -0.1555  0.4902
  334MOL0     C44988   8.513   7.673   9.252 -0.1138 -0.7944 -0.1229
  334MOL0     C44989   8.508   7.572   9.347  0.7024  0.9906  0.5207
  334MOL0     O44990   8.575   7.585   9.461  0.4439 -1.0413 -0.0084
  334MOL0     C44991   8.486   7.567   9.569 -0.5938 -0.5794  0.0874
  334MOL0     C44992   8.388   7.673   9.591  0.0656  0.2945  0.0955
  334MOL0     C44993   8.317   7.642   9.723  0.3606  0.7822  0.9487
  334MOL0     C44994   8.207   7.750   9.744 -0.9702 -0.1461  0.6436
  334MOL0     C44995   8.105   7.711   9.856 -0.0089 -0.0506 -0.5285
  334MOL0     C44996   7.990   7.816   9.874  0.4206  1.0420 -0.3806
  334MOL0     C44997   7.905   7.800  10.006 -0.6331  0.1475  0.0898
  334MOL0     C44998   7.992   7.796  10.131 -0.4776  0.5081  1.7452
  334MOL0    Cl44999   7.885   7.790  10.264 -0.0925  0.0744 -0.0152
  334MOL0     C45000   8.415   7.467   9.316 -0.9596 -0.0862  0.0079
  334MOL0     C45001   8.340   7.471   9.203  0.3773  0.0330  0.6378
  334MOL0     O45002   8.101   7.669   9.085  0.2060  0.0219  0.3372
  334MOL0     C45003   8.112   7.557   8.745  0.4447  0.1053  0.3685
  334MOL0     C45004   8.034   7.538   8.635  0.0577 -0.7448 -0.3879
  334MOL0     N45005   7.240   7.852   8.394  0.1506 -0.4909 -0.0547
  334MOL0     N45006   7.145   7.905   8.317 -0.4173  0.0261  0.4127
  334MOL0     C45007   6.305   8.332   7.476 -0.4307  0.9934  0.0005
  334MOL0     C45008   6.288   8.317   7.338 -0.1508 -0.4449  0.0135
  334MOL0     C45009   6.136   8.243   6.932  0.3557  0.7282 -1.0236
  334MOL0     C45010   6.138   8.355   6.843  0.3658  0.0750  0.2830
  334MOL0     C45011   6.130   8.350   6.705  0.9024 -1.2189  0.7646
  334MOL0     C45012   6.121   8.230   6.647  0.5314 -1.1699  0.0059
  334MOL0     O45013   6.121   8.223   6.514 -0.1125 -0.6230  0.8975
  334MOL0     C45014   6.072   8.115   6.436 -0.1542 -1.0599  0.0342
  334MOL0     C45015   5.924   8.077   6.465  0.3278 -1.1363 -0.5404
  334MOL0     C45016   5.883   7.968   6.361  1.6021  0.6689 -1.2772
  334MOL0     C45017   5.740   7.918   6.389  0.6481  0.5376 -0.6537
  334MOL0     C45018   5.639   8.028   6.398 -0.4982 -0.4090 -0.1921
  334MOL0     C45019   5.557   8.121   6.397 -0.5529 -0.0764 -0.7465
  334MOL0     C45020   6.131   8.113   6.731  1.0727 -0.0602  1.1928
  334MOL0     C45021   6.137   8.113   6.873 -0.2186 -0.1203 -0.5967
  334MOL0     C45022   6.163   7.991   6.949 -0.5764 -0.1741 -0.4340
  334MOL0     H45023   6.064   8.058   7.335  0.1515 -1.9208  0.4753
  334MOL0     H45024   6.108   8.077   7.585 -0.4488  1.2248 -0.5503
  334MOL0     H45025   6.302   8.164   7.876 -1.5059  0.9975  0.1396
  334MOL0     H45026   6.298   8.045   7.748 -1.3496  0.8871 -0.5834
  334MOL0     H45027   6.513   8.262   7.749  2.0801  0.1753 -0.3953
  334MOL0     H45028   6.510   8.106   7.657  0.6176  1.8688 -0.3224
  334MOL0     H45029   6.524   7.971   7.852  0.3407  0.0284  0.7681
  334MOL0     H45030   6.512   8.092   7.964 -0.1478  2.1335 -0.5035
  334MOL0     H45031   6.737   8.031   7.770  1.3153  1.8743 -0.5229
  334MOL0     H45032   6.720   8.187   7.859 -0.4204  0.2902 -2.5510
  334MOL0     H45033   6.732   8.034   8.074  0.5059 -0.6411  0.2191
  334MOL0     H45034   6.773   7.902   7.954  0.4291  1.1260 -2.0768
  334MOL0     H45035   6.964   8.046   7.877  1.7729  1.6353  0.0131
  334MOL0     H45036   6.914   8.187   7.969  0.0972 -0.1436 -3.4945
  334MOL0     H45037   6.955   8.060   8.188 -4.4994  0.8398 -1.3944
  334MOL0     H45038   7.100   8.105   8.099 -1.5082  0.9159  1.9613
  334MOL0     H45039   7.007   7.821   8.090  1.5335 -1.6980 -1.5312
  334MOL0     H45040   7.106   7.908   7.974  1.1112 -1.0000 -0.0210
  334MOL0     H45041   7.333   7.746   8.092 -1.0207 -1.1169  0.3472
  334MOL0     H45042   7.532   7.820   8.316 -0.7998 -0.9570 -2.0078
  334MOL0     H45043   7.478   7.753   8.465 -0.6117 -2.1484 -0.0555
  334MOL0     H45044   7.447   7.529   8.351  0.1515 -2.2180 -3.4146
  334MOL0     H45045   7.500   7.601   8.208 -1.0849  1.4901  0.7804
  334MOL0     H45046   7.724   7.661   8.295 -0.6118 -1.1723 -2.7654
  334MOL0     H45047   7.695   7.486   8.305 -2.2173 -0.3123 -1.6784
  334MOL0     H45048   7.625   7.539   8.554 -0.0790  1.8749  0.9287
  334MOL0     H45049   7.711   7.695   8.527 -0.0889 -0.4547  3.2321
  334MOL0     H45050   7.726   7.617   8.764 -0.4458 -0.0471 -1.3072
  334MOL0     H45051   7.865   7.631   8.975 -2.3911  0.4764 -2.4427
  334MOL0     H45052   8.445   7.774   9.088  3.8706  0.1568  2.0386
  334MOL0     H45053   8.575   7.760   9.269  0.1440 -0.6671 -1.6129
  334MOL0     H45054   8.443   7.466   9.573 -1.8940 -0.2545 -3.0786
  334MOL0     H45055   8.550   7.573   9.658  0.5754  0.4651 -0.7920
  334MOL0     H45056   8.437   7.771   9.595  0.0787  0.3569 -1.1501
  334MOL0     H45057   8.308   7.663   9.518  0.7102  0.4186 -0.6467
  334MOL0     H45058   8.283   7.538   9.724  2.1919  0.1321  2.7200
  334MOL0     H45059   8.381   7.648   9.812  0.1554 -0.5554  1.1973
  334MOL0     H45060   8.149   7.762   9.652 -2.5003 -0.9674  1.4452
  334MOL0     H45061   8.250   7.848   9.760  0.6049 -0.6357 -0.3474
  334MOL0     H45062   8.157   7.693   9.951  0.2802  0.5797 -0.5625
  334MOL0     H45063   8.057   7.621   9.816 -2.8902  1.1491  0.0056
  334MOL0     H45064   8.036   7.915   9.871  3.0479 -0.1336 -1.8410
  334MOL0     H45065   7.930   7.802   9.784  1.4944  6.4516 -2.2691
  334MOL0     H45066   7.842   7.711   9.999  0.3094 -0.5762  0.6370
  334MOL0     H45067   7.842   7.889  10.002 -1.4745 -0.3803 -4.6799
  334MOL0     H45068   8.065   7.715  10.127 -1.4369 -0.3347  1.0596
  334MOL0     H45069   8.061   7.880  10.139  0.5954 -0.2471  0.6298
  334MOL0     H45070   8.400   7.387   9.389 -2.1741 -1.9338 -2.1266
  334MOL0     H45071   8.278   7.382   9.194 -0.4772  0.6934 -0.2179
  334MOL0     H45072   8.219   7.548   8.724  0.6889  0.7735  1.2578
  334MOL0     H45073   8.094   7.524   8.546  2.4527  0.9790  0.8553
  334MOL0     H45074   6.375   8.412   7.499  0.9347 -0.3861  0.8997
  334MOL0     H45075   6.330   8.384   7.264  1.4161 -0.9749  0.3855
  334MOL0     H45076   6.155   8.455   6.881  1.6845 -0.6591  1.7676
  334MOL0     H45077   6.140   8.437   6.640 -0.8137 -1.3636  0.2805
  334MOL0     H45078   6.136   8.028   6.455  1.0568 -0.3037 -0.4874
  334MOL0     H45079   6.079   8.136   6.329  2.2838 -0.5453  0.2406
  334MOL0     H45080   5.871   8.171   6.450  1.3012 -0.4838 -0.0446
  334MOL0     H45081   5.902   8.042   6.566  1.9024 -1.6691 -0.3437
  334MOL0     H45082   5.956   7.888   6.380  3.7643  2.5897 -0.9572
  334MOL0     H45083   5.895   8.006   6.259  2.1872  1.1221 -1.0463
  334MOL0     H45084   5.709   7.872   6.295  3.1635  3.1045 -2.9411
  334MOL0     H45085   5.725   7.860   6.480 -1.9472  4.3679  1.6471
  334MOL0     H45086   5.506   8.210   6.429  0.9343  0.5106  0.0954
  334MOL0     H45087   6.135   8.018   6.678  0.7038  0.6601 -0.1788
  334MOL0     H45088   6.254   8.003   7.008 -0.5453 -0.7950 -0.3458
  334MOL0     H45089   6.089   7.954   7.021 -1.1210  0.3840 -0.6932
  334MOL0     H45090   6.177   7.903   6.885 -1.1083 -0.0779 -0.6940
  335MOL0     O45091   2.995   3.504   5.118  0.5498 -0.1907  0.2637
  335MOL0     C45092   2.953   3.473   5.233  0.0417 -1.1728  0.2769
  335MOL0     O45093   2.839   3.522   5.283  0.3747 -0.0682  0.1239
  335MOL0     C45094   2.768   3.617   5.215  0.0700 -0.5510 -0.8799
  335MOL0     C45095   2.803   3.754   5.230 -0.4502  0.1108  0.1066
  335MOL0     C45096   2.724   3.858   5.171 -0.2378  0.6149  0.1172
  335MOL0     C45097   2.614   3.821   5.085  0.6905  0.3623  0.3590
  335MOL0     O45098   2.534   3.910   5.009 -0.7717  0.1983 -0.0886
  335MOL0     C45099   2.497   4.034   5.073 -0.0520  0.1137  0.8864
  335MOL0     C45100   2.369   4.079   5.009  0.5977 -0.3724  0.7046
  335MOL0     C45101   2.380   4.151   4.874  0.5754 -0.7115  0.1394
  335MOL0     C45102   2.433   4.299   4.864 -0.6709 -0.7494 -0.1499
  335MOL0     C45103   2.334   4.407   4.888  0.1565  0.0685 -0.7107
  335MOL0     C45104   2.392   4.540   4.866  0.3265  0.3179 -0.5300
  335MOL0     C45105   2.295   4.655   4.836 -0.4834  0.3239  0.4342
  335MOL0     C45106   2.377   4.785   4.814  0.1517  0.4679 -0.1036
  335MOL0     N45107   2.296   4.900   4.786  0.2532  0.2170 -0.2943
  335MOL0     C45108   2.212   4.921   4.680 -0.1822 -0.5562  0.2419
  335MOL0     C45109   2.188   5.056   4.691  0.1513 -0.1255  0.8634
  335MOL0     C45110   2.099   5.148   4.616 -0.0299  0.2082 -0.4147
  335MOL0     C45111   2.188   5.229   4.531 -0.7766  0.5130  0.9336
  335MOL0     C45112   2.126   5.314   4.422 -0.3151  0.3378  0.0126
  335MOL0     C45113   2.022   5.240   4.332 -0.5179 -0.6597 -0.5724
  335MOL0     O45114   1.972   5.336   4.240  0.0073  0.6511 -0.8800
  335MOL0     C45115   1.874   5.288   4.153 -0.0866  0.9308 -0.7187
  335MOL0     C45116   1.778   5.197   4.181  0.0364 -0.7566 -0.8526
  335MOL0     C45117   1.685   5.155   4.084 -0.4335  0.4590 -0.4231
  335MOL0     C45118   1.698   5.194   3.951 -0.5207 -0.3822  0.4100
  335MOL0     C45119   1.630   5.118   3.846  0.2222  0.8772  0.5017
  335MOL0     O45120   1.674   5.142   3.719  0.2302  0.4442  0.3166
  335MOL0     C45121   1.641   5.055   3.623  0.0999 -0.2482  0.3093
  335MOL0     C45122   1.653   4.921   3.640 -0.0248  0.1027  0.1325
  335MOL0     C45123   1.625   4.835   3.535  0.4649 -0.4258 -0.2571
  335MOL0     C45124   1.602   4.882   3.404 -0.1883  0.1377  0.1990
  335MOL0     O45125   1.555   4.799   3.308  0.0347 -0.5233  0.2278
  335MOL0     C45126   1.627   4.785   3.186  0.0402  0.0255  0.2850
  335MOL0     C45127   1.536   4.716   3.081  0.6281  0.9973  0.1032
  335MOL0     C45128   1.484   4.811   2.967 -0.8115 -0.5592 -0.2159
  335MOL0     C45129   1.436   4.726   2.843 -0.2123  0.2861 -0.7581
  335MOL0     C45130   1.313   4.647   2.876  0.0735 -0.2941  0.3424
  335MOL0     C45131   1.255   4.561   2.761  0.6337  0.0666  0.1308
  335MOL0     C45132   1.327   4.432   2.743 -0.4763  0.0652 -0.3419
  335MOL0     C45133   1.253   4.349   2.640  0.5815 -0.4411 -0.1539
  335MOL0    Cl45134   1.270   4.416   2.465  0.0320  0.4950  0.1061
  335MOL0     C45135   1.613   5.017   3.384 -0.2547  0.7549 -0.1411
  335MOL0     C45136   1.626   5.103   3.493  0.3234 -0.5381  0.1282
  335MOL0     O45137   1.551   5.029   3.884 -0.7363  0.4650 -0.3482
  335MOL0     C45138   1.790   5.292   3.927  0.0242  0.5429  0.6180
  335MOL0     C45139   1.879   5.339   4.025 -0.7941  0.2428  0.6912
  335MOL0     N45140   2.251   5.107   4.807 -0.3120 -0.7747 -0.1795
  335MOL0     N45141   2.314   5.012   4.859 -0.9719  0.0752 -0.3378
  335MOL0     C45142   2.589   3.678   5.071  0.9810 -0.9202  0.0112
  335MOL0     C45143   2.664   3.580   5.138 -0.0812  0.6129  0.0850
  335MOL0     C45144   3.019   3.371   5.317  0.2128  0.8877  0.6954
  335MOL0     C45145   2.945   3.314   5.428 -0.1186  0.0738  0.1604
  335MOL0     C45146   2.994   3.212   5.506 -0.2040  0.3120  0.0611
  335MOL0     C45147   3.123   3.154   5.475  0.1962  0.3145 -0.7357
  335MOL0     O45148   3.151   3.048   5.551 -0.0949 -0.3427  0.0870
  335MOL0     C45149   3.280   3.043   5.605 -0.6870  0.2869  0.7044
  335MOL0     C45150   3.307   2.902   5.650  0.9556  0.5799 -1.0065
  335MOL0     C45151   3.220   2.876   5.778 -0.2150  0.0660  1.3019
  335MOL0     C45152   3.188   2.723   5.801 -0.1923 -0.2651 -0.0203
  335MOL0     C45153   3.312   2.639   5.811  0.0860  1.0700  0.6522
  335MOL0     C45154   3.411   2.565   5.814 -0.1329  0.0498 -0.7526
  335MOL0     C45155   3.209   3.207   5.373  0.2943  0.4428 -0.2525
  335MOL0     C45156   3.145   3.310   5.297 -1.3717 -0.3752 -0.3054
  335MOL0     C45157   3.235   3.370   5.190  0.1985  1.0568  0.8306
  335MOL0     H45158   2.888   3.780   5.292  1.7913 -1.6538 -2.0266
  335MOL0     H45159   2.747   3.964   5.172 -0.0454  0.5844 -0.6582
  335MOL0     H45160   2.486   4.017   5.180 -0.1772  2.5328  1.3262
  335MOL0     H45161   2.568   4.117   5.061 -2.0237  1.7605  0.0456
  335MOL0     H45162   2.304   4.133   5.079 -2.4731 -1.2855 -1.2106
  335MOL0     H45163   2.298   3.999   4.986 -1.0078  1.4256 -0.9552
  335MOL0     H45164   2.277   4.151   4.837  0.5088  0.8932  0.2298
  335MOL0     H45165   2.438   4.092   4.803  1.0097  0.5736 -0.6081
  335MOL0     H45166   2.523   4.305   4.926 -1.3740  0.2241  0.8112
  335MOL0     H45167   2.468   4.303   4.760 -0.8979  4.6355 -0.3057
  335MOL0     H45168   2.251   4.386   4.820 -1.4922  1.3917  0.8128
  335MOL0     H45169   2.291   4.395   4.988 -0.1381 -1.2873 -0.9769
  335MOL0     H45170   2.448   4.558   4.958 -1.7861  2.2437  0.4866
  335MOL0     H45171   2.464   4.536   4.783  1.5231 -2.8753  0.5035
  335MOL0     H45172   2.224   4.681   4.915 -2.4669  3.3854 -2.1374
  335MOL0     H45173   2.234   4.634   4.748 -0.1957  6.9036 -1.8536
  335MOL0     H45174   2.435   4.794   4.906  2.9126 -0.3502 -1.6388
  335MOL0     H45175   2.461   4.781   4.744 -1.2193 -1.1573 -1.7416
  335MOL0     H45176   2.180   4.863   4.595 -0.3736 -1.1482  0.7120
  335MOL0     H45177   2.033   5.078   4.564  2.5977 -2.1001 -0.8451
  335MOL0     H45178   2.038   5.204   4.688 -0.0647 -1.1106  0.6099
  335MOL0     H45179   2.254   5.292   4.592  0.5967  1.6418 -1.5630
  335MOL0     H45180   2.262   5.162   4.486  1.8861  1.1246  3.9792
  335MOL0     H45181   2.211   5.347   4.361  0.7855 -2.5608 -0.1961
  335MOL0     H45182   2.078   5.396   4.475 -2.7693  1.3384 -3.3559
  335MOL0     H45183   1.945   5.192   4.393  2.2594 -3.0675  1.3304
  335MOL0     H45184   2.075   5.153   4.293 -0.8502 -2.9402  3.5415
  335MOL0     H45185   1.752   5.176   4.284  0.9976  0.2981 -0.3753
  335MOL0     H45186   1.606   5.093   4.125  0.6572 -0.2197  0.7526
  335MOL0     H45187   1.680   4.878   3.736  1.2336  1.6364  0.5068
  335MOL0     H45188   1.641   4.728   3.548  2.0512 -0.2054 -0.2482
  335MOL0     H45189   1.682   4.874   3.152  0.4753 -1.1534 -2.3600
  335MOL0     H45190   1.711   4.717   3.198 -0.2363 -0.6621 -1.3769
  335MOL0     H45191   1.590   4.629   3.043  2.1075  2.5996 -1.7049
  335MOL0     H45192   1.441   4.693   3.130 -1.0103  2.1876 -2.3079
  335MOL0     H45193   1.396   4.865   3.002 -0.6949 -0.7315  0.3584
  335MOL0     H45194   1.563   4.880   2.935 -0.0127 -0.7584  1.2374
  335MOL0     H45195   1.522   4.674   2.799  0.4199  2.0485 -1.7121
  335MOL0     H45196   1.399   4.795   2.767  0.1293 -1.8481 -2.9752
  335MOL0     H45197   1.231   4.718   2.893  1.5571  1.7485 -0.6477
  335MOL0     H45198   1.331   4.586   2.964  0.8492  0.6652  0.8646
  335MOL0     H45199   1.147   4.545   2.768  0.1127  2.4297 -1.2862
  335MOL0     H45200   1.260   4.617   2.667 -2.6927 -1.3645 -1.0606
  335MOL0     H45201   1.332   4.373   2.835  0.3444 -2.5936 -1.9769
  335MOL0     H45202   1.423   4.461   2.700 -2.5053  0.6313 -5.1577
  335MOL0     H45203   1.293   4.248   2.650  2.1796  0.1414 -0.2270
  335MOL0     H45204   1.150   4.339   2.674  1.4440  0.3418  2.9632
  335MOL0     H45205   1.590   5.055   3.285  0.2818 -0.4368 -0.7453
  335MOL0     H45206   1.608   5.206   3.464 -0.1955 -1.0689 -1.5501
  335MOL0     H45207   1.800   5.323   3.824  0.2185  0.8706  0.7366
  335MOL0     H45208   1.948   5.421   4.011  0.9822 -1.6208 -2.6655
  335MOL0     H45209   2.509   3.634   5.012 -1.8551  3.0680  0.5585
  335MOL0     H45210   2.638   3.475   5.139 -0.4409  0.6371  3.0788
  335MOL0     H45211   2.843   3.340   5.457  0.6588  1.1420  2.1029
  335MOL0     H45212   2.933   3.165   5.582  0.4256 -0.1446  0.2963
  335MOL0     H45213   3.286   3.107   5.694 -0.0201  0.9497  0.1911
  335MOL0     H45214   3.351   3.063   5.524  0.7709 -1.5367  1.4635
  335MOL0     H45215   3.413   2.905   5.676  0.3685  4.5790  1.7371
  335MOL0     H45216   3.286   2.837   5.565  0.6488  1.3881 -1.5642
  335MOL0     H45217   3.118   2.913   5.765 -0.6734 -1.4573  0.3059
  335MOL0     H45218   3.271   2.928   5.860  3.1178  0.1229 -0.6452
  335MOL0     H45219   3.119   2.708   5.885  0.3609  1.7084  0.8537
  335MOL0     H45220   3.131   2.680   5.718 -1.8520 -1.0290  1.4396
  335MOL0     H45221   3.498   2.503   5.826  0.0515 -0.3687 -3.4378
  335MOL0     H45222   3.311   3.181   5.344 -0.1507  1.7341 -3.3512
  335MOL0     H45223   3.259   3.470   5.227  0.8862  0.5670  1.7701
  335MOL0     H45224   3.331   3.320   5.176 -0.2933  0.4783 -0.6420
  335MOL0     H45225   3.185   3.380   5.093 -1.0984  3.8217  1.6632
  336MOL0     O45226   1.134   0.685   0.470  0.5048  0.2939 -0.6509
  336MOL0     C45227   1.032   0.745   0.504  0.6285  1.0657 -0.3194
  336MOL0     O45228   1.014   0.825   0.617 -0.0125 -0.4265  0.9809
  336MOL0     C45229   1.109   0.819   0.707 -0.1158 -0.3355  0.0426
  336MOL0     C45230   1.075   0.848   0.832  0.1697 -0.3980 -0.0616
  336MOL0     C45231   1.169   0.852   0.947  0.1256 -0.1354  0.6064
  336MOL0     C45232   1.301   0.826   0.927 -0.3766  0.3279 -0.2874
  336MOL0     O45233   1.388   0.833   1.037  0.2824 -0.4049  0.8410
  336MOL0     C45234   1.527   0.820   1.014 -0.0767 -0.3950  0.8391
  336MOL0     C45235   1.600   0.766   1.135  0.0482  0.3242  0.0050
  336MOL0     C45236   1.535   0.636   1.167  0.3750  0.2576 -1.4064
  336MOL0     C45237   1.596   0.569   1.289  0.0542  0.1406  0.4274
  336MOL0     C45238   1.518   0.440   1.313 -0.7373  1.0304 -0.2146
  336MOL0     C45239   1.578   0.374   1.439 -1.0343 -0.0882  0.3307
  336MOL0     C45240   1.547   0.223   1.448  0.4559  0.2037  0.2960
  336MOL0     C45241   1.582   0.144   1.317 -0.7849  0.0380 -0.5529
  336MOL0     N45242   1.589   0.002   1.340 -0.0147  0.7901 -0.4675
  336MOL0     C45243   1.607  -0.088   1.233  0.6420  0.2809  0.7233
  336MOL0     C45244   1.578  -0.214   1.279  0.1212 -0.1403  0.4114
  336MOL0     C45245   1.561  -0.326   1.172  0.3963 -0.0671 -0.2768
  336MOL0     C45246   1.431  -0.403   1.202  0.2103  0.1507  0.3067
  336MOL0     C45247   1.415  -0.529   1.118 -0.5838  0.1521  0.5166
  336MOL0     C45248   1.545  -0.600   1.068 -0.5266 -0.4009 -0.4675
  336MOL0     O45249   1.511  -0.727   1.012 -0.2441 -0.4618  0.3436
  336MOL0     C45250   1.482  -0.745   0.884 -0.3868  0.0291 -0.2855
  336MOL0     C45251   1.439  -0.872   0.843  0.5307  0.5925  0.0674
  336MOL0     C45252   1.412  -0.900   0.710  0.1206  0.3178 -0.3261
  336MOL0     C45253   1.415  -0.799   0.615  0.1911  0.6943  0.0104
  336MOL0     C45254   1.397  -0.822   0.471  0.6134  0.3668  0.5325
  336MOL0     O45255   1.430  -0.720   0.389  0.2782 -0.8555  0.1166
  336MOL0     C45256   1.382  -0.711   0.263  0.2851 -0.4988 -0.8075
  336MOL0     C45257   1.284  -0.612   0.236  0.4382 -0.1303  0.7216
  336MOL0     C45258   1.239  -0.599   0.101 -0.5814 -0.3496 -0.6882
  336MOL0     C45259   1.282  -0.689  -0.003  0.2965  0.0242 -1.2266
  336MOL0     O45260   1.232  -0.680  -0.131  0.1562 -0.8337  0.3024
  336MOL0     C45261   1.195  -0.548  -0.171  0.1797 -0.5314  0.4134
  336MOL0     C45262   1.159  -0.563  -0.328 -0.8967  0.9284 -0.0377
  336MOL0     C45263   1.055  -0.668  -0.373 -0.3931 -0.5595  0.6095
  336MOL0     C45264   0.999  -0.626  -0.504 -0.6476  0.6565  0.6227
  336MOL0     C45265   0.934  -0.744  -0.575  0.2496 -0.4005  0.9086
  336MOL0     C45266   0.775  -0.741  -0.574 -0.4614  0.4784  0.6756
  336MOL0     C45267   0.715  -0.656  -0.685  1.5149 -0.3824 -0.4142
  336MOL0     C45268   0.563  -0.632  -0.663  0.3184  0.5023 -0.3233
  336MOL0    Cl45269   0.456  -0.783  -0.650  0.0883  0.2505  0.0508
  336MOL0     C45270   1.357  -0.799   0.043  0.2726  0.6284  0.4481
  336MOL0     C45271   1.416  -0.813   0.177  0.2158  0.1620  0.4368
  336MOL0     O45272   1.339  -0.923   0.429  0.8640  0.2266 -0.9122
  336MOL0     C45273   1.451  -0.665   0.656 -0.0214  0.7261 -0.0823
  336MOL0     C45274   1.482  -0.646   0.790  0.2227 -0.4818  0.5334
  336MOL0     N45275   1.532  -0.195   1.403  0.3697 -0.9835 -1.2250
  336MOL0     N45276   1.536  -0.070   1.448  0.0599 -0.3681  0.1962
  336MOL0     C45277   1.345   0.816   0.790  0.1401  0.2286 -0.2330
  336MOL0     C45278   1.246   0.825   0.687 -0.1958  0.7874  0.2013
  336MOL0     C45279   0.924   0.744   0.398 -0.2816 -0.2604  0.8250
  336MOL0     C45280   0.820   0.838   0.421 -0.2196 -0.5171 -0.0458
  336MOL0     C45281   0.726   0.866   0.321  0.1107  0.1165 -0.1948
  336MOL0     C45282   0.712   0.772   0.205  0.5926 -0.5505 -1.1333
  336MOL0     O45283   0.605   0.770   0.117 -1.1292  0.7289 -0.0303
  336MOL0     C45284   0.496   0.855   0.145  0.4551 -0.4168  0.9449
  336MOL0     C45285   0.402   0.860   0.023  0.5571  0.0244 -0.4368
  336MOL0     C45286   0.262   0.913   0.063  0.4114 -0.0304 -0.3478
  336MOL0     C45287   0.186   0.981  -0.045 -1.0290 -0.1420 -0.3453
  336MOL0     C45288   0.054   1.036  -0.012 -0.0814  0.1814 -0.3594
  336MOL0     C45289  -0.047   1.073   0.043  0.2678  1.7507  0.0847
  336MOL0     C45290   0.819   0.689   0.178 -0.0909  0.9719 -1.1714
  336MOL0     C45291   0.932   0.677   0.267 -0.5831  0.4183 -0.8763
  336MOL0     C45292   1.039   0.579   0.224 -0.2567 -0.4898 -0.3018
  336MOL0     H45293   0.971   0.865   0.856  0.2756 -0.2754  0.3336
  336MOL0     H45294   1.140   0.893   1.043  0.4731 -0.3381  0.7989
  336MOL0     H45295   1.568   0.773   0.924  2.3413  3.1230 -0.1037
  336MOL0     H45296   1.543   0.927   1.000 -0.6750 -0.5047 -0.9031
  336MOL0     H45297   1.590   0.846   1.209 -0.7886 -0.2043  0.4829
  336MOL0     H45298   1.705   0.751   1.110 -0.5103 -3.4223 -0.6788
  336MOL0     H45299   1.538   0.561   1.087  3.9493 -0.5430 -0.6969
  336MOL0     H45300   1.430   0.658   1.189  1.0441  0.8721  1.6441
  336MOL0     H45301   1.700   0.537   1.273 -0.8723 -2.5677 -0.8757
  336MOL0     H45302   1.590   0.633   1.378  0.1370  0.4555  0.2096
  336MOL0     H45303   1.409   0.442   1.314 -0.9809 -3.3401 -0.5082
  336MOL0     H45304   1.543   0.371   1.232  2.5063 -1.1961  2.3996
  336MOL0     H45305   1.686   0.384   1.450 -1.0204 -1.3496  1.7586
  336MOL0     H45306   1.542   0.422   1.531 -0.0931  3.1521 -0.8697
  336MOL0     H45307   1.447   0.204   1.488 -0.2786  0.9168 -1.1091
  336MOL0     H45308   1.604   0.167   1.522 -0.1608 -3.2789 -1.6593
  336MOL0     H45309   1.499   0.150   1.246 -2.0588 -0.9269  0.7908
  336MOL0     H45310   1.681   0.180   1.287  0.7476 -0.8442  2.9444
  336MOL0     H45311   1.645  -0.053   1.138 -1.1290  1.6377  0.4498
  336MOL0     H45312   1.541  -0.281   1.074 -1.0200  0.7929  0.3700
  336MOL0     H45313   1.657  -0.376   1.183  1.1627  0.9095 -2.0986
  336MOL0     H45314   1.433  -0.429   1.308  2.3592  1.3815  0.6284
  336MOL0     H45315   1.343  -0.339   1.188 -0.2313 -0.7129 -1.1004
  336MOL0     H45316   1.368  -0.492   1.026  1.8179  1.0477 -0.4526
  336MOL0     H45317   1.346  -0.597   1.167  0.0263 -0.9798 -0.1491
  336MOL0     H45318   1.609  -0.602   1.157 -0.5394 -0.0502 -0.4513
  336MOL0     H45319   1.600  -0.543   0.993  0.3538 -0.2301  0.2920
  336MOL0     H45320   1.441  -0.949   0.919 -0.3522 -0.1117 -0.6046
  336MOL0     H45321   1.400  -1.002   0.676 -0.5544 -0.3966  1.8909
  336MOL0     H45322   1.277  -0.527   0.302  0.0727  0.8373 -0.5232
  336MOL0     H45323   1.180  -0.508   0.091  0.4891  0.7210  1.7368
  336MOL0     H45324   1.110  -0.514  -0.113  2.0337  0.7575  2.5273
  336MOL0     H45325   1.270  -0.470  -0.157 -2.3911  1.6916  3.0019
  336MOL0     H45326   1.122  -0.466  -0.361 -0.5149  0.5998 -1.5296
  336MOL0     H45327   1.250  -0.582  -0.385 -1.2910  0.9504 -0.6880
  336MOL0     H45328   1.118  -0.758  -0.375  1.9463  1.0190  0.0067
  336MOL0     H45329   0.972  -0.668  -0.302 -0.2200 -1.6413  0.8417
  336MOL0     H45330   1.082  -0.604  -0.572 -2.0917 -1.2061 -1.8821
  336MOL0     H45331   0.932  -0.540  -0.497 -0.2315  1.3818 -2.6825
  336MOL0     H45332   0.975  -0.841  -0.544  2.6103  0.7239  1.5399
  336MOL0     H45333   0.971  -0.740  -0.678  3.6671 -0.3598  2.0109
  336MOL0     H45334   0.745  -0.844  -0.597  0.4331  0.4338 -0.3610
  336MOL0     H45335   0.751  -0.711  -0.471 -1.5315 -0.7651  0.8324
  336MOL0     H45336   0.735  -0.705  -0.781  2.9438 -1.2639  0.3134
  336MOL0     H45337   0.756  -0.555  -0.695  0.1453 -0.0138 -3.3806
  336MOL0     H45338   0.551  -0.555  -0.586 -3.1011  2.0359 -2.1714
  336MOL0     H45339   0.522  -0.571  -0.744 -0.3518  3.9618  2.3738
  336MOL0     H45340   1.379  -0.872  -0.034 -1.8075 -0.1666  0.5436
  336MOL0     H45341   1.481  -0.898   0.198  2.1869  1.0006 -1.7886
  336MOL0     H45342   1.462  -0.589   0.580 -0.9297  0.4557 -0.4948
  336MOL0     H45343   1.519  -0.546   0.814 -1.4303  0.7991 -1.9195
  336MOL0     H45344   1.447   0.807   0.754  0.5638 -4.2327  1.4188
  336MOL0     H45345   1.297   0.819   0.591  1.6672  1.1952  1.1339
  336MOL0     H45346   0.800   0.884   0.517 -0.8196 -0.1037 -0.3610
  336MOL0     H45347   0.643   0.937   0.323 -0.8459 -0.9700 -0.1158
  336MOL0     H45348   0.521   0.961   0.157  1.6920  0.0099 -3.4016
  336MOL0     H45349   0.443   0.825   0.235  0.8565  0.8624  1.6371
  336MOL0     H45350   0.390   0.760  -0.019 -1.6460  0.0360  0.0428
  336MOL0     H45351   0.437   0.928  -0.055  3.2865  0.5596  1.1144
  336MOL0     H45352   0.282   0.984   0.144  0.4755 -0.9475  0.4576
  336MOL0     H45353   0.207   0.833   0.112 -3.5220  1.1302 -2.4923
  336MOL0     H45354   0.249   1.059  -0.086  1.4008 -1.4553  0.7097
  336MOL0     H45355   0.176   0.910  -0.127  4.1375  0.4074 -1.7790
  336MOL0     H45356  -0.135   1.093   0.101 -0.2341  2.9118 -1.0206
  336MOL0     H45357   0.826   0.639   0.082  0.1272  1.2876 -1.3242
  336MOL0     H45358   1.129   0.639   0.208  0.6679 -1.0017  2.4669
  336MOL0     H45359   1.056   0.501   0.299  1.3830 -0.9535 -1.1045
  336MOL0     H45360   0.998   0.530   0.135  1.2109 -0.3812 -1.0656
  337MOL0     O45361  10.585   8.562   2.040  0.4777  0.2312 -0.2202
  337MOL0     C45362  10.575   8.444   2.080 -0.3830  0.4562 -0.4769
  337MOL0     O45363  10.682   8.367   2.109 -0.2141  0.0477  0.8738
  337MOL0     C45364  10.806   8.419   2.076 -0.9375  0.6297  0.0053
  337MOL0     C45365  10.876   8.373   1.958 -0.5060 -0.7052  0.8754
  337MOL0     C45366  11.003   8.412   1.925  0.8817  0.0035  0.1463
  337MOL0     C45367  11.067   8.504   2.008 -0.2769  0.0444  0.4151
  337MOL0     O45368  11.191   8.549   1.960  1.1720  0.5474  0.5758
  337MOL0     C45369  11.252   8.674   2.008 -0.1107  0.0766  0.7439
  337MOL0     C45370  11.178   8.795   1.947 -1.2085 -0.2045 -0.7832
  337MOL0     C45371  11.191   8.812   1.803  0.7657 -0.5708  0.5987
  337MOL0     C45372  11.226   8.954   1.766 -0.4366  0.4014  0.1967
  337MOL0     C45373  11.269   8.978   1.619  0.5395  0.4666  0.2314
  337MOL0     C45374  11.156   8.941   1.514 -0.4241 -0.2298 -0.4324
  337MOL0     C45375  11.206   8.927   1.363 -0.0549  0.5023 -1.1632
  337MOL0     C45376  11.241   8.783   1.325 -0.7072 -0.4048 -0.2996
  337MOL0     N45377  11.114   8.717   1.302 -0.1590  0.1501 -0.3805
  337MOL0     C45378  11.051   8.712   1.177 -1.2857 -0.2519  0.1124
  337MOL0     C45379  10.938   8.639   1.198 -0.4022  0.2536 -0.2555
  337MOL0     C45380  10.829   8.600   1.107  0.6981 -0.8085  0.3016
  337MOL0     C45381  10.860   8.501   1.005 -0.0456  0.0043 -0.1874
  337MOL0     C45382  10.782   8.525   0.873  0.2427 -0.7093 -0.4883
  337MOL0     C45383  10.624   8.525   0.884  0.0623  0.0824  0.0647
  337MOL0     O45384  10.570   8.654   0.854  0.2766 -0.0620 -0.3986
  337MOL0     C45385  10.441   8.695   0.890  0.0157  0.5420  0.2934
  337MOL0     C45386  10.334   8.610   0.924 -0.5550 -0.4554 -0.1365
  337MOL0     C45387  10.204   8.661   0.938  0.2995 -0.0971  0.7137
  337MOL0     C45388  10.174   8.801   0.910  0.4337  0.5793  0.5514
  337MOL0     C45389  10.039   8.851   0.909 -0.6102 -0.8016 -0.4149
  337MOL0     O45390   9.942   8.762   0.941  0.0147  0.5082 -0.0322
  337MOL0     C45391   9.813   8.789   0.931 -0.1962 -0.0660  0.2404
  337MOL0     C45392   9.721   8.757   1.038  0.3609  0.1421  0.2409
  337MOL0     C45393   9.584   8.776   1.003 -0.4073 -0.3459 -0.0535
  337MOL0     C45394   9.544   8.842   0.880 -0.2909  0.0270  0.9096
  337MOL0     O45395   9.410   8.887   0.883 -0.5949  0.4140  0.0433
  337MOL0     C45396   9.361   8.946   0.771  0.5397 -1.4843  0.5221
  337MOL0     C45397   9.248   9.051   0.790 -0.0809 -1.4057  0.3861
  337MOL0     C45398   9.266   9.125   0.926  0.3094  0.5136  0.1332
  337MOL0     C45399   9.231   9.038   1.046 -0.4817 -0.3971  0.1298
  337MOL0     C45400   9.200   9.125   1.163  0.0636  0.4799  0.2178
  337MOL0     C45401   9.099   9.055   1.253  0.5455 -0.2710 -0.3624
  337MOL0     C45402   9.106   9.127   1.386  0.6633  0.6331  0.1081
  337MOL0     C45403   9.005   9.070   1.480 -1.0101  0.4798  0.0048
  337MOL0    Cl45404   9.037   8.904   1.518  0.1529 -0.0506  0.0343
  337MOL0     C45405   9.642   8.852   0.770 -0.8761 -0.5337 -0.2549
  337MOL0     C45406   9.774   8.840   0.805 -0.5191  1.2024 -0.3847
  337MOL0     O45407  10.023   8.971   0.876  0.3015 -0.2997  0.2792
  337MOL0     C45408  10.290   8.891   0.893  0.7550 -0.6212  0.6318
  337MOL0     C45409  10.412   8.833   0.880 -0.9938  0.3779 -0.5929
  337MOL0     N45410  10.935   8.597   1.336 -0.7882  0.2646 -0.1300
  337MOL0     N45411  11.026   8.668   1.396 -0.4293 -0.2368  0.5730
  337MOL0     C45412  11.011   8.537   2.133 -1.3677 -0.2486 -0.6951
  337MOL0     C45413  10.882   8.494   2.169 -0.1740  0.7320  0.6848
  337MOL0     C45414  10.440   8.369   2.098 -0.5931 -0.1010 -0.4552
  337MOL0     C45415  10.438   8.233   2.133  0.1076 -0.6294 -0.5298
  337MOL0     C45416  10.326   8.168   2.173  0.9724  0.7428 -0.1354
  337MOL0     C45417  10.205   8.220   2.161 -0.1634 -0.3545  1.4887
  337MOL0     O45418  10.093   8.160   2.202 -0.0489 -0.3586  0.2767
  337MOL0     C45419  10.073   8.031   2.139  0.0076 -0.1206  0.4546
  337MOL0     C45420   9.932   7.982   2.173  1.4121 -0.4679 -0.8272
  337MOL0     C45421   9.828   8.077   2.106  0.4432 -0.8624 -0.2079
  337MOL0     C45422   9.819   8.078   1.952  0.0554  0.4769 -0.2571
  337MOL0     C45423   9.773   7.944   1.926  0.4785 -0.2512  0.1491
  337MOL0     C45424   9.750   7.828   1.885  0.1775 -0.0108 -0.0192
  337MOL0     C45425  10.205   8.353   2.126 -0.0311 -0.0964  1.3826
  337MOL0     C45426  10.317   8.440   2.083  0.5806 -0.4736  0.5270
  337MOL0     C45427  10.300   8.584   2.048  0.0206  0.1894  0.3859
  337MOL0     H45428  10.830   8.303   1.889  3.8558  0.7947 -4.1874
  337MOL0     H45429  11.033   8.379   1.826 -2.8177  1.8599 -1.7788
  337MOL0     H45430  11.247   8.670   2.117 -0.9068 -0.7638  0.6891
  337MOL0     H45431  11.354   8.676   1.968  0.7975 -0.8111  2.8874
  337MOL0     H45432  11.201   8.881   2.010  1.5335 -1.0679 -0.4787
  337MOL0     H45433  11.072   8.780   1.969 -1.4240  1.0674 -0.8699
  337MOL0     H45434  11.104   8.771   1.750  1.3056 -0.0802 -0.6793
  337MOL0     H45435  11.272   8.748   1.769 -1.1743 -2.5978 -0.4788
  337MOL0     H45436  11.140   9.020   1.785  0.5010  1.1097  2.3212
  337MOL0     H45437  11.308   8.983   1.833  0.7130  2.2568 -1.8954
  337MOL0     H45438  11.275   9.087   1.612  0.4782  0.5377  1.2684
  337MOL0     H45439  11.359   8.918   1.602 -0.6500 -1.1660 -0.5362
  337MOL0     H45440  11.101   8.849   1.537 -0.1424 -0.9439 -2.4231
  337MOL0     H45441  11.080   9.019   1.510 -0.2460 -0.0632 -0.5709
  337MOL0     H45442  11.296   8.990   1.357 -0.6196  1.6372  1.0364
  337MOL0     H45443  11.140   8.972   1.289 -0.9963 -1.0942 -1.3260
  337MOL0     H45444  11.318   8.794   1.248  2.0997  3.4384  2.6897
  337MOL0     H45445  11.287   8.743   1.415 -2.0841  0.5869  0.8884
  337MOL0     H45446  11.088   8.760   1.087 -1.9843  1.5465  0.7495
  337MOL0     H45447  10.739   8.578   1.165 -1.6364 -0.4959 -2.9225
  337MOL0     H45448  10.810   8.695   1.056  2.4007 -1.8172 -2.4406
  337MOL0     H45449  10.967   8.505   0.981  0.2897  1.9659  1.3838
  337MOL0     H45450  10.848   8.399   1.043  1.2702 -0.1789 -0.2015
  337MOL0     H45451  10.812   8.444   0.806 -0.0073 -2.5606  1.5164
  337MOL0     H45452  10.816   8.620   0.831  3.5280 -0.7845  1.6046
  337MOL0     H45453  10.583   8.500   0.983 -2.0493  3.6187  0.2418
  337MOL0     H45454  10.587   8.451   0.813 -1.8390  1.5958 -0.6005
  337MOL0     H45455  10.364   8.508   0.946  2.7115  0.5405  0.5669
  337MOL0     H45456  10.120   8.595   0.956 -0.1333  0.4750  0.7997
  337MOL0     H45457   9.743   8.695   1.124 -0.4412 -0.4721  0.0204
  337MOL0     H45458   9.512   8.753   1.080  0.5131  0.4317  1.0767
  337MOL0     H45459   9.446   8.996   0.722  1.2430 -0.9731  2.1937
  337MOL0     H45460   9.325   8.866   0.707 -1.1183 -1.1466  0.9882
  337MOL0     H45461   9.243   9.118   0.704  2.0875 -0.9433  0.5785
  337MOL0     H45462   9.153   8.996   0.793 -0.5640 -0.6772 -0.8584
  337MOL0     H45463   9.363   9.174   0.941 -0.3820  2.3924 -1.0573
  337MOL0     H45464   9.194   9.207   0.914  0.0379 -0.0659 -3.2056
  337MOL0     H45465   9.317   8.976   1.071  0.0780  1.0012  1.8623
  337MOL0     H45466   9.155   8.964   1.018 -0.4471 -0.3774 -0.0202
  337MOL0     H45467   9.176   9.228   1.136 -0.9668  0.6383  1.5906
  337MOL0     H45468   9.297   9.128   1.214 -0.5880  0.2287  1.5182
  337MOL0     H45469   9.000   9.067   1.207  0.1405  1.3126  0.8136
  337MOL0     H45470   9.119   8.948   1.256 -2.3406 -1.0071 -2.5515
  337MOL0     H45471   9.084   9.234   1.384 -3.8266 -0.0045  1.6178
  337MOL0     H45472   9.198   9.107   1.440  1.3048  2.7367 -0.1342
  337MOL0     H45473   9.016   9.129   1.571  0.0681 -0.3052  0.4102
  337MOL0     H45474   8.904   9.082   1.441 -1.6512 -1.2621  0.9835
  337MOL0     H45475   9.606   8.871   0.669  0.9713 -2.4785 -1.3567
  337MOL0     H45476   9.842   8.846   0.721 -3.2071  3.1435 -2.6246
  337MOL0     H45477  10.261   8.996   0.890 -1.8939 -1.2777 -1.7123
  337MOL0     H45478  10.494   8.904   0.878 -2.8033  2.5610 -1.4186
  337MOL0     H45479  11.059   8.614   2.193 -0.4880 -2.3564  1.4707
  337MOL0     H45480  10.835   8.522   2.263 -0.2781 -1.1970  1.2629
  337MOL0     H45481  10.530   8.178   2.149 -0.6842 -2.2149 -1.2020
  337MOL0     H45482  10.331   8.068   2.215  2.0992 -0.0794 -2.0667
  337MOL0     H45483  10.143   7.959   2.183  1.7244  1.4184  0.3908
  337MOL0     H45484  10.083   8.034   2.030  0.7841 -4.2869  0.2643
  337MOL0     H45485   9.920   7.976   2.282 -3.6903  3.3649 -0.8431
  337MOL0     H45486   9.916   7.881   2.135 -1.0394  0.5240 -2.6684
  337MOL0     H45487   9.856   8.178   2.138 -1.1402 -0.4618  0.0083
  337MOL0     H45488   9.737   8.053   2.162  1.6493 -1.5969  1.5052
  337MOL0     H45489   9.745   8.147   1.910 -1.9247 -0.6671  1.1523
  337MOL0     H45490   9.913   8.098   1.901 -1.5164 -2.1865 -4.7471
  337MOL0     H45491   9.733   7.731   1.845  1.7348 -0.2136 -0.2725
  337MOL0     H45492  10.105   8.395   2.117  0.1266 -0.1033 -1.2341
  337MOL0     H45493  10.335   8.610   1.947  0.3911 -1.1072  0.1528
  337MOL0     H45494  10.194   8.603   2.067 -0.1313 -1.2904  1.1449
  337MOL0     H45495  10.358   8.641   2.120  0.5753 -1.2849  1.1572
  338MOL0     O45496   6.424   3.009  10.642  0.7092  0.3307 -0.2094
  338MOL0     C45497   6.506   3.098  10.653 -0.5363 -0.8401  0.0848
  338MOL0     O45498   6.643   3.072  10.694  0.5604 -0.9284  0.4268
  338MOL0     C45499   6.674   2.935  10.709 -0.6430 -0.8202  0.0669
  338MOL0     C45500   6.649   2.877  10.831 -0.0201  0.1173  0.0420
  338MOL0     C45501   6.700   2.752  10.858 -0.5664  1.0801 -0.2507
  338MOL0     C45502   6.773   2.679  10.765 -0.6229 -0.9924 -0.4083
  338MOL0     O45503   6.815   2.573  10.833  0.0698  0.2679 -0.8169
  338MOL0     C45504   6.861   2.460  10.756 -0.1382 -0.3634 -1.1967
  338MOL0     C45505   6.952   2.365  10.830 -0.6241  0.4212  0.2743
  338MOL0     C45506   6.884   2.320  10.962 -0.2886 -0.1315  0.3771
  338MOL0     C45507   6.974   2.238  11.049 -0.4738 -0.7211 -0.2684
  338MOL0     C45508   6.904   2.242  11.191 -1.0392 -0.1735 -0.4454
  338MOL0     C45509   6.998   2.204  11.299  0.0619 -0.4738  0.2311
  338MOL0     C45510   7.014   2.293  11.423  1.0757  0.0121  0.1673
  338MOL0     C45511   6.898   2.261  11.518 -0.0243 -0.4984 -0.0983
  338MOL0     N45512   6.904   2.338  11.647  0.3834 -0.1780 -0.2256
  338MOL0     C45513   6.804   2.428  11.674 -0.2343 -0.5762  0.4600
  338MOL0     C45514   6.825   2.467  11.798 -0.0455  0.4795  0.2046
  338MOL0     C45515   6.732   2.563  11.854 -0.1298 -0.5731  0.1935
  338MOL0     C45516   6.691   2.685  11.755  0.1375  1.1780  0.2613
  338MOL0     C45517   6.640   2.806  11.824 -0.7550 -0.3065  0.1723
  338MOL0     C45518   6.628   2.926  11.732  0.0436 -0.5020 -1.2400
  338MOL0     O45519   6.618   3.052  11.800  0.4651  0.0961 -0.1830
  338MOL0     C45520   6.632   3.169  11.731  0.2194  0.2838  0.3972
  338MOL0     C45521   6.531   3.221  11.647  0.1723  1.0591  0.3849
  338MOL0     C45522   6.548   3.345  11.597 -0.1044 -0.5805  0.7423
  338MOL0     C45523   6.671   3.413  11.596 -0.6871 -0.1639 -0.3470
  338MOL0     C45524   6.691   3.533  11.525 -0.1072  0.1378  0.7587
  338MOL0     O45525   6.803   3.619  11.548  0.2534 -0.0880 -0.5378
  338MOL0     C45526   6.810   3.744  11.484 -0.1303  0.4015 -0.2347
  338MOL0     C45527   6.893   3.775  11.370  0.9680  1.1868  0.3279
  338MOL0     C45528   6.896   3.904  11.310 -0.1481 -0.7945 -0.3333
  338MOL0     C45529   6.821   4.014  11.364  0.2467 -0.0220  0.1284
  338MOL0     O45530   6.810   4.139  11.305  0.5178 -0.0288  0.5116
  338MOL0     C45531   6.863   4.165  11.173  0.2097  0.3408  0.6907
  338MOL0     C45532   6.760   4.254  11.105 -0.0197  0.3697  0.2729
  338MOL0     C45533   6.622   4.188  11.088  0.2196 -0.9298 -0.2610
  338MOL0     C45534   6.509   4.286  11.037  0.4189  0.1683  0.6941
  338MOL0     C45535   6.494   4.413  11.113 -0.4832  0.3436 -1.0986
  338MOL0     C45536   6.356   4.478  11.089 -0.8924 -0.4704  0.4002
  338MOL0     C45537   6.337   4.607  11.162 -0.0004 -0.1839 -0.2473
  338MOL0     C45538   6.202   4.674  11.133  0.0812  0.8850  0.4805
  338MOL0    Cl45539   6.199   4.836  11.215  0.2427 -0.2856 -0.0327
  338MOL0     C45540   6.752   3.986  11.480 -0.0910  0.0619 -0.5148
  338MOL0     C45541   6.752   3.857  11.541 -0.5860  0.5995  0.5534
  338MOL0     O45542   6.602   3.566  11.453  0.7094 -0.4582 -0.5475
  338MOL0     C45543   6.773   3.352  11.673 -0.1444  0.7519  0.5429
  338MOL0     C45544   6.749   3.234  11.746 -0.4502 -1.2520 -0.1299
  338MOL0     N45545   6.944   2.413  11.846  0.1698 -0.1279  0.3542
  338MOL0     N45546   6.987   2.331  11.750 -0.1800 -0.0237  0.0224
  338MOL0     C45547   6.789   2.734  10.643 -0.4392  0.7673  0.1018
  338MOL0     C45548   6.741   2.865  10.618  0.2839  0.7877 -0.3612
  338MOL0     C45549   6.477   3.238  10.608  0.1561  0.1251  0.0879
  338MOL0     C45550   6.539   3.338  10.697  0.0271 -0.7315 -0.1087
  338MOL0     C45551   6.545   3.469  10.660 -0.7692  0.1797 -0.6482
  338MOL0     C45552   6.469   3.515  10.552  0.5724 -0.0738 -0.2108
  338MOL0     O45553   6.444   3.642  10.511  0.3756 -0.7374 -0.7933
  338MOL0     C45554   6.534   3.746  10.530 -0.2151  0.4839  0.4341
  338MOL0     C45555   6.471   3.873  10.472 -0.1744 -0.3899 -0.2745
  338MOL0     C45556   6.510   3.912  10.333  0.4502 -0.3123  0.0224
  338MOL0     C45557   6.403   4.010  10.273 -0.5174 -0.1753  0.0327
  338MOL0     C45558   6.267   3.948  10.266  0.3007  0.2311 -0.5006
  338MOL0     C45559   6.152   3.912  10.244  0.1834  0.4940  0.2725
  338MOL0     C45560   6.385   3.422  10.486 -0.5187  0.3847 -0.0296
  338MOL0     C45561   6.395   3.280  10.511 -0.7791  0.4344 -1.1896
  338MOL0     C45562   6.316   3.189  10.421 -0.5575 -0.2376  0.6594
  338MOL0     H45563   6.589   2.937  10.899 -0.2150  1.6758 -1.4383
  338MOL0     H45564   6.688   2.717  10.960  0.4971 -2.5766 -1.2244
  338MOL0     H45565   6.769   2.419  10.712  0.8711 -2.0920 -1.7813
  338MOL0     H45566   6.920   2.494  10.670 -2.3781  1.3898 -2.1438
  338MOL0     H45567   7.049   2.415  10.843 -0.3872  0.1044 -0.2490
  338MOL0     H45568   6.980   2.269  10.784 -1.2714 -0.8171  2.3099
  338MOL0     H45569   6.794   2.260  10.943  0.9351 -1.4637 -1.5984
  338MOL0     H45570   6.860   2.419  11.003  5.0335  2.7938 -2.5568
  338MOL0     H45571   6.985   2.136  11.012  1.1046  0.1376 -2.3624
  338MOL0     H45572   7.080   2.268  11.051 -0.0685 -2.0820 -0.3259
  338MOL0     H45573   6.895   2.350  11.204  4.1448  0.1627  3.2676
  338MOL0     H45574   6.806   2.193  11.191  0.1602 -2.8233  1.1894
  338MOL0     H45575   6.963   2.101  11.313 -1.4829  0.1967  1.7364
  338MOL0     H45576   7.102   2.199  11.265  0.0507  0.8856 -0.0575
  338MOL0     H45577   7.016   2.398  11.393 -0.5565 -0.0836 -0.3758
  338MOL0     H45578   7.114   2.277  11.466  1.1125 -4.3586 -1.0512
  338MOL0     H45579   6.797   2.259  11.477 -1.3382 -0.7850  2.8800
  338MOL0     H45580   6.913   2.159  11.554 -0.6308 -0.4218  0.3941
  338MOL0     H45581   6.716   2.463  11.621  1.6303  2.2570 -0.9619
  338MOL0     H45582   6.651   2.497  11.884 -0.1301 -1.9475 -2.4909
  338MOL0     H45583   6.772   2.608  11.945 -3.8073  1.8149  0.8425
  338MOL0     H45584   6.787   2.709  11.709 -0.9796 -0.1777 -3.0378
  338MOL0     H45585   6.623   2.662  11.672 -0.2872 -0.4423  1.0075
  338MOL0     H45586   6.717   2.836  11.896  0.7010 -0.7394 -1.1453
  338MOL0     H45587   6.554   2.768  11.879 -1.3057 -1.5021 -1.4417
  338MOL0     H45588   6.536   2.911  11.674  0.3294  2.0595 -2.5103
  338MOL0     H45589   6.713   2.930  11.664 -1.4179  0.9278 -3.1165
  338MOL0     H45590   6.446   3.160  11.618  1.7313 -2.1132  1.9106
  338MOL0     H45591   6.463   3.386  11.542  0.1753 -2.6828 -1.3958
  338MOL0     H45592   6.969   3.701  11.346 -1.3687 -1.3680  0.3172
  338MOL0     H45593   6.966   3.924  11.230  0.5906  2.1323  0.9401
  338MOL0     H45594   6.950   4.229  11.191 -0.3048  0.4352  3.1517
  338MOL0     H45595   6.886   4.074  11.118  1.3265 -0.9881  3.1786
  338MOL0     H45596   6.756   4.347  11.163  0.2647  0.1812  0.5965
  338MOL0     H45597   6.795   4.286  11.006  0.5782  2.4270  1.0923
  338MOL0     H45598   6.640   4.107  11.016  1.7049  0.5589 -1.6779
  338MOL0     H45599   6.592   4.147  11.184 -0.2002  0.9425  0.4609
  338MOL0     H45600   6.412   4.236  11.044 -0.0252  1.0561  1.0403
  338MOL0     H45601   6.506   4.292  10.928  0.5585 -0.8328  0.6224
  338MOL0     H45602   6.574   4.486  11.096 -1.5843  1.9632  0.2800
  338MOL0     H45603   6.483   4.393  11.220 -1.7527  1.2365 -1.0317
  338MOL0     H45604   6.353   4.502  10.982  3.2851  0.6338  0.3367
  338MOL0     H45605   6.270   4.414  11.112 -1.4036  0.2898  0.6114
  338MOL0     H45606   6.417   4.674  11.129 -0.8131 -0.6986 -3.7111
  338MOL0     H45607   6.349   4.602  11.270  0.1852 -1.7157 -0.3141
  338MOL0     H45608   6.188   4.678  11.025 -3.9779  1.5369  0.8621
  338MOL0     H45609   6.119   4.618  11.177 -1.6937  2.9967  0.0363
  338MOL0     H45610   6.693   4.073  11.507 -0.7107 -0.0284 -1.5118
  338MOL0     H45611   6.675   3.851  11.617 -1.1109  2.7330  0.2705
  338MOL0     H45612   6.871   3.401  11.670  0.0322  0.3629 -1.1333
  338MOL0     H45613   6.830   3.196  11.807 -0.4052  1.2343  1.4985
  338MOL0     H45614   6.833   2.677  10.562 -1.6936 -0.7423  0.4477
  338MOL0     H45615   6.754   2.916  10.523 -0.1890  0.7089 -0.4705
  338MOL0     H45616   6.581   3.302  10.790  1.3229  1.2272  0.1265
  338MOL0     H45617   6.593   3.543  10.724  1.6739 -0.2607 -1.8891
  338MOL0     H45618   6.631   3.715  10.489  0.7816  0.0539  2.9336
  338MOL0     H45619   6.550   3.773  10.635  2.8637 -2.8580  1.0711
  338MOL0     H45620   6.499   3.954  10.541 -0.4182 -0.6325  0.1120
  338MOL0     H45621   6.362   3.871  10.480 -0.2473 -0.1918 -1.1081
  338MOL0     H45622   6.504   3.832  10.259 -2.1134  2.1677 -2.7298
  338MOL0     H45623   6.610   3.956  10.332 -0.1302  1.0751 -1.1468
  338MOL0     H45624   6.407   4.107  10.323  0.7742 -1.1255  1.8901
  338MOL0     H45625   6.435   4.030  10.170  0.5133 -1.0441  0.1577
  338MOL0     H45626   6.048   3.890  10.238 -0.3554  1.5680  3.4514
  338MOL0     H45627   6.327   3.458  10.402  0.7207  2.6694  0.0384
  338MOL0     H45628   6.308   3.238  10.323  0.0519 -1.0846  0.1659
  338MOL0     H45629   6.363   3.092  10.404 -0.5791 -1.0135  4.3746
  338MOL0     H45630   6.213   3.173  10.454 -0.7615  2.2507  1.4349
  339MOL0     O45631   5.359   2.143   0.917  0.0049  0.7757 -0.1457
  339MOL0     C45632   5.440   2.219   0.960  0.2687 -0.6649  0.4719
  339MOL0     O45633   5.510   2.200   1.073  0.5301 -0.5951 -0.9846
  339MOL0     C45634   5.526   2.079   1.137 -0.0052  0.1977 -1.0310
  339MOL0     C45635   5.562   2.088   1.267 -0.1691 -0.1486 -0.3969
  339MOL0     C45636   5.606   1.978   1.344 -0.6772 -0.4077  0.0619
  339MOL0     C45637   5.596   1.848   1.294  0.7546  0.1398 -0.5811
  339MOL0     O45638   5.616   1.742   1.380 -0.3163  0.5136  0.0568
  339MOL0     C45639   5.622   1.615   1.324 -0.7698  0.9734 -0.3285
  339MOL0     C45640   5.699   1.504   1.404  0.1964 -0.3037  0.4344
  339MOL0     C45641   5.639   1.502   1.550  0.1020  1.4652 -0.0799
  339MOL0     C45642   5.732   1.410   1.638 -0.6413  0.0216  0.3458
  339MOL0     C45643   5.665   1.389   1.783 -0.3171 -0.3187  0.2999
  339MOL0     C45644   5.729   1.276   1.860 -0.6961  0.2159  0.3642
  339MOL0     C45645   5.677   1.260   2.005  0.0442  0.5061 -0.2513
  339MOL0     C45646   5.775   1.198   2.104  0.1545  0.2930  0.0917
  339MOL0     N45647   5.748   1.225   2.245 -1.3187 -0.1972 -0.3547
  339MOL0     C45648   5.788   1.341   2.306 -0.6499 -0.1704  0.0311
  339MOL0     C45649   5.764   1.317   2.439 -1.0499 -0.3460  0.3369
  339MOL0     C45650   5.789   1.410   2.558  0.0692  1.1055 -0.6158
  339MOL0     C45651   5.680   1.471   2.633  0.8967  0.6445  0.2385
  339MOL0     C45652   5.576   1.543   2.536 -1.2089 -0.4765  0.1633
  339MOL0     C45653   5.465   1.453   2.465  0.4397 -0.1904  0.2235
  339MOL0     O45654   5.388   1.394   2.573 -0.8689 -0.3387  0.7272
  339MOL0     C45655   5.257   1.414   2.573  0.4309 -0.7091 -0.2807
  339MOL0     C45656   5.205   1.540   2.601 -0.0514  0.0990  1.0052
  339MOL0     C45657   5.067   1.562   2.627  0.7785 -0.1498 -0.2728
  339MOL0     C45658   4.971   1.461   2.582  0.3301 -1.0002 -0.7531
  339MOL0     C45659   4.824   1.489   2.576  0.6219 -0.9643  1.0990
  339MOL0     O45660   4.781   1.612   2.596 -0.5706 -0.4425 -0.6270
  339MOL0     C45661   4.649   1.633   2.585  0.9051  0.6276 -0.6637
  339MOL0     C45662   4.584   1.686   2.693  0.3129 -0.2663  0.3972
  339MOL0     C45663   4.450   1.718   2.699 -0.5313 -0.9366 -0.6279
  339MOL0     C45664   4.373   1.704   2.583 -0.5455  0.2649  0.5239
  339MOL0     O45665   4.243   1.723   2.571 -0.3800 -0.6092  1.4878
  339MOL0     C45666   4.199   1.853   2.611  1.1708 -0.7779 -0.0697
  339MOL0     C45667   4.078   1.876   2.526  0.3284  0.1715  0.4237
  339MOL0     C45668   4.018   2.017   2.526 -0.0921  0.1949  0.0520
  339MOL0     C45669   3.861   2.003   2.517 -0.0208  1.3920 -0.7137
  339MOL0     C45670   3.798   2.142   2.546  0.0007  0.2311  0.3936
  339MOL0     C45671   3.639   2.135   2.544 -0.1402  0.4455 -0.0142
  339MOL0     C45672   3.577   2.275   2.526 -0.0716  0.2464  0.0032
  339MOL0     C45673   3.527   2.330   2.653 -0.4980 -0.5746 -0.0003
  339MOL0    Cl45674   3.533   2.502   2.629  0.2447 -0.8116  0.1081
  339MOL0     C45675   4.437   1.639   2.469  0.2241 -0.3216 -0.1563
  339MOL0     C45676   4.574   1.614   2.467 -0.3482  0.0945 -0.4124
  339MOL0     O45677   4.755   1.394   2.542 -0.2364  0.1129 -0.1488
  339MOL0     C45678   5.031   1.338   2.542 -0.0475  0.7265  0.0296
  339MOL0     C45679   5.166   1.310   2.551  0.7148  0.1800  1.1035
  339MOL0     N45680   5.707   1.189   2.449  0.1317  0.1739 -0.4708
  339MOL0     N45681   5.695   1.136   2.330 -0.5738  0.0853 -0.1103
  339MOL0     C45682   5.541   1.840   1.160  0.4890 -0.1435 -1.3959
  339MOL0     C45683   5.503   1.948   1.086 -0.7140  0.9275 -0.0708
  339MOL0     C45684   5.448   2.357   0.896  0.0719 -0.9343  0.8331
  339MOL0     C45685   5.488   2.469   0.972  0.2611  0.1783  0.1628
  339MOL0     C45686   5.518   2.594   0.930 -0.0661 -0.9964  0.6033
  339MOL0     C45687   5.492   2.620   0.794 -0.7013 -1.1042 -0.2865
  339MOL0     O45688   5.538   2.747   0.749 -0.1623  0.3962 -0.3256
  339MOL0     C45689   5.511   2.775   0.605 -0.1861  0.0521  0.2022
  339MOL0     C45690   5.366   2.827   0.607  0.2897  0.3058  1.0326
  339MOL0     C45691   5.319   2.919   0.486 -0.5061 -0.0072 -0.8580
  339MOL0     C45692   5.175   2.975   0.503 -0.3121 -0.4434  0.1212
  339MOL0     C45693   5.067   2.884   0.480 -0.1200  0.7760 -0.6136
  339MOL0     C45694   4.986   2.802   0.443  0.5154 -0.5150 -0.7400
  339MOL0     C45695   5.429   2.517   0.723  0.9178 -0.0023 -0.0674
  339MOL0     C45696   5.395   2.388   0.767  0.7816  1.0226  0.1430
  339MOL0     C45697   5.320   2.306   0.663 -0.2989 -1.0620 -1.2814
  339MOL0     H45698   5.577   2.185   1.313 -1.8451 -1.1287  2.4390
  339MOL0     H45699   5.647   1.989   1.444 -0.0320 -2.7201  0.1091
  339MOL0     H45700   5.517   1.590   1.306  0.0501 -1.4163 -2.3238
  339MOL0     H45701   5.663   1.614   1.223 -3.5113 -0.4624 -1.5439
  339MOL0     H45702   5.807   1.521   1.401  0.0924  0.3272 -1.7734
  339MOL0     H45703   5.663   1.417   1.347 -3.7332  1.7664 -0.6529
  339MOL0     H45704   5.547   1.446   1.534  0.0204  1.6632 -0.2963
  339MOL0     H45705   5.620   1.593   1.608 -1.4857  1.1700 -0.0989
  339MOL0     H45706   5.730   1.316   1.582  1.6655  1.5679 -2.6597
  339MOL0     H45707   5.835   1.448   1.642 -0.6214  0.8209 -3.5434
  339MOL0     H45708   5.658   1.485   1.835 -0.6862 -0.4441  0.4917
  339MOL0     H45709   5.565   1.352   1.760  0.3058 -0.3677 -2.7446
  339MOL0     H45710   5.698   1.182   1.814 -1.6920  2.3045 -3.6984
  339MOL0     H45711   5.838   1.273   1.864 -0.5810 -5.5049  0.9338
  339MOL0     H45712   5.578   1.216   2.018 -0.1365  1.0057  0.0757
  339MOL0     H45713   5.662   1.365   2.031  0.4353  0.4824  0.0808
  339MOL0     H45714   5.781   1.091   2.081 -0.8327  0.3639 -0.5651
  339MOL0     H45715   5.874   1.241   2.083  1.7135 -2.3831  1.4665
  339MOL0     H45716   5.836   1.426   2.259  1.6964 -1.4087  0.0368
  339MOL0     H45717   5.838   1.342   2.628 -5.1287  0.7298  3.2305
  339MOL0     H45718   5.852   1.492   2.524  2.0468 -0.5252 -1.1053
  339MOL0     H45719   5.628   1.395   2.692 -0.3316  0.3897 -1.0970
  339MOL0     H45720   5.724   1.547   2.698  0.0304  0.1057  1.4775
  339MOL0     H45721   5.630   1.595   2.456  1.3545 -0.7971  1.5710
  339MOL0     H45722   5.530   1.626   2.590  2.6793  0.5061  2.2838
  339MOL0     H45723   5.516   1.372   2.410 -0.1359 -1.5841  1.6779
  339MOL0     H45724   5.401   1.503   2.392  0.2344  1.8775  1.7546
  339MOL0     H45725   5.276   1.621   2.611  0.2971 -0.2416  1.3569
  339MOL0     H45726   5.039   1.661   2.661  0.9869  0.4502 -1.7527
  339MOL0     H45727   4.646   1.710   2.779  1.2298  2.3873 -0.8842
  339MOL0     H45728   4.411   1.770   2.785  4.3669  2.9602 -0.3258
  339MOL0     H45729   4.160   1.848   2.713  3.1833  0.3450  0.8129
  339MOL0     H45730   4.269   1.937   2.600  0.3899 -0.0338  0.6027
  339MOL0     H45731   4.111   1.861   2.423  0.7552  3.3781 -0.0133
  339MOL0     H45732   4.006   1.796   2.545 -0.8197  1.2569  0.8272
  339MOL0     H45733   4.049   2.071   2.616  1.6411  4.4773 -2.7642
  339MOL0     H45734   4.070   2.070   2.446  1.7227  2.6164  2.6227
  339MOL0     H45735   3.814   1.936   2.590  0.9939  0.8079 -0.5864
  339MOL0     H45736   3.840   1.968   2.416  0.3632 -0.6930 -0.1124
  339MOL0     H45737   3.835   2.205   2.465  2.7990 -5.0088 -2.9564
  339MOL0     H45738   3.833   2.179   2.643 -0.4844 -1.2454  1.1611
  339MOL0     H45739   3.613   2.074   2.457  1.3067 -2.6104  1.5492
  339MOL0     H45740   3.602   2.094   2.638 -0.5741 -1.2361 -0.8726
  339MOL0     H45741   3.490   2.269   2.461 -2.4286  1.2321  2.8464
  339MOL0     H45742   3.657   2.335   2.482 -0.3232 -0.1593 -1.0407
  339MOL0     H45743   3.435   2.280   2.683 -0.4094 -0.8166 -0.1258
  339MOL0     H45744   3.599   2.307   2.732 -1.3496  0.6987  1.1820
  339MOL0     H45745   4.379   1.608   2.382  1.2530  0.7926 -1.2667
  339MOL0     H45746   4.614   1.566   2.379  2.0025 -0.8507  1.0774
  339MOL0     H45747   4.958   1.261   2.519  0.6076  0.5685 -1.6547
  339MOL0     H45748   5.213   1.214   2.533  1.4636  0.2573  2.5324
  339MOL0     H45749   5.531   1.746   1.106 -2.1418 -2.8193  3.0885
  339MOL0     H45750   5.470   1.938   0.984 -1.1409  0.8681  0.0717
  339MOL0     H45751   5.528   2.452   1.071  3.1588 -2.1476 -1.2472
  339MOL0     H45752   5.563   2.677   0.984 -0.6922  0.1996 -0.6380
  339MOL0     H45753   5.538   2.695   0.535 -2.1198 -0.0920 -0.4217
  339MOL0     H45754   5.583   2.855   0.583  3.0850 -3.2690 -2.4517
  339MOL0     H45755   5.357   2.891   0.695  0.0954  4.0132 -1.4566
  339MOL0     H45756   5.294   2.746   0.621  0.3814 -0.0396 -0.3715
  339MOL0     H45757   5.335   2.886   0.383 -1.1503 -3.6935  0.0738
  339MOL0     H45758   5.385   3.006   0.490  0.2134 -0.5871  0.9336
  339MOL0     H45759   5.161   3.013   0.605 -0.6593  1.0380 -0.4440
  339MOL0     H45760   5.180   3.057   0.430  0.3005 -2.7875 -2.6277
  339MOL0     H45761   4.912   2.742   0.392 -1.9635  2.1648 -0.5622
  339MOL0     H45762   5.384   2.543   0.628 -0.2168 -0.1387  0.4195
  339MOL0     H45763   5.245   2.366   0.612  1.9023  0.5682 -2.7525
  339MOL0     H45764   5.384   2.275   0.580  1.5289 -2.0967  0.4128
  339MOL0     H45765   5.278   2.213   0.704  0.4955 -0.7329  0.3906
  340MOL0     O45766   1.275   5.684   5.818 -0.5989  0.1113  0.1960
  340MOL0     C45767   1.391   5.727   5.841 -0.3598  0.2823  1.2146
  340MOL0     O45768   1.479   5.682   5.945  0.8981 -1.0393  0.3945
  340MOL0     C45769   1.398   5.617   6.041 -0.8433  0.2415 -0.1515
  340MOL0     C45770   1.337   5.693   6.145 -0.2541 -0.5875 -0.3714
  340MOL0     C45771   1.261   5.631   6.241  0.2149  0.7141  0.2642
  340MOL0     C45772   1.242   5.497   6.241 -0.2438  0.0998 -0.3743
  340MOL0     O45773   1.163   5.435   6.331 -0.6656  0.0911  0.3151
  340MOL0     C45774   1.058   5.360   6.272 -0.6841  0.0368  0.1639
  340MOL0     C45775   1.080   5.202   6.260  0.1387  1.3710 -0.1183
  340MOL0     C45776   1.058   5.145   6.405 -0.4122 -0.2793  0.6362
  340MOL0     C45777   1.090   4.995   6.404  0.4647 -0.7734  0.1582
  340MOL0     C45778   1.039   4.917   6.517 -0.9722  0.3054 -0.5295
  340MOL0     C45779   1.070   4.770   6.511 -0.8781 -0.2342  0.0888
  340MOL0     C45780   0.994   4.692   6.616 -0.1883  0.2995  0.3247
  340MOL0     C45781   1.091   4.605   6.694 -0.6929 -0.1458  1.2430
  340MOL0     N45782   1.163   4.685   6.800  1.1638 -1.3041  0.5064
  340MOL0     C45783   1.089   4.745   6.899  0.5118  0.2626 -1.2861
  340MOL0     C45784   1.177   4.802   6.980  0.3646 -1.1003  0.8479
  340MOL0     C45785   1.158   4.892   7.108  0.5175  1.2950  0.5767
  340MOL0     C45786   1.046   4.843   7.196 -0.3204  0.4129 -0.1956
  340MOL0     C45787   1.045   4.911   7.331  0.5888 -0.5833  0.1616
  340MOL0     C45788   1.017   4.813   7.453 -0.6091  0.3325  0.1867
  340MOL0     O45789   0.883   4.752   7.442 -0.7367  0.7812  1.1803
  340MOL0     C45790   0.826   4.685   7.554 -0.7037  0.0036 -0.6980
  340MOL0     C45791   0.721   4.600   7.528 -0.4380 -0.4218 -0.4318
  340MOL0     C45792   0.661   4.532   7.632 -0.3228  0.5297  1.0531
  340MOL0     C45793   0.702   4.551   7.759  0.2648 -0.9043 -1.1976
  340MOL0     C45794   0.631   4.477   7.879  0.0198 -0.1145  0.6270
  340MOL0     O45795   0.670   4.522   8.011  0.0588  0.3535  0.5274
  340MOL0     C45796   0.640   4.429   8.111 -1.4904  1.0792  0.4102
  340MOL0     C45797   0.517   4.401   8.156  1.6787  0.1179 -0.1334
  340MOL0     C45798   0.498   4.311   8.260 -0.7522 -0.2917  0.5661
  340MOL0     C45799   0.607   4.261   8.333  0.3146  0.1843  1.0354
  340MOL0     O45800   0.570   4.186   8.440  0.1291 -0.0224 -0.1158
  340MOL0     C45801   0.678   4.144   8.528  0.5293 -0.6552  0.5754
  340MOL0     C45802   0.723   4.255   8.618  1.0442 -0.0277  0.1320
  340MOL0     C45803   0.745   4.202   8.767 -0.1249 -0.0749 -0.2818
  340MOL0     C45804   0.811   4.320   8.846  1.3375  0.4275 -0.6376
  340MOL0     C45805   0.791   4.315   9.002  0.0758  0.6001 -0.6548
  340MOL0     C45806   0.885   4.425   9.063  0.7663  0.4542  0.6879
  340MOL0     C45807   0.878   4.438   9.208 -0.4285  0.4957  0.5871
  340MOL0     C45808   0.860   4.579   9.262 -0.0816  0.3453  0.3749
  340MOL0    Cl45809   0.990   4.686   9.211  0.6497 -0.4734  0.0716
  340MOL0     C45810   0.741   4.298   8.294 -1.0528  0.1870 -0.4070
  340MOL0     C45811   0.755   4.381   8.183 -1.1428  0.4009 -0.1516
  340MOL0     O45812   0.567   4.375   7.851  0.1684 -0.6949  0.3386
  340MOL0     C45813   0.805   4.643   7.786 -0.0355  0.4609  0.1843
  340MOL0     C45814   0.866   4.707   7.680  0.3012 -0.8262 -0.4898
  340MOL0     N45815   1.301   4.781   6.925 -0.9315  0.5062 -0.3416
  340MOL0     N45816   1.294   4.711   6.812 -0.3170 -0.1947 -0.7819
  340MOL0     C45817   1.318   5.416   6.142  0.6214 -0.8455 -0.7633
  340MOL0     C45818   1.392   5.474   6.043  0.1303 -0.3604 -0.6588
  340MOL0     C45819   1.452   5.819   5.748 -0.0855 -0.1416  0.0806
  340MOL0     C45820   1.590   5.860   5.768  0.2911  0.4776  0.2767
  340MOL0     C45821   1.661   5.924   5.670 -0.0897 -0.0153 -0.0512
  340MOL0     C45822   1.593   5.971   5.554  0.6264 -0.4475 -0.3308
  340MOL0     O45823   1.649   6.057   5.458  0.5021  0.1636  0.6939
  340MOL0     C45824   1.751   6.148   5.492 -0.6192  0.3823 -0.2931
  340MOL0     C45825   1.806   6.210   5.361 -0.2614 -0.1370 -0.2489
  340MOL0     C45826   1.882   6.116   5.268 -0.1118  0.5555  0.7999
  340MOL0     C45827   1.913   6.177   5.123 -1.1604 -0.2435  0.2080
  340MOL0     C45828   1.970   6.077   5.033 -0.8812 -0.8310 -0.0581
  340MOL0     C45829   2.033   6.008   4.958 -0.5949  0.6158 -0.5608
  340MOL0     C45830   1.463   5.934   5.535 -0.3940  0.7844 -0.7212
  340MOL0     C45831   1.391   5.853   5.627  0.6532 -0.0637 -0.5805
  340MOL0     C45832   1.245   5.827   5.576  0.1742 -0.9495 -0.9445
  340MOL0     H45833   1.342   5.801   6.141 -2.9007 -0.3738  0.4104
  340MOL0     H45834   1.207   5.685   6.318 -0.0636 -1.5649  1.7444
  340MOL0     H45835   0.966   5.363   6.332 -3.3326 -0.0633 -3.5500
  340MOL0     H45836   1.041   5.402   6.173 -1.4779 -0.8193 -0.0774
  340MOL0     H45837   1.183   5.185   6.228 -0.0056  0.0952  0.0599
  340MOL0     H45838   1.009   5.150   6.196  1.8394 -0.2852 -0.7452
  340MOL0     H45839   0.955   5.163   6.438 -1.1646  0.5081 -1.9562
  340MOL0     H45840   1.127   5.174   6.484  0.6827 -2.1605  0.4371
  340MOL0     H45841   1.051   4.946   6.314 -0.8764  0.3557  0.0967
  340MOL0     H45842   1.199   4.998   6.414  0.4202  4.5441  2.0468
  340MOL0     H45843   1.059   4.952   6.619 -3.5080 -0.3778  0.2728
  340MOL0     H45844   0.930   4.927   6.515 -1.3415 -2.4913  0.6996
  340MOL0     H45845   1.054   4.732   6.409  0.1167 -1.7915  0.4754
  340MOL0     H45846   1.178   4.762   6.524 -0.7522  2.5056  1.5570
  340MOL0     H45847   0.932   4.630   6.551  1.7321  0.5563 -1.8539
  340MOL0     H45848   0.935   4.756   6.683  1.2682 -1.4820  3.5540
  340MOL0     H45849   1.036   4.524   6.743 -1.0175  0.0780  1.2451
  340MOL0     H45850   1.164   4.559   6.626  3.3276  2.2377  3.5352
  340MOL0     H45851   0.982   4.764   6.901  0.7971  2.0385 -0.9155
  340MOL0     H45852   1.247   4.892   7.171  1.4973  1.4705 -0.7760
  340MOL0     H45853   1.124   4.989   7.071  0.5400  1.2394  0.4075
  340MOL0     H45854   0.952   4.851   7.141  0.9105 -3.9971 -3.5020
  340MOL0     H45855   1.062   4.737   7.217 -2.2439  0.4253  1.6566
  340MOL0     H45856   0.964   4.984   7.326  0.9649 -0.2279 -1.1980
  340MOL0     H45857   1.140   4.958   7.357  0.6372 -0.6402  0.0873
  340MOL0     H45858   1.022   4.878   7.540 -2.0027 -1.2629  1.5309
  340MOL0     H45859   1.083   4.726   7.461 -0.8800  0.2205  1.4096
  340MOL0     H45860   0.681   4.600   7.427 -1.9628  3.1082  0.0286
  340MOL0     H45861   0.582   4.463   7.605  0.7242  0.3777 -2.0173
  340MOL0     H45862   0.430   4.447   8.109  1.4940 -1.1928 -1.1093
  340MOL0     H45863   0.395   4.286   8.282 -0.9272  0.3444  0.4978
  340MOL0     H45864   0.622   4.074   8.592 -1.0049 -1.5256 -1.5862
  340MOL0     H45865   0.753   4.098   8.463 -1.8918 -0.6919 -2.4216
  340MOL0     H45866   0.821   4.291   8.587  0.6922  1.5107  0.6681
  340MOL0     H45867   0.646   4.332   8.603 -0.3222 -1.3448  0.2379
  340MOL0     H45868   0.647   4.180   8.811 -0.8211  1.0640 -1.1813
  340MOL0     H45869   0.804   4.110   8.768  2.0851  1.2492 -1.4274
  340MOL0     H45870   0.758   4.408   8.810 -0.8395 -1.4127 -2.1626
  340MOL0     H45871   0.918   4.329   8.822  1.6926  0.1520  0.6980
  340MOL0     H45872   0.836   4.220   9.032  3.6373  1.5893 -2.2732
  340MOL0     H45873   0.685   4.332   9.024 -0.6242  0.7722 -3.7058
  340MOL0     H45874   0.987   4.414   9.024  0.9213  0.6973  1.0156
  340MOL0     H45875   0.842   4.517   9.022  2.7765  0.4194 -1.7563
  340MOL0     H45876   0.970   4.392   9.244 -0.4095 -1.8845 -2.2045
  340MOL0     H45877   0.789   4.384   9.243  0.7857 -1.4922  0.7214
  340MOL0     H45878   0.763   4.614   9.227 -0.7648 -0.5912  1.2935
  340MOL0     H45879   0.864   4.566   9.370 -1.7934 -4.0136  0.1067
  340MOL0     H45880   0.830   4.254   8.336 -2.0406 -2.0903 -0.5686
  340MOL0     H45881   0.858   4.389   8.150 -0.9805 -2.6311 -0.6662
  340MOL0     H45882   0.846   4.653   7.886  0.3261 -1.2058  0.2296
  340MOL0     H45883   0.947   4.776   7.701 -1.1476  0.2564  1.9469
  340MOL0     H45884   1.316   5.307   6.137  2.3446 -0.9078 -0.7430
  340MOL0     H45885   1.449   5.413   5.974  0.9894 -0.0251 -0.2616
  340MOL0     H45886   1.645   5.807   5.846 -0.5757 -0.6243  0.1529
  340MOL0     H45887   1.768   5.937   5.680  1.0293 -3.1163 -4.6480
  340MOL0     H45888   1.835   6.087   5.526 -0.8218 -0.0614 -0.5904
  340MOL0     H45889   1.729   6.223   5.568  1.4645  0.3466  0.4028
  340MOL0     H45890   1.887   6.282   5.371  0.7485 -0.9259 -2.2434
  340MOL0     H45891   1.730   6.266   5.306  0.6369  4.0819  2.3562
  340MOL0     H45892   1.815   6.030   5.255  2.5032 -1.7261  1.3557
  340MOL0     H45893   1.977   6.100   5.319  0.4522  0.6760 -0.1850
  340MOL0     H45894   1.822   6.211   5.073 -0.3964 -0.0801 -1.1292
  340MOL0     H45895   1.976   6.264   5.145 -1.8289 -0.2667  2.3381
  340MOL0     H45896   2.071   5.933   4.892 -4.9381 -0.6768 -1.8904
  340MOL0     H45897   1.423   5.956   5.436 -2.1804 -1.9473 -0.7246
  340MOL0     H45898   1.169   5.834   5.654  1.5107 -2.0795  0.5376
  340MOL0     H45899   1.220   5.881   5.484 -1.1634 -1.1132 -0.6938
  340MOL0     H45900   1.234   5.723   5.542 -0.3193 -1.0030 -0.6318
  341MOL0     O45901   4.478   1.897   7.641 -0.7095  0.6099 -0.1826
  341MOL0     C45902   4.436   1.821   7.559  0.0408  1.0464  0.0687
  341MOL0     O45903   4.372   1.858   7.446  0.3190  0.6191  0.0233
  341MOL0     C45904   4.332   1.988   7.416 -0.1438  0.5224 -1.3173
  341MOL0     C45905   4.209   2.008   7.348  0.9228  0.1018 -0.8536
  341MOL0     C45906   4.179   2.132   7.287 -1.4415 -0.1705 -0.1117
  341MOL0     C45907   4.277   2.236   7.292 -0.5683  0.0478 -0.0664
  341MOL0     O45908   4.241   2.367   7.247  0.5967 -0.2883 -0.1633
  341MOL0     C45909   4.340   2.434   7.178  0.1223  0.5862  0.3760
  341MOL0     C45910   4.272   2.490   7.045 -0.5137 -0.2711 -0.0652
  341MOL0     C45911   4.359   2.601   6.988  0.1407 -0.8215 -0.6755
  341MOL0     C45912   4.296   2.690   6.900  0.2253 -0.1218 -0.2678
  341MOL0     C45913   4.394   2.811   6.873 -0.3659 -1.1770 -0.3307
  341MOL0     C45914   4.323   2.917   6.785 -1.7534 -0.3088  0.2417
  341MOL0     C45915   4.447   3.021   6.743  0.0077 -0.2573 -1.0394
  341MOL0     C45916   4.386   3.125   6.660 -0.2897 -0.0830  0.4982
  341MOL0     N45917   4.337   3.073   6.534  0.1337  1.0789  0.4751
  341MOL0     C45918   4.202   3.054   6.506 -1.0935  0.7734  0.8258
  341MOL0     C45919   4.207   2.965   6.406  0.3691 -0.5832 -0.5361
  341MOL0     C45920   4.084   2.907   6.339 -1.0451 -0.7745  0.3524
  341MOL0     C45921   4.013   2.786   6.405  0.1058  0.7246  0.0967
  341MOL0     C45922   4.089   2.744   6.536 -0.3651  0.1612  0.8669
  341MOL0     C45923   4.024   2.619   6.592 -0.8352 -0.1262  0.1287
  341MOL0     O45924   4.047   2.497   6.515  0.2345 -0.7046 -0.2395
  341MOL0     C45925   3.952   2.403   6.522  0.2764  0.7673 -0.0679
  341MOL0     C45926   3.910   2.340   6.643  0.3249 -0.0476 -0.3178
  341MOL0     C45927   3.819   2.235   6.643 -0.0688 -0.0675  0.5315
  341MOL0     C45928   3.740   2.200   6.527  0.2846  0.0324 -0.4311
  341MOL0     C45929   3.650   2.086   6.534 -0.1588  1.0183 -0.7643
  341MOL0     O45930   3.580   2.053   6.415 -0.4594  0.0074  0.0745
  341MOL0     C45931   3.486   1.955   6.404  0.4731 -0.1421 -0.2453
  341MOL0     C45932   3.499   1.827   6.447  0.8268  1.0665 -0.5943
  341MOL0     C45933   3.388   1.751   6.445  0.3935  1.5358  0.1048
  341MOL0     C45934   3.270   1.795   6.408  1.0840 -0.4673  0.2743
  341MOL0     O45935   3.161   1.716   6.431 -0.2279  0.3329 -0.9289
  341MOL0     C45936   3.088   1.749   6.552 -0.8881 -0.2983 -0.2286
  341MOL0     C45937   2.977   1.848   6.518 -0.4919 -0.1836 -0.6974
  341MOL0     C45938   2.896   1.810   6.398  0.0481 -0.1194  0.1404
  341MOL0     C45939   2.839   1.679   6.419  1.5399 -0.0017 -0.3356
  341MOL0     C45940   2.716   1.659   6.335  1.0752 -0.0826  1.0915
  341MOL0     C45941   2.735   1.716   6.184  1.3262  0.2358  0.6551
  341MOL0     C45942   2.619   1.691   6.081  0.5120  1.1669 -0.5266
  341MOL0     C45943   2.605   1.542   6.052  0.0164  0.0881  0.0267
  341MOL0    Cl45944   2.452   1.556   5.947  0.1518  0.1432  0.4423
  341MOL0     C45945   3.251   1.921   6.353  1.0244 -0.0540 -0.5182
  341MOL0     C45946   3.365   2.000   6.347 -0.0319  0.1596  0.5010
  341MOL0     O45947   3.636   2.027   6.640 -0.1607  1.2474  0.5497
  341MOL0     C45948   3.780   2.269   6.406  0.9783  0.1324  0.1255
  341MOL0     C45949   3.890   2.355   6.408  0.6192  0.4884  1.1282
  341MOL0     N45950   4.330   2.933   6.375 -1.0825  0.9637 -0.2278
  341MOL0     N45951   4.412   3.009   6.438 -0.5648 -0.1641 -0.0780
  341MOL0     C45952   4.398   2.223   7.358  0.4879  0.7300 -0.8783
  341MOL0     C45953   4.420   2.100   7.427 -0.8924 -0.4320 -0.0160
  341MOL0     C45954   4.480   1.676   7.573 -1.1566 -0.4824 -0.4176
  341MOL0     C45955   4.498   1.614   7.459  1.2374 -0.4271  0.3563
  341MOL0     C45956   4.538   1.477   7.459  0.2614  0.1269  0.6768
  341MOL0     C45957   4.571   1.409   7.575  0.9547  0.1473  0.6681
  341MOL0     O45958   4.586   1.276   7.570  0.1284 -0.2903 -0.8772
  341MOL0     C45959   4.617   1.180   7.685 -0.8046 -0.3834  0.1710
  341MOL0     C45960   4.771   1.154   7.710 -0.4667  0.2914  0.3276
  341MOL0     C45961   4.862   1.164   7.585 -0.1427  0.3010  0.0578
  341MOL0     C45962   5.010   1.159   7.629 -0.4022  0.2475  0.0721
  341MOL0     C45963   5.118   1.163   7.533 -0.0238  0.8237  0.4203
  341MOL0     C45964   5.196   1.165   7.438 -0.4209 -0.6162  0.0450
  341MOL0     C45965   4.554   1.481   7.694  0.6046  0.6460  0.0850
  341MOL0     C45966   4.505   1.613   7.698  1.3216 -0.4630  0.2076
  341MOL0     C45967   4.462   1.670   7.830  0.2130 -0.4454 -0.7013
  341MOL0     H45968   4.134   1.932   7.331  1.1612 -0.1413 -0.8318
  341MOL0     H45969   4.082   2.162   7.247 -2.6270 -1.3799  1.6852
  341MOL0     H45970   4.381   2.512   7.243  1.6369 -0.7979  1.1756
  341MOL0     H45971   4.417   2.369   7.134 -0.6465  1.8906 -3.2412
  341MOL0     H45972   4.177   2.531   7.081 -0.7090 -1.6419  1.0719
  341MOL0     H45973   4.238   2.415   6.973 -2.3042 -0.5355  0.9983
  341MOL0     H45974   4.427   2.543   6.925  0.1401 -1.7408  0.1575
  341MOL0     H45975   4.408   2.654   7.070 -0.8388  0.2794 -0.7632
  341MOL0     H45976   4.259   2.647   6.807  0.2324 -0.4574 -0.1191
  341MOL0     H45977   4.207   2.728   6.950 -1.8913  0.2135 -3.9821
  341MOL0     H45978   4.412   2.855   6.971 -0.2112 -1.1047 -0.3923
  341MOL0     H45979   4.484   2.773   6.823  1.3468  2.0386  0.0933
  341MOL0     H45980   4.274   2.878   6.695 -0.1782  1.0536 -1.2896
  341MOL0     H45981   4.253   2.969   6.850  0.2799 -1.8021  3.9257
  341MOL0     H45982   4.522   2.963   6.689  2.2711  2.6925 -1.3315
  341MOL0     H45983   4.489   3.063   6.834 -0.5369  0.6393 -1.1895
  341MOL0     H45984   4.306   3.175   6.717 -2.3679  0.1693 -2.4163
  341MOL0     H45985   4.461   3.196   6.626 -0.9353 -1.2640 -3.9222
  341MOL0     H45986   4.118   3.100   6.557 -2.6036 -1.7119  0.7427
  341MOL0     H45987   4.013   2.990   6.345 -0.6989 -0.4475 -0.0115
  341MOL0     H45988   4.104   2.896   6.232  0.1494 -0.3177  0.5127
  341MOL0     H45989   3.913   2.808   6.443 -0.0019 -0.2820  0.4439
  341MOL0     H45990   4.012   2.711   6.324 -0.7128 -2.3774  2.7554
  341MOL0     H45991   4.086   2.822   6.613  3.2725 -0.1791  1.5757
  341MOL0     H45992   4.194   2.739   6.506 -0.0665  1.7940  1.5277
  341MOL0     H45993   3.918   2.642   6.606 -1.4345 -3.1188  1.3431
  341MOL0     H45994   4.076   2.617   6.688  2.0572  5.6905 -0.8549
  341MOL0     H45995   3.955   2.382   6.732 -0.4422  3.7946 -1.5678
  341MOL0     H45996   3.792   2.193   6.740 -0.9470  0.2878  0.4503
  341MOL0     H45997   3.589   1.787   6.492  0.6547  0.7132 -0.5570
  341MOL0     H45998   3.414   1.650   6.473 -0.2477  0.2605 -3.4493
  341MOL0     H45999   3.040   1.655   6.583 -0.5956 -0.3950 -0.0683
  341MOL0     H46000   3.156   1.777   6.632 -2.6778  0.7630  1.0014
  341MOL0     H46001   2.899   1.857   6.595  0.3639 -1.3329  0.3571
  341MOL0     H46002   3.025   1.944   6.501 -2.2472  1.0118  0.7145
  341MOL0     H46003   2.815   1.882   6.383  0.7991  0.3639 -1.9566
  341MOL0     H46004   2.961   1.809   6.310 -3.8092  3.1741 -3.1742
  341MOL0     H46005   2.807   1.670   6.523  2.2673  2.9102  0.2239
  341MOL0     H46006   2.912   1.601   6.393  0.6417 -0.7383 -0.6947
  341MOL0     H46007   2.625   1.706   6.375  0.6793  0.3124 -0.2193
  341MOL0     H46008   2.695   1.552   6.327 -2.5800  0.6042 -1.2479
  341MOL0     H46009   2.760   1.823   6.187 -0.1931  0.6556  4.4935
  341MOL0     H46010   2.822   1.666   6.140  0.6091 -1.0350  0.6440
  341MOL0     H46011   2.638   1.753   5.993  1.7785  2.3927  0.5585
  341MOL0     H46012   2.522   1.718   6.124  1.3871  1.8422  1.0737
  341MOL0     H46013   2.688   1.501   5.993  1.7457  1.7127  1.2023
  341MOL0     H46014   2.585   1.476   6.137  0.9760  2.8262  2.5442
  341MOL0     H46015   3.159   1.966   6.318  0.5179 -0.6077  0.0953
  341MOL0     H46016   3.371   2.103   6.312  4.1127 -0.1441 -0.2126
  341MOL0     H46017   3.739   2.250   6.308 -0.5802  3.1151  0.0701
  341MOL0     H46018   3.911   2.397   6.310 -2.1993  4.1079  1.8774
  341MOL0     H46019   4.467   2.304   7.382  1.0043 -0.5288  2.5101
  341MOL0     H46020   4.514   2.093   7.480  1.4346  2.4350 -3.3190
  341MOL0     H46021   4.469   1.664   7.366  1.3503 -1.4262 -0.2249
  341MOL0     H46022   4.522   1.420   7.369 -2.5798  3.4101 -1.1538
  341MOL0     H46023   4.582   1.079   7.662  1.9181 -1.3727 -0.0101
  341MOL0     H46024   4.564   1.218   7.773 -1.7542  1.2977 -1.0826
  341MOL0     H46025   4.781   1.051   7.746  1.6650  0.7831  1.3163
  341MOL0     H46026   4.808   1.225   7.784  0.5384  1.3507 -1.1443
  341MOL0     H46027   4.852   1.248   7.516  1.2788 -1.0410 -1.8795
  341MOL0     H46028   4.842   1.076   7.524 -0.2151  2.7270 -3.7191
  341MOL0     H46029   5.033   1.252   7.683  1.0238 -0.6306  1.0423
  341MOL0     H46030   5.028   1.080   7.702 -0.7767  1.4119  1.4710
  341MOL0     H46031   5.277   1.176   7.367 -0.3563 -2.9685 -0.3351
  341MOL0     H46032   4.548   1.411   7.777 -1.3388 -0.8876 -1.2448
  341MOL0     H46033   4.540   1.744   7.853  0.0433  0.4128 -2.6845
  341MOL0     H46034   4.367   1.723   7.826  0.2418 -0.3623 -0.2797
  341MOL0     H46035   4.444   1.599   7.911 -2.5313  2.9940  2.0805
  342MOL0     O46036   7.486   3.443   5.373  0.0567  0.1383 -0.1552
  342MOL0     C46037   7.515   3.371   5.469 -0.6739 -0.1847  0.9093
  342MOL0     O46038   7.464   3.253   5.508 -0.4469 -0.6139  0.3235
  342MOL0     C46039   7.369   3.188   5.447  0.4450 -0.2015  0.0914
  342MOL0     C46040   7.327   3.069   5.519 -0.8288 -0.1492  0.1193
  342MOL0     C46041   7.221   2.985   5.485  0.2248  0.8246  1.3940
  342MOL0     C46042   7.153   3.019   5.363 -0.5744  0.4151  0.8281
  342MOL0     O46043   7.050   2.943   5.316  0.2646 -0.0170 -0.7471
  342MOL0     C46044   6.926   3.010   5.324 -1.0516 -1.2517  0.7524
  342MOL0     C46045   6.809   2.908   5.304  0.1877  0.1829  0.1267
  342MOL0     C46046   6.786   2.851   5.160  0.1598 -0.0133  0.8162
  342MOL0     C46047   6.909   2.784   5.093  0.3690 -0.2699  0.8012
  342MOL0     C46048   6.954   2.653   5.169  0.1254  0.6068 -0.3289
  342MOL0     C46049   6.876   2.538   5.126  0.3527  0.6172 -0.9357
  342MOL0     C46050   6.910   2.402   5.185 -0.4111  0.3294  0.6139
  342MOL0     C46051   7.034   2.338   5.118 -0.1415  0.2454 -0.2177
  342MOL0     N46052   7.083   2.210   5.174  0.1097 -0.1018  0.3062
  342MOL0     C46053   7.125   2.105   5.100 -0.1292 -1.1862  0.0780
  342MOL0     C46054   7.172   2.020   5.191 -0.4184 -0.3508  0.2437
  342MOL0     C46055   7.254   1.899   5.155 -0.0009  1.2654 -0.2391
  342MOL0     C46056   7.374   1.915   5.065  0.1040 -0.3217 -0.2010
  342MOL0     C46057   7.335   1.902   4.918 -0.0566  0.3320 -0.4070
  342MOL0     C46058   7.461   1.933   4.832 -0.3064  0.0924  0.3772
  342MOL0     O46059   7.473   2.079   4.840  0.1026  0.2931 -0.4368
  342MOL0     C46060   7.549   2.154   4.753 -0.4426  0.2050  0.0185
  342MOL0     C46061   7.632   2.100   4.653  0.1956 -0.1314  0.1192
  342MOL0     C46062   7.713   2.187   4.570 -0.0295 -0.0931 -0.0250
  342MOL0     C46063   7.708   2.326   4.584  0.6331  0.1418  1.0682
  342MOL0     C46064   7.792   2.418   4.518  0.6574  0.4862 -0.5410
  342MOL0     O46065   7.768   2.555   4.517 -0.1062 -0.7167  0.4241
  342MOL0     C46066   7.866   2.639   4.476 -0.2567 -0.4582  1.3222
  342MOL0     C46067   7.830   2.729   4.369 -0.0018  0.5146 -0.6783
  342MOL0     C46068   7.923   2.826   4.320  0.9004 -0.0622  0.4231
  342MOL0     C46069   8.048   2.834   4.379  0.0199 -0.5031  0.5056
  342MOL0     O46070   8.144   2.913   4.322 -0.8681  0.8294  0.3121
  342MOL0     C46071   8.126   3.053   4.326  0.0302 -0.3288  0.7782
  342MOL0     C46072   8.224   3.123   4.231  0.2981 -0.6797  0.8573
  342MOL0     C46073   8.366   3.114   4.291 -0.9396 -0.3621 -0.0888
  342MOL0     C46074   8.467   3.192   4.209 -0.4694 -0.6024 -0.0885
  342MOL0     C46075   8.584   3.238   4.298  0.8097  0.1585 -0.6204
  342MOL0     C46076   8.686   3.328   4.235 -0.9663  0.0341 -1.6749
  342MOL0     C46077   8.807   3.358   4.315  0.5629 -0.8854  0.6470
  342MOL0     C46078   8.881   3.224   4.345 -0.7783 -0.7064 -0.5754
  342MOL0    Cl46079   9.061   3.252   4.347 -0.1871  0.2248 -0.3392
  342MOL0     C46080   8.095   2.742   4.473  0.6519  0.2579  0.3926
  342MOL0     C46081   7.992   2.646   4.528 -1.1149 -0.3780  0.7057
  342MOL0     O46082   7.883   2.361   4.458 -0.4581 -0.3860  0.3524
  342MOL0     C46083   7.623   2.378   4.683 -0.0461 -0.5067 -0.3398
  342MOL0     C46084   7.550   2.290   4.764  0.0092  0.2574 -0.0663
  342MOL0     N46085   7.162   2.075   5.322 -0.1770 -0.0007  0.3468
  342MOL0     N46086   7.112   2.193   5.303  0.6125 -0.2765  0.0330
  342MOL0     C46087   7.198   3.132   5.287  0.1184  0.7780 -0.6212
  342MOL0     C46088   7.301   3.212   5.329 -0.0693  0.0555  0.0255
  342MOL0     C46089   7.631   3.417   5.559  0.8220  0.2029  0.0257
  342MOL0     C46090   7.723   3.321   5.604 -0.4953 -0.6038  0.5864
  342MOL0     C46091   7.809   3.351   5.700  0.4056 -0.2300 -0.4524
  342MOL0     C46092   7.811   3.477   5.758 -0.0267 -0.8874  0.2286
  342MOL0     O46093   7.887   3.509   5.862  0.3947 -0.3892  0.7915
  342MOL0     C46094   7.991   3.599   5.829  0.8066 -0.8910 -0.0211
  342MOL0     C46095   7.978   3.735   5.893  0.7092 -0.0152 -0.2825
  342MOL0     C46096   7.914   3.738   6.032 -0.2564  0.2070 -0.6631
  342MOL0     C46097   7.754   3.738   6.040  0.5853 -0.3281  0.0538
  342MOL0     C46098   7.715   3.800   6.174  0.0344 -0.2760  0.3812
  342MOL0     C46099   7.682   3.843   6.282  0.9721 -0.0230 -0.2563
  342MOL0     C46100   7.734   3.573   5.705  0.3651 -0.3508  0.1463
  342MOL0     C46101   7.639   3.554   5.603  0.4268 -0.1812 -0.1956
  342MOL0     C46102   7.562   3.669   5.546  0.2582  0.8327  0.6595
  342MOL0     H46103   7.391   3.054   5.605  2.4769  0.6568 -2.0143
  342MOL0     H46104   7.180   2.904   5.544 -0.9676  0.4652  0.1133
  342MOL0     H46105   6.939   3.052   5.424  2.1844  2.9314 -1.0833
  342MOL0     H46106   6.914   3.098   5.259  5.4447  0.7844  1.5578
  342MOL0     H46107   6.714   2.959   5.322 -2.1588 -3.5057 -0.6662
  342MOL0     H46108   6.828   2.832   5.380  3.8619 -0.7578 -1.4962
  342MOL0     H46109   6.749   2.938   5.105 -2.7184 -0.7812  1.3399
  342MOL0     H46110   6.703   2.780   5.158 -0.8831  1.1952 -1.3604
  342MOL0     H46111   6.886   2.760   4.989  2.0797 -0.7580  0.5186
  342MOL0     H46112   6.986   2.862   5.095  1.6540 -1.5155  1.4435
  342MOL0     H46113   7.059   2.636   5.146  0.2780  0.9336  0.1102
  342MOL0     H46114   6.946   2.662   5.278  3.7311  0.4677  0.0582
  342MOL0     H46115   6.767   2.549   5.135  0.4375 -0.1999  2.1128
  342MOL0     H46116   6.878   2.531   5.017 -2.7250  0.9532 -1.1014
  342MOL0     H46117   6.828   2.330   5.179 -2.7480  2.8602  0.0036
  342MOL0     H46118   6.938   2.422   5.289 -0.7539 -0.4398  0.8600
  342MOL0     H46119   7.032   2.336   5.009 -2.2401  1.2533 -0.2498
  342MOL0     H46120   7.113   2.408   5.147  2.1029 -1.9649 -0.6885
  342MOL0     H46121   7.142   2.099   4.993  1.5691 -0.3497  0.2670
  342MOL0     H46122   7.286   1.863   5.253  1.1582 -0.4156 -1.1719
  342MOL0     H46123   7.192   1.822   5.108 -0.9913  0.0196  2.8683
  342MOL0     H46124   7.414   2.014   5.087 -1.3695  0.0243  1.1791
  342MOL0     H46125   7.436   1.832   5.100 -2.9106 -1.0812  4.2114
  342MOL0     H46126   7.255   1.969   4.884 -1.5999 -1.3439 -0.1945
  342MOL0     H46127   7.303   1.798   4.906 -2.9364  1.0612  0.2398
  342MOL0     H46128   7.449   1.886   4.733 -4.4082  0.1078  0.6705
  342MOL0     H46129   7.552   1.894   4.878  0.5496 -0.8145 -1.9456
  342MOL0     H46130   7.633   1.992   4.640 -0.1110  0.0885 -2.2075
  342MOL0     H46131   7.771   2.126   4.501  0.2463 -1.9260  1.7266
  342MOL0     H46132   7.732   2.747   4.324 -0.8834  0.0012  0.9398
  342MOL0     H46133   7.901   2.887   4.233 -2.1342  0.4633  1.4301
  342MOL0     H46134   8.021   3.075   4.304  0.7275  2.4271 -0.2291
  342MOL0     H46135   8.138   3.093   4.428 -0.8802 -0.6413  1.0122
  342MOL0     H46136   8.222   3.071   4.135 -0.2737 -1.8374  1.4797
  342MOL0     H46137   8.207   3.230   4.215 -1.7235 -0.6021  3.0515
  342MOL0     H46138   8.379   3.161   4.389  0.2181  0.9347 -0.8211
  342MOL0     H46139   8.398   3.010   4.304 -5.8841 -1.8751  2.2828
  342MOL0     H46140   8.423   3.284   4.169  0.6026  0.4105  0.9668
  342MOL0     H46141   8.503   3.125   4.131  2.5060 -1.6291  1.9800
  342MOL0     H46142   8.631   3.146   4.333  0.5660 -0.2099 -1.2554
  342MOL0     H46143   8.543   3.292   4.384 -0.8177  0.3706 -1.4921
  342MOL0     H46144   8.724   3.291   4.140  1.6852 -0.6265 -0.4408
  342MOL0     H46145   8.639   3.421   4.203 -1.2368  1.2543  1.8224
  342MOL0     H46146   8.780   3.417   4.404 -0.3840 -1.0820  0.4999
  342MOL0     H46147   8.877   3.416   4.254 -0.1118  0.1347  0.8225
  342MOL0     H46148   8.835   3.187   4.437 -4.3223 -2.3601 -2.7694
  342MOL0     H46149   8.859   3.148   4.270  0.4171 -1.5595 -0.0931
  342MOL0     H46150   8.193   2.752   4.519  1.9571  1.3356 -2.3743
  342MOL0     H46151   8.024   2.565   4.593 -2.3737 -2.0015 -0.5999
  342MOL0     H46152   7.606   2.485   4.691  1.0592 -0.4175  1.8501
  342MOL0     H46153   7.474   2.337   4.826 -0.4138 -1.4815  0.8078
  342MOL0     H46154   7.146   3.148   5.193 -2.5830 -2.8992  0.0408
  342MOL0     H46155   7.324   3.294   5.261 -1.8640 -0.5431 -1.4126
  342MOL0     H46156   7.735   3.222   5.559  1.2804 -0.1279 -0.0753
  342MOL0     H46157   7.886   3.279   5.725  0.9309  0.9666  1.5921
  342MOL0     H46158   7.998   3.609   5.720 -0.5058  0.3721 -0.0212
  342MOL0     H46159   8.086   3.550   5.854  1.4515  0.4357  0.2272
  342MOL0     H46160   7.912   3.793   5.828  0.9001  2.7793  1.8387
  342MOL0     H46161   8.077   3.783   5.901  0.3964  1.0112 -2.0163
  342MOL0     H46162   7.957   3.824   6.086 -0.8261  0.5574 -0.7547
  342MOL0     H46163   7.951   3.651   6.087  1.7576  0.5064 -1.4459
  342MOL0     H46164   7.715   3.786   5.950  1.4613 -1.1516 -0.7983
  342MOL0     H46165   7.716   3.635   6.045  1.9997 -0.9962 -1.7538
  342MOL0     H46166   7.641   3.888   6.370 -1.7712 -2.0377 -0.3756
  342MOL0     H46167   7.741   3.675   5.743  0.7714 -0.4175  0.2543
  342MOL0     H46168   7.459   3.636   5.536  1.0348 -1.1608 -2.2387
  342MOL0     H46169   7.562   3.762   5.603  0.6475  0.8828  0.5824
  342MOL0     H46170   7.617   3.690   5.453  0.7801  0.8478  0.9683
  343MOL0     O46171   3.023   0.210   0.977 -0.6759  0.2479  0.8699
  343MOL0     C46172   2.975   0.148   0.878  0.1838 -0.2548  0.8560
  343MOL0     O46173   2.921   0.025   0.873  0.7642 -0.8935 -0.3870
  343MOL0     C46174   2.926  -0.078   0.969 -0.9757  0.6863 -0.2597
  343MOL0     C46175   3.023  -0.074   1.070 -0.6483  0.4745  0.9219
  343MOL0     C46176   3.021  -0.174   1.158 -0.6129 -0.6249  0.0043
  343MOL0     C46177   2.923  -0.272   1.153  0.7156 -0.7796  0.3522
  343MOL0     O46178   2.925  -0.352   1.266  0.0429 -0.3227  0.2317
  343MOL0     C46179   2.816  -0.439   1.289 -0.0634 -0.6423 -0.3817
  343MOL0     C46180   2.847  -0.516   1.420 -0.0006 -0.4514  0.6362
  343MOL0     C46181   2.720  -0.609   1.444 -0.5609  0.5465  0.7654
  343MOL0     C46182   2.602  -0.553   1.523  0.0164 -0.4461  0.1892
  343MOL0     C46183   2.473  -0.634   1.521  0.1841  0.6459  0.1704
  343MOL0     C46184   2.382  -0.624   1.392 -0.5871  1.0164 -0.6291
  343MOL0     C46185   2.249  -0.672   1.444  0.0238 -1.0930 -0.4331
  343MOL0     C46186   2.156  -0.676   1.326  0.8417  0.0602 -0.5546
  343MOL0     N46187   2.007  -0.699   1.363 -0.2818  0.2821 -0.0134
  343MOL0     C46188   1.907  -0.605   1.406  0.4246 -0.0682 -0.3051
  343MOL0     C46189   1.793  -0.679   1.406 -0.1137  0.0038 -0.0700
  343MOL0     C46190   1.660  -0.633   1.446 -0.9786  0.2693 -0.6551
  343MOL0     C46191   1.646  -0.633   1.598  0.3593 -1.3217  0.1040
  343MOL0     C46192   1.569  -0.507   1.651  0.1308  0.2625  0.5456
  343MOL0     C46193   1.648  -0.376   1.650  0.1401 -0.1592 -0.3114
  343MOL0     O46194   1.757  -0.387   1.748  0.4615 -0.5368  0.3442
  343MOL0     C46195   1.847  -0.285   1.766  0.2510  0.6297 -0.0716
  343MOL0     C46196   1.838  -0.156   1.701 -0.1952 -0.0780 -0.1056
  343MOL0     C46197   1.932  -0.047   1.735  0.5340  0.6696 -0.0831
  343MOL0     C46198   2.040  -0.077   1.822 -0.1017  0.1952 -0.1573
  343MOL0     C46199   2.152   0.016   1.843  0.2431  0.0180 -0.5477
  343MOL0     O46200   2.135   0.142   1.803 -0.2534 -0.6368  0.3766
  343MOL0     C46201   2.241   0.227   1.826  0.6617  0.7716  0.2668
  343MOL0     C46202   2.364   0.216   1.755 -0.2975 -1.1509 -0.5542
  343MOL0     C46203   2.469   0.298   1.792 -0.2981 -0.4780  0.3225
  343MOL0     C46204   2.467   0.372   1.909  0.1803 -0.3284  0.9098
  343MOL0     O46205   2.569   0.469   1.931  0.4466 -0.8971 -0.1347
  343MOL0     C46206   2.666   0.425   2.026  0.5415  0.4670 -0.2987
  343MOL0     C46207   2.768   0.519   2.070  0.2642  0.0176  0.0782
  343MOL0     C46208   2.850   0.482   2.200 -1.3667  0.8527  0.7652
  343MOL0     C46209   2.985   0.548   2.221 -0.0674  0.0041 -0.0323
  343MOL0     C46210   2.989   0.691   2.275  0.5980 -1.2130  0.9552
  343MOL0     C46211   2.996   0.688   2.434 -0.4723  0.0859 -0.2041
  343MOL0     C46212   3.059   0.816   2.502 -0.3188  0.5854  1.0201
  343MOL0     C46213   2.978   0.852   2.621 -1.6245  0.3438 -0.4038
  343MOL0    Cl46214   3.009   0.726   2.737  0.1218  0.1544  0.2387
  343MOL0     C46215   2.345   0.377   1.989 -0.2504  0.5404 -0.1555
  343MOL0     C46216   2.228   0.302   1.941 -0.9560  0.7328 -0.1820
  343MOL0     O46217   2.245  -0.020   1.905  1.1389  1.1303  0.2886
  343MOL0     C46218   2.052  -0.215   1.881 -0.2526 -0.1676 -0.3773
  343MOL0     C46219   1.951  -0.308   1.858  0.6133  0.2970  0.6788
  343MOL0     N46220   1.820  -0.806   1.361 -0.6611 -0.7878  0.6795
  343MOL0     N46221   1.950  -0.813   1.336  0.9305 -0.1235 -0.1611
  343MOL0     C46222   2.817  -0.272   1.061 -0.3579  0.1915  0.0961
  343MOL0     C46223   2.825  -0.171   0.963 -1.2320  0.2634  0.0344
  343MOL0     C46224   2.985   0.209   0.747 -1.1748  0.2442  0.1157
  343MOL0     C46225   3.049   0.138   0.640  0.4281  0.3131 -0.6349
  343MOL0     C46226   3.052   0.198   0.511  0.5307 -0.2050  0.6115
  343MOL0     C46227   2.999   0.319   0.486 -0.6288  0.0280  0.9079
  343MOL0     O46228   2.994   0.381   0.359  0.2030  0.4482  0.2674
  343MOL0     C46229   3.086   0.335   0.249  0.0025  0.0834 -0.6739
  343MOL0     C46230   3.051   0.442   0.144 -0.5289  0.5156 -0.1243
  343MOL0     C46231   3.159   0.446   0.032 -0.5206 -0.9844  0.3321
  343MOL0     C46232   3.123   0.512  -0.097  0.3197  0.2845  0.5819
  343MOL0     C46233   3.248   0.565  -0.164  0.2070  0.5452 -0.6254
  343MOL0     C46234   3.347   0.631  -0.203 -0.5059  0.2750 -0.4992
  343MOL0     C46235   2.934   0.381   0.586  0.4862 -0.7828 -1.0978
  343MOL0     C46236   2.925   0.337   0.719  0.2472  1.0732  0.0344
  343MOL0     C46237   2.833   0.396   0.814  0.4271 -0.1653 -0.5679
  343MOL0     H46238   3.094   0.006   1.090  0.5859 -0.3787  0.0227
  343MOL0     H46239   3.091  -0.161   1.240 -2.5669  0.7619  1.5571
  343MOL0     H46240   2.728  -0.376   1.306  0.3233 -0.8769  3.1930
  343MOL0     H46241   2.802  -0.511   1.207 -1.6642 -1.9666  0.9653
  343MOL0     H46242   2.859  -0.454   1.509  1.5313  0.9086 -0.4434
  343MOL0     H46243   2.936  -0.579   1.409 -0.3932 -0.8707 -0.2345
  343MOL0     H46244   2.754  -0.701   1.494  2.2583 -0.6399 -2.8739
  343MOL0     H46245   2.685  -0.641   1.345  1.8372 -1.0434  0.3368
  343MOL0     H46246   2.642  -0.521   1.620  0.3169  0.2714 -0.1645
  343MOL0     H46247   2.570  -0.462   1.471 -2.2663 -1.4581 -0.2848
  343MOL0     H46248   2.489  -0.739   1.549 -2.0585 -0.3897 -2.0856
  343MOL0     H46249   2.408  -0.593   1.599 -0.8444  1.8675 -1.2524
  343MOL0     H46250   2.370  -0.524   1.349 -1.1550  0.7446 -1.1128
  343MOL0     H46251   2.434  -0.682   1.316  1.1691  2.6529 -0.7656
  343MOL0     H46252   2.208  -0.604   1.520 -0.9441  0.1366 -1.9982
  343MOL0     H46253   2.252  -0.778   1.470  0.9775 -0.8400  0.5730
  343MOL0     H46254   2.168  -0.581   1.272 -1.1554 -1.2963 -3.6926
  343MOL0     H46255   2.188  -0.744   1.247 -1.0004 -0.2025 -1.1176
  343MOL0     H46256   1.918  -0.504   1.445  0.1082 -1.1205  2.6959
  343MOL0     H46257   1.637  -0.532   1.409  1.3303  0.9350 -0.4131
  343MOL0     H46258   1.581  -0.694   1.401 -1.6899  0.7366 -0.0711
  343MOL0     H46259   1.615  -0.731   1.636 -1.2742 -2.1576 -3.0503
  343MOL0     H46260   1.751  -0.609   1.619  0.2712 -0.5858 -0.2658
  343MOL0     H46261   1.556  -0.526   1.758  0.4281  0.5764  0.6418
  343MOL0     H46262   1.471  -0.492   1.606  0.3638  1.3371  0.3684
  343MOL0     H46263   1.582  -0.291   1.673 -1.4998 -1.3814 -0.3133
  343MOL0     H46264   1.691  -0.358   1.551  1.0294  3.9969  0.6231
  343MOL0     H46265   1.766  -0.140   1.621 -0.1520 -1.7476 -0.5064
  343MOL0     H46266   1.927   0.048   1.683  3.3412  0.3788 -1.0715
  343MOL0     H46267   2.379   0.139   1.680  1.0203 -1.0321 -0.4388
  343MOL0     H46268   2.562   0.291   1.737 -1.1093 -3.1370 -0.9370
  343MOL0     H46269   2.619   0.396   2.120 -2.9610  0.9788 -1.7253
  343MOL0     H46270   2.722   0.343   1.980 -0.0375  1.5396 -3.1700
  343MOL0     H46271   2.828   0.555   1.986 -0.0767  1.5888  0.4769
  343MOL0     H46272   2.702   0.603   2.094 -0.7965 -0.2382 -1.7291
  343MOL0     H46273   2.790   0.497   2.290 -1.7204 -0.6645  0.8059
  343MOL0     H46274   2.864   0.376   2.180  1.3232  1.2294  0.3143
  343MOL0     H46275   3.047   0.531   2.132  0.9514 -0.6478  0.7799
  343MOL0     H46276   3.041   0.483   2.288 -0.6571  0.7088  1.1781
  343MOL0     H46277   2.916   0.757   2.226  3.0839  1.2907  0.3491
  343MOL0     H46278   3.085   0.733   2.243 -0.6305  1.6238  0.6400
  343MOL0     H46279   2.898   0.657   2.470  0.0536 -2.3599 -0.7150
  343MOL0     H46280   3.078   0.621   2.462 -1.4747 -1.1407 -0.1088
  343MOL0     H46281   3.048   0.896   2.428 -0.3689 -0.7241 -0.4299
  343MOL0     H46282   3.166   0.797   2.517 -0.4041 -1.2014 -0.3234
  343MOL0     H46283   3.008   0.946   2.667  1.9841 -1.7199  1.9859
  343MOL0     H46284   2.878   0.845   2.579 -1.6894  0.6186 -0.2954
  343MOL0     H46285   2.342   0.438   2.079  2.0295 -1.2788  1.2584
  343MOL0     H46286   2.131   0.301   1.989 -0.1395  0.6286  1.5202
  343MOL0     H46287   2.144  -0.250   1.925  1.0324  1.1475 -1.8967
  343MOL0     H46288   1.955  -0.403   1.910 -0.3793  0.5784  1.3205
  343MOL0     H46289   2.737  -0.342   1.080 -1.5343  0.7605 -2.3841
  343MOL0     H46290   2.767  -0.162   0.872  0.7349  2.2984 -1.0989
  343MOL0     H46291   3.100   0.045   0.661 -2.9632 -1.3993  0.7865
  343MOL0     H46292   3.092   0.138   0.430 -2.1958  1.3926 -2.1542
  343MOL0     H46293   3.064   0.237   0.206 -4.4277  1.6773 -2.5389
  343MOL0     H46294   3.193   0.334   0.272 -0.3708 -0.2791  1.2284
  343MOL0     H46295   3.045   0.538   0.195 -2.0033 -1.6328  4.2679
  343MOL0     H46296   2.957   0.420   0.093  1.0429  0.2547 -3.1437
  343MOL0     H46297   3.186   0.341   0.014  0.7259 -0.5973 -0.1793
  343MOL0     H46298   3.250   0.500   0.061 -1.6563  1.3125 -0.1713
  343MOL0     H46299   3.067   0.445  -0.163 -0.9866  2.6006 -0.7968
  343MOL0     H46300   3.051   0.594  -0.082 -0.0454 -0.4462  3.5366
  343MOL0     H46301   3.418   0.688  -0.259 -1.1874 -0.8850 -2.6660
  343MOL0     H46302   2.873   0.467   0.561  1.6454 -0.1294 -1.7639
  343MOL0     H46303   2.780   0.480   0.768 -0.2339 -0.1466  0.2135
  343MOL0     H46304   2.757   0.333   0.860  2.2549 -0.8231  1.7831
  343MOL0     H46305   2.894   0.426   0.899  2.8086 -0.1476 -2.1695
  344MOL0     O46306   8.584   6.289   8.350  0.3168 -0.3691 -0.3836
  344MOL0     C46307   8.574   6.380   8.429  0.4391 -0.7231 -0.4567
  344MOL0     O46308   8.646   6.496   8.431  0.0890  0.5021  0.0784
  344MOL0     C46309   8.749   6.522   8.346 -0.9165 -0.3098  0.7729
  344MOL0     C46310   8.886   6.528   8.382  0.3969 -0.9408 -0.0619
  344MOL0     C46311   8.987   6.581   8.298 -0.7208  0.9797 -0.8341
  344MOL0     C46312   8.951   6.611   8.163 -1.9802 -0.0187 -0.7751
  344MOL0     O46313   9.042   6.680   8.084  0.1827 -0.6744  0.0068
  344MOL0     C46314   9.044   6.641   7.946 -0.3324 -0.0687 -0.0530
  344MOL0     C46315   9.177   6.665   7.890 -0.0336  0.0778  0.3053
  344MOL0     C46316   9.211   6.812   7.892  0.0801 -0.5430 -0.1829
  344MOL0     C46317   9.273   6.861   8.026  0.6675 -0.7843  0.7692
  344MOL0     C46318   9.341   7.000   8.026  0.4855 -0.2229 -0.5842
  344MOL0     C46319   9.485   7.011   7.973  0.0028  0.1202  0.3291
  344MOL0     C46320   9.543   7.150   7.964  0.3746  0.4574 -0.6509
  344MOL0     C46321   9.545   7.234   8.095  0.2228 -0.7877 -0.1332
  344MOL0     N46322   9.681   7.234   8.162 -1.0116 -0.3185 -0.7565
  344MOL0     C46323   9.725   7.150   8.266  0.2217  0.4708 -1.0720
  344MOL0     C46324   9.848   7.201   8.298 -0.4137  0.0349 -0.3755
  344MOL0     C46325   9.923   7.139   8.413  0.1382  0.3811 -0.0242
  344MOL0     C46326  10.069   7.192   8.413 -0.1308  0.0419  0.0848
  344MOL0     C46327  10.137   7.128   8.526 -0.1405  0.5596 -0.2820
  344MOL0     C46328  10.284   7.158   8.524  0.1359 -0.2335 -0.2663
  344MOL0     O46329  10.324   7.220   8.651 -0.3456  0.2502  0.7859
  344MOL0     C46330  10.408   7.132   8.715 -0.5775 -0.4635 -0.0256
  344MOL0     C46331  10.368   7.010   8.775  0.5233 -0.2329  0.3775
  344MOL0     C46332  10.444   6.945   8.870 -0.0008 -0.8959 -0.1018
  344MOL0     C46333  10.554   7.015   8.933  0.1202  0.0436 -0.3277
  344MOL0     C46334  10.619   6.960   9.058 -0.5255  0.0891 -0.8759
  344MOL0     O46335  10.564   6.849   9.110  0.5695  0.3216 -0.0241
  344MOL0     C46336  10.605   6.785   9.230  0.0415  0.5671 -0.2702
  344MOL0     C46337  10.737   6.761   9.265  0.2237 -0.4646 -0.6281
  344MOL0     C46338  10.770   6.708   9.385 -0.6318  1.1961  0.1569
  344MOL0     C46339  10.682   6.674   9.476  0.4440 -0.3321 -0.7897
  344MOL0     O46340  10.719   6.618   9.585 -0.5162  0.0282  0.6926
  344MOL0     C46341  10.683   6.479   9.605  0.8533 -0.4849 -0.1509
  344MOL0     C46342  10.636   6.452   9.749 -0.5503 -0.3589 -1.0588
  344MOL0     C46343  10.518   6.559   9.792 -0.1574  0.8609 -0.0797
  344MOL0     C46344  10.557   6.706   9.810 -0.3193  0.2894  0.4757
  344MOL0     C46345  10.459   6.786   9.888  0.8256 -0.5147 -0.0824
  344MOL0     C46346  10.509   6.934   9.908 -0.4684 -0.5903 -0.8154
  344MOL0     C46347  10.413   7.025   9.978  0.4201  0.4017  0.3046
  344MOL0     C46348  10.409   7.013  10.127 -0.3428 -1.0733  0.3984
  344MOL0    Cl46349  10.276   7.126  10.189  0.1405  0.0339 -0.3043
  344MOL0     C46350  10.545   6.696   9.446 -0.2926  0.6899 -0.2608
  344MOL0     C46351  10.504   6.747   9.324  0.7099  0.7489 -0.1847
  344MOL0     O46352  10.717   7.023   9.104  0.0350  0.7686 -0.3113
  344MOL0     C46353  10.600   7.134   8.870  0.0470 -0.4235 -0.2829
  344MOL0     C46354  10.530   7.184   8.761 -0.4765  0.6420  0.0048
  344MOL0     N46355   9.879   7.303   8.211 -0.8616 -1.0584 -0.4378
  344MOL0     N46356   9.779   7.333   8.135  0.3031  0.1692  0.1349
  344MOL0     C46357   8.817   6.580   8.118 -1.7959  0.3643 -0.2101
  344MOL0     C46358   8.717   6.535   8.206  0.6166  0.1766 -0.6194
  344MOL0     C46359   8.469   6.362   8.540 -0.4652  0.4437  1.2001
  344MOL0     C46360   8.504   6.416   8.670  0.2672  0.0881 -0.3530
  344MOL0     C46361   8.427   6.388   8.789 -0.4824  0.2256 -0.0123
  344MOL0     C46362   8.308   6.310   8.772 -0.1869 -0.0747  0.2710
  344MOL0     O46363   8.220   6.275   8.881 -0.6035  0.9417  0.9700
  344MOL0     C46364   8.191   6.380   8.972 -0.5996  0.6458 -0.3325
  344MOL0     C46365   8.080   6.311   9.064 -0.1984 -0.7052  1.2165
  344MOL0     C46366   7.968   6.238   8.977 -0.4285 -0.2201 -0.4057
  344MOL0     C46367   7.841   6.189   9.053  1.0015  0.5418 -0.2804
  344MOL0     C46368   7.836   6.086   9.154 -0.5652  0.4073  0.0537
  344MOL0     C46369   7.839   6.003   9.246 -0.2286  0.1561  0.1202
  344MOL0     C46370   8.282   6.254   8.645  0.0328  0.8081  0.6582
  344MOL0     C46371   8.356   6.275   8.529 -0.8228 -0.3517 -0.1257
  344MOL0     C46372   8.331   6.185   8.407 -0.4332  0.1043  0.3439
  344MOL0     H46373   8.922   6.513   8.483  1.1102  1.4850  0.1205
  344MOL0     H46374   9.084   6.598   8.342 -0.2006  2.5654 -2.4786
  344MOL0     H46375   9.027   6.535   7.926 -1.3666  0.0294  0.2469
  344MOL0     H46376   8.968   6.696   7.889  2.5232  0.5642 -3.6116
  344MOL0     H46377   9.183   6.619   7.791 -2.0833  0.0656  0.1346
  344MOL0     H46378   9.253   6.613   7.950  0.7436 -0.7280 -1.3264
  344MOL0     H46379   9.124   6.874   7.868  0.8207  0.2536 -0.8599
  344MOL0     H46380   9.283   6.845   7.817 -1.6913  1.3028 -1.1889
  344MOL0     H46381   9.202   6.854   8.109 -2.6702  3.0247 -1.4191
  344MOL0     H46382   9.353   6.789   8.047  1.7702  0.5171  1.1059
  344MOL0     H46383   9.282   7.084   7.986 -0.2282 -0.2210  0.4498
  344MOL0     H46384   9.352   7.027   8.131 -2.4294  1.1002 -0.5049
  344MOL0     H46385   9.545   6.952   8.043  2.1881 -1.8678 -2.8954
  344MOL0     H46386   9.504   6.965   7.876 -1.1109 -0.9068  0.5702
  344MOL0     H46387   9.478   7.197   7.890  0.2172  1.7580  0.2563
  344MOL0     H46388   9.647   7.153   7.931  1.0025 -0.0976  1.1865
  344MOL0     H46389   9.515   7.337   8.073 -3.2650 -1.8450 -0.9263
  344MOL0     H46390   9.472   7.206   8.171  3.5062 -0.7989  3.3160
  344MOL0     H46391   9.671   7.068   8.311 -1.8018  2.0442 -0.5187
  344MOL0     H46392   9.873   7.158   8.508  0.9380 -2.7669  1.1315
  344MOL0     H46393   9.924   7.032   8.390  0.5022  0.7198 -1.7741
  344MOL0     H46394  10.111   7.173   8.314  1.6047  1.4141  0.5134
  344MOL0     H46395  10.074   7.300   8.423 -4.2223  0.6710 -2.1389
  344MOL0     H46396  10.128   7.021   8.545  1.0656  0.3002 -1.0595
  344MOL0     H46397  10.092   7.156   8.622 -1.2749 -0.8646 -0.3607
  344MOL0     H46398  10.312   7.226   8.443  1.1860  4.4278  3.5676
  344MOL0     H46399  10.339   7.065   8.508 -0.0685 -0.2257 -1.0671
  344MOL0     H46400  10.268   6.970   8.761 -0.5689  2.0283  1.2727
  344MOL0     H46401  10.415   6.854   8.921 -1.4042 -0.1293  0.5222
  344MOL0     H46402  10.820   6.773   9.196  1.4678 -3.0576  0.2875
  344MOL0     H46403  10.877   6.710   9.398 -0.4189  0.8225 -1.2975
  344MOL0     H46404  10.603   6.444   9.539 -0.4394  0.2756  0.9522
  344MOL0     H46405  10.762   6.411   9.573 -0.7669 -3.1120  1.0727
  344MOL0     H46406  10.594   6.353   9.767  2.2763 -1.1428  2.1132
  344MOL0     H46407  10.725   6.470   9.810 -1.9696 -1.2678  1.4026
  344MOL0     H46408  10.433   6.542   9.726 -1.1257 -1.6056  1.6377
  344MOL0     H46409  10.492   6.522   9.892 -1.0732 -2.5142 -1.4336
  344MOL0     H46410  10.578   6.750   9.712  1.7157 -2.3444 -0.4099
  344MOL0     H46411  10.651   6.713   9.865 -0.9283  2.7971  1.3246
  344MOL0     H46412  10.434   6.730   9.979  2.4935 -2.5398 -0.7780
  344MOL0     H46413  10.371   6.790   9.824  2.2563 -1.0983 -2.1774
  344MOL0     H46414  10.599   6.934   9.970 -0.2192  4.6205 -0.6998
  344MOL0     H46415  10.521   6.976   9.808  1.3161 -1.0578 -0.8358
  344MOL0     H46416  10.314   7.021   9.933  0.2901  0.1574  0.6098
  344MOL0     H46417  10.452   7.126   9.960  0.9897  0.4277  1.5679
  344MOL0     H46418  10.388   6.906  10.138 -0.8667 -1.4071 -2.9288
  344MOL0     H46419  10.503   7.047  10.172  0.5387 -1.8777 -0.7666
  344MOL0     H46420  10.474   6.670   9.524  2.3337 -0.3347  1.9468
  344MOL0     H46421  10.397   6.764   9.317  0.8472  2.6120  1.2913
  344MOL0     H46422  10.678   7.197   8.911  2.2316 -1.1957 -3.0007
  344MOL0     H46423  10.571   7.279   8.729  1.6790 -0.0011  0.6568
  344MOL0     H46424   8.785   6.615   8.021  0.2703 -1.6890 -1.7231
  344MOL0     H46425   8.610   6.529   8.188 -0.0975 -1.2904  3.2141
  344MOL0     H46426   8.589   6.482   8.684 -0.3432  1.5171 -2.7098
  344MOL0     H46427   8.459   6.435   8.881 -1.7671  1.3618 -0.1110
  344MOL0     H46428   8.137   6.461   8.921 -0.6057 -1.0097 -3.1829
  344MOL0     H46429   8.275   6.432   9.018 -2.2675  3.1577  0.0570
  344MOL0     H46430   8.046   6.383   9.140  1.9306  0.6532  0.9905
  344MOL0     H46431   8.134   6.235   9.121  3.0429 -0.5651 -1.3351
  344MOL0     H46432   8.008   6.146   8.934 -1.8142 -0.0167 -2.2306
  344MOL0     H46433   7.947   6.290   8.884  4.0043  0.2532 -1.3472
  344MOL0     H46434   7.800   6.281   9.094 -2.0454 -1.2842  1.1218
  344MOL0     H46435   7.767   6.160   8.978  2.3196 -1.3768 -0.9263
  344MOL0     H46436   7.858   5.934   9.325 -0.9991 -1.9906 -1.4666
  344MOL0     H46437   8.193   6.193   8.652 -1.2718  2.5230 -0.3343
  344MOL0     H46438   8.344   6.245   8.317 -3.2309 -0.6530 -0.6651
  344MOL0     H46439   8.402   6.102   8.409  0.9857  1.2132 -1.5475
  344MOL0     H46440   8.235   6.132   8.415 -0.6190  0.0662 -1.6931
  345MOL0     O46441  10.728   3.812   9.221  0.2482 -0.3756 -0.2872
  345MOL0     C46442  10.784   3.884   9.305 -0.7946 -0.9452  0.0195
  345MOL0     O46443  10.898   3.961   9.277  0.5661 -0.3505 -0.0276
  345MOL0     C46444  10.973   3.933   9.158  0.4116 -0.1551  0.0243
  345MOL0     C46445  11.046   4.041   9.096 -0.3749  0.1652 -0.6400
  345MOL0     C46446  11.106   4.028   8.967  0.5717 -0.3599 -0.1836
  345MOL0     C46447  11.096   3.914   8.892  0.2933 -0.3262 -0.0476
  345MOL0     O46448  11.165   3.913   8.775  0.5209 -0.0041  0.1042
  345MOL0     C46449  11.231   3.788   8.751  0.4955 -0.2465  0.0273
  345MOL0     C46450  11.269   3.776   8.608 -0.2304  0.6139 -0.1425
  345MOL0     C46451  11.343   3.652   8.581 -0.0512 -0.0988 -0.7499
  345MOL0     C46452  11.359   3.632   8.430  0.4026 -0.1149 -0.9190
  345MOL0     C46453  11.449   3.507   8.395 -0.9421 -1.5673 -0.1576
  345MOL0     C46454  11.603   3.519   8.413 -0.5681 -0.5483 -0.6093
  345MOL0     C46455  11.666   3.402   8.334 -0.3020 -0.2607 -0.6177
  345MOL0     C46456  11.821   3.405   8.332  0.2706  0.3409 -0.0931
  345MOL0     N46457  11.889   3.281   8.378 -0.1134 -0.8358  0.1257
  345MOL0     C46458  11.858   3.219   8.501 -0.4782 -0.4550  0.8006
  345MOL0     C46459  11.921   3.105   8.501  0.1279 -0.2369  0.8788
  345MOL0     C46460  11.904   2.996   8.596  0.8076  0.1327  0.2513
  345MOL0     C46461  11.928   3.027   8.741  0.9315 -0.4278  0.2282
  345MOL0     C46462  12.077   3.054   8.762  0.3427  0.3096 -1.0210
  345MOL0     C46463  12.105   3.082   8.911  1.1634  0.4614  0.2121
  345MOL0     O46464  12.057   3.212   8.951 -0.8778  0.1403 -0.5154
  345MOL0     C46465  12.090   3.250   9.075  0.6289 -0.0477  0.4486
  345MOL0     C46466  12.219   3.296   9.100  0.0160  0.0561 -0.2570
  345MOL0     C46467  12.252   3.319   9.236 -0.4970  0.2592 -0.5812
  345MOL0     C46468  12.159   3.306   9.344  1.5537 -0.0891 -0.3307
  345MOL0     C46469  12.200   3.343   9.479  0.4726  0.2127 -0.7961
  345MOL0     O46470  12.113   3.340   9.580  0.4775  0.4197  0.5008
  345MOL0     C46471  12.121   3.380   9.715 -0.0018  0.2177 -0.0097
  345MOL0     C46472  12.127   3.518   9.748  0.3717 -0.1218  0.5364
  345MOL0     C46473  12.132   3.562   9.879 -0.6453 -0.0700 -0.0059
  345MOL0     C46474  12.138   3.470   9.980  0.3384  0.7411  0.3000
  345MOL0     O46475  12.133   3.518  10.108  0.5749 -0.3836 -0.1957
  345MOL0     C46476  12.238   3.600  10.150  1.0825  0.5655 -0.5005
  345MOL0     C46477  12.165   3.708  10.242  1.0970  0.3273  0.8249
  345MOL0     C46478  12.261   3.794  10.331 -0.5742 -0.1464 -0.2225
  345MOL0     C46479  12.369   3.868  10.251  0.3714  0.1994  0.0564
  345MOL0     C46480  12.450   3.952  10.344 -0.5969  0.4961  1.1723
  345MOL0     C46481  12.539   3.861  10.440 -0.2911  1.2556 -0.1183
  345MOL0     C46482  12.636   3.954  10.517 -0.7778 -0.4980 -0.8109
  345MOL0     C46483  12.759   3.869  10.554 -0.4150  0.6471 -0.9792
  345MOL0    Cl46484  12.700   3.734  10.660 -0.3637  0.4843 -0.2235
  345MOL0     C46485  12.137   3.329   9.952  0.5080  0.2230  0.1289
  345MOL0     C46486  12.137   3.293   9.820 -0.3060 -0.6693  0.4504
  345MOL0     O46487  12.319   3.378   9.494  0.1285 -0.5005 -0.1410
  345MOL0     C46488  12.034   3.261   9.315 -0.7137 -0.2983 -0.5551
  345MOL0     C46489  12.019   3.214   9.183  0.2525 -0.1432  0.0351
  345MOL0     N46490  12.001   3.100   8.383 -0.0309 -0.8822 -0.7423
  345MOL0     N46491  11.985   3.211   8.318 -0.0116  0.4552 -0.0982
  345MOL0     C46492  11.033   3.802   8.958 -0.7461 -0.8103 -0.3271
  345MOL0     C46493  10.985   3.809   9.091  0.5795 -0.2480  0.2924
  345MOL0     C46494  10.727   3.912   9.439 -0.3401  0.9985 -0.0055
  345MOL0     C46495  10.605   3.857   9.458  0.6665  1.7804 -0.5740
  345MOL0     C46496  10.538   3.853   9.582  0.5284 -0.4632 -0.8637
  345MOL0     C46497  10.607   3.910   9.691 -0.3016 -0.0947 -0.1731
  345MOL0     O46498  10.557   3.897   9.816  0.3093 -0.3551 -0.7692
  345MOL0     C46499  10.425   3.957   9.838 -0.1320 -0.4753  0.8092
  345MOL0     C46500  10.414   4.112   9.814  0.3213  0.8630 -0.0901
  345MOL0     C46501  10.392   4.150   9.673  0.5376  0.7992  0.3735
  345MOL0     C46502  10.239   4.111   9.646 -0.1737 -0.9548  0.1280
  345MOL0     C46503  10.212   4.174   9.521 -0.0627 -0.3989  0.2899
  345MOL0     C46504  10.189   4.241   9.419 -0.5526  0.3902 -0.0782
  345MOL0     C46505  10.724   3.981   9.669  1.2841 -0.4368 -0.1322
  345MOL0     C46506  10.784   3.986   9.541  1.5849  0.2235 -0.7568
  345MOL0     C46507  10.911   4.061   9.525 -0.3326 -1.3422 -0.9012
  345MOL0     H46508  11.055   4.125   9.163 -1.5366  2.2924 -2.9968
  345MOL0     H46509  11.169   4.112   8.939 -2.5534  3.9300  4.0204
  345MOL0     H46510  11.322   3.780   8.811  0.5063 -0.8000 -0.0573
  345MOL0     H46511  11.168   3.701   8.773 -2.1995  1.2389 -1.3324
  345MOL0     H46512  11.323   3.868   8.583  0.4983  0.4075  0.6428
  345MOL0     H46513  11.173   3.764   8.555 -0.9131 -1.5026  1.4313
  345MOL0     H46514  11.292   3.562   8.614  2.2085 -0.9094  0.7449
  345MOL0     H46515  11.444   3.664   8.622 -0.2957  1.6677 -0.5968
  345MOL0     H46516  11.260   3.615   8.388 -0.1085 -0.9847  0.5653
  345MOL0     H46517  11.393   3.722   8.378 -1.6216 -0.5620 -3.1933
  345MOL0     H46518  11.420   3.425   8.460 -0.6311 -1.9284 -0.4683
  345MOL0     H46519  11.428   3.475   8.292  1.2321 -0.0457 -1.1625
  345MOL0     H46520  11.638   3.611   8.364  0.9356 -2.1822 -2.7832
  345MOL0     H46521  11.623   3.514   8.520  0.2961 -0.9175 -0.7795
  345MOL0     H46522  11.622   3.388   8.234 -3.1057  0.2795  0.4441
  345MOL0     H46523  11.647   3.310   8.390 -0.3558  0.8533  1.2421
  345MOL0     H46524  11.848   3.419   8.227 -0.4599  2.8702 -0.0162
  345MOL0     H46525  11.866   3.491   8.383  2.8693 -1.2263  0.4711
  345MOL0     H46526  11.787   3.240   8.580 -2.2697 -0.0457 -0.8422
  345MOL0     H46527  11.803   2.954   8.589  0.4643  0.8144  0.8821
  345MOL0     H46528  11.967   2.912   8.568 -2.6124 -2.5634 -0.0178
  345MOL0     H46529  11.858   3.107   8.769 -0.9635 -1.7411 -0.5043
  345MOL0     H46530  11.896   2.937   8.795 -0.7861 -0.6063 -0.9779
  345MOL0     H46531  12.117   3.138   8.705  0.5001 -1.0905 -3.0711
  345MOL0     H46532  12.132   2.960   8.745  2.1809  0.4165  3.1936
  345MOL0     H46533  12.213   3.083   8.925  1.0506  2.2667  1.2720
  345MOL0     H46534  12.079   3.005   8.984  3.0542  1.8056  2.4317
  345MOL0     H46535  12.294   3.323   9.026 -1.6164 -0.8238 -2.3535
  345MOL0     H46536  12.349   3.366   9.248  0.0713  0.1377 -3.9131
  345MOL0     H46537  12.117   3.602   9.680  1.3529  0.8842  1.5906
  345MOL0     H46538  12.144   3.668   9.903  3.3783 -0.1847 -0.7805
  345MOL0     H46539  12.297   3.534  10.215 -2.1172 -0.0983  1.9705
  345MOL0     H46540  12.294   3.635  10.063  0.0454 -3.4883 -3.0718
  345MOL0     H46541  12.115   3.769  10.167 -4.5220 -0.5642  3.3269
  345MOL0     H46542  12.084   3.668  10.304 -1.3609  0.2088 -2.1942
  345MOL0     H46543  12.189   3.856  10.385 -2.6831 -1.5445 -1.3003
  345MOL0     H46544  12.307   3.724  10.402 -2.4435 -1.5975 -0.3729
  345MOL0     H46545  12.315   3.925  10.174  2.2249  4.4864  1.5854
  345MOL0     H46546  12.432   3.793  10.204  0.7713 -2.1148  3.9016
  345MOL0     H46547  12.392   4.035  10.384 -2.1036  1.3312 -2.3450
  345MOL0     H46548  12.517   4.008  10.278 -0.2391 -0.7767  0.4123
  345MOL0     H46549  12.481   3.816  10.521  0.8498  0.1956  0.1388
  345MOL0     H46550  12.601   3.791  10.385 -0.9810 -0.9065  1.7106
  345MOL0     H46551  12.590   3.999  10.605  0.8383  0.1666 -0.2693
  345MOL0     H46552  12.666   4.048  10.468 -0.4602  1.3624  2.6588
  345MOL0     H46553  12.822   3.822  10.478  1.6892 -1.0171  1.5855
  345MOL0     H46554  12.823   3.924  10.623  1.2622  1.3332 -2.9819
  345MOL0     H46555  12.154   3.262  10.036  3.6349  0.0338 -0.5190
  345MOL0     H46556  12.134   3.187   9.796  0.9580 -0.4781 -0.6412
  345MOL0     H46557  11.956   3.240   9.388  0.8924 -0.5175  1.1776
  345MOL0     H46558  11.918   3.174   9.176  0.6636 -1.6433  1.8621
  345MOL0     H46559  11.027   3.701   8.921  0.1290 -0.2505 -2.0939
  345MOL0     H46560  10.957   3.722   9.149  0.6661  1.9159  3.9002
  345MOL0     H46561  10.542   3.810   9.383 -2.6422  1.0894  2.3760
  345MOL0     H46562  10.434   3.824   9.596  0.0135  2.0417  1.3611
  345MOL0     H46563  10.419   3.932   9.945  0.8363 -0.3374  0.9036
  345MOL0     H46564  10.346   3.901   9.787 -0.3467  2.2435 -2.1119
  345MOL0     H46565  10.498   4.164   9.860 -2.3400  2.8195  3.0122
  345MOL0     H46566  10.325   4.146   9.869 -0.9951  1.5470 -2.5061
  345MOL0     H46567  10.468   4.115   9.603  1.4202  1.3787  1.0271
  345MOL0     H46568  10.403   4.259   9.666  0.9095  0.9343  2.4226
  345MOL0     H46569  10.213   4.005   9.654 -0.0443 -0.8717  2.0199
  345MOL0     H46570  10.173   4.171   9.709  0.0733  2.5252 -2.6099
  345MOL0     H46571  10.161   4.302   9.335  0.9992  0.3126 -0.6780
  345MOL0     H46572  10.748   4.039   9.758 -3.0068 -0.4256  1.2267
  345MOL0     H46573  10.940   4.103   9.622 -0.1331  1.9781 -2.2852
  345MOL0     H46574  10.996   3.994   9.510  0.0275 -1.1920  0.3191
  345MOL0     H46575  10.913   4.146   9.457  1.3128  2.3110  3.2313
  346MOL0     O46576   2.251   4.752   0.719 -0.7450 -0.3575  0.1552
  346MOL0     C46577   2.191   4.649   0.761  0.9644 -0.2839  0.5005
  346MOL0     O46578   2.193   4.522   0.713  0.4200  0.8629  0.6162
  346MOL0     C46579   2.269   4.493   0.600 -0.7255 -0.5933 -0.9424
  346MOL0     C46580   2.253   4.565   0.474  0.3781 -0.0862 -0.2318
  346MOL0     C46581   2.330   4.534   0.363 -0.1355  0.1005  0.2042
  346MOL0     C46582   2.434   4.440   0.379 -1.0764  0.6924  0.1392
  346MOL0     O46583   2.513   4.393   0.279  0.3523 -0.4415 -0.7097
  346MOL0     C46584   2.445   4.317   0.178  0.7949 -0.5540 -0.2436
  346MOL0     C46585   2.551   4.260   0.079  0.3456 -0.1048 -0.7007
  346MOL0     C46586   2.647   4.373   0.039  0.0048  0.1472  0.4780
  346MOL0     C46587   2.744   4.321  -0.066  0.5045 -0.0346 -0.7063
  346MOL0     C46588   2.798   4.445  -0.137 -0.5951 -0.4763 -1.3237
  346MOL0     C46589   2.905   4.409  -0.238 -0.0608 -0.0231 -0.0835
  346MOL0     C46590   2.950   4.530  -0.321  0.1108  0.8089 -0.8696
  346MOL0     C46591   2.850   4.569  -0.424  0.8558 -0.8127 -0.2424
  346MOL0     N46592   2.913   4.598  -0.558  0.6136 -0.6148 -0.2909
  346MOL0     C46593   2.850   4.592  -0.680  0.5558 -0.7530  0.7010
  346MOL0     C46594   2.935   4.626  -0.775  0.1609 -0.2818  0.1866
  346MOL0     C46595   2.904   4.624  -0.925  0.6581  0.4203 -0.7120
  346MOL0     C46596   3.031   4.659  -1.006 -0.5224  0.2937 -0.1012
  346MOL0     C46597   3.025   4.587  -1.142  0.3592 -0.2762 -0.1893
  346MOL0     C46598   3.161   4.591  -1.207 -0.1559 -0.7988  0.5978
  346MOL0     O46599   3.165   4.544  -1.341  0.4256 -0.0314 -0.0129
  346MOL0     C46600   3.161   4.410  -1.362  0.2607  1.1046  0.1080
  346MOL0     C46601   3.143   4.372  -1.490 -0.1298 -1.3911 -0.3934
  346MOL0     C46602   3.150   4.243  -1.530  0.3313  0.3961 -0.5410
  346MOL0     C46603   3.177   4.137  -1.442  0.9228 -0.9627 -0.0733
  346MOL0     C46604   3.188   3.993  -1.488  0.3321  0.7072 -0.4982
  346MOL0     O46605   3.129   3.967  -1.603  0.1094 -0.2139 -0.4005
  346MOL0     C46606   3.111   3.845  -1.659 -0.5968 -0.6327 -0.9221
  346MOL0     C46607   3.110   3.831  -1.795  0.2931 -0.4476 -0.5587
  346MOL0     C46608   3.072   3.718  -1.862 -1.0877  0.6294 -0.0002
  346MOL0     C46609   3.039   3.604  -1.786 -0.4830 -0.3499  0.3243
  346MOL0     O46610   2.993   3.497  -1.855 -0.2241 -0.2127  0.4007
  346MOL0     C46611   2.914   3.396  -1.784  0.3852  0.7080 -0.2112
  346MOL0     C46612   2.980   3.255  -1.771  0.6949 -0.1319 -0.1444
  346MOL0     C46613   3.035   3.193  -1.891 -0.6582 -0.6702  1.1130
  346MOL0     C46614   2.939   3.187  -2.007 -0.5020 -0.9727  0.4204
  346MOL0     C46615   3.007   3.130  -2.129  0.2291  0.3858  1.0825
  346MOL0     C46616   3.035   2.985  -2.121 -0.2277 -0.5462  0.2822
  346MOL0     C46617   3.135   2.943  -2.229 -0.0081  0.3500 -0.4286
  346MOL0     C46618   3.149   2.791  -2.242  0.2681 -0.4177  0.0091
  346MOL0    Cl46619   3.156   2.696  -2.091  0.3183  0.2863  0.0075
  346MOL0     C46620   3.062   3.612  -1.644 -0.2376 -0.6146 -0.4257
  346MOL0     C46621   3.100   3.727  -1.583 -0.9145  0.5467 -0.9515
  346MOL0     O46622   3.256   3.918  -1.421 -0.5985  0.5042 -0.1787
  346MOL0     C46623   3.204   4.169  -1.303 -0.3895 -0.7735 -0.3031
  346MOL0     C46624   3.186   4.308  -1.263 -0.6735 -0.1379  0.4293
  346MOL0     N46625   3.050   4.669  -0.707 -0.3259 -0.0953  0.9924
  346MOL0     N46626   3.034   4.653  -0.583  0.0664 -0.0169  0.3089
  346MOL0     C46627   2.446   4.373   0.499 -0.4488  0.3001  0.1029
  346MOL0     C46628   2.375   4.397   0.605  0.2547 -0.3164 -0.6285
  346MOL0     C46629   2.118   4.661   0.890 -0.2579  0.5474 -1.0040
  346MOL0     C46630   2.030   4.559   0.929 -0.1312 -0.5321 -0.7522
  346MOL0     C46631   1.959   4.566   1.053 -1.1800 -0.0379  0.8920
  346MOL0     C46632   1.997   4.661   1.146  0.0208 -0.6206 -0.7545
  346MOL0     O46633   1.931   4.673   1.271  0.2671 -0.7362  0.3861
  346MOL0     C46634   1.820   4.594   1.302 -0.2307 -0.4433 -1.1288
  346MOL0     C46635   1.757   4.658   1.426  0.4376 -0.2878  0.5903
  346MOL0     C46636   1.696   4.793   1.397  0.1066 -0.8066 -0.2045
  346MOL0     C46637   1.675   4.868   1.535 -0.7267 -0.2113  0.2350
  346MOL0     C46638   1.728   4.997   1.534  0.2124  0.6126  0.0255
  346MOL0     C46639   1.786   5.108   1.542  0.1580 -0.5966  0.2796
  346MOL0     C46640   2.081   4.764   1.113  0.5526  0.1389 -0.6752
  346MOL0     C46641   2.153   4.756   0.989 -0.6495 -0.7217 -0.3636
  346MOL0     C46642   2.239   4.882   0.970  0.9146 -0.6706  0.2399
  346MOL0     H46643   2.176   4.642   0.463 -1.0122 -1.0296  2.1668
  346MOL0     H46644   2.329   4.586   0.268  1.3329  0.1726  0.1940
  346MOL0     H46645   2.385   4.239   0.227 -1.0611 -0.1412 -1.7696
  346MOL0     H46646   2.385   4.394   0.129  1.5318  1.3227  1.6148
  346MOL0     H46647   2.500   4.212  -0.005  1.6618 -1.3801 -0.8006
  346MOL0     H46648   2.611   4.179   0.121 -0.9133 -2.3673 -2.9762
  346MOL0     H46649   2.699   4.420   0.123 -1.3682  1.3786  0.6720
  346MOL0     H46650   2.575   4.438  -0.011  0.6805  0.5834  0.0658
  346MOL0     H46651   2.828   4.278  -0.010 -1.5525 -1.2407  1.6043
  346MOL0     H46652   2.699   4.255  -0.141 -1.7161 -0.1625  0.6577
  346MOL0     H46653   2.706   4.494  -0.170 -5.5060 -6.1180  2.0345
  346MOL0     H46654   2.854   4.512  -0.071  0.8820 -2.4953 -0.4466
  346MOL0     H46655   2.985   4.371  -0.174 -1.1268 -2.7085 -0.2349
  346MOL0     H46656   2.871   4.322  -0.294 -3.0864 -0.9324  2.8415
  346MOL0     H46657   3.033   4.484  -0.375 -1.3345 -0.6753 -1.9292
  346MOL0     H46658   2.979   4.618  -0.263  0.1225  1.5699 -1.9936
  346MOL0     H46659   2.776   4.488  -0.428  1.1346 -1.0694 -0.2102
  346MOL0     H46660   2.796   4.655  -0.384  4.2927  0.3475  2.4419
  346MOL0     H46661   2.750   4.559  -0.708  1.4652 -3.0367 -0.0579
  346MOL0     H46662   2.886   4.519  -0.948 -1.3506  1.2618 -3.5421
  346MOL0     H46663   2.815   4.682  -0.952 -0.2784 -0.4125  0.4960
  346MOL0     H46664   3.041   4.766  -1.025  1.6841  0.2507  0.5378
  346MOL0     H46665   3.120   4.634  -0.947  0.0822  1.8898 -0.2993
  346MOL0     H46666   2.951   4.628  -1.211 -0.6312  0.3305  1.1917
  346MOL0     H46667   2.994   4.483  -1.127 -4.5705  0.9300 -0.4003
  346MOL0     H46668   3.247   4.541  -1.161  0.3819  0.5359  1.0853
  346MOL0     H46669   3.198   4.694  -1.211  0.2096 -0.9642 -1.7118
  346MOL0     H46670   3.130   4.454  -1.559  0.5308 -0.0036  1.0773
  346MOL0     H46671   3.132   4.226  -1.635 -1.0889 -0.7017 -0.1613
  346MOL0     H46672   3.116   3.925  -1.849 -1.5082  1.8873  2.9767
  346MOL0     H46673   3.070   3.737  -1.968 -2.3190  1.8398  0.2076
  346MOL0     H46674   2.884   3.444  -1.690  0.6050  1.7863 -0.6844
  346MOL0     H46675   2.813   3.387  -1.826 -0.9382  1.5162  2.5345
  346MOL0     H46676   3.052   3.262  -1.689 -1.3493  0.3913  1.7135
  346MOL0     H46677   2.900   3.202  -1.717 -1.2410  2.9778  0.2969
  346MOL0     H46678   3.114   3.260  -1.926  0.6080 -2.0812  1.1308
  346MOL0     H46679   3.074   3.092  -1.872 -1.1933 -1.2082 -0.4725
  346MOL0     H46680   2.903   3.289  -2.023  1.6668  0.8477  5.3172
  346MOL0     H46681   2.858   3.121  -1.972 -0.6884  0.0034  1.8749
  346MOL0     H46682   3.097   3.192  -2.140  1.9712 -1.9999  1.1386
  346MOL0     H46683   2.952   3.152  -2.221 -0.1739  3.2877  1.8892
  346MOL0     H46684   3.079   2.964  -2.023  2.5140 -1.9474 -1.1314
  346MOL0     H46685   2.942   2.930  -2.139  1.3682 -2.7091 -2.1682
  346MOL0     H46686   3.233   2.982  -2.200  0.7518  1.1858 -3.6596
  346MOL0     H46687   3.098   2.983  -2.324 -3.6779 -3.1701 -0.7546
  346MOL0     H46688   3.070   2.755  -2.309  1.0523 -0.1150 -1.1055
  346MOL0     H46689   3.249   2.775  -2.284  0.0391  0.4825 -0.9200
  346MOL0     H46690   3.037   3.526  -1.583 -0.6023 -0.6607 -0.6363
  346MOL0     H46691   3.104   3.726  -1.474 -1.2956  0.7778 -0.9359
  346MOL0     H46692   3.229   4.091  -1.233  1.5263 -0.2428 -0.3424
  346MOL0     H46693   3.190   4.330  -1.157  1.2085 -1.7304  0.7586
  346MOL0     H46694   2.515   4.289   0.504  0.3111  0.9812  2.6050
  346MOL0     H46695   2.386   4.359   0.706 -0.2380  2.7926  0.7279
  346MOL0     H46696   1.989   4.490   0.856 -0.1639 -0.4370 -0.8241
  346MOL0     H46697   1.892   4.481   1.065 -0.8502 -0.9544 -2.7229
  346MOL0     H46698   1.849   4.489   1.304 -4.4580 -1.7746 -0.7789
  346MOL0     H46699   1.744   4.592   1.224 -0.9812 -0.4548 -0.4149
  346MOL0     H46700   1.824   4.656   1.512  0.0245  2.5252  1.0841
  346MOL0     H46701   1.671   4.597   1.453 -1.3510  2.7393  2.4069
  346MOL0     H46702   1.611   4.791   1.328  0.2707 -1.3132 -0.3989
  346MOL0     H46703   1.768   4.856   1.342 -0.1764  0.1836  0.5426
  346MOL0     H46704   1.568   4.878   1.550 -1.2459 -0.9954 -2.3242
  346MOL0     H46705   1.714   4.813   1.621 -0.1980 -0.7592 -0.3427
  346MOL0     H46706   1.814   5.210   1.560 -0.0335 -0.3399 -0.8162
  346MOL0     H46707   2.094   4.847   1.182 -2.0588 -0.9720  1.2986
  346MOL0     H46708   2.255   4.942   1.061  1.5100  0.5797 -0.6656
  346MOL0     H46709   2.337   4.860   0.929  0.2980  0.4519 -1.9578
  346MOL0     H46710   2.194   4.940   0.889 -3.1554 -1.6079  1.5889
  347MOL0     O46711   6.382   4.782   6.239 -0.6512 -0.0387  0.0579
  347MOL0     C46712   6.384   4.693   6.158 -1.2551 -0.7009  0.2729
  347MOL0     O46713   6.421   4.712   6.027  0.0562 -0.1994  0.1657
  347MOL0     C46714   6.443   4.841   5.991  0.3889 -0.6036 -0.5549
  347MOL0     C46715   6.360   4.894   5.896 -1.1845  0.6276  1.0712
  347MOL0     C46716   6.384   5.023   5.859 -0.4885  1.2694 -0.4734
  347MOL0     C46717   6.512   5.088   5.886  0.6868  0.0253 -0.0870
  347MOL0     O46718   6.544   5.211   5.849 -0.4204  0.0055 -0.7914
  347MOL0     C46719   6.470   5.333   5.875 -0.7013 -0.0816 -0.2114
  347MOL0     C46720   6.468   5.373   6.024  0.1650  0.3411  0.4709
  347MOL0     C46721   6.613   5.397   6.066 -0.0669  0.4390  0.6139
  347MOL0     C46722   6.617   5.426   6.221 -0.7192  0.3780 -0.7318
  347MOL0     C46723   6.752   5.491   6.238 -0.4321 -0.2129  0.5226
  347MOL0     C46724   6.759   5.551   6.377  0.5099  0.6415 -0.6536
  347MOL0     C46725   6.897   5.605   6.413 -0.2180 -0.5116 -0.6883
  347MOL0     C46726   6.949   5.730   6.332 -0.6012 -0.2136 -0.1873
  347MOL0     N46727   7.070   5.788   6.394  0.3461  0.5870 -0.3931
  347MOL0     C46728   7.094   5.860   6.510  0.4261  0.8408  0.2873
  347MOL0     C46729   7.215   5.923   6.504  0.0506  0.0893 -0.3243
  347MOL0     C46730   7.294   6.009   6.597 -1.1532 -0.8970 -0.5062
  347MOL0     C46731   7.399   5.935   6.678 -0.4155 -0.6891 -0.2630
  347MOL0     C46732   7.482   6.045   6.755 -0.0735 -0.4398 -0.6737
  347MOL0     C46733   7.616   5.989   6.809  0.3671  0.0043 -0.2172
  347MOL0     O46734   7.673   6.078   6.918  0.2844  0.7149  0.7844
  347MOL0     C46735   7.627   6.071   7.051 -0.8113  0.8172 -0.4586
  347MOL0     C46736   7.538   5.985   7.107 -0.5085 -1.2572  0.5388
  347MOL0     C46737   7.515   5.992   7.247  0.1162 -0.5231 -0.0427
  347MOL0     C46738   7.560   6.101   7.324  0.2633 -0.0780 -0.2603
  347MOL0     C46739   7.526   6.127   7.466  0.5230  0.1680 -0.2539
  347MOL0     O46740   7.587   6.225   7.532  0.0588 -0.0058 -0.6580
  347MOL0     C46741   7.552   6.238   7.671  0.3064  0.3042  0.1039
  347MOL0     C46742   7.439   6.311   7.709 -0.4887  0.5246  0.6952
  347MOL0     C46743   7.398   6.343   7.837 -0.2422  0.7978  0.7190
  347MOL0     C46744   7.480   6.278   7.937  1.0646  0.5973  0.8278
  347MOL0     O46745   7.444   6.294   8.072  0.1609 -0.2458  1.1694
  347MOL0     C46746   7.350   6.203   8.126  0.7289  0.2293  0.3336
  347MOL0     C46747   7.291   6.257   8.256 -0.0073 -0.0338 -0.3443
  347MOL0     C46748   7.394   6.251   8.378  0.3072  0.4873 -1.0515
  347MOL0     C46749   7.478   6.385   8.402  0.1585  0.4468 -0.2973
  347MOL0     C46750   7.626   6.359   8.400 -0.3252 -0.5321 -0.5465
  347MOL0     C46751   7.704   6.491   8.399 -0.5569  0.1078 -0.8759
  347MOL0     C46752   7.837   6.487   8.335 -0.1932 -0.1852  0.1957
  347MOL0     C46753   7.937   6.387   8.403  1.1564  0.1351 -0.1399
  347MOL0    Cl46754   7.964   6.422   8.586 -0.4229 -0.0292  0.3790
  347MOL0     C46755   7.593   6.205   7.903 -1.7575  0.7183 -0.1502
  347MOL0     C46756   7.632   6.186   7.772 -0.6746 -0.6519 -0.5741
  347MOL0     O46757   7.428   6.062   7.508  0.0686  0.1086  0.0522
  347MOL0     C46758   7.658   6.186   7.262 -0.6734  0.5903 -0.2875
  347MOL0     C46759   7.688   6.172   7.127  1.7504 -0.2149  0.2913
  347MOL0     N46760   7.269   5.875   6.381  0.4611 -0.5990  0.2513
  347MOL0     N46761   7.188   5.791   6.327  0.5941  0.5581 -0.0417
  347MOL0     C46762   6.608   5.023   5.959 -0.0237  0.5023 -0.1129
  347MOL0     C46763   6.573   4.897   6.016  1.1448 -0.5089  1.0996
  347MOL0     C46764   6.335   4.566   6.187 -0.0208  0.2485  0.4236
  347MOL0     C46765   6.285   4.542   6.315  0.2293 -0.0925  0.5417
  347MOL0     C46766   6.251   4.415   6.363  0.5160 -1.0562  0.1271
  347MOL0     C46767   6.244   4.308   6.270  0.8739 -0.4951 -0.2286
  347MOL0     O46768   6.174   4.192   6.306 -0.1401 -0.0590 -0.2342
  347MOL0     C46769   6.190   4.070   6.224  0.0346  0.2295 -0.3861
  347MOL0     C46770   6.313   3.997   6.270 -0.5038  0.4635  0.4580
  347MOL0     C46771   6.343   3.868   6.198 -0.0638 -0.4990  0.6586
  347MOL0     C46772   6.299   3.866   6.046  0.5154 -0.3799 -0.2846
  347MOL0     C46773   6.376   3.961   5.970  0.1252  0.2315  0.3159
  347MOL0     C46774   6.428   4.041   5.903  0.2881 -0.2748  0.4133
  347MOL0     C46775   6.296   4.334   6.139  0.2499  0.8327  0.6847
  347MOL0     C46776   6.344   4.455   6.098 -0.6249 -0.0401  0.4117
  347MOL0     C46777   6.393   4.454   5.956  0.3372  0.0111  1.0603
  347MOL0     H46778   6.265   4.853   5.861 -0.1535 -1.1129  0.1909
  347MOL0     H46779   6.315   5.068   5.787 -2.6197  1.0204  1.3057
  347MOL0     H46780   6.505   5.408   5.804  0.9395 -5.3246 -5.8004
  347MOL0     H46781   6.366   5.316   5.847 -0.6267  0.3787 -0.7895
  347MOL0     H46782   6.423   5.281   6.062  2.5953 -0.0644  2.6464
  347MOL0     H46783   6.397   5.452   6.047 -0.8419 -1.0337  2.2882
  347MOL0     H46784   6.655   5.483   6.013  0.9624  2.6687  4.6011
  347MOL0     H46785   6.674   5.308   6.048  0.0474  0.9819 -2.0187
  347MOL0     H46786   6.539   5.493   6.259  0.0274  1.1077 -0.4395
  347MOL0     H46787   6.606   5.331   6.273  1.6693  0.8975  0.8508
  347MOL0     H46788   6.824   5.409   6.226  1.6678  1.3144  2.0188
  347MOL0     H46789   6.780   5.572   6.171  0.6972 -0.7819  0.2797
  347MOL0     H46790   6.682   5.628   6.378  0.2677  0.4384 -1.7798
  347MOL0     H46791   6.740   5.491   6.466  2.1412  4.0377  2.1902
  347MOL0     H46792   6.974   5.528   6.398 -0.0975 -0.5657  0.1356
  347MOL0     H46793   6.897   5.628   6.520  0.7110 -2.7790 -0.1435
  347MOL0     H46794   6.972   5.711   6.226 -1.2944 -0.6160 -0.2765
  347MOL0     H46795   6.875   5.810   6.331  0.1645  0.5482 -2.4968
  347MOL0     H46796   7.028   5.880   6.594  2.4475 -4.3536  3.6653
  347MOL0     H46797   7.342   6.078   6.527  2.0191 -3.8578 -1.5449
  347MOL0     H46798   7.232   6.059   6.672  1.0367  4.0455 -1.5931
  347MOL0     H46799   7.345   5.873   6.751 -1.3721 -0.9208 -1.1417
  347MOL0     H46800   7.465   5.888   6.605  1.8706 -0.2344  1.3903
  347MOL0     H46801   7.410   6.073   6.833 -0.4061  0.7212 -1.3751
  347MOL0     H46802   7.500   6.138   6.700 -0.5725 -1.5408 -2.7966
  347MOL0     H46803   7.693   5.983   6.730  3.2041  0.2361  2.3434
  347MOL0     H46804   7.605   5.890   6.853 -1.5430 -1.4463 -3.5507
  347MOL0     H46805   7.482   5.907   7.056  0.2797  0.3012 -2.9939
  347MOL0     H46806   7.453   5.917   7.295  5.8716 -4.7334  2.0011
  347MOL0     H46807   7.389   6.350   7.621  0.6943 -2.5120 -1.5243
  347MOL0     H46808   7.323   6.420   7.855  0.6492  1.7699  0.3762
  347MOL0     H46809   7.262   6.205   8.060 -2.4209  0.6021  4.1840
  347MOL0     H46810   7.397   6.105   8.134  0.8016  0.1542 -0.8273
  347MOL0     H46811   7.252   6.357   8.238  0.6212  0.1572 -0.6341
  347MOL0     H46812   7.211   6.186   8.280  1.1360 -1.8017 -1.5366
  347MOL0     H46813   7.335   6.232   8.468  2.1236 -1.3617 -0.1689
  347MOL0     H46814   7.461   6.165   8.362 -2.3455 -1.9908  0.2645
  347MOL0     H46815   7.455   6.442   8.492  1.8316  1.9793 -0.7695
  347MOL0     H46816   7.460   6.442   8.311 -1.8476 -1.5507 -1.2368
  347MOL0     H46817   7.655   6.299   8.314  2.8476 -1.2370  0.8614
  347MOL0     H46818   7.652   6.309   8.494 -1.9102 -1.7163 -0.6950
  347MOL0     H46819   7.650   6.572   8.348  1.3085  1.1955 -1.2473
  347MOL0     H46820   7.709   6.522   8.504 -1.1469 -3.7097  0.4093
  347MOL0     H46821   7.881   6.587   8.339  0.0634 -0.1136 -2.3567
  347MOL0     H46822   7.830   6.459   8.229  1.6543 -0.0954  0.0131
  347MOL0     H46823   7.898   6.285   8.408 -0.7649  0.8893  1.3665
  347MOL0     H46824   8.035   6.388   8.354  2.7896  0.5422  2.8719
  347MOL0     H46825   7.643   6.147   7.980  1.1125  0.3282 -2.1306
  347MOL0     H46826   7.720   6.125   7.753 -2.0797 -2.7030 -0.7522
  347MOL0     H46827   7.704   6.263   7.322  1.4346 -1.9143  1.5467
  347MOL0     H46828   7.747   6.243   7.070 -0.7226  0.9507 -0.9949
  347MOL0     H46829   6.703   5.074   5.965 -0.6941  2.2179 -2.3680
  347MOL0     H46830   6.657   4.844   6.061  1.5196 -2.5398 -1.6935
  347MOL0     H46831   6.285   4.623   6.387 -4.4919 -0.8736  1.7414
  347MOL0     H46832   6.213   4.398   6.463 -2.7515 -0.2018 -0.8347
  347MOL0     H46833   6.188   4.087   6.116 -1.3990 -1.7834 -0.7402
  347MOL0     H46834   6.101   4.011   6.249  2.3311 -3.5743 -0.4051
  347MOL0     H46835   6.298   3.973   6.375  2.2851 -2.9469  0.2741
  347MOL0     H46836   6.400   4.064   6.263 -0.3540  0.1172 -1.9657
  347MOL0     H46837   6.298   3.792   6.262  0.0455 -0.4976  0.7368
  347MOL0     H46838   6.451   3.854   6.190 -0.1038  0.1299 -1.9509
  347MOL0     H46839   6.318   3.766   6.007  2.2261 -0.5366  0.8280
  347MOL0     H46840   6.195   3.891   6.026  1.5070  2.0563 -3.2599
  347MOL0     H46841   6.492   4.108   5.848 -1.9085  0.1908 -1.7783
  347MOL0     H46842   6.278   4.256   6.066 -1.1674  1.5792  0.1888
  347MOL0     H46843   6.333   4.526   5.899 -1.2396 -0.2470  2.2988
  347MOL0     H46844   6.497   4.479   5.935 -0.7929  3.3191 -1.5404
  347MOL0     H46845   6.376   4.357   5.910 -3.8884  1.9719 -2.3069
  348MOL0     O46846   3.618  10.140   1.882  0.3330  0.6983 -0.1007
  348MOL0     C46847   3.704  10.232   1.882  0.0617 -0.8442 -0.0609
  348MOL0     O46848   3.764  10.297   1.771  0.1448  0.2304  0.3410
  348MOL0     C46849   3.771  10.230   1.647 -1.1489 -0.6221  0.4825
  348MOL0     C46850   3.738  10.096   1.616 -0.1649 -0.5929  0.3060
  348MOL0     C46851   3.767  10.045   1.486 -0.3792  0.3582 -0.2777
  348MOL0     C46852   3.834  10.127   1.389  0.5512 -0.6060 -0.4732
  348MOL0     O46853   3.884  10.077   1.266  0.0492  0.5131 -0.6654
  348MOL0     C46854   3.808   9.979   1.192 -1.2545  0.5431  0.5111
  348MOL0     C46855   3.875   9.981   1.057  0.3915 -0.3362  0.2292
  348MOL0     C46856   3.904  10.125   1.010  0.5576 -0.4829  0.5206
  348MOL0     C46857   3.787  10.228   0.985  1.0607  0.3758 -0.2721
  348MOL0     C46858   3.806  10.314   0.852  0.2258  0.7953  0.6385
  348MOL0     C46859   3.709  10.431   0.842  0.6768 -1.3679  1.4142
  348MOL0     C46860   3.744  10.551   0.933  0.4354  0.2660  0.2122
  348MOL0     C46861   3.654  10.675   0.913  0.2601 -0.2007  0.1081
  348MOL0     N46862   3.705  10.777   0.810  0.1686  0.1232 -0.5598
  348MOL0     C46863   3.746  10.909   0.846  0.3517 -0.0119  0.5728
  348MOL0     C46864   3.781  10.959   0.725 -0.3113  0.4269  0.3102
  348MOL0     C46865   3.829  11.098   0.688 -0.9188 -0.8605 -0.8310
  348MOL0     C46866   3.770  11.152   0.556  0.2299  0.9990  0.2363
  348MOL0     C46867   3.810  11.300   0.542 -0.7513  0.1629  0.6748
  348MOL0     C46868   3.939  11.308   0.463  0.0253 -0.7528 -0.4031
  348MOL0     O46869   4.052  11.314   0.566  0.1819 -0.1821 -0.1429
  348MOL0     C46870   4.165  11.388   0.537  0.4574 -0.8477  0.6570
  348MOL0     C46871   4.270  11.382   0.630 -0.4512 -0.5814  0.8042
  348MOL0     C46872   4.390  11.458   0.616 -0.0672 -0.1749 -0.6294
  348MOL0     C46873   4.410  11.538   0.504 -0.0264 -0.1602 -0.2104
  348MOL0     C46874   4.533  11.609   0.488 -0.2132  0.5184 -0.4535
  348MOL0     O46875   4.570  11.606   0.354 -0.1777 -0.1698  1.1399
  348MOL0     C46876   4.694  11.642   0.309 -0.0980 -0.6186  0.6154
  348MOL0     C46877   4.741  11.618   0.173  0.6042 -0.0926 -0.5651
  348MOL0     C46878   4.866  11.672   0.123  0.3901  0.4682  0.0845
  348MOL0     C46879   4.946  11.758   0.201  0.0477  0.9368 -0.1032
  348MOL0     O46880   5.057  11.807   0.142 -0.2989 -0.0797 -0.1391
  348MOL0     C46881   5.139  11.884   0.219 -0.2969 -0.5358  0.7996
  348MOL0     C46882   5.273  11.891   0.153  0.1541 -0.5441  0.0068
  348MOL0     C46883   5.366  11.990   0.226  1.1212  0.3806  0.7691
  348MOL0     C46884   5.455  11.919   0.320 -0.3015  0.0883  0.8888
  348MOL0     C46885   5.556  12.022   0.392 -0.7545  0.9957  0.2464
  348MOL0     C46886   5.502  12.159   0.414 -1.1245 -0.8073 -0.0711
  348MOL0     C46887   5.596  12.241   0.513  0.4555 -0.0440  0.5824
  348MOL0     C46888   5.584  12.388   0.475  0.3799  0.0382  0.0448
  348MOL0    Cl46889   5.410  12.437   0.478 -0.0552  0.2881 -0.3672
  348MOL0     C46890   4.900  11.776   0.329  0.2148  1.0740 -0.4525
  348MOL0     C46891   4.787  11.715   0.383  0.2003  0.3117  0.4069
  348MOL0     O46892   4.593  11.664   0.578  0.0466  0.0278 -1.2193
  348MOL0     C46893   4.314  11.536   0.402  0.4964 -0.3268  0.0390
  348MOL0     C46894   4.200  11.456   0.413  0.1393  0.5348 -0.5931
  348MOL0     N46895   3.759  10.857   0.631  0.3142 -0.3384 -0.8049
  348MOL0     N46896   3.704  10.752   0.675 -0.3876  0.5525 -0.4450
  348MOL0     C46897   3.850  10.265   1.416  0.4657  0.2555 -0.6788
  348MOL0     C46898   3.821  10.309   1.546 -0.3484 -0.9080 -0.0759
  348MOL0     C46899   3.739  10.303   2.010  0.6328 -0.2748 -0.2385
  348MOL0     C46900   3.868  10.356   2.010 -0.8332 -0.0174  1.0493
  348MOL0     C46901   3.911  10.420   2.133 -0.6835  0.3810  0.0935
  348MOL0     C46902   3.833  10.413   2.246  0.5924  0.2623 -0.4734
  348MOL0     O46903   3.893  10.450   2.362 -0.5721  0.2493 -1.3134
  348MOL0     C46904   3.926  10.345   2.460  0.3369 -0.1947 -0.1682
  348MOL0     C46905   3.889  10.377   2.602  0.1775  0.5603 -1.0258
  348MOL0     C46906   3.878  10.252   2.689  0.8002 -1.2576 -0.4395
  348MOL0     C46907   3.746  10.169   2.677 -0.1190  0.6066 -0.0667
  348MOL0     C46908   3.775  10.028   2.711 -0.4654  0.9169 -0.1491
  348MOL0     C46909   3.801   9.914   2.723  0.3412  0.2135 -0.0425
  348MOL0     C46910   3.705  10.360   2.245 -0.2864  0.9161 -0.1234
  348MOL0     C46911   3.656  10.310   2.132  0.8951 -0.4451  0.6168
  348MOL0     C46912   3.523  10.257   2.129  0.7981  0.5756 -0.2999
  348MOL0     H46913   3.676  10.044   1.689 -0.1278  1.3755  1.8361
  348MOL0     H46914   3.735   9.945   1.459  1.6731 -0.2412 -0.7083
  348MOL0     H46915   3.821   9.876   1.225 -2.2719  0.6229  1.1940
  348MOL0     H46916   3.701   9.999   1.178 -2.0748 -3.8809 -1.3786
  348MOL0     H46917   3.806   9.933   0.987  0.1467 -1.0263  0.9331
  348MOL0     H46918   3.958   9.911   1.054 -0.4873 -1.3590 -1.1396
  348MOL0     H46919   3.949  10.131   0.910 -0.9155 -2.9528 -0.3944
  348MOL0     H46920   3.974  10.169   1.081 -1.7599 -2.1405  4.1134
  348MOL0     H46921   3.690  10.177   0.976 -1.0757  3.3048  3.2059
  348MOL0     H46922   3.783  10.281   1.081  0.2881  0.0068 -0.0926
  348MOL0     H46923   3.909  10.352   0.848  0.6809 -0.4807 -1.1450
  348MOL0     H46924   3.788  10.248   0.767 -1.3762 -1.7587  2.7967
  348MOL0     H46925   3.713  10.459   0.736  0.4223 -3.1444  0.8982
  348MOL0     H46926   3.608  10.399   0.870  0.0748  1.2023  2.5213
  348MOL0     H46927   3.850  10.573   0.925 -0.2175  4.2498  0.5386
  348MOL0     H46928   3.732  10.532   1.040  2.8220 -1.2230  0.2736
  348MOL0     H46929   3.557  10.651   0.867  0.4530  0.3703 -0.6267
  348MOL0     H46930   3.633  10.731   1.004 -1.2465 -0.5122 -0.0076
  348MOL0     H46931   3.747  10.944   0.949  2.1992 -2.0201  1.3211
  348MOL0     H46932   3.786  11.169   0.759 -0.5251 -1.1113 -0.3374
  348MOL0     H46933   3.938  11.100   0.698 -0.9199 -2.2656 -0.3243
  348MOL0     H46934   3.793  11.080   0.477 -1.2860  1.8353 -1.0372
  348MOL0     H46935   3.661  11.147   0.567 -0.2062  1.9631 -2.8036
  348MOL0     H46936   3.808  11.352   0.638 -5.5049  1.1116  0.3145
  348MOL0     H46937   3.736  11.348   0.478 -2.2118 -1.0938  1.3753
  348MOL0     H46938   3.931  11.395   0.397 -0.7850  0.5440  1.3235
  348MOL0     H46939   3.953  11.219   0.402  3.0557  1.4301 -3.2167
  348MOL0     H46940   4.278  11.322   0.720 -0.4935  1.7031  2.3931
  348MOL0     H46941   4.477  11.447   0.681 -2.5271  2.1311  3.5163
  348MOL0     H46942   4.672  11.570   0.104 -0.1834  1.4066 -0.8597
  348MOL0     H46943   4.897  11.650   0.021 -0.8916  1.8376 -0.6312
  348MOL0     H46944   5.088  11.979   0.238  0.2233  0.2309 -1.3133
  348MOL0     H46945   5.151  11.840   0.318  1.0864 -0.4523  0.6927
  348MOL0     H46946   5.315  11.793   0.126  0.1727 -0.7134  0.6304
  348MOL0     H46947   5.252  11.937   0.056  1.2350 -0.7466 -0.3439
  348MOL0     H46948   5.437  12.043   0.161 -0.2775  1.8867  0.4174
  348MOL0     H46949   5.309  12.067   0.279 -2.5494 -0.7136 -1.2664
  348MOL0     H46950   5.517  11.842   0.273  2.0279 -0.8279  4.9368
  348MOL0     H46951   5.384  11.873   0.389 -0.6715 -0.5881  0.0596
  348MOL0     H46952   5.648  12.030   0.333  0.5457  0.2744  2.0704
  348MOL0     H46953   5.586  11.989   0.492 -2.3850  3.1430  1.5449
  348MOL0     H46954   5.490  12.212   0.319 -5.1865 -0.3716  0.5112
  348MOL0     H46955   5.403  12.158   0.460 -0.5982 -2.7098  1.1013
  348MOL0     H46956   5.702  12.214   0.519  0.8034  1.1692  0.2891
  348MOL0     H46957   5.549  12.221   0.609  0.8886 -4.3593  0.0819
  348MOL0     H46958   5.634  12.452   0.548  1.4320 -4.0330  3.2777
  348MOL0     H46959   5.637  12.415   0.383  1.3266  1.3796  0.9472
  348MOL0     H46960   4.963  11.833   0.397 -0.0105  0.9619 -0.1440
  348MOL0     H46961   4.771  11.730   0.490 -1.8935 -6.4822  1.5160
  348MOL0     H46962   4.334  11.594   0.313 -1.1168  1.9472  1.0638
  348MOL0     H46963   4.122  11.464   0.338 -1.2884 -1.0554  0.6402
  348MOL0     H46964   3.889  10.338   1.345 -0.2536  2.1475  0.8132
  348MOL0     H46965   3.837  10.414   1.571 -1.8407 -0.9555  1.2446
  348MOL0     H46966   3.939  10.359   1.927 -0.5453  0.8457  1.3136
  348MOL0     H46967   4.009  10.464   2.117 -0.2475 -0.8756 -0.8517
  348MOL0     H46968   4.035  10.332   2.453  0.4260 -0.1237  0.9950
  348MOL0     H46969   3.891  10.244   2.435 -0.4967  0.3136 -1.1277
  348MOL0     H46970   3.801  10.441   2.593  2.0725  3.2039 -2.0096
  348MOL0     H46971   3.964  10.444   2.647  2.4591 -1.2865 -1.8412
  348MOL0     H46972   3.889  10.284   2.793  2.0352  0.9792 -1.2014
  348MOL0     H46973   3.967  10.189   2.677  1.1547 -0.9862  0.6203
  348MOL0     H46974   3.672  10.207   2.747 -0.7616 -0.2400 -0.2754
  348MOL0     H46975   3.694  10.186   2.582  1.8442  3.9819 -0.7167
  348MOL0     H46976   3.810   9.811   2.754  2.4606  0.9198  1.9804
  348MOL0     H46977   3.639  10.363   2.331 -3.4256  0.4059 -2.3191
  348MOL0     H46978   3.465  10.294   2.214  1.7905 -1.0813  1.1548
  348MOL0     H46979   3.464  10.269   2.037  0.2571 -1.8133 -0.3446
  348MOL0     H46980   3.532  10.148   2.137 -0.3309  0.4874 -0.0637
  349MOL0     O46981  11.056   6.024   4.244 -0.4823 -0.3145  0.3530
  349MOL0     C46982  11.160   6.092   4.220  0.2555  0.0121  0.2811
  349MOL0     O46983  11.254   6.142   4.317 -0.1790 -0.1292 -0.2712
  349MOL0     C46984  11.230   6.115   4.446 -0.1045  0.4703 -0.6799
  349MOL0     C46985  11.137   6.184   4.527 -0.1007 -0.4446  0.0316
  349MOL0     C46986  11.123   6.147   4.661 -0.8483 -0.7976 -1.7820
  349MOL0     C46987  11.204   6.054   4.721  0.6512 -0.5965 -0.6596
  349MOL0     O46988  11.204   6.004   4.850  0.5165  0.2495  0.3477
  349MOL0     C46989  11.073   5.979   4.907  0.8814 -0.0087 -1.2579
  349MOL0     C46990  11.096   5.906   5.037  0.7252  0.4314  0.3447
  349MOL0     C46991  11.156   5.767   5.007  0.6673 -0.3804 -0.5149
  349MOL0     C46992  11.305   5.757   5.032  0.9531  0.0612  0.6456
  349MOL0     C46993  11.340   5.616   5.002  0.5950  0.2752 -0.1995
  349MOL0     C46994  11.492   5.586   5.020 -0.2451 -0.1053 -1.4309
  349MOL0     C46995  11.541   5.444   4.981  0.2001  0.0553 -0.6726
  349MOL0     C46996  11.680   5.409   5.024  0.5484  0.6759 -0.4601
  349MOL0     N46997  11.718   5.267   5.042  0.2481 -0.2582  1.1016
  349MOL0     C46998  11.760   5.206   5.155  0.4585 -0.9925 -0.8992
  349MOL0     C46999  11.776   5.078   5.118 -0.4991  0.2058  0.9630
  349MOL0     C47000  11.849   4.974   5.196  0.5103 -0.0506 -0.0070
  349MOL0     C47001  11.992   5.046   5.241  0.7236  0.6862 -0.1537
  349MOL0     C47002  12.085   4.932   5.295 -0.2373  0.6583 -0.5931
  349MOL0     C47003  12.236   4.974   5.342 -0.8958  0.3544 -0.1118
  349MOL0     O47004  12.311   5.045   5.231 -0.0514 -0.8508 -0.4373
  349MOL0     C47005  12.403   4.979   5.157 -0.3566 -0.5415  0.7505
  349MOL0     C47006  12.535   5.028   5.115  1.7241 -0.4177 -0.7711
  349MOL0     C47007  12.640   4.944   5.077  0.1364  0.2188  0.1836
  349MOL0     C47008  12.608   4.812   5.034  0.0533 -0.7954  0.3381
  349MOL0     C47009  12.715   4.731   4.967 -0.8723 -0.3344  0.2679
  349MOL0     O47010  12.693   4.602   4.978 -0.9807 -0.1129 -0.2941
  349MOL0     C47011  12.792   4.515   4.942  0.3516 -0.3248 -0.4039
  349MOL0     C47012  12.915   4.537   4.886 -0.3732  0.9364  0.1029
  349MOL0     C47013  12.993   4.426   4.860  0.2107  1.3185 -0.2182
  349MOL0     C47014  12.955   4.289   4.892  0.2457 -0.5764  0.3658
  349MOL0     O47015  13.027   4.182   4.850  0.9452  0.5416  0.0008
  349MOL0     C47016  13.062   4.154   4.713 -0.2920  0.0565  0.5626
  349MOL0     C47017  13.149   4.031   4.699  0.6518 -0.1776  0.4960
  349MOL0     C47018  13.057   3.903   4.710  0.0399 -0.8895 -0.2003
  349MOL0     C47019  13.137   3.787   4.775 -0.9674  0.3548  0.6357
  349MOL0     C47020  13.047   3.678   4.839 -0.3447 -0.9526  1.2859
  349MOL0     C47021  12.988   3.602   4.719  0.2561  0.7984  0.2174
  349MOL0     C47022  12.851   3.534   4.766  0.7099  1.3179 -0.1819
  349MOL0     C47023  12.789   3.450   4.663  0.6176  0.3766  0.2945
  349MOL0    Cl47024  12.889   3.298   4.624 -0.1127 -0.6814  0.2383
  349MOL0     C47025  12.838   4.280   4.959  0.9043  0.6754  0.0110
  349MOL0     C47026  12.753   4.384   4.982 -1.0590  0.7308  0.0481
  349MOL0     O47027  12.818   4.786   4.923  0.5216  0.6209 -0.2853
  349MOL0     C47028  12.481   4.763   5.060  0.8709  1.0254 -0.5087
  349MOL0     C47029  12.386   4.839   5.134 -0.2785 -0.8302  1.2365
  349MOL0     N47030  11.726   5.064   4.992  0.5298 -1.0164 -0.9659
  349MOL0     N47031  11.692   5.178   4.944 -0.1619  0.7330 -0.2170
  349MOL0     C47032  11.286   5.972   4.642  0.1215  0.4810  0.7542
  349MOL0     C47033  11.297   6.003   4.498  1.1907  0.5411 -0.8929
  349MOL0     C47034  11.197   6.131   4.085  0.2373 -0.0048  0.1202
  349MOL0     C47035  11.268   6.256   4.073 -0.4725  1.1652  0.1452
  349MOL0     C47036  11.322   6.282   3.950  0.4649 -0.8259 -0.7191
  349MOL0     C47037  11.309   6.217   3.837 -0.1617  1.0528 -0.1920
  349MOL0     O47038  11.364   6.274   3.728  0.4605 -0.0949  0.5370
  349MOL0     C47039  11.373   6.188   3.616 -0.1484 -0.4160 -0.2463
  349MOL0     C47040  11.467   6.248   3.512 -0.2824  0.4751 -0.1341
  349MOL0     C47041  11.404   6.366   3.438  1.0117  1.1219 -0.4311
  349MOL0     C47042  11.457   6.503   3.473 -0.2966  0.3466 -0.6359
  349MOL0     C47043  11.370   6.612   3.445 -0.3275  0.0283 -0.5800
  349MOL0     C47044  11.271   6.680   3.426 -1.6289  0.1068 -0.0496
  349MOL0     C47045  11.230   6.095   3.844 -0.3160 -0.8288 -0.0142
  349MOL0     C47046  11.164   6.056   3.968 -0.3518  0.8565 -0.0369
  349MOL0     C47047  11.083   5.926   3.959  0.2040  0.5372 -0.0648
  349MOL0     H47048  11.072   6.262   4.488 -1.5969 -3.0934 -3.3178
  349MOL0     H47049  11.051   6.195   4.726 -0.7190  0.6390 -2.6521
  349MOL0     H47050  11.014   6.066   4.934 -1.5692 -2.3929  1.9373
  349MOL0     H47051  11.008   5.920   4.842  1.1598 -1.9115  0.0964
  349MOL0     H47052  10.995   5.890   5.075 -0.0388  1.0767 -1.2942
  349MOL0     H47053  11.158   5.955   5.111 -0.8030  2.5665  0.3092
  349MOL0     H47054  11.128   5.754   4.902 -0.3978  3.8956 -0.9275
  349MOL0     H47055  11.104   5.690   5.065 -1.5107  0.9553 -0.5766
  349MOL0     H47056  11.359   5.818   4.960 -2.1390  2.5855  0.2724
  349MOL0     H47057  11.323   5.794   5.134 -1.5568 -3.7323  2.7276
  349MOL0     H47058  11.286   5.548   5.068  2.0049 -1.0658 -0.3821
  349MOL0     H47059  11.316   5.594   4.898 -3.4737  0.9052  0.4366
  349MOL0     H47060  11.534   5.657   4.949  0.7998  2.2815  1.3939
  349MOL0     H47061  11.520   5.600   5.125 -1.9484 -0.7795 -0.8345
  349MOL0     H47062  11.527   5.421   4.875 -3.1551  0.8121 -0.4843
  349MOL0     H47063  11.470   5.373   5.025 -0.9985  1.0437 -0.9823
  349MOL0     H47064  11.742   5.469   4.957 -1.8369  2.2544 -1.4017
  349MOL0     H47065  11.693   5.462   5.118 -3.2229 -0.7076  1.0701
  349MOL0     H47066  11.792   5.227   5.257 -1.1908  1.6102 -0.8167
  349MOL0     H47067  11.798   4.936   5.285  0.6431  0.1678  0.1630
  349MOL0     H47068  11.882   4.899   5.123  2.1884  1.5731 -1.0155
  349MOL0     H47069  12.028   5.104   5.156  0.4757 -0.5061 -1.0896
  349MOL0     H47070  11.987   5.119   5.323  1.5687  4.1032 -2.8912
  349MOL0     H47071  12.096   4.856   5.217  1.9272  0.7723 -0.4613
  349MOL0     H47072  12.024   4.890   5.375  1.5333  0.4994  0.7262
  349MOL0     H47073  12.282   4.887   5.389  0.5546  0.9665 -0.3104
  349MOL0     H47074  12.229   5.051   5.420 -2.9943  0.1527 -0.0493
  349MOL0     H47075  12.545   5.135   5.129  2.6891 -0.5073 -0.7319
  349MOL0     H47076  12.740   4.986   5.071  0.9635 -1.4562  1.3495
  349MOL0     H47077  12.958   4.632   4.854  2.5258  0.3957  2.0328
  349MOL0     H47078  13.080   4.430   4.796 -0.5817 -1.1591 -1.5969
  349MOL0     H47079  12.983   4.151   4.638 -0.3131 -1.7465  0.6032
  349MOL0     H47080  13.115   4.247   4.691 -2.4681  1.1080 -0.4319
  349MOL0     H47081  13.188   4.056   4.600  2.8307  1.0913  1.5768
  349MOL0     H47082  13.225   4.027   4.778  1.9342 -1.0924 -0.7252
  349MOL0     H47083  12.970   3.930   4.770  1.9139 -0.2671  2.4400
  349MOL0     H47084  13.016   3.883   4.611 -5.4718  2.5621  0.9715
  349MOL0     H47085  13.198   3.827   4.857  1.3882 -1.3969 -0.1314
  349MOL0     H47086  13.210   3.754   4.699 -1.0579  1.3326  0.1095
  349MOL0     H47087  12.974   3.710   4.913 -1.6765 -1.6521  0.3209
  349MOL0     H47088  13.107   3.599   4.884  1.9023 -0.0539  0.0804
  349MOL0     H47089  12.957   3.668   4.638 -0.6100 -1.4383 -1.3639
  349MOL0     H47090  13.064   3.530   4.686  0.1603 -0.1498  1.9641
  349MOL0     H47091  12.777   3.612   4.785  2.3824  2.8712  0.2710
  349MOL0     H47092  12.881   3.463   4.844  0.9853  2.4702  0.7906
  349MOL0     H47093  12.688   3.422   4.692  0.3897  0.0576 -0.7612
  349MOL0     H47094  12.776   3.504   4.568  4.6355 -0.7031 -1.0853
  349MOL0     H47095  12.800   4.186   4.997 -0.3888  2.2741  2.9622
  349MOL0     H47096  12.651   4.381   5.021 -0.6458  4.2804  1.7470
  349MOL0     H47097  12.455   4.659   5.042  1.4212  0.7074  0.4704
  349MOL0     H47098  12.289   4.796   5.158  0.7723 -1.8146  4.1784
  349MOL0     H47099  11.353   5.893   4.676  2.1570  1.6197 -0.3988
  349MOL0     H47100  11.346   5.934   4.430  0.8573 -1.8933  1.1507
  349MOL0     H47101  11.286   6.320   4.159 -3.7013 -0.5469  2.2940
  349MOL0     H47102  11.384   6.371   3.949 -1.7324  0.7907 -1.3529
  349MOL0     H47103  11.272   6.161   3.583  0.6175 -2.3307 -1.2347
  349MOL0     H47104  11.411   6.091   3.649 -0.4267 -0.2554  0.5727
  349MOL0     H47105  11.499   6.179   3.432 -0.8870 -1.5635  1.2889
  349MOL0     H47106  11.563   6.281   3.553 -0.9304 -0.3455  2.1525
  349MOL0     H47107  11.296   6.363   3.455  1.4947  0.2116  3.4472
  349MOL0     H47108  11.401   6.368   3.329 -2.1414  3.1884 -0.4438
  349MOL0     H47109  11.480   6.496   3.579 -0.1031 -1.8440 -0.7685
  349MOL0     H47110  11.547   6.527   3.416  0.0295  1.6942  0.4116
  349MOL0     H47111  11.179   6.735   3.424 -0.7076  1.7628  0.8080
  349MOL0     H47112  11.227   6.033   3.754 -2.3499  0.7716 -1.1607
  349MOL0     H47113  11.069   5.917   3.851  3.4931  1.0433 -0.6471
  349MOL0     H47114  11.140   5.849   4.013 -2.5185  0.5878  3.2505
  349MOL0     H47115  10.984   5.932   4.006 -0.0963 -1.0408 -0.4282
  350MOL0     O47116  10.340   6.571   5.972  0.4801 -0.5575  0.6058
  350MOL0     C47117  10.318   6.559   6.094 -0.4354  0.6406  0.1451
  350MOL0     O47118  10.316   6.436   6.160  0.1412  0.1052  0.2617
  350MOL0     C47119  10.365   6.319   6.095 -0.2201  0.1905  0.1858
  350MOL0     C47120  10.339   6.196   6.150  0.0506  0.1934 -0.2732
  350MOL0     C47121  10.396   6.068   6.112 -0.7765 -0.3167  0.6213
  350MOL0     C47122  10.484   6.062   6.000 -0.3305 -0.0005 -0.2699
  350MOL0     O47123  10.542   5.949   5.970 -1.3031 -0.0577 -0.6811
  350MOL0     C47124  10.682   5.955   5.997  0.5968 -0.7370  0.0754
  350MOL0     C47125  10.721   5.825   6.058  0.2210  0.2160 -0.1343
  350MOL0     C47126  10.863   5.849   6.120 -0.2577  0.2396 -0.4077
  350MOL0     C47127  10.916   5.742   6.215  0.0544  0.2950 -0.0428
  350MOL0     C47128  11.030   5.664   6.154 -0.1963  0.9566  0.0408
  350MOL0     C47129  11.060   5.530   6.236  0.3220 -0.7709  0.4238
  350MOL0     C47130  11.168   5.434   6.185 -0.2545 -0.5662  0.5630
  350MOL0     C47131  11.161   5.392   6.041  0.3958 -1.7160  1.2022
  350MOL0     N47132  11.275   5.311   5.993 -0.4676 -0.6438 -0.2173
  350MOL0     C47133  11.408   5.320   6.031  0.9354 -0.2048 -0.3831
  350MOL0     C47134  11.461   5.226   5.947  0.5154 -0.2202  0.8698
  350MOL0     C47135  11.612   5.205   5.946 -0.8319  0.1493 -0.0316
  350MOL0     C47136  11.698   5.309   5.875 -0.1759 -0.0702  0.0120
  350MOL0     C47137  11.736   5.431   5.971  0.1918  0.2671 -0.1895
  350MOL0     C47138  11.867   5.504   5.931 -1.0683 -0.3213  1.4888
  350MOL0     O47139  11.977   5.412   5.924 -0.1867 -1.0170 -0.3669
  350MOL0     C47140  12.076   5.429   5.829 -0.5901 -0.1432 -1.0373
  350MOL0     C47141  12.150   5.319   5.801  0.4793  0.6811  0.2000
  350MOL0     C47142  12.270   5.321   5.719  0.6842  0.4772 -0.2816
  350MOL0     C47143  12.308   5.438   5.662 -0.5805  0.1553  0.6209
  350MOL0     C47144  12.437   5.439   5.597  0.0842  0.1410  0.7142
  350MOL0     O47145  12.480   5.311   5.562  0.6569  0.2960 -0.8172
  350MOL0     C47146  12.582   5.285   5.478 -0.9597 -0.7687  0.3341
  350MOL0     C47147  12.639   5.376   5.377  0.0342 -0.2153 -0.8852
  350MOL0     C47148  12.747   5.327   5.296 -0.0129  0.1608  0.5990
  350MOL0     C47149  12.803   5.201   5.315  0.2230 -0.4805 -0.9592
  350MOL0     O47150  12.895   5.174   5.225 -0.1771  0.0541 -0.0121
  350MOL0     C47151  12.966   5.051   5.244 -0.0026  0.2145 -0.8655
  350MOL0     C47152  13.099   5.066   5.165  0.3124 -0.1051  0.0303
  350MOL0     C47153  13.078   5.022   5.012 -0.8068 -0.3214  0.0208
  350MOL0     C47154  13.198   5.059   4.927 -0.0498 -0.1124 -0.5930
  350MOL0     C47155  13.330   4.994   4.982 -0.2239 -0.3660  0.1565
  350MOL0     C47156  13.341   4.833   4.974  0.4279  0.3448 -0.6741
  350MOL0     C47157  13.459   4.768   5.062  0.0024 -0.5288  0.8266
  350MOL0     C47158  13.466   4.619   5.034 -0.1252  0.5227 -1.9177
  350MOL0    Cl47159  13.487   4.558   4.857  0.7333  0.1600  0.1515
  350MOL0     C47160  12.746   5.108   5.404  0.9605  0.5849  0.7388
  350MOL0     C47161  12.630   5.149   5.489 -0.9540 -0.0623  0.2084
  350MOL0     O47162  12.495   5.547   5.568  0.8444 -0.7830  0.1181
  350MOL0     C47163  12.229   5.551   5.674  1.1120  0.1993 -0.8219
  350MOL0     C47164  12.119   5.555   5.765  0.4565  0.2666 -0.5724
  350MOL0     N47165  11.361   5.171   5.855 -0.1290  0.3050 -0.5832
  350MOL0     N47166  11.253   5.220   5.892  0.3440  0.3646  0.5095
  350MOL0     C47167  10.511   6.192   5.945 -0.2187  0.3613 -0.7027
  350MOL0     C47168  10.451   6.315   5.979 -0.5206  0.1169 -0.0203
  350MOL0     C47169  10.279   6.674   6.171  0.7096  0.4319 -0.8185
  350MOL0     C47170  10.232   6.651   6.302  0.4212 -0.3507  0.4106
  350MOL0     C47171  10.181   6.756   6.372  0.2067 -0.5987  0.6953
  350MOL0     C47172  10.166   6.884   6.318  0.0182  0.0492 -0.5672
  350MOL0     O47173  10.111   6.983   6.397 -0.2160 -0.8095 -0.2689
  350MOL0     C47174  10.135   7.123   6.363  0.5881 -0.3045  0.0419
  350MOL0     C47175   9.993   7.176   6.318 -0.5047 -0.5437 -0.3229
  350MOL0     C47176   9.880   7.166   6.420  0.1255  0.3378  1.0682
  350MOL0     C47177   9.748   7.172   6.358 -0.5641 -0.3822  0.0083
  350MOL0     C47178   9.724   7.302   6.300  0.3265  0.4597 -0.0644
  350MOL0     C47179   9.683   7.401   6.247 -0.1337 -0.0871  0.2193
  350MOL0     C47180  10.218   6.905   6.182 -0.2241 -0.6848 -1.0772
  350MOL0     C47181  10.283   6.803   6.120 -0.6020 -0.2353  0.4976
  350MOL0     C47182  10.350   6.846   5.992 -0.1240 -0.1891  0.6810
  350MOL0     H47183  10.273   6.183   6.236  2.6289  2.3822  2.2219
  350MOL0     H47184  10.364   5.989   6.178  1.3683 -2.3909 -0.6613
  350MOL0     H47185  10.714   5.974   5.894  0.5316 -0.7835  0.0478
  350MOL0     H47186  10.706   6.043   6.058 -3.5748  1.5676 -1.2413
  350MOL0     H47187  10.728   5.742   5.987  0.7824  1.8596 -2.0801
  350MOL0     H47188  10.647   5.803   6.136  0.3154  0.1578 -0.0611
  350MOL0     H47189  10.893   5.945   6.162  3.3710 -0.2836 -1.4026
  350MOL0     H47190  10.916   5.842   6.024 -0.5525  0.0160 -0.5560
  350MOL0     H47191  10.963   5.771   6.309  3.3524 -3.2372 -0.3708
  350MOL0     H47192  10.836   5.671   6.240  1.3956 -1.1189  0.3513
  350MOL0     H47193  11.006   5.643   6.050  0.3401  2.4131 -0.3968
  350MOL0     H47194  11.118   5.726   6.136  1.7168 -2.0660 -1.9729
  350MOL0     H47195  11.101   5.576   6.326 -0.6706  0.6087  0.2055
  350MOL0     H47196  10.977   5.463   6.259  0.6983 -2.1139 -1.7849
  350MOL0     H47197  11.182   5.334   6.228 -1.0179 -2.1354 -2.5270
  350MOL0     H47198  11.262   5.489   6.185 -0.7306  0.2606 -0.0748
  350MOL0     H47199  11.072   5.330   6.025 -0.0499 -0.8654  0.2134
  350MOL0     H47200  11.149   5.481   5.978  0.1390 -1.2069  1.9495
  350MOL0     H47201  11.474   5.395   6.072  0.2385  0.6178 -0.7231
  350MOL0     H47202  11.644   5.183   6.048 -2.4778  0.4364  0.5796
  350MOL0     H47203  11.628   5.116   5.885 -0.1937  0.4124 -0.2572
  350MOL0     H47204  11.791   5.266   5.837 -1.1792 -1.8694 -0.5358
  350MOL0     H47205  11.645   5.348   5.788 -3.6450  0.2898  2.0927
  350MOL0     H47206  11.768   5.403   6.072  0.4978 -2.0311 -0.8573
  350MOL0     H47207  11.660   5.509   5.978 -0.0907  0.0997 -1.2654
  350MOL0     H47208  11.902   5.573   6.008  3.5648 -1.5806  0.8451
  350MOL0     H47209  11.837   5.555   5.838 -3.3066  1.1179  2.9075
  350MOL0     H47210  12.133   5.229   5.858  3.5518 -0.7903 -0.9661
  350MOL0     H47211  12.320   5.225   5.716 -1.5915 -0.8662  1.2561
  350MOL0     H47212  12.601   5.476   5.358 -2.4765 -0.6577  1.2414
  350MOL0     H47213  12.795   5.412   5.248 -1.5385  0.6086 -0.1807
  350MOL0     H47214  12.978   5.054   5.353 -1.5002 -3.9993 -0.3783
  350MOL0     H47215  12.915   4.957   5.223  2.2729 -1.5392  0.8775
  350MOL0     H47216  13.129   5.171   5.164 -1.5754  0.4543 -1.1066
  350MOL0     H47217  13.170   5.007   5.225  3.6881  2.4105 -1.1909
  350MOL0     H47218  13.055   4.915   5.006 -0.9082 -0.2587 -0.7396
  350MOL0     H47219  12.993   5.076   4.970 -0.1863 -0.4772 -1.4957
  350MOL0     H47220  13.213   5.167   4.927  3.3456 -0.4344 -1.8503
  350MOL0     H47221  13.197   5.026   4.823  3.2533  2.4611 -1.6313
  350MOL0     H47222  13.342   5.022   5.087 -1.8203 -0.3973  0.3604
  350MOL0     H47223  13.410   5.051   4.934 -0.0491  1.3857  2.3552
  350MOL0     H47224  13.248   4.777   4.987  1.2592 -1.2229 -1.2048
  350MOL0     H47225  13.366   4.803   4.872  1.2000 -1.7836  0.0780
  350MOL0     H47226  13.442   4.795   5.166  0.4341  3.4658 -0.0012
  350MOL0     H47227  13.558   4.806   5.035 -0.1279 -0.1298  0.9170
  350MOL0     H47228  13.555   4.582   5.087  0.2585  1.6566 -1.7256
  350MOL0     H47229  13.377   4.578   5.081  1.6335 -0.4990  0.7455
  350MOL0     H47230  12.787   5.008   5.411  2.9359  1.1637 -1.2784
  350MOL0     H47231  12.574   5.071   5.538 -1.0343 -3.1588 -4.2262
  350MOL0     H47232  12.255   5.643   5.622 -3.8599  1.7806 -1.0620
  350MOL0     H47233  12.060   5.642   5.792  2.1205  0.4637  2.9241
  350MOL0     H47234  10.589   6.197   5.870  1.1200  2.9210  0.7165
  350MOL0     H47235  10.492   6.395   5.918 -1.4301  1.3373  0.9046
  350MOL0     H47236  10.241   6.555   6.351  4.5594  0.6433  2.0878
  350MOL0     H47237  10.126   6.745   6.465  0.6409  3.9245  1.7129
  350MOL0     H47238  10.216   7.142   6.292 -1.0901  0.1684 -1.8483
  350MOL0     H47239  10.172   7.171   6.454  0.3841 -1.3808  0.7084
  350MOL0     H47240   9.973   7.122   6.225  1.2759  1.9394 -2.2967
  350MOL0     H47241  10.013   7.280   6.290  0.7459  0.6213  4.1464
  350MOL0     H47242   9.891   7.246   6.495 -0.6827 -0.5923  2.2233
  350MOL0     H47243   9.894   7.070   6.472 -0.7368 -2.5672 -3.5388
  350MOL0     H47244   9.730   7.103   6.276 -1.1772  2.0716 -2.0614
  350MOL0     H47245   9.671   7.174   6.436 -0.2746  2.3373  0.3188
  350MOL0     H47246   9.644   7.485   6.193  0.0405  1.1855  1.9953
  350MOL0     H47247  10.206   6.999   6.129 -1.2313 -0.2255 -0.0813
  350MOL0     H47248  10.437   6.784   5.969  0.5043 -1.7842  6.0748
  350MOL0     H47249  10.280   6.859   5.908  3.1521 -0.9615 -2.4089
  350MOL0     H47250  10.387   6.949   6.002 -1.6089  0.3986  0.3890
  351MOL0     O47251   9.381   2.106   4.168 -0.5832  0.3514 -0.4725
  351MOL0     C47252   9.461   2.003   4.189  0.9150  0.3974  0.2762
  351MOL0     O47253   9.582   1.996   4.137 -0.1218  0.1632 -0.1989
  351MOL0     C47254   9.658   2.107   4.106  0.0888 -0.1144 -0.6988
  351MOL0     C47255   9.782   2.134   4.164 -0.1101 -0.3324  0.9522
  351MOL0     C47256   9.857   2.254   4.135  0.1366  0.7876  0.1313
  351MOL0     C47257   9.797   2.348   4.048 -0.2670  0.5990 -0.3721
  351MOL0     O47258   9.841   2.473   4.020 -0.2931  1.0876  0.2368
  351MOL0     C47259   9.980   2.512   4.045  0.1383  0.7378  0.4756
  351MOL0     C47260  10.063   2.436   3.943  0.2472  0.2498 -0.9626
  351MOL0     C47261  10.213   2.425   3.987  1.2003 -0.4597  0.1753
  351MOL0     C47262  10.293   2.427   3.861 -0.2154  0.9005 -0.2970
  351MOL0     C47263  10.439   2.396   3.895  0.1633 -0.8465 -0.7591
  351MOL0     C47264  10.527   2.335   3.780 -0.7800  0.0938  0.5433
  351MOL0     C47265  10.522   2.179   3.775  0.0976 -1.1316  0.0870
  351MOL0     C47266  10.575   2.100   3.898  0.1506  0.5384  0.4666
  351MOL0     N47267  10.669   1.990   3.846  0.1972 -0.8973  0.4400
  351MOL0     C47268  10.630   1.893   3.767 -0.3636 -0.8953 -0.9455
  351MOL0     C47269  10.739   1.809   3.765 -0.2150  0.0344 -0.5186
  351MOL0     C47270  10.744   1.669   3.693 -0.7594  0.2936  0.5471
  351MOL0     C47271  10.716   1.674   3.535 -0.7632 -0.0656 -0.4701
  351MOL0     C47272  10.709   1.529   3.502  1.3662  0.7221 -0.1759
  351MOL0     C47273  10.718   1.504   3.360 -1.1389  0.6367  0.8374
  351MOL0     O47274  10.605   1.557   3.295  0.5656  0.2841  0.3546
  351MOL0     C47275  10.639   1.616   3.180  0.3510 -0.4657  0.8493
  351MOL0     C47276  10.640   1.756   3.175 -0.0879  0.0253  0.0292
  351MOL0     C47277  10.679   1.815   3.053 -0.3292 -0.1454 -0.4526
  351MOL0     C47278  10.710   1.740   2.938 -0.1320  0.9042 -0.3593
  351MOL0     C47279  10.753   1.811   2.807 -0.7307  0.4583 -1.3506
  351MOL0     O47280  10.727   1.948   2.804 -0.5392 -0.5292 -0.8611
  351MOL0     C47281  10.785   2.018   2.698  0.4781 -0.4745 -0.4938
  351MOL0     C47282  10.743   1.999   2.570  0.3229  1.8000  0.1308
  351MOL0     C47283  10.799   2.069   2.464 -0.4704  0.0956  0.3513
  351MOL0     C47284  10.900   2.166   2.487 -0.9163  0.3423 -1.0957
  351MOL0     O47285  10.943   2.240   2.390  0.1382 -0.4273 -0.7659
  351MOL0     C47286  11.028   2.350   2.417  0.5186  0.0329 -0.4313
  351MOL0     C47287  11.084   2.401   2.295 -0.6977 -0.6118 -0.7008
  351MOL0     C47288  11.120   2.551   2.330 -0.2174  0.6117  0.5022
  351MOL0     C47289  11.179   2.603   2.196  0.9130 -0.9041  0.0820
  351MOL0     C47290  11.198   2.756   2.195 -0.2785  0.6575  0.0694
  351MOL0     C47291  11.291   2.801   2.092 -1.5264 -0.8308 -0.1021
  351MOL0     C47292  11.271   2.953   2.055 -0.6652 -0.2973  0.0963
  351MOL0     C47293  11.320   3.050   2.165 -0.9641 -0.0823 -0.3426
  351MOL0    Cl47294  11.318   3.221   2.123  0.6549  0.2668 -0.0439
  351MOL0     C47295  10.930   2.189   2.621  0.1727 -0.1733 -0.0702
  351MOL0     C47296  10.888   2.107   2.724  0.9132 -0.4310  0.1026
  351MOL0     O47297  10.794   1.741   2.712  0.1365 -0.1846  0.0294
  351MOL0     C47298  10.712   1.597   2.948  0.5687  0.1262  0.2030
  351MOL0     C47299  10.662   1.536   3.066 -0.2937 -0.8379  0.1426
  351MOL0     N47300  10.838   1.855   3.843 -0.3404 -0.2223  0.3219
  351MOL0     N47301  10.783   1.962   3.909  1.2072  0.4090  0.8565
  351MOL0     C47302   9.682   2.323   3.991 -0.6454  0.3894 -0.3869
  351MOL0     C47303   9.613   2.211   4.020 -0.8056 -0.0831 -0.6047
  351MOL0     C47304   9.401   1.878   4.246 -0.0384 -0.1999 -0.1219
  351MOL0     C47305   9.490   1.768   4.261  0.6904 -0.0274  0.6116
  351MOL0     C47306   9.451   1.642   4.312 -0.0346  0.0269  0.2721
  351MOL0     C47307   9.316   1.628   4.354 -0.1889  0.1030 -0.0626
  351MOL0     O47308   9.270   1.503   4.398 -0.0853 -0.4314 -0.2661
  351MOL0     C47309   9.362   1.401   4.450 -0.8170  0.1960 -0.7554
  351MOL0     C47310   9.286   1.268   4.467 -0.4751 -0.6408  0.2127
  351MOL0     C47311   9.386   1.186   4.557 -0.6598 -0.1066 -0.7046
  351MOL0     C47312   9.324   1.050   4.590 -0.1571 -1.1106  0.1974
  351MOL0     C47313   9.376   1.002   4.718  0.0924 -1.2264  0.4144
  351MOL0     C47314   9.436   0.973   4.824 -0.3401 -0.7507 -0.0634
  351MOL0     C47315   9.229   1.738   4.345 -0.0781  0.0523  1.2711
  351MOL0     C47316   9.271   1.860   4.301  0.1861  0.4360  0.9767
  351MOL0     C47317   9.174   1.978   4.299  0.5584 -0.8016  0.1454
  351MOL0     H47318   9.835   2.058   4.221  4.0152  0.1183 -1.8347
  351MOL0     H47319   9.954   2.262   4.183  1.2009  1.0419 -1.9144
  351MOL0     H47320   9.994   2.619   4.025 -1.7543  1.2664  1.6140
  351MOL0     H47321  10.009   2.485   4.147  0.2261 -0.1618  0.2196
  351MOL0     H47322  10.050   2.504   3.857 -1.8657  1.8562  0.5095
  351MOL0     H47323  10.016   2.341   3.915 -4.7322  1.0099  3.3465
  351MOL0     H47324  10.236   2.334   4.044 -2.2969 -0.6865  1.4653
  351MOL0     H47325  10.241   2.512   4.047 -2.2654  1.3303 -0.5612
  351MOL0     H47326  10.251   2.347   3.800  1.5292 -1.3438  1.2607
  351MOL0     H47327  10.276   2.528   3.823 -2.1730  1.1106  1.0072
  351MOL0     H47328  10.474   2.497   3.922 -0.7617 -0.4243 -1.1213
  351MOL0     H47329  10.447   2.327   3.980 -1.9171  0.8417  0.9433
  351MOL0     H47330  10.495   2.373   3.682 -2.8671 -2.3990  0.1415
  351MOL0     H47331  10.634   2.353   3.790 -0.9275 -0.0986  3.0790
  351MOL0     H47332  10.573   2.133   3.690  0.2146 -2.6619  0.9308
  351MOL0     H47333  10.415   2.163   3.758 -0.4282  2.3816 -0.5617
  351MOL0     H47334  10.638   2.167   3.958 -2.9675  1.4749  2.9586
  351MOL0     H47335  10.493   2.061   3.960 -0.4942 -0.6041 -1.0542
  351MOL0     H47336  10.530   1.880   3.727 -0.2673  0.9704 -1.8860
  351MOL0     H47337  10.839   1.615   3.704 -2.8541 -4.3999 -1.3147
  351MOL0     H47338  10.680   1.593   3.739 -3.1292  1.6678 -0.2733
  351MOL0     H47339  10.620   1.721   3.515 -1.1465 -1.3004 -1.7134
  351MOL0     H47340  10.800   1.728   3.490  1.9416 -2.2492  1.5054
  351MOL0     H47341  10.611   1.485   3.519 -0.3177  2.8597 -3.3432
  351MOL0     H47342  10.792   1.477   3.551  0.9756  0.4700  0.2227
  351MOL0     H47343  10.711   1.395   3.348 -1.5028  0.4016  2.7623
  351MOL0     H47344  10.814   1.539   3.321 -1.1260  0.2139  0.4726
  351MOL0     H47345  10.635   1.827   3.257  4.6377  0.9723 -0.2172
  351MOL0     H47346  10.669   1.922   3.045 -0.5898 -0.1556 -0.2875
  351MOL0     H47347  10.669   1.925   2.541  1.3225  1.7378 -2.4920
  351MOL0     H47348  10.784   2.049   2.358  1.6205  1.0904 -0.1794
  351MOL0     H47349  10.962   2.426   2.461  1.0425  1.3142 -1.7896
  351MOL0     H47350  11.108   2.317   2.484  0.2116 -1.8340 -0.9453
  351MOL0     H47351  11.175   2.347   2.270 -0.3378  0.0746 -0.9204
  351MOL0     H47352  11.008   2.395   2.217  0.2704 -0.4214 -1.6789
  351MOL0     H47353  11.027   2.604   2.354  0.0784  0.4522  2.0968
  351MOL0     H47354  11.198   2.563   2.405  0.8078  1.8709 -0.7030
  351MOL0     H47355  11.115   2.580   2.110 -1.9674  4.2640  0.4322
  351MOL0     H47356  11.278   2.563   2.173  0.4193 -0.1419 -4.1104
  351MOL0     H47357  11.226   2.785   2.297 -1.1432 -1.6408  1.0131
  351MOL0     H47358  11.095   2.784   2.173 -1.7597 -4.6606 -1.2341
  351MOL0     H47359  11.396   2.774   2.105 -2.0987 -4.1355 -1.4914
  351MOL0     H47360  11.269   2.751   1.997 -1.3161 -0.5881 -0.2818
  351MOL0     H47361  11.166   2.979   2.040 -0.8144 -0.6944  0.4240
  351MOL0     H47362  11.323   2.976   1.962 -1.2624  0.5797 -0.0282
  351MOL0     H47363  11.255   3.039   2.252 -1.3213 -0.7463 -0.6818
  351MOL0     H47364  11.422   3.027   2.197 -1.6731  1.2753  3.4749
  351MOL0     H47365  10.982   2.278   2.654 -1.2150  1.7614 -2.7287
  351MOL0     H47366  10.923   2.132   2.824  1.4966 -0.9719  0.0451
  351MOL0     H47367  10.727   1.530   2.864 -1.6171  0.7296 -0.7362
  351MOL0     H47368  10.651   1.428   3.056 -0.4633 -0.8049 -0.0212
  351MOL0     H47369   9.632   2.385   3.917  0.8420  1.5928 -0.4158
  351MOL0     H47370   9.515   2.197   3.975 -1.4393 -1.0391  1.0208
  351MOL0     H47371   9.596   1.774   4.238  1.0902  2.4042  2.7455
  351MOL0     H47372   9.523   1.565   4.339 -2.4916 -2.5924 -0.0623
  351MOL0     H47373   9.410   1.439   4.541  1.1032  0.0445 -1.6779
  351MOL0     H47374   9.446   1.389   4.381  3.0742  4.1364  2.6464
  351MOL0     H47375   9.252   1.222   4.374  1.6378 -1.2791 -0.3068
  351MOL0     H47376   9.201   1.298   4.529  0.1076  0.1036  0.6832
  351MOL0     H47377   9.405   1.241   4.650 -1.4064  0.3913 -0.8402
  351MOL0     H47378   9.477   1.166   4.500 -0.0053 -0.6835  0.5077
  351MOL0     H47379   9.215   1.047   4.596 -0.2564  0.5098 -0.2429
  351MOL0     H47380   9.349   0.968   4.522 -1.5954 -0.7144 -0.8749
  351MOL0     H47381   9.499   0.947   4.908 -0.9281 -1.9968  0.0126
  351MOL0     H47382   9.122   1.724   4.358 -0.6435  3.3697  1.0264
  351MOL0     H47383   9.071   1.947   4.318  0.2206  0.2410  0.0586
  351MOL0     H47384   9.194   2.043   4.384  1.3454  0.6827 -1.1238
  351MOL0     H47385   9.170   2.030   4.203 -1.5998 -0.4031  0.3961
  352MOL0     O47386  10.519   4.978   4.329  0.5348  0.1414 -0.5740
  352MOL0     C47387  10.460   5.037   4.235  0.3154  0.9653  0.8780
  352MOL0     O47388  10.320   5.031   4.210  0.0293  0.7864  0.1112
  352MOL0     C47389  10.248   5.017   4.333 -0.4000 -0.8168  0.4783
  352MOL0     C47390  10.211   4.896   4.390  0.4878  0.4272  0.5830
  352MOL0     C47391  10.146   4.886   4.516 -0.0881 -0.6079  0.3360
  352MOL0     C47392  10.106   5.006   4.578 -0.0177 -0.1902 -0.4855
  352MOL0     O47393  10.038   5.023   4.700 -0.6076  0.1907  0.3718
  352MOL0     C47394   9.971   4.911   4.764  0.3905 -0.0583 -1.2319
  352MOL0     C47395   9.888   4.967   4.889  0.0022  0.1205 -0.4451
  352MOL0     C47396   9.863   4.853   4.993 -0.2168 -1.0071  0.4739
  352MOL0     C47397   9.984   4.851   5.091 -0.9087 -0.4428  0.1677
  352MOL0     C47398   9.968   4.774   5.231  0.1319  0.7750  0.6380
  352MOL0     C47399   9.857   4.838   5.314 -0.3568  0.1759  0.0386
  352MOL0     C47400   9.883   4.972   5.375  0.5652  1.1593 -0.8110
  352MOL0     C47401  10.009   4.990   5.466  0.0140 -0.4869 -0.0943
  352MOL0     N47402  10.006   5.125   5.530  0.2238 -0.2222 -0.3635
  352MOL0     C47403  10.071   5.152   5.652 -0.2210 -0.0952  0.1338
  352MOL0     C47404  10.039   5.276   5.691  0.1811  0.2689  1.4700
  352MOL0     C47405  10.078   5.353   5.814  0.1033 -0.9517 -0.0372
  352MOL0     C47406   9.953   5.391   5.900  0.0693 -0.0951  0.1932
  352MOL0     C47407   9.869   5.279   5.948 -0.5963  0.4021 -0.7804
  352MOL0     C47408   9.898   5.246   6.098  0.4567  0.5834  0.1492
  352MOL0     O47409  10.031   5.201   6.130  0.9273  0.1194  0.1380
  352MOL0     C47410  10.068   5.076   6.097  0.6975 -1.0441  0.7912
  352MOL0     C47411  10.211   5.050   6.111 -0.4318 -0.6773  0.5387
  352MOL0     C47412  10.267   4.920   6.083  0.4873  0.7917  0.2792
  352MOL0     C47413  10.175   4.817   6.048 -0.5434  0.9825 -0.2340
  352MOL0     C47414  10.219   4.666   6.020 -1.1673 -0.8741 -0.2043
  352MOL0     O47415  10.351   4.647   6.036 -1.1729 -0.5414  0.4057
  352MOL0     C47416  10.417   4.529   6.007  0.5904  1.1542 -0.7731
  352MOL0     C47417  10.464   4.459   6.111  0.0954  1.1128 -0.6141
  352MOL0     C47418  10.503   4.325   6.093  0.7574  0.7706  0.4023
  352MOL0     C47419  10.508   4.263   5.966  0.1841 -0.8206  0.0184
  352MOL0     O47420  10.575   4.140   5.966  0.1540  0.3818  0.4332
  352MOL0     C47421  10.643   4.105   5.847 -0.5027  0.6153  0.0035
  352MOL0     C47422  10.710   3.968   5.864  0.6248  0.7374  0.1812
  352MOL0     C47423  10.605   3.859   5.890 -0.7471  0.3200 -0.4784
  352MOL0     C47424  10.583   3.817   6.040 -1.0950 -0.5763  0.8292
  352MOL0     C47425  10.494   3.698   6.062  0.3606  1.1575  0.4128
  352MOL0     C47426  10.347   3.740   6.015  0.5595 -0.8163  0.3716
  352MOL0     C47427  10.239   3.638   6.055  0.3095  0.3365 -0.4998
  352MOL0     C47428  10.117   3.652   5.964 -0.2907  0.1421 -0.0437
  352MOL0    Cl47429  10.006   3.511   5.994  0.0447 -0.4168  0.2913
  352MOL0     C47430  10.469   4.347   5.861 -0.5152 -0.5740 -0.1771
  352MOL0     C47431  10.421   4.476   5.881  0.2750 -1.1004  0.6577
  352MOL0     O47432  10.147   4.583   5.976 -0.0555 -0.8369 -0.5528
  352MOL0     C47433  10.039   4.840   6.033 -0.2768  0.8163 -0.5475
  352MOL0     C47434   9.990   4.967   6.065 -0.4887  0.1272  0.3342
  352MOL0     N47435   9.954   5.322   5.593  0.2253  0.7695 -0.2739
  352MOL0     N47436   9.950   5.239   5.492 -0.0288 -0.7103  0.4545
  352MOL0     C47437  10.136   5.127   4.513  1.6451 -0.0015  0.3415
  352MOL0     C47438  10.210   5.133   4.403 -0.4354 -0.3282  0.7793
  352MOL0     C47439  10.543   5.097   4.125  0.3610  0.4225 -0.3123
  352MOL0     C47440  10.476   5.183   4.040 -0.3510 -0.0277 -0.1101
  352MOL0     C47441  10.538   5.215   3.914 -1.0364 -0.1946 -0.7264
  352MOL0     C47442  10.670   5.184   3.890  0.4495  0.0859  0.0153
  352MOL0     O47443  10.715   5.224   3.769 -0.1239 -0.0767 -0.2098
  352MOL0     C47444  10.762   5.118   3.689 -0.3730  0.4915  0.5398
  352MOL0     C47445  10.778   5.162   3.545  0.4528  0.1871  0.0397
  352MOL0     C47446  10.645   5.210   3.489  0.4965 -0.5296  0.4581
  352MOL0     C47447  10.556   5.092   3.441 -0.0578 -0.0650 -0.4646
  352MOL0     C47448  10.478   5.022   3.541 -0.7701  0.2477 -0.6295
  352MOL0     C47449  10.421   4.956   3.633  0.0364 -0.2666  0.7321
  352MOL0     C47450  10.739   5.112   3.985 -0.6442  0.6188 -0.1015
  352MOL0     C47451  10.682   5.063   4.107  1.0107 -0.1151 -0.2636
  352MOL0     C47452  10.763   4.987   4.215 -0.2237  0.8819  0.6760
  352MOL0     H47453  10.244   4.810   4.332 -2.4723 -0.4171 -0.0661
  352MOL0     H47454  10.148   4.786   4.559  3.3135 -2.1419 -2.8546
  352MOL0     H47455   9.903   4.858   4.696 -0.1517 -0.8322 -0.1302
  352MOL0     H47456  10.039   4.840   4.812  0.5453  2.0812  1.9818
  352MOL0     H47457   9.796   5.012   4.851 -0.3585 -0.4584 -0.2605
  352MOL0     H47458   9.946   5.045   4.940 -0.0705  0.7094 -1.2565
  352MOL0     H47459   9.853   4.759   4.938  1.2947 -0.9177  0.0238
  352MOL0     H47460   9.777   4.886   5.053 -0.3563  3.0054 -1.5735
  352MOL0     H47461  10.070   4.811   5.037 -2.6233  1.4826 -4.5105
  352MOL0     H47462  10.007   4.954   5.119 -0.7820 -1.0055  2.2918
  352MOL0     H47463   9.944   4.670   5.204 -0.2746  1.4291 -1.7368
  352MOL0     H47464  10.056   4.773   5.296  1.2344 -1.9184 -0.7250
  352MOL0     H47465   9.766   4.842   5.253 -0.6532  0.1453  0.4705
  352MOL0     H47466   9.829   4.769   5.394 -1.1747 -1.4358 -1.5533
  352MOL0     H47467   9.798   4.999   5.438  1.4035 -0.2714  1.0077
  352MOL0     H47468   9.887   5.052   5.301  3.0733  2.2143  0.3683
  352MOL0     H47469  10.013   4.913   5.544  0.9914 -2.2479 -1.7781
  352MOL0     H47470  10.095   4.979   5.399  0.8259  1.0986  0.6205
  352MOL0     H47471  10.139   5.082   5.699  0.7456  1.7259  1.5781
  352MOL0     H47472  10.138   5.287   5.876  1.1855  2.6971  3.2068
  352MOL0     H47473  10.146   5.437   5.793 -0.5987 -0.2704  0.3398
  352MOL0     H47474   9.986   5.462   5.977  1.4495 -0.4125 -0.0629
  352MOL0     H47475   9.902   5.462   5.835 -0.8285  0.0014  0.9844
  352MOL0     H47476   9.867   5.184   5.894 -1.8155 -0.2713  0.3840
  352MOL0     H47477   9.770   5.325   5.952 -0.4272  0.9315 -2.1220
  352MOL0     H47478   9.813   5.192   6.142  1.4449  0.3248  1.8196
  352MOL0     H47479   9.894   5.344   6.148  0.4865  1.6547 -1.8426
  352MOL0     H47480  10.278   5.134   6.122  0.4278 -0.6295 -3.4532
  352MOL0     H47481  10.371   4.890   6.073 -0.1147 -1.1787 -0.6463
  352MOL0     H47482  10.458   4.515   6.204  1.6335  4.2023 -2.1987
  352MOL0     H47483  10.521   4.267   6.183  1.8587  0.1178 -0.2111
  352MOL0     H47484  10.573   4.110   5.763  0.4664  0.9590 -0.8115
  352MOL0     H47485  10.723   4.173   5.816 -1.5825  1.6735 -0.5878
  352MOL0     H47486  10.751   3.933   5.769  1.6684  2.1929  0.0666
  352MOL0     H47487  10.787   3.961   5.941  1.1069 -3.1021 -0.4382
  352MOL0     H47488  10.509   3.895   5.853 -1.3282  1.5126  1.9769
  352MOL0     H47489  10.615   3.761   5.843 -1.3213  0.0208  0.0096
  352MOL0     H47490  10.560   3.900   6.108  3.0764  0.1137  1.6843
  352MOL0     H47491  10.678   3.786   6.084 -0.2928 -2.3631 -1.9439
  352MOL0     H47492  10.494   3.675   6.169 -1.0737  1.4105  0.4818
  352MOL0     H47493  10.521   3.608   6.006 -3.5567 -2.2375  3.3186
  352MOL0     H47494  10.322   3.834   6.064  2.1412  0.5397 -1.2716
  352MOL0     H47495  10.341   3.758   5.907  3.2127  0.7369  0.3785
  352MOL0     H47496  10.213   3.646   6.161  2.0237 -3.2114  0.3298
  352MOL0     H47497  10.287   3.540   6.043 -0.6044 -0.2958  0.7542
  352MOL0     H47498  10.071   3.746   5.996 -4.2943 -1.4177 -0.6639
  352MOL0     H47499  10.137   3.659   5.856  0.8653 -0.5305  0.1166
  352MOL0     H47500  10.482   4.312   5.760  1.4526  1.4577 -0.6970
  352MOL0     H47501  10.385   4.520   5.788 -3.3944 -1.7589  1.5854
  352MOL0     H47502   9.970   4.759   6.009  1.3372 -1.6420  2.3463
  352MOL0     H47503   9.882   4.974   6.063 -0.3685  2.3212 -0.1777
  352MOL0     H47504  10.117   5.220   4.567 -0.3918  0.5133 -1.1290
  352MOL0     H47505  10.247   5.226   4.360 -0.5254 -0.5335  0.2544
  352MOL0     H47506  10.374   5.220   4.048 -0.4170  0.2764 -1.8697
  352MOL0     H47507  10.495   5.260   3.825 -3.8803 -0.8722  0.1910
  352MOL0     H47508  10.706   5.025   3.697  0.6577 -0.5451 -2.7589
  352MOL0     H47509  10.866   5.102   3.720 -1.1568  0.9102  3.7452
  352MOL0     H47510  10.825   5.089   3.478 -0.1785  1.2519 -1.6540
  352MOL0     H47511  10.849   5.246   3.545  0.6120  0.0792 -1.3887
  352MOL0     H47512  10.645   5.288   3.412  0.1904 -0.5060  0.4817
  352MOL0     H47513  10.589   5.265   3.565 -1.4877 -2.7520  0.7077
  352MOL0     H47514  10.485   5.128   3.367 -3.1670  2.9262  3.5144
  352MOL0     H47515  10.609   5.009   3.394 -0.4485 -0.8779  0.4880
  352MOL0     H47516  10.361   4.912   3.709  0.3563  1.4257  2.0146
  352MOL0     H47517  10.846   5.099   3.970  0.0610  1.8801  2.9911
  352MOL0     H47518  10.748   5.036   4.312  0.5523 -1.2913  1.9538
  352MOL0     H47519  10.736   4.882   4.228 -0.6299  1.2299  3.0760
  352MOL0     H47520  10.870   5.000   4.198  0.1356  0.6126  2.5173
  353MOL0     O47521   8.831   2.421   9.385 -0.2478 -0.0018 -0.3800
  353MOL0     C47522   8.717   2.380   9.407 -0.2376  0.2906 -0.1437
  353MOL0     O47523   8.604   2.452   9.392 -0.3838 -0.3585  0.2079
  353MOL0     C47524   8.606   2.585   9.422 -0.1059  0.3560 -0.3336
  353MOL0     C47525   8.652   2.635   9.548  0.1492  0.4163 -0.4787
  353MOL0     C47526   8.641   2.767   9.589  0.1531  0.0352 -0.4132
  353MOL0     C47527   8.581   2.859   9.507  0.7759 -0.7143 -0.5072
  353MOL0     O47528   8.572   2.985   9.557 -0.2253 -0.0509  0.1382
  353MOL0     C47529   8.446   3.043   9.551 -0.9336  0.9597  0.3512
  353MOL0     C47530   8.366   3.017   9.675  0.1228 -0.5275 -0.1696
  353MOL0     C47531   8.430   3.037   9.803 -0.6168  0.5383 -0.6144
  353MOL0     C47532   8.476   3.179   9.849 -0.4525  0.2689  0.1348
  353MOL0     C47533   8.594   3.178   9.961 -1.2506 -0.6010  0.2511
  353MOL0     C47534   8.726   3.158   9.885  0.5944 -0.3980 -0.3049
  353MOL0     C47535   8.839   3.180   9.970  0.5865 -0.5293 -1.0087
  353MOL0     C47536   8.963   3.156   9.890  0.5062 -0.2370 -0.2049
  353MOL0     N47537   8.996   3.014   9.895 -0.1544  0.0474  0.6114
  353MOL0     C47538   8.982   2.926   9.790  0.5937  0.7715  0.4596
  353MOL0     C47539   9.037   2.813   9.833  0.0477  0.2181  0.8820
  353MOL0     C47540   9.007   2.688   9.750 -0.6330 -0.3702  0.0047
  353MOL0     C47541   8.945   2.569   9.825  0.2381  0.4490  0.1541
  353MOL0     C47542   8.811   2.596   9.901  0.0803 -0.6971 -0.3837
  353MOL0     C47543   8.716   2.472   9.923  0.3109  0.4291 -0.1293
  353MOL0     O47544   8.790   2.394  10.013 -0.1558 -0.1312 -0.3202
  353MOL0     C47545   8.783   2.254  10.010  0.3712 -0.2997  0.2075
  353MOL0     C47546   8.658   2.190  10.006  0.3250  0.2672  0.0020
  353MOL0     C47547   8.640   2.047  10.020  0.5145  0.7768 -1.4862
  353MOL0     C47548   8.752   1.972  10.045  0.0903  0.9197 -0.0005
  353MOL0     C47549   8.734   1.825  10.083 -0.2685 -0.0826  0.6570
  353MOL0     O47550   8.835   1.739  10.056  0.8259 -0.7632  0.7790
  353MOL0     C47551   8.823   1.604  10.058  1.0044 -0.7949 -0.2293
  353MOL0     C47552   8.948   1.542  10.053  0.5746 -0.5112  0.4167
  353MOL0     C47553   8.959   1.392  10.058  0.5161 -0.1454  0.1808
  353MOL0     C47554   8.844   1.315  10.053 -0.2856  0.0705  0.3308
  353MOL0     O47555   8.833   1.180  10.054 -0.2140  0.3207 -0.2953
  353MOL0     C47556   8.951   1.104  10.031 -0.1336 -0.4368 -0.3668
  353MOL0     C47557   8.915   0.978   9.944  0.0212  0.5231 -0.2046
  353MOL0     C47558   9.038   0.876   9.915 -0.3991  0.1242 -0.4379
  353MOL0     C47559   8.997   0.769   9.820  1.1235  1.1657 -0.6806
  353MOL0     C47560   8.926   0.647   9.898 -0.3228  0.0197  0.1647
  353MOL0     C47561   8.814   0.574   9.819  0.7147  0.5201 -0.1296
  353MOL0     C47562   8.864   0.519   9.679 -0.5056  0.8056 -0.1831
  353MOL0     C47563   8.754   0.425   9.607 -0.6408 -1.2311 -0.5027
  353MOL0    Cl47564   8.784   0.360   9.447 -0.1690 -0.0870 -0.4495
  353MOL0     C47565   8.722   1.384  10.048 -0.0202 -0.0230 -0.2551
  353MOL0     C47566   8.707   1.524  10.044 -0.1202  0.4737  0.1169
  353MOL0     O47567   8.633   1.787  10.141 -0.5122 -0.6995  0.3921
  353MOL0     C47568   8.882   2.028  10.043 -0.4264 -0.0633 -0.2933
  353MOL0     C47569   8.893   2.167  10.033  0.4303 -0.3314 -0.2941
  353MOL0     N47570   9.081   2.826   9.968  0.0342 -0.2262  0.0719
  353MOL0     N47571   9.056   2.947  10.004 -0.5575 -0.1634  0.1443
  353MOL0     C47572   8.532   2.816   9.377 -0.3139 -0.7529 -0.4252
  353MOL0     C47573   8.551   2.685   9.339 -0.1987  0.3621  0.0710
  353MOL0     C47574   8.711   2.234   9.459 -0.0599  0.9854 -0.0655
  353MOL0     C47575   8.745   2.205   9.598 -0.3554  0.6900 -0.0975
  353MOL0     C47576   8.728   2.075   9.653 -0.1459  0.2683  0.2059
  353MOL0     C47577   8.699   1.968   9.566 -0.3012  0.1531 -1.1658
  353MOL0     O47578   8.683   1.836   9.608  0.0386 -0.3113  0.3933
  353MOL0     C47579   8.689   1.716   9.527 -0.5378  0.4461 -0.2912
  353MOL0     C47580   8.638   1.603   9.613  0.2528 -0.5923  0.3049
  353MOL0     C47581   8.478   1.606   9.622 -0.2208  0.8472 -0.1481
  353MOL0     C47582   8.410   1.525   9.728 -0.2301 -0.4460 -0.5310
  353MOL0     C47583   8.452   1.388   9.709 -0.2157 -0.5607 -1.0955
  353MOL0     C47584   8.491   1.273   9.700 -0.4805  0.0128  0.2005
  353MOL0     C47585   8.679   1.997   9.438  0.0292  0.0102 -0.0718
  353MOL0     C47586   8.688   2.126   9.376  0.4523 -0.5677 -0.1583
  353MOL0     C47587   8.643   2.137   9.228  0.4794  0.2504 -0.1483
  353MOL0     H47588   8.696   2.570   9.624  1.4534  2.3157  0.4807
  353MOL0     H47589   8.687   2.800   9.681 -2.3162 -0.4195  1.0741
  353MOL0     H47590   8.460   3.151   9.540 -1.9721  0.8483 -3.9357
  353MOL0     H47591   8.384   3.020   9.463 -1.4118 -2.6510  1.4722
  353MOL0     H47592   8.336   2.912   9.670 -0.1754 -0.3995 -1.8810
  353MOL0     H47593   8.285   3.089   9.672  0.7705  0.2309  0.1128
  353MOL0     H47594   8.515   2.968   9.808  0.5348  2.0305  2.1634
  353MOL0     H47595   8.363   3.001   9.882 -0.6448  1.9631  0.0390
  353MOL0     H47596   8.526   3.233   9.768  4.3294 -2.3155  0.9962
  353MOL0     H47597   8.388   3.231   9.888 -2.8259 -0.7291 -3.5130
  353MOL0     H47598   8.587   3.279  10.001  0.7844 -0.1672 -0.4067
  353MOL0     H47599   8.586   3.097  10.035 -2.0297 -0.4443  0.3489
  353MOL0     H47600   8.731   3.060   9.836  1.7676 -0.4524 -0.1190
  353MOL0     H47601   8.744   3.226   9.801  2.3020  0.1734  0.4669
  353MOL0     H47602   8.822   3.121  10.061 -0.5946 -1.5821 -1.8761
  353MOL0     H47603   8.841   3.284  10.002  1.0651 -1.1241  1.1275
  353MOL0     H47604   8.959   3.188   9.785  3.7476  3.2283  0.5199
  353MOL0     H47605   9.047   3.208   9.935  1.0599 -2.1283  1.0575
  353MOL0     H47606   8.947   2.946   9.689  0.8318 -0.2912  0.1570
  353MOL0     H47607   8.932   2.719   9.677  0.1809  2.3360  0.2369
  353MOL0     H47608   9.093   2.659   9.688 -2.1619 -0.7137 -2.0727
  353MOL0     H47609   8.927   2.491   9.750 -1.3907  1.0774 -0.1494
  353MOL0     H47610   9.018   2.524   9.893 -0.4225 -3.2664 -1.3186
  353MOL0     H47611   8.761   2.680   9.851  1.7293  0.6213  0.0745
  353MOL0     H47612   8.830   2.642   9.998  0.6292  0.4778 -1.0253
  353MOL0     H47613   8.688   2.430   9.825 -2.8647  0.0897  0.8146
  353MOL0     H47614   8.619   2.507   9.958 -0.0662 -1.3434  0.7230
  353MOL0     H47615   8.581   2.261   9.977  0.1188  0.2378  0.4752
  353MOL0     H47616   8.543   2.000  10.020  1.0636 -0.3795 -1.0958
  353MOL0     H47617   9.033   1.600  10.020  1.2571 -0.8452  1.5106
  353MOL0     H47618   9.061   1.355  10.051  0.4464 -0.1121 -1.3122
  353MOL0     H47619   9.026   1.161   9.976  1.0154 -1.9375 -0.4368
  353MOL0     H47620   8.995   1.058  10.120  1.2078 -1.4483 -1.4828
  353MOL0     H47621   8.845   0.914   9.997  0.5517 -0.0892 -0.2322
  353MOL0     H47622   8.868   1.019   9.854  3.0564  1.3126 -1.5786
  353MOL0     H47623   9.121   0.935   9.874 -0.1762 -1.0189 -1.7257
  353MOL0     H47624   9.076   0.829  10.006 -0.8641  0.6541  0.0306
  353MOL0     H47625   9.084   0.723   9.773 -0.1814 -1.9595 -0.3482
  353MOL0     H47626   8.927   0.811   9.747  0.7659  2.4955  0.3827
  353MOL0     H47627   8.887   0.666   9.999 -1.0075 -4.2604  0.9096
  353MOL0     H47628   9.002   0.569   9.909 -1.4321 -1.1638 -0.3417
  353MOL0     H47629   8.776   0.485   9.869 -0.3516  0.8000 -0.4187
  353MOL0     H47630   8.737   0.649   9.795  3.6983  3.1717 -2.2516
  353MOL0     H47631   8.954   0.461   9.700  0.2625  2.8016  2.7811
  353MOL0     H47632   8.896   0.596   9.609  3.6858 -0.9417 -0.4920
  353MOL0     H47633   8.734   0.349   9.683 -0.4260  0.1880  1.0299
  353MOL0     H47634   8.663   0.486   9.601  0.6162  0.7725 -0.0336
  353MOL0     H47635   8.629   1.328  10.040  0.9576 -1.4055 -4.0727
  353MOL0     H47636   8.606   1.561  10.027 -1.5661 -2.6613  1.0849
  353MOL0     H47637   8.970   1.965  10.048  1.0617  1.8887 -0.6097
  353MOL0     H47638   8.986   2.223  10.037 -1.0042  2.3468 -1.9123
  353MOL0     H47639   8.492   2.892   9.309 -1.8637  0.0205  1.2423
  353MOL0     H47640   8.520   2.655   9.239 -0.8121 -3.2724  1.1941
  353MOL0     H47641   8.745   2.288   9.667  0.1174 -0.0704  0.8463
  353MOL0     H47642   8.724   2.058   9.760 -0.3539  2.3786  0.5747
  353MOL0     H47643   8.796   1.699   9.510 -0.7123  1.1049 -2.2855
  353MOL0     H47644   8.632   1.717   9.434 -1.4270  1.2504  0.2422
  353MOL0     H47645   8.683   1.612   9.713  0.5686 -0.9279  0.1932
  353MOL0     H47646   8.674   1.511   9.567 -3.9044 -1.6013 -1.3671
  353MOL0     H47647   8.446   1.578   9.521  0.0863 -2.2411  0.4924
  353MOL0     H47648   8.450   1.711   9.633  1.4840  1.4961 -1.4358
  353MOL0     H47649   8.441   1.570   9.823 -1.8299  2.5411 -1.2892
  353MOL0     H47650   8.304   1.542   9.707 -0.7218  0.7347  2.3778
  353MOL0     H47651   8.534   1.176   9.690  1.4692  0.6866  1.4125
  353MOL0     H47652   8.637   1.921   9.372  0.8711 -0.0162 -0.6003
  353MOL0     H47653   8.667   2.239   9.194  0.6964  0.8336  1.6152
  353MOL0     H47654   8.698   2.062   9.171  1.1879  0.1044  0.7123
  353MOL0     H47655   8.536   2.120   9.214 -0.0716  0.6537  2.8046
  354MOL0     O47656   8.325   2.987   4.864 -0.1768  0.8495  0.3067
  354MOL0     C47657   8.367   3.052   4.768 -0.3383 -0.7310 -0.4927
  354MOL0     O47658   8.491   3.033   4.718 -0.8403  0.2718  0.8952
  354MOL0     C47659   8.575   2.942   4.772  0.0873 -0.5513  0.4387
  354MOL0     C47660   8.544   2.813   4.783  1.2441  0.3332 -1.0381
  354MOL0     C47661   8.640   2.711   4.806 -0.6079  0.4395  0.5290
  354MOL0     C47662   8.772   2.747   4.824 -0.4262  0.1542  0.3336
  354MOL0     O47663   8.880   2.659   4.827 -0.6236 -0.5991 -0.2631
  354MOL0     C47664   8.852   2.520   4.848  0.3432 -0.8837 -0.1003
  354MOL0     C47665   8.984   2.437   4.863 -1.2484 -0.2170  0.4025
  354MOL0     C47666   9.065   2.472   4.987 -0.1047 -0.1193 -0.0259
  354MOL0     C47667   9.193   2.388   5.006  0.3765 -0.0643  0.1247
  354MOL0     C47668   9.214   2.340   5.145 -0.8170  0.5899  0.0039
  354MOL0     C47669   9.258   2.452   5.241  0.4934 -0.8968  0.0232
  354MOL0     C47670   9.182   2.437   5.372  0.3610  0.1307  0.2532
  354MOL0     C47671   9.206   2.550   5.479 -0.2454  0.0484  0.5652
  354MOL0     N47672   9.157   2.677   5.438 -0.1947 -0.3407  0.9575
  354MOL0     C47673   9.063   2.695   5.341 -0.3473 -0.8170 -0.1468
  354MOL0     C47674   9.043   2.827   5.337 -0.5124 -0.6959 -0.3397
  354MOL0     C47675   8.926   2.886   5.260  0.4839  0.0876  0.0749
  354MOL0     C47676   8.793   2.801   5.280  0.4776 -0.3116 -0.2506
  354MOL0     C47677   8.698   2.871   5.178  0.1258  0.1051 -1.0267
  354MOL0     C47678   8.556   2.816   5.190 -0.1265  0.0421 -0.7672
  354MOL0     O47679   8.498   2.901   5.295  0.5826  0.4024  0.0067
  354MOL0     C47680   8.377   2.970   5.277  0.2070 -0.3381  0.4859
  354MOL0     C47681   8.285   2.932   5.182  0.4701 -0.4501  0.1393
  354MOL0     C47682   8.156   2.992   5.177 -0.1533  0.6412  0.1624
  354MOL0     C47683   8.123   3.089   5.263 -0.6532  0.1856 -0.0219
  354MOL0     C47684   7.992   3.152   5.241  0.4621  0.3057 -0.9513
  354MOL0     O47685   7.942   3.158   5.108  0.5085 -0.4546 -0.8125
  354MOL0     C47686   7.816   3.197   5.084  0.9938 -0.0646  0.1830
  354MOL0     C47687   7.736   3.296   5.146  0.3566  0.7249  0.7826
  354MOL0     C47688   7.603   3.314   5.110 -0.6432 -0.0935 -0.1173
  354MOL0     C47689   7.550   3.238   5.003  0.7102 -0.8084 -0.6186
  354MOL0     O47690   7.422   3.264   4.958  0.1371  0.4884  0.7119
  354MOL0     C47691   7.347   3.382   4.989  0.3577  0.2088  0.2569
  354MOL0     C47692   7.211   3.390   4.917  1.2594  0.2810 -0.1605
  354MOL0     C47693   7.108   3.288   4.967  0.7775 -0.6405  0.1630
  354MOL0     C47694   6.978   3.334   4.890 -0.4743 -0.3500  0.2620
  354MOL0     C47695   6.881   3.217   4.910  0.4476 -0.0342  0.4552
  354MOL0     C47696   6.740   3.274   4.869  0.9029 -0.5800 -0.1641
  354MOL0     C47697   6.631   3.172   4.891  0.3660 -0.4729 -0.2997
  354MOL0     C47698   6.498   3.211   4.827  0.6581  0.3575 -0.4147
  354MOL0    Cl47699   6.500   3.151   4.664  0.4833 -0.1541  0.2222
  354MOL0     C47700   7.614   3.131   4.946  1.0962 -0.1647  0.9774
  354MOL0     C47701   7.748   3.120   4.983 -0.7189  0.4058  0.1623
  354MOL0     O47702   7.935   3.195   5.341 -0.6277  0.4732  0.4446
  354MOL0     C47703   8.213   3.119   5.362  0.0338 -0.4973  0.0227
  354MOL0     C47704   8.341   3.063   5.366  0.2275  0.3822 -1.0501
  354MOL0     N47705   9.120   2.892   5.431 -0.1289 -0.5600  0.4131
  354MOL0     N47706   9.185   2.800   5.495  0.4062  0.8549 -0.8976
  354MOL0     C47707   8.804   2.876   4.838  0.4580 -0.4565  0.0513
  354MOL0     C47708   8.714   2.976   4.804  0.5291 -0.7299 -0.8091
  354MOL0     C47709   8.268   3.147   4.706  0.2191  1.4724  0.0179
  354MOL0     C47710   8.334   3.253   4.642 -0.0971  0.1470 -0.4451
  354MOL0     C47711   8.267   3.347   4.570  0.0607  0.2555  0.9938
  354MOL0     C47712   8.125   3.349   4.571 -0.0741  0.3699  0.5596
  354MOL0     O47713   8.040   3.426   4.501  0.4904 -0.7866 -0.1388
  354MOL0     C47714   8.106   3.534   4.430 -0.5769 -0.7182  0.3040
  354MOL0     C47715   8.011   3.606   4.335  0.2779 -0.0558  0.2962
  354MOL0     C47716   7.910   3.676   4.425 -1.2397  0.1168  0.5451
  354MOL0     C47717   7.808   3.740   4.330 -0.8177 -0.8243  0.2379
  354MOL0     C47718   7.711   3.822   4.406 -0.0794  0.0296  1.2291
  354MOL0     C47719   7.641   3.899   4.469  1.5455  0.8240  0.3932
  354MOL0     C47720   8.056   3.241   4.641 -0.5503 -0.1927  0.2343
  354MOL0     C47721   8.126   3.134   4.703  0.4080  0.6337 -0.0799
  354MOL0     C47722   8.050   3.002   4.718 -0.2596  0.1366  0.0510
  354MOL0     H47723   8.442   2.782   4.764  0.9462  1.9859 -2.2716
  354MOL0     H47724   8.609   2.607   4.811 -4.0257  1.2180 -1.1204
  354MOL0     H47725   8.791   2.504   4.938  0.7404  0.4508  0.4328
  354MOL0     H47726   8.792   2.479   4.766  1.0218 -3.3786  0.5582
  354MOL0     H47727   9.037   2.462   4.771  0.2235 -1.0828  0.9831
  354MOL0     H47728   8.961   2.330   4.864  0.3492 -0.5833  1.0747
  354MOL0     H47729   8.991   2.449   5.064 -2.9279 -0.2142 -2.5321
  354MOL0     H47730   9.084   2.580   4.984  2.0143 -0.4564 -2.8882
  354MOL0     H47731   9.184   2.299   4.944  0.1101 -1.4671  2.1148
  354MOL0     H47732   9.285   2.438   4.971  0.9804 -0.4948  1.0697
  354MOL0     H47733   9.119   2.291   5.170 -0.0371 -1.8618 -1.4908
  354MOL0     H47734   9.288   2.260   5.134 -2.0549 -0.7825  1.2285
  354MOL0     H47735   9.367   2.451   5.256  1.0708  1.1321 -3.1243
  354MOL0     H47736   9.229   2.549   5.201 -2.0210 -2.1898 -1.5626
  354MOL0     H47737   9.214   2.340   5.413  0.6993 -0.1291 -0.5937
  354MOL0     H47738   9.078   2.420   5.344  0.6355 -0.4323 -0.4773
  354MOL0     H47739   9.146   2.506   5.558  0.6145 -1.9852  0.1374
  354MOL0     H47740   9.312   2.546   5.504 -0.4800 -3.8958  1.5485
  354MOL0     H47741   9.017   2.622   5.275  0.2404 -0.2088 -1.2634
  354MOL0     H47742   8.914   2.986   5.302 -3.6558  0.7977 -2.2747
  354MOL0     H47743   8.961   2.897   5.157  3.0256  2.7330  1.0784
  354MOL0     H47744   8.825   2.704   5.240  2.7264  0.1215  0.3850
  354MOL0     H47745   8.758   2.790   5.383 -0.1027  0.1674 -0.3881
  354MOL0     H47746   8.724   2.843   5.076  1.7475  2.2725 -1.2689
  354MOL0     H47747   8.692   2.978   5.198  7.5735  0.9750 -0.6778
  354MOL0     H47748   8.550   2.711   5.220 -3.0989  0.0313 -1.1098
  354MOL0     H47749   8.525   2.830   5.086  2.3773  3.2546 -1.2681
  354MOL0     H47750   8.318   2.858   5.109 -1.1440 -2.7786  1.6547
  354MOL0     H47751   8.090   2.962   5.096  0.3159 -0.9330  0.3266
  354MOL0     H47752   7.776   3.346   5.234  1.5410 -2.6449  2.3522
  354MOL0     H47753   7.546   3.386   5.170 -0.9184 -0.8591  0.5557
  354MOL0     H47754   7.330   3.381   5.097 -1.1362 -2.3871  0.0840
  354MOL0     H47755   7.413   3.466   4.965 -0.3141  1.5588  2.8435
  354MOL0     H47756   7.172   3.492   4.918  2.0149  0.5978 -1.4870
  354MOL0     H47757   7.223   3.375   4.809 -0.3177  0.6662 -0.4101
  354MOL0     H47758   7.136   3.194   4.918  0.7295  1.2568 -4.0003
  354MOL0     H47759   7.090   3.288   5.074  3.3577  1.7641  0.7204
  354MOL0     H47760   6.998   3.360   4.786 -0.8130  0.8392  0.4859
  354MOL0     H47761   6.934   3.426   4.929 -4.4148 -0.6558 -2.8203
  354MOL0     H47762   6.885   3.181   5.013  3.7002 -0.3339  0.3238
  354MOL0     H47763   6.906   3.122   4.861 -1.2857 -0.4936  0.3784
  354MOL0     H47764   6.716   3.364   4.926  1.2070 -2.4225  3.0679
  354MOL0     H47765   6.738   3.287   4.760  0.1403  1.2095  0.0323
  354MOL0     H47766   6.617   3.156   4.999  0.9252  0.3951 -0.0916
  354MOL0     H47767   6.661   3.072   4.860 -1.3970 -1.5336  1.1800
  354MOL0     H47768   6.411   3.166   4.875 -2.2921  4.0986 -1.7936
  354MOL0     H47769   6.481   3.319   4.829  1.7601  0.5656  2.3699
  354MOL0     H47770   7.563   3.066   4.876  1.9398  2.1716 -2.0496
  354MOL0     H47771   7.809   3.042   4.938  0.5758  0.8658  1.0675
  354MOL0     H47772   8.179   3.183   5.442 -2.9069 -1.2178 -0.5536
  354MOL0     H47773   8.405   3.081   5.452 -1.5243  1.6090  0.0476
  354MOL0     H47774   8.906   2.902   4.862  0.7999 -0.2372 -1.5364
  354MOL0     H47775   8.739   3.081   4.813  1.7189 -1.0728  0.1456
  354MOL0     H47776   8.442   3.262   4.633 -0.1567 -0.6854 -2.2740
  354MOL0     H47777   8.326   3.423   4.519  1.0733 -1.5580 -0.6759
  354MOL0     H47778   8.177   3.485   4.362 -1.9816  0.1159 -1.8876
  354MOL0     H47779   8.153   3.603   4.501  0.8976 -1.8047  0.4235
  354MOL0     H47780   7.956   3.547   4.261 -1.2687  2.5933 -0.7948
  354MOL0     H47781   8.082   3.677   4.293  1.6581 -2.0060 -0.8116
  354MOL0     H47782   7.953   3.766   4.472  0.6806  0.3378 -1.4965
  354MOL0     H47783   7.868   3.610   4.501 -1.6960  2.5435  2.5376
  354MOL0     H47784   7.856   3.802   4.254 -1.9078  1.5483  1.4054
  354MOL0     H47785   7.762   3.653   4.282  2.9615 -3.2563  0.5723
  354MOL0     H47786   7.589   3.982   4.512  0.8764  0.4506  0.3178
  354MOL0     H47787   7.950   3.255   4.628 -0.4144  0.3748 -0.3118
  354MOL0     H47788   7.975   2.986   4.641  0.6542  1.9699 -1.2808
  354MOL0     H47789   8.121   2.919   4.712  0.6695  0.9157  0.1329
  354MOL0     H47790   8.007   3.013   4.818  1.3560  2.1430  0.5911
  355MOL0     O47791   8.056   0.822  10.995  0.2734  1.1310 -0.6423
  355MOL0     C47792   8.166   0.812  10.948 -0.3919 -0.0978 -0.1971
  355MOL0     O47793   8.221   0.693  10.897 -0.0684 -0.3916 -1.0487
  355MOL0     C47794   8.142   0.591  10.886  0.0630  0.8783  0.4665
  355MOL0     C47795   8.150   0.490  10.984  0.2083 -0.6682  1.1903
  355MOL0     C47796   8.081   0.372  10.963 -0.4132  0.5578  0.4012
  355MOL0     C47797   8.005   0.338  10.852  1.0474  0.0686 -0.0831
  355MOL0     O47798   7.932   0.218  10.844  0.8039 -1.1762 -0.4684
  355MOL0     C47799   7.931   0.145  10.722 -0.0900  0.8054 -0.2802
  355MOL0     C47800   8.071   0.098  10.690 -0.0352 -0.0549 -0.9326
  355MOL0     C47801   8.110  -0.023  10.779  0.0190 -0.1014 -0.3778
  355MOL0     C47802   8.230  -0.099  10.725  0.4234  0.0328  0.2636
  355MOL0     C47803   8.292  -0.193  10.831  0.9594 -0.7091 -0.6830
  355MOL0     C47804   8.401  -0.288  10.774 -0.2196  0.0714  0.1437
  355MOL0     C47805   8.522  -0.226  10.702 -0.1147  0.7853 -0.4295
  355MOL0     C47806   8.631  -0.338  10.692 -0.4817 -0.2622 -0.3956
  355MOL0     N47807   8.719  -0.315  10.584  0.1112 -0.4566  0.7016
  355MOL0     C47808   8.696  -0.346  10.447  0.3461 -0.4236 -0.2747
  355MOL0     C47809   8.811  -0.309  10.382 -0.4134 -0.5644  0.5577
  355MOL0     C47810   8.820  -0.316  10.228 -0.4007 -0.5334 -0.2769
  355MOL0     C47811   8.939  -0.392  10.184  0.0716  1.0005  0.3297
  355MOL0     C47812   8.938  -0.403  10.030 -0.2207 -0.2459  0.4594
  355MOL0     C47813   9.048  -0.498   9.995  0.0215  0.1040  0.3335
  355MOL0     O47814   9.067  -0.515   9.860 -0.4794  0.7449 -0.1812
  355MOL0     C47815   9.197  -0.537   9.811  0.0932 -0.4920 -0.4988
  355MOL0     C47816   9.236  -0.473   9.691  0.1941  1.0621  0.3189
  355MOL0     C47817   9.369  -0.493   9.639 -0.4187 -0.3571  0.9306
  355MOL0     C47818   9.459  -0.572   9.702 -0.0839  0.5787 -0.5403
  355MOL0     C47819   9.594  -0.609   9.652  0.1184 -0.7828 -0.0848
  355MOL0     O47820   9.623  -0.554   9.528 -0.1983  0.2908 -0.4434
  355MOL0     C47821   9.743  -0.569   9.474  0.1085 -0.3547  0.3383
  355MOL0     C47822   9.741  -0.553   9.335 -0.1904 -0.9185  0.2630
  355MOL0     C47823   9.857  -0.565   9.259 -0.6335 -0.1375 -0.4107
  355MOL0     C47824   9.972  -0.599   9.326 -1.0796  0.8063 -0.2859
  355MOL0     O47825  10.097  -0.604   9.266  0.2323  0.9952 -0.1156
  355MOL0     C47826  10.094  -0.722   9.180  0.1002 -0.4447 -0.2240
  355MOL0     C47827  10.183  -0.710   9.062 -0.5845 -0.2322  0.0179
  355MOL0     C47828  10.142  -0.585   8.980 -0.4741 -0.3312 -0.5207
  355MOL0     C47829  10.227  -0.571   8.849 -0.8490  0.6310 -0.1751
  355MOL0     C47830  10.169  -0.461   8.764  0.4864  0.8173  0.0109
  355MOL0     C47831  10.050  -0.528   8.673 -0.2343 -0.0994 -0.3478
  355MOL0     C47832  10.006  -0.423   8.566  0.1424  0.0387 -0.0247
  355MOL0     C47833  10.103  -0.397   8.457 -0.9357 -0.5877 -0.0046
  355MOL0    Cl47834  10.022  -0.299   8.326  0.2315  0.1687 -0.8736
  355MOL0     C47835   9.971  -0.625   9.463 -0.3520  0.4563  0.2232
  355MOL0     C47836   9.862  -0.604   9.542  0.8618 -0.6807  0.4829
  355MOL0     O47837   9.651  -0.696   9.703  0.0428 -0.1859 -0.5702
  355MOL0     C47838   9.414  -0.647   9.817  0.3927 -1.7822  0.5716
  355MOL0     C47839   9.286  -0.631   9.867 -0.8686 -1.4027  0.6482
  355MOL0     N47840   8.888  -0.240  10.480 -1.2360 -0.7865  0.2822
  355MOL0     N47841   8.830  -0.243  10.592  0.8901 -0.3508 -0.7593
  355MOL0     C47842   7.986   0.447  10.765 -0.0382  0.5610  0.1581
  355MOL0     C47843   8.053   0.572  10.781  0.4381 -0.5244 -0.1846
  355MOL0     C47844   8.238   0.940  10.933 -0.0936 -0.4003  0.3412
  355MOL0     C47845   8.165   1.051  10.891  0.0209 -1.2748  0.2061
  355MOL0     C47846   8.227   1.174  10.854  0.0736 -0.0117 -0.3180
  355MOL0     C47847   8.365   1.196  10.858  0.1281  0.0824  0.0288
  355MOL0     O47848   8.410   1.323  10.830 -0.0643 -0.3259  0.5992
  355MOL0     C47849   8.548   1.358  10.830  0.1460  0.3246  0.7918
  355MOL0     C47850   8.635   1.321  10.715 -0.3269  0.5813 -0.2208
  355MOL0     C47851   8.563   1.341  10.572  0.5423  0.1537  0.2284
  355MOL0     C47852   8.513   1.489  10.564  1.0246  0.1115 -0.9939
  355MOL0     C47853   8.605   1.573  10.494 -0.1920 -0.5649 -0.7340
  355MOL0     C47854   8.681   1.655  10.443  0.9381 -0.5474 -0.3151
  355MOL0     C47855   8.445   1.087  10.897  0.5828  0.3543 -0.2653
  355MOL0     C47856   8.383   0.963  10.936  0.2643  0.2086 -0.3675
  355MOL0     C47857   8.476   0.851  10.966 -0.5898  0.3201 -1.1948
  355MOL0     H47858   8.203   0.521  11.073  0.0781  0.7592  0.7953
  355MOL0     H47859   8.086   0.298  11.042 -3.5788  1.1499  1.2972
  355MOL0     H47860   7.865   0.058  10.726 -2.9406  2.6399 -2.7122
  355MOL0     H47861   7.901   0.216  10.645 -1.8457  2.7481  2.0456
  355MOL0     H47862   8.143   0.180  10.685 -0.6471  0.7305  1.6743
  355MOL0     H47863   8.074   0.064  10.586 -1.2827 -5.3862  0.4497
  355MOL0     H47864   8.029  -0.096  10.781  0.2516 -0.3484  0.9890
  355MOL0     H47865   8.132   0.018  10.878 -3.7644  2.0286 -0.2360
  355MOL0     H47866   8.205  -0.158  10.636  1.5862 -2.0507  1.2453
  355MOL0     H47867   8.298  -0.023  10.685  0.7845 -0.8248 -0.8197
  355MOL0     H47868   8.341  -0.136  10.911  1.4998 -0.6195 -1.0744
  355MOL0     H47869   8.217  -0.262  10.870  2.6199 -1.5925  1.1759
  355MOL0     H47870   8.451  -0.338  10.857  1.2807  0.2322 -0.6325
  355MOL0     H47871   8.356  -0.364  10.710 -2.7605  1.4813  0.1276
  355MOL0     H47872   8.567  -0.144  10.759 -1.7809  1.7610 -0.4779
  355MOL0     H47873   8.491  -0.196  10.602  0.4894  0.2480 -0.7815
  355MOL0     H47874   8.686  -0.325  10.786  0.1367  0.1149 -0.7999
  355MOL0     H47875   8.590  -0.439  10.679 -0.1865 -0.4387  0.0270
  355MOL0     H47876   8.610  -0.383  10.392  0.2897 -1.1062  0.2605
  355MOL0     H47877   8.737  -0.358  10.170 -1.5767  4.0708 -2.3833
  355MOL0     H47878   8.807  -0.212  10.196  0.1612 -0.5826 -0.6927
  355MOL0     H47879   9.031  -0.342  10.214  0.5249  1.0425 -1.0327
  355MOL0     H47880   8.940  -0.490  10.234  5.4260  1.0212  0.7628
  355MOL0     H47881   8.964  -0.307   9.985  1.5546 -0.7376  0.3705
  355MOL0     H47882   8.846  -0.437   9.982  1.1936 -1.6830 -1.3738
  355MOL0     H47883   9.042  -0.603  10.024  0.3415 -0.1496 -0.5036
  355MOL0     H47884   9.140  -0.456  10.036  1.3907 -1.8637 -0.5600
  355MOL0     H47885   9.175  -0.402   9.636 -0.2875  0.9382  0.6905
  355MOL0     H47886   9.393  -0.443   9.546 -1.9952 -2.0678 -0.4543
  355MOL0     H47887   9.642  -0.540   9.293  0.5291  5.2582 -0.4377
  355MOL0     H47888   9.867  -0.565   9.151 -2.8105 -0.7026 -0.6604
  355MOL0     H47889  10.128  -0.801   9.248  0.5786 -0.6446 -0.6842
  355MOL0     H47890   9.993  -0.734   9.140 -0.0541  1.4680 -0.5189
  355MOL0     H47891  10.283  -0.706   9.107 -1.9125 -1.5921  3.5064
  355MOL0     H47892  10.178  -0.802   9.003 -0.4530 -0.1530 -0.1169
  355MOL0     H47893  10.036  -0.586   8.953 -0.6024 -0.4391 -0.0297
  355MOL0     H47894  10.158  -0.495   9.040  1.3919 -0.3481 -0.9333
  355MOL0     H47895  10.227  -0.666   8.795  4.7121  0.1559  0.0704
  355MOL0     H47896  10.331  -0.560   8.884 -0.5544  3.0390 -1.6101
  355MOL0     H47897  10.246  -0.411   8.705 -0.2439  2.7079  0.5561
  355MOL0     H47898  10.118  -0.392   8.833 -0.6141 -0.4275  0.4742
  355MOL0     H47899  10.067  -0.621   8.619 -2.7363 -0.3983 -0.7449
  355MOL0     H47900   9.967  -0.539   8.743 -0.1927  1.3180 -0.0419
  355MOL0     H47901   9.974  -0.332   8.617  1.5358  1.7303 -2.0310
  355MOL0     H47902   9.916  -0.465   8.520 -0.5790  1.1989  0.2780
  355MOL0     H47903  10.195  -0.354   8.498 -0.0572 -0.9223 -1.5096
  355MOL0     H47904  10.127  -0.497   8.418  1.4231  0.8132 -2.6051
  355MOL0     H47905  10.067  -0.654   9.505 -0.0188  1.8970  0.5148
  355MOL0     H47906   9.863  -0.613   9.650 -1.2512 -0.0934  0.5894
  355MOL0     H47907   9.483  -0.714   9.868  0.2715 -0.1593  3.0063
  355MOL0     H47908   9.265  -0.680   9.961  1.0740 -0.4421  1.6429
  355MOL0     H47909   7.912   0.442  10.685  1.4139 -1.0581 -1.1720
  355MOL0     H47910   8.045   0.656  10.713 -0.8919  2.2797  3.0871
  355MOL0     H47911   8.060   1.064  10.866  0.3184  0.4397 -0.2269
  355MOL0     H47912   8.155   1.246  10.816 -0.6830 -1.1727 -1.1273
  355MOL0     H47913   8.591   1.313  10.919  0.8941 -4.1678 -1.5511
  355MOL0     H47914   8.537   1.465  10.850  2.5778  0.9014 -0.4831
  355MOL0     H47915   8.657   1.215  10.734 -3.8984  0.1663  2.6412
  355MOL0     H47916   8.719   1.391  10.717 -0.6103  0.8978  1.3209
  355MOL0     H47917   8.469   1.287  10.558  0.1027  1.0398 -0.3315
  355MOL0     H47918   8.629   1.313  10.490  0.5309 -1.5470  0.7619
  355MOL0     H47919   8.414   1.485  10.517  0.4418  3.5883 -0.3390
  355MOL0     H47920   8.496   1.535  10.661  1.2610  1.9649 -1.7875
  355MOL0     H47921   8.734   1.737  10.399 -3.0144  1.7687 -1.2434
  355MOL0     H47922   8.550   1.087  10.869  0.5054 -1.5090 -0.6560
  355MOL0     H47923   8.431   0.765  11.017  0.5190  0.3870 -0.0564
  355MOL0     H47924   8.513   0.832  10.865  0.6595  0.2004 -0.7340
  355MOL0     H47925   8.561   0.869  11.033 -1.5015 -1.1505  0.4374
  356MOL0     O47926   2.449   3.175  10.802  0.0341 -0.9871  0.2038
  356MOL0     C47927   2.509   3.144  10.701  0.1411 -0.0139  0.4442
  356MOL0     O47928   2.571   3.230  10.611 -0.8315  0.3684 -0.0347
  356MOL0     C47929   2.587   3.366  10.637  0.6401  0.4224  0.2213
  356MOL0     C47930   2.669   3.411  10.739 -0.0823  0.0363  0.2393
  356MOL0     C47931   2.685   3.547  10.764 -0.9340 -0.6872 -0.2707
  356MOL0     C47932   2.635   3.648  10.672  0.8719  1.0869  0.3591
  356MOL0     O47933   2.648   3.776  10.705  0.5319 -0.6734  0.4985
  356MOL0     C47934   2.537   3.859  10.658  0.1608 -1.0338 -0.1785
  356MOL0     C47935   2.534   4.007  10.709 -0.1007  0.7544  0.8154
  356MOL0     C47936   2.557   4.013  10.864 -0.9282 -0.6070  0.8469
  356MOL0     C47937   2.508   4.152  10.903 -0.1430 -0.3929 -0.3043
  356MOL0     C47938   2.559   4.192  11.041  0.9672  0.0405  0.4347
  356MOL0     C47939   2.519   4.340  11.065  0.0408 -0.4814 -1.1087
  356MOL0     C47940   2.371   4.367  11.076 -0.2720  0.4075 -0.4472
  356MOL0     C47941   2.337   4.514  11.109  0.3445 -0.4268  0.2658
  356MOL0     N47942   2.349   4.560  11.252 -0.4684  0.0085 -0.0265
  356MOL0     C47943   2.441   4.641  11.309 -0.5587 -0.9830 -0.1152
  356MOL0     C47944   2.410   4.639  11.438  0.2598  0.0137 -0.6141
  356MOL0     C47945   2.486   4.708  11.552 -0.4701 -0.4102  0.3080
  356MOL0     C47946   2.440   4.857  11.551  0.3335 -0.6444 -1.2514
  356MOL0     C47947   2.308   4.888  11.643  0.3876 -1.1444  0.4911
  356MOL0     C47948   2.325   4.906  11.790 -1.3422 -0.9193  0.1798
  356MOL0     O47949   2.335   5.052  11.818  0.1544 -0.1147 -1.3731
  356MOL0     C47950   2.371   5.091  11.948  0.8027 -0.3560  0.3238
  356MOL0     C47951   2.384   5.224  11.970 -0.1373 -0.2028  0.1909
  356MOL0     C47952   2.413   5.279  12.099  0.4010 -0.7558  0.8988
  356MOL0     C47953   2.420   5.196  12.212  0.2826 -0.3468 -0.0372
  356MOL0     C47954   2.452   5.235  12.351  0.2181 -0.4194 -0.6860
  356MOL0     O47955   2.485   5.142  12.449 -0.1549  0.5102  0.8384
  356MOL0     C47956   2.536   5.171  12.570  0.0260 -0.5956  1.0650
  356MOL0     C47957   2.611   5.285  12.596  0.3645  0.5222  0.1734
  356MOL0     C47958   2.672   5.313  12.721 -0.4968  0.7240  1.0024
  356MOL0     C47959   2.645   5.221  12.827 -0.3393  0.8576 -0.1233
  356MOL0     O47960   2.696   5.228  12.952 -0.0187 -0.8430 -0.1510
  356MOL0     C47961   2.779   5.340  12.985 -0.7288  0.3629  0.1929
  356MOL0     C47962   2.840   5.303  13.123  0.4218  0.4297  0.7647
  356MOL0     C47963   2.740   5.284  13.242 -1.0308 -0.1895 -0.5974
  356MOL0     C47964   2.660   5.143  13.245 -0.0080  0.4071  0.3076
  356MOL0     C47965   2.622   5.111  13.384 -0.5646 -0.1084  0.2311
  356MOL0     C47966   2.547   4.979  13.399  0.0225 -0.4016 -0.6890
  356MOL0     C47967   2.512   4.955  13.542  0.7968 -0.2233 -1.0259
  356MOL0     C47968   2.472   4.813  13.584  0.2652 -0.3730  1.3490
  356MOL0    Cl47969   2.324   4.753  13.499  0.2853  0.8153  0.5333
  356MOL0     C47970   2.571   5.107  12.801 -1.1034  0.3875 -0.0743
  356MOL0     C47971   2.515   5.081  12.671 -0.5971 -0.1653  0.3833
  356MOL0     O47972   2.454   5.355  12.371  0.4809 -0.9254 -0.1492
  356MOL0     C47973   2.407   5.058  12.191 -0.1823 -0.0320  0.6455
  356MOL0     C47974   2.378   5.003  12.062 -1.0772 -0.8377  0.4873
  356MOL0     N47975   2.305   4.551  11.463 -0.0121  0.6984 -0.1751
  356MOL0     N47976   2.279   4.493  11.348  0.8862  0.7393  0.1629
  356MOL0     C47977   2.549   3.599  10.564  0.7146 -0.0465 -0.1198
  356MOL0     C47978   2.528   3.460  10.554 -0.0722 -0.5632 -0.7119
  356MOL0     C47979   2.517   2.999  10.665 -0.3558 -0.6777 -1.7112
  356MOL0     C47980   2.415   2.911  10.720 -1.1996  0.1774 -0.0600
  356MOL0     C47981   2.407   2.780  10.689 -0.1079  0.6099  0.2491
  356MOL0     C47982   2.499   2.733  10.602  1.0313 -0.8719  0.4826
  356MOL0     O47983   2.511   2.595  10.576 -0.6348  0.3834  1.1638
  356MOL0     C47984   2.503   2.556  10.434  0.4649  0.2701  0.5131
  356MOL0     C47985   2.495   2.397  10.400 -1.0669 -0.2277 -0.2625
  356MOL0     C47986   2.353   2.330  10.407  0.6069 -0.8404  0.6877
  356MOL0     C47987   2.250   2.380  10.300  0.9325  1.1449  0.2103
  356MOL0     C47988   2.118   2.334  10.344 -0.3442  0.1305  0.0965
  356MOL0     C47989   2.003   2.291  10.375 -0.2993 -0.8285 -0.1155
  356MOL0     C47990   2.597   2.811  10.547 -0.8528  0.0060 -1.2424
  356MOL0     C47991   2.614   2.942  10.581 -0.0439 -0.0792  0.6228
  356MOL0     C47992   2.736   3.015  10.545  0.1272 -0.1832 -0.3856
  356MOL0     H47993   2.716   3.338  10.804 -1.6701 -0.2123  1.1574
  356MOL0     H47994   2.744   3.585  10.847 -2.5160  1.3586  0.0066
  356MOL0     H47995   2.530   3.864  10.549  1.4740  0.4741 -0.2287
  356MOL0     H47996   2.442   3.814  10.690 -0.7280 -0.2828 -1.6586
  356MOL0     H47997   2.439   4.050  10.676 -0.6395  3.0721  4.8113
  356MOL0     H47998   2.608   4.057  10.646 -1.3418 -0.0996 -1.4459
  356MOL0     H47999   2.664   4.007  10.888  0.1943 -0.8706 -3.4410
  356MOL0     H48000   2.502   3.931  10.911 -3.5282 -2.1097 -4.1029
  356MOL0     H48001   2.547   4.223  10.829  1.1745 -2.1888 -1.4081
  356MOL0     H48002   2.399   4.143  10.901 -0.0254 -1.9224 -1.9794
  356MOL0     H48003   2.526   4.126  11.121  3.6641  0.8224  2.3520
  356MOL0     H48004   2.668   4.178  11.044  1.2029  0.6061 -2.3728
  356MOL0     H48005   2.568   4.373  11.157 -0.6819  0.1697 -0.9472
  356MOL0     H48006   2.556   4.391  10.975  2.5470 -1.2341 -0.5910
  356MOL0     H48007   2.350   4.314  11.170  0.2059 -0.2798 -0.7261
  356MOL0     H48008   2.309   4.325  10.997 -0.6292 -2.1881  1.0826
  356MOL0     H48009   2.406   4.578  11.054  0.8283  2.0079  3.4263
  356MOL0     H48010   2.241   4.551  11.072  1.9519  7.3818  2.1984
  356MOL0     H48011   2.519   4.694  11.254 -0.6103 -2.6982 -1.9324
  356MOL0     H48012   2.459   4.665  11.649  0.3026 -4.3421 -1.0258
  356MOL0     H48013   2.590   4.694  11.521  0.0093  0.1815  1.6137
  356MOL0     H48014   2.519   4.920  11.592 -0.0961 -0.9338  0.0644
  356MOL0     H48015   2.410   4.895  11.453 -0.2302  2.2238 -0.0501
  356MOL0     H48016   2.239   4.805  11.625  0.7855 -1.2073 -0.8039
  356MOL0     H48017   2.264   4.980  11.604  2.0789 -0.8602 -0.8502
  356MOL0     H48018   2.407   4.841  11.820  0.1367  0.6788 -0.2304
  356MOL0     H48019   2.230   4.871  11.831 -1.1131 -0.2352  1.3454
  356MOL0     H48020   2.384   5.290  11.884 -2.0876 -2.6294 -1.8479
  356MOL0     H48021   2.415   5.387  12.103 -1.8513 -0.6732  0.6587
  356MOL0     H48022   2.625   5.365  12.524 -2.6024 -1.3780 -2.7901
  356MOL0     H48023   2.712   5.414  12.730 -1.1532  1.0991 -0.1638
  356MOL0     H48024   2.859   5.354  12.912  1.2974  0.8239  2.3663
  356MOL0     H48025   2.720   5.431  12.997 -0.3889  0.4900  0.9920
  356MOL0     H48026   2.896   5.212  13.102  0.0980  0.2569  0.6508
  356MOL0     H48027   2.917   5.380  13.137  0.4927  0.9624 -2.0915
  356MOL0     H48028   2.809   5.295  13.327  0.4769 -0.0581 -1.7959
  356MOL0     H48029   2.685   5.378  13.239  0.1312  0.4892 -3.2137
  356MOL0     H48030   2.730   5.067  13.208  0.4889  1.0099 -0.0033
  356MOL0     H48031   2.568   5.137  13.186  1.5765 -2.0608 -2.2234
  356MOL0     H48032   2.561   5.194  13.421 -0.7728 -1.1336  2.2766
  356MOL0     H48033   2.716   5.104  13.439 -1.2596 -2.1793  1.2449
  356MOL0     H48034   2.449   4.982  13.349  0.5774  1.0861 -1.7361
  356MOL0     H48035   2.603   4.902  13.347  2.0767 -0.1375  0.9806
  356MOL0     H48036   2.430   5.022  13.568 -0.8205 -2.1247 -0.9429
  356MOL0     H48037   2.600   4.988  13.598  0.3336  2.5422 -1.8261
  356MOL0     H48038   2.553   4.743  13.562 -1.8640 -3.0532  1.5207
  356MOL0     H48039   2.459   4.805  13.692  0.9946 -2.0938  1.3331
  356MOL0     H48040   2.558   5.036  12.882 -2.1085  1.9637  1.2016
  356MOL0     H48041   2.484   4.981  12.644 -2.2970  0.2106  0.8545
  356MOL0     H48042   2.434   4.986  12.267  1.0932 -2.4593 -1.9303
  356MOL0     H48043   2.364   4.896  12.059 -2.7232 -0.6358 -2.3698
  356MOL0     H48044   2.502   3.673  10.500  3.2474  1.1111 -0.7802
  356MOL0     H48045   2.471   3.416  10.473  0.3190  0.6895 -1.7086
  356MOL0     H48046   2.343   2.957  10.787 -2.3479  1.6083 -2.1704
  356MOL0     H48047   2.334   2.721  10.743 -0.0053 -0.2535 -0.5232
  356MOL0     H48048   2.592   2.596  10.385  0.3421  0.8353  0.7487
  356MOL0     H48049   2.417   2.601  10.384  1.3198 -1.0962 -2.3684
  356MOL0     H48050   2.571   2.336  10.451 -2.2736 -0.3647  1.4841
  356MOL0     H48051   2.522   2.384  10.295 -2.2114 -0.8259 -0.5027
  356MOL0     H48052   2.311   2.350  10.506 -1.9365  1.3569 -0.7063
  356MOL0     H48053   2.364   2.221  10.400  1.2623 -0.8654  1.9109
  356MOL0     H48054   2.250   2.489  10.291 -0.3246  1.0105 -2.3874
  356MOL0     H48055   2.280   2.327  10.209  4.8024 -0.5749  2.3054
  356MOL0     H48056   1.908   2.259  10.411 -0.7010 -1.9872 -2.0652
  356MOL0     H48057   2.679   2.759  10.497 -0.8289  0.4509 -1.6812
  356MOL0     H48058   2.782   3.067  10.630  2.9763 -0.3159 -1.7268
  356MOL0     H48059   2.815   2.945  10.515  0.0305  0.3000 -1.8531
  356MOL0     H48060   2.720   3.081  10.459  0.2982 -1.2180 -1.2221
  357MOL0     O48061   0.779   1.104   7.921  0.0278  0.3350 -0.5316
  357MOL0     C48062   0.822   1.154   8.029  0.6633 -0.8284 -0.2403
  357MOL0     O48063   0.793   1.090   8.149 -0.0147  0.1140  0.6133
  357MOL0     C48064   0.698   0.998   8.139  0.0763 -0.0648  0.3575
  357MOL0     C48065   0.718   0.863   8.127 -0.2440 -0.8877  0.1934
  357MOL0     C48066   0.605   0.774   8.117  0.3371  1.3316 -0.2714
  357MOL0     C48067   0.476   0.821   8.145 -0.2176  0.4956  1.1438
  357MOL0     O48068   0.363   0.748   8.150  0.0297  0.0745  0.1284
  357MOL0     C48069   0.343   0.652   8.045  0.0853  1.5441  0.2557
  357MOL0     C48070   0.192   0.644   7.994 -0.7663 -0.1229  0.4693
  357MOL0     C48071   0.108   0.563   8.095 -0.6347 -0.0976  0.6622
  357MOL0     C48072   0.124   0.412   8.066  0.5797  0.7083 -0.8444
  357MOL0     C48073   0.029   0.334   8.158  0.4224  0.2286  1.1983
  357MOL0     C48074   0.062   0.336   8.305  0.6222  0.5198  0.1692
  357MOL0     C48075  -0.007   0.218   8.375  0.4016  0.7247  0.3800
  357MOL0     C48076  -0.148   0.211   8.348 -0.0181  0.2053 -0.7185
  357MOL0     N48077  -0.223   0.112   8.432 -0.2699 -0.6065 -0.3936
  357MOL0     C48078  -0.257  -0.013   8.399 -0.0880 -0.4357  0.1950
  357MOL0     C48079  -0.315  -0.053   8.510 -0.2637  0.5905  0.3017
  357MOL0     C48080  -0.371  -0.190   8.526  0.6096  0.0839  0.1465
  357MOL0     C48081  -0.354  -0.261   8.663  0.3529 -0.2798  0.9117
  357MOL0     C48082  -0.324  -0.414   8.650  0.0933 -1.0407  0.2011
  357MOL0     C48083  -0.323  -0.494   8.782 -0.4804 -0.0835  0.2357
  357MOL0     O48084  -0.327  -0.635   8.760  0.9344 -0.1563 -0.9381
  357MOL0     C48085  -0.294  -0.714   8.864 -0.5237 -0.2135  0.6477
  357MOL0     C48086  -0.285  -0.671   8.995 -0.3042  0.1324 -0.5910
  357MOL0     C48087  -0.247  -0.756   9.104  0.0412 -0.4588  0.4035
  357MOL0     C48088  -0.231  -0.889   9.081 -0.5642  0.0197 -0.9405
  357MOL0     C48089  -0.221  -0.980   9.195  0.6251  0.2573 -0.8773
  357MOL0     O48090  -0.160  -1.100   9.175 -0.5603  0.5307  0.1644
  357MOL0     C48091  -0.156  -1.189   9.281 -0.4909  0.3960  0.8329
  357MOL0     C48092  -0.023  -1.226   9.319 -0.2537 -0.6619 -0.5896
  357MOL0     C48093   0.005  -1.328   9.412 -0.3581 -0.4731  0.5586
  357MOL0     C48094  -0.097  -1.391   9.484  0.0393  0.8696 -0.5585
  357MOL0     O48095  -0.077  -1.485   9.586 -0.3316 -0.5523 -0.8409
  357MOL0     C48096   0.047  -1.554   9.619 -0.5880 -0.7266 -0.1769
  357MOL0     C48097   0.042  -1.700   9.652  0.0140  0.5266 -0.0986
  357MOL0     C48098  -0.006  -1.744   9.796  0.1737  0.1792  0.0027
  357MOL0     C48099  -0.155  -1.741   9.798  0.0707 -0.0671  0.6045
  357MOL0     C48100  -0.201  -1.835   9.909  0.1321 -0.9015  0.4429
  357MOL0     C48101  -0.356  -1.808   9.922 -0.0605  0.4629 -0.1554
  357MOL0     C48102  -0.438  -1.918   9.983 -0.4498 -0.0350 -0.4568
  357MOL0     C48103  -0.433  -2.063   9.932 -0.9022  0.0523  0.7492
  357MOL0    Cl48104  -0.553  -2.166  10.003 -0.4216  0.1578 -0.1402
  357MOL0     C48105  -0.227  -1.361   9.440  0.0414  0.5230  0.5814
  357MOL0     C48106  -0.256  -1.263   9.347 -0.6560  0.6125  0.1367
  357MOL0     O48107  -0.269  -0.942   9.303  0.1490  0.2423  0.1960
  357MOL0     C48108  -0.234  -0.934   8.953 -0.3427  1.0655  2.1644
  357MOL0     C48109  -0.263  -0.846   8.843 -0.3206  0.8046  1.0507
  357MOL0     N48110  -0.313   0.038   8.604  0.5182 -0.1687  0.5599
  357MOL0     N48111  -0.275   0.151   8.556  0.4385 -0.1250  0.1313
  357MOL0     C48112   0.461   0.950   8.160  0.3591  0.2650  0.2477
  357MOL0     C48113   0.566   1.042   8.154  0.2728  0.4296 -0.3417
  357MOL0     C48114   0.895   1.282   8.033  1.0441 -0.3045  0.2496
  357MOL0     C48115   0.984   1.298   8.148  0.7054  0.3176  0.7923
  357MOL0     C48116   1.033   1.422   8.178  1.0711  0.2268  0.0644
  357MOL0     C48117   1.008   1.525   8.095 -1.2873  0.4608  0.2346
  357MOL0     O48118   1.067   1.651   8.093  0.0930  0.5317 -0.3736
  357MOL0     C48119   1.188   1.685   8.173 -0.0575  0.6104 -0.2042
  357MOL0     C48120   1.234   1.824   8.139 -0.7936 -0.3114 -0.3072
  357MOL0     C48121   1.139   1.937   8.182  0.6367  0.1300 -0.2389
  357MOL0     C48122   1.209   2.080   8.187  0.3107 -0.4583  0.2558
  357MOL0     C48123   1.121   2.184   8.226 -0.2011 -0.2631 -0.0637
  357MOL0     C48124   1.061   2.274   8.274 -0.3897 -0.5129 -0.7200
  357MOL0     C48125   0.914   1.522   7.992 -0.3451  0.3448 -0.7887
  357MOL0     C48126   0.861   1.400   7.953  1.1988  0.9330  0.6574
  357MOL0     C48127   0.753   1.393   7.849  0.1317  0.7119  1.0171
  357MOL0     H48128   0.822   0.831   8.128  0.1073  0.2185  1.0272
  357MOL0     H48129   0.633   0.671   8.097  2.3528  1.6317  0.7121
  357MOL0     H48130   0.395   0.665   7.950  1.0251  2.2028  0.8434
  357MOL0     H48131   0.385   0.558   8.081 -0.7743  0.8031 -0.6037
  357MOL0     H48132   0.189   0.596   7.896 -1.6732  0.9465 -0.0434
  357MOL0     H48133   0.144   0.741   7.984 -1.2269 -0.5586 -2.4562
  357MOL0     H48134   0.003   0.588   8.079 -0.4391  0.2756 -0.0609
  357MOL0     H48135   0.134   0.596   8.196 -1.1967 -0.0260  0.7843
  357MOL0     H48136   0.095   0.390   7.962  1.7119 -1.0269 -0.8271
  357MOL0     H48137   0.228   0.387   8.085  0.6318  3.0135  2.9590
  357MOL0     H48138  -0.076   0.360   8.137 -0.5075 -3.3153  0.7862
  357MOL0     H48139   0.044   0.230   8.129  0.7525 -0.2214  2.8877
  357MOL0     H48140   0.171   0.340   8.302  0.6272 -0.0431 -1.6557
  357MOL0     H48141   0.021   0.430   8.344  0.8984  0.2535  1.1344
  357MOL0     H48142   0.015   0.224   8.482  0.5100  1.5774  0.3208
  357MOL0     H48143   0.045   0.125   8.352 -0.4465  0.6558 -1.4218
  357MOL0     H48144  -0.212   0.300   8.346 -3.0632 -1.8403 -0.8769
  357MOL0     H48145  -0.163   0.173   8.247 -0.8007 -1.7627  0.0908
  357MOL0     H48146  -0.227  -0.074   8.314  1.2944  0.3975  0.0467
  357MOL0     H48147  -0.478  -0.172   8.509  0.3943  1.8864  2.8229
  357MOL0     H48148  -0.327  -0.249   8.445  2.7680 -1.0264  2.0340
  357MOL0     H48149  -0.273  -0.216   8.721  2.1378  1.0009 -2.3063
  357MOL0     H48150  -0.452  -0.250   8.710  0.0062  0.2544  0.0746
  357MOL0     H48151  -0.225  -0.422   8.605  1.0506 -0.2891  2.0662
  357MOL0     H48152  -0.395  -0.464   8.584 -0.0783  1.3054 -1.5012
  357MOL0     H48153  -0.420  -0.461   8.819 -0.3685  3.9305 -2.4637
  357MOL0     H48154  -0.241  -0.466   8.849 -1.1489 -0.6174  1.3111
  357MOL0     H48155  -0.316  -0.570   9.019 -4.8200 -0.6915 -2.1151
  357MOL0     H48156  -0.263  -0.727   9.208 -0.8209 -0.0849  0.1754
  357MOL0     H48157   0.066  -1.181   9.275 -0.0624  1.6654  1.9401
  357MOL0     H48158   0.107  -1.363   9.423 -0.5056 -1.2926 -0.4680
  357MOL0     H48159   0.119  -1.551   9.537 -0.6879 -1.6459 -0.3082
  357MOL0     H48160   0.085  -1.500   9.706 -0.4731  1.5380 -1.5446
  357MOL0     H48161  -0.014  -1.744   9.569 -4.6924  1.1054  2.4449
  357MOL0     H48162   0.139  -1.750   9.661 -0.5626 -0.9714 -1.7255
  357MOL0     H48163   0.014  -1.850   9.812 -1.6549 -0.5179 -1.9338
  357MOL0     H48164   0.044  -1.694   9.880 -3.0813  2.1640  0.9635
  357MOL0     H48165  -0.200  -1.766   9.701  0.2765 -3.5479  1.2546
  357MOL0     H48166  -0.189  -1.639   9.817 -1.0506  0.7272 -4.3487
  357MOL0     H48167  -0.150  -1.812  10.004  1.1538  2.2336 -0.7595
  357MOL0     H48168  -0.174  -1.935   9.874  1.5667  0.3546 -2.3111
  357MOL0     H48169  -0.363  -1.718   9.984 -3.7152 -0.2693  0.7316
  357MOL0     H48170  -0.397  -1.771   9.828 -1.4701 -1.0220 -0.1646
  357MOL0     H48171  -0.543  -1.888   9.976 -0.8546 -0.4633  2.4008
  357MOL0     H48172  -0.418  -1.918  10.091 -2.2471  0.2104 -0.0907
  357MOL0     H48173  -0.434  -2.069   9.823 -1.0978 -2.3575  0.8305
  357MOL0     H48174  -0.337  -2.105   9.963 -3.1102 -4.2556  2.5104
  357MOL0     H48175  -0.303  -1.419   9.492  1.5228 -0.8842  1.2619
  357MOL0     H48176  -0.349  -1.235   9.299 -0.8285 -0.5189 -0.2273
  357MOL0     H48177  -0.226  -1.042   8.953 -3.1857  0.7727  1.9067
  357MOL0     H48178  -0.255  -0.888   8.743 -1.2537  3.4811 -0.2488
  357MOL0     H48179   0.361   0.983   8.186  0.6745  0.9610  0.5937
  357MOL0     H48180   0.542   1.146   8.175 -0.6688  0.8726 -3.1875
  357MOL0     H48181   1.013   1.207   8.201 -1.7786 -2.8896 -2.7376
  357MOL0     H48182   1.103   1.425   8.260  4.6491 -2.4704 -2.5653
  357MOL0     H48183   1.266   1.611   8.152  1.4296  1.5458  1.6182
  357MOL0     H48184   1.169   1.679   8.281 -0.5754 -1.3208 -0.3571
  357MOL0     H48185   1.236   1.831   8.030 -4.1144 -0.1841 -0.4882
  357MOL0     H48186   1.325   1.860   8.187 -1.9410  1.2393  0.8103
  357MOL0     H48187   1.096   1.896   8.274 -2.2244  0.1830 -1.4704
  357MOL0     H48188   1.050   1.937   8.120 -1.0239 -1.0043  1.9838
  357MOL0     H48189   1.297   2.076   8.252  2.9421 -2.9648 -3.0962
  357MOL0     H48190   1.243   2.109   8.087  0.9049 -1.6582  0.0896
  357MOL0     H48191   0.989   2.340   8.318 -2.8133 -1.2361 -3.2829
  357MOL0     H48192   0.893   1.618   7.946  0.7015 -0.1227 -2.3230
  357MOL0     H48193   0.704   1.485   7.816  0.1094  0.4046  0.1602
  357MOL0     H48194   0.794   1.339   7.763 -1.1163 -1.8386  1.8836
  357MOL0     H48195   0.673   1.321   7.870  0.4662 -1.9088 -4.6706
  358MOL0     O48196   0.486   2.952   0.943  0.0351  0.0693  0.6218
  358MOL0     C48197   0.531   2.842   0.901 -0.0919 -1.4056 -0.4086
  358MOL0     O48198   0.622   2.830   0.802 -0.1037  0.2732 -0.1680
  358MOL0     C48199   0.624   2.924   0.699 -0.2900 -1.2208  0.1986
  358MOL0     C48200   0.525   2.918   0.601  0.6670  0.3407 -0.0290
  358MOL0     C48201   0.509   3.023   0.508 -1.1711  0.0653 -1.0476
  358MOL0     C48202   0.602   3.131   0.515 -0.4084  0.3841  0.5664
  358MOL0     O48203   0.623   3.215   0.409  0.3238  0.1047  0.2092
  358MOL0     C48204   0.499   3.296   0.385 -0.1189  0.6666  0.2007
  358MOL0     C48205   0.524   3.437   0.436  0.4160  1.3599  1.3982
  358MOL0     C48206   0.499   3.452   0.584  0.1833 -0.1472 -0.6599
  358MOL0     C48207   0.553   3.586   0.637 -0.0594  0.7359 -0.1341
  358MOL0     C48208   0.572   3.572   0.791 -0.0242 -0.4048  0.3728
  358MOL0     C48209   0.715   3.622   0.838 -0.3088  0.5353  0.1377
  358MOL0     C48210   0.739   3.773   0.824  0.5068  0.8256  0.7270
  358MOL0     C48211   0.670   3.843   0.956 -0.4605 -0.3592  0.0675
  358MOL0     N48212   0.671   3.994   0.940  0.5743  0.8311  0.4318
  358MOL0     C48213   0.570   4.057   0.865  0.0327  0.4778 -0.0146
  358MOL0     C48214   0.606   4.195   0.858  1.2527  1.1512 -0.0927
  358MOL0     C48215   0.510   4.295   0.795 -0.0880 -0.3885 -0.7250
  358MOL0     C48216   0.480   4.394   0.902  0.2490  0.5287 -0.5099
  358MOL0     C48217   0.351   4.474   0.886  1.0472 -0.5486 -0.5704
  358MOL0     C48218   0.222   4.388   0.903 -0.8318  0.2571 -0.7367
  358MOL0     O48219   0.097   4.453   0.872  0.0962 -0.3027 -0.3032
  358MOL0     C48220  -0.007   4.399   0.928  0.6624 -0.2404  0.1428
  358MOL0     C48221  -0.064   4.301   0.847 -0.0210 -0.2430 -0.0079
  358MOL0     C48222  -0.161   4.220   0.891  0.4262  0.3585 -0.2199
  358MOL0     C48223  -0.223   4.254   1.013 -0.4079  0.1748  1.0337
  358MOL0     C48224  -0.334   4.169   1.065  0.4590  0.2299  0.7807
  358MOL0     O48225  -0.385   4.072   0.982 -0.3181  0.2788 -0.2092
  358MOL0     C48226  -0.514   4.035   0.984 -0.6546  1.5033 -0.1767
  358MOL0     C48227  -0.551   3.921   1.057  0.1549  0.1414 -0.4267
  358MOL0     C48228  -0.682   3.888   1.083  0.7738 -0.0538  0.6848
  358MOL0     C48229  -0.776   3.959   1.007 -0.0014 -0.1458 -0.0039
  358MOL0     O48230  -0.910   3.934   1.032 -0.5234  1.0975 -0.3379
  358MOL0     C48231  -0.967   4.004   1.148  0.0565 -0.3105  0.7495
  358MOL0     C48232  -0.984   4.155   1.147 -0.4625  1.1111 -0.5617
  358MOL0     C48233  -0.874   4.220   1.226  0.2215  0.5532  0.1976
  358MOL0     C48234  -0.865   4.356   1.159  0.2856 -0.3888  0.0279
  358MOL0     C48235  -0.803   4.464   1.259  0.2305 -0.2881  0.0679
  358MOL0     C48236  -0.667   4.418   1.313 -0.2715  0.2864 -0.4994
  358MOL0     C48237  -0.613   4.534   1.405 -0.0460 -0.1142 -0.4382
  358MOL0     C48238  -0.676   4.550   1.550  0.3018 -0.2801  1.0918
  358MOL0    Cl48239  -0.815   4.656   1.518 -0.1597 -0.0892 -0.0939
  358MOL0     C48240  -0.744   4.070   0.926  0.5210 -0.0507  0.3676
  358MOL0     C48241  -0.613   4.113   0.920 -0.1961 -0.5633 -0.3323
  358MOL0     O48242  -0.384   4.207   1.171 -0.3417  0.2122 -0.1194
  358MOL0     C48243  -0.169   4.354   1.089  0.5419 -0.7798 -0.5166
  358MOL0     C48244  -0.059   4.426   1.054  1.3818 -0.7526  0.5893
  358MOL0     N48245   0.729   4.207   0.926  0.3545  0.0663 -0.3569
  358MOL0     N48246   0.766   4.089   0.973  0.7347  0.3657  0.3352
  358MOL0     C48247   0.706   3.123   0.600 -0.1605 -0.9019  0.1833
  358MOL0     C48248   0.721   3.029   0.698 -0.8717 -0.1196  0.0303
  358MOL0     C48249   0.516   2.713   0.974  0.0987  0.1772 -0.6273
  358MOL0     C48250   0.519   2.588   0.892  0.1337 -0.9276  0.1319
  358MOL0     C48251   0.499   2.459   0.940  0.2180 -0.3732 -0.7344
  358MOL0     C48252   0.457   2.442   1.070  0.0290  0.1006  0.1801
  358MOL0     O48253   0.451   2.314   1.131  0.3423  0.6270  0.3148
  358MOL0     C48254   0.494   2.199   1.054  0.6211  0.6663  0.4098
  358MOL0     C48255   0.511   2.083   1.151 -0.8802 -0.4871  0.5567
  358MOL0     C48256   0.401   2.067   1.252 -0.1885 -0.7525 -0.6719
  358MOL0     C48257   0.258   2.048   1.194  0.4503 -0.1776  0.3465
  358MOL0     C48258   0.248   1.907   1.142  0.0904  0.4679  0.3943
  358MOL0     C48259   0.215   1.802   1.100  0.4733  0.6328  0.3964
  358MOL0     C48260   0.438   2.561   1.146 -0.4078 -0.3117 -0.2474
  358MOL0     C48261   0.470   2.693   1.103  0.1094  0.0017 -0.2194
  358MOL0     C48262   0.450   2.806   1.198  0.1196 -0.0108 -0.3662
  358MOL0     H48263   0.455   2.835   0.600  1.7799 -0.6081  0.2935
  358MOL0     H48264   0.422   3.019   0.443 -2.9397  0.6514  1.1640
  358MOL0     H48265   0.478   3.311   0.279 -0.6207  0.3165  0.2490
  358MOL0     H48266   0.415   3.256   0.442  1.4528 -0.3672  1.9084
  358MOL0     H48267   0.450   3.497   0.382  0.2451 -0.1433 -0.1282
  358MOL0     H48268   0.623   3.462   0.398  0.3681 -3.7174 -3.3585
  358MOL0     H48269   0.547   3.381   0.653  1.0841  3.5875  2.9197
  358MOL0     H48270   0.391   3.447   0.597  0.1125  2.2655  0.1483
  358MOL0     H48271   0.645   3.609   0.583  1.5338 -2.3853  1.0687
  358MOL0     H48272   0.480   3.668   0.630  0.0670  1.1561  2.4876
  358MOL0     H48273   0.505   3.643   0.839  0.5347  0.3441  0.0647
  358MOL0     H48274   0.559   3.474   0.839  1.3473 -0.7329  0.1187
  358MOL0     H48275   0.747   3.600   0.941  1.5250 -0.3090 -0.5544
  358MOL0     H48276   0.782   3.563   0.774 -1.2685  1.0297 -1.3538
  358MOL0     H48277   0.701   3.812   0.729  1.2560  1.9514  0.8748
  358MOL0     H48278   0.844   3.802   0.822  1.8595 -3.4098 -1.2427
  358MOL0     H48279   0.572   3.795   0.959 -0.2453 -0.8933  4.3907
  358MOL0     H48280   0.717   3.806   1.047  1.7905  0.4733 -0.6931
  358MOL0     H48281   0.489   4.002   0.818  0.9840 -1.0570  0.0860
  358MOL0     H48282   0.546   4.339   0.702  0.4341  1.0904  0.1516
  358MOL0     H48283   0.417   4.245   0.767 -0.0157  0.6531 -3.0305
  358MOL0     H48284   0.474   4.350   1.002  4.4473 -1.1015 -0.7973
  358MOL0     H48285   0.569   4.458   0.903 -0.3061  1.3185  0.1279
  358MOL0     H48286   0.359   4.530   0.792  2.1363  0.9843  0.4024
  358MOL0     H48287   0.356   4.544   0.969 -0.8644 -2.9800  1.7735
  358MOL0     H48288   0.223   4.341   1.002 -0.1726 -0.2485 -0.9760
  358MOL0     H48289   0.238   4.301   0.839  0.4129  2.4482 -3.5945
  358MOL0     H48290  -0.006   4.294   0.756  0.7891 -0.4332  0.5158
  358MOL0     H48291  -0.199   4.153   0.814  0.2563  2.5703 -2.1684
  358MOL0     H48292  -0.474   3.863   1.108 -3.0240 -1.1398  3.5102
  358MOL0     H48293  -0.712   3.815   1.158  0.6653 -1.9169 -1.0851
  358MOL0     H48294  -1.068   3.962   1.159 -0.6519  1.3863  0.9908
  358MOL0     H48295  -0.915   3.957   1.231 -0.2971 -1.4094  0.3723
  358MOL0     H48296  -0.998   4.184   1.042 -0.9385 -1.4408 -1.2841
  358MOL0     H48297  -1.078   4.188   1.193 -0.8290 -0.3775 -0.1922
  358MOL0     H48298  -0.897   4.229   1.332  3.7898 -0.4087  1.1793
  358MOL0     H48299  -0.774   4.176   1.229  0.0668  0.1412 -0.4249
  358MOL0     H48300  -0.961   4.392   1.122  1.9839  0.9244 -3.5217
  358MOL0     H48301  -0.793   4.357   1.076  1.0067  1.3044  0.6277
  358MOL0     H48302  -0.874   4.468   1.343 -2.4488 -0.5976 -2.0330
  358MOL0     H48303  -0.788   4.552   1.196 -0.5301 -1.0190 -1.1785
  358MOL0     H48304  -0.658   4.325   1.370  1.6213  0.9403  0.3207
  358MOL0     H48305  -0.596   4.406   1.230  0.0499 -0.3960 -0.1350
  358MOL0     H48306  -0.622   4.629   1.351  0.7234 -0.9906 -2.1897
  358MOL0     H48307  -0.505   4.519   1.401 -0.0278  0.0051 -0.3927
  358MOL0     H48308  -0.702   4.451   1.588  0.9142 -1.3596 -1.1176
  358MOL0     H48309  -0.608   4.591   1.625  1.8217  2.5673 -1.6190
  358MOL0     H48310  -0.824   4.134   0.891  0.4244  0.2254  1.0786
  358MOL0     H48311  -0.581   4.209   0.880 -1.4025  0.2013  0.4721
  358MOL0     H48312  -0.207   4.366   1.190 -1.9529 -0.8014 -1.4010
  358MOL0     H48313  -0.015   4.500   1.120  1.9071  0.3744 -0.9585
  358MOL0     H48314   0.789   3.190   0.580 -2.3525  1.1885 -2.9758
  358MOL0     H48315   0.808   3.025   0.762 -0.2323 -2.3335 -0.8804
  358MOL0     H48316   0.540   2.593   0.785  1.9437 -0.8525  0.4626
  358MOL0     H48317   0.494   2.371   0.876 -0.9809 -1.2257  0.4816
  358MOL0     H48318   0.592   2.216   1.008 -0.8364 -0.8190 -3.6108
  358MOL0     H48319   0.412   2.181   0.985  0.1210  2.6672  0.4191
  358MOL0     H48320   0.603   2.100   1.208  0.7832  1.6945 -2.5124
  358MOL0     H48321   0.516   1.988   1.098 -0.5404 -0.1775  0.0306
  358MOL0     H48322   0.401   2.161   1.307 -2.6409 -0.6449 -0.7323
  358MOL0     H48323   0.425   1.984   1.320 -2.7322 -2.3922 -1.6182
  358MOL0     H48324   0.190   2.043   1.280  0.2275 -0.8346  0.1360
  358MOL0     H48325   0.229   2.123   1.121  1.8454  1.0539  0.9920
  358MOL0     H48326   0.199   1.700   1.070  1.6236  0.3867  0.5649
  358MOL0     H48327   0.409   2.547   1.250 -1.8588 -2.9274 -0.9187
  358MOL0     H48328   0.351   2.851   1.182 -0.8953 -2.6040 -1.9547
  358MOL0     H48329   0.444   2.769   1.301  1.2296 -0.0413 -0.3021
  358MOL0     H48330   0.527   2.884   1.194 -0.8897  1.0998  0.6211
  359MOL0     O48331   2.111   7.363   2.946 -0.0242  0.6050  0.4192
  359MOL0     C48332   2.191   7.367   2.850  0.1462 -0.3848 -0.0833
  359MOL0     O48333   2.159   7.330   2.716 -0.2302 -0.3860 -0.2288
  359MOL0     C48334   2.021   7.294   2.694  0.9458  0.2783 -0.0938
  359MOL0     C48335   1.993   7.174   2.632 -0.4565  0.5822  0.5721
  359MOL0     C48336   1.862   7.125   2.607  0.0563  0.3490  1.0502
  359MOL0     C48337   1.750   7.199   2.654  0.2463  0.2969  0.3378
  359MOL0     O48338   1.625   7.158   2.634  0.7190 -0.5918  0.5748
  359MOL0     C48339   1.524   7.196   2.729 -0.1065 -0.1355  0.2081
  359MOL0     C48340   1.401   7.108   2.712 -0.6031 -0.3340  0.7751
  359MOL0     C48341   1.291   7.129   2.819  0.9520  0.6689  0.4239
  359MOL0     C48342   1.176   7.021   2.803 -0.2612  0.2194  0.2468
  359MOL0     C48343   1.077   7.027   2.924  0.1688  0.6722  0.1205
  359MOL0     C48344   0.962   6.938   2.866  0.3625  0.6567  0.0328
  359MOL0     C48345   0.876   6.861   2.962  0.3437  0.7089 -0.0060
  359MOL0     C48346   0.772   6.768   2.900 -0.3023  0.2699 -0.6406
  359MOL0     N48347   0.674   6.838   2.818 -0.0399 -0.5016  0.0108
  359MOL0     C48348   0.582   6.929   2.855 -0.3930  0.2304  0.3915
  359MOL0     C48349   0.531   6.979   2.738 -0.7635  0.3469  1.0873
  359MOL0     C48350   0.432   7.085   2.721  0.1393 -0.4983  0.4596
  359MOL0     C48351   0.480   7.227   2.750  0.7528  0.1018 -0.6445
  359MOL0     C48352   0.596   7.288   2.670 -0.7696  0.6605  0.2986
  359MOL0     C48353   0.598   7.244   2.521 -0.6179 -0.1077  0.9482
  359MOL0     O48354   0.498   7.312   2.437  0.3584  0.3530  0.3388
  359MOL0     C48355   0.516   7.442   2.405  0.0850  0.4287  0.2845
  359MOL0     C48356   0.616   7.530   2.454 -0.3358  0.3145  0.3885
  359MOL0     C48357   0.628   7.658   2.413  0.0001  0.1273  0.1620
  359MOL0     C48358   0.532   7.716   2.328 -0.2312 -0.0183  0.3603
  359MOL0     C48359   0.558   7.849   2.282  0.4913  0.2909 -0.0851
  359MOL0     O48360   0.447   7.919   2.235  1.2383 -0.1426 -0.0827
  359MOL0     C48361   0.453   8.020   2.141 -0.7806  0.1511  0.0870
  359MOL0     C48362   0.332   8.061   2.082 -0.5251  0.1467  0.2922
  359MOL0     C48363   0.319   8.156   1.984  0.5144 -0.0351 -1.1449
  359MOL0     C48364   0.439   8.209   1.936 -0.5660 -0.5305  0.2353
  359MOL0     O48365   0.412   8.325   1.858 -0.4751  0.2569 -0.2709
  359MOL0     C48366   0.519   8.392   1.806 -0.6624 -0.8452  0.8319
  359MOL0     C48367   0.474   8.489   1.698  0.1214 -0.6011  0.1272
  359MOL0     C48368   0.460   8.424   1.554 -0.7127  0.8157 -0.9725
  359MOL0     C48369   0.350   8.318   1.540 -0.6309  0.3175  0.5693
  359MOL0     C48370   0.296   8.289   1.400 -0.1662  0.2403  1.1871
  359MOL0     C48371   0.401   8.220   1.317 -1.1585 -0.4173  0.2576
  359MOL0     C48372   0.354   8.185   1.176 -0.2169  0.1273 -0.2294
  359MOL0     C48373   0.465   8.151   1.080  0.7424  0.5102  0.0951
  359MOL0    Cl48374   0.389   8.105   0.936 -0.0647  0.0428 -0.0794
  359MOL0     C48375   0.566   8.183   1.991  0.8114 -0.1632  0.6771
  359MOL0     C48376   0.570   8.085   2.091  0.7048  0.1417  0.8810
  359MOL0     O48377   0.681   7.882   2.276 -0.0054  0.0966  0.6052
  359MOL0     C48378   0.430   7.636   2.273  0.7578  0.1828  0.4759
  359MOL0     C48379   0.429   7.502   2.313  0.5723 -0.0510  0.1991
  359MOL0     N48380   0.600   6.918   2.629  0.1360  0.2345 -0.3508
  359MOL0     N48381   0.679   6.833   2.685 -0.2278  0.8837 -0.0952
  359MOL0     C48382   1.773   7.322   2.706  0.0583  0.3445  0.4266
  359MOL0     C48383   1.908   7.368   2.732  0.3554  0.0678  0.2407
  359MOL0     C48384   2.326   7.417   2.888 -0.2186  0.4932  0.5397
  359MOL0     C48385   2.435   7.352   2.818  0.0414 -0.0558 -0.2555
  359MOL0     C48386   2.569   7.381   2.853  0.4288  0.4273 -0.7222
  359MOL0     C48387   2.598   7.484   2.940 -0.4311 -0.3906  0.1619
  359MOL0     O48388   2.738   7.502   2.950 -0.0785  0.8083  1.0063
  359MOL0     C48389   2.780   7.571   3.060  0.5222 -1.0083  0.2462
  359MOL0     C48390   2.929   7.563   3.075 -0.4293 -0.3474  0.5594
  359MOL0     C48391   2.985   7.423   3.080  0.6861 -0.8453  0.4444
  359MOL0     C48392   2.906   7.335   3.176 -0.7379  0.3166 -0.7890
  359MOL0     C48393   2.893   7.396   3.313  0.5774  0.3853  0.0839
  359MOL0     C48394   2.889   7.444   3.421 -0.1565 -0.3485  0.3469
  359MOL0     C48395   2.495   7.557   2.998 -0.5989 -0.3488 -0.3298
  359MOL0     C48396   2.358   7.524   2.975 -0.6435 -0.1714  0.0089
  359MOL0     C48397   2.253   7.600   3.052 -0.0231 -0.4249 -0.0314
  359MOL0     H48398   2.080   7.111   2.621 -1.2702 -0.4698  0.0379
  359MOL0     H48399   1.889   7.030   2.562  1.5861  1.4918 -0.5641
  359MOL0     H48400   1.571   7.186   2.827  2.8572 -0.0669 -1.1158
  359MOL0     H48401   1.501   7.302   2.717 -0.8006 -0.6161 -4.1447
  359MOL0     H48402   1.448   7.009   2.712  1.2003  0.4888  1.2616
  359MOL0     H48403   1.362   7.137   2.614 -0.1516  2.0873  1.2636
  359MOL0     H48404   1.254   7.232   2.816  1.0917  0.7203  0.4632
  359MOL0     H48405   1.337   7.110   2.916 -1.7755  0.4149  1.7671
  359MOL0     H48406   1.126   7.029   2.706 -0.4874 -1.4295  0.1898
  359MOL0     H48407   1.234   6.928   2.798  1.1023  1.0980 -0.8850
  359MOL0     H48408   1.126   6.994   3.016 -2.5845  1.6296  2.0931
  359MOL0     H48409   1.040   7.127   2.950  0.3237  0.6210  0.5383
  359MOL0     H48410   0.886   7.000   2.816 -0.2123 -0.4936 -0.5716
  359MOL0     H48411   0.994   6.858   2.799 -0.5758 -2.0032  2.5623
  359MOL0     H48412   0.822   6.921   3.037 -0.8594 -2.1144  1.5400
  359MOL0     H48413   0.950   6.807   3.022 -0.6680 -3.2250 -2.0065
  359MOL0     H48414   0.830   6.706   2.832  1.2736 -0.0948  0.9437
  359MOL0     H48415   0.718   6.711   2.976 -0.4771  1.0178 -0.1907
  359MOL0     H48416   0.568   6.950   2.960  3.2350 -0.6055  1.1607
  359MOL0     H48417   0.386   7.088   2.621 -0.6293  0.1605  0.8229
  359MOL0     H48418   0.356   7.054   2.794  1.2992 -0.3152  1.7887
  359MOL0     H48419   0.398   7.299   2.738 -0.8713 -1.6082 -0.3762
  359MOL0     H48420   0.513   7.229   2.855  1.8605  3.0722 -0.9457
  359MOL0     H48421   0.688   7.249   2.715 -0.8053  2.0811  1.6885
  359MOL0     H48422   0.600   7.397   2.676 -1.8774  0.8334 -1.3385
  359MOL0     H48423   0.591   7.136   2.507 -0.7132  0.2211 -2.2390
  359MOL0     H48424   0.697   7.259   2.477 -1.6684  0.3751 -1.4142
  359MOL0     H48425   0.687   7.499   2.530 -1.0741  1.9080  1.7928
  359MOL0     H48426   0.709   7.714   2.458  2.3577 -3.0944  0.2233
  359MOL0     H48427   0.242   8.021   2.128  0.3444  1.8512  3.8474
  359MOL0     H48428   0.219   8.184   1.953  0.2065 -1.6026 -1.6673
  359MOL0     H48429   0.554   8.455   1.888 -0.2097 -0.9242  0.7027
  359MOL0     H48430   0.602   8.331   1.768 -2.3348 -1.5573 -1.9611
  359MOL0     H48431   0.381   8.538   1.729  0.3844 -1.0748  1.7718
  359MOL0     H48432   0.553   8.565   1.700 -3.0134  2.9411 -0.3723
  359MOL0     H48433   0.451   8.510   1.487  0.4266  2.0245  0.3593
  359MOL0     H48434   0.553   8.367   1.542 -0.1615  0.9870  1.7546
  359MOL0     H48435   0.262   8.361   1.590 -5.0823 -1.9334 -4.3328
  359MOL0     H48436   0.386   8.226   1.588  2.2236  1.0490  0.0289
  359MOL0     H48437   0.271   8.384   1.351  2.2916 -0.2443 -1.2822
  359MOL0     H48438   0.211   8.221   1.394 -0.5954  0.9046 -0.9497
  359MOL0     H48439   0.480   8.296   1.308 -2.8834  1.5233  0.7392
  359MOL0     H48440   0.431   8.125   1.363 -0.3620 -1.0754 -1.5320
  359MOL0     H48441   0.302   8.277   1.148 -1.4544 -1.0422 -1.9777
  359MOL0     H48442   0.284   8.102   1.176 -0.5522  0.3930 -1.2592
  359MOL0     H48443   0.541   8.228   1.065  4.3265 -2.6992  0.0147
  359MOL0     H48444   0.519   8.065   1.123  0.5964  0.5272  0.3161
  359MOL0     H48445   0.654   8.245   1.978 -0.7171  2.0693  0.4298
  359MOL0     H48446   0.662   8.096   2.148 -1.1272  1.0765  3.8721
  359MOL0     H48447   0.352   7.675   2.208 -0.8601 -0.9325  1.6592
  359MOL0     H48448   0.351   7.434   2.280  0.1931  1.0207 -1.2158
  359MOL0     H48449   1.685   7.384   2.720 -0.5696  0.5234 -3.3206
  359MOL0     H48450   1.919   7.465   2.778 -5.3861  1.9504 -1.5183
  359MOL0     H48451   2.417   7.276   2.742 -1.1307  1.1294 -1.2030
  359MOL0     H48452   2.642   7.327   2.794 -0.0050 -2.5490  1.2575
  359MOL0     H48453   2.732   7.519   3.143 -3.1167  2.5164  0.6887
  359MOL0     H48454   2.739   7.672   3.061  0.1077 -1.1675 -0.2812
  359MOL0     H48455   2.972   7.600   3.169 -6.0770 -3.1270  4.8576
  359MOL0     H48456   2.978   7.614   2.992 -1.2538  0.9021  0.8206
  359MOL0     H48457   3.093   7.418   3.100  1.9228 -1.2686 -4.7637
  359MOL0     H48458   2.973   7.383   2.979 -1.0776 -3.6187  1.6423
  359MOL0     H48459   2.808   7.307   3.136 -0.1361  0.8498 -2.7487
  359MOL0     H48460   2.954   7.237   3.184 -2.0786 -0.2559  0.5459
  359MOL0     H48461   2.874   7.482   3.520  1.0496  3.5951 -0.7796
  359MOL0     H48462   2.524   7.630   3.073  0.0974  0.5936 -1.4716
  359MOL0     H48463   2.221   7.533   3.133 -0.5157  0.7871  0.8087
  359MOL0     H48464   2.293   7.689   3.101  0.1689 -0.8832  0.6666
  359MOL0     H48465   2.163   7.626   2.997 -1.1849 -0.0944  1.9250
  360MOL0     O48466   4.261   3.889   5.855  0.5912  0.4127 -0.3881
  360MOL0     C48467   4.214   3.783   5.801 -0.4080 -0.4287  0.8566
  360MOL0     O48468   4.200   3.774   5.665 -0.6345 -0.0457  0.5551
  360MOL0     C48469   4.220   3.890   5.589  0.8550  0.6827  0.2158
  360MOL0     C48470   4.313   3.867   5.491 -0.4508  0.9378 -0.4560
  360MOL0     C48471   4.349   3.970   5.406 -0.9317  0.0519  0.4644
  360MOL0     C48472   4.283   4.094   5.414 -0.3216  0.6469  0.5276
  360MOL0     O48473   4.332   4.203   5.344 -0.3908  0.3584 -0.0284
  360MOL0     C48474   4.245   4.334   5.344 -0.3046  0.6055 -0.3490
  360MOL0     C48475   4.291   4.428   5.456 -0.0916 -0.2641  0.2600
  360MOL0     C48476   4.429   4.491   5.450  0.5444  0.2350  0.4176
  360MOL0     C48477   4.494   4.494   5.589 -0.7688 -0.1928  0.3186
  360MOL0     C48478   4.474   4.634   5.647  0.4379  0.1786  0.1289
  360MOL0     C48479   4.504   4.616   5.794 -0.0763 -0.7161 -0.2488
  360MOL0     C48480   4.537   4.755   5.853 -0.1531 -0.2784  0.0855
  360MOL0     C48481   4.600   4.728   5.997  0.1468 -1.1419  0.2416
  360MOL0     N48482   4.503   4.654   6.088  0.1964 -0.2242 -0.0860
  360MOL0     C48483   4.378   4.697   6.132  0.4474  1.0814  0.0677
  360MOL0     C48484   4.323   4.586   6.173  0.4809  0.6591  0.0411
  360MOL0     C48485   4.196   4.578   6.246  1.0313 -0.2035  0.0608
  360MOL0     C48486   4.215   4.559   6.396 -0.1803 -0.6856  0.2885
  360MOL0     C48487   4.275   4.678   6.466 -0.7070 -0.5496 -0.3227
  360MOL0     C48488   4.242   4.653   6.616 -1.1372 -0.0773 -0.3658
  360MOL0     O48489   4.366   4.596   6.670  0.1694 -0.0818  0.2080
  360MOL0     C48490   4.380   4.585   6.808 -0.1597 -0.1772  0.0813
  360MOL0     C48491   4.308   4.657   6.903 -0.3049 -1.7486 -0.5766
  360MOL0     C48492   4.334   4.640   7.038  0.5741 -0.0937  0.8867
  360MOL0     C48493   4.430   4.553   7.084 -0.1036  0.2396  0.2056
  360MOL0     C48494   4.463   4.541   7.228  0.1924  0.8568  0.4079
  360MOL0     O48495   4.595   4.507   7.265 -0.2541  0.0743  0.2288
  360MOL0     C48496   4.628   4.518   7.402  0.2074 -0.7764  0.4587
  360MOL0     C48497   4.697   4.631   7.438 -0.3860 -0.3757 -0.3710
  360MOL0     C48498   4.735   4.646   7.573 -0.2568  0.5138  0.2939
  360MOL0     C48499   4.699   4.549   7.665 -0.9185  0.7810  0.9304
  360MOL0     O48500   4.768   4.560   7.781  0.2044 -0.1493  0.5085
  360MOL0     C48501   4.729   4.488   7.900 -0.3947 -0.9387 -0.0336
  360MOL0     C48502   4.816   4.531   8.022  0.6840 -0.3384  0.4575
  360MOL0     C48503   4.822   4.417   8.127 -0.4144 -0.5878 -0.2965
  360MOL0     C48504   4.684   4.382   8.188 -0.9424  0.8754 -0.8341
  360MOL0     C48505   4.690   4.264   8.275  0.0087 -0.3161  0.0491
  360MOL0     C48506   4.573   4.245   8.371  0.6457 -0.3202 -0.2584
  360MOL0     C48507   4.593   4.136   8.471  0.8180  0.0348  0.1139
  360MOL0     C48508   4.456   4.068   8.500 -0.5691  0.5863 -0.7475
  360MOL0    Cl48509   4.499   3.927   8.591  0.3881  0.2995 -0.0717
  360MOL0     C48510   4.642   4.431   7.621 -0.6682  0.0221  0.5569
  360MOL0     C48511   4.610   4.410   7.489  0.2833 -0.3623 -0.1435
  360MOL0     O48512   4.374   4.567   7.308 -0.3011 -0.5027  0.4242
  360MOL0     C48513   4.498   4.477   6.983  0.5602  0.2174 -0.8939
  360MOL0     C48514   4.478   4.492   6.848 -0.1061  0.1063 -0.7139
  360MOL0     N48515   4.405   4.476   6.138  0.2033 -0.2028 -0.3957
  360MOL0     N48516   4.514   4.520   6.093  0.0528 -0.0807 -0.1389
  360MOL0     C48517   4.182   4.113   5.508 -0.1029 -0.3540 -0.4217
  360MOL0     C48518   4.146   4.015   5.597 -0.0259  0.4466  0.4891
  360MOL0     C48519   4.164   3.657   5.879 -0.8237 -0.4228  0.4009
  360MOL0     C48520   4.098   3.564   5.801 -0.3297 -0.5144 -0.2389
  360MOL0     C48521   4.046   3.444   5.865  0.0865  1.2192  0.1670
  360MOL0     C48522   4.068   3.418   5.999 -0.0805  0.8411 -1.1769
  360MOL0     O48523   4.035   3.310   6.073  0.0565  0.6561 -0.0821
  360MOL0     C48524   3.924   3.244   6.015  0.7086 -0.5088  0.0620
  360MOL0     C48525   3.862   3.143   6.118 -0.4608 -0.1197  0.2953
  360MOL0     C48526   3.791   3.223   6.232  0.0716  0.2330  0.4158
  360MOL0     C48527   3.895   3.305   6.316  0.3333  0.0178 -0.4574
  360MOL0     C48528   3.820   3.326   6.441  0.8672  0.6480 -0.6401
  360MOL0     C48529   3.760   3.361   6.538  0.0402 -1.2675  0.1757
  360MOL0     C48530   4.152   3.505   6.071  0.6862 -0.6854 -0.7820
  360MOL0     C48531   4.183   3.631   6.017 -0.2105  0.4952 -0.2683
  360MOL0     C48532   4.257   3.722   6.108 -0.4450 -1.1294  0.6231
  360MOL0     H48533   4.365   3.771   5.493  1.2320  1.8156  0.3393
  360MOL0     H48534   4.422   3.960   5.326 -1.1471 -0.4824  0.3294
  360MOL0     H48535   4.274   4.380   5.249 -0.8381  0.6144 -0.5068
  360MOL0     H48536   4.138   4.314   5.347 -0.3236  0.6243 -0.9095
  360MOL0     H48537   4.274   4.375   5.550 -1.3539 -0.4365 -0.0543
  360MOL0     H48538   4.223   4.514   5.460  0.6750  0.4270 -0.9990
  360MOL0     H48539   4.431   4.587   5.399 -2.8987 -0.1349 -0.6578
  360MOL0     H48540   4.494   4.432   5.384  0.2175 -0.1167  0.4068
  360MOL0     H48541   4.459   4.414   5.655  0.5718  0.1907  1.5505
  360MOL0     H48542   4.602   4.486   5.574 -0.7910 -0.9933  0.5416
  360MOL0     H48543   4.544   4.711   5.615 -0.4633  0.8302 -0.3179
  360MOL0     H48544   4.375   4.678   5.635  0.4870  2.4486  5.3507
  360MOL0     H48545   4.416   4.576   5.845  0.4846  0.0957  1.4213
  360MOL0     H48546   4.587   4.549   5.819  0.6179  0.5195  0.8469
  360MOL0     H48547   4.448   4.819   5.858 -0.2894 -0.5080  0.6172
  360MOL0     H48548   4.609   4.821   5.802  0.0948  2.1142  3.2530
  360MOL0     H48549   4.695   4.678   5.980 -0.8264 -2.1960 -2.7128
  360MOL0     H48550   4.608   4.830   6.036  2.4113 -0.6099 -1.4241
  360MOL0     H48551   4.341   4.797   6.149  0.8654  2.0034 -3.7274
  360MOL0     H48552   4.129   4.660   6.216  3.8835  1.4781 -2.1727
  360MOL0     H48553   4.147   4.488   6.208 -0.9619  2.9947 -6.5257
  360MOL0     H48554   4.116   4.527   6.428  0.0014 -1.7825 -0.1892
  360MOL0     H48555   4.286   4.476   6.405 -0.6972 -1.1458  0.2374
  360MOL0     H48556   4.203   4.748   6.423 -0.2785  0.5873  0.7513
  360MOL0     H48557   4.382   4.685   6.445 -0.9895  2.0659 -1.1486
  360MOL0     H48558   4.157   4.584   6.618 -1.7512  0.6322 -1.3145
  360MOL0     H48559   4.212   4.748   6.660  1.8130  0.4608  0.6979
  360MOL0     H48560   4.240   4.733   6.867  0.6110  0.1933  1.5956
  360MOL0     H48561   4.273   4.695   7.110 -1.5800 -1.3077  0.0954
  360MOL0     H48562   4.715   4.708   7.364  0.5209 -0.5840 -0.3786
  360MOL0     H48563   4.805   4.724   7.602  0.7218 -0.9290  2.0240
  360MOL0     H48564   4.625   4.518   7.915  0.4755  0.9673  3.4530
  360MOL0     H48565   4.727   4.382   7.876  0.2826 -0.7838 -0.8056
  360MOL0     H48566   4.910   4.573   7.986  1.2603 -0.6838  1.4964
  360MOL0     H48567   4.770   4.616   8.073 -2.5618 -0.8812 -1.3126
  360MOL0     H48568   4.858   4.323   8.085 -1.3169 -1.7716  1.4838
  360MOL0     H48569   4.890   4.445   8.208 -1.2060  1.4383 -0.2734
  360MOL0     H48570   4.603   4.356   8.119 -0.6764 -0.9644 -0.4821
  360MOL0     H48571   4.658   4.468   8.251  0.7131  0.3462  0.6243
  360MOL0     H48572   4.779   4.290   8.333  1.8398 -1.9545 -1.8624
  360MOL0     H48573   4.712   4.175   8.215 -0.6225 -0.0449 -0.5978
  360MOL0     H48574   4.542   4.339   8.417  0.8617  0.4110 -1.5363
  360MOL0     H48575   4.476   4.215   8.328 -2.6991  2.2244  4.5924
  360MOL0     H48576   4.652   4.170   8.556  3.1729  1.8392 -2.0708
  360MOL0     H48577   4.648   4.052   8.426 -0.4340 -0.6582 -0.1746
  360MOL0     H48578   4.385   4.134   8.551 -1.8278  1.2650 -3.2136
  360MOL0     H48579   4.416   4.041   8.402  1.2992 -1.3617 -1.0309
  360MOL0     H48580   4.622   4.343   7.682  0.1056 -1.3929 -1.1338
  360MOL0     H48581   4.563   4.328   7.437  2.0073 -1.4540 -0.0412
  360MOL0     H48582   4.560   4.402   7.031 -1.4848 -1.5483 -0.8829
  360MOL0     H48583   4.526   4.422   6.781 -2.1475 -2.8114  0.6371
  360MOL0     H48584   4.133   4.207   5.533  0.3332  0.3999 -2.2465
  360MOL0     H48585   4.058   4.037   5.657 -0.9218  2.0093 -1.3071
  360MOL0     H48586   4.090   3.579   5.694 -0.2431 -0.6316 -0.2632
  360MOL0     H48587   4.000   3.375   5.795 -0.5826  2.8516 -1.0872
  360MOL0     H48588   3.948   3.186   5.926  1.7300 -0.0215  0.0063
  360MOL0     H48589   3.844   3.316   5.995  1.4322  0.5355  0.7494
  360MOL0     H48590   3.936   3.089   6.177 -0.1047  1.7134  1.6289
  360MOL0     H48591   3.787   3.082   6.068 -2.0731  0.6279  1.7245
  360MOL0     H48592   3.734   3.158   6.298  1.5958  0.4326  1.9937
  360MOL0     H48593   3.723   3.289   6.177 -2.3800 -1.5583  1.1684
  360MOL0     H48594   3.991   3.257   6.339 -0.6553 -0.7261  2.4904
  360MOL0     H48595   3.918   3.404   6.274 -0.5757  0.6493  0.4887
  360MOL0     H48596   3.694   3.410   6.606 -1.2785  1.7059 -2.9304
  360MOL0     H48597   4.174   3.467   6.170 -3.7147  0.3763  0.8155
  360MOL0     H48598   4.235   3.701   6.213 -1.5177  0.6386  0.7931
  360MOL0     H48599   4.364   3.725   6.084 -0.7479 -2.4501 -1.1030
  360MOL0     H48600   4.229   3.827   6.095  0.4031 -1.0079 -0.3481
  361MOL0     O48601   8.649   9.424   2.661 -0.5412 -0.4985  0.6003
  361MOL0     C48602   8.683   9.324   2.610 -0.4029  0.1819  0.1282
  361MOL0     O48603   8.806   9.299   2.550  1.0092  0.3576 -0.9191
  361MOL0     C48604   8.898   9.400   2.560 -0.3856  0.2286 -0.2969
  361MOL0     C48605   8.954   9.443   2.688  0.3969 -0.0356 -0.3703
  361MOL0     C48606   9.068   9.515   2.673 -0.0305  0.4664  0.5707
  361MOL0     C48607   9.124   9.560   2.553 -0.0600  0.4547  0.8499
  361MOL0     O48608   9.224   9.655   2.554  0.6675  0.4888  0.0901
  361MOL0     C48609   9.324   9.661   2.441  0.2369  0.3485  0.5934
  361MOL0     C48610   9.418   9.536   2.461  0.4049 -0.9901 -0.0200
  361MOL0     C48611   9.492   9.509   2.331 -0.4960  0.1013  0.8738
  361MOL0     C48612   9.523   9.362   2.321  0.0375  0.8338  0.5847
  361MOL0     C48613   9.598   9.326   2.195  0.9236  0.0671  0.2005
  361MOL0     C48614   9.548   9.381   2.058 -0.1269 -0.1010 -1.2841
  361MOL0     C48615   9.426   9.300   2.009 -0.8058 -0.1239  0.1560
  361MOL0     C48616   9.333   9.404   1.938  0.3040 -0.3669 -0.4275
  361MOL0     N48617   9.192   9.392   1.979  0.0826  0.0209  0.1568
  361MOL0     C48618   9.087   9.338   1.911 -0.8171 -0.1891 -0.4659
  361MOL0     C48619   8.982   9.323   1.997  0.4306 -0.5392  0.1575
  361MOL0     C48620   8.861   9.244   1.983  0.1391 -0.6348  0.0316
  361MOL0     C48621   8.851   9.109   2.047 -0.2737 -0.8128 -0.7140
  361MOL0     C48622   8.709   9.059   2.074 -0.1754 -0.2496 -0.1920
  361MOL0     C48623   8.613   9.056   1.963 -0.5132 -0.2813 -0.6974
  361MOL0     O48624   8.682   8.983   1.866  0.0482  0.6021 -0.7551
  361MOL0     C48625   8.623   8.944   1.749  0.7172  0.4876  0.3468
  361MOL0     C48626   8.705   8.885   1.655 -0.7173  1.2324  0.2384
  361MOL0     C48627   8.665   8.860   1.527  0.1046 -0.7251 -0.8330
  361MOL0     C48628   8.533   8.874   1.490  0.4487 -0.8834 -0.7980
  361MOL0     C48629   8.463   8.837   1.363  1.3873  0.8795 -0.2380
  361MOL0     O48630   8.551   8.825   1.264  0.3210  0.1249  0.3347
  361MOL0     C48631   8.499   8.843   1.133 -1.3352 -0.6621  0.0700
  361MOL0     C48632   8.410   8.950   1.088 -0.5559  0.3505 -0.0292
  361MOL0     C48633   8.382   8.981   0.951 -0.2215  0.1653 -0.3248
  361MOL0     C48634   8.441   8.908   0.848  0.0783 -0.4774  0.0578
  361MOL0     O48635   8.407   8.927   0.715 -0.3016  0.5945  0.1484
  361MOL0     C48636   8.328   8.817   0.673 -0.7473  0.2683 -0.9749
  361MOL0     C48637   8.176   8.861   0.665 -0.5715 -0.3164 -0.5040
  361MOL0     C48638   8.083   8.749   0.617 -0.4855  0.7689 -0.6371
  361MOL0     C48639   7.941   8.798   0.587  0.5754 -0.3054 -0.4000
  361MOL0     C48640   7.927   8.834   0.432  0.1730 -1.0552 -0.9476
  361MOL0     C48641   7.793   8.896   0.404  0.6994 -0.7322  0.1515
  361MOL0     C48642   7.783   8.946   0.260  0.8763  0.3086 -0.5155
  361MOL0     C48643   7.904   9.012   0.195 -0.1996  0.0355  0.3027
  361MOL0    Cl48644   7.953   9.151   0.291 -0.2360  0.1369  0.0784
  361MOL0     C48645   8.536   8.808   0.890  0.4061  0.1485 -0.4430
  361MOL0     C48646   8.568   8.774   1.029  0.3654  0.5224 -0.2602
  361MOL0     O48647   8.339   8.846   1.351  0.8674 -0.1302 -0.3664
  361MOL0     C48648   8.450   8.935   1.591  0.2268  0.3205 -0.1385
  361MOL0     C48649   8.489   8.959   1.719 -0.4826  0.1074  0.3679
  361MOL0     N48650   9.021   9.383   2.113 -0.4328 -0.4364  0.1867
  361MOL0     N48651   9.146   9.416   2.102 -0.0373  0.0574  0.3484
  361MOL0     C48652   9.067   9.515   2.436 -0.5452  0.8970  0.2963
  361MOL0     C48653   8.956   9.429   2.441 -0.0932 -0.5423 -1.0038
  361MOL0     C48654   8.589   9.204   2.639 -0.1365  0.7638 -0.3992
  361MOL0     C48655   8.484   9.231   2.735 -0.1914 -0.2989  0.2106
  361MOL0     C48656   8.384   9.139   2.759 -0.6461  0.6525 -0.1840
  361MOL0     C48657   8.384   9.019   2.700 -0.5848 -0.0033  0.1081
  361MOL0     O48658   8.279   8.940   2.742 -0.8634 -0.6400 -0.7241
  361MOL0     C48659   8.286   8.801   2.707 -0.2554  0.2997 -0.6504
  361MOL0     C48660   8.202   8.713   2.810  0.5255  0.5592  0.0201
  361MOL0     C48661   8.228   8.563   2.788 -0.2377 -0.3459 -0.6517
  361MOL0     C48662   8.160   8.483   2.905 -0.3316 -0.0224  0.0688
  361MOL0     C48663   8.206   8.346   2.907  0.1604  1.4026  0.2536
  361MOL0     C48664   8.225   8.226   2.917 -0.4365 -0.3577  0.4229
  361MOL0     C48665   8.486   8.983   2.603 -0.5479 -0.2161 -0.6302
  361MOL0     C48666   8.588   9.079   2.570  0.5555  1.1051  0.0581
  361MOL0     C48667   8.672   9.047   2.443  0.0094 -0.4678 -0.1775
  361MOL0     H48668   8.906   9.406   2.778 -3.7626  0.3672 -2.1689
  361MOL0     H48669   9.118   9.543   2.765 -1.4244  1.5292  1.0307
  361MOL0     H48670   9.282   9.648   2.341  1.5903  1.2329 -0.1175
  361MOL0     H48671   9.379   9.756   2.451  0.8135 -0.0327  1.0905
  361MOL0     H48672   9.353   9.448   2.464 -0.8695 -0.0656  0.1718
  361MOL0     H48673   9.473   9.550   2.554 -1.2407  2.1543  0.6483
  361MOL0     H48674   9.585   9.566   2.345 -0.9373  0.3503  3.2952
  361MOL0     H48675   9.435   9.550   2.248  2.4714  1.8947 -0.4591
  361MOL0     H48676   9.566   9.323   2.414 -1.4373 -1.1522  0.4980
  361MOL0     H48677   9.431   9.304   2.329  0.5757  0.2305  4.2482
  361MOL0     H48678   9.703   9.353   2.210  1.3635 -1.1212 -0.6477
  361MOL0     H48679   9.595   9.217   2.186 -1.5294  0.0717  0.1147
  361MOL0     H48680   9.533   9.489   2.060  2.1561  0.2575  0.0116
  361MOL0     H48681   9.635   9.367   1.992  3.4854  0.3181  2.9118
  361MOL0     H48682   9.372   9.243   2.086 -1.6322 -0.4362 -0.6456
  361MOL0     H48683   9.465   9.224   1.941  3.8402 -1.3533  3.6410
  361MOL0     H48684   9.358   9.506   1.968  0.2015 -0.2093 -0.8738
  361MOL0     H48685   9.336   9.387   1.830  0.2060  2.0487 -0.8608
  361MOL0     H48686   9.077   9.300   1.810 -3.1029 -1.9330  0.3234
  361MOL0     H48687   8.786   9.301   2.038  2.5066  0.1333  2.6767
  361MOL0     H48688   8.829   9.247   1.879  1.5922  1.6563 -0.4079
  361MOL0     H48689   8.905   9.033   1.991  0.6145  0.5118 -1.7374
  361MOL0     H48690   8.909   9.117   2.139 -2.3924 -2.7192  0.8783
  361MOL0     H48691   8.662   9.129   2.145  3.3553  1.5771  0.5902
  361MOL0     H48692   8.716   8.962   2.123 -0.9968 -1.5128 -2.4730
  361MOL0     H48693   8.593   9.158   1.930 -0.3571 -0.0743 -0.1645
  361MOL0     H48694   8.520   9.013   2.002  0.3624 -0.5603  1.2015
  361MOL0     H48695   8.805   8.860   1.688  0.0761 -1.5043 -3.4901
  361MOL0     H48696   8.740   8.821   1.459  0.5020 -0.2515 -0.6759
  361MOL0     H48697   8.365   9.018   1.161 -0.9419 -0.8972  0.9216
  361MOL0     H48698   8.314   9.064   0.930 -1.1985 -0.9096 -1.5633
  361MOL0     H48699   8.349   8.791   0.569  1.1067  5.0935 -2.0488
  361MOL0     H48700   8.345   8.722   0.726 -3.8466  1.7048  3.0565
  361MOL0     H48701   8.149   8.886   0.768 -1.7780 -0.9214 -0.6498
  361MOL0     H48702   8.175   8.948   0.599 -1.8697 -0.1621 -0.3066
  361MOL0     H48703   8.119   8.711   0.521  1.3130  0.3152  0.1713
  361MOL0     H48704   8.072   8.670   0.692  1.7091  0.6747 -0.3350
  361MOL0     H48705   7.899   8.879   0.648 -2.2129  0.0595 -2.6038
  361MOL0     H48706   7.861   8.727   0.610 -0.5063  1.4728  1.7550
  361MOL0     H48707   7.955   8.753   0.364 -0.7393 -1.2580 -1.0916
  361MOL0     H48708   8.003   8.912   0.417 -1.7823  0.6347 -2.9207
  361MOL0     H48709   7.711   8.824   0.415  0.4044 -0.7345 -1.7336
  361MOL0     H48710   7.770   8.977   0.474 -1.2584 -1.4428  0.3937
  361MOL0     H48711   7.705   9.022   0.243  1.1831  0.4588 -1.3092
  361MOL0     H48712   7.734   8.871   0.197  0.6510 -0.2297  0.2820
  361MOL0     H48713   7.981   8.938   0.174  0.8693  1.4558 -1.0401
  361MOL0     H48714   7.866   9.049   0.099 -0.7458  1.7308  1.1175
  361MOL0     H48715   8.578   8.753   0.806  0.2870 -0.4856 -0.0939
  361MOL0     H48716   8.645   8.699   1.046 -0.0447  0.1541 -0.0105
  361MOL0     H48717   8.344   8.954   1.575  0.6406  2.0622 -1.1454
  361MOL0     H48718   8.422   8.984   1.800 -0.1537 -2.1581  1.4095
  361MOL0     H48719   9.097   9.553   2.339  0.3010  0.3572  0.3395
  361MOL0     H48720   8.906   9.397   2.350 -1.3895  1.7963 -1.2046
  361MOL0     H48721   8.485   9.319   2.797 -0.3436  0.4335 -0.7927
  361MOL0     H48722   8.298   9.150   2.825 -0.7989 -1.7312  0.1104
  361MOL0     H48723   8.390   8.767   2.716 -0.4667  0.0359  1.0740
  361MOL0     H48724   8.259   8.777   2.603 -2.1325 -2.7867  0.4060
  361MOL0     H48725   8.093   8.711   2.801  0.6928  0.4841 -4.8801
  361MOL0     H48726   8.222   8.739   2.914 -3.5570 -1.1355  1.4188
  361MOL0     H48727   8.336   8.547   2.784  0.1045  0.1105  3.2528
  361MOL0     H48728   8.192   8.540   2.687 -0.7247  1.0747 -0.8167
  361MOL0     H48729   8.179   8.531   3.002 -2.9590  0.9273  0.1956
  361MOL0     H48730   8.053   8.501   2.894 -0.3745 -1.1814 -1.7673
  361MOL0     H48731   8.247   8.124   2.938 -1.8348 -0.7105  0.2281
  361MOL0     H48732   8.485   8.884   2.557 -1.5406 -0.8558  0.7155
  361MOL0     H48733   8.629   8.957   2.398 -1.5858  0.5283 -0.7325
  361MOL0     H48734   8.678   9.125   2.367  1.5868 -0.0683  0.3370
  361MOL0     H48735   8.773   9.029   2.481  1.4328  3.7487 -1.4334
  362MOL0     O48736   7.479   8.278   0.958  0.2923  0.2615 -0.0969
  362MOL0     C48737   7.520   8.187   0.886 -0.2627  0.1158  0.4879
  362MOL0     O48738   7.461   8.061   0.867 -0.7606 -0.2140  0.8218
  362MOL0     C48739   7.369   7.991   0.937 -0.1566  0.0540 -0.9830
  362MOL0     C48740   7.299   7.885   0.890 -0.2932  0.2670 -0.2095
  362MOL0     C48741   7.178   7.853   0.951  1.2212 -0.5938  0.0701
  362MOL0     C48742   7.127   7.931   1.058  0.0865  0.3824  0.0675
  362MOL0     O48743   7.005   7.887   1.105 -0.3774 -0.2977  0.4009
  362MOL0     C48744   6.878   7.930   1.046 -0.6226 -0.2929  0.0181
  362MOL0     C48745   6.764   7.896   1.143 -0.2934 -0.7876  0.1038
  362MOL0     C48746   6.763   7.742   1.176  0.1371  1.1398  0.6776
  362MOL0     C48747   6.665   7.668   1.086 -0.0258 -0.0783 -0.0084
  362MOL0     C48748   6.635   7.522   1.139 -0.1465  0.3142 -0.1195
  362MOL0     C48749   6.528   7.444   1.061  0.7164 -0.1346  0.7545
  362MOL0     C48750   6.495   7.299   1.107 -0.5538  0.4009  0.4740
  362MOL0     C48751   6.356   7.255   1.072 -0.2510  0.1294 -0.1075
  362MOL0     N48752   6.329   7.277   0.922  0.0662  0.5583  0.6795
  362MOL0     C48753   6.209   7.340   0.878 -0.1267 -0.8429  0.0158
  362MOL0     C48754   6.220   7.334   0.740  0.1397 -0.1792  0.2716
  362MOL0     C48755   6.105   7.383   0.657  0.5050  1.2463  1.1300
  362MOL0     C48756   6.044   7.253   0.588 -0.0533 -0.3375  0.2952
  362MOL0     C48757   6.131   7.199   0.475  0.4499 -0.5086  0.0949
  362MOL0     C48758   6.068   7.098   0.388 -0.4275 -0.7182  0.3448
  362MOL0     O48759   6.166   7.078   0.280 -0.2125  0.3776  0.4203
  362MOL0     C48760   6.173   6.949   0.240 -1.3162  0.2397  0.4268
  362MOL0     C48761   6.077   6.898   0.154 -1.0406 -0.4732  0.2958
  362MOL0     C48762   6.071   6.769   0.107 -0.5495  0.1558  1.6531
  362MOL0     C48763   6.177   6.678   0.147  0.1672  0.6820 -0.3621
  362MOL0     C48764   6.183   6.530   0.099  0.5456  0.4459  0.9899
  362MOL0     O48765   6.100   6.490  -0.007 -0.6575  0.9345  0.3040
  362MOL0     C48766   6.084   6.361  -0.043  0.2589 -0.9839  0.1384
  362MOL0     C48767   6.056   6.252   0.047  0.4796  0.7810  0.8624
  362MOL0     C48768   6.050   6.122   0.005 -0.1890 -0.6710  0.4550
  362MOL0     C48769   6.060   6.099  -0.138  0.0111 -0.1128  0.2993
  362MOL0     O48770   6.062   5.975  -0.203  0.2203 -0.7265 -0.5187
  362MOL0     C48771   5.961   5.892  -0.150 -0.5426 -0.5860  0.5503
  362MOL0     C48772   5.933   5.771  -0.233 -0.3282 -1.0715 -0.0200
  362MOL0     C48773   5.820   5.682  -0.180 -0.4642  0.4053  0.0317
  362MOL0     C48774   5.804   5.550  -0.273  0.2979 -0.5891  0.3221
  362MOL0     C48775   5.918   5.437  -0.256  0.1747 -0.1963 -0.2488
  362MOL0     C48776   5.897   5.347  -0.129 -1.3090 -1.1426 -0.3632
  362MOL0     C48777   6.016   5.245  -0.132  0.6872 -0.0031 -0.0220
  362MOL0     C48778   5.971   5.098  -0.124  0.0409  0.0699 -1.0534
  362MOL0    Cl48779   5.956   5.038   0.047 -0.3338 -0.1135 -0.0808
  362MOL0     C48780   6.079   6.208  -0.229  0.3055 -0.4446 -0.3368
  362MOL0     C48781   6.093   6.337  -0.179  0.2541  0.2234  0.2043
  362MOL0     O48782   6.246   6.452   0.167  0.0801 -0.1433  0.2091
  362MOL0     C48783   6.285   6.738   0.223  0.0233  0.7652 -0.3563
  362MOL0     C48784   6.270   6.867   0.274 -0.5145  0.4421  0.5395
  362MOL0     N48785   6.342   7.271   0.711  0.5495  0.3346  0.8782
  362MOL0     N48786   6.403   7.231   0.817 -0.5327  0.0783 -0.7757
  362MOL0     C48787   7.203   8.027   1.119  0.1667  0.0854  0.0281
  362MOL0     C48788   7.329   8.055   1.061  0.8125  0.2031  1.0726
  362MOL0     C48789   7.647   8.211   0.820  0.8813 -0.8598 -0.2627
  362MOL0     C48790   7.727   8.097   0.785  0.7537  0.1071  0.0298
  362MOL0     C48791   7.848   8.124   0.726 -0.1186 -0.1872 -0.2887
  362MOL0     C48792   7.890   8.244   0.676  0.5649  0.3511  0.0326
  362MOL0     O48793   8.006   8.239   0.601 -1.3054 -0.4024  0.0895
  362MOL0     C48794   8.042   8.358   0.518 -0.1857 -1.2532  0.5221
  362MOL0     C48795   7.954   8.353   0.388  0.0359 -0.2573 -0.0729
  362MOL0     C48796   7.965   8.478   0.306  0.4998 -0.3345 -1.1725
  362MOL0     C48797   7.893   8.467   0.177  0.6459 -0.6713 -0.1564
  362MOL0     C48798   7.902   8.587   0.092  0.3155  0.0822 -0.2451
  362MOL0     C48799   7.872   8.684   0.026 -0.1212 -0.1309  0.0921
  362MOL0     C48800   7.813   8.356   0.701 -0.0657  0.2488 -0.7670
  362MOL0     C48801   7.697   8.344   0.781 -0.7796 -0.2706 -0.1689
  362MOL0     C48802   7.622   8.473   0.803  0.0808 -0.3981 -0.1611
  362MOL0     H48803   7.328   7.831   0.800  2.5977  1.6360 -0.2183
  362MOL0     H48804   7.119   7.773   0.907  0.9502 -1.4524  1.9281
  362MOL0     H48805   6.870   8.039   1.035 -0.9918 -0.2108  0.9529
  362MOL0     H48806   6.870   7.887   0.946 -0.7049  2.6708 -1.3720
  362MOL0     H48807   6.672   7.932   1.096 -0.6355  0.3726  1.5990
  362MOL0     H48808   6.764   7.953   1.236  1.5415 -0.7359  0.1060
  362MOL0     H48809   6.742   7.720   1.281  0.0039 -1.1193  0.2306
  362MOL0     H48810   6.863   7.696   1.166 -0.7016 -0.4995 -0.6736
  362MOL0     H48811   6.572   7.723   1.067 -0.0711 -0.1465  0.0117
  362MOL0     H48812   6.712   7.664   0.988  2.9262 -0.8808  1.3285
  362MOL0     H48813   6.729   7.473   1.165 -0.2470  0.9740  1.6614
  362MOL0     H48814   6.596   7.537   1.240  1.5318  2.5893  0.2711
  362MOL0     H48815   6.429   7.490   1.069 -0.7123 -3.0317  0.6067
  362MOL0     H48816   6.547   7.448   0.954 -1.6987  0.7968  0.2923
  362MOL0     H48817   6.494   7.286   1.216 -3.5410 -1.4612  0.3395
  362MOL0     H48818   6.558   7.222   1.061 -2.0788 -0.4933 -0.1841
  362MOL0     H48819   6.337   7.153   1.105  0.4698  0.3090  0.9108
  362MOL0     H48820   6.286   7.315   1.132 -1.2622 -2.2898  1.2722
  362MOL0     H48821   6.127   7.371   0.943 -0.9683 -1.2964 -0.8110
  362MOL0     H48822   6.024   7.441   0.701 -1.6782 -0.5221 -0.3512
  362MOL0     H48823   6.151   7.443   0.578 -0.1422 -0.1429 -0.3466
  362MOL0     H48824   6.033   7.172   0.661 -2.3308  0.5047  0.9752
  362MOL0     H48825   5.952   7.272   0.533 -0.0043 -3.2173 -0.9742
  362MOL0     H48826   6.214   7.156   0.532  1.3244  0.9354 -0.0619
  362MOL0     H48827   6.156   7.274   0.400  1.7322 -0.7316  0.2808
  362MOL0     H48828   5.974   7.141   0.353 -0.8815  0.6126  3.0084
  362MOL0     H48829   6.056   7.004   0.442 -2.0909 -1.4590 -1.2270
  362MOL0     H48830   6.012   6.982   0.132  1.2659  1.5995  0.8655
  362MOL0     H48831   5.990   6.741   0.041  2.7559  0.6042 -3.1007
  362MOL0     H48832   6.031   6.257   0.153  1.3187 -2.4691  1.3336
  362MOL0     H48833   6.032   6.041   0.075  1.8702 -0.1759  1.6365
  362MOL0     H48834   5.988   5.853  -0.052 -0.3118 -1.9315 -0.0306
  362MOL0     H48835   5.862   5.935  -0.131 -1.0362 -0.4623 -1.9301
  362MOL0     H48836   5.923   5.810  -0.334  3.5263  0.9350  0.1652
  362MOL0     H48837   6.022   5.707  -0.236 -1.3338 -2.5057 -1.1878
  362MOL0     H48838   5.838   5.639  -0.081 -0.6830  2.2498  0.9011
  362MOL0     H48839   5.727   5.738  -0.191 -1.8200 -2.1759 -4.2587
  362MOL0     H48840   5.790   5.581  -0.377  1.2663 -0.8836  0.0978
  362MOL0     H48841   5.712   5.494  -0.251  0.4951 -1.3991 -0.8416
  362MOL0     H48842   6.015   5.488  -0.250 -0.3860  0.8631  0.0647
  362MOL0     H48843   5.928   5.370  -0.342  4.0756 -0.1957 -0.0064
  362MOL0     H48844   5.907   5.407  -0.038 -0.5757 -2.2236  0.3049
  362MOL0     H48845   5.794   5.312  -0.134 -2.3062  1.5134 -5.8327
  362MOL0     H48846   6.087   5.267  -0.052 -1.1075  0.3914  1.5515
  362MOL0     H48847   6.075   5.251  -0.224  0.2310 -0.8057 -0.3823
  362MOL0     H48848   5.868   5.092  -0.161 -0.9471  2.2473  1.0597
  362MOL0     H48849   6.037   5.022  -0.166 -0.5446 -0.5180 -0.9305
  362MOL0     H48850   6.085   6.183  -0.334 -1.7226  0.5390 -0.7121
  362MOL0     H48851   6.139   6.425  -0.222  2.1508 -0.1905  1.3183
  362MOL0     H48852   6.365   6.666   0.241 -1.0649 -0.7077 -1.1304
  362MOL0     H48853   6.353   6.908   0.331  0.9645 -0.4906 -0.8455
  362MOL0     H48854   7.160   8.071   1.208 -5.1464 -0.9526 -1.6659
  362MOL0     H48855   7.374   8.139   1.113  2.1277 -1.4016  2.6885
  362MOL0     H48856   7.695   7.996   0.807  3.2570 -0.4996  1.2786
  362MOL0     H48857   7.913   8.038   0.714  1.9978  1.1234  1.0922
  362MOL0     H48858   8.145   8.357   0.480  1.1062  3.8541  2.9941
  362MOL0     H48859   8.028   8.452   0.570 -4.6554 -1.8943  0.8328
  362MOL0     H48860   7.849   8.337   0.414 -0.6246  1.8026 -1.2725
  362MOL0     H48861   7.989   8.275   0.321  0.3504  1.9925 -2.6919
  362MOL0     H48862   8.069   8.506   0.289  0.5297  0.0222 -0.4517
  362MOL0     H48863   7.921   8.555   0.371  0.5513  1.2975 -2.9725
  362MOL0     H48864   7.919   8.380   0.116 -0.6805 -0.1700 -1.4946
  362MOL0     H48865   7.787   8.462   0.203  0.7447  0.6303  0.6151
  362MOL0     H48866   7.852   8.771  -0.033 -0.3817 -0.3307 -0.1142
  362MOL0     H48867   7.836   8.454   0.660 -2.6045  0.7194 -1.2767
  362MOL0     H48868   7.618   8.497   0.910 -2.5300 -0.0910 -0.2716
  362MOL0     H48869   7.666   8.554   0.744 -1.2411 -0.1971 -0.9108
  362MOL0     H48870   7.525   8.447   0.760  1.1151 -4.1176 -0.5545
  363MOL0     O48871   2.518   0.707   0.164 -0.0845  0.3161 -0.4093
  363MOL0     C48872   2.557   0.751   0.054 -0.4335  0.5279  0.6937
  363MOL0     O48873   2.667   0.843   0.039  0.4341  0.8316  0.3574
  363MOL0     C48874   2.750   0.844   0.151  0.5632 -0.9627 -0.6739
  363MOL0     C48875   2.782   0.965   0.207  1.5967 -0.1245 -0.3973
  363MOL0     C48876   2.868   0.978   0.317  0.4063 -0.5042  0.8275
  363MOL0     C48877   2.928   0.873   0.380  0.1223 -0.0688 -0.2317
  363MOL0     O48878   3.005   0.910   0.493  0.0099 -0.7887 -0.2018
  363MOL0     C48879   3.080   0.803   0.554  0.1607 -0.7596  1.0316
  363MOL0     C48880   3.004   0.731   0.671  0.2754 -0.0272 -0.8814
  363MOL0     C48881   2.947   0.818   0.781  0.4710 -0.3486  0.2664
  363MOL0     C48882   2.918   0.754   0.911  0.3598  0.1841 -0.1206
  363MOL0     C48883   3.048   0.742   0.992  0.2224  1.0041  0.1232
  363MOL0     C48884   3.007   0.728   1.130 -0.3080 -0.0460  0.4908
  363MOL0     C48885   2.937   0.599   1.162 -0.5809  0.0453 -0.1749
  363MOL0     C48886   2.915   0.548   1.319 -0.3829  0.0409  0.2763
  363MOL0     N48887   2.832   0.425   1.331 -0.5038  0.4046 -0.3144
  363MOL0     C48888   2.838   0.307   1.257  0.1526 -0.2079  0.8378
  363MOL0     C48889   2.722   0.244   1.282 -0.2585 -0.8406 -0.2436
  363MOL0     C48890   2.671   0.119   1.223 -1.1601  0.2891  1.0804
  363MOL0     C48891   2.518   0.135   1.199  0.5552  0.2311 -1.6155
  363MOL0     C48892   2.466  -0.003   1.144  0.1509  0.7739 -0.3224
  363MOL0     C48893   2.478  -0.016   0.991  0.3578 -0.8721 -0.0666
  363MOL0     O48894   2.386   0.073   0.925  0.3736 -0.4311  0.7061
  363MOL0     C48895   2.321   0.039   0.811 -0.4615  0.0420 -0.1480
  363MOL0     C48896   2.192   0.096   0.792  0.2283  0.2956 -1.4904
  363MOL0     C48897   2.124   0.077   0.665  0.4450 -0.2356 -0.0979
  363MOL0     C48898   2.191   0.020   0.554  0.1659  0.2330 -0.4728
  363MOL0     C48899   2.125   0.030   0.420 -0.1400 -0.5999  0.9711
  363MOL0     O48900   2.200   0.007   0.315  0.5652 -0.3023  0.2572
  363MOL0     C48901   2.149  -0.029   0.193 -0.0150 -0.4237 -0.1245
  363MOL0     C48902   2.232  -0.013   0.086 -0.2579  0.6496  0.3979
  363MOL0     C48903   2.199  -0.042  -0.045 -0.0518  0.1779 -0.7186
  363MOL0     C48904   2.082  -0.113  -0.069  0.7671 -1.0085  0.4368
  363MOL0     O48905   2.039  -0.161  -0.189 -0.2525 -0.0118 -0.5529
  363MOL0     C48906   2.101  -0.123  -0.304 -0.3770  0.2020  0.3013
  363MOL0     C48907   2.040  -0.203  -0.416 -0.1412 -0.4435  0.0442
  363MOL0     C48908   1.890  -0.170  -0.411  0.2872  0.1014  0.3981
  363MOL0     C48909   1.834  -0.238  -0.538 -0.4127 -0.3151  0.7130
  363MOL0     C48910   1.707  -0.160  -0.590 -0.0296 -0.0172  0.0314
  363MOL0     C48911   1.598  -0.174  -0.478  0.2200  0.5023 -0.2204
  363MOL0     C48912   1.457  -0.123  -0.512 -0.1715  0.0381  0.2471
  363MOL0     C48913   1.461   0.031  -0.507  0.9440 -0.5956  0.9162
  363MOL0    Cl48914   1.516   0.109  -0.353  0.1444 -0.0910  0.5369
  363MOL0     C48915   1.987  -0.123   0.034 -0.1096  0.5191  0.2267
  363MOL0     C48916   2.018  -0.081   0.159  0.5290 -0.3610 -0.3679
  363MOL0     O48917   2.008   0.057   0.415  0.0906  0.7986 -0.0859
  363MOL0     C48918   2.324  -0.016   0.580 -0.2512 -0.3167  0.4816
  363MOL0     C48919   2.392  -0.012   0.703  0.6188  0.1538 -0.8497
  363MOL0     N48920   2.652   0.317   1.374  0.9972 -0.4933 -0.4382
  363MOL0     N48921   2.724   0.425   1.403  0.1861 -0.1386  0.0656
  363MOL0     C48922   2.895   0.747   0.324  0.0883 -0.4679 -0.4529
  363MOL0     C48923   2.812   0.735   0.213  0.5515  0.0375 -0.2981
  363MOL0     C48924   2.466   0.729  -0.062 -0.1181  0.0399 -0.1496
  363MOL0     C48925   2.453   0.839  -0.150 -0.0847  0.7071 -0.0520
  363MOL0     C48926   2.360   0.829  -0.259 -0.1971 -0.0815 -0.9506
  363MOL0     C48927   2.283   0.711  -0.279 -0.0366 -0.6369 -1.2158
  363MOL0     O48928   2.190   0.700  -0.378  0.3971  0.1668 -0.1194
  363MOL0     C48929   2.150   0.811  -0.462 -1.0623 -0.1062 -0.7519
  363MOL0     C48930   2.054   0.751  -0.547  0.2858  0.2149  0.4575
  363MOL0     C48931   2.041   0.844  -0.678  0.7623  0.5044 -1.0493
  363MOL0     C48932   1.916   0.792  -0.751 -0.3135 -0.8638  0.3203
  363MOL0     C48933   1.800   0.868  -0.709 -0.0143 -0.0878 -0.0588
  363MOL0     C48934   1.696   0.920  -0.666  0.4356 -0.6486 -0.1013
  363MOL0     C48935   2.294   0.613  -0.182  1.1079 -0.3448  0.6964
  363MOL0     C48936   2.386   0.620  -0.078 -0.6390  0.6186  0.3902
  363MOL0     C48937   2.374   0.518   0.031 -0.1920 -0.7019  0.4226
  363MOL0     H48938   2.736   1.048   0.154  2.2838  0.7156  0.3041
  363MOL0     H48939   2.885   1.081   0.345  1.4825  0.2079 -2.1085
  363MOL0     H48940   3.129   0.740   0.479  0.6732 -0.7057  1.3204
  363MOL0     H48941   3.157   0.861   0.607 -1.1573  1.2455  0.8566
  363MOL0     H48942   3.086   0.675   0.714  0.8403  1.7875  0.5251
  363MOL0     H48943   2.922   0.668   0.634 -1.3200  1.7737 -0.5895
  363MOL0     H48944   2.853   0.845   0.732  0.8242 -0.3564 -0.4310
  363MOL0     H48945   2.979   0.922   0.790 -1.6224  0.3319  0.1928
  363MOL0     H48946   2.848   0.815   0.969 -0.8322  3.2047 -4.2111
  363MOL0     H48947   2.869   0.657   0.897 -0.1258  0.7618 -3.5613
  363MOL0     H48948   3.114   0.660   0.962  0.8094  0.6967  2.1192
  363MOL0     H48949   3.113   0.830   0.982 -0.1546  1.3662  0.8117
  363MOL0     H48950   3.101   0.739   1.186  0.1398  1.1162 -0.4449
  363MOL0     H48951   2.945   0.813   1.159 -0.2948  0.6274 -1.3310
  363MOL0     H48952   2.980   0.522   1.098  1.0833  1.4249 -0.7998
  363MOL0     H48953   2.834   0.614   1.127 -0.5671 -0.3853 -0.4055
  363MOL0     H48954   3.012   0.509   1.352 -0.5999 -0.9253 -0.1936
  363MOL0     H48955   2.894   0.631   1.387  1.1310  0.2377  0.5497
  363MOL0     H48956   2.902   0.261   1.183 -0.3360 -1.8081  1.3734
  363MOL0     H48957   2.720   0.097   1.128  1.3355  0.9336  2.1581
  363MOL0     H48958   2.699   0.040   1.293  0.8220  1.1849  1.3550
  363MOL0     H48959   2.473   0.148   1.298 -0.1641 -1.1873 -1.7269
  363MOL0     H48960   2.488   0.221   1.138  0.1489 -0.7286 -2.8200
  363MOL0     H48961   2.368  -0.008   1.192  0.9558  3.0686  1.7967
  363MOL0     H48962   2.520  -0.082   1.196 -2.7842 -0.5920  0.9114
  363MOL0     H48963   2.445  -0.114   0.955 -2.0253  0.7643 -2.7532
  363MOL0     H48964   2.584  -0.002   0.970  1.5848 -6.3064  0.8895
  363MOL0     H48965   2.146   0.160   0.867  4.2146  2.1496 -0.3506
  363MOL0     H48966   2.026   0.123   0.660  0.7782  0.4830 -0.2026
  363MOL0     H48967   2.332   0.026   0.101  1.5940 -3.1718 -0.7019
  363MOL0     H48968   2.275  -0.017  -0.118 -0.9491 -0.2516 -1.8280
  363MOL0     H48969   2.083  -0.017  -0.325  0.6189  0.3466  0.1282
  363MOL0     H48970   2.209  -0.140  -0.299 -0.1828  0.5583 -1.7536
  363MOL0     H48971   2.079  -0.170  -0.513  0.9770 -1.6665  0.0484
  363MOL0     H48972   2.075  -0.307  -0.413  3.2883  0.3462 -3.5741
  363MOL0     H48973   1.835  -0.210  -0.325 -3.6340 -2.3883 -2.8913
  363MOL0     H48974   1.867  -0.064  -0.400 -0.4606 -0.3126  5.1408
  363MOL0     H48975   1.817  -0.341  -0.507  1.0618  0.2659  3.9092
  363MOL0     H48976   1.907  -0.230  -0.620 -0.6415  1.2301  0.6376
  363MOL0     H48977   1.664  -0.218  -0.672 -0.0291  1.4215 -1.0126
  363MOL0     H48978   1.726  -0.060  -0.628  0.6940  0.1069  0.7003
  363MOL0     H48979   1.590  -0.282  -0.465 -3.7750  0.6008 -0.8705
  363MOL0     H48980   1.624  -0.130  -0.381  0.6202 -0.8862  0.3265
  363MOL0     H48981   1.380  -0.165  -0.448 -1.6257  1.3691 -0.5360
  363MOL0     H48982   1.430  -0.157  -0.612  0.1701  0.2292  0.0867
  363MOL0     H48983   1.536   0.067  -0.578 -0.3412  3.6539  1.3783
  363MOL0     H48984   1.359   0.068  -0.526  1.2569  1.3924  2.6698
  363MOL0     H48985   1.889  -0.168   0.021 -0.4196  0.2918  2.6955
  363MOL0     H48986   1.942  -0.092   0.235  1.3318  2.9495  1.0657
  363MOL0     H48987   2.383  -0.051   0.495 -1.2171 -0.0731 -0.3053
  363MOL0     H48988   2.495  -0.041   0.721  0.4501  1.3536  2.7808
  363MOL0     H48989   2.908   0.657   0.383 -2.1579 -0.1667  0.6288
  363MOL0     H48990   2.776   0.638   0.179 -4.2287  1.1277  0.7964
  363MOL0     H48991   2.499   0.935  -0.126  0.7130  0.0145  1.3868
  363MOL0     H48992   2.341   0.917  -0.320 -1.5170  0.4602  0.1889
  363MOL0     H48993   2.235   0.853  -0.517 -1.0353 -0.5250 -1.0371
  363MOL0     H48994   2.128   0.900  -0.403  2.3425 -1.0924  2.3926
  363MOL0     H48995   1.958   0.752  -0.495 -0.3913  3.2046 -0.6136
  363MOL0     H48996   2.087   0.650  -0.574  4.2416  0.5182  3.3562
  363MOL0     H48997   2.128   0.832  -0.743  0.8170  1.9083 -1.2666
  363MOL0     H48998   2.029   0.951  -0.656 -0.8784  1.4106 -5.2839
  363MOL0     H48999   1.937   0.801  -0.858 -2.1577  0.0298 -0.0139
  363MOL0     H49000   1.901   0.689  -0.718 -1.7890 -0.8230 -0.1799
  363MOL0     H49001   1.608   0.973  -0.634  0.5097 -0.5621 -0.0379
  363MOL0     H49002   2.220   0.534  -0.193 -0.1684  1.0698 -1.5990
  363MOL0     H49003   2.311   0.547   0.115 -0.1210 -1.4880  0.7614
  363MOL0     H49004   2.324   0.427  -0.005 -1.1783  0.7522 -2.1765
  363MOL0     H49005   2.475   0.488   0.061 -0.0864 -1.3628 -0.5422
  364MOL0     O49006   8.016   0.299   2.058  0.9441  0.2880  0.0521
  364MOL0     C49007   7.963   0.337   2.159  0.1213 -0.9125 -0.2855
  364MOL0     O49008   7.872   0.435   2.164 -0.4445  0.3398 -0.5089
  364MOL0     C49009   7.837   0.515   2.060 -0.3917  0.2091  0.1565
  364MOL0     C49010   7.727   0.482   1.985 -0.0199  0.1374  0.3659
  364MOL0     C49011   7.708   0.559   1.879  0.0451 -0.6069  0.1208
  364MOL0     C49012   7.782   0.677   1.847  0.7572  0.1585  0.1595
  364MOL0     O49013   7.745   0.764   1.747 -0.1890 -0.1284  0.4051
  364MOL0     C49014   7.691   0.889   1.803  0.2480  0.4103 -0.3252
  364MOL0     C49015   7.606   0.949   1.695  0.3983 -0.4880  0.2275
  364MOL0     C49016   7.677   1.006   1.570  0.4940  0.3369  0.0586
  364MOL0     C49017   7.814   1.071   1.587  0.5346 -0.4521 -0.4085
  364MOL0     C49018   7.870   1.150   1.466  0.8621 -0.5216  1.0900
  364MOL0     C49019   7.993   1.224   1.509 -0.2728  0.2835 -0.3584
  364MOL0     C49020   8.059   1.308   1.393  0.9499  0.2830  0.7028
  364MOL0     C49021   8.180   1.383   1.441 -0.6321 -0.0352  1.3368
  364MOL0     N49022   8.258   1.429   1.316  0.7702  0.2585 -0.6587
  364MOL0     C49023   8.291   1.562   1.301 -0.9096 -0.4952  0.9605
  364MOL0     C49024   8.348   1.560   1.178  0.0453 -0.4090 -0.6432
  364MOL0     C49025   8.401   1.675   1.109 -0.4147  0.1155  0.3203
  364MOL0     C49026   8.323   1.708   0.975  0.1792 -1.2511  1.4000
  364MOL0     C49027   8.362   1.831   0.898  0.4725 -1.2367  0.1654
  364MOL0     C49028   8.497   1.901   0.928  0.1713  0.0991 -0.3408
  364MOL0     O49029   8.615   1.824   0.885 -0.2664 -0.1921 -0.2143
  364MOL0     C49030   8.736   1.882   0.914  0.1665  0.6252  1.0150
  364MOL0     C49031   8.751   1.981   1.009  0.0560  0.8256  0.1496
  364MOL0     C49032   8.879   2.018   1.036 -0.1971 -0.2263 -0.2528
  364MOL0     C49033   8.997   1.961   0.967 -0.1052  0.1099  0.3796
  364MOL0     C49034   9.130   2.020   0.981  0.9625 -0.3953  0.0945
  364MOL0     O49035   9.134   2.156   1.010  0.4282  0.1974  0.2711
  364MOL0     C49036   9.248   2.234   1.023  0.3380 -0.1374 -0.7918
  364MOL0     C49037   9.365   2.184   1.086  0.6737  0.4145  0.2055
  364MOL0     C49038   9.481   2.261   1.113  0.3063  1.3201  1.5454
  364MOL0     C49039   9.488   2.389   1.058  0.1859  0.0000  0.1366
  364MOL0     O49040   9.596   2.469   1.059  0.4427  0.6084 -0.2992
  364MOL0     C49041   9.726   2.412   1.106 -0.1877 -0.6483 -0.6199
  364MOL0     C49042   9.801   2.351   0.993  0.4648  0.6033 -0.6833
  364MOL0     C49043   9.854   2.457   0.897  0.3552  0.1997  0.9479
  364MOL0     C49044   9.941   2.387   0.792 -0.7849  0.2310  0.1462
  364MOL0     C49045  10.000   2.467   0.676 -0.5790 -0.2514  0.4639
  364MOL0     C49046  10.057   2.376   0.561 -1.1531  1.0727  0.1102
  364MOL0     C49047   9.967   2.265   0.506  0.1515 -0.3849  0.5684
  364MOL0     C49048   9.851   2.327   0.430 -0.0208  0.9865 -0.0398
  364MOL0    Cl49049   9.867   2.439   0.300 -0.2573  0.6011  0.2788
  364MOL0     C49050   9.369   2.439   1.000  1.0107 -0.2017  0.9251
  364MOL0     C49051   9.247   2.362   0.980 -0.1992  0.4908  0.4511
  364MOL0     O49052   9.225   1.948   0.973 -0.5904 -0.3058 -0.0101
  364MOL0     C49053   8.975   1.865   0.868  0.0879  0.1281  0.1449
  364MOL0     C49054   8.844   1.826   0.845  0.8510 -0.3919 -0.1592
  364MOL0     N49055   8.345   1.431   1.122  0.7810  1.0492  0.0056
  364MOL0     N49056   8.280   1.356   1.206  0.7273  0.4968  0.9703
  364MOL0     C49057   7.900   0.707   1.918 -0.3785 -0.1531  0.1105
  364MOL0     C49058   7.919   0.627   2.025  0.8535  1.4825  0.6769
  364MOL0     C49059   8.000   0.267   2.283 -0.0916  0.2768 -1.1002
  364MOL0     C49060   7.985   0.333   2.403  0.6594 -0.8893 -0.5072
  364MOL0     C49061   8.038   0.265   2.521  0.6291 -0.6916 -0.0630
  364MOL0     C49062   8.094   0.144   2.515 -0.7606  0.3711 -0.5000
  364MOL0     O49063   8.130   0.102   2.642  0.6552  0.5309 -0.2775
  364MOL0     C49064   8.165  -0.034   2.665  0.1286  1.9595  0.2231
  364MOL0     C49065   8.130  -0.082   2.803  0.2184  0.0607 -0.2365
  364MOL0     C49066   7.984  -0.124   2.818  0.0133 -0.1255  0.0549
  364MOL0     C49067   7.957  -0.170   2.959 -0.1758 -0.2322 -0.8823
  364MOL0     C49068   7.858  -0.270   2.965  0.9090  0.0722  0.6362
  364MOL0     C49069   7.781  -0.356   2.950 -0.4135  0.6241 -0.2433
  364MOL0     C49070   8.112   0.075   2.394 -0.2462 -1.0768 -0.2003
  364MOL0     C49071   8.059   0.133   2.279 -0.1613 -0.0400 -0.0740
  364MOL0     C49072   8.062   0.042   2.153  0.7360  0.8603  0.0013
  364MOL0     H49073   7.664   0.397   2.010  1.8174 -1.3379  0.2073
  364MOL0     H49074   7.624   0.536   1.815  0.7516  2.3840 -2.1315
  364MOL0     H49075   7.631   0.865   1.892  1.3749  0.8443  0.5877
  364MOL0     H49076   7.768   0.957   1.842 -1.3499  2.1090  0.0123
  364MOL0     H49077   7.546   1.029   1.739  1.2669  0.5549 -0.4533
  364MOL0     H49078   7.535   0.875   1.658 -1.1769  0.7506  0.6532
  364MOL0     H49079   7.602   1.071   1.525 -0.3913  0.7249  2.0324
  364MOL0     H49080   7.693   0.927   1.495  3.0441 -0.3300  1.1964
  364MOL0     H49081   7.811   1.147   1.665 -0.2656  0.7257 -1.5451
  364MOL0     H49082   7.896   1.003   1.613 -0.1964 -1.2370 -0.0850
  364MOL0     H49083   7.871   1.080   1.382 -4.5182 -1.8550  1.7553
  364MOL0     H49084   7.793   1.220   1.433  1.4396 -0.6457 -0.6247
  364MOL0     H49085   7.975   1.289   1.595  1.0502  0.1732  0.0293
  364MOL0     H49086   8.066   1.152   1.547  0.2310  1.9728  2.0660
  364MOL0     H49087   7.993   1.385   1.352  0.1326 -1.1849 -0.8383
  364MOL0     H49088   8.090   1.234   1.320  0.3599  1.6052 -0.9529
  364MOL0     H49089   8.171   1.464   1.514  5.4781  3.4257 -1.0015
  364MOL0     H49090   8.246   1.314   1.493 -1.5721 -1.4018  0.7684
  364MOL0     H49091   8.273   1.642   1.373  0.3331  2.2905 -1.6354
  364MOL0     H49092   8.391   1.769   1.165  2.5341  2.9989 -3.4526
  364MOL0     H49093   8.506   1.651   1.093 -0.0485  1.3189  0.7986
  364MOL0     H49094   8.345   1.631   0.901  2.0397  1.6209 -1.2422
  364MOL0     H49095   8.216   1.696   0.995 -0.8039 -0.7437 -2.7379
  364MOL0     H49096   8.293   1.915   0.905 -2.3257 -3.5064  2.9233
  364MOL0     H49097   8.394   1.806   0.796  1.7934  0.4081  0.1435
  364MOL0     H49098   8.502   1.916   1.036 -0.6460  1.5429 -0.4712
  364MOL0     H49099   8.498   2.002   0.885 -2.4012  0.3314  0.0183
  364MOL0     H49100   8.679   2.044   1.061 -1.2674 -0.4703 -0.0676
  364MOL0     H49101   8.894   2.110   1.093  0.1965  1.0402 -2.2814
  364MOL0     H49102   9.375   2.083   1.124 -0.9715 -0.3952 -1.3695
  364MOL0     H49103   9.570   2.224   1.162  1.4397  2.5634  0.4974
  364MOL0     H49104   9.785   2.492   1.151 -1.2652  0.6067 -1.3801
  364MOL0     H49105   9.723   2.337   1.186  0.1182  2.1401  2.1972
  364MOL0     H49106   9.887   2.297   1.033 -0.1699  0.4781  0.5751
  364MOL0     H49107   9.740   2.281   0.934  0.7139  0.8258 -1.2093
  364MOL0     H49108   9.773   2.512   0.849  1.2760 -0.6491 -1.7830
  364MOL0     H49109   9.916   2.532   0.947 -2.3424  1.9161  1.9538
  364MOL0     H49110   9.886   2.300   0.755 -0.2431  0.5683 -1.5567
  364MOL0     H49111  10.023   2.349   0.853 -0.6844  1.4274  0.7937
  364MOL0     H49112  10.076   2.543   0.695  0.3700 -0.7281 -1.1987
  364MOL0     H49113   9.926   2.532   0.629  0.0761 -1.7832 -3.0363
  364MOL0     H49114  10.089   2.444   0.481  5.7317  0.7721  1.9552
  364MOL0     H49115  10.145   2.325   0.602  0.1415 -0.5328 -4.0854
  364MOL0     H49116   9.924   2.204   0.586 -0.9130  2.4830  2.3338
  364MOL0     H49117  10.026   2.202   0.440 -0.3694  1.5078 -1.8557
  364MOL0     H49118   9.791   2.239   0.404  1.2827  0.0201  0.0978
  364MOL0     H49119   9.799   2.384   0.508  2.2742 -0.5887  2.8838
  364MOL0     H49120   9.360   2.539   0.958 -0.3578 -0.1165  1.3760
  364MOL0     H49121   9.165   2.419   0.937  1.1154  1.1708 -1.3022
  364MOL0     H49122   9.064   1.820   0.825  1.8673  4.4124 -1.1612
  364MOL0     H49123   8.817   1.752   0.770  1.4983  1.2758 -2.1061
  364MOL0     H49124   7.967   0.789   1.894 -0.5600  0.8336  2.6658
  364MOL0     H49125   7.994   0.654   2.099 -0.8341 -0.6531  3.3888
  364MOL0     H49126   7.933   0.427   2.417  3.4258  0.8728 -1.3479
  364MOL0     H49127   8.019   0.299   2.622 -0.8303  0.9844 -0.8482
  364MOL0     H49128   8.275  -0.037   2.666  0.2067 -2.4718 -0.9198
  364MOL0     H49129   8.130  -0.105   2.589  0.2498  0.3835  1.5920
  364MOL0     H49130   8.164  -0.009   2.877  0.5104  0.4453 -0.7397
  364MOL0     H49131   8.186  -0.175   2.813  0.6466  0.4343  1.0596
  364MOL0     H49132   7.961  -0.205   2.748  1.1625 -2.7146  2.4424
  364MOL0     H49133   7.908  -0.048   2.800 -0.3855 -0.6931 -0.7182
  364MOL0     H49134   8.050  -0.212   2.997  0.0475  1.1105  0.1399
  364MOL0     H49135   7.947  -0.080   3.020 -0.6248 -0.3556 -0.7700
  364MOL0     H49136   7.710  -0.436   2.939  1.3157 -0.5931 -4.3960
  364MOL0     H49137   8.168  -0.018   2.388 -0.5492 -1.1875 -2.4180
  364MOL0     H49138   8.130   0.075   2.074  0.0089  0.7268 -0.7009
  364MOL0     H49139   8.081  -0.062   2.181 -2.8655  0.9883  3.8712
  364MOL0     H49140   7.958   0.038   2.118  1.1375 -3.2748 -1.1978
  365MOL0     O49141   9.589   2.896   9.826 -0.3477  0.4305 -0.7036
  365MOL0     C49142   9.542   2.990   9.884  0.4685 -0.2153  0.4356
  365MOL0     O49143   9.423   3.057   9.845 -0.5654 -0.6911  0.4947
  365MOL0     C49144   9.362   3.050   9.725 -0.3178 -0.1932 -0.4332
  365MOL0     C49145   9.354   2.930   9.654 -0.7572 -0.2768  1.2174
  365MOL0     C49146   9.260   2.921   9.554  0.3999 -0.7990  0.2894
  365MOL0     C49147   9.169   3.033   9.513 -0.3199 -1.1873 -0.5218
  365MOL0     O49148   9.069   3.029   9.422 -0.2037 -0.1681  0.5294
  365MOL0     C49149   9.022   2.893   9.397  0.3049 -0.3926 -1.2031
  365MOL0     C49150   8.895   2.908   9.313  0.1484  0.1526  0.1392
  365MOL0     C49151   8.873   2.801   9.203  0.2099 -1.4677  1.1810
  365MOL0     C49152   8.781   2.855   9.098 -1.0739  0.1295 -0.8734
  365MOL0     C49153   8.731   2.742   9.013 -0.0481  0.4158  0.5426
  365MOL0     C49154   8.644   2.794   8.907  0.9010  0.2703  0.2064
  365MOL0     C49155   8.506   2.819   8.953 -0.1034  0.9291 -0.1265
  365MOL0     C49156   8.452   2.968   8.967  0.3571 -0.1001 -0.0370
  365MOL0     N49157   8.311   2.942   9.003  0.5719 -0.2071 -0.8112
  365MOL0     C49158   8.211   2.897   8.921 -0.3022 -0.1741  0.4520
  365MOL0     C49159   8.104   2.897   9.004 -0.6028  0.7618 -0.4086
  365MOL0     C49160   7.970   2.841   8.977 -0.6234  0.1866 -0.4220
  365MOL0     C49161   7.960   2.701   9.033 -0.0583  0.5887 -0.5030
  365MOL0     C49162   7.818   2.665   9.047 -0.1241  0.1466 -0.8445
  365MOL0     C49163   7.802   2.530   9.126 -0.0375  0.8669  0.2248
  365MOL0     O49164   7.663   2.523   9.183 -0.5988 -0.6097 -0.1870
  365MOL0     C49165   7.563   2.474   9.101  0.4034  0.4963 -0.1026
  365MOL0     C49166   7.568   2.432   8.966 -1.2142 -0.1357  0.0204
  365MOL0     C49167   7.459   2.400   8.891  0.6202 -0.2103 -0.2347
  365MOL0     C49168   7.332   2.411   8.952 -0.1058 -0.0481 -0.1453
  365MOL0     C49169   7.211   2.382   8.876 -0.1780 -0.0071 -0.7176
  365MOL0     O49170   7.242   2.326   8.754  0.5485 -0.5040  0.2216
  365MOL0     C49171   7.141   2.293   8.668  0.4756 -0.3518  0.6723
  365MOL0     C49172   7.030   2.218   8.700 -0.0333 -0.6590 -0.3985
  365MOL0     C49173   6.938   2.185   8.601 -0.2331 -0.4187  0.1326
  365MOL0     C49174   6.956   2.237   8.472  0.4526  0.5013 -0.2926
  365MOL0     O49175   6.872   2.198   8.369  0.0482  0.1300  0.5494
  365MOL0     C49176   6.732   2.173   8.383 -0.4580  0.5467  0.6984
  365MOL0     C49177   6.664   2.161   8.250 -0.8433 -0.4682  0.6206
  365MOL0     C49178   6.519   2.104   8.258  1.6678  0.2369 -0.1656
  365MOL0     C49179   6.408   2.212   8.288  0.3674  1.3000 -0.2613
  365MOL0     C49180   6.268   2.170   8.242  0.1584 -0.2374 -0.0335
  365MOL0     C49181   6.169   2.296   8.251  0.9220  0.2241  0.0997
  365MOL0     C49182   6.125   2.322   8.391 -0.0966 -0.4613  0.0092
  365MOL0     C49183   5.985   2.379   8.402  0.5927 -0.6187  0.5055
  365MOL0    Cl49184   5.943   2.513   8.316  0.0929 -0.4225  0.5550
  365MOL0     C49185   7.075   2.308   8.437  0.1850  0.1298 -0.8538
  365MOL0     C49186   7.163   2.334   8.539 -0.0698 -0.1150 -0.6156
  365MOL0     O49187   7.103   2.403   8.930  0.6620  0.4910 -0.7494
  365MOL0     C49188   7.325   2.449   9.088  0.4358 -1.3333 -0.5956
  365MOL0     C49189   7.435   2.494   9.158  0.8641  0.0173  0.4401
  365MOL0     N49190   8.150   2.914   9.135 -0.0560 -0.2385  0.5642
  365MOL0     N49191   8.268   2.963   9.130 -0.0720 -0.4213 -0.1375
  365MOL0     C49192   9.183   3.153   9.584  0.3046 -0.3428 -0.2307
  365MOL0     C49193   9.277   3.157   9.686 -0.9521 -0.4945 -0.2809
  365MOL0     C49194   9.589   3.011  10.026 -0.0299 -0.3651 -0.3498
  365MOL0     C49195   9.515   3.097  10.115  0.5288 -1.0888 -0.0047
  365MOL0     C49196   9.555   3.120  10.246  0.8011 -0.4092 -0.5015
  365MOL0     C49197   9.671   3.062  10.302 -0.0889 -0.0511  0.2561
  365MOL0     O49198   9.699   3.105  10.432  0.4286  0.6185  0.2305
  365MOL0     C49199   9.821   3.062  10.493 -0.3253  0.6359 -0.3985
  365MOL0     C49200   9.953   3.088  10.429  0.6119 -0.0348  0.1885
  365MOL0     C49201   9.973   3.236  10.393 -0.4443  0.4986 -0.0114
  365MOL0     C49202  10.107   3.260  10.326  0.1874  0.5322  0.4298
  365MOL0     C49203  10.216   3.221  10.413  0.4174  0.4379 -0.5401
  365MOL0     C49204  10.301   3.203  10.498 -0.8777 -0.3870  0.5486
  365MOL0     C49205   9.735   2.971  10.214  0.0980  0.8285 -0.6740
  365MOL0     C49206   9.704   2.946  10.077  0.0726  0.1751 -0.6449
  365MOL0     C49207   9.797   2.862   9.996  0.1684  0.7522 -0.5968
  365MOL0     H49208   9.403   2.837   9.680 -1.9900 -1.4742 -0.5595
  365MOL0     H49209   9.255   2.833   9.491 -2.7661 -0.8944  0.5514
  365MOL0     H49210   9.097   2.844   9.335  2.3247  2.8175 -1.5487
  365MOL0     H49211   8.993   2.825   9.477 -2.6181  0.4064 -1.4715
  365MOL0     H49212   8.886   3.012   9.283 -2.0599 -0.0917 -0.2082
  365MOL0     H49213   8.814   2.903   9.386  1.3683 -2.6095  1.4850
  365MOL0     H49214   8.834   2.713   9.256  3.0827 -2.5365  1.7118
  365MOL0     H49215   8.963   2.768   9.151 -1.0228 -0.9023 -1.4492
  365MOL0     H49216   8.696   2.900   9.150 -1.3211 -2.7164  1.4596
  365MOL0     H49217   8.843   2.924   9.039  2.4339 -1.4352  0.6492
  365MOL0     H49218   8.810   2.686   8.964  1.7069  3.1069  0.0627
  365MOL0     H49219   8.682   2.663   9.070  0.6925 -0.2611  0.2529
  365MOL0     H49220   8.691   2.876   8.852 -1.6290  1.7774  0.1600
  365MOL0     H49221   8.628   2.701   8.852 -1.1660  1.0190 -0.5221
  365MOL0     H49222   8.503   2.788   9.058  4.5811 -1.7716 -0.5105
  365MOL0     H49223   8.443   2.766   8.882  1.4367 -0.6836 -0.3506
  365MOL0     H49224   8.505   3.029   9.040 -1.8894  1.9696 -0.0259
  365MOL0     H49225   8.461   3.012   8.867 -1.2996 -3.2863 -1.7665
  365MOL0     H49226   8.215   2.871   8.815 -1.4023  0.5933  0.2106
  365MOL0     H49227   7.898   2.906   9.028 -1.1046 -0.2811 -0.4933
  365MOL0     H49228   7.951   2.847   8.870  0.1171  0.5083 -0.5369
  365MOL0     H49229   8.019   2.638   8.967  0.6380 -0.1585  0.7880
  365MOL0     H49230   8.002   2.702   9.134 -0.8568  1.2991 -0.1661
  365MOL0     H49231   7.766   2.670   8.951 -4.4673  0.4007  1.2491
  365MOL0     H49232   7.779   2.746   9.110  2.3659 -1.1146  2.6142
  365MOL0     H49233   7.879   2.515   9.202 -1.5559 -2.0566  1.3651
  365MOL0     H49234   7.827   2.440   9.070  2.4124 -0.8418  3.6897
  365MOL0     H49235   7.663   2.425   8.914 -0.6653 -1.6015  1.1690
  365MOL0     H49236   7.476   2.373   8.788  2.0708  1.1456 -0.3873
  365MOL0     H49237   7.021   2.183   8.803  0.3461 -0.9660 -0.4675
  365MOL0     H49238   6.869   2.111   8.641  0.5901 -1.3427 -0.1246
  365MOL0     H49239   6.721   2.072   8.422 -0.8611 -0.6483 -2.2395
  365MOL0     H49240   6.690   2.241   8.458 -0.2780 -0.3420  1.6278
  365MOL0     H49241   6.664   2.265   8.214 -2.7758  0.5894  3.3366
  365MOL0     H49242   6.727   2.101   8.184 -2.2186 -2.5484  1.1187
  365MOL0     H49243   6.501   2.044   8.169  4.5280 -3.5785  1.5320
  365MOL0     H49244   6.502   2.038   8.344 -0.4918  0.9722  0.0211
  365MOL0     H49245   6.427   2.303   8.230 -1.3403  0.0654 -2.9915
  365MOL0     H49246   6.398   2.235   8.394 -1.8501  2.0601 -0.5898
  365MOL0     H49247   6.235   2.081   8.296  3.6644 -0.8373  1.3777
  365MOL0     H49248   6.275   2.145   8.136  1.2345 -1.4396  0.3061
  365MOL0     H49249   6.208   2.386   8.202  1.4402  0.4318  0.8733
  365MOL0     H49250   6.091   2.260   8.184  2.9318  0.7551 -2.7107
  365MOL0     H49251   6.191   2.393   8.442 -1.6379 -1.9554  4.4780
  365MOL0     H49252   6.144   2.227   8.441  0.8050 -0.5399 -0.4622
  365MOL0     H49253   5.910   2.303   8.379 -1.7025  1.5475  0.4399
  365MOL0     H49254   5.974   2.412   8.506 -0.6438  1.5763 -0.2570
  365MOL0     H49255   7.076   2.338   8.333  0.1971  1.5677 -0.4626
  365MOL0     H49256   7.255   2.385   8.514  1.6510 -2.1354  1.2016
  365MOL0     H49257   7.225   2.457   9.131 -0.0270 -1.5495 -1.6021
  365MOL0     H49258   7.427   2.535   9.258 -1.9160 -0.2993  0.4405
  365MOL0     H49259   9.108   3.230   9.566  1.1535  0.7632  0.8055
  365MOL0     H49260   9.300   3.257   9.723 -2.9478  0.2096 -0.8574
  365MOL0     H49261   9.413   3.120  10.087  0.0634  2.3613  3.6658
  365MOL0     H49262   9.488   3.186  10.301  2.2997  1.4637 -0.8394
  365MOL0     H49263   9.816   2.953  10.501 -4.3984  0.5583 -1.4912
  365MOL0     H49264   9.823   3.112  10.590  5.0713  0.0042  0.1172
  365MOL0     H49265   9.975   3.015  10.351 -0.1275  0.0125 -0.0734
  365MOL0     H49266  10.024   3.085  10.512 -0.9096  2.3985  1.7259
  365MOL0     H49267   9.974   3.293  10.486  2.2074  0.3517  0.1165
  365MOL0     H49268   9.897   3.270  10.323  1.2583  2.7883 -0.8618
  365MOL0     H49269  10.129   3.205  10.234 -1.5158  0.8827 -0.2259
  365MOL0     H49270  10.111   3.367  10.302  0.6985  0.3185 -0.4905
  365MOL0     H49271  10.370   3.190  10.579  0.5853  4.0049  0.2416
  365MOL0     H49272   9.821   2.919  10.255  0.7226  2.6914  0.5384
  365MOL0     H49273   9.896   2.851  10.040 -1.5302  0.6413  3.6653
  365MOL0     H49274   9.751   2.764   9.978  0.1516  1.3484 -4.7916
  365MOL0     H49275   9.813   2.907   9.897 -2.3079 -1.9682 -2.4029
  366MOL0     O49276   0.282   0.834   5.580 -0.3859  0.4006 -0.2599
  366MOL0     C49277   0.277   0.753   5.675  1.0529 -0.4770 -0.2123
  366MOL0     O49278   0.164   0.686   5.711  0.4140 -0.4952 -0.1089
  366MOL0     C49279   0.069   0.653   5.613 -0.7892 -0.3378  0.5323
  366MOL0     C49280   0.011   0.524   5.613  0.2057  0.0477 -0.7957
  366MOL0     C49281  -0.105   0.488   5.542  0.4685  0.3036 -1.1381
  366MOL0     C49282  -0.158   0.582   5.453 -0.7149  0.2916  0.0930
  366MOL0     O49283  -0.262   0.544   5.363 -0.5559 -0.1175 -0.1269
  366MOL0     C49284  -0.286   0.623   5.244  0.6841 -0.3731  0.7452
  366MOL0     C49285  -0.351   0.542   5.137 -0.4553  0.1680 -0.2433
  366MOL0     C49286  -0.251   0.464   5.050  0.5165 -1.1119 -0.3514
  366MOL0     C49287  -0.327   0.404   4.928  0.4244 -0.2181  0.9122
  366MOL0     C49288  -0.235   0.333   4.834  0.3542  1.0151 -0.5006
  366MOL0     C49289  -0.290   0.189   4.787  0.1497  0.8545  0.6369
  366MOL0     C49290  -0.164   0.093   4.766  0.4020  0.0014 -0.3324
  366MOL0     C49291  -0.205  -0.031   4.688 -0.7481  0.9004  0.5666
  366MOL0     N49292  -0.245  -0.152   4.769 -0.0110  0.0944 -0.5246
  366MOL0     C49293  -0.359  -0.165   4.844  0.1487 -0.2545  0.1092
  366MOL0     C49294  -0.339  -0.255   4.940 -0.2592 -0.6056 -0.0053
  366MOL0     C49295  -0.435  -0.277   5.050 -0.0751 -0.2480  0.3212
  366MOL0     C49296  -0.401  -0.401   5.140  0.5935  0.0983 -0.6639
  366MOL0     C49297  -0.515  -0.411   5.248 -0.7547 -0.3436  0.6821
  366MOL0     C49298  -0.478  -0.331   5.373 -0.0262 -1.0171 -0.7772
  366MOL0     O49299  -0.496  -0.184   5.365 -0.3793 -0.0042 -0.6103
  366MOL0     C49300  -0.476  -0.100   5.472 -0.7458  0.0104  0.7202
  366MOL0     C49301  -0.501   0.037   5.451 -0.4009 -0.0181  0.7457
  366MOL0     C49302  -0.479   0.141   5.544  0.0084  0.1949  0.9669
  366MOL0     C49303  -0.454   0.093   5.672  0.4846  1.7881  0.7727
  366MOL0     C49304  -0.431   0.178   5.795 -0.5959  0.5239  0.5729
  366MOL0     O49305  -0.327   0.136   5.876  0.5822 -0.4548  0.0140
  366MOL0     C49306  -0.307   0.209   5.983 -0.3338  0.2638  0.0575
  366MOL0     C49307  -0.389   0.205   6.100 -0.1319 -0.0459  0.1215
  366MOL0     C49308  -0.350   0.289   6.213  0.5024  0.0738  0.7978
  366MOL0     C49309  -0.237   0.374   6.208  0.0635  0.2055  0.0557
  366MOL0     O49310  -0.206   0.446   6.324 -0.1325 -0.2616  0.3412
  366MOL0     C49311  -0.103   0.545   6.319 -0.0148  0.5557  0.6561
  366MOL0     C49312   0.037   0.480   6.320 -0.2019 -0.5748  0.4408
  366MOL0     C49313   0.137   0.572   6.249 -0.8252 -0.3729 -0.1907
  366MOL0     C49314   0.172   0.698   6.329 -0.0281  0.5004 -0.5907
  366MOL0     C49315   0.297   0.750   6.261 -1.5900 -0.7016  0.2931
  366MOL0     C49316   0.346   0.874   6.347 -0.8484  0.0742  0.5340
  366MOL0     C49317   0.476   0.934   6.295 -0.6267  0.1063 -0.2187
  366MOL0     C49318   0.538   1.046   6.380 -0.0873 -0.5519 -0.3119
  366MOL0    Cl49319   0.696   1.080   6.305 -0.3534 -0.1656 -0.2560
  366MOL0     C49320  -0.161   0.377   6.086 -0.2497  0.7304  0.4657
  366MOL0     C49321  -0.198   0.295   5.976  0.3360 -0.8335  0.2986
  366MOL0     O49322  -0.495   0.280   5.799 -0.2309  0.7574  0.9002
  366MOL0     C49323  -0.440  -0.047   5.702  0.0920 -0.1579  0.9335
  366MOL0     C49324  -0.449  -0.139   5.595 -0.7951 -0.1267  0.0534
  366MOL0     N49325  -0.222  -0.311   4.919 -0.8347  1.2435  0.1311
  366MOL0     N49326  -0.162  -0.245   4.826 -0.7358 -0.0576  0.2927
  366MOL0     C49327  -0.096   0.709   5.453  0.8028  0.2778  0.8544
  366MOL0     C49328   0.006   0.748   5.536  1.0031 -0.6641  1.4082
  366MOL0     C49329   0.399   0.729   5.772  0.3290 -0.4694  0.2684
  366MOL0     C49330   0.398   0.636   5.878  0.0156 -0.4293 -0.8842
  366MOL0     C49331   0.490   0.622   5.973  0.0167  0.9809  0.0167
  366MOL0     C49332   0.602   0.693   5.972  0.2222 -0.3317  0.6605
  366MOL0     O49333   0.693   0.661   6.068  0.8472  0.4480 -0.1082
  366MOL0     C49334   0.825   0.720   6.062 -0.1192  0.1029 -0.5817
  366MOL0     C49335   0.906   0.650   6.175 -0.0479 -0.3955 -0.0368
  366MOL0     C49336   0.837   0.646   6.317 -0.0513 -0.4667  0.4738
  366MOL0     C49337   0.926   0.611   6.432 -0.4168  0.4395  0.4264
  366MOL0     C49338   0.990   0.481   6.423  0.7250  0.3804  0.1428
  366MOL0     C49339   1.037   0.377   6.433  0.1411  1.5025  0.3984
  366MOL0     C49340   0.624   0.776   5.851 -0.5689  0.2751 -1.1174
  366MOL0     C49341   0.513   0.806   5.769 -0.4215  0.1147 -0.4430
  366MOL0     C49342   0.532   0.919   5.673  0.3889 -1.2219 -0.1187
  366MOL0     H49343   0.061   0.453   5.678  1.6289  0.9393 -0.8984
  366MOL0     H49344  -0.157   0.394   5.560  1.3093  0.1545  0.6786
  366MOL0     H49345  -0.354   0.707   5.260 -1.1290 -1.1533 -2.1772
  366MOL0     H49346  -0.188   0.649   5.203  0.3354 -0.2788 -0.0393
  366MOL0     H49347  -0.392   0.605   5.057 -0.9360 -2.0828 -1.8864
  366MOL0     H49348  -0.425   0.474   5.180  1.4249 -0.2186  2.5917
  366MOL0     H49349  -0.195   0.386   5.102  3.1056  1.9733  1.8925
  366MOL0     H49350  -0.173   0.528   5.006 -1.0461  0.1923 -1.3655
  366MOL0     H49351  -0.404   0.338   4.968  0.3829 -0.1668  0.9188
  366MOL0     H49352  -0.384   0.476   4.867  0.8411 -1.0319 -0.4773
  366MOL0     H49353  -0.207   0.393   4.747 -1.6156 -0.5464 -2.3303
  366MOL0     H49354  -0.142   0.310   4.887  0.6146  0.1671 -1.2930
  366MOL0     H49355  -0.369   0.147   4.849 -0.5692 -0.8801 -1.3523
  366MOL0     H49356  -0.347   0.204   4.695 -4.0608  1.8996  3.1408
  366MOL0     H49357  -0.139   0.065   4.869 -0.5544  2.8650  0.7542
  366MOL0     H49358  -0.090   0.156   4.717 -0.3144 -0.5166 -2.1447
  366MOL0     H49359  -0.278  -0.005   4.611 -2.4102 -3.2256  0.5173
  366MOL0     H49360  -0.113  -0.062   4.638 -0.8676  0.1818  0.7800
  366MOL0     H49361  -0.442  -0.104   4.810 -0.2788 -2.0014 -2.1983
  366MOL0     H49362  -0.442  -0.185   5.109  0.1721  2.1638 -3.1554
  366MOL0     H49363  -0.534  -0.286   5.004 -0.0649 -0.2613  0.3024
  366MOL0     H49364  -0.391  -0.501   5.098 -1.5906 -0.1282 -0.7559
  366MOL0     H49365  -0.302  -0.381   5.182  0.6362 -0.6842 -0.3821
  366MOL0     H49366  -0.530  -0.516   5.275  3.3456 -1.4680 -0.7094
  366MOL0     H49367  -0.618  -0.382   5.222 -0.5708 -0.6613 -0.4220
  366MOL0     H49368  -0.372  -0.339   5.400  1.5737  5.0997 -3.5381
  366MOL0     H49369  -0.541  -0.365   5.455 -3.5768 -1.3796 -3.4423
  366MOL0     H49370  -0.523   0.081   5.355 -0.3400  0.8309  1.1126
  366MOL0     H49371  -0.494   0.243   5.512 -0.5310 -0.7083 -1.8740
  366MOL0     H49372  -0.483   0.149   6.095 -0.8363  1.1810 -0.9295
  366MOL0     H49373  -0.409   0.284   6.304 -1.2618 -1.2091 -0.3520
  366MOL0     H49374  -0.124   0.616   6.238  0.5733  2.2250  1.8877
  366MOL0     H49375  -0.110   0.605   6.411 -1.4977  0.9415  0.3207
  366MOL0     H49376   0.079   0.457   6.419  3.3820  0.5420 -0.6438
  366MOL0     H49377   0.033   0.381   6.274  0.0062  0.6384 -2.4160
  366MOL0     H49378   0.235   0.525   6.247  0.4620  2.1482 -0.5711
  366MOL0     H49379   0.106   0.601   6.148 -2.2615  3.3566  1.1511
  366MOL0     H49380   0.199   0.672   6.432 -0.1118  0.2422 -0.6348
  366MOL0     H49381   0.089   0.769   6.338 -0.7671 -0.6233  2.6849
  366MOL0     H49382   0.281   0.782   6.158  0.0567  1.5942  0.6539
  366MOL0     H49383   0.376   0.675   6.256 -0.8624  0.0789 -0.2819
  366MOL0     H49384   0.261   0.941   6.335 -0.5098  0.3828 -0.1920
  366MOL0     H49385   0.364   0.852   6.452  0.1503 -2.6219 -0.0966
  366MOL0     H49386   0.452   0.972   6.196 -1.9598 -0.2407 -0.0509
  366MOL0     H49387   0.558   0.862   6.294  0.3731  1.2257 -0.0423
  366MOL0     H49388   0.470   1.132   6.386 -0.3127 -0.7277 -0.2950
  366MOL0     H49389   0.554   1.009   6.482  2.1683  1.7872  0.2817
  366MOL0     H49390  -0.080   0.446   6.064  0.7166 -0.9352 -1.5620
  366MOL0     H49391  -0.143   0.314   5.885  1.9593 -0.8107  1.2472
  366MOL0     H49392  -0.439  -0.076   5.806 -1.0281  3.3837  2.0558
  366MOL0     H49393  -0.429  -0.244   5.611 -1.5000 -0.7332 -2.5808
  366MOL0     H49394  -0.138   0.792   5.397  0.3983 -0.0168  0.7111
  366MOL0     H49395   0.028   0.853   5.521 -2.2957 -0.1363 -0.6252
  366MOL0     H49396   0.307   0.577   5.868 -0.3675  0.4297 -3.1048
  366MOL0     H49397   0.479   0.551   6.053 -4.1569 -0.0283 -1.2235
  366MOL0     H49398   0.831   0.828   6.079  1.6841  0.0922 -1.0106
  366MOL0     H49399   0.884   0.708   5.971  1.5056 -0.4091  0.5041
  366MOL0     H49400   1.000   0.707   6.170  0.2078 -0.9192 -2.8809
  366MOL0     H49401   0.920   0.548   6.138 -1.7728 -0.4109 -0.7391
  366MOL0     H49402   0.755   0.574   6.318  1.0287 -1.7275  0.9871
  366MOL0     H49403   0.806   0.751   6.320  1.4418  0.0085  0.2538
  366MOL0     H49404   1.003   0.686   6.452 -1.8102  1.9889  0.1558
  366MOL0     H49405   0.855   0.616   6.515  0.3591 -0.2826  1.1576
  366MOL0     H49406   1.078   0.282   6.404  1.8307  2.9297 -2.2852
  366MOL0     H49407   0.706   0.843   5.826 -1.5457  1.3427 -1.6042
  366MOL0     H49408   0.542   0.891   5.568  3.0350 -0.2482 -0.2151
  366MOL0     H49409   0.454   0.993   5.690  0.6290 -0.2910 -2.6234
  366MOL0     H49410   0.620   0.982   5.693 -0.0923 -1.2849  2.6006
  367MOL0     O49411   5.565   0.842   3.097  0.2118  0.2855 -0.1100
  367MOL0     C49412   5.623   0.941   3.054 -0.6201 -0.1644 -0.0943
  367MOL0     O49413   5.615   1.068   3.095  0.3767  0.7109  0.1798
  367MOL0     C49414   5.577   1.122   3.209  0.1780 -1.0594 -0.0983
  367MOL0     C49415   5.568   1.045   3.325  0.3917 -0.4674 -0.7215
  367MOL0     C49416   5.544   1.114   3.452 -0.2003  0.0156  0.1171
  367MOL0     C49417   5.560   1.256   3.456  0.4085 -0.2931  0.3408
  367MOL0     O49418   5.571   1.335   3.573  0.5203 -0.2926  0.0972
  367MOL0     C49419   5.606   1.268   3.691 -0.3428  0.0598 -0.1668
  367MOL0     C49420   5.604   1.355   3.810  0.1782  0.9964  0.0003
  367MOL0     C49421   5.460   1.384   3.838  0.4268 -0.4122 -0.1111
  367MOL0     C49422   5.424   1.478   3.949 -0.4221  0.3892  0.2445
  367MOL0     C49423   5.273   1.507   3.938 -0.2777  0.0109 -0.0194
  367MOL0     C49424   5.237   1.625   4.024 -0.0582  0.1399 -0.6783
  367MOL0     C49425   5.094   1.681   4.001  0.3538  0.0473  0.3747
  367MOL0     C49426   5.043   1.779   4.113 -0.0520 -0.0075  0.0733
  367MOL0     N49427   5.019   1.705   4.239  0.2363  0.0843  0.3875
  367MOL0     C49428   4.920   1.611   4.260  1.3543  0.3656  0.4807
  367MOL0     C49429   4.948   1.539   4.371  0.4727  0.6599  0.9539
  367MOL0     C49430   4.898   1.407   4.401 -0.1148  0.6251  0.1756
  367MOL0     C49431   4.870   1.342   4.537 -0.3888  0.0601 -0.7760
  367MOL0     C49432   4.985   1.321   4.650 -0.2110  0.9233 -0.0250
  367MOL0     C49433   5.111   1.267   4.587 -0.4642  0.7663  0.2382
  367MOL0     O49434   5.078   1.144   4.529 -0.2580  0.1154  0.2998
  367MOL0     C49435   5.184   1.061   4.497  0.7469  0.4316  0.4267
  367MOL0     C49436   5.152   0.928   4.458  0.5532  0.3967  0.0054
  367MOL0     C49437   5.250   0.839   4.423 -0.4412  0.1516 -0.3007
  367MOL0     C49438   5.390   0.884   4.429 -0.0013  0.2994  0.2093
  367MOL0     C49439   5.495   0.788   4.398  0.0120  0.6667  0.8778
  367MOL0     O49440   5.452   0.658   4.389  0.3352 -0.1801 -0.3112
  367MOL0     C49441   5.540   0.554   4.379  0.7534  0.2825 -0.1385
  367MOL0     C49442   5.681   0.544   4.361  0.4715  0.0907 -0.0063
  367MOL0     C49443   5.730   0.407   4.368 -0.0347  0.1806  0.5536
  367MOL0     C49444   5.656   0.290   4.400 -0.7827 -0.1263 -0.2259
  367MOL0     O49445   5.700   0.156   4.388 -0.8208 -0.5036  0.2709
  367MOL0     C49446   5.840   0.137   4.358 -0.0706  0.6427 -0.6020
  367MOL0     C49447   5.871  -0.011   4.302  0.5649 -0.1085 -0.0392
  367MOL0     C49448   5.823  -0.117   4.406 -0.9176  0.2980 -0.2719
  367MOL0     C49449   5.873  -0.259   4.364 -0.8333  0.3938 -0.1086
  367MOL0     C49450   5.807  -0.377   4.446  0.2732 -0.0315  0.0230
  367MOL0     C49451   5.866  -0.383   4.586 -0.1425  0.1707 -0.0375
  367MOL0     C49452   5.778  -0.472   4.665  0.3393 -1.3626 -0.1580
  367MOL0     C49453   5.843  -0.537   4.783  0.2822 -0.2743 -0.4898
  367MOL0    Cl49454   5.933  -0.410   4.891 -0.2129 -0.2706  0.4751
  367MOL0     C49455   5.524   0.316   4.424 -0.5779  0.0170 -0.1868
  367MOL0     C49456   5.473   0.443   4.423 -0.1948  0.9746 -0.8860
  367MOL0     O49457   5.613   0.823   4.393  0.7122  0.0137  0.5211
  367MOL0     C49458   5.422   1.013   4.462  0.8043 -0.1633  0.0225
  367MOL0     C49459   5.319   1.107   4.494  0.0576 -0.1228  0.1226
  367MOL0     N49460   5.059   1.605   4.431 -0.2206  0.7491 -0.2805
  367MOL0     N49461   5.108   1.693   4.345 -0.2242  0.0208  0.6527
  367MOL0     C49462   5.571   1.324   3.328  0.7404 -0.5508 -0.2212
  367MOL0     C49463   5.572   1.255   3.213  0.4923 -0.8459  0.7078
  367MOL0     C49464   5.711   0.915   2.933  0.0400  0.7004  0.5722
  367MOL0     C49465   5.760   0.789   2.900  1.0077 -1.2278  0.4048
  367MOL0     C49466   5.832   0.765   2.782 -0.3051  0.3223 -0.6709
  367MOL0     C49467   5.854   0.862   2.691  0.4890  0.0517  0.5309
  367MOL0     O49468   5.913   0.841   2.564  0.0914 -0.5491 -0.3315
  367MOL0     C49469   5.819   0.834   2.458  0.0123  0.1498 -0.2173
  367MOL0     C49470   5.793   0.684   2.418  0.1585 -0.2932 -0.1814
  367MOL0     C49471   5.920   0.613   2.370  0.0087  0.6084  0.5772
  367MOL0     C49472   5.899   0.461   2.312  0.2901 -0.8917 -0.1638
  367MOL0     C49473   5.915   0.364   2.419  0.3702 -0.4746 -0.2636
  367MOL0     C49474   5.937   0.292   2.511 -0.1025  0.0717 -0.6051
  367MOL0     C49475   5.830   0.992   2.726  0.6279 -0.0333  0.1714
  367MOL0     C49476   5.761   1.022   2.841  0.7205  0.1585  0.7847
  367MOL0     C49477   5.748   1.168   2.874 -0.0687 -0.6134  0.2497
  367MOL0     H49478   5.564   0.936   3.329  3.3345 -0.6118  1.2937
  367MOL0     H49479   5.531   1.048   3.537  0.2116  0.6259  0.6685
  367MOL0     H49480   5.536   1.186   3.708 -0.3018  0.0564 -0.0127
  367MOL0     H49481   5.707   1.226   3.685 -0.1414 -0.1108  2.8185
  367MOL0     H49482   5.666   1.442   3.787  1.0263  0.8772  1.6166
  367MOL0     H49483   5.642   1.305   3.900 -1.7127 -1.1415 -0.3204
  367MOL0     H49484   5.405   1.290   3.847  0.8495 -0.7225 -0.6727
  367MOL0     H49485   5.419   1.435   3.750  0.3850  1.1225  0.7560
  367MOL0     H49486   5.458   1.447   4.048  2.0669  1.6407 -0.1459
  367MOL0     H49487   5.482   1.569   3.929 -2.1861  1.3390 -0.7805
  367MOL0     H49488   5.254   1.547   3.838 -5.1810  1.3216  1.1832
  367MOL0     H49489   5.200   1.429   3.957 -2.4063  2.0334  0.6205
  367MOL0     H49490   5.237   1.583   4.125 -1.3805 -0.6843 -0.9973
  367MOL0     H49491   5.315   1.700   4.034  1.8207 -1.9618  1.5980
  367MOL0     H49492   5.028   1.595   3.989  0.1000  0.6281 -6.2127
  367MOL0     H49493   5.093   1.741   3.909 -1.7612  0.7156  0.7812
  367MOL0     H49494   5.115   1.861   4.121  0.3827  0.0629 -3.1294
  367MOL0     H49495   4.942   1.807   4.079 -0.4212  0.0277  1.1842
  367MOL0     H49496   4.851   1.575   4.184  1.1544  0.4692  0.6150
  367MOL0     H49497   4.812   1.382   4.338  1.3273 -0.9839 -1.2602
  367MOL0     H49498   4.978   1.343   4.362 -1.1734 -0.1079 -0.8703
  367MOL0     H49499   4.802   1.415   4.582  0.6699  2.3019 -2.6502
  367MOL0     H49500   4.811   1.250   4.529  1.0684 -1.0663  0.5694
  367MOL0     H49501   4.954   1.266   4.739 -1.0673 -0.9072 -1.3809
  367MOL0     H49502   5.011   1.423   4.678  0.8898 -0.3627  4.4992
  367MOL0     H49503   5.189   1.241   4.659  2.2579 -2.6901 -3.4804
  367MOL0     H49504   5.161   1.342   4.524 -0.0573  1.8408  1.7746
  367MOL0     H49505   5.048   0.900   4.448  0.0540  2.5434 -1.4595
  367MOL0     H49506   5.219   0.739   4.396 -1.3685  0.0798  0.9195
  367MOL0     H49507   5.741   0.633   4.340  2.1062 -1.1078 -0.5786
  367MOL0     H49508   5.838   0.405   4.364  0.2070  1.8969  3.4874
  367MOL0     H49509   5.871   0.192   4.268  0.1759 -0.1466 -1.0101
  367MOL0     H49510   5.898   0.153   4.449  0.4197 -2.7046 -0.2128
  367MOL0     H49511   5.818  -0.022   4.207  1.6125 -1.9659 -0.4451
  367MOL0     H49512   5.978  -0.016   4.280  0.4823  0.8566 -0.7570
  367MOL0     H49513   5.858  -0.084   4.504 -3.2822  0.0790  0.7011
  367MOL0     H49514   5.714  -0.114   4.410 -0.9696 -1.4181  0.1615
  367MOL0     H49515   5.980  -0.278   4.379 -1.4108 -1.9245  1.6026
  367MOL0     H49516   5.858  -0.268   4.256 -0.5025 -1.0118 -0.0574
  367MOL0     H49517   5.818  -0.473   4.394  1.5860  0.2112 -0.2042
  367MOL0     H49518   5.700  -0.360   4.435 -0.3768 -1.6487  2.9668
  367MOL0     H49519   5.974  -0.401   4.593 -0.0437  1.3444  2.5777
  367MOL0     H49520   5.863  -0.285   4.633 -3.9169 -0.4285  1.2750
  367MOL0     H49521   5.729  -0.552   4.607 -3.9661  0.2120  0.8803
  367MOL0     H49522   5.697  -0.406   4.697  0.3809 -1.5176  0.2685
  367MOL0     H49523   5.767  -0.591   4.840  0.8067 -1.9332 -1.3178
  367MOL0     H49524   5.916  -0.611   4.750  0.8036 -0.5805  1.2307
  367MOL0     H49525   5.463   0.227   4.431 -0.3790 -0.3067 -1.9295
  367MOL0     H49526   5.369   0.455   4.449 -0.5924  0.6983 -2.2722
  367MOL0     H49527   5.520   1.059   4.464  1.2122 -0.9317 -1.2326
  367MOL0     H49528   5.360   1.204   4.522  1.0450 -0.9825  1.8166
  367MOL0     H49529   5.579   1.432   3.332 -0.4809 -0.3957 -1.0878
  367MOL0     H49530   5.594   1.310   3.122  1.3666 -0.7292  0.9779
  367MOL0     H49531   5.733   0.713   2.972 -1.0176  0.4532  1.5435
  367MOL0     H49532   5.875   0.669   2.755  0.3698 -0.4129  2.5617
  367MOL0     H49533   5.871   0.894   2.382 -0.2858  0.1134 -0.4483
  367MOL0     H49534   5.721   0.871   2.490  0.9991  1.9385  0.9250
  367MOL0     H49535   5.713   0.688   2.344  0.3243  0.7657 -0.3223
  367MOL0     H49536   5.744   0.628   2.499  0.6806 -1.5781 -0.7213
  367MOL0     H49537   6.002   0.599   2.441  0.1327 -4.0239 -0.1464
  367MOL0     H49538   5.966   0.681   2.297  1.0694  0.8863  1.4760
  367MOL0     H49539   5.797   0.465   2.271  0.7262  0.1380 -1.2001
  367MOL0     H49540   5.973   0.451   2.233 -0.3188 -1.9239 -0.6160
  367MOL0     H49541   5.939   0.213   2.584 -0.7740 -2.4372 -3.0967
  367MOL0     H49542   5.873   1.070   2.664 -0.9264 -0.1284 -1.0848
  367MOL0     H49543   5.646   1.202   2.889 -0.5425 -1.2853 -1.2537
  367MOL0     H49544   5.799   1.178   2.970  1.5063 -0.0711 -0.5999
  367MOL0     H49545   5.808   1.232   2.808  0.5978  0.3228  1.7148
  368MOL0     O49546   2.230  10.573   2.581 -0.1012  0.8865  0.8299
  368MOL0     C49547   2.131  10.566   2.661  0.2315  0.4014  0.5835
  368MOL0     O49548   2.121  10.647   2.773  0.4103 -0.0839 -0.7486
  368MOL0     C49549   2.233  10.728   2.804  0.9984  0.0466 -0.2530
  368MOL0     C49550   2.311  10.685   2.921 -0.0464 -0.3090 -0.4653
  368MOL0     C49551   2.414  10.774   2.956 -1.0733  0.5557  0.6097
  368MOL0     C49552   2.454  10.887   2.883 -0.4547 -0.4733 -0.2659
  368MOL0     O49553   2.549  10.970   2.925  0.2213  0.3536 -0.4489
  368MOL0     C49554   2.530  11.110   2.921  0.6548  0.4912  0.1853
  368MOL0     C49555   2.575  11.185   3.039  1.3624  0.1287  0.0795
  368MOL0     C49556   2.728  11.184   3.049  0.7014  0.1264  0.4759
  368MOL0     C49557   2.766  11.299   3.141 -0.3208 -0.0484  0.2933
  368MOL0     C49558   2.921  11.261   3.168  0.6782 -0.8158 -0.0979
  368MOL0     C49559   3.016  11.363   3.087 -0.7288 -0.4898  0.3536
  368MOL0     C49560   3.172  11.336   3.119 -0.0770 -0.2568  0.8039
  368MOL0     C49561   3.269  11.434   3.060 -0.5676 -0.3917 -0.9108
  368MOL0     N49562   3.347  11.388   2.947  0.5818  0.7411 -0.2802
  368MOL0     C49563   3.332  11.441   2.820 -0.0143  0.1745 -0.7737
  368MOL0     C49564   3.430  11.384   2.755 -0.4107 -0.0294  0.0784
  368MOL0     C49565   3.489  11.409   2.611  0.3965  0.5958  0.0274
  368MOL0     C49566   3.424  11.318   2.509  0.1973  1.3007 -0.2792
  368MOL0     C49567   3.493  11.183   2.502 -0.5952  0.5341  0.3557
  368MOL0     C49568   3.439  11.105   2.382  0.4189  0.6303  0.4594
  368MOL0     O49569   3.525  10.997   2.361  0.6273  0.3247 -0.8475
  368MOL0     C49570   3.500  10.889   2.435 -0.3453 -0.0816  0.1815
  368MOL0     C49571   3.371  10.840   2.456  0.8013 -0.2818 -0.3211
  368MOL0     C49572   3.362  10.723   2.540 -0.5479 -0.0737  0.3077
  368MOL0     C49573   3.474  10.653   2.585 -0.9188  0.5889  0.8883
  368MOL0     C49574   3.458  10.518   2.662 -0.5250 -0.8023  0.7656
  368MOL0     O49575   3.328  10.482   2.693  0.1486  0.3842  0.7398
  368MOL0     C49576   3.309  10.371   2.764 -0.3401 -0.4129  0.0976
  368MOL0     C49577   3.207  10.362   2.866 -0.0311  0.0170 -1.1471
  368MOL0     C49578   3.204  10.242   2.947 -0.1476  0.6292 -0.2348
  368MOL0     C49579   3.281  10.125   2.924  0.4031 -0.3960 -0.1032
  368MOL0     O49580   3.271  10.011   2.993 -0.5004  0.1338  0.2190
  368MOL0     C49581   3.272  10.019   3.137 -0.1308  0.1690 -0.3626
  368MOL0     C49582   3.264   9.879   3.207 -0.0930 -0.0365 -0.6639
  368MOL0     C49583   3.124   9.828   3.177  0.2280  0.0399 -0.4931
  368MOL0     C49584   3.116   9.680   3.231 -0.3151  0.1060 -0.1549
  368MOL0     C49585   3.001   9.601   3.161  0.8764 -0.6527 -0.3330
  368MOL0     C49586   3.059   9.483   3.078  0.2326 -0.0908 -0.5637
  368MOL0     C49587   2.949   9.418   2.991  0.2155  0.3363 -1.4810
  368MOL0     C49588   2.999   9.284   2.935 -0.3335  0.2023  0.5992
  368MOL0    Cl49589   2.899   9.223   2.798  0.2315 -0.5096  0.2481
  368MOL0     C49590   3.366  10.134   2.808  0.8394 -0.1877 -1.4697
  368MOL0     C49591   3.370  10.248   2.728 -0.9556  0.1767 -0.2826
  368MOL0     O49592   3.557  10.468   2.700  0.4304 -0.4698 -0.0779
  368MOL0     C49593   3.600  10.695   2.552 -0.3224 -1.0445 -0.6078
  368MOL0     C49594   3.609  10.817   2.474 -0.4114  1.4663  0.3118
  368MOL0     N49595   3.487  11.281   2.834 -0.9244  0.0396  1.0595
  368MOL0     N49596   3.422  11.280   2.946 -0.3246  0.2346 -0.1380
  368MOL0     C49597   2.373  10.914   2.772  0.5775 -0.7960  0.3849
  368MOL0     C49598   2.261  10.842   2.727  0.2821 -0.0790 -0.3005
  368MOL0     C49599   2.029  10.462   2.644  0.7104 -0.0814 -0.2565
  368MOL0     C49600   1.932  10.477   2.547 -0.2194  0.3024  0.2712
  368MOL0     C49601   1.826  10.381   2.528 -0.3154 -0.6059  0.1037
  368MOL0     C49602   1.822  10.266   2.616 -0.2191 -0.0469 -0.1155
  368MOL0     O49603   1.722  10.169   2.627  0.1141 -0.9074  0.1957
  368MOL0     C49604   1.588  10.182   2.556 -0.0099 -1.2230  0.1494
  368MOL0     C49605   1.607  10.153   2.409  0.5973 -0.6149  0.1383
  368MOL0     C49606   1.480  10.184   2.331 -0.5980  0.2191 -0.6935
  368MOL0     C49607   1.426  10.329   2.342  0.0534 -0.8583  1.3755
  368MOL0     C49608   1.510  10.421   2.272 -0.0767 -0.4168  0.1875
  368MOL0     C49609   1.593  10.487   2.208  0.8891 -0.4327  0.6772
  368MOL0     C49610   1.928  10.252   2.702 -0.5915 -0.1510 -0.6463
  368MOL0     C49611   2.022  10.353   2.732 -0.1001 -0.1858  0.1544
  368MOL0     C49612   2.138  10.327   2.836 -0.6961 -0.0979  0.1739
  368MOL0     H49613   2.275  10.603   2.982  0.5685  0.6686  1.2661
  368MOL0     H49614   2.466  10.758   3.051 -0.0254  3.2264  0.5689
  368MOL0     H49615   2.581  11.165   2.841  1.2401  1.9100  1.4783
  368MOL0     H49616   2.421  11.117   2.916  0.5531 -1.1463 -2.5125
  368MOL0     H49617   2.538  11.141   3.132 -1.8309 -3.0535 -2.4355
  368MOL0     H49618   2.546  11.290   3.025  0.9276 -0.3816 -4.5881
  368MOL0     H49619   2.771  11.198   2.949 -2.5814 -0.3901 -1.1334
  368MOL0     H49620   2.754  11.082   3.080 -4.6035 -1.7318 -0.1559
  368MOL0     H49621   2.750  11.395   3.090 -0.6065 -0.8886 -1.2461
  368MOL0     H49622   2.702  11.288   3.229 -1.2032 -0.0095 -0.3329
  368MOL0     H49623   2.950  11.270   3.273 -0.7060 -1.8872  0.3992
  368MOL0     H49624   2.953  11.159   3.145 -0.8473 -1.6537  1.3105
  368MOL0     H49625   2.994  11.364   2.980  1.7127 -1.3451 -0.2387
  368MOL0     H49626   3.004  11.468   3.113 -3.4934 -0.6324 -0.1205
  368MOL0     H49627   3.200  11.234   3.089 -0.2115  0.4245 -1.8597
  368MOL0     H49628   3.169  11.336   3.228 -2.6275  2.3422  0.8494
  368MOL0     H49629   3.218  11.525   3.029 -0.5231  0.2689  0.8586
  368MOL0     H49630   3.339  11.448   3.142 -0.5190 -1.6663 -0.7093
  368MOL0     H49631   3.264  11.522   2.797 -0.5438 -0.1184 -0.2657
  368MOL0     H49632   3.466  11.510   2.577  1.0343  0.0700 -2.1491
  368MOL0     H49633   3.596  11.389   2.622  0.3288  0.6492  0.8611
  368MOL0     H49634   3.321  11.296   2.540  0.9740 -0.4693  1.2456
  368MOL0     H49635   3.426  11.373   2.415 -1.9040  0.0658 -1.1327
  368MOL0     H49636   3.470  11.122   2.590 -2.0965  0.2640 -0.1866
  368MOL0     H49637   3.602  11.192   2.497 -0.4530 -0.1564  1.9015
  368MOL0     H49638   3.447  11.164   2.290  0.0361 -3.5367 -2.5495
  368MOL0     H49639   3.335  11.081   2.407 -0.3216  4.5693  1.8681
  368MOL0     H49640   3.273  10.874   2.427  0.5538 -1.2288 -0.6262
  368MOL0     H49641   3.262  10.696   2.572 -0.4365  1.2849  1.9393
  368MOL0     H49642   3.151  10.448   2.901 -0.6780 -2.6238  5.9067
  368MOL0     H49643   3.131  10.230   3.027 -0.0445 -2.6978 -0.4833
  368MOL0     H49644   3.358  10.079   3.169  1.1494  0.5726 -4.0436
  368MOL0     H49645   3.186  10.084   3.156 -3.0070 -1.3098 -5.9332
  368MOL0     H49646   3.347   9.813   3.179  1.0315  0.8058  0.5819
  368MOL0     H49647   3.273   9.887   3.315  1.9237 -1.9102 -0.6098
  368MOL0     H49648   3.053   9.888   3.234 -0.3710 -1.7437  0.6957
  368MOL0     H49649   3.095   9.828   3.072  1.3801  3.0746 -0.9288
  368MOL0     H49650   3.098   9.681   3.339  1.8936 -1.1341  0.2727
  368MOL0     H49651   3.205   9.619   3.217  1.0556  0.9213  3.8771
  368MOL0     H49652   2.945   9.669   3.096 -0.8061  0.9396  2.5678
  368MOL0     H49653   2.931   9.553   3.230  0.2018  1.2142  0.3308
  368MOL0     H49654   3.144   9.525   3.024  2.5185 -2.2054  1.1898
  368MOL0     H49655   3.099   9.413   3.152  1.3259  1.0921  0.0009
  368MOL0     H49656   2.936   9.487   2.907  2.8919  1.3111 -1.2096
  368MOL0     H49657   2.856   9.407   3.048 -1.0662 -1.7626 -3.7681
  368MOL0     H49658   3.099   9.301   2.893 -0.7943 -0.0269 -0.6273
  368MOL0     H49659   3.009   9.212   3.017 -2.9873  0.1945  1.0017
  368MOL0     H49660   3.430  10.048   2.790  1.3885 -0.5464  1.6053
  368MOL0     H49661   3.422  10.251   2.634 -2.7467  3.5310 -1.3337
  368MOL0     H49662   3.683  10.635   2.588  0.4872  1.1033  1.3304
  368MOL0     H49663   3.710  10.855   2.457  0.1804 -1.0407 -2.7805
  368MOL0     H49664   2.404  10.995   2.708  1.4248 -0.1695  1.5424
  368MOL0     H49665   2.211  10.880   2.638  0.8194 -3.3409 -2.1389
  368MOL0     H49666   1.942  10.565   2.485 -1.2570 -0.3403 -0.8719
  368MOL0     H49667   1.753  10.411   2.454 -1.3538  1.1035  1.7313
  368MOL0     H49668   1.545  10.280   2.580  0.1221 -1.4345  1.2898
  368MOL0     H49669   1.523  10.115   2.612  0.5047 -0.5133  1.6742
  368MOL0     H49670   1.626  10.046   2.403  0.0868 -0.6252 -1.6308
  368MOL0     H49671   1.692  10.215   2.379  1.9505 -2.2096  0.5782
  368MOL0     H49672   1.403  10.116   2.369 -0.2063 -0.2104 -0.6537
  368MOL0     H49673   1.506  10.162   2.226  1.0833 -0.3958 -0.1877
  368MOL0     H49674   1.324  10.337   2.301  0.7398  1.1661 -0.1219
  368MOL0     H49675   1.397  10.355   2.444  2.4568 -0.7263  2.0819
  368MOL0     H49676   1.658  10.548   2.149  3.6319 -1.6883  2.1992
  368MOL0     H49677   1.926  10.177   2.780  0.9859  0.7123  0.2681
  368MOL0     H49678   2.141  10.413   2.904 -0.4202  0.7504 -0.8745
  368MOL0     H49679   2.116  10.236   2.892 -1.6977  1.9442  3.3616
  368MOL0     H49680   2.233  10.322   2.782 -0.8995  0.8389 -0.3031
  369MOL0     O49681   5.133   1.290   9.441  0.3261  0.2153 -0.0823
  369MOL0     C49682   5.038   1.260   9.514  0.3022  0.8377 -0.1533
  369MOL0     O49683   4.907   1.241   9.478 -0.1463 -0.0679  0.2987
  369MOL0     C49684   4.868   1.264   9.352  0.5239  0.5016  0.3223
  369MOL0     C49685   4.812   1.387   9.331  0.0504  0.7991  0.3855
  369MOL0     C49686   4.735   1.397   9.208  0.1703 -0.6364  0.0348
  369MOL0     C49687   4.710   1.287   9.118  0.2298 -0.8568 -0.5145
  369MOL0     O49688   4.618   1.300   9.021 -0.6631  0.1962  0.3002
  369MOL0     C49689   4.518   1.407   9.019  0.0863 -0.0417  0.3783
  369MOL0     C49690   4.392   1.361   8.944 -1.0953 -0.2935 -0.4344
  369MOL0     C49691   4.332   1.251   9.020 -0.5705  0.1990 -0.0824
  369MOL0     C49692   4.223   1.185   8.944  0.5111 -0.1414 -0.3223
  369MOL0     C49693   4.095   1.261   8.931 -0.3451 -0.0027  1.0419
  369MOL0     C49694   4.040   1.313   9.058  0.2208  0.4722  0.4129
  369MOL0     C49695   4.006   1.208   9.170 -0.3946  0.1150 -0.9446
  369MOL0     C49696   3.976   1.285   9.304  0.0102  0.0554  0.3170
  369MOL0     N49697   4.105   1.325   9.376 -0.5688 -0.1205 -0.9657
  369MOL0     C49698   4.213   1.245   9.384 -1.0481 -0.0650 -0.1670
  369MOL0     C49699   4.309   1.314   9.442  0.2283  0.1781 -0.5742
  369MOL0     C49700   4.437   1.252   9.496  0.8238  0.4491  0.4223
  369MOL0     C49701   4.423   1.208   9.649 -0.0846 -0.0309  0.5386
  369MOL0     C49702   4.555   1.163   9.711 -1.1295  0.3468 -0.3114
  369MOL0     C49703   4.522   1.071   9.824 -0.1892 -0.2342  0.1391
  369MOL0     O49704   4.445   0.953   9.800 -0.2270  0.2336  1.1682
  369MOL0     C49705   4.397   0.889   9.914  0.7333  0.0802  0.1605
  369MOL0     C49706   4.426   0.752   9.929  0.2646 -0.4525  0.3987
  369MOL0     C49707   4.400   0.696  10.053  0.5506 -0.4198 -0.6812
  369MOL0     C49708   4.336   0.764  10.154  0.2848 -0.1724 -0.1435
  369MOL0     C49709   4.322   0.693  10.284  0.1509 -0.9897  1.0754
  369MOL0     O49710   4.399   0.580  10.301  0.4738  0.0138  0.7183
  369MOL0     C49711   4.407   0.499  10.411  0.4066 -0.2579  0.0771
  369MOL0     C49712   4.293   0.473  10.490 -0.6875 -0.5738 -1.1374
  369MOL0     C49713   4.314   0.382  10.601  1.2170  0.7240 -0.1513
  369MOL0     C49714   4.429   0.317  10.633 -1.1693  0.6251  0.1910
  369MOL0     O49715   4.438   0.214  10.728  0.2532 -0.2020  0.5593
  369MOL0     C49716   4.318   0.197  10.810  0.0592  1.2468 -0.1041
  369MOL0     C49717   4.352   0.070  10.884 -0.2396 -0.1696 -0.0319
  369MOL0     C49718   4.230  -0.003  10.933  0.1638  0.8841  0.1628
  369MOL0     C49719   4.263  -0.102  11.042  0.7157 -0.7282 -0.3400
  369MOL0     C49720   4.133  -0.166  11.090 -0.4498 -0.1879  0.4721
  369MOL0     C49721   4.157  -0.273  11.188 -1.2088 -0.6287 -0.1123
  369MOL0     C49722   4.170  -0.405  11.134 -0.2844 -0.4021  0.4043
  369MOL0     C49723   4.168  -0.499  11.247  0.0207 -0.0957 -0.4792
  369MOL0    Cl49724   4.320  -0.518  11.333  0.0846  0.6245  0.0344
  369MOL0     C49725   4.533   0.336  10.548  1.0212  0.7062 -1.2871
  369MOL0     C49726   4.522   0.431  10.446  0.4755 -0.5195 -0.5137
  369MOL0     O49727   4.248   0.735  10.373  0.0837 -0.2492 -0.2799
  369MOL0     C49728   4.290   0.894  10.129 -0.3465 -0.4177 -0.4175
  369MOL0     C49729   4.326   0.955  10.012  0.6014  0.1751 -0.0411
  369MOL0     N49730   4.267   1.446   9.464 -0.3369  0.1433  1.2218
  369MOL0     N49731   4.145   1.449   9.424 -1.5492  0.4118 -0.1621
  369MOL0     C49732   4.767   1.164   9.150 -0.1496  0.2261  0.8631
  369MOL0     C49733   4.844   1.154   9.261  0.7371 -0.0281 -0.4072
  369MOL0     C49734   5.051   1.224   9.658 -0.5715 -0.6652  0.2528
  369MOL0     C49735   4.964   1.296   9.747  0.3804  0.6380 -0.7099
  369MOL0     C49736   4.974   1.267   9.888  0.2933  0.4651 -0.5680
  369MOL0     C49737   5.064   1.181   9.939 -0.5065  0.4808 -0.5622
  369MOL0     O49738   5.079   1.154  10.071 -0.7372 -0.2313  0.0626
  369MOL0     C49739   4.964   1.095  10.141  0.8274 -0.7187 -0.5909
  369MOL0     C49740   5.001   1.067  10.281 -0.6024 -0.0472 -0.8542
  369MOL0     C49741   5.131   0.989  10.293  0.1624 -0.0508  0.1173
  369MOL0     C49742   5.209   1.025  10.424 -0.7598 -0.7335 -0.7176
  369MOL0     C49743   5.140   0.966  10.542  0.8441 -0.3161  0.4061
  369MOL0     C49744   5.069   0.913  10.622 -0.1125 -0.0374 -0.5678
  369MOL0     C49745   5.157   1.127   9.851  0.4304 -0.1544  0.2988
  369MOL0     C49746   5.163   1.154   9.706 -0.0319 -0.4153 -0.0364
  369MOL0     C49747   5.263   1.084   9.623 -0.6270 -0.1686 -0.2699
  369MOL0     H49748   4.825   1.475   9.394 -0.1780  0.1231  1.4044
  369MOL0     H49749   4.707   1.498   9.179 -1.3474 -2.0383 -4.1207
  369MOL0     H49750   4.496   1.431   9.124  1.0640  0.6248  0.4371
  369MOL0     H49751   4.572   1.487   8.968 -0.2866 -0.7017 -1.1051
  369MOL0     H49752   4.423   1.336   8.843  0.1009 -1.5571  0.2134
  369MOL0     H49753   4.317   1.441   8.935 -2.0819 -1.3362 -1.7654
  369MOL0     H49754   4.296   1.283   9.119 -1.8096 -1.1040 -0.0825
  369MOL0     H49755   4.407   1.174   9.041 -1.9803 -1.3441 -0.5652
  369MOL0     H49756   4.243   1.147   8.844 -0.6727 -0.8105 -0.3089
  369MOL0     H49757   4.189   1.097   8.998  0.0458 -0.8809 -1.7784
  369MOL0     H49758   4.104   1.346   8.863  2.0420 -0.7925  0.2836
  369MOL0     H49759   4.015   1.201   8.886 -0.8843  0.8229  0.8727
  369MOL0     H49760   4.107   1.389   9.098 -1.0452 -0.0523  3.8799
  369MOL0     H49761   3.949   1.368   9.032 -0.5000  1.1045  3.7531
  369MOL0     H49762   4.088   1.140   9.194 -1.6663 -1.2875 -0.4240
  369MOL0     H49763   3.922   1.148   9.134 -1.3793  1.5803 -1.1804
  369MOL0     H49764   3.933   1.384   9.288 -0.9473 -0.5317 -0.8259
  369MOL0     H49765   3.899   1.224   9.351 -0.2086 -1.1387 -1.5075
  369MOL0     H49766   4.220   1.138   9.364  0.9616  0.0748 -0.3751
  369MOL0     H49767   4.463   1.165   9.435 -0.3686 -0.3442  1.0136
  369MOL0     H49768   4.522   1.321   9.500  1.1321  0.0342  1.1446
  369MOL0     H49769   4.371   1.286   9.707  0.3640 -0.0740  1.0018
  369MOL0     H49770   4.356   1.122   9.659 -0.8292  0.6398  1.5271
  369MOL0     H49771   4.627   1.239   9.742 -1.4796 -0.4330  2.6845
  369MOL0     H49772   4.606   1.107   9.633  0.5488  0.0914  0.9195
  369MOL0     H49773   4.481   1.135   9.902  2.0563 -0.0934  1.2793
  369MOL0     H49774   4.614   1.024   9.860 -0.7147 -2.2968 -1.0509
  369MOL0     H49775   4.464   0.701   9.840  0.2154 -1.7392  1.0848
  369MOL0     H49776   4.418   0.589  10.052 -2.1628 -0.9595 -1.9261
  369MOL0     H49777   4.195   0.515  10.469 -0.0303 -0.0730 -3.4363
  369MOL0     H49778   4.215   0.369  10.644  0.4797  0.7945 -1.7312
  369MOL0     H49779   4.292   0.281  10.877 -1.1274  1.2986 -0.5996
  369MOL0     H49780   4.237   0.185  10.738  1.0408  3.3604 -1.6857
  369MOL0     H49781   4.420   0.005  10.829  0.7182  0.6611  0.1406
  369MOL0     H49782   4.410   0.107  10.969  0.0333 -1.7774  0.5025
  369MOL0     H49783   4.146   0.055  10.972 -0.5707  0.5168 -0.8209
  369MOL0     H49784   4.188  -0.068  10.855  0.9904  0.6462 -0.0914
  369MOL0     H49785   4.309  -0.036  11.116  1.4589 -1.9319  0.3056
  369MOL0     H49786   4.338  -0.176  11.014  2.4824  1.0544 -0.5488
  369MOL0     H49787   4.079  -0.207  11.004  2.2585  1.1831 -2.0528
  369MOL0     H49788   4.069  -0.088  11.130  0.3232  1.2649 -1.0156
  369MOL0     H49789   4.252  -0.246  11.235 -1.6333  1.6409 -0.4451
  369MOL0     H49790   4.092  -0.265  11.275 -4.0608  1.3659 -2.2275
  369MOL0     H49791   4.257  -0.419  11.070  0.8719  1.0248  1.6053
  369MOL0     H49792   4.084  -0.437  11.075  1.3952 -3.6849 -0.5105
  369MOL0     H49793   4.088  -0.478  11.318 -0.1185 -2.2490  0.0689
  369MOL0     H49794   4.140  -0.596  11.204  1.2617  1.0342 -4.2252
  369MOL0     H49795   4.612   0.265  10.571  0.8729  1.6784  3.3203
  369MOL0     H49796   4.609   0.440  10.381  0.2906  0.1289 -0.6811
  369MOL0     H49797   4.232   0.946  10.205 -0.0669  2.2859 -1.9434
  369MOL0     H49798   4.303   1.061  10.010  0.5992  0.1930 -2.3353
  369MOL0     H49799   4.747   1.077   9.088  4.6916  0.3287 -1.2835
  369MOL0     H49800   4.895   1.064   9.296  0.8267  0.8345  1.8324
  369MOL0     H49801   4.890   1.362   9.703  1.6821  1.3915 -1.8226
  369MOL0     H49802   4.911   1.321   9.958 -0.3512 -1.4053  0.3781
  369MOL0     H49803   4.935   1.002  10.090 -1.3920  1.1260 -2.9892
  369MOL0     H49804   4.873   1.155  10.140 -0.1444 -1.9851  1.8930
  369MOL0     H49805   4.927   1.010  10.337  2.3197  0.2931  3.9243
  369MOL0     H49806   5.010   1.165  10.330 -4.7076  0.8683 -1.5800
  369MOL0     H49807   5.207   1.002  10.215  0.3452 -5.3970 -1.0122
  369MOL0     H49808   5.095   0.886  10.284 -0.7307  0.0410  2.0950
  369MOL0     H49809   5.311   0.984  10.418  1.2355  3.5967 -0.0886
  369MOL0     H49810   5.228   1.131  10.443 -0.7204 -0.5876 -1.5464
  369MOL0     H49811   5.030   0.866  10.710  2.4348 -1.4341 -0.0685
  369MOL0     H49812   5.224   1.048   9.886  1.1394 -0.8108 -2.2418
  369MOL0     H49813   5.224   1.046   9.528  1.4866 -1.6718 -0.6097
  369MOL0     H49814   5.341   1.150   9.583 -0.8455  0.8839  0.9800
  369MOL0     H49815   5.308   1.001   9.678  2.7303  2.3544  1.1718
  370MOL0     O49816   6.182   3.766   5.680  0.4868  0.8969 -0.1789
  370MOL0     C49817   6.079   3.727   5.644  0.9729  0.6052 -1.0468
  370MOL0     O49818   5.956   3.771   5.692  0.1010 -0.6475  0.0090
  370MOL0     C49819   5.960   3.893   5.751 -0.2383 -0.0998 -0.8913
  370MOL0     C49820   5.947   3.923   5.885 -0.2803 -0.0384  0.2644
  370MOL0     C49821   5.950   4.055   5.928 -0.8548  0.3558 -0.3158
  370MOL0     C49822   5.951   4.163   5.839  0.4371 -0.4464 -0.6227
  370MOL0     O49823   5.943   4.296   5.874  0.7928  0.5941 -0.4354
  370MOL0     C49824   5.931   4.330   6.011 -0.2489  0.3856 -0.4342
  370MOL0     C49825   5.976   4.476   6.024  0.1803 -0.3005 -0.1839
  370MOL0     C49826   5.953   4.538   6.165  0.1419  0.0155  0.2335
  370MOL0     C49827   5.808   4.514   6.206 -0.7893 -0.3404 -0.0601
  370MOL0     C49828   5.764   4.599   6.323 -0.0213 -0.3117 -0.2183
  370MOL0     C49829   5.736   4.752   6.291  0.1906  0.3540 -0.6082
  370MOL0     C49830   5.689   4.838   6.415  0.4583 -0.1113 -0.2868
  370MOL0     C49831   5.772   4.827   6.539 -0.1966  1.0555 -0.6834
  370MOL0     N49832   5.912   4.862   6.526 -0.3469 -0.3331  0.3815
  370MOL0     C49833   5.968   4.985   6.514 -0.0951 -0.5320  0.8376
  370MOL0     C49834   6.102   4.963   6.489  0.2302 -0.3975  0.2573
  370MOL0     C49835   6.215   5.063   6.453  0.7396  0.2320  1.1053
  370MOL0     C49836   6.333   5.044   6.546 -0.5464  0.5839  0.2697
  370MOL0     C49837   6.434   5.157   6.531  0.6952  1.2207  0.0507
  370MOL0     C49838   6.551   5.121   6.617  1.3222  0.3888  0.4724
  370MOL0     O49839   6.676   5.192   6.589  0.1923  0.3790  0.0155
  370MOL0     C49840   6.752   5.154   6.483 -0.4700  0.1193  0.2791
  370MOL0     C49841   6.716   5.062   6.388  1.2882  0.9249 -0.2795
  370MOL0     C49842   6.807   5.028   6.292  0.6664 -0.5016 -0.0832
  370MOL0     C49843   6.934   5.077   6.282 -0.6490  0.5293 -0.4497
  370MOL0     C49844   7.023   5.033   6.169 -0.0596 -0.5164 -0.9664
  370MOL0     O49845   7.165   5.049   6.191 -0.1137 -0.4062 -0.2864
  370MOL0     C49846   7.234   5.009   6.078  0.5549  0.2796 -0.0420
  370MOL0     C49847   7.276   4.871   6.075  1.3634 -0.3391  0.2863
  370MOL0     C49848   7.354   4.815   5.972 -0.0127 -0.2574 -0.4084
  370MOL0     C49849   7.395   4.901   5.865 -0.5663  0.4762 -0.4025
  370MOL0     O49850   7.484   4.859   5.767  0.5999  0.0627 -0.9813
  370MOL0     C49851   7.426   4.858   5.641  0.7233  0.7763  0.5122
  370MOL0     C49852   7.353   4.721   5.627  0.1293  0.6292 -0.7885
  370MOL0     C49853   7.271   4.716   5.500 -0.6444  0.4902 -0.4859
  370MOL0     C49854   7.340   4.658   5.387  0.4346 -0.9001  0.2305
  370MOL0     C49855   7.263   4.685   5.251 -0.4343  0.9593 -0.4881
  370MOL0     C49856   7.323   4.581   5.157 -1.1290  0.9001 -0.4104
  370MOL0     C49857   7.274   4.610   5.017 -0.2858  0.2584  0.6202
  370MOL0     C49858   7.328   4.740   4.949 -0.1629 -0.3675 -0.0766
  370MOL0    Cl49859   7.455   4.690   4.825  0.0063  0.0927 -0.4901
  370MOL0     C49860   7.370   5.043   5.876 -0.0726 -0.0660  0.6570
  370MOL0     C49861   7.288   5.095   5.979 -0.5202  0.6708 -0.3200
  370MOL0     O49862   6.968   4.989   6.068  0.3871  0.2584  0.4002
  370MOL0     C49863   6.971   5.170   6.385  0.4686 -0.8007 -1.5523
  370MOL0     C49864   6.884   5.202   6.485 -0.4608 -0.7407  1.0626
  370MOL0     N49865   6.125   4.826   6.502  0.1608  0.4433 -1.0278
  370MOL0     N49866   6.010   4.769   6.523  0.1693 -0.1642  0.2826
  370MOL0     C49867   5.954   4.135   5.705  0.1027  0.5349 -0.7132
  370MOL0     C49868   5.961   4.006   5.659 -0.1460  0.2050 -0.2978
  370MOL0     C49869   6.078   3.601   5.553 -0.6753 -0.7605 -0.2677
  370MOL0     C49870   5.957   3.571   5.478 -0.2670 -0.3857 -0.3833
  370MOL0     C49871   5.952   3.456   5.399 -0.4175 -0.2259 -0.1228
  370MOL0     C49872   6.062   3.373   5.383  0.0229  0.8600  0.4577
  370MOL0     O49873   6.050   3.252   5.313 -0.0971 -0.2912  0.2886
  370MOL0     C49874   5.957   3.223   5.214 -1.3447 -0.1903  0.1644
  370MOL0     C49875   5.978   3.300   5.079  0.1248  0.5777 -1.2207
  370MOL0     C49876   6.112   3.249   5.016 -0.3218  0.1855  0.1126
  370MOL0     C49877   6.178   3.357   4.931  0.1991  1.0486 -0.1184
  370MOL0     C49878   6.274   3.442   5.015  0.9361 -0.3662  0.2548
  370MOL0     C49879   6.357   3.506   5.062 -0.5686  0.7268  0.2735
  370MOL0     C49880   6.174   3.398   5.447 -0.1842 -0.3863  0.3376
  370MOL0     C49881   6.185   3.513   5.530 -0.9784 -0.7080  0.8676
  370MOL0     C49882   6.310   3.522   5.619  0.6586 -0.4696  0.0069
  370MOL0     H49883   5.953   3.839   5.954  2.4104 -0.2790 -0.1461
  370MOL0     H49884   5.958   4.088   6.031  0.3728  4.4941 -1.5660
  370MOL0     H49885   5.827   4.317   6.041  0.0647  1.9260  1.5492
  370MOL0     H49886   6.003   4.269   6.067  0.5755 -2.1020 -3.8758
  370MOL0     H49887   5.922   4.529   5.945 -1.9997 -0.9671  0.7904
  370MOL0     H49888   6.084   4.486   6.011  0.4213 -2.8465 -0.5521
  370MOL0     H49889   5.965   4.642   6.135  3.1412 -0.7488 -1.6920
  370MOL0     H49890   6.020   4.489   6.237 -2.2251  0.4018  2.8577
  370MOL0     H49891   5.746   4.542   6.120 -2.9471 -0.4580  1.3860
  370MOL0     H49892   5.783   4.410   6.226 -1.8211 -0.2817 -0.9524
  370MOL0     H49893   5.668   4.570   6.367 -0.9479 -1.9995 -3.1035
  370MOL0     H49894   5.839   4.589   6.402 -1.2331 -1.4334  0.8383
  370MOL0     H49895   5.834   4.792   6.265  0.4182  0.6813  0.7024
  370MOL0     H49896   5.669   4.762   6.205  0.5918 -0.5692 -1.0468
  370MOL0     H49897   5.585   4.817   6.440  0.9310 -2.2729  0.0700
  370MOL0     H49898   5.695   4.943   6.385 -1.4528  0.1297  0.0895
  370MOL0     H49899   5.729   4.901   6.608  2.9968  1.5573  1.0237
  370MOL0     H49900   5.752   4.733   6.591  2.8203  1.0843  0.7728
  370MOL0     H49901   5.906   5.073   6.521 -0.5547 -0.3569 -3.2056
  370MOL0     H49902   6.253   5.050   6.351  3.1410 -0.9783  2.0676
  370MOL0     H49903   6.176   5.165   6.458 -0.1052 -0.1254  3.4740
  370MOL0     H49904   6.292   5.034   6.647  1.2245 -0.3951  0.9314
  370MOL0     H49905   6.385   4.953   6.515  0.7337  0.8245  1.6395
  370MOL0     H49906   6.404   5.256   6.567 -0.9857  0.9304 -0.4775
  370MOL0     H49907   6.464   5.147   6.427 -0.2812  0.5349 -0.1763
  370MOL0     H49908   6.566   5.013   6.622 -0.8305  0.0648  0.6231
  370MOL0     H49909   6.517   5.149   6.717  1.0341  0.2330  0.4188
  370MOL0     H49910   6.613   5.028   6.385  1.3253  0.6775  0.7601
  370MOL0     H49911   6.777   4.957   6.216 -1.9510 -0.2441  0.6101
  370MOL0     H49912   7.237   4.805   6.152  1.5086 -0.7995 -0.0302
  370MOL0     H49913   7.373   4.709   5.981 -0.1656 -0.1814  1.1397
  370MOL0     H49914   7.360   4.938   5.607  0.0406 -0.8222 -2.2629
  370MOL0     H49915   7.507   4.856   5.568 -1.5906 -2.9129 -2.3494
  370MOL0     H49916   7.431   4.644   5.618 -0.6768 -1.0488  3.9313
  370MOL0     H49917   7.294   4.706   5.718  2.5427 -1.4701  0.5850
  370MOL0     H49918   7.175   4.664   5.512 -1.9460  2.5485 -1.3343
  370MOL0     H49919   7.241   4.817   5.468 -1.7767 -0.0201 -1.1026
  370MOL0     H49920   7.349   4.549   5.391 -1.9696 -1.1293  1.0615
  370MOL0     H49921   7.434   4.713   5.381  0.0563  0.0198  2.2322
  370MOL0     H49922   7.271   4.789   5.218 -1.7946  1.1217 -0.3703
  370MOL0     H49923   7.156   4.663   5.256 -0.0158 -1.0090  1.6822
  370MOL0     H49924   7.431   4.571   5.170 -1.4962 -1.8175  1.6885
  370MOL0     H49925   7.283   4.489   5.201 -0.7603  1.4254  1.0898
  370MOL0     H49926   7.165   4.615   5.016 -0.2316  1.5810  0.1341
  370MOL0     H49927   7.298   4.513   4.972 -1.9197 -0.5532  1.4105
  370MOL0     H49928   7.250   4.788   4.889 -0.6747 -1.5832 -0.4385
  370MOL0     H49929   7.383   4.804   5.017 -1.5973 -0.7504  1.5199
  370MOL0     H49930   7.427   5.108   5.811 -0.5756  0.7954  1.0551
  370MOL0     H49931   7.268   5.201   5.984 -1.1001  0.5209  1.6302
  370MOL0     H49932   7.069   5.218   6.386 -0.1840  0.5870 -0.7915
  370MOL0     H49933   6.899   5.272   6.568 -3.0895  0.2103  0.8177
  370MOL0     H49934   5.951   4.226   5.646  1.8794  0.2970 -1.2428
  370MOL0     H49935   5.939   3.994   5.553 -3.0872 -1.8676  0.3896
  370MOL0     H49936   5.860   3.619   5.478 -0.2860 -0.3227 -2.2611
  370MOL0     H49937   5.856   3.434   5.354  0.5236  0.7998 -2.8886
  370MOL0     H49938   5.862   3.266   5.247 -0.7361  2.3517 -1.1895
  370MOL0     H49939   5.963   3.115   5.193  2.7289 -0.1379  0.1860
  370MOL0     H49940   5.999   3.408   5.085  3.5804  0.0548 -1.5083
  370MOL0     H49941   5.894   3.276   5.013 -0.3780 -1.0980 -0.0173
  370MOL0     H49942   6.079   3.166   4.953 -1.1617  0.6471 -0.0896
  370MOL0     H49943   6.176   3.211   5.095 -0.9757 -2.6718 -0.6373
  370MOL0     H49944   6.224   3.308   4.844 -2.4675 -2.7450  0.3916
  370MOL0     H49945   6.103   3.419   4.881 -1.6834 -0.9866  0.0151
  370MOL0     H49946   6.444   3.556   5.100 -1.7820  2.6144  0.7371
  370MOL0     H49947   6.256   3.328   5.435  0.6890  0.5307  0.7762
  370MOL0     H49948   6.290   3.572   5.714 -0.0795  1.2524 -1.0190
  370MOL0     H49949   6.349   3.420   5.622 -0.9411 -1.1826 -1.6843
  370MOL0     H49950   6.381   3.588   5.568  0.6164  1.0197  1.7827
  371MOL0     O49951   6.608   3.918   9.417  1.2329  0.3744 -0.3832
  371MOL0     C49952   6.564   3.917   9.305 -0.0202 -0.0646 -0.3804
  371MOL0     O49953   6.448   3.868   9.271  0.5805 -1.0216  0.1339
  371MOL0     C49954   6.354   3.813   9.355  0.8369  0.2320  0.9308
  371MOL0     C49955   6.215   3.825   9.313  0.1385  0.0717 -0.9143
  371MOL0     C49956   6.113   3.779   9.389  0.0930 -0.9356  0.1638
  371MOL0     C49957   6.139   3.728   9.513 -0.2638  0.9270 -0.8727
  371MOL0     O49958   6.043   3.672   9.599 -1.2771  0.4302 -0.0144
  371MOL0     C49959   5.933   3.608   9.537  0.7524  0.4312 -0.0346
  371MOL0     C49960   5.831   3.533   9.644 -0.1229  0.4127  0.4033
  371MOL0     C49961   5.902   3.429   9.733  0.1015 -0.1718 -0.3828
  371MOL0     C49962   5.798   3.344   9.808  0.8030  0.3339  0.3927
  371MOL0     C49963   5.748   3.226   9.722 -0.5020  0.2884 -0.2029
  371MOL0     C49964   5.628   3.162   9.791 -1.1432  0.2068 -1.3656
  371MOL0     C49965   5.574   3.025   9.747 -0.6820  0.4064 -1.2023
  371MOL0     C49966   5.676   2.906   9.758  0.2681  0.2448  0.2430
  371MOL0     N49967   5.734   2.884   9.898 -0.0592  0.1453  0.4914
  371MOL0     C49968   5.820   2.968   9.968 -0.4240  0.4759 -0.6257
  371MOL0     C49969   5.852   2.898  10.087 -0.4290 -0.6245  0.6818
  371MOL0     C49970   5.961   2.937  10.172  0.4262  0.6320  0.0593
  371MOL0     C49971   5.973   2.859  10.307 -0.1152  1.2452 -0.4674
  371MOL0     C49972   5.864   2.899  10.408  0.8404 -0.2340  0.5437
  371MOL0     C49973   5.875   2.824  10.540  0.7757 -0.5698 -1.2437
  371MOL0     O49974   5.839   2.685  10.527 -0.4760 -0.4035  0.0249
  371MOL0     C49975   5.840   2.583  10.610  0.3502  0.7625 -0.8485
  371MOL0     C49976   5.776   2.462  10.573 -0.1743 -0.1273 -0.0827
  371MOL0     C49977   5.775   2.357  10.670  0.9977  0.7427 -0.1910
  371MOL0     C49978   5.836   2.362  10.795  0.3976  0.9317  0.3448
  371MOL0     C49979   5.811   2.256  10.893  0.9780  0.1295 -0.0236
  371MOL0     O49980   5.713   2.171  10.874  0.8399 -0.1235 -0.4944
  371MOL0     C49981   5.667   2.096  10.976 -0.1835  1.2474 -0.2269
  371MOL0     C49982   5.757   2.027  11.064 -0.8414 -0.2205 -0.1612
  371MOL0     C49983   5.697   1.962  11.173 -0.5219 -0.3438 -0.1641
  371MOL0     C49984   5.567   1.957  11.200  0.4694 -1.2030  0.2767
  371MOL0     O49985   5.533   1.888  11.312 -0.5699 -0.0224 -0.0873
  371MOL0     C49986   5.395   1.862  11.332  0.2188  0.2567  0.1797
  371MOL0     C49987   5.396   1.770  11.450  0.6249  0.5667 -0.0930
  371MOL0     C49988   5.413   1.848  11.577  0.4433  0.0247 -0.2207
  371MOL0     C49989   5.275   1.859  11.653  0.4158  0.4417 -0.4041
  371MOL0     C49990   5.275   1.958  11.771 -0.3596  1.1154 -0.4034
  371MOL0     C49991   5.392   1.931  11.860 -0.1886 -0.1683  0.4169
  371MOL0     C49992   5.388   2.040  11.973  0.2719  0.2711 -0.1664
  371MOL0     C49993   5.483   1.996  12.090 -0.1953  0.7123  0.6612
  371MOL0    Cl49994   5.431   1.829  12.148  0.2984  0.2392 -0.2068
  371MOL0     C49995   5.482   2.014  11.104 -0.6886  0.5806 -0.0319
  371MOL0     C49996   5.528   2.087  10.996 -0.2881 -0.4833  0.0136
  371MOL0     O49997   5.875   2.262  11.001  0.3385  0.0454  0.0218
  371MOL0     C49998   5.906   2.482  10.827 -0.6318  1.0964 -0.0897
  371MOL0     C49999   5.912   2.589  10.730 -0.0193 -0.5964  0.5352
  371MOL0     N50000   5.779   2.787  10.087  0.7359  0.1409  0.1154
  371MOL0     N50001   5.700   2.776   9.978  0.1738 -0.1990 -0.0307
  371MOL0     C50002   6.268   3.740   9.580 -0.6723 -0.0470  0.4405
  371MOL0     C50003   6.374   3.772   9.485 -0.0008 -0.2614 -0.0982
  371MOL0     C50004   6.653   3.946   9.188 -0.1077  0.5636 -0.9071
  371MOL0     C50005   6.633   3.878   9.060 -0.1870 -0.8257 -0.5261
  371MOL0     C50006   6.709   3.897   8.950  0.7004  0.6345  0.7940
  371MOL0     C50007   6.817   3.980   8.952  0.3882 -0.6216 -0.1615
  371MOL0     O50008   6.882   4.003   8.827 -0.4422 -0.4496  0.4011
  371MOL0     C50009   6.930   4.131   8.802 -1.0239  0.7011 -0.7031
  371MOL0     C50010   6.826   4.206   8.737  1.0956  0.5205  0.5165
  371MOL0     C50011   6.885   4.353   8.717 -0.3725 -0.1216  0.0013
  371MOL0     C50012   6.830   4.425   8.595  0.5631  0.6439 -0.1939
  371MOL0     C50013   6.834   4.348   8.470 -0.0348 -0.1419  0.2518
  371MOL0     C50014   6.835   4.288   8.368 -0.0864 -0.1305  0.2140
  371MOL0     C50015   6.837   4.059   9.071 -0.3271 -0.2090 -0.6431
  371MOL0     C50016   6.757   4.044   9.194 -0.8296  1.3445  0.8316
  371MOL0     C50017   6.795   4.144   9.297  0.1160 -0.2071 -0.9944
  371MOL0     H50018   6.182   3.861   9.216 -3.5795 -0.2891  0.0657
  371MOL0     H50019   6.007   3.788   9.365  0.1131  3.2549  1.0013
  371MOL0     H50020   5.868   3.684   9.494 -2.2336 -0.8379  1.9281
  371MOL0     H50021   5.955   3.541   9.454 -1.0378  1.5012 -1.4356
  371MOL0     H50022   5.755   3.480   9.586  0.1924  1.1321 -0.7146
  371MOL0     H50023   5.783   3.611   9.705 -2.5393  0.5051 -1.4824
  371MOL0     H50024   5.973   3.483   9.796 -2.1475  1.1942  1.1565
  371MOL0     H50025   5.964   3.353   9.685  1.2579  1.7766 -2.1018
  371MOL0     H50026   5.851   3.293   9.888  2.5934 -2.4031 -2.3282
  371MOL0     H50027   5.716   3.396   9.860  1.5639 -1.4873  3.7200
  371MOL0     H50028   5.706   3.256   9.625 -0.1508  1.6127  0.0371
  371MOL0     H50029   5.831   3.156   9.712 -0.6408 -0.3802  2.5963
  371MOL0     H50030   5.645   3.152   9.899  0.1576  2.6948 -1.2638
  371MOL0     H50031   5.547   3.235   9.786 -2.7902 -1.2643  1.4859
  371MOL0     H50032   5.536   3.029   9.645  2.0058 -0.3782 -2.3240
  371MOL0     H50033   5.488   3.009   9.812  1.2403 -1.5000  1.0777
  371MOL0     H50034   5.618   2.816   9.734 -1.4613  1.9711 -2.6719
  371MOL0     H50035   5.750   2.911   9.677 -0.6707 -2.4653 -0.9207
  371MOL0     H50036   5.867   3.057   9.928  0.1782  0.1369 -0.6897
  371MOL0     H50037   6.057   2.917  10.124  1.1255 -0.8169  1.9311
  371MOL0     H50038   5.956   3.043  10.200 -2.7589  0.3111  1.1842
  371MOL0     H50039   5.974   2.751  10.289 -0.0159  0.6214  2.7610
  371MOL0     H50040   6.070   2.875  10.355  1.2601 -0.7587 -2.3673
  371MOL0     H50041   5.766   2.867  10.372  0.4337 -1.1737  2.3939
  371MOL0     H50042   5.865   3.008  10.419  0.1095 -0.1768  0.1178
  371MOL0     H50043   5.811   2.867  10.618  0.4662 -1.4163 -1.0284
  371MOL0     H50044   5.976   2.819  10.584  1.0736 -1.2703 -1.9924
  371MOL0     H50045   5.730   2.455  10.476 -2.3807  0.2602  0.8856
  371MOL0     H50046   5.735   2.261  10.639 -2.6318  2.3589 -1.0444
  371MOL0     H50047   5.864   2.013  11.059 -0.7670  0.0986  0.5138
  371MOL0     H50048   5.759   1.908  11.243 -0.1254  1.9529  1.3550
  371MOL0     H50049   5.336   1.951  11.354  0.9563  0.6115  0.7628
  371MOL0     H50050   5.342   1.803  11.257 -2.3099  0.0829  1.9504
  371MOL0     H50051   5.313   1.699  11.455  0.3983  0.8275 -0.1587
  371MOL0     H50052   5.481   1.703  11.435  0.9336  1.3774 -2.2122
  371MOL0     H50053   5.489   1.802  11.641  0.3629  1.6101  1.1094
  371MOL0     H50054   5.452   1.949  11.557  2.6825 -0.3779  1.5748
  371MOL0     H50055   5.253   1.759  11.693 -0.4852  0.8796  0.2187
  371MOL0     H50056   5.200   1.880  11.577 -0.0939  1.6505  0.4064
  371MOL0     H50057   5.174   1.959  11.813 -1.9430  0.0189 -3.8286
  371MOL0     H50058   5.289   2.059  11.732  0.8434  1.0166 -0.2639
  371MOL0     H50059   5.384   1.829  11.898 -0.7073 -0.9944 -1.7981
  371MOL0     H50060   5.484   1.948  11.804 -0.1982 -3.1809 -0.7190
  371MOL0     H50061   5.290   2.041  12.021  1.4088 -1.2502  2.3568
  371MOL0     H50062   5.419   2.139  11.937  1.5161 -1.0301 -3.0093
  371MOL0     H50063   5.586   1.990  12.054 -0.5067  1.7196 -0.4753
  371MOL0     H50064   5.476   2.075  12.166 -3.3541  4.9076 -3.4152
  371MOL0     H50065   5.376   2.011  11.126 -0.1418  1.4667  3.4172
  371MOL0     H50066   5.461   2.147  10.936  1.0929  0.6908 -0.3950
  371MOL0     H50067   5.952   2.505  10.923  1.0097 -0.7508 -0.3827
  371MOL0     H50068   5.961   2.684  10.748 -1.4978 -0.0992  2.2528
  371MOL0     H50069   6.288   3.695   9.676  2.0927 -1.2004 -0.5874
  371MOL0     H50070   6.469   3.779   9.538  1.0561 -3.5851 -1.3184
  371MOL0     H50071   6.544   3.822   9.036 -0.3152 -0.3749 -1.1273
  371MOL0     H50072   6.684   3.851   8.855  1.6483 -2.8035  2.0591
  371MOL0     H50073   7.012   4.121   8.730 -2.1635  3.0238 -2.4187
  371MOL0     H50074   6.965   4.181   8.893 -0.7204  1.4945 -1.2475
  371MOL0     H50075   6.731   4.217   8.791  0.3627 -2.5585  0.0380
  371MOL0     H50076   6.807   4.140   8.652  1.5123 -3.8517  3.4618
  371MOL0     H50077   6.993   4.340   8.701 -0.5208 -0.4164 -0.8152
  371MOL0     H50078   6.865   4.412   8.806  0.3746 -1.9592  1.4550
  371MOL0     H50079   6.730   4.469   8.606  1.9596  4.2570 -0.5295
  371MOL0     H50080   6.897   4.510   8.582 -0.3267  1.0142 -3.1435
  371MOL0     H50081   6.827   4.233   8.276  0.1153  0.4583 -0.1599
  371MOL0     H50082   6.917   4.132   9.073  0.7558 -1.3049 -1.5989
  371MOL0     H50083   6.880   4.110   9.357 -2.1578 -1.3159  1.8655
  371MOL0     H50084   6.808   4.250   9.275 -2.2645  0.7132  1.4370
  371MOL0     H50085   6.718   4.155   9.375  1.7808  1.6552  0.4667
  372MOL0     O50086  10.848   8.205   0.209  0.2093  0.5168 -0.2873
  372MOL0     C50087  10.938   8.175   0.291  0.0517  1.0001  0.3854
  372MOL0     O50088  10.974   8.248   0.403  0.7293  0.2282  0.2896
  372MOL0     C50089  10.902   8.369   0.421  0.0079  0.8353  0.0662
  372MOL0     C50090  10.827   8.393   0.534  1.0022 -0.3252 -0.9214
  372MOL0     C50091  10.768   8.521   0.544 -0.0676 -0.9052 -0.9105
  372MOL0     C50092  10.769   8.613   0.439  0.3392 -0.4760 -0.0557
  372MOL0     O50093  10.707   8.729   0.424  0.1281 -0.6982  0.6641
  372MOL0     C50094  10.587   8.752   0.496  0.3625  0.3789  0.7146
  372MOL0     C50095  10.461   8.741   0.402  0.2012  1.7665 -0.7746
  372MOL0     C50096  10.341   8.761   0.492 -1.4451 -0.2950  0.2303
  372MOL0     C50097  10.222   8.805   0.412  0.9862 -0.7300 -0.4502
  372MOL0     C50098  10.097   8.844   0.504  0.7201 -0.3062  0.5833
  372MOL0     C50099   9.970   8.883   0.421 -0.7508 -0.3583 -0.1109
  372MOL0     C50100  10.010   9.013   0.333 -0.1082  0.6925  0.1150
  372MOL0     C50101   9.888   9.078   0.268 -0.3150  0.6583 -0.6374
  372MOL0     N50102   9.820   9.141   0.376  0.4025 -1.4443 -0.2799
  372MOL0     C50103   9.855   9.240   0.470  0.8819 -0.1974  0.4095
  372MOL0     C50104   9.758   9.247   0.547 -0.5068 -0.3656 -0.2356
  372MOL0     C50105   9.752   9.347   0.669 -0.2930  0.2522  0.1811
  372MOL0     C50106   9.776   9.286   0.811  0.2701  0.1013  0.7574
  372MOL0     C50107   9.658   9.199   0.838 -0.0077 -0.5390  0.3747
  372MOL0     C50108   9.675   9.133   0.973  0.5158  0.3767 -0.3703
  372MOL0     O50109   9.673   9.228   1.082 -0.5335 -1.2081  0.1204
  372MOL0     C50110   9.617   9.187   1.203 -0.3178 -0.1152 -0.1487
  372MOL0     C50111   9.630   9.057   1.261  0.2977  0.0471 -0.7924
  372MOL0     C50112   9.585   9.041   1.391  0.3618  0.4799 -1.3075
  372MOL0     C50113   9.511   9.141   1.462  0.0138 -0.5638 -0.0351
  372MOL0     C50114   9.452   9.113   1.595  1.3696 -0.7100 -0.4683
  372MOL0     O50115   9.501   9.009   1.669 -0.5084  0.3854  1.1123
  372MOL0     C50116   9.441   8.983   1.790 -0.0295 -0.4075 -0.5264
  372MOL0     C50117   9.510   8.970   1.909 -0.3860  0.1709  0.0692
  372MOL0     C50118   9.451   8.946   2.036  0.8812  0.3524 -0.4250
  372MOL0     C50119   9.302   8.938   2.047 -0.7929  0.2340 -0.4149
  372MOL0     O50120   9.253   8.913   2.174 -0.2121 -1.0429 -0.2793
  372MOL0     C50121   9.131   8.971   2.224  0.7753  0.1680 -0.4528
  372MOL0     C50122   9.140   9.098   2.307  0.2018 -0.1227  0.5783
  372MOL0     C50123   9.207   9.072   2.448 -0.1149 -0.1011 -0.7115
  372MOL0     C50124   9.108   9.022   2.552  0.6829  0.5302  0.0029
  372MOL0     C50125   9.170   9.030   2.697  0.4701 -0.3696  0.0505
  372MOL0     C50126   9.311   8.977   2.718  0.1687 -0.1979  0.3324
  372MOL0     C50127   9.335   8.989   2.867 -0.5125  0.0471  0.4036
  372MOL0     C50128   9.481   8.935   2.883 -0.5379 -0.3396  0.0214
  372MOL0    Cl50129   9.611   9.030   2.808  0.1468  0.0528  0.8624
  372MOL0     C50130   9.234   8.951   1.922 -0.2074 -1.1325  0.2567
  372MOL0     C50131   9.306   8.971   1.802 -0.0304 -0.7384  0.1540
  372MOL0     O50132   9.366   9.195   1.630  0.2741  1.0928  0.9335
  372MOL0     C50133   9.499   9.270   1.407  1.1601  0.7907  0.3598
  372MOL0     C50134   9.564   9.285   1.287  0.1743  0.1113  0.1221
  372MOL0     N50135   9.659   9.169   0.509 -0.6398  0.3014  0.3821
  372MOL0     N50136   9.695   9.107   0.405 -0.5119  0.7960  0.2808
  372MOL0     C50137  10.852   8.586   0.330  0.3779 -0.0965 -0.2345
  372MOL0     C50138  10.916   8.464   0.327 -0.5747  0.7797 -0.0886
  372MOL0     C50139  11.004   8.053   0.264 -0.5062  0.0380  0.2179
  372MOL0     C50140  11.075   7.996   0.378  0.6028  0.2512 -0.1675
  372MOL0     C50141  11.146   7.877   0.365  0.3440 -0.2368  0.5152
  372MOL0     C50142  11.135   7.795   0.251 -0.0132 -0.6383  0.2953
  372MOL0     O50143  11.201   7.673   0.261 -0.1959 -0.2908 -0.1084
  372MOL0     C50144  11.216   7.593   0.139 -0.6305  0.0061 -0.1471
  372MOL0     C50145  11.082   7.527   0.089 -0.1849  0.7693 -0.3429
  372MOL0     C50146  11.114   7.429  -0.029 -0.0167 -0.5292 -0.2092
  372MOL0     C50147  10.984   7.395  -0.102  0.4601  0.1766 -1.4116
  372MOL0     C50148  10.932   7.512  -0.181  0.1168  0.3032  0.0045
  372MOL0     C50149  10.901   7.604  -0.249 -1.1791 -0.4411  0.1026
  372MOL0     C50150  11.078   7.859   0.140 -0.0435  0.3517  0.4913
  372MOL0     C50151  11.007   7.979   0.143 -0.0929  0.0823 -0.0007
  372MOL0     C50152  10.947   8.016   0.008 -0.0361  0.4619 -0.5032
  372MOL0     H50153  10.838   8.330   0.622  2.5902 -1.4178 -1.8639
  372MOL0     H50154  10.696   8.544   0.622 -3.4192 -1.1806 -3.6859
  372MOL0     H50155  10.575   8.698   0.590 -1.8765 -0.2053  0.1459
  372MOL0     H50156  10.583   8.860   0.514 -0.1230  0.2796  1.2282
  372MOL0     H50157  10.464   8.645   0.348  1.9325  1.5315 -0.3415
  372MOL0     H50158  10.463   8.815   0.321 -1.1705  3.9235  1.0492
  372MOL0     H50159  10.357   8.841   0.565  0.9620  2.6592 -3.2037
  372MOL0     H50160  10.325   8.670   0.551 -0.5202 -0.5649  0.0682
  372MOL0     H50161  10.263   8.884   0.349  2.9435 -2.0620 -0.9446
  372MOL0     H50162  10.190   8.724   0.347  1.0028 -1.9790  1.0506
  372MOL0     H50163  10.069   8.760   0.568 -3.2806  0.9882  0.8359
  372MOL0     H50164  10.117   8.937   0.558 -0.1049  0.2341 -0.0250
  372MOL0     H50165   9.934   8.802   0.357 -0.1960 -1.7878  1.3481
  372MOL0     H50166   9.883   8.920   0.475 -0.1785  2.0037 -0.6886
  372MOL0     H50167  10.072   8.979   0.250 -0.7203  0.5557 -0.2909
  372MOL0     H50168  10.066   9.087   0.391 -2.3947  1.8092  1.0341
  372MOL0     H50169   9.918   9.151   0.192 -0.6355  0.6449 -0.7773
  372MOL0     H50170   9.829   8.997   0.225 -2.7259 -0.7394  4.5555
  372MOL0     H50171   9.947   9.297   0.470 -1.0616  3.2564  0.6869
  372MOL0     H50172   9.812   9.436   0.648  3.1175 -2.3368 -1.9974
  372MOL0     H50173   9.647   9.380   0.664 -0.1276  0.7007 -0.4692
  372MOL0     H50174   9.869   9.230   0.808 -0.6559 -1.4842 -1.9362
  372MOL0     H50175   9.785   9.363   0.888  3.9937  0.1347  0.4706
  372MOL0     H50176   9.671   9.120   0.763  0.0254  0.0397 -0.2367
  372MOL0     H50177   9.559   9.246   0.833 -1.0071 -2.5644 -0.2052
  372MOL0     H50178   9.761   9.065   0.980  0.3214  0.2425  1.1812
  372MOL0     H50179   9.590   9.067   0.992  0.6993  0.5356  1.1665
  372MOL0     H50180   9.677   8.977   1.204  2.1721 -1.5416  2.6527
  372MOL0     H50181   9.586   8.940   1.432 -1.3176  1.0735  0.3953
  372MOL0     H50182   9.618   8.969   1.895 -0.4322  2.0935 -0.7518
  372MOL0     H50183   9.508   8.942   2.128 -1.7167  0.3098  1.2945
  372MOL0     H50184   9.070   8.993   2.136  2.4482  1.7484 -1.2855
  372MOL0     H50185   9.084   8.890   2.281  2.2537  0.2173  0.9282
  372MOL0     H50186   9.192   9.182   2.261  2.1928 -1.7511 -0.2816
  372MOL0     H50187   9.034   9.119   2.322 -0.0199 -1.8010  1.5842
  372MOL0     H50188   9.298   9.012   2.437 -0.4879 -1.5404  2.8727
  372MOL0     H50189   9.240   9.174   2.469 -0.3129  0.3906 -2.6152
  372MOL0     H50190   9.066   8.923   2.529  0.1583  0.5663  0.7648
  372MOL0     H50191   9.009   9.068   2.563 -0.8495 -2.3629 -0.4960
  372MOL0     H50192   9.113   8.987   2.779  0.3909  3.1446  2.0267
  372MOL0     H50193   9.163   9.130   2.741 -1.3878 -1.9437  3.8096
  372MOL0     H50194   9.315   8.872   2.689  0.4155 -0.0524 -0.1673
  372MOL0     H50195   9.376   9.042   2.659  0.2595 -3.2873 -3.3398
  372MOL0     H50196   9.273   8.931   2.937 -0.6229  1.2459  1.3529
  372MOL0     H50197   9.324   9.096   2.889 -0.4575  0.0023  0.6527
  372MOL0     H50198   9.493   8.942   2.991  1.2565  1.2673 -0.2262
  372MOL0     H50199   9.494   8.830   2.855  1.3824 -0.9231  2.6855
  372MOL0     H50200   9.129   8.929   1.932 -1.5843  3.1001 -2.4173
  372MOL0     H50201   9.238   8.980   1.718 -3.1733  1.2966  2.6948
  372MOL0     H50202   9.441   9.352   1.449 -0.8399 -0.7933  0.8772
  372MOL0     H50203   9.549   9.380   1.235 -0.9050  0.0731  0.3480
  372MOL0     H50204  10.874   8.648   0.244 -3.1801 -0.1566 -1.3416
  372MOL0     H50205  10.981   8.443   0.242 -1.0769 -1.3449 -0.0077
  372MOL0     H50206  11.089   8.048   0.472  3.8512 -0.3726 -0.1832
  372MOL0     H50207  11.211   7.838   0.443  1.7903 -0.1351 -0.6032
  372MOL0     H50208  11.293   7.515   0.140  0.4307  0.8770 -3.0957
  372MOL0     H50209  11.247   7.658   0.056 -1.7943 -0.7440 -1.2078
  372MOL0     H50210  11.011   7.609   0.074  1.0027  2.4599  2.4190
  372MOL0     H50211  11.032   7.472   0.169  1.6215  1.4552  1.3414
  372MOL0     H50212  11.148   7.334   0.014  1.0490 -0.0448  0.0619
  372MOL0     H50213  11.178   7.471  -0.107  0.7616 -1.2897  0.0111
  372MOL0     H50214  11.008   7.314  -0.172  1.6725 -1.6879  1.0187
  372MOL0     H50215  10.902   7.369  -0.035  2.8186  0.5281  1.8487
  372MOL0     H50216  10.884   7.694  -0.304 -2.9355  0.2823  1.7190
  372MOL0     H50217  11.089   7.819   0.040 -1.5562  2.7969 -0.7555
  372MOL0     H50218  10.894   8.112   0.002 -3.8861 -1.5832 -4.0694
  372MOL0     H50219  11.015   8.018  -0.078  1.4791 -5.0848  0.1939
  372MOL0     H50220  10.867   7.943  -0.005  1.5777 -1.7411  1.0048
  373MOL0     O50221   7.195  11.466   4.585  0.8837  0.8853 -0.4750
  373MOL0     C50222   7.157  11.537   4.495 -0.2909 -0.3423  0.0718
  373MOL0     O50223   7.053  11.622   4.504 -0.3307 -0.5913  0.2085
  373MOL0     C50224   6.967  11.624   4.606 -0.3527 -0.0564  1.0581
  373MOL0     C50225   6.881  11.515   4.618 -0.3339  0.4113 -0.4961
  373MOL0     C50226   6.782  11.520   4.709  1.0274 -0.3663  0.1052
  373MOL0     C50227   6.770  11.625   4.808 -0.5419 -0.0872 -0.1353
  373MOL0     O50228   6.672  11.632   4.909  0.0650 -0.3403 -0.4171
  373MOL0     C50229   6.537  11.591   4.867 -0.1549  0.2373 -0.5767
  373MOL0     C50230   6.415  11.655   4.945 -0.2390 -0.1998  0.5332
  373MOL0     C50231   6.414  11.617   5.095  0.8075 -0.1151  0.3388
  373MOL0     C50232   6.487  11.723   5.183 -0.3732  0.2028  1.1786
  373MOL0     C50233   6.403  11.849   5.199  0.0175 -0.2896  0.1812
  373MOL0     C50234   6.500  11.966   5.220 -0.1379  0.1747  0.0226
  373MOL0     C50235   6.425  12.095   5.214 -0.2984  0.0551  0.1510
  373MOL0     C50236   6.313  12.107   5.323 -0.9129  0.2706  0.2466
  373MOL0     N50237   6.271  12.247   5.341 -0.3111  0.5267 -0.1844
  373MOL0     C50238   6.233  12.338   5.243 -0.8062 -0.8789  0.3581
  373MOL0     C50239   6.240  12.457   5.300 -0.2442  0.7215 -0.2985
  373MOL0     C50240   6.200  12.578   5.223 -0.7989 -0.8160  0.3110
  373MOL0     C50241   6.135  12.695   5.311  0.5492 -0.0924 -0.2299
  373MOL0     C50242   6.038  12.772   5.227  0.0149  0.3407  0.2401
  373MOL0     C50243   5.958  12.863   5.328 -0.3264  0.9077  0.9205
  373MOL0     O50244   5.867  12.794   5.408 -0.6342 -0.8088  0.2044
  373MOL0     C50245   5.764  12.748   5.335  0.2344  0.1760  0.6154
  373MOL0     C50246   5.729  12.614   5.374 -0.9375 -0.3668 -0.4716
  373MOL0     C50247   5.624  12.539   5.320 -0.4204  0.5791  0.1909
  373MOL0     C50248   5.545  12.598   5.220  0.1178  0.3077 -0.3736
  373MOL0     C50249   5.420  12.529   5.166  0.3517  0.2636 -0.6296
  373MOL0     O50250   5.328  12.607   5.112 -0.5667 -0.2033  0.2213
  373MOL0     C50251   5.215  12.549   5.059  0.0623 -0.8710 -0.6641
  373MOL0     C50252   5.131  12.463   5.144  0.2308  0.7728 -0.1207
  373MOL0     C50253   5.007  12.424   5.099  0.1748  0.2186 -0.4582
  373MOL0     C50254   4.957  12.469   4.976  0.2420 -0.6010  1.6172
  373MOL0     O50255   4.823  12.434   4.949  0.5067 -0.2736 -0.1312
  373MOL0     C50256   4.776  12.391   4.821  0.3364 -0.9700 -0.3687
  373MOL0     C50257   4.658  12.289   4.841  0.3383 -0.6255  0.0050
  373MOL0     C50258   4.711  12.155   4.901  0.6910  0.4540 -0.1965
  373MOL0     C50259   4.613  12.059   4.962 -0.6938  1.4246  1.2473
  373MOL0     C50260   4.691  11.962   5.055  0.8151 -0.8418  0.3237
  373MOL0     C50261   4.616  11.832   5.108  0.1471 -0.1861 -0.3301
  373MOL0     C50262   4.608  11.717   5.000  0.0188 -0.1567  1.1402
  373MOL0     C50263   4.545  11.595   5.055 -0.2745 -0.7087 -0.9176
  373MOL0    Cl50264   4.374  11.614   5.082 -1.0037  0.1214 -0.0307
  373MOL0     C50265   5.035  12.548   4.899  0.5833  0.4215  0.0925
  373MOL0     C50266   5.165  12.579   4.934  1.0776 -0.7028 -1.3457
  373MOL0     O50267   5.417  12.406   5.194 -0.1948 -0.7962  0.0863
  373MOL0     C50268   5.582  12.724   5.171 -0.2730 -0.1133  0.0661
  373MOL0     C50269   5.689  12.799   5.228  0.0306 -0.4683 -0.0534
  373MOL0     N50270   6.291  12.435   5.432 -0.3751 -0.2909  0.0435
  373MOL0     N50271   6.317  12.315   5.453  0.2886 -0.4510 -0.1241
  373MOL0     C50272   6.848  11.740   4.787  0.6138  0.3734 -0.4656
  373MOL0     C50273   6.950  11.736   4.689 -0.8970 -0.4848 -1.0775
  373MOL0     C50274   7.221  11.524   4.365 -0.9717 -0.4717  0.2268
  373MOL0     C50275   7.224  11.635   4.276 -0.4159 -0.2999  0.5235
  373MOL0     C50276   7.276  11.628   4.142 -0.0835 -0.1245  0.5180
  373MOL0     C50277   7.338  11.510   4.101 -0.7644 -0.0669  0.1473
  373MOL0     O50278   7.400  11.472   3.982  0.5996 -0.2615 -0.5433
  373MOL0     C50279   7.359  11.541   3.863  0.5912  0.0963  0.2908
  373MOL0     C50280   7.384  11.441   3.747 -0.4106  0.4748  0.2282
  373MOL0     C50281   7.314  11.299   3.762 -0.0289 -0.6564 -0.2613
  373MOL0     C50282   7.365  11.186   3.671  0.0827 -0.3496  0.6059
  373MOL0     C50283   7.397  11.243   3.535 -0.8043  0.4848  0.2592
  373MOL0     C50284   7.406  11.290   3.419  0.6121  0.2134 -0.1661
  373MOL0     C50285   7.351  11.408   4.200  0.1241 -0.0625 -0.0034
  373MOL0     C50286   7.298  11.410   4.330 -0.6548 -0.0635  0.5897
  373MOL0     C50287   7.327  11.284   4.410 -0.1712  0.6961  0.1501
  373MOL0     H50288   6.878  11.437   4.541 -0.3885 -0.7541  0.6548
  373MOL0     H50289   6.717  11.434   4.697  3.3368 -1.9426 -2.1634
  373MOL0     H50290   6.526  11.611   4.760 -1.7011  0.8286 -0.3213
  373MOL0     H50291   6.531  11.483   4.885 -1.0608  0.4374  0.3908
  373MOL0     H50292   6.325  11.608   4.903 -1.9857  2.0629  1.4930
  373MOL0     H50293   6.411  11.762   4.924  0.2174  0.3142  2.7938
  373MOL0     H50294   6.442  11.517   5.127 -1.0391 -0.3991  1.1774
  373MOL0     H50295   6.313  11.623   5.137  1.8486  0.8296  2.9292
  373MOL0     H50296   6.510  11.683   5.282  1.9292  2.9210  1.8636
  373MOL0     H50297   6.588  11.737   5.143 -0.3481 -3.2733 -0.3156
  373MOL0     H50298   6.356  11.868   5.102 -0.8809 -2.4501  0.1364
  373MOL0     H50299   6.320  11.848   5.271 -3.4529  0.1910 -3.4530
  373MOL0     H50300   6.549  11.946   5.316  1.0737  1.3988 -0.3088
  373MOL0     H50301   6.579  11.968   5.145 -0.6989 -3.3526 -0.8500
  373MOL0     H50302   6.382  12.103   5.114  0.7896 -0.2396 -0.3677
  373MOL0     H50303   6.490  12.181   5.232 -0.3695  0.3486 -0.9022
  373MOL0     H50304   6.229  12.043   5.293 -1.3524  0.0624  1.8327
  373MOL0     H50305   6.352  12.059   5.414 -3.3075 -1.3974  0.5110
  373MOL0     H50306   6.198  12.309   5.144  0.3987  0.1776 -0.4244
  373MOL0     H50307   6.286  12.631   5.181 -2.0030  2.6808  1.8884
  373MOL0     H50308   6.131  12.551   5.143 -0.8192  2.5531 -0.9245
  373MOL0     H50309   6.082  12.636   5.387  2.4272 -1.5118  0.0475
  373MOL0     H50310   6.203  12.756   5.370 -0.4533 -0.8990  1.8626
  373MOL0     H50311   5.965  12.711   5.174  2.0055 -1.6620 -0.3180
  373MOL0     H50312   6.099  12.823   5.152  2.2731 -0.7418  1.2435
  373MOL0     H50313   5.925  12.947   5.266  2.4625  1.9715  0.7197
  373MOL0     H50314   6.028  12.911   5.397  0.3004  1.8456 -0.3393
  373MOL0     H50315   5.792  12.587   5.458  1.6323  1.2529 -1.7385
  373MOL0     H50316   5.606  12.435   5.345 -1.7669 -0.2105 -3.4261
  373MOL0     H50317   5.164  12.425   5.240  2.5076  3.2966  0.2213
  373MOL0     H50318   4.935  12.362   5.151 -0.1882  1.0795  0.0866
  373MOL0     H50319   4.719  12.469   4.770  0.1310 -0.4866  0.5729
  373MOL0     H50320   4.855  12.354   4.755 -0.0161 -0.8980 -0.8374
  373MOL0     H50321   4.572  12.341   4.885  1.8501  0.9800  1.1700
  373MOL0     H50322   4.619  12.256   4.744 -0.1088 -1.9092  0.5970
  373MOL0     H50323   4.762  12.089   4.830 -0.5480 -0.0328 -0.6809
  373MOL0     H50324   4.779  12.196   4.976 -2.5646  1.1071  2.6328
  373MOL0     H50325   4.577  12.003   4.876 -0.6019 -1.9690  3.2386
  373MOL0     H50326   4.529  12.106   5.015 -0.9357  1.9587  0.4051
  373MOL0     H50327   4.719  12.026   5.139 -0.5573  0.5365 -0.2325
  373MOL0     H50328   4.780  11.929   5.000  0.2112 -1.1301 -0.4994
  373MOL0     H50329   4.671  11.808   5.199  2.2679 -0.3731 -1.5857
  373MOL0     H50330   4.514  11.865   5.130  0.3058  0.3893 -0.4573
  373MOL0     H50331   4.706  11.690   4.961  0.0873  2.8718 -1.1108
  373MOL0     H50332   4.546  11.750   4.916 -1.3577  0.5593  2.3747
  373MOL0     H50333   4.564  11.514   4.985 -1.0853  1.1482 -3.4151
  373MOL0     H50334   4.590  11.568   5.151  0.4164  0.1162 -1.0042
  373MOL0     H50335   4.983  12.589   4.813 -3.7751 -0.3632  2.0860
  373MOL0     H50336   5.218  12.652   4.873  0.8939 -0.3229 -1.0526
  373MOL0     H50337   5.525  12.766   5.089 -0.9465 -0.1498  0.5034
  373MOL0     H50338   5.722  12.894   5.187  3.5354 -1.1916  0.7470
  373MOL0     H50339   6.837  11.817   4.863  1.2076 -2.6927  3.0087
  373MOL0     H50340   7.021  11.816   4.675  3.0113 -3.5892 -0.8400
  373MOL0     H50341   7.187  11.734   4.302 -0.5681  0.4781 -2.3133
  373MOL0     H50342   7.276  11.706   4.066  1.1199 -0.4650  0.1353
  373MOL0     H50343   7.400  11.641   3.843 -0.3078  0.3043 -0.5674
  373MOL0     H50344   7.251  11.556   3.873  0.8014  1.4540  0.7485
  373MOL0     H50345   7.491  11.440   3.727  0.4090 -2.2031  3.7744
  373MOL0     H50346   7.331  11.488   3.664 -0.5513 -0.6064 -0.3031
  373MOL0     H50347   7.207  11.303   3.742 -0.1832  0.7355  0.7210
  373MOL0     H50348   7.332  11.246   3.857 -0.2606 -3.9605 -1.9127
  373MOL0     H50349   7.450  11.129   3.710 -0.6330 -0.3398  2.2678
  373MOL0     H50350   7.279  11.121   3.656 -0.6484  0.8432 -0.5961
  373MOL0     H50351   7.434  11.342   3.329 -2.3505 -0.3119 -1.5285
  373MOL0     H50352   7.423  11.330   4.181  0.2587  0.2446 -0.8123
  373MOL0     H50353   7.370  11.301   4.509 -6.2339 -0.9407  3.5572
  373MOL0     H50354   7.235  11.236   4.443  0.0639 -0.4241 -0.7324
  373MOL0     H50355   7.399  11.217   4.362 -0.5195  0.8277 -0.5737
  374MOL0     O50356   3.771  10.346   3.282 -0.3765  0.8063 -0.2811
  374MOL0     C50357   3.776  10.460   3.333  0.6233 -0.1672  0.7272
  374MOL0     O50358   3.831  10.491   3.454 -0.1299 -0.3161  0.3848
  374MOL0     C50359   3.869  10.388   3.530 -0.0300  0.0893  0.1832
  374MOL0     C50360   3.997  10.336   3.503 -0.3102  0.0082  0.6532
  374MOL0     C50361   4.063  10.247   3.586 -0.5779  0.7399  0.5680
  374MOL0     C50362   3.977  10.192   3.690 -1.2551 -0.9287  0.8357
  374MOL0     O50363   4.061  10.116   3.774  0.1689 -0.2152  0.1797
  374MOL0     C50364   4.005  10.038   3.873 -0.8222  0.6825 -0.9418
  374MOL0     C50365   4.115   9.976   3.960 -0.2789  0.4781  0.1016
  374MOL0     C50366   4.163  10.087   4.057 -0.4891 -0.0315 -0.6103
  374MOL0     C50367   4.301  10.061   4.128  0.0511  0.8350  0.2345
  374MOL0     C50368   4.309  10.111   4.275  0.0780  0.8093  0.7350
  374MOL0     C50369   4.449  10.126   4.322  1.0621 -0.6083 -0.7890
  374MOL0     C50370   4.485  10.183   4.459  0.0551  0.9856 -0.1067
  374MOL0     C50371   4.628  10.139   4.502  0.3852 -0.5169 -0.8527
  374MOL0     N50372   4.658  10.211   4.629 -0.1194 -0.0060 -0.7877
  374MOL0     C50373   4.617  10.157   4.748  0.2423  0.1123  0.3383
  374MOL0     C50374   4.706  10.204   4.840 -0.3931  0.3788 -0.2621
  374MOL0     C50375   4.702  10.183   4.994  0.1423 -0.0069 -0.3838
  374MOL0     C50376   4.755  10.045   5.031 -0.0915  0.3432  0.4268
  374MOL0     C50377   4.815  10.039   5.168  1.1011  0.8246  0.2473
  374MOL0     C50378   4.714  10.061   5.276 -0.5750 -0.2568  0.3598
  374MOL0     O50379   4.607   9.970   5.262 -0.2109  0.1917 -0.7371
  374MOL0     C50380   4.481   9.992   5.320  0.1395  0.8451  1.4020
  374MOL0     C50381   4.452  10.105   5.404  0.5859  0.7054  0.1981
  374MOL0     C50382   4.320  10.121   5.447  0.3888  0.8849  0.6106
  374MOL0     C50383   4.223  10.022   5.430 -0.5265 -0.1892  1.0423
  374MOL0     C50384   4.085  10.035   5.484 -0.7320  0.5921 -0.4316
  374MOL0     O50385   4.003   9.930   5.457  1.1463  0.9573  0.1420
  374MOL0     C50386   3.878   9.937   5.506 -0.0913  0.1906  0.4134
  374MOL0     C50387   3.769   9.989   5.435 -0.3171  0.1371 -0.6671
  374MOL0     C50388   3.640   9.978   5.484 -0.8102  0.0835 -0.0962
  374MOL0     C50389   3.606   9.911   5.606 -0.0354 -0.5397  0.3578
  374MOL0     O50390   3.478   9.896   5.644  0.5489  0.4388  0.7202
  374MOL0     C50391   3.453   9.815   5.767 -1.6668  0.2449  0.9363
  374MOL0     C50392   3.467   9.896   5.898  0.7763  1.2557 -0.4416
  374MOL0     C50393   3.338   9.980   5.922  0.3892  0.1513  1.1855
  374MOL0     C50394   3.246   9.907   6.025 -0.2297 -0.4285 -0.6268
  374MOL0     C50395   3.135  10.004   6.047 -0.0420  0.4016  0.2309
  374MOL0     C50396   3.029   9.937   6.148  0.5355 -0.9641  0.6331
  374MOL0     C50397   3.066   9.852   6.277  0.1561 -1.0593  0.8083
  374MOL0     C50398   3.150   9.929   6.385  0.5727  0.8790 -1.0304
  374MOL0    Cl50399   3.043  10.063   6.460 -0.1177 -0.2022 -0.2520
  374MOL0     C50400   3.714   9.875   5.684 -0.9962 -0.0681  0.0071
  374MOL0     C50401   3.847   9.879   5.628  0.4741  0.6522  0.0385
  374MOL0     O50402   4.051  10.135   5.548 -0.2772 -0.4929  0.0663
  374MOL0     C50403   4.259   9.909   5.352  0.4601  0.7683  0.4656
  374MOL0     C50404   4.388   9.898   5.299 -0.8313 -0.1716  0.5728
  374MOL0     N50405   4.789  10.294   4.788 -0.9082  0.0455 -0.3937
  374MOL0     N50406   4.767  10.291   4.657  0.1855  0.0208  0.0393
  374MOL0     C50407   3.845  10.230   3.713  0.3769 -0.1724  0.3192
  374MOL0     C50408   3.795  10.331   3.632 -0.4925  1.0694 -0.8452
  374MOL0     C50409   3.730  10.584   3.260  0.5849  0.8992  0.6990
  374MOL0     C50410   3.755  10.708   3.316 -0.2698 -0.2377  0.7595
  374MOL0     C50411   3.732  10.825   3.246  0.4012 -0.2074 -0.8525
  374MOL0     C50412   3.689  10.823   3.114 -0.3509  0.2722  0.6410
  374MOL0     O50413   3.661  10.945   3.054 -0.1576  0.4171  1.1202
  374MOL0     C50414   3.578  10.955   2.939  0.3001  0.5910 -0.4439
  374MOL0     C50415   3.650  10.947   2.808  0.4578  0.3526  0.6321
  374MOL0     C50416   3.752  11.061   2.783 -1.0609 -1.5117  0.2267
  374MOL0     C50417   3.893  11.032   2.853  0.0338  0.7234 -0.5860
  374MOL0     C50418   3.970  10.941   2.776  0.2721  1.2931  1.2586
  374MOL0     C50419   4.034  10.871   2.697  0.0294  0.7556  0.4453
  374MOL0     C50420   3.653  10.693   3.059  0.3130 -0.0143 -0.4540
  374MOL0     C50421   3.673  10.572   3.132  0.5406  0.7309  0.1383
  374MOL0     C50422   3.635  10.444   3.067 -0.3448 -0.1851 -0.7195
  374MOL0     H50423   4.042  10.381   3.414  0.2532  0.9877  1.4113
  374MOL0     H50424   4.164  10.211   3.566 -0.7690  0.8724 -0.7063
  374MOL0     H50425   3.930  10.090   3.934  1.9017  1.2781  2.2031
  374MOL0     H50426   3.952   9.958   3.820 -0.4706  1.9144 -3.2832
  374MOL0     H50427   4.201   9.951   3.897 -1.4436  1.3694 -1.9587
  374MOL0     H50428   4.085   9.885   4.013 -1.0893  0.1271 -0.9067
  374MOL0     H50429   4.083  10.085   4.131  0.9073  0.5870  0.9918
  374MOL0     H50430   4.172  10.188   4.015 -2.1006  0.4334  0.1131
  374MOL0     H50431   4.309   9.952   4.128  4.2732  0.9620 -1.1037
  374MOL0     H50432   4.385  10.098   4.068  0.6781 -1.1731 -0.2045
  374MOL0     H50433   4.263  10.211   4.279  1.2659  1.4712 -0.9436
  374MOL0     H50434   4.242  10.046   4.332 -1.5776  2.6940  1.0658
  374MOL0     H50435   4.483  10.023   4.333 -0.0346 -0.7047  4.5244
  374MOL0     H50436   4.499  10.177   4.239 -1.5897 -1.8333 -3.2948
  374MOL0     H50437   4.407  10.151   4.530  0.3799  0.1768 -0.1009
  374MOL0     H50438   4.494  10.292   4.463  1.1768  0.9873 -1.6086
  374MOL0     H50439   4.620  10.033   4.524 -1.9000 -0.0376  1.1110
  374MOL0     H50440   4.695  10.146   4.417 -1.7330 -2.5355 -2.8148
  374MOL0     H50441   4.541  10.080   4.762 -0.8887  1.0044 -0.6643
  374MOL0     H50442   4.761  10.259   5.044 -1.7425  1.7748 -0.7422
  374MOL0     H50443   4.597  10.187   5.025 -0.1245 -0.4845 -1.1715
  374MOL0     H50444   4.668   9.980   5.020 -0.9085  1.7377 -2.2870
  374MOL0     H50445   4.831  10.027   4.954 -1.4843  0.1953 -0.9712
  374MOL0     H50446   4.899  10.107   5.185  2.6938 -1.0417  0.2190
  374MOL0     H50447   4.848   9.935   5.167  2.1175  1.1206 -1.4269
  374MOL0     H50448   4.685  10.166   5.268 -2.7895 -0.8809 -0.5202
  374MOL0     H50449   4.771  10.031   5.364 -1.3463 -0.7372  0.7001
  374MOL0     H50450   4.539  10.165   5.424  1.3245  0.7348 -2.6543
  374MOL0     H50451   4.295  10.205   5.511  1.8458 -1.5350  4.7317
  374MOL0     H50452   3.800  10.040   5.344 -0.8983  1.5802 -0.0928
  374MOL0     H50453   3.556  10.006   5.421 -1.0351 -0.1059  0.1154
  374MOL0     H50454   3.357   9.764   5.753 -2.6523  2.5477 -1.6193
  374MOL0     H50455   3.516   9.726   5.762 -2.6759 -0.4290 -0.5033
  374MOL0     H50456   3.474   9.828   5.983 -2.5820 -1.1987 -1.8966
  374MOL0     H50457   3.560   9.954   5.898  0.9596  1.1378  2.5688
  374MOL0     H50458   3.368  10.077   5.964  1.9405 -0.6191  1.8993
  374MOL0     H50459   3.287  10.001   5.827  1.9304  1.3281  0.5758
  374MOL0     H50460   3.304   9.899   6.117  1.2484 -0.1727 -1.5131
  374MOL0     H50461   3.205   9.810   5.992  0.6612  0.0651 -3.4691
  374MOL0     H50462   3.097  10.024   5.946  2.3871 -0.1623 -0.8878
  374MOL0     H50463   3.173  10.092   6.101 -1.1507  0.6058  0.7010
  374MOL0     H50464   2.959  10.018   6.171  0.4450  0.9833 -5.0129
  374MOL0     H50465   2.966   9.869   6.090 -4.6663  3.0540  0.8446
  374MOL0     H50466   3.122   9.760   6.258  2.5504 -0.1438  2.8154
  374MOL0     H50467   2.967   9.826   6.315 -0.3343  1.5324  1.5064
  374MOL0     H50468   3.190   9.857   6.456 -1.9535  1.1417  0.8122
  374MOL0     H50469   3.235   9.970   6.330  1.3109 -2.0849 -2.2880
  374MOL0     H50470   3.702   9.829   5.781 -1.6539  1.2283  0.5729
  374MOL0     H50471   3.916   9.830   5.695  1.4891  1.4660 -0.3845
  374MOL0     H50472   4.188   9.832   5.322  3.6695 -2.5215  0.6287
  374MOL0     H50473   4.418   9.816   5.236  0.8954  3.0877 -3.3150
  374MOL0     H50474   3.797  10.191   3.802  1.3039  0.9953  1.3779
  374MOL0     H50475   3.698  10.371   3.660 -1.7451 -1.6849 -0.9021
  374MOL0     H50476   3.799  10.722   3.415 -0.8486  3.8248  0.6111
  374MOL0     H50477   3.753  10.923   3.288  0.8231 -1.3301  1.7210
  374MOL0     H50478   3.541  11.054   2.967  0.7719  0.5279  0.4540
  374MOL0     H50479   3.488  10.893   2.942 -0.2784  1.4240  1.8398
  374MOL0     H50480   3.570  10.943   2.734  1.1394  0.7899 -0.1407
  374MOL0     H50481   3.712  10.857   2.799 -0.2363 -0.1239  0.5322
  374MOL0     H50482   3.711  11.148   2.837  0.7479 -1.0195  0.8913
  374MOL0     H50483   3.770  11.091   2.680  1.7320  3.5767  1.8249
  374MOL0     H50484   3.948  11.123   2.878  1.2661 -0.4061  0.9724
  374MOL0     H50485   3.884  10.990   2.954  0.6447  2.4150  0.2198
  374MOL0     H50486   4.085  10.795   2.641  0.6980  3.7397 -3.4947
  374MOL0     H50487   3.623  10.675   2.956  0.4623  0.7296 -0.6295
  374MOL0     H50488   3.552  10.451   2.997 -0.3965 -1.8238 -0.8660
  374MOL0     H50489   3.727  10.408   3.019 -0.3602  1.1257 -1.8084
  374MOL0     H50490   3.595  10.367   3.134  2.1163 -0.4602  0.5575
  375MOL0     O50491   5.414  10.119   2.307 -0.0595 -0.1923  0.1953
  375MOL0     C50492   5.422  10.004   2.255 -0.3825  0.3496  0.0453
  375MOL0     O50493   5.307   9.938   2.220 -0.2290  0.3016  0.3931
  375MOL0     C50494   5.191  10.007   2.230  0.6741  0.2137 -0.7420
  375MOL0     C50495   5.104   9.978   2.330 -0.2160  0.9706  0.0526
  375MOL0     C50496   4.998  10.061   2.353 -0.0324  0.0995  0.6953
  375MOL0     C50497   4.970  10.175   2.272 -0.1077 -0.1640 -0.0074
  375MOL0     O50498   4.867  10.250   2.293 -0.7221 -0.2168  0.5268
  375MOL0     C50499   4.761  10.224   2.204  1.5924  0.3934  1.0047
  375MOL0     C50500   4.628  10.201   2.283 -0.4394 -0.0248 -0.6399
  375MOL0     C50501   4.625  10.086   2.375 -0.3728 -0.3519 -0.3418
  375MOL0     C50502   4.587   9.952   2.319  0.8126  0.1804  0.5609
  375MOL0     C50503   4.625   9.838   2.418  0.0643 -0.0250 -0.4906
  375MOL0     C50504   4.620   9.696   2.343 -0.7747  0.3526 -0.0668
  375MOL0     C50505   4.637   9.587   2.449 -1.4001  1.0157  0.9025
  375MOL0     C50506   4.667   9.446   2.401 -0.6788  0.1150  1.1092
  375MOL0     N50507   4.671   9.350   2.518 -0.9021 -0.2759  0.6441
  375MOL0     C50508   4.570   9.332   2.606  0.1276  0.1845 -0.2614
  375MOL0     C50509   4.603   9.221   2.673  0.4224 -0.3028 -0.6906
  375MOL0     C50510   4.530   9.154   2.782  0.0481  0.3470 -0.0165
  375MOL0     C50511   4.576   9.005   2.808 -0.0471 -0.0693 -0.8257
  375MOL0     C50512   4.689   8.992   2.910 -0.3743  1.0073 -0.3661
  375MOL0     C50513   4.773   8.857   2.911  1.0155  0.2187  0.3158
  375MOL0     O50514   4.757   8.796   2.783  0.1532 -0.5576 -0.2841
  375MOL0     C50515   4.770   8.662   2.774 -0.1835 -0.0515  0.8336
  375MOL0     C50516   4.748   8.606   2.638  0.3695  0.1663  0.4452
  375MOL0     C50517   4.739   8.470   2.615  0.7379 -0.3289  0.1077
  375MOL0     C50518   4.762   8.381   2.728  0.0975  0.4959 -0.0095
  375MOL0     C50519   4.746   8.228   2.717  0.2808 -0.9120 -0.2565
  375MOL0     O50520   4.764   8.196   2.580  0.9969  0.1251  0.6587
  375MOL0     C50521   4.820   8.072   2.560 -0.0795 -0.0720  0.1228
  375MOL0     C50522   4.775   7.997   2.454 -0.2589 -0.3598  0.9816
  375MOL0     C50523   4.827   7.881   2.426 -1.2881 -0.1374  0.4623
  375MOL0     C50524   4.943   7.834   2.494 -0.2955 -0.1365 -0.0986
  375MOL0     O50525   5.007   7.716   2.473 -0.1658  0.1613 -0.4439
  375MOL0     C50526   5.126   7.741   2.399 -0.4472  1.1221 -0.0166
  375MOL0     C50527   5.100   7.739   2.242  0.4717 -0.5370 -0.0139
  375MOL0     C50528   5.170   7.620   2.170 -0.7633  0.8079 -0.1728
  375MOL0     C50529   5.324   7.632   2.172  0.3075 -0.1040  0.0702
  375MOL0     C50530   5.385   7.619   2.033  0.4606 -0.0622  0.9662
  375MOL0     C50531   5.383   7.479   1.984 -0.3741 -0.2397 -0.8566
  375MOL0     C50532   5.486   7.397   2.062 -0.6591 -0.5966  0.1800
  375MOL0     C50533   5.504   7.250   2.007 -0.4474  0.0198 -0.4289
  375MOL0    Cl50534   5.355   7.156   1.978  1.0030 -0.1587 -0.1676
  375MOL0     C50535   5.000   7.917   2.599 -0.3956 -0.3585 -0.3281
  375MOL0     C50536   4.942   8.044   2.627  0.6496 -0.1171  0.4025
  375MOL0     O50537   4.754   8.166   2.818  0.2112  0.3442 -0.4977
  375MOL0     C50538   4.789   8.434   2.853 -0.0724  0.6928 -0.4146
  375MOL0     C50539   4.795   8.568   2.874 -0.3162  0.3601  0.4174
  375MOL0     N50540   4.716   9.177   2.614 -0.1047  0.0513 -0.0657
  375MOL0     N50541   4.764   9.258   2.530 -0.8090  0.0021 -0.2014
  375MOL0     C50542   5.066  10.206   2.184  0.9133  0.0437 -0.5164
  375MOL0     C50543   5.172  10.121   2.149 -0.2761 -0.6492 -0.5055
  375MOL0     C50544   5.546   9.919   2.262  0.4031  0.0290 -0.6602
  375MOL0     C50545   5.536   9.788   2.221 -0.1146 -0.1308 -0.1034
  375MOL0     C50546   5.635   9.699   2.253  0.2343  0.8427  0.3533
  375MOL0     C50547   5.746   9.722   2.323 -0.3159 -0.2549 -0.3999
  375MOL0     O50548   5.840   9.621   2.340 -0.2697  0.2576 -0.0124
  375MOL0     C50549   5.858   9.517   2.236  0.0398 -0.7279 -0.2269
  375MOL0     C50550   5.994   9.459   2.265  0.0474 -0.5198 -0.2973
  375MOL0     C50551   5.977   9.357   2.385  0.0448  0.2879  0.2326
  375MOL0     C50552   6.110   9.305   2.454 -0.4665 -0.0163 -0.0141
  375MOL0     C50553   6.163   9.409   2.540 -0.8354 -0.5878 -0.3369
  375MOL0     C50554   6.166   9.497   2.621 -0.5900 -0.2043 -0.0149
  375MOL0     C50555   5.761   9.855   2.356  0.4023 -0.6260  0.3944
  375MOL0     C50556   5.675   9.959   2.318  1.3331  0.3802 -0.0770
  375MOL0     C50557   5.714  10.102   2.356 -0.7281  0.9551 -0.2719
  375MOL0     H50558   5.123   9.891   2.392  1.3546  0.9872 -0.3812
  375MOL0     H50559   4.928  10.041   2.434 -1.8688  0.1407 -0.8111
  375MOL0     H50560   4.751  10.318   2.148  0.2216  0.5043  1.3847
  375MOL0     H50561   4.777  10.143   2.132  0.8141  3.0925 -2.5020
  375MOL0     H50562   4.541  10.192   2.218 -1.6948  1.0467  0.8074
  375MOL0     H50563   4.604  10.287   2.346  0.7525  0.8681 -1.3774
  375MOL0     H50564   4.569  10.105   2.467  0.3830  0.2296  0.0142
  375MOL0     H50565   4.724  10.066   2.417 -1.3269 -4.9787  0.1892
  375MOL0     H50566   4.479   9.954   2.303  0.6986  1.3212  1.3540
  375MOL0     H50567   4.646   9.939   2.228 -0.3316  2.0772 -0.5059
  375MOL0     H50568   4.719   9.863   2.468  1.1345 -1.7013 -1.5736
  375MOL0     H50569   4.555   9.836   2.501  3.2731 -1.4125  2.4375
  375MOL0     H50570   4.523   9.684   2.296 -0.6006  2.1934 -0.9851
  375MOL0     H50571   4.711   9.692   2.282 -0.2284  1.3468  0.6537
  375MOL0     H50572   4.552   9.581   2.517 -1.0840  0.9070  1.2990
  375MOL0     H50573   4.723   9.619   2.509 -0.0926  0.7785 -0.7806
  375MOL0     H50574   4.601   9.418   2.319 -0.3088  1.0502  0.4732
  375MOL0     H50575   4.759   9.446   2.342 -3.6397  1.7519 -4.1672
  375MOL0     H50576   4.486   9.400   2.617  2.6605  3.5090 -0.0900
  375MOL0     H50577   4.536   9.206   2.878 -3.6688  2.0390 -0.5572
  375MOL0     H50578   4.424   9.152   2.755 -0.0680 -3.6572  0.0586
  375MOL0     H50579   4.491   8.945   2.839  0.7240 -1.9445 -2.1605
  375MOL0     H50580   4.603   8.962   2.711 -3.0667  1.1234 -2.3337
  375MOL0     H50581   4.637   9.000   3.006  1.9817  3.0236  0.8627
  375MOL0     H50582   4.755   9.079   2.907 -0.1658  0.8844  0.4592
  375MOL0     H50583   4.737   8.785   2.986 -0.2735 -1.5056 -1.8362
  375MOL0     H50584   4.875   8.888   2.932 -0.0709  1.9804  3.6959
  375MOL0     H50585   4.739   8.678   2.557  2.5920  1.4080  1.2103
  375MOL0     H50586   4.710   8.438   2.516 -1.4251  1.3636  0.1264
  375MOL0     H50587   4.698   8.039   2.390  3.2821  3.0221 -1.5073
  375MOL0     H50588   4.796   7.833   2.334  1.3198 -3.3190  1.0748
  375MOL0     H50589   5.166   7.839   2.429 -0.6802  0.8666  1.2096
  375MOL0     H50590   5.205   7.667   2.416 -0.0518  1.1595 -1.5800
  375MOL0     H50591   4.997   7.722   2.209 -0.1355 -0.4250  1.7601
  375MOL0     H50592   5.144   7.832   2.205  0.0273 -0.2411  0.1990
  375MOL0     H50593   5.135   7.526   2.215  2.2779 -0.2841  0.1018
  375MOL0     H50594   5.123   7.617   2.071 -2.7255 -0.9674  0.7265
  375MOL0     H50595   5.362   7.556   2.241  2.3053  2.1346  1.5808
  375MOL0     H50596   5.355   7.722   2.224  2.6748 -1.6900  1.6134
  375MOL0     H50597   5.487   7.656   2.021 -0.5493  2.1695 -2.6581
  375MOL0     H50598   5.322   7.679   1.966 -2.1266 -1.2829  2.1512
  375MOL0     H50599   5.282   7.438   1.992  0.0546 -1.2404 -0.3833
  375MOL0     H50600   5.417   7.480   1.880  2.0707  0.6065 -0.1410
  375MOL0     H50601   5.458   7.387   2.167 -0.5131 -0.8606  0.1949
  375MOL0     H50602   5.584   7.446   2.073 -0.4686 -1.3775  2.7877
  375MOL0     H50603   5.558   7.254   1.912  0.1989  3.3809 -0.0592
  375MOL0     H50604   5.564   7.199   2.083 -0.5127  1.5612  0.7074
  375MOL0     H50605   5.082   7.871   2.654 -0.3269  0.6213  0.4069
  375MOL0     H50606   4.979   8.106   2.708  2.8482 -0.1244 -0.5331
  375MOL0     H50607   4.789   8.363   2.935 -0.6852  0.6259 -0.4653
  375MOL0     H50608   4.809   8.576   2.982 -0.3966 -1.5060  0.6001
  375MOL0     H50609   5.060  10.293   2.120  1.7271 -1.5379 -2.8618
  375MOL0     H50610   5.252  10.145   2.079  0.1350 -2.1325 -0.5806
  375MOL0     H50611   5.457   9.748   2.158  0.1432 -0.7668 -0.0393
  375MOL0     H50612   5.615   9.602   2.209  0.6921  1.3491 -1.0335
  375MOL0     H50613   5.858   9.575   2.142 -0.3877 -1.7401 -0.8673
  375MOL0     H50614   5.777   9.445   2.232  1.1911 -2.1892  1.3931
  375MOL0     H50615   6.079   9.523   2.289 -1.1642  1.1764 -0.3296
  375MOL0     H50616   6.034   9.412   2.175  0.4167  0.2466 -0.5456
  375MOL0     H50617   5.922   9.274   2.339  0.9106  1.2555 -2.7912
  375MOL0     H50618   5.924   9.401   2.470  1.1491  0.6710  0.7386
  375MOL0     H50619   6.079   9.215   2.508  1.1788 -0.7566 -0.2450
  375MOL0     H50620   6.180   9.293   2.371  1.1453 -0.3770  1.3201
  375MOL0     H50621   6.185   9.571   2.695  0.0191  0.4211 -0.7723
  375MOL0     H50622   5.856   9.883   2.401  0.7167 -2.1339  0.7371
  375MOL0     H50623   5.712  10.173   2.273 -0.5414  1.1597 -0.1018
  375MOL0     H50624   5.632  10.136   2.420 -0.8179  0.2119  0.0279
  375MOL0     H50625   5.804  10.097   2.417 -2.0837 -1.8076  1.7809
  376MOL0     O50626   6.531  10.551  10.366  0.9575 -0.1753 -0.0239
  376MOL0     C50627   6.480  10.575  10.261 -0.1915  0.7013  0.3569
  376MOL0     O50628   6.476  10.690  10.200 -0.0433  0.2483 -0.9698
  376MOL0     C50629   6.554  10.793  10.253  0.5898 -0.5993 -0.6624
  376MOL0     C50630   6.676  10.807  10.204  0.4225 -0.1612 -0.5015
  376MOL0     C50631   6.765  10.906  10.249 -0.3360  0.1162 -0.9804
  376MOL0     C50632   6.726  10.987  10.355 -0.7458  0.4460 -0.3278
  376MOL0     O50633   6.790  11.096  10.403  0.2684 -0.6108  0.4128
  376MOL0     C50634   6.920  11.130  10.349  0.1775  0.1457  0.7510
  376MOL0     C50635   6.972  11.264  10.402 -0.1988 -0.1324 -0.8131
  376MOL0     C50636   7.000  11.257  10.565  0.5858 -0.3342  0.5672
  376MOL0     C50637   6.937  11.359  10.642  0.3392  0.8165  0.4811
  376MOL0     C50638   6.906  11.312  10.789 -0.2232  0.4476  0.3399
  376MOL0     C50639   6.825  11.418  10.859 -0.0380 -0.0797 -0.2529
  376MOL0     C50640   6.799  11.378  11.009 -0.0453 -0.5325  0.3347
  376MOL0     C50641   6.668  11.449  11.066  1.4546  0.1588 -0.3952
  376MOL0     N50642   6.698  11.585  11.086 -0.1011  0.0527 -0.0461
  376MOL0     C50643   6.694  11.649  11.206 -0.8297  0.8796  0.2313
  376MOL0     C50644   6.696  11.785  11.183  0.0998  0.4763  0.1312
  376MOL0     C50645   6.704  11.898  11.277 -0.6550  0.1601 -0.0233
  376MOL0     C50646   6.598  12.011  11.243  0.4237  0.7597 -0.7544
  376MOL0     C50647   6.455  11.965  11.284  0.0011  0.5828 -0.2656
  376MOL0     C50648   6.425  11.981  11.435  0.6339  0.3188  0.1814
  376MOL0     O50649   6.392  12.114  11.457 -0.1931  0.3423  0.0605
  376MOL0     C50650   6.449  12.178  11.562 -0.1522 -0.4418  1.1984
  376MOL0     C50651   6.363  12.268  11.613  0.4973  0.3107  0.1114
  376MOL0     C50652   6.402  12.358  11.712 -0.5575  0.6963  1.2800
  376MOL0     C50653   6.535  12.349  11.765  1.0082  0.5057 -0.1324
  376MOL0     C50654   6.577  12.430  11.876 -0.6981 -0.3623  0.6885
  376MOL0     O50655   6.700  12.415  11.927 -0.0103  0.4236  0.0903
  376MOL0     C50656   6.744  12.497  12.028 -1.5730  0.0352  0.9138
  376MOL0     C50657   6.690  12.614  12.096  0.7656 -0.1362  0.1282
  376MOL0     C50658   6.756  12.688  12.191  1.1459  0.0293 -0.5892
  376MOL0     C50659   6.892  12.660  12.215 -0.2349  0.5488  0.3997
  376MOL0     O50660   6.969  12.725  12.304  0.0734 -0.2245  0.5355
  376MOL0     C50661   6.907  12.774  12.418  0.8419  0.3681 -0.6038
  376MOL0     C50662   7.012  12.831  12.519  0.9095 -0.4076  0.0646
  376MOL0     C50663   7.083  12.733  12.605 -0.4219  0.1350 -0.3626
  376MOL0     C50664   6.998  12.674  12.720 -0.1228 -0.1531 -0.4167
  376MOL0     C50665   7.059  12.550  12.774 -0.4808  0.7753  0.5628
  376MOL0     C50666   6.988  12.496  12.894 -0.1055  0.7220 -0.4649
  376MOL0     C50667   7.059  12.380  12.972  0.1037 -0.5441  0.6836
  376MOL0     C50668   7.155  12.425  13.086  1.3665  1.2506 -0.8587
  376MOL0    Cl50669   7.306  12.495  13.019  0.4991  0.0133  0.1951
  376MOL0     C50670   6.956  12.556  12.141  0.1412  0.4190 -0.0051
  376MOL0     C50671   6.886  12.484  12.052 -0.2542 -0.7725 -0.5789
  376MOL0     O50672   6.497  12.525  11.902 -0.1325 -1.5351 -0.0972
  376MOL0     C50673   6.625  12.251  11.716  0.3378  0.4112  0.3447
  376MOL0     C50674   6.579  12.161  11.618 -0.3957  1.1138  0.0350
  376MOL0     N50675   6.675  11.800  11.046  0.1973 -0.3832  0.2078
  376MOL0     N50676   6.675  11.689  10.995 -0.2345 -0.7105  0.1470
  376MOL0     C50677   6.605  10.971  10.415  0.1156 -0.9739  0.0968
  376MOL0     C50678   6.511  10.878  10.356  1.3565 -0.4416 -0.0176
  376MOL0     C50679   6.437  10.458  10.186 -0.0601  0.1038  0.5551
  376MOL0     C50680   6.331  10.470  10.096  0.1294 -0.1677  0.4402
  376MOL0     C50681   6.274  10.366  10.016 -0.2156  0.3186  0.6959
  376MOL0     C50682   6.340  10.245  10.029 -0.5010  0.5344 -0.4670
  376MOL0     O50683   6.319  10.142   9.947  0.3211  0.1311 -0.2605
  376MOL0     C50684   6.213  10.145   9.853  0.3275  0.2405 -0.1184
  376MOL0     C50685   6.192  10.005   9.795  0.3710 -0.7091 -0.9206
  376MOL0     C50686   6.061   9.985   9.733  1.1924  0.6710  0.0607
  376MOL0     C50687   6.008  10.107   9.654  0.8069 -0.2685  0.1128
  376MOL0     C50688   5.894  10.050   9.590  0.1299 -0.3617  1.0962
  376MOL0     C50689   5.808  10.011   9.523  1.1386  1.0980 -0.5464
  376MOL0     C50690   6.452  10.235  10.106  0.8623  0.7501 -0.6588
  376MOL0     C50691   6.494  10.335  10.191  0.1004  0.3148 -0.5536
  376MOL0     C50692   6.621  10.290  10.271  0.8764 -0.5612  0.4729
  376MOL0     H50693   6.709  10.739  10.125 -1.9302 -0.6149 -1.1960
  376MOL0     H50694   6.861  10.919  10.200 -1.6257 -0.0406 -3.7463
  376MOL0     H50695   6.981  11.044  10.377 -3.5871 -3.2857 -0.5283
  376MOL0     H50696   6.915  11.126  10.239  2.0099 -2.3202  0.6642
  376MOL0     H50697   6.893  11.332  10.369 -1.5453 -0.0548  2.2642
  376MOL0     H50698   7.067  11.274  10.350 -0.9684 -1.2070 -2.5327
  376MOL0     H50699   7.107  11.270  10.584  0.5750 -1.4620  1.5180
  376MOL0     H50700   6.979  11.150  10.580  1.4550 -0.6752 -0.5457
  376MOL0     H50701   7.003  11.444  10.626  1.6472 -0.0401  1.1527
  376MOL0     H50702   6.838  11.369  10.597 -0.4891 -0.4822  1.9178
  376MOL0     H50703   6.855  11.215  10.784 -1.1343  0.9977 -1.6387
  376MOL0     H50704   7.010  11.312  10.824  0.3911  1.1246 -1.4203
  376MOL0     H50705   6.878  11.514  10.853  0.9576 -0.6306 -0.6269
  376MOL0     H50706   6.728  11.422  10.809  1.5104 -2.5603 -3.9409
  376MOL0     H50707   6.881  11.414  11.072 -1.1957 -0.3282  1.7766
  376MOL0     H50708   6.798  11.272  11.034 -1.2326 -0.4886  0.5009
  376MOL0     H50709   6.588  11.433  10.993  0.6381 -1.9087  0.8594
  376MOL0     H50710   6.641  11.408  11.164 -2.1051  2.7835 -0.0801
  376MOL0     H50711   6.691  11.603  11.305  0.4627 -0.5186 -0.3304
  376MOL0     H50712   6.695  11.867  11.381 -1.5374  0.1502 -0.0932
  376MOL0     H50713   6.809  11.928  11.274 -0.2206 -1.0084  1.8127
  376MOL0     H50714   6.614  12.108  11.292 -1.6697 -0.6868  3.3085
  376MOL0     H50715   6.600  12.024  11.134  1.8384  1.6292 -0.6432
  376MOL0     H50716   6.435  11.871  11.233 -1.6993  0.2303  0.9870
  376MOL0     H50717   6.379  12.029  11.237 -0.0937  1.8407  1.4774
  376MOL0     H50718   6.510  11.950  11.496  0.9612  3.6727  1.6409
  376MOL0     H50719   6.337  11.923  11.464  1.3924 -1.1350 -0.3544
  376MOL0     H50720   6.266  12.291  11.569  0.9129  0.2039 -0.9042
  376MOL0     H50721   6.340  12.437  11.753 -0.7999  0.7602  0.7893
  376MOL0     H50722   6.591  12.649  12.071  0.3946 -1.1977  0.0874
  376MOL0     H50723   6.714  12.772  12.246 -1.2556 -2.2237  1.2776
  376MOL0     H50724   6.839  12.853  12.386 -1.0382 -0.1544  1.7549
  376MOL0     H50725   6.849  12.693  12.463 -1.7822  0.3433 -3.7070
  376MOL0     H50726   7.076  12.904  12.469 -0.2608 -0.5340 -1.6646
  376MOL0     H50727   6.956  12.894  12.590 -1.5114 -2.5635  0.1802
  376MOL0     H50728   7.127  12.663  12.532 -1.3054  2.1043 -2.9433
  376MOL0     H50729   7.172  12.778  12.650  1.4737 -1.3279 -2.4130
  376MOL0     H50730   6.895  12.648  12.691 -0.1191  1.1922 -1.7420
  376MOL0     H50731   6.980  12.749  12.798 -1.0791 -0.9897  0.2128
  376MOL0     H50732   7.162  12.580  12.798 -0.5386  3.0385 -1.6103
  376MOL0     H50733   7.056  12.469  12.702  0.7793 -0.0583  1.3923
  376MOL0     H50734   6.964  12.573  12.968 -0.9414 -0.5694  0.6596
  376MOL0     H50735   6.893  12.459  12.853  0.3598  0.3127 -1.2099
  376MOL0     H50736   7.124  12.322  12.906 -0.4794 -4.0370  2.9552
  376MOL0     H50737   6.978  12.319  13.013  1.8021 -1.5605  2.7275
  376MOL0     H50738   7.119  12.497  13.161  0.4695 -2.2445  2.3592
  376MOL0     H50739   7.190  12.334  13.135 -0.5280  1.7696  1.6785
  376MOL0     H50740   7.058  12.529  12.169 -0.1344  0.8226  1.4915
  376MOL0     H50741   6.942  12.405  12.003  4.9719  1.7919  0.4873
  376MOL0     H50742   6.722  12.244  11.765  0.1008 -1.1651  0.6494
  376MOL0     H50743   6.638  12.075  11.590 -0.0815  1.1711  0.5182
  376MOL0     H50744   6.589  11.039  10.499 -1.3823 -0.8724 -0.2402
  376MOL0     H50745   6.407  10.885  10.386  1.3960  1.0039 -0.1634
  376MOL0     H50746   6.292  10.571  10.089  0.3470 -0.0962  0.2830
  376MOL0     H50747   6.190  10.387   9.950 -0.7544 -0.3916  1.1436
  376MOL0     H50748   6.233  10.220   9.776 -0.5909  0.3246 -0.2881
  376MOL0     H50749   6.128  10.170   9.916  1.9315 -2.6423  3.5746
  376MOL0     H50750   6.193   9.940   9.883 -1.4241 -1.8298 -1.6770
  376MOL0     H50751   6.272   9.971   9.728  2.3276 -3.4141  2.4350
  376MOL0     H50752   5.975   9.976   9.800 -1.5467  0.5659 -3.1933
  376MOL0     H50753   6.068   9.895   9.671 -0.0181  1.0572 -0.6634
  376MOL0     H50754   5.969  10.190   9.714  2.6582  4.3443 -4.3499
  376MOL0     H50755   6.074  10.148   9.577 -0.7752  2.6689  0.1910
  376MOL0     H50756   5.728   9.977   9.460  2.4653  0.4136 -1.9456
  376MOL0     H50757   6.505  10.140  10.104  0.1469  0.3420 -0.6790
  376MOL0     H50758   6.692  10.369  10.245  1.3627 -1.1177  0.0922
  376MOL0     H50759   6.599  10.289  10.378 -1.1647 -2.8639  0.1428
  376MOL0     H50760   6.672  10.199  10.237  3.2008  0.6685  0.4772
  377MOL0     O50761  10.497   6.865   1.806 -0.2420  0.6717  0.1592
  377MOL0     C50762  10.432   6.962   1.850 -0.3340 -0.1642 -0.6922
  377MOL0     O50763  10.421   7.080   1.777 -0.5869 -0.3943 -0.5960
  377MOL0     C50764  10.492   7.100   1.662 -0.2427  0.2091 -0.0364
  377MOL0     C50765  10.630   7.082   1.653  0.7511  0.6832 -0.2185
  377MOL0     C50766  10.700   7.138   1.543  0.3586  0.6169 -0.4468
  377MOL0     C50767  10.639   7.202   1.430 -1.3757 -0.2407 -0.0588
  377MOL0     O50768  10.727   7.250   1.342 -0.4375 -0.0937 -0.0067
  377MOL0     C50769  10.677   7.347   1.242 -1.1377 -0.0927  0.7156
  377MOL0     C50770  10.791   7.381   1.137 -0.2658  0.7985 -0.2506
  377MOL0     C50771  10.896   7.267   1.111  0.2107 -0.8544 -0.4936
  377MOL0     C50772  10.850   7.186   0.995  0.8652 -0.1769 -0.1822
  377MOL0     C50773  10.934   7.063   0.962  1.2944  0.2117 -0.2267
  377MOL0     C50774  10.854   6.990   0.846  1.8677 -1.6500  0.2732
  377MOL0     C50775  10.928   6.866   0.816  0.1268  0.4382  0.0139
  377MOL0     C50776  11.045   6.880   0.724  0.2707  0.6784 -0.5660
  377MOL0     N50777  11.030   6.944   0.592  0.8145 -0.2985 -0.3344
  377MOL0     C50778  11.003   6.884   0.474 -0.4998 -0.1406  0.1954
  377MOL0     C50779  11.032   6.982   0.386  0.2802 -0.1428 -0.8203
  377MOL0     C50780  11.010   6.962   0.236 -0.7373 -0.1661  0.2670
  377MOL0     C50781  10.874   7.000   0.180 -0.4243 -1.6543 -0.3295
  377MOL0     C50782  10.854   7.146   0.174  1.1170  0.1935  0.2295
  377MOL0     C50783  10.713   7.173   0.116  0.0573  0.8510 -0.4766
  377MOL0     O50784  10.615   7.156   0.223  0.0138 -0.2608 -0.3541
  377MOL0     C50785  10.477   7.150   0.203  0.2596 -0.2620  0.2404
  377MOL0     C50786  10.412   7.032   0.245  0.2114 -0.3351 -1.0619
  377MOL0     C50787  10.273   7.028   0.239  0.3122 -0.3945  0.0364
  377MOL0     C50788  10.201   7.132   0.174  0.6271 -0.6687  0.3800
  377MOL0     C50789  10.064   7.127   0.164  0.8647 -0.5112  0.3730
  377MOL0     O50790   9.996   7.195   0.067  1.3128 -0.2386  0.4747
  377MOL0     C50791   9.854   7.178   0.073 -0.7206 -0.4967 -0.5120
  377MOL0     C50792   9.794   7.105  -0.027  0.3911 -1.8449  0.1657
  377MOL0     C50793   9.655   7.082  -0.023  0.1989 -0.8877  0.2833
  377MOL0     C50794   9.576   7.137   0.079  0.0607  0.0234 -0.2986
  377MOL0     O50795   9.449   7.107   0.066 -0.3509 -0.2315 -0.0995
  377MOL0     C50796   9.361   7.091   0.177  1.0782  0.1823  0.6648
  377MOL0     C50797   9.242   7.195   0.181 -0.1442 -0.6915  0.0342
  377MOL0     C50798   9.112   7.153   0.238  0.3271  0.1703  0.4744
  377MOL0     C50799   9.024   7.281   0.238  0.2278  0.1810 -0.2376
  377MOL0     C50800   8.889   7.239   0.309 -0.9848  0.0037 -0.7595
  377MOL0     C50801   8.776   7.351   0.287 -0.9419  1.0134  0.2282
  377MOL0     C50802   8.646   7.309   0.358  0.4132 -0.1872  0.1278
  377MOL0     C50803   8.523   7.378   0.308 -0.3733  0.1669  1.1126
  377MOL0    Cl50804   8.501   7.367   0.131 -0.1443  0.1288 -0.0302
  377MOL0     C50805   9.634   7.205   0.186 -0.5676  0.6416  0.3408
  377MOL0     C50806   9.771   7.233   0.176  0.0538 -0.4405  0.6142
  377MOL0     O50807  10.012   7.084   0.271  0.5434 -0.0604  0.5288
  377MOL0     C50808  10.267   7.243   0.125  0.0625 -0.2960  0.2124
  377MOL0     C50809  10.406   7.260   0.151 -0.5410 -0.1132  0.2336
  377MOL0     N50810  11.085   7.100   0.442  0.5602  0.2256 -0.4569
  377MOL0     N50811  11.079   7.071   0.570  0.1568  0.2485  0.0798
  377MOL0     C50812  10.501   7.230   1.444  0.2017 -1.0060  0.5106
  377MOL0     C50813  10.433   7.187   1.560  0.4008 -0.8961 -0.7625
  377MOL0     C50814  10.369   6.966   1.986 -0.3790 -0.0260  0.3912
  377MOL0     C50815  10.336   7.096   2.039  0.7494  0.3106  0.7199
  377MOL0     C50816  10.259   7.096   2.159 -0.2586 -0.4851 -0.1865
  377MOL0     C50817  10.239   6.988   2.238  0.3264  0.7093  0.2460
  377MOL0     O50818  10.184   6.982   2.365  0.5285 -0.0339  0.3531
  377MOL0     C50819  10.165   7.110   2.426 -0.2120 -0.6787  0.3611
  377MOL0     C50820  10.133   7.128   2.575 -0.0497 -0.1947 -0.1744
  377MOL0     C50821  10.052   7.255   2.603 -1.1967  0.7972 -0.4149
  377MOL0     C50822  10.136   7.374   2.552  0.2029 -1.1434  0.2807
  377MOL0     C50823  10.105   7.500   2.622 -0.1428  0.5598 -0.2480
  377MOL0     C50824  10.098   7.613   2.665 -0.2648 -0.1052 -0.9059
  377MOL0     C50825  10.272   6.867   2.185  0.3516 -0.4121 -0.1169
  377MOL0     C50826  10.340   6.849   2.063 -0.2709  0.5490  0.2893
  377MOL0     C50827  10.371   6.708   2.022  0.1679 -0.4031  0.9670
  377MOL0     H50828  10.672   7.027   1.737  0.9287  2.5258  0.9716
  377MOL0     H50829  10.806   7.121   1.535  0.1265 -1.5972  0.5459
  377MOL0     H50830  10.585   7.304   1.202 -1.3091  0.1389  0.8582
  377MOL0     H50831  10.635   7.438   1.285 -0.2991  1.1560 -0.9743
  377MOL0     H50832  10.849   7.460   1.185  1.7667 -1.3208  0.9753
  377MOL0     H50833  10.759   7.431   1.046 -1.8741  2.0223  0.9214
  377MOL0     H50834  10.917   7.202   1.197  2.8406 -1.3086 -1.3916
  377MOL0     H50835  10.982   7.324   1.076 -1.2772  1.6705 -0.3171
  377MOL0     H50836  10.751   7.155   1.029  1.1465 -0.9403 -0.0358
  377MOL0     H50837  10.829   7.251   0.910 -1.8357 -2.6456 -1.5942
  377MOL0     H50838  11.035   7.090   0.929  1.3111  1.2571  0.6179
  377MOL0     H50839  10.941   7.006   1.056  1.5485  0.4398 -0.1061
  377MOL0     H50840  10.749   6.970   0.868  0.7839  0.4490 -2.4052
  377MOL0     H50841  10.837   7.063   0.766 -0.8910 -0.3330  1.9190
  377MOL0     H50842  10.859   6.802   0.761  0.9565 -2.2057  1.8415
  377MOL0     H50843  10.961   6.816   0.908  2.2496 -0.8407 -1.3728
  377MOL0     H50844  11.122   6.932   0.781  0.0087 -1.1426  1.6044
  377MOL0     H50845  11.091   6.781   0.714  0.3290  0.5390  0.9762
  377MOL0     H50846  10.977   6.780   0.454 -1.5051  0.7431 -4.0080
  377MOL0     H50847  11.088   7.019   0.184 -1.7993 -1.2818 -2.8391
  377MOL0     H50848  11.040   6.862   0.201 -0.9952  0.4469 -1.8321
  377MOL0     H50849  10.861   6.945   0.087  0.7351 -0.9141 -0.9561
  377MOL0     H50850  10.805   6.968   0.259 -0.8839  2.6722  1.3098
  377MOL0     H50851  10.925   7.183   0.100 -1.1455 -1.2840 -2.8797
  377MOL0     H50852  10.867   7.199   0.269  0.7323  0.7902 -0.0460
  377MOL0     H50853  10.695   7.107   0.030  1.7057  0.3670 -0.4714
  377MOL0     H50854  10.697   7.278   0.087  1.5884  1.4058  0.5481
  377MOL0     H50855  10.484   6.957   0.275  1.4607  0.3002 -2.3021
  377MOL0     H50856  10.226   6.953   0.302 -1.1482  0.8447  0.4904
  377MOL0     H50857   9.833   7.078  -0.125 -0.8227 -1.7645 -0.3600
  377MOL0     H50858   9.613   7.028  -0.107 -0.4045  3.0245 -2.1738
  377MOL0     H50859   9.312   6.993   0.168  1.3144 -0.0087  1.3871
  377MOL0     H50860   9.414   7.099   0.272  0.7959  1.4087  0.7311
  377MOL0     H50861   9.281   7.288   0.224 -1.5880  0.9089 -1.9139
  377MOL0     H50862   9.226   7.219   0.075 -0.7680 -0.8332  0.0938
  377MOL0     H50863   9.074   7.080   0.166  0.3597  0.7237 -0.1102
  377MOL0     H50864   9.136   7.111   0.336 -2.9895  3.4762  2.9577
  377MOL0     H50865   9.011   7.294   0.130  0.7829 -1.9903 -0.6220
  377MOL0     H50866   9.070   7.358   0.300  0.6466  0.0570 -0.3871
  377MOL0     H50867   8.913   7.228   0.415 -2.9769 -2.0947 -0.4353
  377MOL0     H50868   8.846   7.146   0.269 -3.6597 -0.0520  1.8798
  377MOL0     H50869   8.804   7.445   0.336 -2.2021  0.5119  2.0067
  377MOL0     H50870   8.762   7.368   0.180 -1.1589 -2.8870 -0.5134
  377MOL0     H50871   8.655   7.326   0.466 -0.0901  3.1146 -0.2482
  377MOL0     H50872   8.637   7.204   0.331  3.1562  0.0331 -2.0069
  377MOL0     H50873   8.437   7.351   0.370 -0.0728  1.8066  2.3269
  377MOL0     H50874   8.537   7.484   0.330 -0.8996  1.1244 -2.4067
  377MOL0     H50875   9.573   7.250   0.263 -3.3490  0.8088 -1.8119
  377MOL0     H50876   9.834   7.276   0.253  1.5260 -1.0249 -0.2106
  377MOL0     H50877  10.209   7.313   0.065 -2.1784 -1.1303  1.2652
  377MOL0     H50878  10.451   7.358   0.137 -0.2467 -0.1757  0.7200
  377MOL0     H50879  10.456   7.307   1.382 -2.0162 -1.1163  1.8819
  377MOL0     H50880  10.336   7.234   1.575  0.4411 -1.2632  0.7862
  377MOL0     H50881  10.345   7.187   1.980  2.9944  1.7580  3.0810
  377MOL0     H50882  10.218   7.193   2.187 -1.1800  0.1329 -3.2809
  377MOL0     H50883  10.091   7.155   2.360  0.5701 -2.8628 -2.1902
  377MOL0     H50884  10.251   7.176   2.410 -0.7668  0.6190  2.4033
  377MOL0     H50885  10.231   7.129   2.624  0.6117 -1.0465 -1.4259
  377MOL0     H50886  10.080   7.038   2.608  0.7905 -0.0831  1.5994
  377MOL0     H50887  10.049   7.268   2.711  0.1861  0.3469 -0.3053
  377MOL0     H50888   9.958   7.248   2.548 -1.2647  2.5672 -0.5875
  377MOL0     H50889  10.245   7.366   2.562  0.8971  2.4240 -2.3782
  377MOL0     H50890  10.116   7.388   2.446  1.7896 -0.2911  0.0503
  377MOL0     H50891  10.108   7.705   2.719  0.1565 -1.3567  1.3017
  377MOL0     H50892  10.257   6.780   2.248 -1.2446 -2.6942 -3.3321
  377MOL0     H50893  10.480   6.711   2.011  0.3725  3.3924  2.4074
  377MOL0     H50894  10.351   6.627   2.093 -1.1989 -1.0257 -0.0847
  377MOL0     H50895  10.327   6.669   1.930  3.1815 -4.0545  0.8044
  378MOL0     O50896  10.848   7.501   7.200  0.2539 -0.0799  0.5997
  378MOL0     C50897  10.882   7.512   7.312 -0.0108 -0.4059 -0.6613
  378MOL0     O50898  10.800   7.532   7.421 -0.5335  0.0435  0.0474
  378MOL0     C50899  10.671   7.537   7.391  0.7081  1.2304 -0.1699
  378MOL0     C50900  10.597   7.651   7.341 -0.0568  0.8018  0.0556
  378MOL0     C50901  10.464   7.637   7.313 -0.2676 -0.8916 -0.5959
  378MOL0     C50902  10.386   7.517   7.339 -0.2957 -0.3789  0.4606
  378MOL0     O50903  10.253   7.513   7.298 -0.4554  0.0979 -0.3859
  378MOL0     C50904  10.175   7.410   7.348 -0.4368 -0.5158 -0.2236
  378MOL0     C50905  10.043   7.431   7.273  0.4818 -0.4622 -0.8393
  378MOL0     C50906   9.949   7.529   7.344 -0.1415 -0.4590  0.7170
  378MOL0     C50907  10.005   7.669   7.381 -1.0797 -0.4351 -0.2657
  378MOL0     C50908   9.926   7.747   7.485 -1.0162 -0.2730 -0.2922
  378MOL0     C50909   9.892   7.893   7.446 -0.0593  0.3309 -0.7464
  378MOL0     C50910   9.802   7.882   7.329 -0.1478 -0.1920  0.5677
  378MOL0     C50911   9.743   8.023   7.290  0.1966  1.0964  0.0836
  378MOL0     N50912   9.687   8.100   7.401  0.1065  0.0844 -0.3864
  378MOL0     C50913   9.616   8.048   7.506  0.6673  0.0855  0.0977
  378MOL0     C50914   9.557   8.155   7.569  0.1658  0.6127 -0.5477
  378MOL0     C50915   9.439   8.150   7.665  0.7770  0.3820  0.0441
  378MOL0     C50916   9.301   8.178   7.589 -0.7937 -0.1744 -0.0954
  378MOL0     C50917   9.242   8.061   7.519  0.2316  0.1630  0.2716
  378MOL0     C50918   9.129   8.110   7.423  0.1331 -0.9356 -0.2755
  378MOL0     O50919   9.102   8.012   7.317  0.0624  0.3616 -0.4698
  378MOL0     C50920   9.190   7.982   7.218  0.6963  0.5736  0.6066
  378MOL0     C50921   9.311   8.047   7.195 -0.0385 -0.6215 -0.3741
  378MOL0     C50922   9.401   8.011   7.091  0.3324 -0.6454 -0.3146
  378MOL0     C50923   9.361   7.909   7.000  0.6497  0.3266  0.2454
  378MOL0     C50924   9.438   7.863   6.887  0.4989 -0.9585  1.1136
  378MOL0     O50925   9.559   7.925   6.862 -0.1139  0.2215 -0.3567
  378MOL0     C50926   9.653   7.874   6.776  0.2836  0.6635  0.9946
  378MOL0     C50927   9.688   7.740   6.777  0.7437  0.4059  0.2461
  378MOL0     C50928   9.784   7.693   6.689  0.3480  0.1746 -0.0789
  378MOL0     C50929   9.848   7.771   6.600  0.5236 -0.3191 -0.3247
  378MOL0     O50930   9.945   7.710   6.515  0.5772 -0.4901 -1.0912
  378MOL0     C50931   9.984   7.784   6.396 -0.0315  0.4114  0.3551
  378MOL0     C50932  10.084   7.687   6.319 -0.1299 -0.2268 -0.3952
  378MOL0     C50933  10.209   7.637   6.400  0.4523 -0.2893 -0.4624
  378MOL0     C50934  10.299   7.564   6.306 -0.1370 -0.0048  0.5084
  378MOL0     C50935  10.443   7.554   6.350 -0.1655 -1.1492  0.6168
  378MOL0     C50936  10.518   7.471   6.240  0.5764  0.1645 -0.2303
  378MOL0     C50937  10.608   7.364   6.304  0.2384  0.1905 -0.6412
  378MOL0     C50938  10.537   7.224   6.294  0.3643 -0.4502 -0.9383
  378MOL0    Cl50939  10.622   7.082   6.373 -0.1936  0.1564  0.1657
  378MOL0     C50940   9.817   7.908   6.605 -0.5919  0.1213  0.7339
  378MOL0     C50941   9.711   7.959   6.685 -0.1112  0.1682 -0.5859
  378MOL0     O50942   9.389   7.783   6.820 -0.4337 -0.0740  0.1663
  378MOL0     C50943   9.231   7.850   7.021 -0.1792  1.1326 -0.3965
  378MOL0     C50944   9.148   7.888   7.134 -0.7886  0.2954  0.6421
  378MOL0     N50945   9.613   8.266   7.510 -0.2564  0.5490  0.3268
  378MOL0     N50946   9.682   8.233   7.406  0.0291 -0.1964 -1.6097
  378MOL0     C50947  10.463   7.407   7.388 -0.6607 -0.4808 -0.2221
  378MOL0     C50948  10.597   7.412   7.418 -0.2095  0.1122  0.0509
  378MOL0     C50949  11.031   7.500   7.328  0.4055  0.6738  0.2772
  378MOL0     C50950  11.110   7.426   7.232  0.4120  0.3547  0.3389
  378MOL0     C50951  11.241   7.429   7.239 -0.0467 -1.1749  0.7151
  378MOL0     C50952  11.302   7.507   7.338  0.0040  0.6267  0.5498
  378MOL0     O50953  11.436   7.500   7.355 -0.8582  0.0094 -0.3608
  378MOL0     C50954  11.501   7.621   7.329  0.3345  0.6526 -0.9116
  378MOL0     C50955  11.632   7.580   7.266 -0.0818  0.3488 -0.5203
  378MOL0     C50956  11.691   7.705   7.199  0.5541  0.3741  0.1707
  378MOL0     C50957  11.835   7.680   7.175  0.8003  0.3024 -0.3172
  378MOL0     C50958  11.910   7.692   7.297 -0.8386  0.1130 -0.2537
  378MOL0     C50959  11.983   7.678   7.393  0.0363 -0.2547 -0.2656
  378MOL0     C50960  11.234   7.567   7.441 -0.3961  0.5232 -0.4136
  378MOL0     C50961  11.098   7.565   7.442  0.0059  0.3695  0.3389
  378MOL0     C50962  11.027   7.640   7.551 -0.3092 -0.7060 -0.2083
  378MOL0     H50963  10.644   7.743   7.306 -5.8271  3.1198 -2.9731
  378MOL0     H50964  10.411   7.731   7.300 -0.6973 -0.6700  2.0572
  378MOL0     H50965  10.232   7.317   7.337  2.0016  0.6596  1.5593
  378MOL0     H50966  10.158   7.423   7.455  2.6432 -1.2200  0.4564
  378MOL0     H50967   9.996   7.333   7.278  0.5950 -0.4931 -0.2630
  378MOL0     H50968  10.068   7.457   7.170  3.2724 -1.7463 -0.5985
  378MOL0     H50969   9.921   7.479   7.438 -0.7700 -0.6834  0.4207
  378MOL0     H50970   9.862   7.544   7.280  2.1502  1.1845 -2.2302
  378MOL0     H50971  10.099   7.650   7.433 -0.8754  0.6964 -0.2069
  378MOL0     H50972  10.034   7.727   7.293  2.2416  3.0910  2.8346
  378MOL0     H50973   9.841   7.692   7.526  0.9553  0.5509  6.0810
  378MOL0     H50974   9.999   7.751   7.567 -1.3042 -1.7176  0.0634
  378MOL0     H50975   9.843   7.951   7.524 -0.2290  0.8235 -1.2057
  378MOL0     H50976   9.980   7.948   7.410  0.6540  0.7607  1.5331
  378MOL0     H50977   9.722   7.811   7.351 -1.7214  1.5815  0.7461
  378MOL0     H50978   9.856   7.860   7.236 -0.7903 -0.0838  0.1677
  378MOL0     H50979   9.831   8.080   7.261  2.5499 -2.2797  0.0568
  378MOL0     H50980   9.668   8.016   7.210  1.1033  1.3759 -0.8170
  378MOL0     H50981   9.593   7.943   7.524  0.1373 -0.2927 -2.3359
  378MOL0     H50982   9.429   8.050   7.708 -1.6683 -0.4361 -2.1870
  378MOL0     H50983   9.436   8.218   7.750 -0.0694  0.6756 -0.2170
  378MOL0     H50984   9.228   8.217   7.660  0.1576  0.2829  0.6597
  378MOL0     H50985   9.327   8.259   7.520  0.6615 -1.7490 -1.4834
  378MOL0     H50986   9.184   7.999   7.589 -3.2282 -2.8129 -4.6122
  378MOL0     H50987   9.309   7.998   7.460 -0.6113  1.9902 -2.8361
  378MOL0     H50988   9.155   8.204   7.372 -0.4995  0.4057  1.7671
  378MOL0     H50989   9.042   8.140   7.482 -0.5936  0.2493 -1.8823
  378MOL0     H50990   9.339   8.128   7.262 -1.6700 -0.9209  0.7337
  378MOL0     H50991   9.501   8.050   7.077  0.6417 -2.0470 -2.4200
  378MOL0     H50992   9.648   7.667   6.847 -1.1371  0.8727 -0.2937
  378MOL0     H50993   9.805   7.587   6.702 -2.4115 -0.6493 -1.6801
  378MOL0     H50994   9.899   7.802   6.329  0.9885  0.3433 -1.0165
  378MOL0     H50995  10.045   7.874   6.410  1.5210 -0.4659 -0.4076
  378MOL0     H50996  10.038   7.593   6.288  2.3700 -1.7762  0.2650
  378MOL0     H50997  10.126   7.738   6.232 -0.4993  1.1668  0.2199
  378MOL0     H50998  10.260   7.716   6.455 -5.3399  3.1308  0.8526
  378MOL0     H50999  10.164   7.573   6.477  2.5766 -2.0402 -0.5721
  378MOL0     H51000  10.306   7.603   6.205  0.3519 -0.8333  0.2114
  378MOL0     H51001  10.262   7.461   6.294 -1.8105  0.5974  0.2985
  378MOL0     H51002  10.448   7.509   6.450  2.1292 -4.1332 -0.6851
  378MOL0     H51003  10.478   7.657   6.344  0.8703 -1.5428 -0.7184
  378MOL0     H51004  10.442   7.439   6.168 -0.6477  2.3474 -0.0044
  378MOL0     H51005  10.575   7.535   6.173 -0.2965  0.5273 -0.6493
  378MOL0     H51006  10.618   7.385   6.411 -0.7270  1.1154 -0.7185
  378MOL0     H51007  10.708   7.363   6.259  2.0532  0.4957  3.0429
  378MOL0     H51008  10.433   7.227   6.328  0.5321  0.2937 -0.4763
  378MOL0     H51009  10.548   7.195   6.189  1.1536  0.4143 -1.1048
  378MOL0     H51010   9.874   7.970   6.536 -1.5314 -0.3781 -0.5192
  378MOL0     H51011   9.672   8.061   6.689 -1.0865 -0.1652  4.1501
  378MOL0     H51012   9.187   7.775   6.957 -1.2904 -0.0120  1.5929
  378MOL0     H51013   9.052   7.841   7.155 -0.3373 -0.6799  0.5495
  378MOL0     H51014  10.412   7.318   7.424 -0.6209 -0.2125  0.5027
  378MOL0     H51015  10.650   7.323   7.448  2.4548  2.6895  3.7870
  378MOL0     H51016  11.056   7.368   7.158  1.5139  1.2038 -1.1913
  378MOL0     H51017  11.292   7.368   7.165  0.7864 -1.7800  1.7515
  378MOL0     H51018  11.521   7.682   7.417 -1.1960  1.0744 -0.8326
  378MOL0     H51019  11.434   7.673   7.260 -2.4476 -1.1576  0.2649
  378MOL0     H51020  11.616   7.501   7.193  3.4679  0.7007 -1.9072
  378MOL0     H51021  11.694   7.541   7.347 -2.2075  1.3678  1.7401
  378MOL0     H51022  11.686   7.794   7.263  1.1008  2.0703 -2.0530
  378MOL0     H51023  11.626   7.712   7.112 -2.6666 -1.9077  2.1715
  378MOL0     H51024  11.857   7.575   7.157  2.8939 -0.0968  3.5358
  378MOL0     H51025  11.887   7.736   7.096  0.5520 -0.8153 -1.3038
  378MOL0     H51026  12.035   7.669   7.487  0.3863  2.8425 -0.0742
  378MOL0     H51027  11.277   7.617   7.527  1.2796 -4.5534  2.0487
  378MOL0     H51028  10.971   7.572   7.614  3.0048 -5.6118 -1.9176
  378MOL0     H51029  11.101   7.688   7.615  0.0900 -0.3086 -0.9497
  378MOL0     H51030  10.963   7.705   7.491 -1.6202  0.6458  2.5334
  379MOL0     O51031   0.667   8.329   6.547 -0.3140 -0.5014  0.3941
  379MOL0     C51032   0.767   8.274   6.501  0.5062 -0.1831  0.5554
  379MOL0     O51033   0.777   8.138   6.461  0.4127 -0.1774  0.3526
  379MOL0     C51034   0.662   8.073   6.413 -1.1956 -0.2033 -0.2877
  379MOL0     C51035   0.565   8.146   6.347  0.7267 -0.1290 -0.6367
  379MOL0     C51036   0.445   8.084   6.304 -0.1066  1.1945 -0.6405
  379MOL0     C51037   0.431   7.945   6.334  0.7546 -0.7390 -0.7597
  379MOL0     O51038   0.319   7.868   6.308 -0.4802  0.2130  0.5449
  379MOL0     C51039   0.239   7.919   6.195  0.5199  0.0249 -0.3611
  379MOL0     C51040   0.168   7.809   6.126 -0.1499 -0.1914  0.2452
  379MOL0     C51041   0.037   7.859   6.067  0.1438 -0.3224 -0.4854
  379MOL0     C51042  -0.027   7.739   5.995 -0.9862 -0.3274 -0.0781
  379MOL0     C51043  -0.142   7.782   5.925 -0.9129  0.5554 -0.3163
  379MOL0     C51044  -0.213   7.664   5.861  0.1957  1.4871  0.4761
  379MOL0     C51045  -0.120   7.579   5.773  0.1499  0.3401  0.4156
  379MOL0     C51046  -0.211   7.492   5.675  0.1391 -1.2620  0.8046
  379MOL0     N51047  -0.128   7.447   5.562  0.0552  0.8364 -0.7732
  379MOL0     C51048  -0.099   7.513   5.449  0.6033 -0.9285  0.1825
  379MOL0     C51049  -0.069   7.420   5.350 -0.2672  0.4842 -0.1747
  379MOL0     C51050  -0.052   7.447   5.204  0.2053  0.4987  0.2462
  379MOL0     C51051  -0.139   7.363   5.105  0.0361 -0.3620  0.7800
  379MOL0     C51052  -0.280   7.432   5.104  0.7023 -0.4100  0.9403
  379MOL0     C51053  -0.391   7.327   5.075 -0.2698  0.9344  0.2137
  379MOL0     O51054  -0.371   7.252   4.951 -0.2857 -0.0105  0.5304
  379MOL0     C51055  -0.435   7.313   4.847  0.6326  0.1098 -1.0549
  379MOL0     C51056  -0.546   7.249   4.796  1.0616 -0.0733 -0.3033
  379MOL0     C51057  -0.626   7.307   4.700 -0.0187  0.0063  0.0523
  379MOL0     C51058  -0.580   7.423   4.630 -0.3948 -0.6233 -0.1229
  379MOL0     C51059  -0.664   7.500   4.533  0.4138  1.3379 -0.5752
  379MOL0     O51060  -0.742   7.425   4.451 -0.5085  0.2123  0.3240
  379MOL0     C51061  -0.873   7.464   4.445 -0.4437  0.1894  0.1417
  379MOL0     C51062  -0.947   7.480   4.557 -0.6061 -0.6789 -0.5230
  379MOL0     C51063  -1.086   7.500   4.556  0.5435 -0.0429 -0.9532
  379MOL0     C51064  -1.151   7.478   4.442  0.4235  0.4858  0.2551
  379MOL0     O51065  -1.292   7.477   4.449 -0.0200 -0.4029  0.3585
  379MOL0     C51066  -1.346   7.597   4.392  0.4765  0.3271 -0.4287
  379MOL0     C51067  -1.496   7.605   4.419  0.0535  0.3067 -0.0763
  379MOL0     C51068  -1.555   7.743   4.386  0.4852  0.0711  0.3029
  379MOL0     C51069  -1.572   7.745   4.232  0.2421  1.1453 -0.4071
  379MOL0     C51070  -1.649   7.873   4.189  0.3181 -0.5057  0.1139
  379MOL0     C51071  -1.649   7.875   4.033  0.3271 -0.0484 -0.1761
  379MOL0     C51072  -1.689   8.014   3.979 -0.3076 -1.0652  0.5789
  379MOL0     C51073  -1.621   8.043   3.844  0.2116  0.1190 -0.5050
  379MOL0    Cl51074  -1.665   7.931   3.702 -0.0812 -0.1176  0.2095
  379MOL0     C51075  -1.085   7.449   4.326 -0.4228 -0.3560 -0.0469
  379MOL0     C51076  -0.939   7.441   4.324  0.8175 -0.2292 -0.4067
  379MOL0     O51077  -0.672   7.620   4.542  0.8274 -0.1318  0.9596
  379MOL0     C51078  -0.453   7.473   4.672  0.3574 -0.9492  0.1869
  379MOL0     C51079  -0.382   7.421   4.780  0.3497 -0.2052 -0.1598
  379MOL0     N51080  -0.076   7.289   5.411 -0.6017  0.2426  0.5016
  379MOL0     N51081  -0.127   7.312   5.526  0.2552 -0.7978 -0.0301
  379MOL0     C51082   0.525   7.874   6.400  0.2251 -0.1277  0.3384
  379MOL0     C51083   0.642   7.945   6.430  0.7283 -0.7613  0.5280
  379MOL0     C51084   0.883   8.362   6.478 -0.9886  0.8823 -0.7978
  379MOL0     C51085   0.936   8.377   6.349 -0.9036  0.7164 -1.0799
  379MOL0     C51086   1.047   8.461   6.326  0.3545 -0.2357 -0.0904
  379MOL0     C51087   1.106   8.537   6.427  0.5307  1.2192  0.3182
  379MOL0     O51088   1.213   8.609   6.391 -0.1510 -0.8711 -0.2338
  379MOL0     C51089   1.253   8.727   6.459  0.5408 -0.3296  0.0629
  379MOL0     C51090   1.390   8.771   6.431 -0.8773 -0.0839  0.1995
  379MOL0     C51091   1.438   8.875   6.528  0.3809 -0.5156 -0.3874
  379MOL0     C51092   1.484   8.805   6.660  0.0798 -0.0573  0.7094
  379MOL0     C51093   1.540   8.915   6.735  0.2844  0.5848  0.2311
  379MOL0     C51094   1.565   9.010   6.806 -0.8768 -1.5997  0.2139
  379MOL0     C51095   1.045   8.530   6.556 -0.0873  0.3063 -0.4096
  379MOL0     C51096   0.933   8.444   6.585  0.2331  0.4457  0.5241
  379MOL0     C51097   0.874   8.437   6.725 -0.2028  0.2683 -0.6410
  379MOL0     H51098   0.575   8.254   6.337 -3.1594  1.0801  4.3521
  379MOL0     H51099   0.382   8.155   6.250  3.2753  4.5013 -0.6839
  379MOL0     H51100   0.166   7.989   6.236 -1.0627 -2.2271  0.9205
  379MOL0     H51101   0.302   7.972   6.123  0.6467  1.5813  0.8449
  379MOL0     H51102   0.141   7.721   6.185 -0.6844 -1.2481 -1.4720
  379MOL0     H51103   0.236   7.757   6.057  1.3704  1.7914  0.1666
  379MOL0     H51104   0.041   7.943   5.997  0.0096 -0.0644 -0.1862
  379MOL0     H51105  -0.023   7.899   6.149  1.8615 -2.8590  2.2142
  379MOL0     H51106   0.049   7.707   5.923  2.1429  0.7550  2.4644
  379MOL0     H51107  -0.050   7.660   6.067  1.3954 -0.5520  0.5299
  379MOL0     H51108  -0.214   7.821   5.997 -1.8834 -3.3982  1.0898
  379MOL0     H51109  -0.116   7.861   5.854 -0.3527  0.1129 -0.6172
  379MOL0     H51110  -0.258   7.599   5.937 -1.3846  0.7052 -1.0671
  379MOL0     H51111  -0.299   7.703   5.805  1.3804  2.4215 -0.7704
  379MOL0     H51112  -0.064   7.497   5.820 -1.6610 -1.4584 -0.3826
  379MOL0     H51113  -0.057   7.637   5.705 -2.6114 -0.2533 -2.9832
  379MOL0     H51114  -0.267   7.419   5.734 -3.4268  2.3036  2.3430
  379MOL0     H51115  -0.289   7.550   5.625  0.5119 -2.9354 -1.9425
  379MOL0     H51116  -0.130   7.614   5.423  0.6929 -0.8775  0.2711
  379MOL0     H51117  -0.042   7.552   5.178  3.1739  0.0876 -0.5763
  379MOL0     H51118   0.047   7.402   5.188  0.8651  2.3935 -1.4201
  379MOL0     H51119  -0.103   7.373   5.002 -2.9898 -3.2366 -0.7637
  379MOL0     H51120  -0.131   7.258   5.134 -1.6128 -0.7594 -0.1027
  379MOL0     H51121  -0.286   7.519   5.038  0.2890 -1.6738 -0.7321
  379MOL0     H51122  -0.291   7.476   5.204  0.6939  1.1429  0.2882
  379MOL0     H51123  -0.493   7.357   5.100 -0.3947 -1.3069  2.9146
  379MOL0     H51124  -0.371   7.258   5.158 -2.8709  2.9061  2.6884
  379MOL0     H51125  -0.585   7.163   4.849 -0.4678 -1.4489 -3.4255
  379MOL0     H51126  -0.725   7.267   4.680 -0.3541  0.0717  1.4456
  379MOL0     H51127  -0.893   7.499   4.649 -0.4396 -1.0224 -0.5485
  379MOL0     H51128  -1.133   7.511   4.653  0.3703 -0.7430 -0.9582
  379MOL0     H51129  -1.310   7.686   4.444 -0.1297  0.2379  0.1561
  379MOL0     H51130  -1.328   7.603   4.284 -1.1652 -2.7476 -0.9774
  379MOL0     H51131  -1.548   7.531   4.358 -1.6034  2.9634 -2.1163
  379MOL0     H51132  -1.527   7.581   4.521 -1.5368  0.1172 -0.5778
  379MOL0     H51133  -1.654   7.736   4.432  1.2178 -0.8840  1.7969
  379MOL0     H51134  -1.500   7.830   4.420 -2.4497  2.1706  0.1059
  379MOL0     H51135  -1.610   7.652   4.187  0.2047  0.9054  0.1183
  379MOL0     H51136  -1.472   7.755   4.188  1.2634  2.8532  2.0950
  379MOL0     H51137  -1.610   7.971   4.218 -0.4598 -0.5489  1.3874
  379MOL0     H51138  -1.754   7.874   4.219  0.3866  1.9489  0.4783
  379MOL0     H51139  -1.543   7.866   4.009  0.2415 -0.1940 -0.5039
  379MOL0     H51140  -1.722   7.809   3.985 -0.7972  0.9845  0.0323
  379MOL0     H51141  -1.663   8.094   4.049 -3.2586 -1.7020  2.6090
  379MOL0     H51142  -1.797   8.021   3.963 -0.3837 -0.8908  1.1558
  379MOL0     H51143  -1.676   8.136   3.830  0.0147  0.2132  0.7906
  379MOL0     H51144  -1.515   8.055   3.871 -0.1595 -1.4450  1.9622
  379MOL0     H51145  -1.115   7.434   4.223 -0.1236  1.7338 -0.4741
  379MOL0     H51146  -0.893   7.394   4.238  0.5795  0.1587 -0.7521
  379MOL0     H51147  -0.417   7.562   4.620 -1.9837 -1.1047 -1.9303
  379MOL0     H51148  -0.287   7.459   4.816 -0.1542  0.6905  0.2645
  379MOL0     H51149   0.509   7.766   6.400  2.2030 -0.4549 -0.2070
  379MOL0     H51150   0.714   7.891   6.490 -0.3930 -0.8618  1.8261
  379MOL0     H51151   0.891   8.323   6.266 -3.0052 -0.0253  0.4451
  379MOL0     H51152   1.072   8.475   6.221  2.2230  0.8963  0.4522
  379MOL0     H51153   1.248   8.716   6.568  1.6443  3.3092  0.6012
  379MOL0     H51154   1.176   8.804   6.446  1.8563  0.6178 -2.9631
  379MOL0     H51155   1.393   8.815   6.331  1.2128 -0.5973 -0.0191
  379MOL0     H51156   1.457   8.686   6.448  1.4761  1.5605 -0.2966
  379MOL0     H51157   1.360   8.949   6.548 -0.4159 -1.2503 -0.6612
  379MOL0     H51158   1.522   8.930   6.484  0.3898  0.1937  0.5047
  379MOL0     H51159   1.399   8.766   6.716 -1.0774  1.4783  0.0940
  379MOL0     H51160   1.563   8.736   6.630  0.2770 -0.1700  1.4726
  379MOL0     H51161   1.587   9.089   6.876 -1.7298 -1.5455  0.4334
  379MOL0     H51162   1.075   8.601   6.632 -1.2727  1.1396 -0.6914
  379MOL0     H51163   0.946   8.449   6.807 -1.8185 -1.3713  1.1208
  379MOL0     H51164   0.786   8.503   6.725 -0.3857  0.2248  3.1977
  379MOL0     H51165   0.834   8.336   6.737  2.4659 -1.2690 -3.2971
  380MOL0     O51166   5.648  10.585   9.608  0.2405 -1.0519  0.2225
  380MOL0     C51167   5.665  10.600   9.484 -0.0549  0.0619 -0.3491
  380MOL0     O51168   5.788  10.622   9.423  0.5410  0.2069 -0.0188
  380MOL0     C51169   5.889  10.666   9.503 -0.8377 -0.3522  1.1176
  380MOL0     C51170   5.938  10.592   9.615  0.3129  0.1717  0.0525
  380MOL0     C51171   6.044  10.634   9.689  0.4707 -0.7248 -0.9365
  380MOL0     C51172   6.111  10.751   9.670 -0.0162  0.0695 -0.0167
  380MOL0     O51173   6.223  10.777   9.748  0.5201  0.2816 -0.0835
  380MOL0     C51174   6.341  10.764   9.679 -0.6586 -0.6359  0.2716
  380MOL0     C51175   6.440  10.845   9.760  0.0502 -0.1887 -0.2950
  380MOL0     C51176   6.422  10.991   9.785 -0.4072  0.1602  0.3321
  380MOL0     C51177   6.544  11.062   9.853 -1.1192 -0.2478  0.6520
  380MOL0     C51178   6.512  11.181   9.930 -0.2199  0.1218 -0.0224
  380MOL0     C51179   6.443  11.156  10.067 -0.5065 -0.0418  0.8418
  380MOL0     C51180   6.445  11.285  10.146  0.0023 -0.4605  0.3659
  380MOL0     C51181   6.383  11.404  10.084  0.4033 -0.7657 -0.5348
  380MOL0     N51182   6.239  11.388  10.056 -0.0298 -0.9233  0.7018
  380MOL0     C51183   6.131  11.453  10.110 -0.2475 -0.1279 -1.0221
  380MOL0     C51184   6.022  11.420  10.049  0.7237  0.2550  1.2681
  380MOL0     C51185   5.877  11.451  10.085 -1.2948 -0.0286  0.3684
  380MOL0     C51186   5.849  11.586  10.024  0.5596  0.5369  0.2057
  380MOL0     C51187   5.775  11.575   9.891  0.2207 -0.5073 -0.0668
  380MOL0     C51188   5.833  11.500   9.775  0.3869  0.0731  0.4793
  380MOL0     O51189   5.749  11.514   9.656 -0.0524  0.0249 -0.6332
  380MOL0     C51190   5.784  11.462   9.536  1.0359 -0.4422 -0.8683
  380MOL0     C51191   5.897  11.384   9.522 -0.5061 -0.5766 -0.0477
  380MOL0     C51192   5.928  11.332   9.397  0.2276  0.5014  0.7724
  380MOL0     C51193   5.845  11.352   9.291 -0.2496  0.3567  0.4995
  380MOL0     C51194   5.876  11.288   9.159  0.2784  0.3158 -1.2134
  380MOL0     O51195   5.790  11.318   9.063 -0.4354 -0.1450 -0.0271
  380MOL0     C51196   5.825  11.298   8.933  0.1100  0.0283 -0.7591
  380MOL0     C51197   5.861  11.403   8.850  0.1819  0.2748  0.4303
  380MOL0     C51198   5.888  11.365   8.719 -0.2445  0.3773 -0.1829
  380MOL0     C51199   5.890  11.237   8.668  0.7956  0.8586 -0.5179
  380MOL0     O51200   5.931  11.217   8.542  0.4127 -0.5130 -0.0044
  380MOL0     C51201   6.009  11.315   8.470 -0.2564 -0.4843  0.1837
  380MOL0     C51202   5.922  11.407   8.381 -0.2605 -1.1282  0.3101
  380MOL0     C51203   5.846  11.342   8.267  0.9390 -0.3178 -0.2315
  380MOL0     C51204   5.753  11.448   8.192  0.2243  0.4370  0.0570
  380MOL0     C51205   5.680  11.368   8.081  0.5087 -0.4401  0.2459
  380MOL0     C51206   5.573  11.264   8.121 -0.1815  0.1547  0.2394
  380MOL0     C51207   5.492  11.201   7.998  1.1795 -0.6947 -0.0021
  380MOL0     C51208   5.352  11.188   8.040  0.7463 -0.1781  0.8303
  380MOL0    Cl51209   5.244  11.058   7.959 -0.4846  0.1849 -0.0698
  380MOL0     C51210   5.853  11.133   8.756 -0.4535 -0.6670 -0.3184
  380MOL0     C51211   5.821  11.163   8.891 -0.7474  0.6086  1.0493
  380MOL0     O51212   5.970  11.203   9.158 -0.0269 -0.3758 -0.7005
  380MOL0     C51213   5.735  11.437   9.306 -0.1727 -0.8581 -0.1498
  380MOL0     C51214   5.702  11.497   9.433 -0.6413  0.4283  0.4322
  380MOL0     N51215   6.060  11.331   9.955 -0.2005 -0.6424  0.0486
  380MOL0     N51216   6.193  11.317   9.957  0.1193 -0.3051  0.9535
  380MOL0     C51217   6.062  10.826   9.554 -0.1615  0.2515  0.1993
  380MOL0     C51218   5.949  10.792   9.479 -0.4091  0.1787 -0.0138
  380MOL0     C51219   5.554  10.543   9.401 -0.4450  0.3787 -0.9128
  380MOL0     C51220   5.481  10.622   9.307  0.6315  0.3568  0.6514
  380MOL0     C51221   5.391  10.552   9.226 -0.0193 -0.3582  0.7397
  380MOL0     C51222   5.367  10.413   9.225  0.6452  0.4202 -0.4932
  380MOL0     O51223   5.274  10.352   9.145 -0.1306 -0.4836 -0.0041
  380MOL0     C51224   5.153  10.319   9.216 -0.3585  0.6076 -0.7863
  380MOL0     C51225   5.063  10.242   9.131 -0.4794  0.7302  0.9895
  380MOL0     C51226   4.958  10.159   9.201  0.9553  0.2847 -0.1153
  380MOL0     C51227   4.846  10.092   9.111 -0.1617 -0.1696 -0.4854
  380MOL0     C51228   4.894   9.990   9.019  0.4432  0.2193 -1.3195
  380MOL0     C51229   4.943   9.908   8.945 -0.2416 -0.4145 -0.4196
  380MOL0     C51230   5.445  10.342   9.318  0.1668  0.6791 -0.8331
  380MOL0     C51231   5.543  10.402   9.403  0.7094  1.1498  0.1985
  380MOL0     C51232   5.626  10.321   9.494  0.3962  1.1555  0.4174
  380MOL0     H51233   5.896  10.492   9.625  3.5180 -1.6126 -2.1278
  380MOL0     H51234   6.090  10.571   9.764 -2.5871 -1.8090  0.1666
  380MOL0     H51235   6.373  10.660   9.670  2.1016 -0.2031  3.2479
  380MOL0     H51236   6.349  10.816   9.583  1.1040  0.2473  0.8647
  380MOL0     H51237   6.535  10.845   9.705 -0.7198  0.5050 -1.6624
  380MOL0     H51238   6.468  10.783   9.846 -0.9711 -1.3004 -0.7245
  380MOL0     H51239   6.339  10.987   9.856 -1.3065 -0.0464 -0.7020
  380MOL0     H51240   6.393  11.054   9.700  0.6726  0.6676  0.3219
  380MOL0     H51241   6.587  10.985   9.918  3.1254  1.1311 -0.2103
  380MOL0     H51242   6.614  11.077   9.770 -1.7155 -0.4737  0.0972
  380MOL0     H51243   6.604  11.233   9.955 -0.2523 -0.9604  2.6455
  380MOL0     H51244   6.455  11.250   9.866 -0.1784  0.2702  0.1009
  380MOL0     H51245   6.336  11.144  10.047 -0.0477  0.8439 -3.0001
  380MOL0     H51246   6.492  11.081  10.129 -2.3006 -0.9587  1.1933
  380MOL0     H51247   6.544  11.314  10.182 -0.3287  1.1980  0.0062
  380MOL0     H51248   6.379  11.267  10.231 -0.1225 -2.4924 -0.1035
  380MOL0     H51249   6.392  11.491  10.149  0.2495  1.7434 -3.6322
  380MOL0     H51250   6.450  11.421  10.000  2.6035 -1.7732  0.9261
  380MOL0     H51251   6.130  11.520  10.196  0.9815  0.9219 -1.7829
  380MOL0     H51252   5.807  11.375  10.050 -1.3609 -0.1251  0.7066
  380MOL0     H51253   5.885  11.465  10.193  0.7263 -1.2957  0.4374
  380MOL0     H51254   5.780  11.646  10.083 -2.5256 -1.2603 -1.3042
  380MOL0     H51255   5.942  11.642  10.008  0.4483  0.0381 -2.6505
  380MOL0     H51256   5.741  11.672   9.852 -1.3316 -1.3571 -0.9164
  380MOL0     H51257   5.682  11.527   9.921  0.2161 -1.7769 -1.9779
  380MOL0     H51258   5.841  11.396   9.806  3.2875  0.3282  0.8781
  380MOL0     H51259   5.934  11.540   9.758  0.3224  0.9476  1.9629
  380MOL0     H51260   5.970  11.365   9.600 -0.7838 -0.1780  0.3161
  380MOL0     H51261   6.018  11.271   9.392  0.8020  1.3506  0.5421
  380MOL0     H51262   5.880  11.494   8.905 -0.3050  1.4835 -1.3252
  380MOL0     H51263   5.910  11.444   8.647  1.5875 -2.2247 -2.7182
  380MOL0     H51264   6.075  11.371   8.537 -0.8145  0.5327 -0.1033
  380MOL0     H51265   6.077  11.260   8.404 -0.8148 -1.5142  0.4449
  380MOL0     H51266   5.849  11.465   8.437  0.5221 -1.0953  1.3250
  380MOL0     H51267   5.998  11.478   8.347  0.2730 -0.2314  3.0970
  380MOL0     H51268   5.917  11.304   8.193  2.2080 -3.7992  2.5050
  380MOL0     H51269   5.778  11.262   8.299 -1.4500  2.4135  2.0756
  380MOL0     H51270   5.826  11.518   8.150  1.3271 -0.6219  0.1531
  380MOL0     H51271   5.667  11.494   8.240 -1.4469 -3.2784  0.9408
  380MOL0     H51272   5.755  11.313   8.024  1.3810 -0.7743  1.6680
  380MOL0     H51273   5.635  11.447   8.020  3.2983  0.9683 -0.1454
  380MOL0     H51274   5.621  11.183   8.177 -0.6939  0.3127  0.9137
  380MOL0     H51275   5.505  11.308   8.194 -1.5652 -0.8798 -0.3947
  380MOL0     H51276   5.519  11.098   7.972  2.6221  0.2836 -2.8851
  380MOL0     H51277   5.493  11.263   7.908 -2.8684  1.4821  1.2418
  380MOL0     H51278   5.351  11.175   8.149  1.6271  0.5807  0.9385
  380MOL0     H51279   5.299  11.280   8.016 -0.3303  0.7302  5.7071
  380MOL0     H51280   5.869  11.027   8.739  6.2566  0.0469 -1.2208
  380MOL0     H51281   5.793  11.086   8.962  1.1757  1.0212  2.3198
  380MOL0     H51282   5.674  11.464   9.221 -0.5385 -0.3687  0.2625
  380MOL0     H51283   5.618  11.566   9.446 -0.6529  0.0903  2.5909
  380MOL0     H51284   6.111  10.919   9.528  0.6573 -0.5544 -1.2383
  380MOL0     H51285   5.920  10.861   9.400 -0.4560  1.9385  1.4885
  380MOL0     H51286   5.482  10.731   9.307  1.9044  0.3505  1.0447
  380MOL0     H51287   5.321  10.612   9.169 -2.8001 -2.9185  1.2437
  380MOL0     H51288   5.110  10.417   9.238 -0.0407  0.6108 -0.1408
  380MOL0     H51289   5.173  10.262   9.307 -3.5077  0.6136  0.0276
  380MOL0     H51290   5.141  10.177   9.091  0.8388  2.4393  0.6792
  380MOL0     H51291   5.010  10.297   9.053 -2.8040 -1.0113  1.2061
  380MOL0     H51292   4.899  10.215   9.275  1.7950  0.7636  0.2051
  380MOL0     H51293   5.002  10.089   9.272  2.9212  0.9636 -0.6030
  380MOL0     H51294   4.771  10.061   9.185 -1.4206  2.3087 -0.5989
  380MOL0     H51295   4.794  10.165   9.047 -0.5830 -1.0498 -1.1690
  380MOL0     H51296   4.980   9.851   8.862  1.8806  1.7367 -1.0348
  380MOL0     H51297   5.432  10.234   9.313  0.4547  0.5683  0.4943
  380MOL0     H51298   5.728  10.360   9.495  0.9896 -0.3120 -0.1542
  380MOL0     H51299   5.583  10.313   9.594 -0.3360 -0.2485  0.0236
  380MOL0     H51300   5.628  10.223   9.446  0.9050  3.5261 -5.1179
  381MOL0     O51301   7.089  11.192  11.448 -0.0152 -0.0016  0.0430
  381MOL0     C51302   7.157  11.211  11.349  1.1125 -0.3877 -0.0340
  381MOL0     O51303   7.256  11.126  11.306 -1.0142 -1.1007  0.3904
  381MOL0     C51304   7.309  11.029  11.385 -0.4919 -0.1105 -0.4756
  381MOL0     C51305   7.315  10.900  11.324  0.5639 -0.6862  0.0320
  381MOL0     C51306   7.369  10.792  11.389  0.5291 -0.3881  0.4245
  381MOL0     C51307   7.432  10.805  11.511  0.5268  0.5357  1.0850
  381MOL0     O51308   7.488  10.691  11.567 -0.6308  0.7941 -0.5449
  381MOL0     C51309   7.552  10.711  11.703 -0.1604  0.5189 -0.3315
  381MOL0     C51310   7.641  10.594  11.736 -0.9684  0.5818 -0.3740
  381MOL0     C51311   7.551  10.472  11.766  0.4434 -0.2059  0.5035
  381MOL0     C51312   7.630  10.408  11.879  0.0015 -0.1031 -0.6638
  381MOL0     C51313   7.590  10.263  11.915 -0.7665 -0.6669  0.1749
  381MOL0     C51314   7.683  10.197  12.012 -0.5134  1.1778  0.1300
  381MOL0     C51315   7.698  10.040  11.977 -0.8683 -1.3096 -1.2721
  381MOL0     C51316   7.557   9.962  11.995  0.1286 -0.0617  0.0637
  381MOL0     N51317   7.536   9.913  12.132 -0.1043 -0.5582  0.8048
  381MOL0     C51318   7.498   9.780  12.167 -0.8414 -0.7944 -0.3066
  381MOL0     C51319   7.451   9.789  12.295  0.5039 -0.2003 -0.7170
  381MOL0     C51320   7.400   9.674  12.369 -0.0789  0.5477 -0.6110
  381MOL0     C51321   7.401   9.696  12.522 -0.6384 -0.0801 -0.8423
  381MOL0     C51322   7.541   9.702  12.592 -0.1198  0.6250  0.6933
  381MOL0     C51323   7.536   9.725  12.741  0.6965 -0.6014  0.9176
  381MOL0     O51324   7.674   9.708  12.781 -0.4800  0.0356  0.1678
  381MOL0     C51325   7.719   9.745  12.908 -0.3793  0.5327 -0.5951
  381MOL0     C51326   7.642   9.815  13.012 -0.1900  0.1542 -0.8887
  381MOL0     C51327   7.714   9.875  13.117 -0.9982 -0.1152 -0.3022
  381MOL0     C51328   7.846   9.836  13.148 -0.0463  0.1214  0.0555
  381MOL0     C51329   7.925   9.897  13.256 -0.9504  0.5512  0.1354
  381MOL0     O51330   8.041   9.845  13.297 -0.7457 -0.2263  0.5185
  381MOL0     C51331   8.121   9.898  13.395  1.8066  0.4843 -0.3848
  381MOL0     C51332   8.251   9.868  13.384  0.0258 -2.0461  0.1662
  381MOL0     C51333   8.350   9.911  13.474  0.6286  0.0356  0.7052
  381MOL0     C51334   8.310   9.987  13.585  0.1547 -0.8423  0.1169
  381MOL0     O51335   8.411  10.022  13.674  0.5124  0.5815 -0.0477
  381MOL0     C51336   8.463  10.149  13.644  0.0214 -0.3967  0.2507
  381MOL0     C51337   8.589  10.154  13.737 -0.6838 -1.1277  0.3114
  381MOL0     C51338   8.681  10.279  13.696 -0.6975 -0.0134 -0.5697
  381MOL0     C51339   8.820  10.252  13.767 -0.3927 -0.6763  1.0377
  381MOL0     C51340   8.926  10.369  13.749  0.3300  0.8764 -0.6990
  381MOL0     C51341   8.868  10.513  13.725  0.5969 -0.3809  0.7348
  381MOL0     C51342   8.964  10.615  13.774  0.9120 -0.6428  0.5054
  381MOL0     C51343   8.990  10.741  13.687  0.1916  0.6928 -0.5658
  381MOL0    Cl51344   9.054  10.687  13.538  0.1425  0.0198 -0.2286
  381MOL0     C51345   8.169  10.013  13.610  0.2366 -0.4566  0.6722
  381MOL0     C51346   8.078   9.975  13.505 -1.6255 -0.7931 -0.1773
  381MOL0     O51347   7.872   9.998  13.299  0.7882  0.4204 -0.1085
  381MOL0     C51348   7.914   9.760  13.049 -0.6620  0.3108  0.5422
  381MOL0     C51349   7.853   9.723  12.927  0.8211  0.3831 -0.4407
  381MOL0     N51350   7.437   9.923  12.324  0.1120  0.0438  0.1803
  381MOL0     N51351   7.498   9.991  12.240  0.1802  0.5112 -0.1016
  381MOL0     C51352   7.411  10.921  11.582 -0.3543 -0.3080  0.5416
  381MOL0     C51353   7.339  11.035  11.523 -0.2963  0.8466 -0.4286
  381MOL0     C51354   7.131  11.334  11.269 -0.2182 -0.6135  0.7543
  381MOL0     C51355   7.210  11.358  11.158 -0.8476 -0.6135 -0.1401
  381MOL0     C51356   7.206  11.481  11.095  0.2911  0.4072 -0.3656
  381MOL0     C51357   7.141  11.597  11.144 -0.6869 -0.1385 -0.5304
  381MOL0     O51358   7.147  11.716  11.078 -0.3927  0.3451  1.3181
  381MOL0     C51359   7.048  11.721  10.982  0.5475  0.3150  0.1290
  381MOL0     C51360   7.092  11.782  10.855 -0.4675  0.5115 -0.1949
  381MOL0     C51361   7.168  11.916  10.874  0.4331 -0.6086 -0.1019
  381MOL0     C51362   7.185  11.999  10.741  0.5104  0.2082  1.2589
  381MOL0     C51363   7.261  11.929  10.635 -0.7614  1.0891 -0.2315
  381MOL0     C51364   7.325  11.877  10.548  0.1848  0.7587 -0.2772
  381MOL0     C51365   7.044  11.561  11.240 -0.0544  0.1359 -0.3965
  381MOL0     C51366   7.039  11.441  11.302  0.1605  0.8560 -0.6737
  381MOL0     C51367   6.931  11.421  11.400  0.3735  0.4551 -0.1759
  381MOL0     H51368   7.290  10.874  11.222 -1.4007 -1.5916  0.7037
  381MOL0     H51369   7.365  10.702  11.329 -1.8410 -0.6844  0.9428
  381MOL0     H51370   7.620  10.796  11.701 -0.7990  1.0349 -0.7390
  381MOL0     H51371   7.474  10.726  11.778 -0.8915 -1.4862 -0.6274
  381MOL0     H51372   7.695  10.619  11.828  1.0925 -0.3875 -1.2673
  381MOL0     H51373   7.708  10.561  11.656 -2.3222  5.7070 -4.2062
  381MOL0     H51374   7.548  10.402  11.682  0.5755 -1.5495  1.5784
  381MOL0     H51375   7.453  10.511  11.795  1.3550  0.9498  2.2281
  381MOL0     H51376   7.734  10.395  11.847  0.4910  1.8002  0.0339
  381MOL0     H51377   7.628  10.470  11.969 -0.3234 -1.3114  0.1887
  381MOL0     H51378   7.492  10.273  11.963 -0.1291 -1.8744  1.8122
  381MOL0     H51379   7.595  10.214  11.817 -0.9112  0.1080 -0.2240
  381MOL0     H51380   7.784  10.240  12.012 -0.7196  2.1275 -4.5455
  381MOL0     H51381   7.625  10.205  12.105 -1.3471  1.9153 -0.4413
  381MOL0     H51382   7.776   9.984  12.029 -0.4767 -2.8123 -3.3342
  381MOL0     H51383   7.719  10.032  11.870  0.9251 -0.3217 -1.0272
  381MOL0     H51384   7.466  10.016  11.965  0.5614  0.3493 -0.5558
  381MOL0     H51385   7.556   9.870  11.936 -0.3899 -1.5808  2.3131
  381MOL0     H51386   7.525   9.688  12.117  3.9328 -0.4589  1.1388
  381MOL0     H51387   7.296   9.681  12.335  0.0217  0.4565 -0.9357
  381MOL0     H51388   7.429   9.576  12.329 -0.0759  0.7529 -1.1181
  381MOL0     H51389   7.344   9.786  12.545 -0.9130 -1.3152  4.7249
  381MOL0     H51390   7.349   9.606  12.559 -0.7094  0.8208  1.4116
  381MOL0     H51391   7.609   9.765  12.534  0.4575 -0.4532  0.1594
  381MOL0     H51392   7.579   9.599  12.590 -1.4301 -0.0005  3.1440
  381MOL0     H51393   7.471   9.655  12.794 -1.1257  1.1222  1.0843
  381MOL0     H51394   7.513   9.831  12.758  1.8596 -0.2489  0.4226
  381MOL0     H51395   7.535   9.831  13.018 -0.1700  0.1731 -0.5262
  381MOL0     H51396   7.651   9.938  13.179 -1.7950 -0.2136 -1.0051
  381MOL0     H51397   8.275   9.808  13.297 -0.8284  0.4468 -1.9122
  381MOL0     H51398   8.454   9.881  13.459  1.0614 -0.0581  3.2857
  381MOL0     H51399   8.495  10.145  13.539 -0.4905 -0.9349  0.1072
  381MOL0     H51400   8.399  10.236  13.653  0.7965  0.1786  0.2644
  381MOL0     H51401   8.562  10.165  13.842  3.4514  0.0915  1.4252
  381MOL0     H51402   8.647  10.061  13.729 -1.7392 -2.1117  3.0353
  381MOL0     H51403   8.695  10.292  13.589 -1.1016 -3.3745 -1.1484
  381MOL0     H51404   8.633  10.365  13.743  0.8940 -0.5831  2.3244
  381MOL0     H51405   8.867  10.157  13.737 -1.8580 -0.9283 -0.6548
  381MOL0     H51406   8.807  10.237  13.875 -0.1119  1.0790  1.3319
  381MOL0     H51407   8.983  10.346  13.658 -0.3569  1.0253 -1.1748
  381MOL0     H51408   8.994  10.378  13.834  2.4284  1.7062 -2.3484
  381MOL0     H51409   8.839  10.538  13.622  0.2290  4.1494  1.7156
  381MOL0     H51410   8.774  10.524  13.781 -0.3132 -0.2478 -0.7633
  381MOL0     H51411   9.063  10.569  13.773  0.6881 -1.1405 -0.8992
  381MOL0     H51412   8.931  10.646  13.874 -0.1939  1.2169 -0.3645
  381MOL0     H51413   8.897  10.790  13.656 -0.1460  0.5548  0.2188
  381MOL0     H51414   9.047  10.825  13.729 -0.5719  1.1192 -0.3771
  381MOL0     H51415   8.121  10.063  13.694 -2.3320  0.4349 -1.2390
  381MOL0     H51416   7.976  10.010  13.514 -1.6971 -1.3824  2.0670
  381MOL0     H51417   8.020   9.738  13.051 -1.3500 -4.4784 -1.2893
  381MOL0     H51418   7.913   9.677  12.849 -1.1388 -1.5113 -0.9428
  381MOL0     H51419   7.439  10.936  11.686 -1.7506 -1.7457  1.1512
  381MOL0     H51420   7.317  11.130  11.570  1.1579 -0.2346  2.7621
  381MOL0     H51421   7.271  11.281  11.112 -0.2190 -0.4630  0.4202
  381MOL0     H51422   7.253  11.491  10.997  1.4260  1.5527  0.2555
  381MOL0     H51423   6.965  11.776  11.027  0.2889  0.4540 -0.5020
  381MOL0     H51424   7.014  11.621  10.952  0.3590  1.4078 -3.9815
  381MOL0     H51425   7.003  11.795  10.792 -0.0544 -2.9331 -1.7146
  381MOL0     H51426   7.156  11.708  10.807  0.6383  2.3201 -1.6800
  381MOL0     H51427   7.265  11.885  10.915  0.3143  0.7752  1.3168
  381MOL0     H51428   7.113  11.994  10.927  2.0362  3.0992 -3.4526
  381MOL0     H51429   7.087  12.028  10.703  1.0962  2.4769  1.3119
  381MOL0     H51430   7.236  12.093  10.762 -1.5122  1.6166  0.2106
  381MOL0     H51431   7.372  11.826  10.466  1.3555 -1.5485  1.7079
  381MOL0     H51432   6.976  11.638  11.275  2.9258  2.3790  0.9918
  381MOL0     H51433   6.973  11.423  11.501  0.0636 -1.3987  0.0176
  381MOL0     H51434   6.848  11.492  11.392 -1.0080 -1.1139 -0.4520
  381MOL0     H51435   6.874  11.330  11.378  0.0821  0.3099  1.1266
  382MOL0     O51436   1.744   1.038   4.517 -0.3812  0.1925  0.3879
  382MOL0     C51437   1.712   1.154   4.488  0.3890 -0.9990 -0.8285
  382MOL0     O51438   1.611   1.180   4.406  0.9436  0.7337  0.3792
  382MOL0     C51439   1.518   1.075   4.386  0.8940  0.4837 -1.4891
  382MOL0     C51440   1.432   1.029   4.493 -1.2838  0.0724  0.3235
  382MOL0     C51441   1.344   0.923   4.480  0.0742  0.1730  0.6576
  382MOL0     C51442   1.318   0.858   4.352  0.2431 -0.7115 -0.7226
  382MOL0     O51443   1.240   0.750   4.331 -0.1981 -0.1190  0.3909
  382MOL0     C51444   1.150   0.697   4.431  0.3723  0.3536 -0.1251
  382MOL0     C51445   1.010   0.756   4.418 -0.3185  0.6904 -0.0581
  382MOL0     C51446   0.887   0.670   4.467  0.4280  0.3219 -0.4660
  382MOL0     C51447   0.754   0.751   4.446 -0.3067  0.8514  0.4238
  382MOL0     C51448   0.716   0.867   4.534  0.2627  0.0081 -0.1385
  382MOL0     C51449   0.761   1.009   4.475  0.0079  0.1596 -0.2722
  382MOL0     C51450   0.704   1.123   4.566 -0.8279 -0.3527 -0.2873
  382MOL0     C51451   0.770   1.252   4.538 -0.1080 -0.3218 -0.3895
  382MOL0     N51452   0.721   1.310   4.411  1.0048 -0.2344 -0.1297
  382MOL0     C51453   0.769   1.270   4.288  0.5132  0.2032 -0.4453
  382MOL0     C51454   0.694   1.340   4.194 -0.2807  0.3921 -0.5377
  382MOL0     C51455   0.722   1.339   4.044  0.4264 -0.4642 -0.6544
  382MOL0     C51456   0.748   1.479   3.987  0.0925 -0.4734  0.2284
  382MOL0     C51457   0.752   1.465   3.843  0.0138 -0.0555 -0.2982
  382MOL0     C51458   0.762   1.601   3.777  0.2666  0.2046 -0.9231
  382MOL0     O51459   0.855   1.691   3.834 -0.0424  0.3048  0.3444
  382MOL0     C51460   0.993   1.670   3.826  0.7085 -0.3868 -0.5108
  382MOL0     C51461   1.041   1.583   3.734  0.4739 -0.8638 -0.3059
  382MOL0     C51462   1.176   1.559   3.720  0.0122 -0.5778 -1.1183
  382MOL0     C51463   1.260   1.635   3.807 -0.4945 -0.6712 -0.3631
  382MOL0     C51464   1.400   1.624   3.791  0.2598  0.0203  0.9758
  382MOL0     O51465   1.478   1.735   3.831 -0.0642  0.4247  0.1704
  382MOL0     C51466   1.608   1.757   3.823 -0.0371  0.0616 -0.1220
  382MOL0     C51467   1.681   1.714   3.713  0.3743 -0.9466 -0.3223
  382MOL0     C51468   1.818   1.730   3.700  0.2124  0.3769  0.0029
  382MOL0     C51469   1.884   1.820   3.785 -0.9392 -0.0696 -0.7649
  382MOL0     O51470   2.002   1.874   3.738 -0.6217 -0.2317  0.0631
  382MOL0     C51471   2.105   1.911   3.835  0.6861 -0.4025 -0.0844
  382MOL0     C51472   2.241   1.934   3.767 -0.0069  0.0969 -0.0046
  382MOL0     C51473   2.359   1.956   3.852  0.4582  1.7937 -1.0519
  382MOL0     C51474   2.323   2.006   3.990  0.0512 -0.4451  0.6341
  382MOL0     C51475   2.444   2.034   4.072  0.5651  0.6776  0.1847
  382MOL0     C51476   2.532   2.151   4.035  0.4617 -0.7706  0.3692
  382MOL0     C51477   2.655   2.171   4.117 -0.1076  0.6639 -0.7445
  382MOL0     C51478   2.742   2.283   4.074 -0.2746  0.2035  0.1287
  382MOL0    Cl51479   2.828   2.349   4.223  0.0110 -0.3166  0.3867
  382MOL0     C51480   1.809   1.870   3.891 -0.3600 -0.5788  0.8612
  382MOL0     C51481   1.679   1.838   3.911 -0.3588  0.4134 -0.6457
  382MOL0     O51482   1.442   1.524   3.739 -0.0725  0.5923 -0.1914
  382MOL0     C51483   1.207   1.728   3.902  0.8998  0.5148  0.1557
  382MOL0     C51484   1.069   1.741   3.917  0.1094 -0.6058  0.1377
  382MOL0     N51485   0.604   1.410   4.265  0.2816  0.1254 -0.0058
  382MOL0     N51486   0.623   1.398   4.388  0.5555 -0.0941 -1.1339
  382MOL0     C51487   1.394   0.909   4.245 -0.5670 -0.0879  0.1736
  382MOL0     C51488   1.489   1.018   4.264 -0.3147  0.4928 -0.0737
  382MOL0     C51489   1.785   1.273   4.532  0.0308  0.5290 -0.2163
  382MOL0     C51490   1.833   1.367   4.441 -1.2537  0.0769 -0.4806
  382MOL0     C51491   1.904   1.483   4.478  0.1610 -0.9551  1.6699
  382MOL0     C51492   1.932   1.518   4.607 -0.4211  0.3404  0.5912
  382MOL0     O51493   2.013   1.626   4.634 -0.5760 -0.7564  0.3952
  382MOL0     C51494   1.986   1.709   4.753 -0.8158 -0.2994 -0.1670
  382MOL0     C51495   2.045   1.850   4.743  0.2191 -0.5807  0.2843
  382MOL0     C51496   1.975   1.931   4.631  0.3698 -0.2244  0.6835
  382MOL0     C51497   1.980   2.081   4.647  0.0961  0.4369  0.5211
  382MOL0     C51498   1.879   2.154   4.712 -0.1801 -0.6480  1.1401
  382MOL0     C51499   1.793   2.235   4.754  0.2057  1.0303  0.5713
  382MOL0     C51500   1.869   1.434   4.702  0.3818 -0.8075  0.2324
  382MOL0     C51501   1.793   1.320   4.664  0.4216  0.7027 -0.4470
  382MOL0     C51502   1.726   1.238   4.773 -0.2018  0.8628 -0.1188
  382MOL0     H51503   1.450   1.073   4.590  1.0830  0.9877 -0.4583
  382MOL0     H51504   1.286   0.885   4.564 -5.1917  0.8036 -2.2850
  382MOL0     H51505   1.145   0.588   4.422 -0.6526  0.1347  2.2873
  382MOL0     H51506   1.187   0.708   4.533  2.0922 -1.6112 -0.4685
  382MOL0     H51507   1.001   0.786   4.313 -0.6437 -0.4946 -0.3821
  382MOL0     H51508   1.011   0.841   4.486 -0.3110 -1.9056  3.4563
  382MOL0     H51509   0.901   0.641   4.571  0.0701  2.4473  0.2252
  382MOL0     H51510   0.890   0.581   4.402 -1.0240 -2.8041  3.3699
  382MOL0     H51511   0.742   0.777   4.340  4.0116 -0.0088 -0.4733
  382MOL0     H51512   0.666   0.687   4.455 -0.9868  1.4331 -1.4839
  382MOL0     H51513   0.609   0.874   4.555  0.3733  2.2817 -0.0227
  382MOL0     H51514   0.760   0.846   4.632 -2.3335 -0.1428  1.1010
  382MOL0     H51515   0.870   1.016   4.470 -0.1249  1.7255 -3.5620
  382MOL0     H51516   0.730   1.031   4.373 -1.3982  0.8790  0.2885
  382MOL0     H51517   0.716   1.108   4.674  1.8812 -2.8741 -0.8407
  382MOL0     H51518   0.597   1.138   4.548 -0.2182  6.1307 -0.8857
  382MOL0     H51519   0.744   1.320   4.620 -1.2255 -2.8086  1.4598
  382MOL0     H51520   0.880   1.250   4.537 -0.0154 -0.0497  2.1562
  382MOL0     H51521   0.853   1.208   4.260 -0.5647 -1.4046 -0.2766
  382MOL0     H51522   0.818   1.289   4.027  0.1051 -1.0847 -0.6793
  382MOL0     H51523   0.647   1.288   3.983  2.0166 -3.4209 -0.3273
  382MOL0     H51524   0.673   1.554   4.017  0.4009  0.5475 -1.4410
  382MOL0     H51525   0.843   1.516   4.027 -1.3950  1.0763  2.6329
  382MOL0     H51526   0.663   1.413   3.807  1.6213 -2.0166 -1.6014
  382MOL0     H51527   0.841   1.405   3.825 -1.0509 -3.0229  3.1900
  382MOL0     H51528   0.668   1.655   3.794  0.0215 -0.4031 -0.3154
  382MOL0     H51529   0.779   1.585   3.670 -0.7313  0.4931 -1.1386
  382MOL0     H51530   0.979   1.509   3.684 -1.0162  0.3454 -0.3482
  382MOL0     H51531   1.212   1.482   3.653 -2.9131 -2.3361 -0.8495
  382MOL0     H51532   1.638   1.663   3.627 -0.2687 -1.3432  0.2208
  382MOL0     H51533   1.868   1.690   3.613 -0.2458 -0.0558 -0.0693
  382MOL0     H51534   2.069   2.009   3.868  0.1712  0.4078 -2.8267
  382MOL0     H51535   2.106   1.840   3.918 -0.4386  0.8738  1.0742
  382MOL0     H51536   2.263   1.849   3.702 -1.5648 -0.9297  0.7391
  382MOL0     H51537   2.225   2.021   3.703 -1.5844  0.8445  1.3381
  382MOL0     H51538   2.413   1.862   3.866  1.9134  2.5243 -1.5612
  382MOL0     H51539   2.425   2.020   3.793  1.8614  0.7852 -0.6419
  382MOL0     H51540   2.250   1.940   4.038 -1.8869  0.9090 -0.3027
  382MOL0     H51541   2.275   2.104   3.987  2.2538  1.0664  5.2060
  382MOL0     H51542   2.510   1.947   4.075 -1.1869 -0.7179 -0.0555
  382MOL0     H51543   2.414   2.054   4.175 -0.9441 -0.2077 -0.0619
  382MOL0     H51544   2.555   2.138   3.929  2.0470 -0.2573  0.6256
  382MOL0     H51545   2.477   2.245   4.039 -0.4358 -1.2611 -0.0689
  382MOL0     H51546   2.718   2.082   4.115 -2.3365 -1.1066  1.6704
  382MOL0     H51547   2.615   2.193   4.217 -1.3439 -2.4829 -0.4333
  382MOL0     H51548   2.820   2.244   4.008  0.4826  1.0172  0.5091
  382MOL0     H51549   2.689   2.356   4.013 -0.4010  0.7909  0.9211
  382MOL0     H51550   1.850   1.958   3.938 -3.1983  0.6200  1.2907
  382MOL0     H51551   1.632   1.880   3.999  2.9558  1.8385  0.5983
  382MOL0     H51552   1.271   1.796   3.957 -3.3211  4.6007  0.6190
  382MOL0     H51553   1.022   1.815   3.982 -1.5799 -0.9391 -0.6455
  382MOL0     H51554   1.381   0.878   4.142  0.8442  1.1513 -0.4117
  382MOL0     H51555   1.553   1.061   4.187 -0.9931  0.6245 -0.5709
  382MOL0     H51556   1.826   1.344   4.335  1.0472  3.7575 -1.6138
  382MOL0     H51557   1.947   1.532   4.392  0.5928 -1.8580  1.3569
  382MOL0     H51558   2.034   1.673   4.845  2.8425  1.3154 -1.2529
  382MOL0     H51559   1.879   1.719   4.770 -0.8430  2.4139 -1.3438
  382MOL0     H51560   2.153   1.835   4.733 -0.1775 -2.6857 -1.9183
  382MOL0     H51561   2.035   1.905   4.837 -2.1450  0.8232 -0.6792
  382MOL0     H51562   1.872   1.894   4.630  0.1406  0.3366 -1.6534
  382MOL0     H51563   2.014   1.899   4.534  1.8066  2.0378  0.4708
  382MOL0     H51564   2.068   2.104   4.709  0.7037 -1.3012  0.3575
  382MOL0     H51565   2.007   2.120   4.549 -0.1657 -0.6492  0.0025
  382MOL0     H51566   1.713   2.296   4.792 -0.1043  2.5598 -2.2419
  382MOL0     H51567   1.890   1.470   4.802  0.2383 -0.9505  0.3140
  382MOL0     H51568   1.623   1.207   4.754  0.0873 -0.2051 -0.0014
  382MOL0     H51569   1.776   1.140   4.778  0.5900  1.3156  2.2330
  382MOL0     H51570   1.714   1.290   4.869 -1.6913 -1.0382  0.8210
  383MOL0     O51571   1.393   0.908   5.785  1.0999  0.1984  0.8283
  383MOL0     C51572   1.274   0.880   5.778 -0.2098  0.4033  0.5033
  383MOL0     O51573   1.185   0.874   5.883  0.3148 -0.3307  0.4781
  383MOL0     C51574   1.208   0.928   6.013  0.1544  0.4313  0.2917
  383MOL0     C51575   1.324   0.912   6.084  0.4568  0.7541  0.7343
  383MOL0     C51576   1.350   0.978   6.206  0.6575  0.1803 -0.2419
  383MOL0     C51577   1.238   1.038   6.269  1.1559 -0.0242 -0.5299
  383MOL0     O51578   1.252   1.068   6.407 -0.2334 -0.1817 -0.3629
  383MOL0     C51579   1.237   0.954   6.488  0.0455  0.0287 -0.4221
  383MOL0     C51580   1.235   0.993   6.638 -0.5715  0.5186  0.3355
  383MOL0     C51581   1.205   0.882   6.730  0.0021 -0.8399 -0.3062
  383MOL0     C51582   1.076   0.807   6.692 -0.4935  0.5573  0.2824
  383MOL0     C51583   0.998   0.756   6.813  0.4088 -0.0603 -0.3396
  383MOL0     C51584   1.078   0.690   6.926 -0.3839 -0.8143  0.8439
  383MOL0     C51585   0.981   0.620   7.024 -0.1947  0.3464 -0.0144
  383MOL0     C51586   0.953   0.470   7.000 -0.8139  0.2427  0.5069
  383MOL0     N51587   0.843   0.422   7.072 -0.9886 -0.0639  0.3037
  383MOL0     C51588   0.829   0.340   7.187 -0.6660  0.5905  0.6081
  383MOL0     C51589   0.697   0.336   7.214  0.1787 -0.4444 -1.0213
  383MOL0     C51590   0.620   0.260   7.311  0.6948 -0.4446 -0.3203
  383MOL0     C51591   0.528   0.163   7.236  0.2341  0.2960 -0.3605
  383MOL0     C51592   0.440   0.074   7.323 -0.2115 -0.2610 -0.4766
  383MOL0     C51593   0.297   0.128   7.356  0.3616  0.4434  0.5278
  383MOL0     O51594   0.284   0.220   7.463  0.6105  0.0319  0.3582
  383MOL0     C51595   0.167   0.208   7.532 -0.0735 -0.1856 -0.0542
  383MOL0     C51596   0.164   0.214   7.671 -0.4717 -0.2236 -0.9236
  383MOL0     C51597   0.046   0.191   7.751 -0.5756  0.9257  0.0426
  383MOL0     C51598  -0.078   0.171   7.691 -0.0961  0.5710  0.0985
  383MOL0     C51599  -0.199   0.143   7.765  0.1189  0.6284  0.3911
  383MOL0     O51600  -0.205   0.162   7.901  0.7443 -0.8390 -0.5111
  383MOL0     C51601  -0.331   0.164   7.960 -0.1897 -0.6415 -0.0441
  383MOL0     C51602  -0.384   0.272   8.019  0.1569 -0.3240  0.5600
  383MOL0     C51603  -0.505   0.264   8.091  0.1831 -0.8645 -0.4551
  383MOL0     C51604  -0.567   0.143   8.110  0.4189  0.6154  0.4617
  383MOL0     O51605  -0.688   0.142   8.171  0.5480 -0.0387  0.1478
  383MOL0     C51606  -0.785   0.030   8.188  0.5184  1.0055  0.5583
  383MOL0     C51607  -0.844  -0.038   8.058 -0.6741  0.5770 -0.8145
  383MOL0     C51608  -0.954   0.045   7.997 -0.1282  0.5308 -0.7391
  383MOL0     C51609  -0.912   0.131   7.876 -0.9196 -0.9790  0.7038
  383MOL0     C51610  -1.028   0.193   7.796  0.4345 -0.8153 -0.5173
  383MOL0     C51611  -0.989   0.294   7.680 -0.1148  0.4687  0.1151
  383MOL0     C51612  -0.898   0.416   7.719  0.6678  0.0223 -0.1119
  383MOL0     C51613  -0.971   0.523   7.796  0.0932 -0.7895  0.4456
  383MOL0    Cl51614  -0.989   0.472   7.954 -0.0162  0.1456 -0.7151
  383MOL0     C51615  -0.502   0.025   8.065  0.7326  0.7715 -0.0553
  383MOL0     C51616  -0.388   0.040   7.986 -0.4085 -0.7207  0.7768
  383MOL0     O51617  -0.299   0.105   7.700  0.1825  1.0896  0.2084
  383MOL0     C51618  -0.077   0.164   7.551 -0.4612  0.0414  1.1169
  383MOL0     C51619   0.039   0.182   7.476 -0.6271  0.0013 -0.8203
  383MOL0     N51620   0.629   0.430   7.137 -0.7493  0.3200 -0.4673
  383MOL0     N51621   0.721   0.475   7.057 -0.1712 -0.7778 -1.3168
  383MOL0     C51622   1.110   1.033   6.209 -0.2738 -0.2319 -1.1880
  383MOL0     C51623   1.102   0.985   6.076 -0.2261  0.8290  0.6114
  383MOL0     C51624   1.218   0.861   5.638 -0.9393 -0.5549  0.1107
  383MOL0     C51625   1.295   0.870   5.527  0.0301  0.3959 -0.4246
  383MOL0     C51626   1.249   0.855   5.392 -0.6918 -0.2481  0.0252
  383MOL0     C51627   1.115   0.815   5.370  0.1567  0.8721  0.2873
  383MOL0     O51628   1.062   0.791   5.249  0.1299 -0.1006  0.2031
  383MOL0     C51629   1.112   0.833   5.126 -0.6506 -0.8878  0.8686
  383MOL0     C51630   1.082   0.988   5.103 -1.0848  0.5357  0.6250
  383MOL0     C51631   0.946   1.017   5.048 -0.6231 -0.6714  0.0860
  383MOL0     C51632   0.927   0.968   4.897 -0.4327 -0.0856 -1.6043
  383MOL0     C51633   1.015   1.028   4.799 -0.5233 -0.0938  0.5581
  383MOL0     C51634   1.097   1.086   4.731 -1.5725 -1.0990  0.0299
  383MOL0     C51635   1.037   0.812   5.485  0.1062 -0.0690 -0.1441
  383MOL0     C51636   1.086   0.828   5.616 -0.7634  1.1973 -0.3518
  383MOL0     C51637   0.980   0.809   5.719  0.4750 -0.6685  0.4098
  383MOL0     H51638   1.400   0.862   6.025 -0.3653 -0.0748  0.3499
  383MOL0     H51639   1.442   0.959   6.260  0.1389  1.1820  1.0384
  383MOL0     H51640   1.149   0.903   6.448  0.3851  0.7960 -2.2251
  383MOL0     H51641   1.321   0.885   6.478  0.2032  0.3529 -1.4887
  383MOL0     H51642   1.148   1.059   6.643 -1.0036  0.1664 -1.7171
  383MOL0     H51643   1.322   1.051   6.671  0.6841 -1.2737  0.3123
  383MOL0     H51644   1.203   0.913   6.835 -1.7545  1.3303 -0.8910
  383MOL0     H51645   1.290   0.814   6.731 -0.2938 -1.2083  1.1393
  383MOL0     H51646   1.016   0.879   6.636  3.6807  3.4520 -0.9920
  383MOL0     H51647   1.113   0.727   6.628 -0.4291  0.7009  0.1400
  383MOL0     H51648   0.936   0.838   6.851  1.3296 -0.0281  1.1869
  383MOL0     H51649   0.931   0.679   6.774 -1.2686  2.2656 -2.3639
  383MOL0     H51650   1.148   0.614   6.890 -2.2229 -2.2479  0.1257
  383MOL0     H51651   1.125   0.766   6.989 -0.4947 -0.5435  0.5988
  383MOL0     H51652   0.886   0.675   7.018  0.6088  1.6211 -1.7610
  383MOL0     H51653   1.014   0.631   7.128  1.3425  2.0712 -0.6436
  383MOL0     H51654   0.955   0.449   6.892  2.2643  4.6752 -0.5538
  383MOL0     H51655   1.027   0.404   7.047 -2.9241 -2.0282  0.8774
  383MOL0     H51656   0.904   0.277   7.234 -1.3932  0.5420  1.7406
  383MOL0     H51657   0.693   0.208   7.375 -0.9304  0.3676  2.3711
  383MOL0     H51658   0.553   0.323   7.371 -1.2587 -2.0800 -0.7017
  383MOL0     H51659   0.458   0.213   7.170 -2.6921  0.8697  2.8619
  383MOL0     H51660   0.584   0.086   7.182 -2.2523 -2.9418  1.2543
  383MOL0     H51661   0.487   0.072   7.422  0.2583  0.7680 -0.6640
  383MOL0     H51662   0.442  -0.023   7.274  3.5638  1.3117 -4.0789
  383MOL0     H51663   0.239   0.039   7.382  2.6198 -1.9624 -2.0431
  383MOL0     H51664   0.249   0.167   7.267 -1.0266  2.0311  1.9029
  383MOL0     H51665   0.261   0.241   7.712 -0.0363 -1.6078 -0.9725
  383MOL0     H51666   0.045   0.208   7.858  0.3724 -0.0830  0.2310
  383MOL0     H51667  -0.350   0.374   8.007  0.1177 -0.2344  1.1517
  383MOL0     H51668  -0.553   0.357   8.118 -1.3805 -1.5774 -0.6490
  383MOL0     H51669  -0.745  -0.036   8.265  0.0556 -0.1000 -0.1259
  383MOL0     H51670  -0.868   0.078   8.241 -0.8584 -0.3153 -0.3319
  383MOL0     H51671  -0.766  -0.053   7.983 -1.8418  1.1714 -2.1865
  383MOL0     H51672  -0.878  -0.135   8.097 -4.0727  1.5879 -0.9634
  383MOL0     H51673  -1.031  -0.022   7.957  0.1950  1.2130 -2.6468
  383MOL0     H51674  -1.015   0.103   8.066 -0.1130  0.2340 -0.4761
  383MOL0     H51675  -0.855   0.078   7.799 -1.6235 -0.5717 -0.1095
  383MOL0     H51676  -0.851   0.214   7.914 -1.6160  0.6032 -1.4452
  383MOL0     H51677  -1.090   0.242   7.871  2.8169 -0.9766  1.7175
  383MOL0     H51678  -1.084   0.109   7.755 -0.3765 -0.6516  0.2361
  383MOL0     H51679  -0.919   0.247   7.609  0.7055  0.5073  0.8825
  383MOL0     H51680  -1.078   0.317   7.621 -0.0888 -2.7772 -1.4441
  383MOL0     H51681  -0.860   0.454   7.624 -0.1185  1.2477  0.0452
  383MOL0     H51682  -0.811   0.376   7.772  0.6293 -2.0857 -1.5304
  383MOL0     H51683  -0.913   0.616   7.795 -1.9723  0.5713 -1.4038
  383MOL0     H51684  -1.068   0.557   7.758  0.2667  1.4430  1.8105
  383MOL0     H51685  -0.548  -0.070   8.090 -2.1551  2.3440  1.0920
  383MOL0     H51686  -0.343  -0.052   7.950 -1.8932 -2.2008  2.5410
  383MOL0     H51687  -0.171   0.153   7.498  0.1011  0.2361  0.0626
  383MOL0     H51688   0.039   0.181   7.368  3.3488  1.8960 -1.0486
  383MOL0     H51689   1.025   1.078   6.260  0.5956 -0.7714  0.8675
  383MOL0     H51690   1.010   0.989   6.018  0.1255  4.1616  0.0984
  383MOL0     H51691   1.400   0.873   5.552 -0.6235  0.2424  2.8040
  383MOL0     H51692   1.304   0.897   5.309 -2.9122  1.4259 -0.7033
  383MOL0     H51693   1.060   0.775   5.050 -1.4215  1.9309 -0.9284
  383MOL0     H51694   1.217   0.805   5.130 -0.0948  0.7552 -0.8760
  383MOL0     H51695   1.157   1.030   5.036 -2.1242  2.8725  0.8522
  383MOL0     H51696   1.089   1.033   5.202  0.5580  1.1005  0.2811
  383MOL0     H51697   0.923   1.121   5.072  2.1012 -0.8001  4.4883
  383MOL0     H51698   0.878   0.961   5.113  1.1474 -0.6688  2.0506
  383MOL0     H51699   0.959   0.863   4.890  0.8144 -0.1769  2.5138
  383MOL0     H51700   0.820   0.977   4.879 -0.8070 -0.3009  0.2628
  383MOL0     H51701   1.178   1.133   4.679 -4.1702  2.5304 -1.1421
  383MOL0     H51702   0.930   0.805   5.470 -0.3441  0.2493  2.5423
  383MOL0     H51703   0.972   0.910   5.760 -0.2490  0.3381 -1.9980
  383MOL0     H51704   0.883   0.784   5.673  1.2715 -2.4573 -0.4049
  383MOL0     H51705   1.014   0.732   5.789  2.0637 -0.1607  0.2162
  384MOL0     O51706   7.609   9.433  10.571  0.2907  0.0019  0.9367
  384MOL0     C51707   7.620   9.485  10.687 -0.5323  0.9407 -0.9366
  384MOL0     O51708   7.722   9.456  10.772 -0.6634 -0.1023  0.1381
  384MOL0     C51709   7.821   9.366  10.750 -0.8964  0.1837  0.0593
  384MOL0     C51710   7.852   9.278  10.851  0.5109  0.2349 -0.0819
  384MOL0     C51711   7.964   9.206  10.857  0.0097 -0.2241 -0.2876
  384MOL0     C51712   8.052   9.222  10.746 -0.0714 -0.1416 -0.6227
  384MOL0     O51713   8.163   9.146  10.727  0.1770  0.5236 -0.0080
  384MOL0     C51714   8.183   9.032  10.806 -0.7196 -0.1094 -0.2000
  384MOL0     C51715   8.306   8.953  10.762 -0.5005 -0.6177  1.0050
  384MOL0     C51716   8.435   9.040  10.789 -0.4891  0.4048  0.5591
  384MOL0     C51717   8.558   8.942  10.775 -0.3222  0.4713  0.3136
  384MOL0     C51718   8.607   8.902  10.631 -0.9083 -0.7300  0.4825
  384MOL0     C51719   8.717   8.791  10.647 -0.5191  0.6619  0.8172
  384MOL0     C51720   8.780   8.755  10.507  1.0605  0.4756 -0.2703
  384MOL0     C51721   8.878   8.864  10.467  0.1096  0.9992  0.1458
  384MOL0     N51722   8.936   8.822  10.333  0.3132 -0.2795 -0.6728
  384MOL0     C51723   9.067   8.830  10.301  0.6173  0.1521 -0.1538
  384MOL0     C51724   9.064   8.777  10.171 -0.6625 -0.1577 -0.5978
  384MOL0     C51725   9.168   8.758  10.055 -0.3671 -1.1146 -0.0480
  384MOL0     C51726   9.281   8.861  10.056  0.1865  0.4516 -0.0449
  384MOL0     C51727   9.237   8.998   9.999  0.1019  0.7789  0.8508
  384MOL0     C51728   9.345   9.101  10.015 -0.5060  0.8954  1.0332
  384MOL0     O51729   9.343   9.145  10.149 -0.1372  1.3634 -0.2048
  384MOL0     C51730   9.461   9.153  10.222  0.2310 -0.7636 -0.5891
  384MOL0     C51731   9.470   9.263  10.309  0.4499 -0.2542  0.1456
  384MOL0     C51732   9.579   9.284  10.400 -1.5902  0.5802 -0.1421
  384MOL0     C51733   9.695   9.201  10.401 -0.0241  0.9724 -0.4144
  384MOL0     C51734   9.810   9.203  10.482 -0.3229  0.6439  0.1009
  384MOL0     O51735   9.804   9.305  10.580  0.1428  0.0472 -0.1045
  384MOL0     C51736   9.915   9.318  10.658  0.0415 -0.2978  0.6004
  384MOL0     C51737   9.986   9.437  10.652  0.7902 -0.1030 -0.4049
  384MOL0     C51738  10.114   9.447  10.721  0.2138  0.0575 -1.1042
  384MOL0     C51739  10.150   9.352  10.824 -0.6949 -0.0181  0.4293
  384MOL0     O51740  10.260   9.383  10.902  0.4852  0.1974  0.2588
  384MOL0     C51741  10.238   9.401  11.041 -0.6732 -0.3059 -1.3950
  384MOL0     C51742  10.367   9.454  11.097  0.0418  0.2786  0.9013
  384MOL0     C51743  10.357   9.539  11.231  0.3045  0.3697 -0.6917
  384MOL0     C51744  10.483   9.539  11.315  0.9027  0.8026  0.0381
  384MOL0     C51745  10.466   9.605  11.442 -0.2093  0.0825  0.9512
  384MOL0     C51746  10.599   9.614  11.512  0.4633  0.3128  0.2212
  384MOL0     C51747  10.577   9.679  11.654 -0.3033 -0.2528  1.0177
  384MOL0     C51748  10.715   9.730  11.707  0.6167  0.7260  1.0403
  384MOL0    Cl51749  10.792   9.589  11.794 -0.3687  0.2337  0.3069
  384MOL0     C51750  10.082   9.224  10.831  0.3536 -1.6151  0.4284
  384MOL0     C51751   9.970   9.214  10.743  0.2965 -0.4529  0.0981
  384MOL0     O51752   9.899   9.116  10.473 -0.3254 -0.5610 -0.6028
  384MOL0     C51753   9.686   9.096  10.307 -0.0121 -1.0245 -0.4915
  384MOL0     C51754   9.573   9.072  10.220  0.0739  0.8621 -0.0433
  384MOL0     N51755   8.935   8.760  10.130 -0.2415 -0.0137  1.0868
  384MOL0     N51756   8.863   8.784  10.227  0.2271 -0.1486  0.4515
  384MOL0     C51757   8.024   9.312  10.636  0.3419  1.0366  0.8443
  384MOL0     C51758   7.904   9.383  10.632 -0.3504 -0.0742 -1.3480
  384MOL0     C51759   7.517   9.563  10.755  1.0761  0.5219  0.1849
  384MOL0     C51760   7.480   9.534  10.889  0.2447  0.3441  0.8212
  384MOL0     C51761   7.367   9.589  10.951 -0.3210 -0.3268 -0.2980
  384MOL0     C51762   7.308   9.702  10.889 -0.1655 -0.2497  0.2556
  384MOL0     O51763   7.199   9.770  10.931  0.1571  0.4962  0.1003
  384MOL0     C51764   7.133   9.734  11.048  0.9000 -0.7046 -0.5482
  384MOL0     C51765   7.061   9.847  11.115 -0.6043 -0.3645  0.4330
  384MOL0     C51766   6.935   9.897  11.035  0.1142  0.1449  0.5006
  384MOL0     C51767   6.904  10.047  11.056  1.0277  0.2485 -0.6605
  384MOL0     C51768   6.847  10.062  11.192 -0.8565  0.4997  0.3019
  384MOL0     C51769   6.798  10.070  11.302  0.9237  0.5361 -0.2670
  384MOL0     C51770   7.347   9.734  10.757  0.0060  0.7986 -0.7808
  384MOL0     C51771   7.450   9.667  10.695  0.4849 -0.8304  0.7089
  384MOL0     C51772   7.481   9.709  10.554 -0.0344 -0.6017  0.2585
  384MOL0     H51773   7.787   9.295  10.936 -0.9931  0.9014 -1.3064
  384MOL0     H51774   8.003   9.145  10.938 -1.0975  0.5148  0.8587
  384MOL0     H51775   8.200   9.049  10.913 -1.9417 -0.7735  0.1215
  384MOL0     H51776   8.086   8.981  10.795 -1.9955  1.3191  3.0517
  384MOL0     H51777   8.299   8.941  10.653 -1.3443  1.1325  0.8163
  384MOL0     H51778   8.312   8.856  10.811  0.2794 -0.7027  0.7487
  384MOL0     H51779   8.427   9.099  10.881  2.7586  0.8041  0.6893
  384MOL0     H51780   8.440   9.113  10.707 -4.7297 -0.8432 -1.0793
  384MOL0     H51781   8.636   8.974  10.844 -0.3557 -0.7948  0.9777
  384MOL0     H51782   8.547   8.846  10.827  2.2929 -1.0486 -1.6855
  384MOL0     H51783   8.527   8.877  10.561 -1.9145  1.3640  0.8131
  384MOL0     H51784   8.638   8.998  10.589 -1.2466 -0.0687  1.6832
  384MOL0     H51785   8.797   8.812  10.718  0.7792  4.0995 -1.4147
  384MOL0     H51786   8.666   8.699  10.678  0.0417 -0.4740 -1.3560
  384MOL0     H51787   8.696   8.757  10.436 -0.3137  1.0622  1.3123
  384MOL0     H51788   8.826   8.657  10.516  1.0552  0.6568  2.6342
  384MOL0     H51789   8.824   8.959  10.460 -1.5626  0.2066  1.4672
  384MOL0     H51790   8.958   8.888  10.537  1.8754  3.1269 -2.3913
  384MOL0     H51791   9.153   8.859  10.360  1.4837 -1.3804 -0.6089
  384MOL0     H51792   9.216   8.661  10.072 -1.2156 -1.1400  2.6078
  384MOL0     H51793   9.126   8.759   9.954  0.2582  3.1338 -0.4687
  384MOL0     H51794   9.321   8.882  10.156  1.8706  1.5411 -0.8973
  384MOL0     H51795   9.368   8.825  10.000  0.7961  0.2303  1.0025
  384MOL0     H51796   9.136   9.022  10.033 -0.5370 -2.8043  1.8455
  384MOL0     H51797   9.231   8.985   9.891  1.0572 -2.1956  1.0738
  384MOL0     H51798   9.331   9.186   9.947  3.0976 -0.2872 -1.4860
  384MOL0     H51799   9.435   9.046   9.988 -0.4767  2.6603 -3.1941
  384MOL0     H51800   9.389   9.336  10.311 -1.0176 -1.8417  1.6515
  384MOL0     H51801   9.576   9.362  10.476 -3.9383 -1.0889  1.6464
  384MOL0     H51802   9.950   9.522  10.595  2.1121 -0.5837 -2.0396
  384MOL0     H51803  10.183   9.531  10.717 -0.2686  0.6580  1.6522
  384MOL0     H51804  10.157   9.470  11.066 -1.6108 -1.0631 -2.2633
  384MOL0     H51805  10.210   9.310  11.095 -0.4125 -0.0860 -0.8780
  384MOL0     H51806  10.427   9.363  11.112  0.3569  0.2220 -0.5405
  384MOL0     H51807  10.419   9.504  11.014 -3.2210  2.4847  0.0040
  384MOL0     H51808  10.327   9.640  11.199 -2.4368  0.8618  2.8847
  384MOL0     H51809  10.279   9.495  11.293  2.5207  0.0819  2.0863
  384MOL0     H51810  10.566   9.583  11.259  1.4330  0.9172  0.8994
  384MOL0     H51811  10.512   9.437  11.340  1.8387  1.3681  1.3645
  384MOL0     H51812  10.394   9.560  11.511  0.0119 -0.8238  0.6039
  384MOL0     H51813  10.421   9.701  11.416 -1.8740 -1.5985 -3.1838
  384MOL0     H51814  10.633   9.513  11.537  1.6981  0.4034 -0.9513
  384MOL0     H51815  10.670   9.665  11.447  0.4526 -1.6387 -1.4086
  384MOL0     H51816  10.527   9.612  11.724  1.1560  0.3291  2.7073
  384MOL0     H51817  10.507   9.761  11.636 -0.9907 -1.1680 -0.7634
  384MOL0     H51818  10.785   9.763  11.630 -0.8208  0.6283 -0.3728
  384MOL0     H51819  10.687   9.808  11.778 -5.3726 -2.2097  2.6438
  384MOL0     H51820  10.112   9.154  10.907 -0.5273  0.3090  2.6682
  384MOL0     H51821   9.904   9.127  10.751  0.2767 -0.4227  0.2634
  384MOL0     H51822   9.768   9.025  10.301  2.5545  1.5404  1.1581
  384MOL0     H51823   9.580   8.987  10.153  0.8044  0.1002  0.9630
  384MOL0     H51824   8.097   9.319  10.555  0.6846 -1.4792  0.8459
  384MOL0     H51825   7.879   9.453  10.553 -0.0128  1.1488 -0.3932
  384MOL0     H51826   7.534   9.456  10.942 -1.4914 -0.2216  1.8483
  384MOL0     H51827   7.351   9.549  11.051  2.8485  1.7458  1.1996
  384MOL0     H51828   7.209   9.700  11.119  0.5779 -3.6822 -1.4760
  384MOL0     H51829   7.063   9.653  11.025 -0.5325  0.4464 -0.3729
  384MOL0     H51830   7.132   9.931  11.115 -2.7489  1.5949 -1.7249
  384MOL0     H51831   7.036   9.820  11.218 -0.6814 -1.3976  0.1525
  384MOL0     H51832   6.847   9.836  11.060 -0.2955 -0.3411 -1.8168
  384MOL0     H51833   6.949   9.886  10.927 -0.8986 -1.6590  0.5046
  384MOL0     H51834   6.996  10.105  11.046  1.7678 -0.6953  0.3503
  384MOL0     H51835   6.825  10.074  10.985 -0.5856  0.3028  1.0685
  384MOL0     H51836   6.756  10.054  11.399 -1.8464  2.0133 -1.1011
  384MOL0     H51837   7.283   9.801  10.701 -1.2615 -0.0909 -0.4415
  384MOL0     H51838   7.588   9.688  10.548 -0.3532 -2.4117  0.2996
  384MOL0     H51839   7.427   9.642  10.486 -1.8288  0.0376  0.9878
  384MOL0     H51840   7.461   9.809  10.516  0.0705 -0.8450 -0.4582
  385MOL0     O51841   9.796   2.732   7.803 -0.0326  0.3830 -0.5207
  385MOL0     C51842   9.759   2.656   7.716 -0.2829  0.3391  0.5403
  385MOL0     O51843   9.632   2.623   7.670 -0.5364 -1.2158  0.1126
  385MOL0     C51844   9.531   2.640   7.765 -0.4868  0.5243  0.9340
  385MOL0     C51845   9.478   2.768   7.785  0.7475  0.4292 -0.8175
  385MOL0     C51846   9.377   2.781   7.883 -0.5141 -0.5824 -0.3895
  385MOL0     C51847   9.319   2.679   7.949  0.7343  0.2500  1.2773
  385MOL0     O51848   9.246   2.708   8.066 -0.0439  0.8071  0.1731
  385MOL0     C51849   9.293   2.659   8.196  0.0850  0.1484 -0.3892
  385MOL0     C51850   9.259   2.756   8.310 -0.5564 -0.0684 -0.8409
  385MOL0     C51851   9.340   2.893   8.304  0.5217  0.0115  0.8230
  385MOL0     C51852   9.300   2.991   8.413 -1.1599 -0.0254  0.4551
  385MOL0     C51853   9.407   3.092   8.442  0.1117  0.5103  0.1026
  385MOL0     C51854   9.462   3.173   8.311 -0.1751 -0.2652 -0.7435
  385MOL0     C51855   9.584   3.255   8.364 -0.1916 -0.1947 -0.6458
  385MOL0     C51856   9.536   3.367   8.458  0.0727  0.0854  0.4865
  385MOL0     N51857   9.635   3.472   8.482 -0.4942 -0.4324  0.5945
  385MOL0     C51858   9.757   3.464   8.539  0.0120  0.6628 -0.8733
  385MOL0     C51859   9.821   3.586   8.528  0.0566  1.0268  0.3784
  385MOL0     C51860   9.960   3.634   8.555 -1.3959  0.2935  0.7943
  385MOL0     C51861  10.002   3.650   8.701 -0.2987 -0.1673 -0.5271
  385MOL0     C51862   9.894   3.718   8.792 -0.0895  0.1798  0.0847
  385MOL0     C51863   9.889   3.862   8.762 -0.5255 -0.2883 -0.0074
  385MOL0     O51864   9.808   3.923   8.863 -1.1274  0.0018  1.4301
  385MOL0     C51865   9.694   3.987   8.819  0.3756 -0.0567 -0.9783
  385MOL0     C51866   9.683   4.063   8.703 -0.1920  0.1875 -0.1536
  385MOL0     C51867   9.565   4.132   8.670  0.2518  0.2816 -0.1132
  385MOL0     C51868   9.456   4.141   8.767 -0.3699  0.1546 -0.0183
  385MOL0     C51869   9.346   4.230   8.746 -0.0509 -0.1927  0.7918
  385MOL0     O51870   9.366   4.303   8.631  0.5732  0.1550 -0.0902
  385MOL0     C51871   9.261   4.366   8.565 -0.4204  0.2994 -0.2367
  385MOL0     C51872   9.150   4.430   8.632 -0.4186 -0.8142 -0.3916
  385MOL0     C51873   9.040   4.483   8.559 -1.2367  0.1616 -0.1814
  385MOL0     C51874   9.051   4.480   8.421  0.3965  0.4800 -0.7390
  385MOL0     O51875   8.945   4.537   8.356 -0.5459  0.3786 -0.5902
  385MOL0     C51876   8.980   4.647   8.269  0.6843  0.5268 -0.6320
  385MOL0     C51877   8.858   4.692   8.183 -1.0098  0.3855 -0.0883
  385MOL0     C51878   8.801   4.591   8.085  0.4095  0.2752  0.5116
  385MOL0     C51879   8.895   4.542   7.966 -0.6464  0.3434 -0.1962
  385MOL0     C51880   8.845   4.400   7.918 -0.6270  0.1277 -0.4180
  385MOL0     C51881   8.705   4.404   7.861 -0.7644  1.0445  0.7803
  385MOL0     C51882   8.681   4.281   7.774  0.1092 -0.1314 -0.2562
  385MOL0     C51883   8.712   4.315   7.628  0.2275 -1.0219  0.1587
  385MOL0    Cl51884   8.724   4.187   7.515 -0.5680  0.4751 -0.2103
  385MOL0     C51885   9.160   4.413   8.353 -0.4574  0.1040  1.2688
  385MOL0     C51886   9.260   4.350   8.427  0.1794 -0.7696 -0.1798
  385MOL0     O51887   9.241   4.215   8.813  0.0653 -0.6644  0.1991
  385MOL0     C51888   9.476   4.076   8.882 -0.4537 -0.8018 -0.3429
  385MOL0     C51889   9.586   3.994   8.905 -0.4755  0.2823  0.0818
  385MOL0     N51890   9.731   3.664   8.449  0.5440  0.6154  0.1394
  385MOL0     N51891   9.639   3.585   8.407 -0.7725 -1.4793  0.0350
  385MOL0     C51892   9.368   2.546   7.922 -0.3377 -0.0228 -0.2015
  385MOL0     C51893   9.474   2.529   7.826 -0.1200 -0.9666 -0.1942
  385MOL0     C51894   9.865   2.615   7.611  0.1605  0.4791 -0.6444
  385MOL0     C51895   9.824   2.598   7.477  0.2443  0.0986  0.7306
  385MOL0     C51896   9.920   2.575   7.378 -0.0894 -0.8306  0.4457
  385MOL0     C51897  10.048   2.563   7.412 -0.6953  0.1023 -0.5112
  385MOL0     O51898  10.126   2.537   7.296  0.0432 -0.0054  0.7877
  385MOL0     C51899  10.269   2.561   7.297 -0.2424  0.1789  0.0292
  385MOL0     C51900  10.328   2.594   7.157 -0.2996  0.0847  0.9615
  385MOL0     C51901  10.253   2.700   7.081 -1.1045  0.1065  0.1121
  385MOL0     C51902  10.335   2.778   6.988 -0.0402  0.3121 -0.6101
  385MOL0     C51903  10.441   2.851   7.053 -1.1338 -0.9452 -0.4570
  385MOL0     C51904  10.539   2.907   7.106 -1.2298 -0.2500 -0.3401
  385MOL0     C51905  10.090   2.582   7.544  0.4757 -0.7679  0.6503
  385MOL0     C51906  10.000   2.605   7.645 -1.0924 -0.2130 -0.1730
  385MOL0     C51907  10.067   2.635   7.779 -0.0159 -0.2232 -0.6848
  385MOL0     H51908   9.516   2.856   7.734  2.0975  0.1167 -0.3740
  385MOL0     H51909   9.343   2.881   7.910 -1.5007 -1.7255  3.1241
  385MOL0     H51910   9.229   2.572   8.211  0.0571  0.3178  0.4955
  385MOL0     H51911   9.397   2.625   8.190 -0.2738 -0.8335 -1.5432
  385MOL0     H51912   9.276   2.709   8.407 -2.1960 -2.1426 -1.4859
  385MOL0     H51913   9.153   2.781   8.304 -0.6811 -0.6473 -1.0441
  385MOL0     H51914   9.324   2.944   8.208  0.8427 -0.8057  0.3200
  385MOL0     H51915   9.446   2.866   8.311  0.3074 -0.6973  1.4334
  385MOL0     H51916   9.215   3.044   8.370 -0.6953 -0.4836 -1.0997
  385MOL0     H51917   9.289   2.929   8.503  2.1132  0.5318  1.3970
  385MOL0     H51918   9.375   3.161   8.522 -2.5218  1.5503 -1.6825
  385MOL0     H51919   9.488   3.032   8.483 -0.2561 -1.7372 -2.2010
  385MOL0     H51920   9.494   3.097   8.240  0.6632  1.4127 -2.2222
  385MOL0     H51921   9.379   3.234   8.274 -1.9760 -2.0419  0.1408
  385MOL0     H51922   9.639   3.317   8.293  0.7498  1.0340  1.0760
  385MOL0     H51923   9.651   3.191   8.422  0.0971 -0.2300 -1.0213
  385MOL0     H51924   9.453   3.415   8.405 -0.3821 -0.9092  0.2765
  385MOL0     H51925   9.508   3.328   8.556 -2.0825  2.7926  1.0928
  385MOL0     H51926   9.800   3.377   8.587 -3.0614 -0.7905 -0.5076
  385MOL0     H51927  10.034   3.570   8.507  0.3676  1.8584  1.3062
  385MOL0     H51928   9.971   3.734   8.512  1.6106  0.3355  1.4650
  385MOL0     H51929  10.028   3.555   8.747 -0.3021  0.5612  1.0501
  385MOL0     H51930  10.091   3.712   8.710 -1.9597  2.4017 -0.6124
  385MOL0     H51931   9.926   3.701   8.895  0.9493  0.6681 -0.1507
  385MOL0     H51932   9.796   3.670   8.777 -1.7431  2.7017  1.9197
  385MOL0     H51933   9.855   3.886   8.661 -0.0320 -0.1932 -0.1503
  385MOL0     H51934   9.986   3.911   8.760 -2.1164  3.1246 -1.3258
  385MOL0     H51935   9.771   4.058   8.639 -1.0805 -1.2536 -1.3405
  385MOL0     H51936   9.559   4.179   8.573 -2.0123 -3.4806 -2.0334
  385MOL0     H51937   9.153   4.438   8.741 -1.5062  1.8456 -0.4804
  385MOL0     H51938   8.951   4.514   8.613 -0.9681 -0.4002  0.5940
  385MOL0     H51939   9.006   4.726   8.340  3.2827 -0.3770 -0.4667
  385MOL0     H51940   9.065   4.641   8.200  0.8532 -0.9097 -0.3321
  385MOL0     H51941   8.776   4.716   8.251  0.1712 -1.5695  2.1915
  385MOL0     H51942   8.891   4.786   8.137 -1.5615  2.1272  2.8146
  385MOL0     H51943   8.759   4.502   8.134  0.8183  1.3939  3.0295
  385MOL0     H51944   8.711   4.641   8.049  1.0358  0.3650 -1.0295
  385MOL0     H51945   9.000   4.531   7.993 -0.9340 -2.7983  0.0785
  385MOL0     H51946   8.898   4.602   7.875  0.7402 -2.5652 -2.2378
  385MOL0     H51947   8.843   4.337   8.007 -3.0039  2.5032  1.3803
  385MOL0     H51948   8.917   4.354   7.850  2.1448 -2.2136  3.6143
  385MOL0     H51949   8.632   4.405   7.943 -1.9875  0.2387 -0.2588
  385MOL0     H51950   8.693   4.506   7.821 -0.0868  1.6535  2.0557
  385MOL0     H51951   8.577   4.247   7.777  0.0831 -0.7147 -3.8755
  385MOL0     H51952   8.737   4.196   7.814 -2.3141 -1.0055  1.5016
  385MOL0     H51953   8.637   4.382   7.585 -0.8873 -2.6604 -0.5467
  385MOL0     H51954   8.809   4.366   7.620  0.0699 -0.8370 -0.5657
  385MOL0     H51955   9.169   4.411   8.244  0.6176 -0.8028  1.3624
  385MOL0     H51956   9.333   4.293   8.371 -0.4911 -0.2526 -1.6307
  385MOL0     H51957   9.420   4.078   8.975 -0.0032 -1.8055 -0.0343
  385MOL0     H51958   9.588   3.943   9.001 -2.3491  2.2057  1.2453
  385MOL0     H51959   9.319   2.462   7.970 -1.0081 -0.6688 -1.9206
  385MOL0     H51960   9.506   2.429   7.797 -1.7504 -0.5997 -3.6836
  385MOL0     H51961   9.721   2.610   7.444  0.6887  3.0752  0.1127
  385MOL0     H51962   9.883   2.554   7.278 -0.8267  2.2890 -0.0558
  385MOL0     H51963  10.312   2.464   7.326  0.9195  1.2335  2.0577
  385MOL0     H51964  10.307   2.635   7.368  0.0416 -1.2301  1.4067
  385MOL0     H51965  10.307   2.509   7.091 -1.3950  1.9749 -1.2376
  385MOL0     H51966  10.436   2.611   7.161  0.7380 -3.0474 -4.0567
  385MOL0     H51967  10.186   2.757   7.147 -0.3794 -0.5376  1.4349
  385MOL0     H51968  10.190   2.647   7.009  1.7324 -0.8377 -1.8335
  385MOL0     H51969  10.372   2.716   6.907  1.6269  2.8327 -1.9195
  385MOL0     H51970  10.255   2.839   6.945 -1.1626  0.1877  1.1790
  385MOL0     H51971  10.629   2.961   7.129 -1.8719  1.1834 -1.0304
  385MOL0     H51972  10.194   2.565   7.571  1.0210  0.9308 -0.2234
  385MOL0     H51973  10.157   2.574   7.789  1.4157  2.0749  1.5845
  385MOL0     H51974  10.092   2.741   7.794 -2.4697  0.4223 -0.7479
  385MOL0     H51975  10.002   2.605   7.862  1.7698 -1.1984  0.4215
  386MOL0     O51976   8.154   0.697   0.059  0.1382 -0.1087 -0.4438
  386MOL0     C51977   8.180   0.638  -0.045  0.6423 -0.2436  0.1530
  386MOL0     O51978   8.093   0.623  -0.143  0.7390 -0.2760  0.0522
  386MOL0     C51979   7.956   0.638  -0.132  1.0112 -0.4622  0.1280
  386MOL0     C51980   7.900   0.603  -0.010 -0.4678  0.6220 -0.8513
  386MOL0     C51981   7.770   0.619   0.021  0.8624 -0.2297  0.2509
  386MOL0     C51982   7.695   0.680  -0.075 -0.1419 -0.5975  0.3520
  386MOL0     O51983   7.563   0.688  -0.045  0.2864  1.5028 -0.6579
  386MOL0     C51984   7.463   0.744  -0.128  0.0139 -0.6510 -0.2934
  386MOL0     C51985   7.418   0.890  -0.091  0.4879  0.4486  0.4576
  386MOL0     C51986   7.487   0.984  -0.189 -1.1492  1.0568 -0.2631
  386MOL0     C51987   7.460   1.132  -0.148  0.0273 -0.6027 -0.0737
  386MOL0     C51988   7.513   1.238  -0.248  0.3745  0.2158  0.2704
  386MOL0     C51989   7.489   1.381  -0.195 -1.1589 -0.7477 -1.2227
  386MOL0     C51990   7.349   1.433  -0.230 -0.3295  0.2620 -0.4019
  386MOL0     C51991   7.341   1.583  -0.262  1.1821  0.3886  0.3959
  386MOL0     N51992   7.354   1.630  -0.404  0.4538  0.1513 -0.1931
  386MOL0     C51993   7.281   1.723  -0.462  0.0829 -0.3192  0.2062
  386MOL0     C51994   7.323   1.722  -0.591  0.2166  0.2674 -0.4457
  386MOL0     C51995   7.249   1.804  -0.695  0.1941  0.1169 -0.3328
  386MOL0     C51996   7.170   1.709  -0.790 -0.2952  0.5297  0.5650
  386MOL0     C51997   7.253   1.638  -0.886  0.4675  0.0250  0.4947
  386MOL0     C51998   7.168   1.581  -1.007  0.5901  1.1022 -0.6040
  386MOL0     O51999   7.070   1.477  -0.976  0.0500 -0.5974 -0.5193
  386MOL0     C52000   6.947   1.496  -1.020 -0.9578  0.6269 -1.0654
  386MOL0     C52001   6.850   1.570  -0.942 -0.2302 -0.4455  0.3575
  386MOL0     C52002   6.732   1.593  -0.994  0.4697  0.4036  0.1741
  386MOL0     C52003   6.677   1.531  -1.108  0.8711  0.2474  0.5959
  386MOL0     C52004   6.535   1.566  -1.163  1.3340 -0.4879  0.2938
  386MOL0     O52005   6.520   1.544  -1.296 -0.5423  1.3577 -0.2609
  386MOL0     C52006   6.391   1.563  -1.340 -0.2753  0.1846  0.3534
  386MOL0     C52007   6.366   1.677  -1.412  0.5130  0.0051  0.6555
  386MOL0     C52008   6.238   1.700  -1.468  0.1278 -0.8395 -0.4907
  386MOL0     C52009   6.141   1.601  -1.470  0.3397  1.0317 -0.7393
  386MOL0     O52010   6.019   1.638  -1.519  0.4024  0.4918 -0.3438
  386MOL0     C52011   5.937   1.526  -1.557  0.1004  0.5648  0.8868
  386MOL0     C52012   5.812   1.572  -1.637 -0.4829  0.0558 -0.1846
  386MOL0     C52013   5.714   1.631  -1.543  0.4042 -0.2118 -0.2632
  386MOL0     C52014   5.702   1.788  -1.555 -0.6432 -0.4508  0.5468
  386MOL0     C52015   5.579   1.857  -1.484  0.4995 -0.5170  0.0014
  386MOL0     C52016   5.571   1.837  -1.334 -0.0006 -0.4835 -0.2749
  386MOL0     C52017   5.692   1.912  -1.265 -0.9558  0.5751  0.2055
  386MOL0     C52018   5.674   1.895  -1.116  0.6563  0.5074 -0.2772
  386MOL0    Cl52019   5.536   2.002  -1.069 -0.0283 -0.2242 -0.1429
  386MOL0     C52020   6.172   1.483  -1.400  0.4919  0.3649 -0.5244
  386MOL0     C52021   6.299   1.456  -1.340 -0.5019 -0.6924  0.5824
  386MOL0     O52022   6.450   1.627  -1.092 -0.9010 -0.9677 -0.2727
  386MOL0     C52023   6.769   1.461  -1.183 -1.4195  0.3606 -0.2285
  386MOL0     C52024   6.908   1.444  -1.142 -0.0053 -0.8329 -0.2449
  386MOL0     N52025   7.429   1.635  -0.608  0.4901 -0.2320  0.7094
  386MOL0     N52026   7.449   1.575  -0.492  0.7227  0.2535  0.2250
  386MOL0     C52027   7.753   0.729  -0.194  0.5803  1.3667  0.3237
  386MOL0     C52028   7.882   0.700  -0.226 -0.5163  0.3089 -0.2378
  386MOL0     C52029   8.308   0.568  -0.042  2.1243  0.7075  0.7838
  386MOL0     C52030   8.324   0.457   0.043 -0.4130 -0.0035  0.5510
  386MOL0     C52031   8.454   0.398   0.045 -0.5686  0.0504  0.0816
  386MOL0     C52032   8.546   0.432  -0.058  1.0913  0.2254  0.1695
  386MOL0     O52033   8.667   0.369  -0.085 -0.3444  0.2084 -0.7325
  386MOL0     C52034   8.664   0.286  -0.203 -0.2636  0.6042  0.3638
  386MOL0     C52035   8.800   0.230  -0.245  0.0167 -0.3132 -0.3391
  386MOL0     C52036   8.868   0.148  -0.133  0.5236  0.5196  1.2423
  386MOL0     C52037   8.874   0.196   0.007 -0.6086 -0.7232  0.1326
  386MOL0     C52038   8.968   0.111   0.090 -0.0312 -0.1011 -0.4278
  386MOL0     C52039   9.040   0.028   0.144  0.9674 -0.1259  0.1225
  386MOL0     C52040   8.526   0.539  -0.140  0.8653  0.4432 -1.0383
  386MOL0     C52041   8.406   0.610  -0.127  0.4851  0.3993  0.1053
  386MOL0     C52042   8.377   0.727  -0.218  0.1989 -0.4754 -0.2003
  386MOL0     H52043   7.952   0.545   0.066 -0.1533 -0.9419 -2.2056
  386MOL0     H52044   7.722   0.593   0.114  0.9955 -0.4008  0.2709
  386MOL0     H52045   7.490   0.738  -0.234  0.3556  1.2110 -0.3574
  386MOL0     H52046   7.369   0.689  -0.125 -3.2236  4.2248 -0.5586
  386MOL0     H52047   7.444   0.923   0.010  0.7320 -0.3417  0.6553
  386MOL0     H52048   7.313   0.905  -0.118  0.8826  3.5602  0.2752
  386MOL0     H52049   7.449   0.967  -0.291 -3.8107 -0.9019  0.9446
  386MOL0     H52050   7.592   0.952  -0.191 -2.0570 -2.3484 -1.4007
  386MOL0     H52051   7.352   1.150  -0.149 -0.3224 -2.4407 -1.8628
  386MOL0     H52052   7.499   1.131  -0.046 -2.5654 -1.2524  0.9956
  386MOL0     H52053   7.619   1.217  -0.263 -0.0078 -0.9676 -1.0781
  386MOL0     H52054   7.469   1.229  -0.348  1.2583  1.5237 -0.2535
  386MOL0     H52055   7.509   1.403  -0.089 -1.1862  0.1162 -1.3830
  386MOL0     H52056   7.561   1.437  -0.256  1.7491 -2.6651  0.1760
  386MOL0     H52057   7.286   1.404  -0.145  0.8525 -0.7183  0.1843
  386MOL0     H52058   7.324   1.382  -0.323  0.8338 -2.3693  0.6140
  386MOL0     H52059   7.243   1.610  -0.223  1.8904  2.5154  0.8187
  386MOL0     H52060   7.414   1.640  -0.204  1.6389  0.0977  0.1138
  386MOL0     H52061   7.199   1.778  -0.417 -0.5934 -0.1659 -1.1525
  386MOL0     H52062   7.185   1.873  -0.639 -2.3498 -2.3428  0.0713
  386MOL0     H52063   7.328   1.860  -0.745 -0.7629 -0.2036 -2.2976
  386MOL0     H52064   7.123   1.634  -0.725 -0.3138 -0.7474 -0.8658
  386MOL0     H52065   7.108   1.761  -0.863 -4.2606 -1.0196  2.5470
  386MOL0     H52066   7.303   1.556  -0.832 -0.7819  1.1204  3.5357
  386MOL0     H52067   7.327   1.704  -0.931  0.5305 -0.3949 -0.0302
  386MOL0     H52068   7.242   1.525  -1.064 -0.0200  0.1060 -0.4379
  386MOL0     H52069   7.130   1.652  -1.080  0.8228  0.3582 -1.4709
  386MOL0     H52070   6.889   1.629  -0.859 -1.5347  0.3344  0.4480
  386MOL0     H52071   6.663   1.651  -0.935 -1.8155 -0.1245 -1.8193
  386MOL0     H52072   6.447   1.750  -1.412  5.5712 -4.7406 -3.1994
  386MOL0     H52073   6.198   1.791  -1.511  0.1302 -1.3480 -1.6182
  386MOL0     H52074   6.006   1.460  -1.611 -0.5630 -0.8239  1.6875
  386MOL0     H52075   5.894   1.467  -1.476  5.0370 -0.2657  3.2899
  386MOL0     H52076   5.838   1.646  -1.713 -0.8741  1.5748  1.0962
  386MOL0     H52077   5.771   1.485  -1.689  0.0816 -0.5339  0.3355
  386MOL0     H52078   5.622   1.577  -1.568  0.7403 -0.8979 -0.0486
  386MOL0     H52079   5.739   1.611  -1.438 -2.1563  3.2599  1.1915
  386MOL0     H52080   5.702   1.801  -1.664 -2.6681 -0.6192  0.4913
  386MOL0     H52081   5.791   1.838  -1.513  2.1078 -4.6932  0.3266
  386MOL0     H52082   5.490   1.804  -1.522  0.4777  0.0751 -0.8137
  386MOL0     H52083   5.546   1.960  -1.504  2.3981 -0.0166 -0.7475
  386MOL0     H52084   5.472   1.875  -1.306  1.1548  1.5629  1.3191
  386MOL0     H52085   5.575   1.729  -1.318  0.3306 -0.3214  0.8076
  386MOL0     H52086   5.682   2.016  -1.294 -0.7796  0.6708  0.4802
  386MOL0     H52087   5.789   1.873  -1.296 -1.1752  0.0964  0.1057
  386MOL0     H52088   5.662   1.789  -1.093  0.5256  0.7838  0.9926
  386MOL0     H52089   5.762   1.926  -1.059 -1.3082  3.6112  1.3910
  386MOL0     H52090   6.100   1.402  -1.402 -1.0998  1.6835  0.8262
  386MOL0     H52091   6.325   1.364  -1.288  0.4957  0.2594  1.8359
  386MOL0     H52092   6.733   1.404  -1.268 -0.9216 -1.9467  1.0244
  386MOL0     H52093   6.975   1.383  -1.202  0.5896  0.8460 -1.3653
  386MOL0     H52094   7.688   0.775  -0.268  0.9047  1.7634  0.2792
  386MOL0     H52095   7.929   0.716  -0.323 -1.6728  1.5491 -0.6276
  386MOL0     H52096   8.241   0.431   0.108  0.3998 -0.7028  1.3498
  386MOL0     H52097   8.457   0.324   0.125 -0.8311 -0.0228  0.0250
  386MOL0     H52098   8.611   0.335  -0.285  0.0624 -0.0063 -0.2119
  386MOL0     H52099   8.602   0.199  -0.179  0.5033  0.2596  1.1594
  386MOL0     H52100   8.860   0.313  -0.285 -3.4527  2.2238 -0.7630
  386MOL0     H52101   8.788   0.161  -0.329  0.2021  0.7586 -1.2812
  386MOL0     H52102   8.972   0.137  -0.166 -0.0159  2.5435 -1.4368
  386MOL0     H52103   8.827   0.046  -0.131  1.8477 -0.0534  0.8698
  386MOL0     H52104   8.923   0.294   0.007  5.7333 -3.3805 -1.6954
  386MOL0     H52105   8.775   0.214   0.050 -0.1971  2.2215  0.0555
  386MOL0     H52106   9.104  -0.049   0.181  0.0398 -0.9198  0.1407
  386MOL0     H52107   8.606   0.552  -0.212 -1.0278 -0.7301 -3.4711
  386MOL0     H52108   8.454   0.730  -0.296  2.8255 -1.0437  2.2195
  386MOL0     H52109   8.275   0.734  -0.259  0.1553 -0.6961 -0.1264
  386MOL0     H52110   8.389   0.816  -0.156 -2.4400 -0.1837  0.0235
  387MOL0     O52111   1.123   0.325   9.793 -0.4582 -0.6883 -0.1999
  387MOL0     C52112   1.065   0.216   9.795 -0.6916  1.1034  0.6225
  387MOL0     O52113   1.051   0.122   9.687 -0.0854  0.3550 -0.4527
  387MOL0     C52114   1.097   0.153   9.566 -0.5108  0.1491 -0.3687
  387MOL0     C52115   1.084   0.279   9.503 -0.7644 -0.0961 -0.3779
  387MOL0     C52116   1.123   0.307   9.371 -0.5326 -0.0884  0.3627
  387MOL0     C52117   1.201   0.206   9.303 -1.7310  0.3824  0.2933
  387MOL0     O52118   1.260   0.225   9.183  0.0269 -0.1353 -0.1681
  387MOL0     C52119   1.286   0.361   9.139 -0.0054 -0.2996  0.4775
  387MOL0     C52120   1.361   0.366   9.013  0.7991  0.1458  0.5905
  387MOL0     C52121   1.374   0.511   8.956 -0.4376  0.1050  0.1312
  387MOL0     C52122   1.458   0.528   8.824  0.8683  0.5391  0.6503
  387MOL0     C52123   1.458   0.678   8.768 -0.4256 -0.0614  0.0436
  387MOL0     C52124   1.559   0.701   8.652 -0.4004 -0.6434 -1.4434
  387MOL0     C52125   1.522   0.635   8.513  0.0007 -0.7746 -0.5968
  387MOL0     C52126   1.396   0.692   8.463  0.4915 -0.2907  0.5466
  387MOL0     N52127   1.336   0.620   8.348  0.1151 -0.3374 -0.1809
  387MOL0     C52128   1.265   0.681   8.250  0.5536  0.3770  0.3542
  387MOL0     C52129   1.277   0.594   8.145  0.4806 -0.8334 -0.9641
  387MOL0     C52130   1.219   0.615   8.011  0.9476 -0.8147  1.2902
  387MOL0     C52131   1.143   0.500   7.962  0.5674 -0.7692  0.4548
  387MOL0     C52132   1.016   0.451   8.048  0.4700  0.1164 -0.3011
  387MOL0     C52133   0.910   0.568   8.084 -0.5378  1.4317  0.1719
  387MOL0     O52134   0.812   0.527   8.182  0.3400 -0.1197 -0.1376
  387MOL0     C52135   0.706   0.441   8.146  0.5519  0.0397 -0.1509
  387MOL0     C52136   0.635   0.397   8.255  0.1158  0.1578 -0.0064
  387MOL0     C52137   0.523   0.305   8.245  0.3185  0.1475 -0.0844
  387MOL0     C52138   0.486   0.259   8.117  0.4642  0.1802 -0.5379
  387MOL0     C52139   0.380   0.149   8.103 -1.6527  0.2897  0.0138
  387MOL0     O52140   0.315   0.097   8.213 -0.5115 -0.0693  0.8731
  387MOL0     C52141   0.224  -0.010   8.202 -0.1670 -0.3072  0.2996
  387MOL0     C52142   0.130  -0.020   8.099  0.5147  0.9405  0.8074
  387MOL0     C52143   0.043  -0.123   8.087  0.8332  0.1445  0.0265
  387MOL0     C52144   0.032  -0.222   8.185  0.2399 -1.1337 -0.2125
  387MOL0     O52145  -0.044  -0.332   8.191 -0.1034 -0.0378  0.8718
  387MOL0     C52146  -0.177  -0.329   8.121 -0.8420  0.0296 -0.4328
  387MOL0     C52147  -0.278  -0.429   8.189  0.0705 -0.7093 -1.2966
  387MOL0     C52148  -0.408  -0.434   8.110  0.7825  0.8476 -0.1526
  387MOL0     C52149  -0.537  -0.472   8.194 -0.2998 -0.1666 -0.4558
  387MOL0     C52150  -0.668  -0.480   8.106  0.7882 -0.4525  0.0968
  387MOL0     C52151  -0.783  -0.517   8.196  0.4833 -0.1277  0.0353
  387MOL0     C52152  -0.903  -0.580   8.119 -0.6447 -0.0686 -0.4378
  387MOL0     C52153  -0.997  -0.663   8.194  0.6280  0.4948 -0.9065
  387MOL0    Cl52154  -0.911  -0.807   8.253  0.9823 -0.1520  0.1653
  387MOL0     C52155   0.118  -0.211   8.297  1.0262  0.4037  0.0375
  387MOL0     C52156   0.210  -0.107   8.307 -1.4952  0.8636  0.3476
  387MOL0     O52157   0.353   0.119   7.991 -0.2770  0.0040 -0.9387
  387MOL0     C52158   0.554   0.313   8.008  0.3508 -0.6702  0.3457
  387MOL0     C52159   0.678   0.395   8.014 -0.5576  0.5866 -0.2220
  387MOL0     N52160   1.317   0.471   8.185 -0.4467 -0.3751  0.0900
  387MOL0     N52161   1.375   0.497   8.305 -0.4690 -0.1616  0.4183
  387MOL0     C52162   1.219   0.082   9.364 -1.0543  0.0377 -0.3863
  387MOL0     C52163   1.160   0.051   9.489  0.4300  0.2031  0.0510
  387MOL0     C52164   1.012   0.177   9.925 -0.1109 -0.4673 -0.8330
  387MOL0     C52165   0.931   0.267   9.997 -1.0101  0.9252  0.0452
  387MOL0     C52166   0.871   0.236  10.124 -0.1693 -0.1675 -0.3933
  387MOL0     C52167   0.893   0.099  10.170 -0.2193  0.3978 -0.1059
  387MOL0     O52168   0.844   0.064  10.294  0.6724  0.9015 -1.1049
  387MOL0     C52169   0.844  -0.080  10.325  0.2216 -0.5739  0.2195
  387MOL0     C52170   0.775  -0.095  10.456 -0.6198 -0.4908 -0.6782
  387MOL0     C52171   0.629  -0.140  10.462  0.0152  0.7825  0.0188
  387MOL0     C52172   0.610  -0.277  10.410 -0.4965  0.1193 -0.7971
  387MOL0     C52173   0.489  -0.350  10.448  0.9470 -0.5576 -0.1112
  387MOL0     C52174   0.395  -0.420  10.477  1.0010  1.8966 -0.9078
  387MOL0     C52175   0.975   0.012  10.099  0.4724 -0.1447  0.7825
  387MOL0     C52176   1.035   0.042   9.975 -0.2753  0.1834 -0.6594
  387MOL0     C52177   1.137  -0.047   9.913 -0.9334 -0.1425  0.8018
  387MOL0     H52178   1.027   0.351   9.561 -0.2073  2.1128 -2.4327
  387MOL0     H52179   1.110   0.412   9.347 -1.8148  0.9565  4.7177
  387MOL0     H52180   1.190   0.412   9.121 -1.1377 -2.7257 -0.8270
  387MOL0     H52181   1.339   0.406   9.223  1.0147  0.0379 -0.3243
  387MOL0     H52182   1.303   0.310   8.939  2.4311  1.5824 -1.9454
  387MOL0     H52183   1.457   0.318   9.026  1.7189  2.7387  6.2566
  387MOL0     H52184   1.411   0.584   9.028 -4.3232  3.9625 -1.3676
  387MOL0     H52185   1.278   0.560   8.938 -0.4391 -0.1299 -0.5308
  387MOL0     H52186   1.563   0.499   8.837  1.6798  3.7202  1.9903
  387MOL0     H52187   1.416   0.464   8.745 -0.2716 -1.8205  3.0049
  387MOL0     H52188   1.355   0.714   8.757 -0.1195  0.1794 -2.6062
  387MOL0     H52189   1.485   0.741   8.854  2.6114 -2.5659  1.1219
  387MOL0     H52190   1.569   0.808   8.634  0.1944 -0.4716 -0.1709
  387MOL0     H52191   1.656   0.655   8.673 -0.7076 -1.6468 -2.1210
  387MOL0     H52192   1.517   0.526   8.518 -2.5641 -0.6803  1.6568
  387MOL0     H52193   1.604   0.657   8.445 -0.4821  0.8305 -0.7040
  387MOL0     H52194   1.328   0.670   8.546 -0.0455 -0.6175  0.0364
  387MOL0     H52195   1.397   0.800   8.445 -2.6806  0.5531  4.0790
  387MOL0     H52196   1.212   0.775   8.247  2.8293  1.7113 -0.6483
  387MOL0     H52197   1.140   0.691   8.017  3.0160  1.6974 -0.8647
  387MOL0     H52198   1.295   0.641   7.937 -1.6573 -0.6959 -1.5605
  387MOL0     H52199   1.097   0.538   7.871  0.6286 -2.4560 -0.3106
  387MOL0     H52200   1.216   0.420   7.944  1.8769  0.6134 -0.6381
  387MOL0     H52201   1.055   0.397   8.134  0.2862 -2.3373 -1.6620
  387MOL0     H52202   0.956   0.380   7.990 -0.9367  0.8839  0.1538
  387MOL0     H52203   0.868   0.605   7.990  0.9155 -1.1167 -1.6244
  387MOL0     H52204   0.955   0.655   8.132 -1.3818  1.5526  0.7756
  387MOL0     H52205   0.679   0.425   8.350  2.3415  1.2814 -1.2781
  387MOL0     H52206   0.467   0.260   8.326 -0.6034  2.1992  0.4840
  387MOL0     H52207   0.133   0.056   8.022 -3.6315 -0.8448 -1.4959
  387MOL0     H52208  -0.020  -0.135   8.000  1.9052 -0.5554 -0.6791
  387MOL0     H52209  -0.232  -0.235   8.110  0.9916  0.9529 -2.2009
  387MOL0     H52210  -0.156  -0.371   8.022 -0.5696  0.0159 -0.3708
  387MOL0     H52211  -0.238  -0.531   8.192 -2.8027 -1.9068 -0.1372
  387MOL0     H52212  -0.299  -0.412   8.295 -3.9751 -0.7063 -1.9705
  387MOL0     H52213  -0.430  -0.340   8.058 -0.8038  0.8809  0.5087
  387MOL0     H52214  -0.396  -0.498   8.022 -1.2832  1.5789 -1.0241
  387MOL0     H52215  -0.551  -0.407   8.281 -0.3431  0.9804 -1.2920
  387MOL0     H52216  -0.506  -0.566   8.239 -2.6170  0.4744  2.8069
  387MOL0     H52217  -0.658  -0.558   8.030 -0.3971 -1.7598  1.2257
  387MOL0     H52218  -0.693  -0.385   8.057 -0.4064 -1.3952 -1.2127
  387MOL0     H52219  -0.740  -0.598   8.257  1.2823 -2.3455 -3.2334
  387MOL0     H52220  -0.821  -0.431   8.252 -3.7055 -1.6633 -0.0850
  387MOL0     H52221  -0.866  -0.645   8.039 -0.3799 -0.6465  0.1408
  387MOL0     H52222  -0.957  -0.497   8.074 -2.2269 -2.2056 -2.7089
  387MOL0     H52223  -1.030  -0.603   8.279 -1.3940 -0.3265 -1.0736
  387MOL0     H52224  -1.089  -0.689   8.141  0.4818  1.9230 -1.3879
  387MOL0     H52225   0.114  -0.287   8.374  0.1473 -5.5455 -5.0421
  387MOL0     H52226   0.261  -0.106   8.403 -3.0800 -0.6531  1.2518
  387MOL0     H52227   0.526   0.289   7.906 -1.5372 -0.7140  0.8384
  387MOL0     H52228   0.729   0.431   7.925  0.1672 -2.2038 -1.0264
  387MOL0     H52229   1.271  -0.004   9.323 -0.2812  0.1774  0.2673
  387MOL0     H52230   1.170  -0.050   9.528  1.9980  0.3724  0.1385
  387MOL0     H52231   0.904   0.360   9.948  2.8533  1.4185 -1.5158
  387MOL0     H52232   0.800   0.301  10.173  1.1962 -0.3252  1.9284
  387MOL0     H52233   0.945  -0.122  10.321  0.8688  1.0356 -1.4833
  387MOL0     H52234   0.791  -0.137  10.248  1.2575 -0.9256 -0.2578
  387MOL0     H52235   0.782  -0.006  10.519  1.0307 -1.1600  0.1462
  387MOL0     H52236   0.830  -0.170  10.513  0.9676 -0.9243 -2.6632
  387MOL0     H52237   0.562  -0.074  10.405 -2.4627 -2.7434 -1.4942
  387MOL0     H52238   0.601  -0.136  10.567  2.5703 -0.3753  0.8238
  387MOL0     H52239   0.613  -0.287  10.301 -0.0355  1.4341 -0.9125
  387MOL0     H52240   0.697  -0.339  10.437  0.2457 -0.6887 -4.4483
  387MOL0     H52241   0.313  -0.486  10.493  2.7564  0.0584  1.2799
  387MOL0     H52242   0.993  -0.092  10.123 -1.9642 -0.7880  0.1376
  387MOL0     H52243   1.178  -0.125   9.978  2.1433  1.4558  0.9540
  387MOL0     H52244   1.091  -0.094   9.825 -4.2518 -0.9979  2.8171
  387MOL0     H52245   1.218   0.023   9.892 -1.0785 -0.2525 -0.1896
  388MOL0     O52246   1.882  10.806  11.428  0.1043 -0.1270 -0.4084
  388MOL0     C52247   1.996  10.758  11.433 -0.2803  1.0177 -0.3779
  388MOL0     O52248   2.034  10.637  11.484  1.1990 -0.2302 -0.1690
  388MOL0     C52249   1.937  10.579  11.566  0.6971  0.2747  0.1359
  388MOL0     C52250   1.912  10.443  11.539 -0.3139 -0.2022 -0.3042
  388MOL0     C52251   1.812  10.388  11.605  0.2625 -0.1534 -0.1864
  388MOL0     C52252   1.732  10.454  11.701  1.1961 -1.3915 -0.0578
  388MOL0     O52253   1.615  10.403  11.756 -0.1658  1.0407 -0.2006
  388MOL0     C52254   1.607  10.261  11.776 -0.2130  0.9437 -0.1956
  388MOL0     C52255   1.501  10.224  11.875  0.9225 -0.1805 -0.3058
  388MOL0     C52256   1.357  10.248  11.829 -0.5099 -0.0910  0.1585
  388MOL0     C52257   1.297  10.156  11.722 -0.5891 -0.2741 -0.4386
  388MOL0     C52258   1.149  10.205  11.690 -1.0840 -0.0814  0.2215
  388MOL0     C52259   1.050  10.162  11.799 -0.5440 -1.0085  0.1834
  388MOL0     C52260   1.053  10.023  11.844  0.0250 -0.5011  0.2317
  388MOL0     C52261   0.922  10.000  11.920  0.5164 -0.0479 -0.0194
  388MOL0     N52262   0.887  10.061  12.053 -0.0012 -0.4439 -0.2622
  388MOL0     C52263   0.854  10.193  12.058 -0.0620  0.3320  1.2150
  388MOL0     C52264   0.851  10.223  12.193 -0.3912  0.0409  0.6362
  388MOL0     C52265   0.824  10.373  12.224 -0.2143  0.2854  1.2782
  388MOL0     C52266   0.897  10.430  12.339 -0.3123 -0.8582 -1.0084
  388MOL0     C52267   1.054  10.428  12.338  0.7451 -0.1649 -0.0875
  388MOL0     C52268   1.118  10.498  12.455  0.3595  0.2782  0.5694
  388MOL0     O52269   1.055  10.614  12.495 -0.2476 -0.3929 -0.5712
  388MOL0     C52270   1.096  10.675  12.609 -0.6673 -0.5907  0.2101
  388MOL0     C52271   1.180  10.621  12.707  0.9380  0.6000 -0.7462
  388MOL0     C52272   1.207  10.684  12.827 -1.0008 -0.1493 -0.1107
  388MOL0     C52273   1.167  10.807  12.847  0.5616  0.3752 -1.0238
  388MOL0     C52274   1.192  10.886  12.973  0.2297  0.8060 -0.3518
  388MOL0     O52275   1.178  11.021  12.968 -0.0085 -0.2521 -0.0632
  388MOL0     C52276   1.197  11.097  13.079  1.2862 -0.3745  0.3955
  388MOL0     C52277   1.175  11.069  13.216 -0.9535  0.6003 -0.1586
  388MOL0     C52278   1.206  11.163  13.316 -0.4816 -0.3820 -0.0395
  388MOL0     C52279   1.223  11.297  13.280  0.2282 -0.3058  1.1295
  388MOL0     O52280   1.233  11.389  13.377 -0.1529 -0.2496  0.0547
  388MOL0     C52281   1.355  11.374  13.460 -0.4046  1.2044  0.3254
  388MOL0     C52282   1.363  11.495  13.547  0.4266  0.3786 -0.7673
  388MOL0     C52283   1.418  11.616  13.468 -0.8665  0.6784  0.1245
  388MOL0     C52284   1.566  11.641  13.485  0.3772 -0.5351 -0.9105
  388MOL0     C52285   1.605  11.762  13.395 -0.3834  0.4606  0.7459
  388MOL0     C52286   1.754  11.806  13.408  0.0174  0.1312 -0.1572
  388MOL0     C52287   1.779  11.920  13.309 -0.0111 -0.2112  0.2536
  388MOL0     C52288   1.928  11.942  13.289  0.2304  1.0071 -0.6125
  388MOL0    Cl52289   1.954  12.056  13.157  0.3818  0.0789 -0.4552
  388MOL0     C52290   1.221  11.327  13.147 -1.2579 -0.5659  0.5665
  388MOL0     C52291   1.206  11.238  13.048 -0.6530  0.1745 -0.6129
  388MOL0     O52292   1.249  10.820  13.063  1.6627  0.2126  0.8476
  388MOL0     C52293   1.075  10.864  12.767  0.5030  0.0072 -0.9602
  388MOL0     C52294   1.043  10.802  12.641  0.6285  0.0749 -0.3772
  388MOL0     N52295   0.903  10.108  12.263  0.1037 -1.1525  0.1842
  388MOL0     N52296   0.921  10.023  12.175 -0.4383 -0.0825 -0.9317
  388MOL0     C52297   1.765  10.586  11.735  0.4423  0.0501 -0.1136
  388MOL0     C52298   1.868  10.648  11.666  0.2637 -0.8485  0.3736
  388MOL0     C52299   2.098  10.822  11.361 -0.2010  1.2566  0.1860
  388MOL0     C52300   2.174  10.739  11.269  0.5387  1.2644  0.2360
  388MOL0     C52301   2.263  10.788  11.176 -0.2874  1.2070  0.4037
  388MOL0     C52302   2.287  10.923  11.179 -0.0398  0.8056  0.1546
  388MOL0     O52303   2.381  10.983  11.098  0.0310  0.1937 -0.1795
  388MOL0     C52304   2.456  10.908  11.003 -1.6724 -0.5862  0.4022
  388MOL0     C52305   2.560  10.999  10.935 -0.1078  0.5760 -0.1086
  388MOL0     C52306   2.673  11.055  11.030 -0.0606  0.0911  0.1361
  388MOL0     C52307   2.778  11.142  10.951 -0.4305  0.0201  0.8213
  388MOL0     C52308   2.884  11.172  11.041 -0.6513  0.0680  0.1865
  388MOL0     C52309   2.973  11.191  11.128  1.0021 -0.4228  0.7628
  388MOL0     C52310   2.217  11.010  11.267  0.3838 -0.3046  0.0814
  388MOL0     C52311   2.110  10.964  11.334  0.6075  0.3184 -0.6461
  388MOL0     C52312   2.027  11.056  11.414 -0.3700  1.2949  0.3391
  388MOL0     H52313   1.974  10.382  11.473 -1.1232  0.2353 -1.5064
  388MOL0     H52314   1.779  10.287  11.583  2.2881 -0.9799  0.3338
  388MOL0     H52315   1.585  10.197  11.690 -0.0413 -2.0557  1.8346
  388MOL0     H52316   1.696  10.238  11.836 -0.5066  1.0773  0.3036
  388MOL0     H52317   1.521  10.266  11.974  0.8276  1.3479 -0.8934
  388MOL0     H52318   1.517  10.117  11.885 -1.5223 -0.5395  0.6154
  388MOL0     H52319   1.351  10.345  11.778  1.5642 -0.9005 -1.7427
  388MOL0     H52320   1.286  10.248  11.913  1.0400 -1.3785  1.5335
  388MOL0     H52321   1.353  10.159  11.628  1.1682  2.3963  0.5910
  388MOL0     H52322   1.305  10.055  11.765 -0.0517 -1.6059 -3.4194
  388MOL0     H52323   1.153  10.309  11.658  0.0332 -0.0644  0.3889
  388MOL0     H52324   1.126  10.154  11.597  2.7998 -1.7553 -0.0009
  388MOL0     H52325   1.071  10.223  11.888  1.7706 -4.6620  2.3884
  388MOL0     H52326   0.954  10.187  11.753 -1.0029 -1.0555  1.0984
  388MOL0     H52327   1.139   9.999  11.907  1.2776  1.9210 -0.4605
  388MOL0     H52328   1.069   9.973  11.749 -3.1218 -1.8071  0.2658
  388MOL0     H52329   0.832  10.005  11.859 -1.0455 -1.6060  2.0416
  388MOL0     H52330   0.921   9.892  11.933  2.7915 -0.5391 -2.7450
  388MOL0     H52331   0.836  10.259  11.974  1.1812  0.7518  1.2538
  388MOL0     H52332   0.853  10.433  12.137 -1.1118 -0.4148  0.4703
  388MOL0     H52333   0.716  10.385  12.231 -0.1378  1.4409  0.7126
  388MOL0     H52334   0.865  10.532  12.361 -1.2158 -1.7609  2.6930
  388MOL0     H52335   0.866  10.377  12.430 -1.6400 -3.0572 -2.6428
  388MOL0     H52336   1.076  10.480  12.244 -0.3609  0.2455 -0.1367
  388MOL0     H52337   1.071  10.320  12.339  1.4126 -0.0765 -0.8582
  388MOL0     H52338   1.219  10.511  12.416 -0.3540 -0.4256 -1.7073
  388MOL0     H52339   1.120  10.423  12.535  0.5772  0.5670  0.8364
  388MOL0     H52340   1.226  10.524  12.698  0.5805  0.2826  0.6234
  388MOL0     H52341   1.249  10.629  12.911  0.8957 -2.0086 -2.1393
  388MOL0     H52342   1.165  10.967  13.252 -0.2272 -0.5973 -3.0480
  388MOL0     H52343   1.192  11.122  13.415  1.4015  0.7718  0.7396
  388MOL0     H52344   1.343  11.281  13.516  1.1879 -1.1752 -2.9547
  388MOL0     H52345   1.445  11.357  13.400 -1.0457 -2.6791  0.2316
  388MOL0     H52346   1.265  11.506  13.595 -0.1431 -1.7268 -1.3214
  388MOL0     H52347   1.430  11.473  13.631 -1.2458 -3.6272 -0.2229
  388MOL0     H52348   1.398  11.614  13.361 -2.1704 -5.1415  0.1337
  388MOL0     H52349   1.359  11.701  13.503  0.1904  0.9300  1.3946
  388MOL0     H52350   1.617  11.551  13.448  0.6845 -1.6304  1.8735
  388MOL0     H52351   1.579  11.664  13.591 -1.4826  0.1793 -0.8047
  388MOL0     H52352   1.557  11.850  13.440  2.2281  1.5346  1.6748
  388MOL0     H52353   1.581  11.738  13.291  3.2420  0.8808 -0.3522
  388MOL0     H52354   1.768  11.844  13.510 -0.6782 -2.4223  0.9650
  388MOL0     H52355   1.820  11.723  13.382  0.9361  0.5482  0.7408
  388MOL0     H52356   1.744  12.013  13.354 -0.0927 -1.6755  3.4941
  388MOL0     H52357   1.735  11.898  13.211  2.5499 -3.8532 -0.3112
  388MOL0     H52358   1.978  11.977  13.380  0.6158 -0.2757 -0.3148
  388MOL0     H52359   1.986  11.853  13.263 -1.2241 -0.2759  0.3581
  388MOL0     H52360   1.220  11.428  13.107  1.6520 -0.4700  0.5329
  388MOL0     H52361   1.214  11.265  12.943  0.2701  1.2091 -0.3065
  388MOL0     H52362   1.031  10.961  12.783  1.1899  0.8855 -3.7676
  388MOL0     H52363   0.980  10.838  12.561 -0.7259 -3.7048 -1.2586
  388MOL0     H52364   1.716  10.637  11.817  0.5288  1.4058 -0.8790
  388MOL0     H52365   1.899  10.750  11.689 -1.8016 -0.6378  2.7104
  388MOL0     H52366   2.152  10.633  11.263 -1.6360  1.7298 -0.6896
  388MOL0     H52367   2.298  10.713  11.105  0.2432  0.9169  0.9701
  388MOL0     H52368   2.397  10.860  10.924 -0.1934  1.0770 -1.8278
  388MOL0     H52369   2.509  10.822  11.046 -0.2181  0.8647  1.6331
  388MOL0     H52370   2.504  11.080  10.887 -1.7172 -0.7901 -0.6099
  388MOL0     H52371   2.601  10.932  10.859  0.5586  0.6266  0.1975
  388MOL0     H52372   2.728  10.984  11.092  1.2639  1.6892  0.8689
  388MOL0     H52373   2.631  11.121  11.107 -3.1852 -0.3312 -1.0566
  388MOL0     H52374   2.829  11.094  10.867  1.9954  0.9013  1.7076
  388MOL0     H52375   2.740  11.235  10.907 -2.5198 -0.3810  1.6382
  388MOL0     H52376   3.059  11.181  11.191  2.0968 -1.3055 -0.8148
  388MOL0     H52377   2.221  11.118  11.259 -2.4707 -0.1919 -0.6300
  388MOL0     H52378   1.929  11.081  11.373 -1.4334 -1.2866  1.0974
  388MOL0     H52379   2.015  11.007  11.511  1.8880 -0.3697 -0.1607
  388MOL0     H52380   2.084  11.142  11.452  0.3326  0.9180  0.1539
  389MOL0     O52381  10.453   2.327   2.118  0.0250  0.3801  0.4932
  389MOL0     C52382  10.416   2.438   2.096  0.1852  0.2092 -0.2417
  389MOL0     O52383  10.285   2.481   2.091 -0.0527 -0.5774 -0.5249
  389MOL0     C52384  10.178   2.399   2.123 -0.4217 -0.0399  0.0513
  389MOL0     C52385  10.144   2.389   2.260 -0.1696  0.1637 -0.3111
  389MOL0     C52386  10.035   2.322   2.298  0.4931 -0.0174  0.8214
  389MOL0     C52387   9.949   2.261   2.202  0.1135 -0.8706  0.2442
  389MOL0     O52388   9.833   2.202   2.232  0.6049  0.0657  0.0965
  389MOL0     C52389   9.753   2.280   2.330 -0.2642 -0.3287  0.0331
  389MOL0     C52390   9.605   2.261   2.325  0.5691  0.7149 -0.3567
  389MOL0     C52391   9.539   2.356   2.419  0.1643 -0.5466 -0.5248
  389MOL0     C52392   9.381   2.341   2.422 -0.1684  0.2281 -0.4390
  389MOL0     C52393   9.316   2.423   2.542 -0.5617  0.5521  1.1154
  389MOL0     C52394   9.173   2.463   2.527 -0.3011 -0.4125  0.1489
  389MOL0     C52395   9.098   2.502   2.653 -0.5189  0.4288  0.3699
  389MOL0     C52396   8.958   2.534   2.616  1.0494  0.0284  0.4563
  389MOL0     N52397   8.867   2.604   2.706  0.3235 -0.4345  0.2202
  389MOL0     C52398   8.794   2.543   2.810 -0.1584 -0.3420 -0.1068
  389MOL0     C52399   8.732   2.656   2.867 -0.3464 -0.5592  0.0245
  389MOL0     C52400   8.647   2.653   2.991  0.1089  0.6779 -0.2595
  389MOL0     C52401   8.504   2.715   2.973 -0.3890 -0.4966  0.4527
  389MOL0     C52402   8.400   2.638   2.887 -0.2057  0.2270  0.5280
  389MOL0     C52403   8.259   2.637   2.944  0.5249 -0.5398  0.7234
  389MOL0     O52404   8.231   2.774   2.978  0.1125  0.0665  0.0870
  389MOL0     C52405   8.115   2.799   3.052 -0.2206 -0.2481  0.3883
  389MOL0     C52406   8.075   2.939   3.063 -0.1939  0.9034 -1.1247
  389MOL0     C52407   7.949   2.970   3.109  0.9276 -0.0131  0.7659
  389MOL0     C52408   7.848   2.882   3.142  0.3090 -0.7020 -0.9471
  389MOL0     C52409   7.713   2.916   3.198 -0.2825 -0.9927 -0.7294
  389MOL0     O52410   7.637   2.805   3.224 -0.0469 -0.5988  0.3212
  389MOL0     C52411   7.510   2.816   3.270  0.0707  0.4799 -0.3213
  389MOL0     C52412   7.441   2.696   3.254 -0.0871  0.9281 -0.5080
  389MOL0     C52413   7.320   2.664   3.311  0.0357  0.4504 -0.9509
  389MOL0     C52414   7.256   2.769   3.375 -0.5371  0.3790  0.6009
  389MOL0     O52415   7.136   2.752   3.438  0.2795 -0.0430  0.4220
  389MOL0     C52416   7.055   2.638   3.394  0.4408  0.3644  0.2613
  389MOL0     C52417   6.939   2.630   3.493 -0.5168 -1.0696 -0.6185
  389MOL0     C52418   6.811   2.730   3.448 -0.4784  0.0512 -0.2778
  389MOL0     C52419   6.858   2.883   3.419  0.8385  0.6754  0.0029
  389MOL0     C52420   6.746   2.968   3.364 -0.0702  0.8933 -0.4109
  389MOL0     C52421   6.640   2.998   3.455  0.3570  0.4361 -0.6021
  389MOL0     C52422   6.539   3.090   3.387 -0.0214 -0.4402 -0.9525
  389MOL0     C52423   6.440   3.125   3.511  0.1237 -0.1307  0.5942
  389MOL0    Cl52424   6.339   3.267   3.477  0.6414 -0.1487  0.4097
  389MOL0     C52425   7.317   2.900   3.378 -0.2302  0.1660 -0.3214
  389MOL0     C52426   7.447   2.918   3.334 -0.3430  0.6580  0.0107
  389MOL0     O52427   7.689   3.032   3.239  0.4194 -0.4191  0.1506
  389MOL0     C52428   7.888   2.745   3.132 -0.1047  0.4269  0.3402
  389MOL0     C52429   8.009   2.707   3.086 -0.8522 -0.4480  0.5130
  389MOL0     N52430   8.753   2.769   2.785  0.1397  0.6255  0.1095
  389MOL0     N52431   8.809   2.720   2.673  0.4662 -0.3967  0.1784
  389MOL0     C52432   9.997   2.249   2.065  0.7581  0.5970 -0.2708
  389MOL0     C52433  10.108   2.322   2.030  0.7887  0.6445 -0.3045
  389MOL0     C52434  10.517   2.542   2.067 -0.2819 -1.0320 -0.2745
  389MOL0     C52435  10.479   2.639   1.976 -0.5150  0.0284 -0.3032
  389MOL0     C52436  10.574   2.736   1.943 -0.5965 -0.3561  0.6017
  389MOL0     C52437  10.707   2.730   1.991  0.5773  0.2836 -0.3506
  389MOL0     O52438  10.811   2.823   1.967  0.0422  0.4954  0.0776
  389MOL0     C52439  10.786   2.931   1.871 -0.2931  0.3170  0.3695
  389MOL0     C52440  10.900   3.027   1.892  0.6390 -0.4597 -0.2162
  389MOL0     C52441  10.839   3.175   1.867 -0.1545  0.6909 -0.1715
  389MOL0     C52442  10.934   3.273   1.933  0.0576  0.6997 -0.3635
  389MOL0     C52443  11.058   3.297   1.854 -1.4617 -0.4947 -0.3792
  389MOL0     C52444  11.176   3.314   1.815 -0.0952  0.6541  0.4514
  389MOL0     C52445  10.752   2.623   2.067 -0.3207 -1.6868 -0.5003
  389MOL0     C52446  10.661   2.536   2.114  0.2772 -0.5024 -1.6069
  389MOL0     C52447  10.706   2.433   2.221 -0.0758 -0.4892  0.1018
  389MOL0     H52448  10.203   2.437   2.338 -0.6915  1.7572 -0.8478
  389MOL0     H52449  10.021   2.311   2.405  3.6671 -3.9611  1.0533
  389MOL0     H52450   9.793   2.234   2.421 -1.9419  0.8144  1.4065
  389MOL0     H52451   9.764   2.388   2.327 -0.0568 -0.0545  4.3892
  389MOL0     H52452   9.592   2.157   2.357  2.2715  0.4863 -0.3334
  389MOL0     H52453   9.570   2.280   2.223 -0.0564 -1.1987 -0.5409
  389MOL0     H52454   9.564   2.457   2.387  0.4932  0.5669  2.8265
  389MOL0     H52455   9.584   2.355   2.519 -1.1646  0.2026  0.1030
  389MOL0     H52456   9.348   2.375   2.323  1.8168  1.3470 -0.7921
  389MOL0     H52457   9.356   2.235   2.430  1.5956 -0.2056 -0.3165
  389MOL0     H52458   9.339   2.369   2.634 -1.2428  1.4705  1.8415
  389MOL0     H52459   9.370   2.517   2.555  2.1607 -0.9468  1.3808
  389MOL0     H52460   9.167   2.539   2.449 -4.5323 -2.1885 -1.5984
  389MOL0     H52461   9.114   2.377   2.491 -2.5589  0.7875  0.7729
  389MOL0     H52462   9.147   2.590   2.697 -2.8976  0.1688  4.0003
  389MOL0     H52463   9.095   2.422   2.728 -1.1707  0.6414  0.5775
  389MOL0     H52464   8.972   2.589   2.522  3.5388  0.2566  0.8888
  389MOL0     H52465   8.909   2.439   2.596  0.6445  0.1824  0.6978
  389MOL0     H52466   8.809   2.437   2.828  1.0588 -0.6342 -2.4500
  389MOL0     H52467   8.641   2.549   3.023  0.3719  0.4122 -1.0603
  389MOL0     H52468   8.701   2.715   3.063 -1.8589  3.2745 -0.8687
  389MOL0     H52469   8.465   2.725   3.074 -1.7653 -0.5013 -0.0578
  389MOL0     H52470   8.502   2.813   2.925 -4.2406 -1.8232 -2.6890
  389MOL0     H52471   8.433   2.533   2.880 -1.7205 -0.2005 -0.9932
  389MOL0     H52472   8.390   2.698   2.797  0.1293  0.3697  0.5863
  389MOL0     H52473   8.258   2.562   3.023  1.9315 -1.3079  0.0586
  389MOL0     H52474   8.192   2.607   2.863  0.7647 -2.0150  1.0434
  389MOL0     H52475   8.127   3.028   3.029 -0.3704  1.3146 -0.3447
  389MOL0     H52476   7.927   3.076   3.102  1.6230  0.0346 -2.0905
  389MOL0     H52477   7.485   2.624   3.186 -1.9456 -1.7617  0.9674
  389MOL0     H52478   7.284   2.562   3.313 -1.7696  1.0074  2.2908
  389MOL0     H52479   7.011   2.641   3.294  1.8068 -4.0913 -0.7067
  389MOL0     H52480   7.099   2.538   3.395 -3.0423 -1.3969 -1.8209
  389MOL0     H52481   6.893   2.531   3.496 -0.3913 -1.1058  0.7497
  389MOL0     H52482   6.978   2.658   3.591 -0.4895 -0.7621 -0.7129
  389MOL0     H52483   6.762   2.687   3.360  0.8349 -1.3823 -0.3469
  389MOL0     H52484   6.737   2.744   3.527 -1.6080 -0.3609 -1.2338
  389MOL0     H52485   6.934   2.876   3.341 -0.9743  0.0437 -1.7789
  389MOL0     H52486   6.895   2.930   3.511 -0.0293  2.4582 -0.5138
  389MOL0     H52487   6.711   2.918   3.273  2.8350 -1.2345 -0.4848
  389MOL0     H52488   6.797   3.058   3.328  0.5015  0.5324 -0.5044
  389MOL0     H52489   6.585   2.913   3.495 -2.4691  1.3800 -2.2065
  389MOL0     H52490   6.685   3.054   3.538  1.4220  0.4114 -1.1352
  389MOL0     H52491   6.496   3.037   3.302 -1.5919 -1.5922  0.4985
  389MOL0     H52492   6.578   3.184   3.347 -0.6649  0.8188  1.1811
  389MOL0     H52493   6.374   3.041   3.535 -3.0890  2.4465  1.4926
  389MOL0     H52494   6.496   3.132   3.605  1.3496 -2.0532  0.0719
  389MOL0     H52495   7.275   2.968   3.451  1.4415  1.5299 -0.5400
  389MOL0     H52496   7.505   3.006   3.361  3.2255 -1.1249 -1.2518
  389MOL0     H52497   7.832   2.658   3.164 -0.7373  0.2682 -1.1116
  389MOL0     H52498   8.022   2.602   3.064  0.5152 -0.7418  2.4227
  389MOL0     H52499   9.927   2.208   1.993  3.8117 -0.5044 -2.8626
  389MOL0     H52500  10.135   2.332   1.925 -1.0188  1.7397 -0.7056
  389MOL0     H52501  10.374   2.637   1.949  0.0778  2.9683 -3.4401
  389MOL0     H52502  10.525   2.823   1.899 -2.7221 -0.9826  1.6002
  389MOL0     H52503  10.693   2.985   1.893  0.3702  0.8800  1.8925
  389MOL0     H52504  10.797   2.898   1.767  2.9145 -1.6028  1.1727
  389MOL0     H52505  10.987   3.006   1.829 -0.2868 -2.4616 -0.9040
  389MOL0     H52506  10.924   3.022   1.998 -0.3612 -1.9867 -0.0367
  389MOL0     H52507  10.748   3.177   1.927  0.9385 -0.6922  1.6260
  389MOL0     H52508  10.807   3.189   1.763 -0.1503  2.0737 -0.0065
  389MOL0     H52509  10.884   3.369   1.950  0.3640  0.3948  2.9277
  389MOL0     H52510  10.966   3.243   2.034  0.3162  1.8854 -0.0794
  389MOL0     H52511  11.273   3.313   1.770  1.7502  1.9859  4.0430
  389MOL0     H52512  10.858   2.617   2.090  0.1722 -0.0487 -2.1157
  389MOL0     H52513  10.737   2.340   2.171 -0.1134 -0.5496  0.1905
  389MOL0     H52514  10.792   2.467   2.279  0.4370 -3.3662  1.2095
  389MOL0     H52515  10.618   2.425   2.284 -0.2418  2.4172  0.3314
  390MOL0     O52516   7.115  10.427   7.071 -0.1326  0.7171  0.7586
  390MOL0     C52517   7.078  10.309   7.045 -0.1901 -0.6887  0.8564
  390MOL0     O52518   7.029  10.221   7.133  0.3592  0.3358  1.1610
  390MOL0     C52519   7.093  10.187   7.254  0.0768 -0.8713  0.6306
  390MOL0     C52520   7.080  10.059   7.317  0.5979  0.4592 -0.9512
  390MOL0     C52521   7.143  10.034   7.439  0.1980  0.5512  0.0174
  390MOL0     C52522   7.215  10.132   7.505 -0.4313 -0.4783  0.1821
  390MOL0     O52523   7.280  10.096   7.618 -0.6671  0.0475 -0.6378
  390MOL0     C52524   7.301  10.184   7.724 -0.0107  1.2828  0.2310
  390MOL0     C52525   7.160  10.208   7.791 -0.2977  1.1489 -0.4302
  390MOL0     C52526   7.116  10.085   7.894 -0.8831 -0.4154 -0.0252
  390MOL0     C52527   7.176  10.119   8.042 -0.0824  0.3941 -0.1537
  390MOL0     C52528   7.170  10.006   8.151 -0.0649  0.0926  0.1063
  390MOL0     C52529   7.021   9.975   8.189 -0.7300 -0.1400  0.0459
  390MOL0     C52530   7.021   9.832   8.240  0.2032 -0.3653  0.1998
  390MOL0     C52531   7.012   9.719   8.131 -0.7550 -1.1327  0.2561
  390MOL0     N52532   7.109   9.612   8.151  0.4977  0.1760 -0.5975
  390MOL0     C52533   7.091   9.497   8.229  0.2032  0.4232 -0.1618
  390MOL0     C52534   7.208   9.428   8.221 -1.6357 -0.7153 -0.2606
  390MOL0     C52535   7.248   9.301   8.285  1.0290 -0.1869  1.0152
  390MOL0     C52536   7.211   9.187   8.185  0.1483 -0.8628  0.3026
  390MOL0     C52537   7.314   9.154   8.073 -0.2075 -0.3226 -0.0158
  390MOL0     C52538   7.248   9.056   7.979  0.8037 -1.2264 -0.5221
  390MOL0     O52539   7.253   8.924   8.041  0.6310 -0.4313  1.1493
  390MOL0     C52540   7.210   8.818   7.965  0.6514  1.0665 -0.5867
  390MOL0     C52541   7.138   8.818   7.846 -0.9064 -0.2494 -0.5455
  390MOL0     C52542   7.084   8.704   7.796  0.1474 -0.3522 -0.3632
  390MOL0     C52543   7.091   8.575   7.859 -0.3242 -0.4209 -0.8611
  390MOL0     C52544   7.016   8.459   7.809 -0.0634 -0.4179  1.6729
  390MOL0     O52545   7.016   8.456   7.671 -0.2180 -0.4654  0.4457
  390MOL0     C52546   6.946   8.346   7.613 -0.4654 -0.6521  0.4926
  390MOL0     C52547   7.010   8.233   7.571  0.4597 -0.2025  0.3879
  390MOL0     C52548   6.944   8.129   7.506 -0.1021  0.8019  0.2457
  390MOL0     C52549   6.811   8.134   7.490  0.9398 -0.2210  0.2532
  390MOL0     O52550   6.732   8.044   7.423  0.3691  0.6228  0.1006
  390MOL0     C52551   6.791   7.918   7.408 -0.0054 -0.0725  0.0044
  390MOL0     C52552   6.897   7.897   7.293  1.9895 -1.0467 -0.2830
  390MOL0     C52553   7.004   7.795   7.337 -0.7253 -0.5457  0.2449
  390MOL0     C52554   7.121   7.778   7.240  0.2168  0.1804 -0.2316
  390MOL0     C52555   7.093   7.745   7.095  0.1887  0.4458  0.2333
  390MOL0     C52556   7.057   7.595   7.070 -0.0682  0.0286  0.7869
  390MOL0     C52557   7.046   7.559   6.923  0.2086 -0.5475  0.2469
  390MOL0     C52558   7.020   7.412   6.901 -0.1616 -1.0307 -0.1238
  390MOL0    Cl52559   7.156   7.321   6.966 -0.7337  0.4574  0.2415
  390MOL0     C52560   6.737   8.244   7.534 -0.2597 -0.2789  0.3589
  390MOL0     C52561   6.804   8.347   7.599  1.0493  0.1157 -0.9934
  390MOL0     O52562   6.937   8.403   7.878  0.5175  0.4947 -0.0587
  390MOL0     C52563   7.166   8.577   7.978 -0.6413 -0.6985  0.4757
  390MOL0     C52564   7.224   8.694   8.025 -0.0782  0.1904 -0.5929
  390MOL0     N52565   7.282   9.495   8.124 -0.6331 -0.5574 -0.7773
  390MOL0     N52566   7.234   9.610   8.101  0.8035 -0.3000  0.4302
  390MOL0     C52567   7.227  10.262   7.451 -0.0844  1.3968  0.1775
  390MOL0     C52568   7.161  10.291   7.331  0.0255  0.2004  0.7810
  390MOL0     C52569   7.082  10.286   6.898  0.5297  0.5425  0.7094
  390MOL0     C52570   6.995  10.190   6.857 -0.5525  0.0115 -0.1312
  390MOL0     C52571   6.973  10.171   6.718  0.7173 -0.5786  0.3197
  390MOL0     C52572   7.038  10.253   6.628  0.4980 -0.1248  0.2335
  390MOL0     O52573   7.020  10.230   6.493  0.2350  0.4210  0.5691
  390MOL0     C52574   6.936  10.329   6.439 -0.0096  0.0627  0.5802
  390MOL0     C52575   6.976  10.355   6.289 -0.0343 -1.8628  0.0100
  390MOL0     C52576   6.881  10.445   6.223  0.5961  0.5883 -0.3406
  390MOL0     C52577   6.936  10.520   6.111 -0.0666 -0.5023  0.0476
  390MOL0     C52578   6.961  10.422   6.000 -0.2245  0.0484  0.5250
  390MOL0     C52579   6.959  10.357   5.891  1.0812  0.0706  0.6036
  390MOL0     C52580   7.139  10.338   6.672 -0.2217 -0.3298 -0.1158
  390MOL0     C52581   7.159  10.366   6.806 -0.6264  0.2649 -0.9651
  390MOL0     C52582   7.276  10.465   6.837  0.8264 -0.7623 -0.8014
  390MOL0     H52583   7.032   9.979   7.261 -2.0373  0.3993  1.2263
  390MOL0     H52584   7.143   9.937   7.487 -0.2748  0.3912 -0.3092
  390MOL0     H52585   7.369  10.141   7.798 -1.1062 -0.7982  0.0995
  390MOL0     H52586   7.348  10.268   7.673 -0.1369  0.7253 -0.8374
  390MOL0     H52587   7.085  10.233   7.716  1.4062 -0.5071 -2.8287
  390MOL0     H52588   7.167  10.286   7.867 -1.3311  0.5470  0.3117
  390MOL0     H52589   7.175   9.997   7.864  0.3105  0.0609  0.8259
  390MOL0     H52590   7.009  10.064   7.889 -1.4495  2.3685 -1.0216
  390MOL0     H52591   7.283  10.134   8.027 -0.2411  0.8864 -0.8312
  390MOL0     H52592   7.137  10.209   8.089 -1.1875 -0.8454  1.4446
  390MOL0     H52593   7.199   9.913   8.102  2.1916 -0.9829  3.1471
  390MOL0     H52594   7.241  10.015   8.234  1.3502 -0.3112 -1.0285
  390MOL0     H52595   6.976  10.035   8.269  0.8410 -1.1313  1.7739
  390MOL0     H52596   6.944   9.973   8.112 -1.1488  0.9760  0.4221
  390MOL0     H52597   6.941   9.832   8.314  2.4761 -0.1969  2.8065
  390MOL0     H52598   7.112   9.816   8.298  0.8154 -1.0809 -0.9010
  390MOL0     H52599   6.908   9.685   8.131  0.1750 -4.2065  0.5989
  390MOL0     H52600   7.027   9.761   8.031 -1.4081 -0.0085  0.6119
  390MOL0     H52601   7.010   9.476   8.298  0.0248  3.5412  0.7385
  390MOL0     H52602   7.354   9.309   8.310  1.1423  0.4813  0.3600
  390MOL0     H52603   7.187   9.287   8.375  1.2886 -0.7966  1.0990
  390MOL0     H52604   7.189   9.100   8.247 -3.0039 -0.8021 -0.5744
  390MOL0     H52605   7.114   9.215   8.144  0.2149  1.8148  1.7003
  390MOL0     H52606   7.412   9.119   8.107 -1.9265 -4.0774  1.6641
  390MOL0     H52607   7.322   9.247   8.016 -0.7503  0.9540  1.8961
  390MOL0     H52608   7.296   9.063   7.881 -0.2897 -0.1206 -1.0042
  390MOL0     H52609   7.146   9.092   7.960  1.0101 -1.5550 -2.4658
  390MOL0     H52610   7.138   8.916   7.799 -2.8946  1.3275  2.4294
  390MOL0     H52611   7.012   8.714   7.715 -0.0607 -2.5996 -0.5228
  390MOL0     H52612   7.113   8.220   7.603  0.6905 -1.5824 -0.8076
  390MOL0     H52613   7.009   8.044   7.485 -2.2445 -0.7375 -0.5643
  390MOL0     H52614   6.837   7.884   7.501  1.3892 -0.3730 -0.7783
  390MOL0     H52615   6.716   7.844   7.379  0.1247 -0.9650  1.8399
  390MOL0     H52616   6.853   7.862   7.199  1.8935  1.6559 -1.3507
  390MOL0     H52617   6.951   7.990   7.273 -1.0142  0.6310 -1.2551
  390MOL0     H52618   7.055   7.822   7.430 -0.9996  1.1607 -0.0522
  390MOL0     H52619   6.973   7.691   7.343 -1.1059 -0.4369  0.2117
  390MOL0     H52620   7.178   7.691   7.273 -1.3817 -0.9872 -0.4199
  390MOL0     H52621   7.180   7.870   7.244 -1.4970  1.4496 -1.8258
  390MOL0     H52622   7.186   7.774   7.045 -2.3096  5.5144 -2.2380
  390MOL0     H52623   7.015   7.813   7.060 -0.2146  0.4639  1.1406
  390MOL0     H52624   7.137   7.532   7.110  0.1595 -0.3999 -0.3352
  390MOL0     H52625   6.968   7.565   7.127 -0.5519 -2.3794 -1.0603
  390MOL0     H52626   7.135   7.590   6.867 -0.4276 -1.7784 -1.5348
  390MOL0     H52627   6.963   7.619   6.884 -1.3247 -3.7676 -1.8558
  390MOL0     H52628   6.927   7.381   6.949 -0.9088  1.8063  0.4671
  390MOL0     H52629   7.004   7.408   6.793 -1.6776  0.7398 -0.0097
  390MOL0     H52630   6.630   8.252   7.517 -0.8167 -2.8241  2.1827
  390MOL0     H52631   6.737   8.430   7.616 -2.4106 -2.0256 -2.9407
  390MOL0     H52632   7.178   8.484   8.032 -5.7135 -1.4011  0.9110
  390MOL0     H52633   7.271   8.701   8.123 -0.0845  1.8332 -0.6831
  390MOL0     H52634   7.294  10.339   7.488  1.4653 -0.3330  1.1275
  390MOL0     H52635   7.174  10.389   7.287 -0.1433 -0.4559 -0.8183
  390MOL0     H52636   6.923  10.144   6.925 -0.8647  0.8341  0.1028
  390MOL0     H52637   6.910  10.092   6.680 -0.2809  1.2471 -2.0970
  390MOL0     H52638   6.944  10.422   6.494  0.7836 -0.6002  1.6189
  390MOL0     H52639   6.833  10.290   6.436  0.6529 -1.8417  0.9265
  390MOL0     H52640   6.981  10.263   6.231  1.0681 -0.2536 -2.6441
  390MOL0     H52641   7.067  10.415   6.274 -3.0104  2.7633 -1.8879
  390MOL0     H52642   6.857  10.519   6.300  0.8529  0.5153 -0.1893
  390MOL0     H52643   6.790  10.390   6.196  0.7792 -1.1676  2.2195
  390MOL0     H52644   6.870  10.593   6.064  1.5590  0.5209 -0.7638
  390MOL0     H52645   7.033  10.566   6.134  0.8563 -1.2166 -2.1260
  390MOL0     H52646   6.926  10.311   5.800  0.1580  3.1203 -0.7230
  390MOL0     H52647   7.210  10.378   6.601  1.3224 -1.6477  0.6051
  390MOL0     H52648   7.324  10.450   6.934 -0.1507 -2.0860 -0.4934
  390MOL0     H52649   7.351  10.459   6.758 -1.1987 -2.1362 -2.7497
  390MOL0     H52650   7.240  10.569   6.834 -0.4872 -1.1533  0.2150
  391MOL0     O52651   5.627   5.548   7.763 -0.2139 -0.1559 -1.0244
  391MOL0     C52652   5.702   5.488   7.685 -0.0889  1.0272 -0.2034
  391MOL0     O52653   5.835   5.525   7.656  0.7600 -0.0258  0.0917
  391MOL0     C52654   5.874   5.652   7.677  0.2318 -0.2401 -1.4302
  391MOL0     C52655   5.814   5.757   7.604 -0.2101  0.3957 -0.8183
  391MOL0     C52656   5.834   5.890   7.637  0.6756  0.1023  0.4085
  391MOL0     C52657   5.925   5.922   7.733  0.7231 -0.0001  0.0306
  391MOL0     O52658   5.957   6.056   7.750  0.2871 -0.2766 -0.7142
  391MOL0     C52659   5.999   6.092   7.884 -0.2719  0.2145 -0.2529
  391MOL0     C52660   6.017   6.246   7.864 -0.5770  0.9007 -0.2052
  391MOL0     C52661   6.155   6.278   7.799  0.3072  0.0607  0.8861
  391MOL0     C52662   6.150   6.429   7.765  0.6694 -0.4109 -0.5879
  391MOL0     C52663   6.287   6.493   7.740 -0.7463  0.2243  0.2251
  391MOL0     C52664   6.255   6.647   7.710  0.3130 -0.4423 -0.0755
  391MOL0     C52665   6.366   6.726   7.759  0.9633  0.3538 -0.2961
  391MOL0     C52666   6.324   6.879   7.765 -0.6094 -0.0774 -0.3176
  391MOL0     N52667   6.238   6.899   7.877  1.7851  0.0857 -0.4313
  391MOL0     C52668   6.106   6.919   7.878  0.5005  0.4533 -0.1618
  391MOL0     C52669   6.076   6.935   8.016 -0.0121  0.1269 -0.1099
  391MOL0     C52670   5.934   6.977   8.078 -0.9549  0.7736  0.5933
  391MOL0     C52671   5.864   6.848   8.146  0.2744 -0.1057 -0.4849
  391MOL0     C52672   5.937   6.801   8.268 -0.0951  0.1923 -0.4043
  391MOL0     C52673   5.877   6.663   8.308 -0.0604 -0.4011 -0.2876
  391MOL0     O52674   5.933   6.557   8.226 -0.0263 -0.6058  0.4507
  391MOL0     C52675   5.898   6.429   8.256  1.0016  0.4219 -0.1909
  391MOL0     C52676   5.984   6.329   8.294 -0.3997 -0.8088 -0.3117
  391MOL0     C52677   5.935   6.206   8.332  0.2361  1.0170 -0.3071
  391MOL0     C52678   5.797   6.179   8.351 -0.2270 -0.8316  0.9247
  391MOL0     C52679   5.760   6.044   8.394  0.4383  0.2127 -0.8410
  391MOL0     O52680   5.633   6.033   8.420 -0.0675  0.2540  0.1400
  391MOL0     C52681   5.572   5.912   8.449  0.0156 -0.8194 -0.1850
  391MOL0     C52682   5.444   5.889   8.392 -0.0133  0.2971 -0.3712
  391MOL0     C52683   5.378   5.769   8.416  0.5650  0.1004  0.0515
  391MOL0     C52684   5.426   5.676   8.503  0.1338  0.8939 -0.3679
  391MOL0     O52685   5.333   5.574   8.521 -0.0881  0.0156 -0.1740
  391MOL0     C52686   5.344   5.505   8.648 -0.1352 -0.3994 -0.4867
  391MOL0     C52687   5.286   5.587   8.770  0.6989 -0.1890  0.3275
  391MOL0     C52688   5.136   5.567   8.768  0.3240 -0.4383 -0.8676
  391MOL0     C52689   5.061   5.659   8.873  0.0991  0.3446 -0.6064
  391MOL0     C52690   4.921   5.597   8.904  0.2853  0.4948  0.8376
  391MOL0     C52691   4.928   5.467   8.992  0.2831  0.3960  0.0368
  391MOL0     C52692   4.853   5.346   8.932 -0.2706 -0.9114 -0.1164
  391MOL0     C52693   4.700   5.367   8.944 -1.4050 -0.8041 -0.6386
  391MOL0    Cl52694   4.604   5.227   8.906 -0.1474 -0.3584 -0.2725
  391MOL0     C52695   5.549   5.702   8.568  0.3029  0.5686 -0.5145
  391MOL0     C52696   5.621   5.819   8.546  0.4984 -0.3394 -0.0548
  391MOL0     O52697   5.844   5.966   8.407  0.5446  0.0684  0.8078
  391MOL0     C52698   5.706   6.285   8.311  0.5709  1.4269 -0.5020
  391MOL0     C52699   5.756   6.404   8.267  0.9199  0.2068  0.1374
  391MOL0     N52700   6.193   6.912   8.090  0.4624 -0.1306  0.5369
  391MOL0     N52701   6.281   6.880   8.004 -0.3672 -0.8171 -0.7029
  391MOL0     C52702   5.999   5.819   7.800  0.3230  0.3343 -0.7313
  391MOL0     C52703   5.972   5.678   7.777 -0.1916 -0.4457 -0.5627
  391MOL0     C52704   5.659   5.354   7.637 -0.3579 -0.6245  0.5359
  391MOL0     C52705   5.523   5.327   7.603  0.8434  0.4868 -0.1464
  391MOL0     C52706   5.481   5.206   7.549 -0.0516  0.1645 -0.3185
  391MOL0     C52707   5.568   5.111   7.525  0.0486 -0.1674  0.0792
  391MOL0     O52708   5.526   4.991   7.477  0.0402  0.5372 -0.4166
  391MOL0     C52709   5.442   4.910   7.560 -0.2435  0.6693 -0.7405
  391MOL0     C52710   5.354   4.803   7.491  0.1209 -0.4750  0.7327
  391MOL0     C52711   5.222   4.830   7.426 -0.0910 -0.0066  0.2243
  391MOL0     C52712   5.126   4.917   7.498 -0.3329  0.0438  0.7826
  391MOL0     C52713   5.091   4.854   7.623  0.5598  0.3197  0.6108
  391MOL0     C52714   5.046   4.802   7.726 -0.5725 -0.2743 -0.3231
  391MOL0     C52715   5.704   5.135   7.553  0.3688 -0.5458 -0.5255
  391MOL0     C52716   5.752   5.250   7.612 -0.4189  0.0833  0.2037
  391MOL0     C52717   5.901   5.243   7.648  0.4028  0.3164 -0.5605
  391MOL0     H52718   5.748   5.730   7.523 -1.8768 -0.7342  0.8256
  391MOL0     H52719   5.787   5.968   7.578 -1.4115 -1.5687 -0.2913
  391MOL0     H52720   5.915   6.080   7.953 -0.7838 -0.6178 -0.9924
  391MOL0     H52721   6.091   6.038   7.907  0.2732  0.9800 -0.6043
  391MOL0     H52722   5.998   6.291   7.962  0.2856  0.1896  0.3065
  391MOL0     H52723   5.936   6.288   7.805 -1.5217 -0.3378  0.1813
  391MOL0     H52724   6.165   6.230   7.701  4.1418  0.6121  0.8735
  391MOL0     H52725   6.241   6.249   7.861 -0.4993 -3.5197  0.5596
  391MOL0     H52726   6.081   6.437   7.680 -3.5991  1.1256  2.6693
  391MOL0     H52727   6.098   6.489   7.840  3.4209  3.5947 -1.5424
  391MOL0     H52728   6.361   6.471   7.817 -1.0046 -0.6272  0.2379
  391MOL0     H52729   6.326   6.456   7.645  1.3494  2.5015  0.0959
  391MOL0     H52730   6.244   6.669   7.603 -0.6801 -0.3413  0.0353
  391MOL0     H52731   6.166   6.685   7.761 -0.3821 -0.7630 -1.0042
  391MOL0     H52732   6.446   6.724   7.685 -0.5829 -1.9414 -2.0289
  391MOL0     H52733   6.397   6.689   7.857 -2.7362 -1.3452  0.3995
  391MOL0     H52734   6.424   6.923   7.776  0.3838 -2.2453 -0.0307
  391MOL0     H52735   6.286   6.910   7.667  2.1154  1.0943 -1.1153
  391MOL0     H52736   6.047   6.947   7.791 -0.5992 -1.8703 -0.2210
  391MOL0     H52737   5.942   7.054   8.156  0.4412  1.4139 -0.1520
  391MOL0     H52738   5.877   7.034   8.005  0.1235  1.0417 -0.0606
  391MOL0     H52739   5.763   6.878   8.175  0.1765 -3.2158  3.3341
  391MOL0     H52740   5.869   6.769   8.071  1.4732  0.5660 -1.1355
  391MOL0     H52741   5.918   6.876   8.345 -0.4309  0.3930 -0.6824
  391MOL0     H52742   6.040   6.777   8.239 -0.7038 -1.7544 -1.1777
  391MOL0     H52743   5.767   6.657   8.308 -0.1935 -0.7984 -4.2679
  391MOL0     H52744   5.914   6.624   8.404 -1.3375  1.2434  0.9263
  391MOL0     H52745   6.090   6.354   8.288 -0.5852  0.4746  1.0284
  391MOL0     H52746   6.004   6.127   8.360  4.0172  4.0398 -0.3030
  391MOL0     H52747   5.407   5.955   8.315  0.4208 -1.1068 -1.8506
  391MOL0     H52748   5.284   5.735   8.375  1.4844 -3.9994  0.8493
  391MOL0     H52749   5.271   5.427   8.626 -0.5703 -0.0485 -0.2966
  391MOL0     H52750   5.439   5.459   8.678  0.1917  1.0921  0.8588
  391MOL0     H52751   5.333   5.543   8.859  0.4687 -1.8483 -0.3373
  391MOL0     H52752   5.314   5.691   8.755 -0.1759 -0.0024 -0.0776
  391MOL0     H52753   5.101   5.599   8.670 -0.6197 -0.0066 -0.4089
  391MOL0     H52754   5.113   5.460   8.771  1.5398 -0.8419 -3.7052
  391MOL0     H52755   5.047   5.750   8.815 -0.8730  2.3735  2.5589
  391MOL0     H52756   5.118   5.694   8.960 -0.6294  2.5536 -0.9656
  391MOL0     H52757   4.888   5.559   8.807 -1.2299 -0.5049  1.6881
  391MOL0     H52758   4.847   5.667   8.943 -0.6771 -0.4875  0.8331
  391MOL0     H52759   5.033   5.440   9.006  0.9876  2.5446 -0.6897
  391MOL0     H52760   4.898   5.492   9.095  0.8042 -3.4372  1.2678
  391MOL0     H52761   4.893   5.252   8.971 -0.9797 -2.2714 -2.4807
  391MOL0     H52762   4.878   5.328   8.827  1.0068 -0.2199  0.0463
  391MOL0     H52763   4.678   5.392   9.049  0.9641 -3.2560  0.5892
  391MOL0     H52764   4.682   5.453   8.879  0.8099 -0.8204 -1.3619
  391MOL0     H52765   5.585   5.629   8.640 -0.3664  0.8763  0.1354
  391MOL0     H52766   5.705   5.838   8.613 -0.5644  0.7234  1.0382
  391MOL0     H52767   5.601   6.265   8.327  1.0367 -0.6939  0.2652
  391MOL0     H52768   5.683   6.483   8.253  2.6798  2.3723  2.2094
  391MOL0     H52769   6.088   5.825   7.862 -0.4723  1.5145  0.3692
  391MOL0     H52770   6.026   5.597   7.824  1.7965 -0.4718 -2.7378
  391MOL0     H52771   5.447   5.404   7.610  2.2601  2.1556 -2.0716
  391MOL0     H52772   5.380   5.185   7.515 -0.5338 -0.7435  1.5278
  391MOL0     H52773   5.383   4.950   7.642  2.1338  0.0674  1.3802
  391MOL0     H52774   5.517   4.844   7.604 -1.0842 -0.4460 -0.8988
  391MOL0     H52775   5.338   4.715   7.554  3.3869 -0.1728  2.1971
  391MOL0     H52776   5.417   4.764   7.410  3.3426  2.6541  1.4421
  391MOL0     H52777   5.167   4.739   7.401  0.4281 -0.2026 -0.2172
  391MOL0     H52778   5.229   4.868   7.324 -1.5916 -0.2949 -0.0095
  391MOL0     H52779   5.170   5.016   7.514 -0.7974 -0.1702  4.0380
  391MOL0     H52780   5.034   4.923   7.438  0.6616  1.4128 -0.6838
  391MOL0     H52781   5.010   4.753   7.815  2.9275  0.3191  1.5807
  391MOL0     H52782   5.773   5.062   7.513 -0.6094 -0.5240 -2.3755
  391MOL0     H52783   5.919   5.255   7.755  1.1244 -1.1295 -0.5039
  391MOL0     H52784   5.953   5.149   7.631 -0.7127 -0.1715 -1.3766
  391MOL0     H52785   5.956   5.318   7.590 -0.3655  1.3842  0.0428
  392MOL0     O52786  10.249   6.183  11.019 -0.4712  0.1325  0.0599
  392MOL0     C52787  10.162   6.256  11.079 -0.9863  0.1763 -0.3252
  392MOL0     O52788  10.127   6.380  11.041 -0.1956 -0.5227 -0.4900
  392MOL0     C52789  10.164   6.485  11.124  1.3488 -0.9533  0.4971
  392MOL0     C52790  10.269   6.481  11.219 -0.1739 -0.5856 -0.1975
  392MOL0     C52791  10.298   6.600  11.286  1.0862  0.9640 -0.6850
  392MOL0     C52792  10.215   6.717  11.278  0.2945  0.1496  0.7884
  392MOL0     O52793  10.250   6.805  11.367  0.5071  0.6277 -0.3962
  392MOL0     C52794  10.168   6.910  11.406  0.5739  0.6891 -0.4668
  392MOL0     C52795  10.189   7.028  11.322 -0.0812  1.2161  0.7275
  392MOL0     C52796  10.326   7.091  11.324  0.5145  0.4624  0.0518
  392MOL0     C52797  10.324   7.185  11.200  0.5371  0.3999  0.0986
  392MOL0     C52798  10.460   7.249  11.178  0.2441  0.5717  0.1986
  392MOL0     C52799  10.511   7.316  11.314 -0.2580 -0.9319  0.2004
  392MOL0     C52800  10.593   7.442  11.285  0.5789 -0.4325  0.7471
  392MOL0     C52801  10.503   7.564  11.257 -0.8080  0.2396  0.5289
  392MOL0     N52802  10.466   7.630  11.374  0.2839  0.2750 -0.6157
  392MOL0     C52803  10.548   7.697  11.460  0.5306  0.4677  0.4914
  392MOL0     C52804  10.461   7.759  11.546  0.2171  0.0479  0.2199
  392MOL0     C52805  10.485   7.847  11.668 -0.5271  0.0066  0.3691
  392MOL0     C52806  10.401   7.979  11.677  0.0062  0.3180  0.5811
  392MOL0     C52807  10.320   7.998  11.808 -0.5595 -0.4016 -0.9255
  392MOL0     C52808  10.216   7.894  11.825 -0.4392 -0.0542  0.4104
  392MOL0     O52809  10.124   7.936  11.927  0.5293  0.1145  0.3165
  392MOL0     C52810  10.012   8.011  11.893  0.6162 -0.5129 -0.2293
  392MOL0     C52811   9.915   8.020  11.993  0.5431  0.4933  0.2361
  392MOL0     C52812   9.790   8.096  11.978 -0.1635 -0.1850 -0.1264
  392MOL0     C52813   9.757   8.146  11.853 -0.1043  0.5408  0.3992
  392MOL0     C52814   9.622   8.221  11.829 -0.4045  0.1187  0.3419
  392MOL0     O52815   9.547   8.258  11.940 -0.0295  0.1834  0.3231
  392MOL0     C52816   9.418   8.292  11.910  0.1656  0.1403 -0.3340
  392MOL0     C52817   9.310   8.214  11.939  0.4385  0.0756 -0.8018
  392MOL0     C52818   9.184   8.249  11.900 -0.3627  0.0773  0.0466
  392MOL0     C52819   9.158   8.368  11.831 -0.1044 -0.4009 -0.1315
  392MOL0     O52820   9.024   8.396  11.802 -0.2230 -0.0027  0.7723
  392MOL0     C52821   8.991   8.517  11.746 -0.6157 -0.1932  0.8754
  392MOL0     C52822   9.005   8.509  11.587 -0.4785 -0.5877 -1.2719
  392MOL0     C52823   8.971   8.647  11.523 -0.0886  0.2629 -0.3935
  392MOL0     C52824   9.088   8.741  11.537 -0.3066 -0.3396 -1.4103
  392MOL0     C52825   9.077   8.870  11.463  0.5432  0.4569 -0.2126
  392MOL0     C52826   8.970   8.962  11.519 -0.3868  0.6375 -0.1639
  392MOL0     C52827   9.001   9.114  11.481  0.0265 -0.1693  1.1530
  392MOL0     C52828   9.033   9.140  11.324  1.3191  0.5149 -0.0544
  392MOL0    Cl52829   8.889   9.111  11.219 -0.3247  0.3562 -0.2949
  392MOL0     C52830   9.262   8.456  11.803 -0.2290  1.0496 -0.9425
  392MOL0     C52831   9.393   8.412  11.839  0.1662  0.6571 -0.1606
  392MOL0     O52832   9.594   8.250  11.713 -0.5322  0.3395  0.2771
  392MOL0     C52833   9.854   8.125  11.745 -0.6742  0.1881 -0.6589
  392MOL0     C52834   9.974   8.052  11.766  0.4180  0.0863  0.3087
  392MOL0     N52835  10.325   7.718  11.515 -0.4177 -0.0690  0.1005
  392MOL0     N52836  10.336   7.640  11.418  0.0309 -1.0269 -0.2794
  392MOL0     C52837  10.107   6.721  11.182 -0.8946  0.0530 -0.3985
  392MOL0     C52838  10.094   6.609  11.100  1.4501 -0.1744 -0.2530
  392MOL0     C52839  10.114   6.208  11.200 -1.1150  0.3155 -1.0603
  392MOL0     C52840  10.211   6.170  11.301 -0.3917  0.0770  0.3891
  392MOL0     C52841  10.170   6.152  11.433  0.3381 -0.6014 -0.9058
  392MOL0     C52842  10.034   6.163  11.473 -0.0048  0.0401 -0.4841
  392MOL0     O52843   9.978   6.142  11.601 -0.5895  0.8109 -0.1777
  392MOL0     C52844  10.029   6.047  11.689 -0.1450  0.2466 -0.9327
  392MOL0     C52845   9.923   5.957  11.745 -0.2615  0.8174  0.0159
  392MOL0     C52846   9.837   5.892  11.637 -0.3597 -0.0599 -0.8483
  392MOL0     C52847   9.723   5.966  11.566 -0.0705  0.8734  0.4674
  392MOL0     C52848   9.627   6.050  11.655  0.2965  0.4561 -0.1191
  392MOL0     C52849   9.565   6.113  11.735 -0.1063  0.5319  0.5655
  392MOL0     C52850   9.948   6.218  11.383 -0.2201  0.5720  0.0663
  392MOL0     C52851   9.978   6.238  11.250 -0.7878  0.3881  0.8600
  392MOL0     C52852   9.874   6.300  11.160  0.0364 -0.3927 -0.1135
  392MOL0     H52853  10.332   6.395  11.241 -1.6301 -0.8880  3.6697
  392MOL0     H52854  10.381   6.609  11.355  1.9298  4.1454 -1.9183
  392MOL0     H52855  10.067   6.868  11.404  1.7604 -2.5140  0.5591
  392MOL0     H52856  10.190   6.928  11.511  1.1153  1.1647 -0.6601
  392MOL0     H52857  10.108   7.090  11.363  0.5141  2.2954  0.3004
  392MOL0     H52858  10.163   6.999  11.220 -3.0165  2.3248  1.0480
  392MOL0     H52859  10.396   7.008  11.316 -1.6725 -1.3563 -1.7177
  392MOL0     H52860  10.338   7.148  11.416 -1.5057 -0.7687  1.1589
  392MOL0     H52861  10.307   7.120  11.114  1.2482  1.3454 -0.7938
  392MOL0     H52862  10.236   7.249  11.192  1.9452  2.2099 -3.7994
  392MOL0     H52863  10.526   7.172  11.137  0.3517 -1.2016  3.4058
  392MOL0     H52864  10.443   7.317  11.093  0.3429 -0.8871 -1.0233
  392MOL0     H52865  10.429   7.338  11.383 -0.2652 -0.4622  0.0451
  392MOL0     H52866  10.577   7.246  11.366  0.1868 -0.2352  0.5896
  392MOL0     H52867  10.655   7.415  11.199 -0.8824 -0.1801 -0.4199
  392MOL0     H52868  10.664   7.469  11.364  0.4748 -2.5078  1.6161
  392MOL0     H52869  10.555   7.634  11.191  1.6122 -0.1193  1.9394
  392MOL0     H52870  10.418   7.517  11.205  0.4747  0.7728 -2.2355
  392MOL0     H52871  10.649   7.731  11.440 -0.5002  2.6594 -1.4998
  392MOL0     H52872  10.474   7.786  11.759 -0.4727  1.4480  1.3806
  392MOL0     H52873  10.589   7.878  11.661  1.4963 -5.7214 -0.5113
  392MOL0     H52874  10.462   8.068  11.654 -1.1846  1.6039  2.1719
  392MOL0     H52875  10.324   7.972  11.599  1.2914 -0.3029 -0.6830
  392MOL0     H52876  10.283   8.101  11.806  0.3185 -0.0078  0.8181
  392MOL0     H52877  10.384   7.995  11.897 -2.6463  0.7768  0.7115
  392MOL0     H52878  10.275   7.811  11.865  1.2379  2.0016  2.5284
  392MOL0     H52879  10.170   7.866  11.730 -1.7433  3.3123 -0.1105
  392MOL0     H52880   9.948   7.980  12.089  1.9522 -0.1912 -0.5119
  392MOL0     H52881   9.727   8.088  12.066 -0.4541 -3.3933 -0.5105
  392MOL0     H52882   9.326   8.117  11.984  2.1829  0.7894  0.1873
  392MOL0     H52883   9.101   8.179  11.914 -0.0516 -0.4596 -0.7113
  392MOL0     H52884   8.890   8.547  11.776 -0.9591 -0.0800 -0.3250
  392MOL0     H52885   9.053   8.602  11.774  0.0083 -0.2376 -0.3030
  392MOL0     H52886   9.105   8.469  11.568 -0.8786 -2.1866 -0.2005
  392MOL0     H52887   8.930   8.439  11.548  0.2902 -0.8693 -2.2868
  392MOL0     H52888   8.956   8.635  11.415  2.3573 -3.5834 -0.4928
  392MOL0     H52889   8.876   8.686  11.560 -1.4829 -1.6839 -1.7200
  392MOL0     H52890   9.179   8.690  11.505 -0.2862 -0.2733 -1.4570
  392MOL0     H52891   9.110   8.766  11.641 -0.9610 -2.0059 -0.8216
  392MOL0     H52892   9.053   8.857  11.357  0.8059 -0.6287 -0.1406
  392MOL0     H52893   9.177   8.914  11.461  0.0069  2.0565 -4.8700
  392MOL0     H52894   8.874   8.929  11.479  0.3473 -2.0792  0.1275
  392MOL0     H52895   8.971   8.957  11.628  3.9699  2.4484  0.1148
  392MOL0     H52896   9.089   9.150  11.535  0.9291  2.8687 -2.0288
  392MOL0     H52897   8.918   9.183  11.501  1.1398  2.6701 -2.9034
  392MOL0     H52898   9.064   9.243  11.308  0.5838  0.9390  1.1396
  392MOL0     H52899   9.120   9.081  11.293  0.5444 -0.8269  0.2529
  392MOL0     H52900   9.243   8.550  11.753  0.5433  0.8740 -1.5900
  392MOL0     H52901   9.486   8.463  11.814  1.0632 -1.7859 -2.1920
  392MOL0     H52902   9.851   8.168  11.645 -0.4309 -1.5039 -1.4318
  392MOL0     H52903  10.050   8.066  11.691 -0.2325  3.8373  0.1508
  392MOL0     H52904  10.048   6.811  11.177  0.8985  1.2159 -2.3086
  392MOL0     H52905  10.033   6.606  11.010  1.5367 -1.5002 -0.2827
  392MOL0     H52906  10.318   6.174  11.283 -0.3024  2.5481  1.1189
  392MOL0     H52907  10.248   6.124  11.503 -0.3252  0.8737  0.4964
  392MOL0     H52908  10.074   6.098  11.774 -4.1425 -1.3155  2.4281
  392MOL0     H52909  10.103   5.987  11.635  0.4384  1.6720 -1.7936
  392MOL0     H52910   9.860   6.012  11.816 -1.0578  0.1667 -0.1632
  392MOL0     H52911   9.970   5.884  11.812  1.4684  2.2181  0.4066
  392MOL0     H52912   9.781   5.810  11.684 -1.2395  1.2683  0.4854
  392MOL0     H52913   9.905   5.852  11.561  0.7521  2.0860 -1.0582
  392MOL0     H52914   9.784   6.024  11.497  1.9152 -2.5876 -0.9465
  392MOL0     H52915   9.662   5.895  11.510  0.5853  0.3453  0.4091
  392MOL0     H52916   9.510   6.167  11.810  1.0558  0.8460  1.2177
  392MOL0     H52917   9.849   6.225  11.426  0.2890 -0.2273  1.4170
  392MOL0     H52918   9.769   6.298  11.193 -0.6487  0.5254 -2.0355
  392MOL0     H52919   9.894   6.407  11.146  0.5359 -0.3399  0.9059
  392MOL0     H52920   9.871   6.248  11.064 -0.0192 -2.3324  0.9033
  393MOL0     O52921   6.134   9.869   7.113 -0.0589 -0.2081 -0.1240
  393MOL0     C52922   6.194   9.852   7.220 -1.3078  0.0547  1.1604
  393MOL0     O52923   6.251   9.944   7.309  0.4400  0.4724 -0.0037
  393MOL0     C52924   6.208  10.079   7.314  0.7681  1.2728  0.6570
  393MOL0     C52925   6.092  10.130   7.249  0.2554 -0.5189 -0.3036
  393MOL0     C52926   6.038  10.257   7.268 -0.2117 -0.1297 -0.5774
  393MOL0     C52927   6.105  10.346   7.353  0.3865  0.0133  0.4811
  393MOL0     O52928   6.056  10.468   7.378 -0.8721  0.6088 -0.4044
  393MOL0     C52929   6.132  10.560   7.448  1.0521 -0.5161 -0.3065
  393MOL0     C52930   6.238  10.611   7.350  0.4220 -0.4093  0.0574
  393MOL0     C52931   6.166  10.671   7.227  0.9111 -0.3124  0.6868
  393MOL0     C52932   6.243  10.777   7.155 -0.1118  0.0370  0.4204
  393MOL0     C52933   6.165  10.821   7.037 -0.6401  1.8366  1.1152
  393MOL0     C52934   6.243  10.951   6.988 -0.6120  0.7609 -0.5318
  393MOL0     C52935   6.166  11.041   6.888 -0.9548 -0.3236  0.0222
  393MOL0     C52936   6.125  10.974   6.758  0.2786  0.1415  1.3189
  393MOL0     N52937   6.077  11.058   6.650 -0.6993 -0.3374 -1.4403
  393MOL0     C52938   5.947  11.103   6.653 -0.1408  0.9203  0.6979
  393MOL0     C52939   5.954  11.183   6.542 -0.7837 -0.3455  0.3223
  393MOL0     C52940   5.844  11.278   6.501 -0.4794 -0.0202 -0.7547
  393MOL0     C52941   5.894  11.422   6.482  1.0125 -0.4711 -0.3630
  393MOL0     C52942   5.976  11.478   6.605 -0.1359 -0.0132  0.2726
  393MOL0     C52943   5.908  11.478   6.741  0.2521 -0.0744 -0.9975
  393MOL0     O52944   5.803  11.583   6.730  0.0692 -0.1050  0.4974
  393MOL0     C52945   5.719  11.624   6.832  0.4680 -0.1011 -0.2313
  393MOL0     C52946   5.739  11.573   6.962  0.0804 -0.5580  0.5303
  393MOL0     C52947   5.673  11.631   7.066  0.7835  0.6957  0.1201
  393MOL0     C52948   5.573  11.730   7.050 -0.2573  0.2834 -0.7103
  393MOL0     C52949   5.503  11.794   7.166 -0.6430  0.2499  1.0993
  393MOL0     O52950   5.518  11.736   7.287  0.5550 -0.3837 -0.8474
  393MOL0     C52951   5.469  11.791   7.405  0.1548  0.0819 -0.1823
  393MOL0     C52952   5.562  11.826   7.506 -1.0119 -0.8583 -0.4215
  393MOL0     C52953   5.509  11.890   7.615 -0.0942  0.2803  0.0139
  393MOL0     C52954   5.373  11.895   7.646 -0.0300  0.3465  0.4225
  393MOL0     O52955   5.334  11.937   7.776 -0.2446  0.5450 -0.6750
  393MOL0     C52956   5.208  11.891   7.821  0.3834 -0.3227  0.7522
  393MOL0     C52957   5.213  11.905   7.965 -0.8477 -0.1932  0.1045
  393MOL0     C52958   5.091  11.856   8.031 -0.2947 -0.0528  0.6464
  393MOL0     C52959   4.966  11.947   8.015  0.1640  0.5506 -0.0971
  393MOL0     C52960   4.842  11.870   8.069  0.1843  0.2979 -0.2679
  393MOL0     C52961   4.718  11.947   8.042 -0.4150 -0.4198 -0.0292
  393MOL0     C52962   4.597  11.880   8.121 -0.0677 -0.0942  0.3567
  393MOL0     C52963   4.463  11.943   8.102 -0.2867 -1.1763  0.1525
  393MOL0    Cl52964   4.409  11.961   7.935 -0.2504  0.5656 -0.0890
  393MOL0     C52965   5.288  11.860   7.541  0.2839 -0.2534 -0.4376
  393MOL0     C52966   5.334  11.804   7.419  0.0419 -0.2776 -0.4619
  393MOL0     O52967   5.451  11.906   7.134  0.1076  0.0510 -0.1033
  393MOL0     C52968   5.549  11.769   6.919  0.9961 -0.4337 -0.1278
  393MOL0     C52969   5.619  11.718   6.811  0.4427  0.0723  0.0196
  393MOL0     N52970   6.076  11.182   6.482 -0.2652  0.4967  0.4431
  393MOL0     N52971   6.146  11.095   6.546 -0.0570 -0.1144  0.8019
  393MOL0     C52972   6.210  10.283   7.431  0.0830 -0.1396 -0.0836
  393MOL0     C52973   6.256  10.157   7.413 -0.6139 -0.1010  0.3403
  393MOL0     C52974   6.226   9.708   7.256 -0.8553 -0.4301 -1.4842
  393MOL0     C52975   6.314   9.684   7.367  0.2659  0.5088 -0.2366
  393MOL0     C52976   6.314   9.556   7.433 -0.3340 -0.5149  0.3769
  393MOL0     C52977   6.248   9.443   7.373 -0.1675 -1.0158  0.2272
  393MOL0     O52978   6.257   9.320   7.436 -0.4996 -0.3458 -0.3122
  393MOL0     C52979   6.205   9.205   7.368  0.0685 -1.0734 -0.0044
  393MOL0     C52980   6.049   9.175   7.396  0.8406  0.9082 -0.3041
  393MOL0     C52981   5.989   9.207   7.539  0.7587 -0.1292  0.2849
  393MOL0     C52982   5.925   9.354   7.540  0.7600 -1.4176  0.1785
  393MOL0     C52983   5.893   9.407   7.667 -0.2070 -0.0739  1.0419
  393MOL0     C52984   5.882   9.463   7.774  0.0510 -0.0527  0.2356
  393MOL0     C52985   6.171   9.476   7.258 -1.3237 -0.4023  0.3906
  393MOL0     C52986   6.154   9.605   7.199  0.8748 -0.0885  0.2408
  393MOL0     C52987   6.055   9.603   7.079  0.4446  0.0759 -0.7343
  393MOL0     H52988   6.030  10.079   7.176  2.0422 -2.0647 -0.8401
  393MOL0     H52989   5.949  10.296   7.219  0.0321  2.9670  1.2000
  393MOL0     H52990   6.063  10.642   7.471  1.8222  0.2295 -0.5989
  393MOL0     H52991   6.173  10.506   7.533  0.1836 -0.3451  0.2294
  393MOL0     H52992   6.315  10.535   7.329 -0.2940 -1.2624  0.4357
  393MOL0     H52993   6.285  10.701   7.390 -2.4188  0.6031  1.3355
  393MOL0     H52994   6.077  10.720   7.268 -0.8622 -1.7604 -1.2002
  393MOL0     H52995   6.121  10.602   7.154  0.5724  1.0573 -0.4644
  393MOL0     H52996   6.271  10.856   7.226  0.8920  0.5906 -0.5647
  393MOL0     H52997   6.337  10.743   7.111  0.4685  3.0080 -0.9013
  393MOL0     H52998   6.153  10.742   6.962 -3.0188  0.4544  2.8208
  393MOL0     H52999   6.066  10.845   7.076 -0.8293  0.4215  1.5678
  393MOL0     H53000   6.264  11.018   7.072  1.4606 -0.3720 -0.0774
  393MOL0     H53001   6.344  10.927   6.953  0.3632  1.1240  1.8638
  393MOL0     H53002   6.233  11.125   6.867 -0.9432  0.2043  2.0207
  393MOL0     H53003   6.080  11.086   6.939 -0.4569  0.2957  0.3300
  393MOL0     H53004   6.210  10.919   6.716  1.1631 -2.7910  6.1864
  393MOL0     H53005   6.052  10.895   6.780  1.2440 -1.6243 -1.2860
  393MOL0     H53006   5.868  11.099   6.728 -1.6493  2.5409 -0.7135
  393MOL0     H53007   5.799  11.240   6.408 -2.1931 -3.1556  1.1767
  393MOL0     H53008   5.763  11.268   6.574  1.5803 -0.6608  1.5878
  393MOL0     H53009   5.941  11.424   6.384  0.5926 -0.7983 -0.5693
  393MOL0     H53010   5.806  11.486   6.473 -0.6529 -2.4706  0.8439
  393MOL0     H53011   6.011  11.579   6.579  0.3535 -0.1364  0.4499
  393MOL0     H53012   6.063  11.412   6.603  2.2287  2.9082 -1.1597
  393MOL0     H53013   5.982  11.511   6.814 -1.4850  0.8365  0.4368
  393MOL0     H53014   5.873  11.382   6.782 -1.4740  0.4772 -1.0807
  393MOL0     H53015   5.818  11.504   6.989  0.4727 -0.1862  0.3419
  393MOL0     H53016   5.699  11.589   7.162  0.6977 -1.2941 -0.6922
  393MOL0     H53017   5.670  11.809   7.508 -1.0924 -1.3233  0.9692
  393MOL0     H53018   5.576  11.923   7.695  0.1246  0.6362 -0.3126
  393MOL0     H53019   5.140  11.953   7.762  2.8705  0.6437 -1.2777
  393MOL0     H53020   5.188  11.786   7.798 -0.6101  0.2170 -0.9774
  393MOL0     H53021   5.300  11.852   8.006  1.6333  3.7071  0.4655
  393MOL0     H53022   5.228  12.004   8.010  0.2685 -0.8308  1.2212
  393MOL0     H53023   5.076  11.755   7.990  2.9652  0.1786 -1.4225
  393MOL0     H53024   5.123  11.841   8.134 -0.2574  2.7745  1.1058
  393MOL0     H53025   4.951  11.973   7.910  0.5793 -1.4190 -0.6954
  393MOL0     H53026   4.993  12.036   8.073  1.7047 -0.5581  0.9604
  393MOL0     H53027   4.864  11.859   8.176 -0.9317 -3.5450 -0.2802
  393MOL0     H53028   4.839  11.779   8.009  1.3794  1.2347 -1.8288
  393MOL0     H53029   4.721  12.055   8.058  0.5712  0.4059 -4.5311
  393MOL0     H53030   4.701  11.935   7.934 -1.1453 -1.9588  0.2297
  393MOL0     H53031   4.627  11.894   8.225  0.9271 -1.6931  0.3179
  393MOL0     H53032   4.598  11.777   8.084 -0.1239 -0.0922  0.3514
  393MOL0     H53033   4.386  11.893   8.161 -0.5256 -0.3118  0.6044
  393MOL0     H53034   4.470  12.041   8.151  1.4661 -2.0613  1.7797
  393MOL0     H53035   5.180  11.860   7.557  0.4269  1.3302  0.6496
  393MOL0     H53036   5.263  11.776   7.342  3.3810 -2.5507 -3.0236
  393MOL0     H53037   5.470  11.842   6.903 -1.3095 -1.7014  3.9028
  393MOL0     H53038   5.609  11.769   6.716 -0.2627  1.4051  0.7911
  393MOL0     H53039   6.255  10.326   7.520 -0.3184  0.5677 -0.2236
  393MOL0     H53040   6.330  10.117   7.482 -1.4822  0.2025  1.4627
  393MOL0     H53041   6.381   9.763   7.398 -1.0465  2.5862 -2.3142
  393MOL0     H53042   6.369   9.545   7.526 -1.8639 -1.0509  1.2552
  393MOL0     H53043   6.269   9.120   7.393  1.1822 -0.4547 -0.7161
  393MOL0     H53044   6.208   9.211   7.259  2.1657  2.4973  0.1063
  393MOL0     H53045   6.040   9.068   7.378  0.9825  0.9454 -0.6040
  393MOL0     H53046   5.981   9.224   7.327  0.2103 -0.9551 -1.0422
  393MOL0     H53047   6.069   9.187   7.611  0.1050 -0.3022  0.9804
  393MOL0     H53048   5.906   9.139   7.562 -0.1264  0.7935 -0.0961
  393MOL0     H53049   5.994   9.424   7.493  2.0653 -2.3679  0.6087
  393MOL0     H53050   5.846   9.365   7.465 -0.2785 -2.3457  1.0964
  393MOL0     H53051   5.876   9.511   7.870  0.4156 -0.0713  0.2720
  393MOL0     H53052   6.116   9.402   7.201 -1.7265  0.7721 -0.8064
  393MOL0     H53053   5.977   9.679   7.093  2.3538  2.3949 -1.9925
  393MOL0     H53054   6.108   9.615   6.985  1.7239  0.3523 -0.0031
  393MOL0     H53055   6.001   9.508   7.081  3.0140 -1.4794  0.3184
  394MOL0     O53056   7.723   5.080   4.492 -0.0931  0.0930 -0.0696
  394MOL0     C53057   7.796   5.042   4.401 -0.2726  0.1356  0.0283
  394MOL0     O53058   7.760   5.041   4.270  0.4842  1.2999  0.0338
  394MOL0     C53059   7.639   5.070   4.215 -0.0132 -0.0382  0.1605
  394MOL0     C53060   7.557   5.165   4.262 -0.0668 -0.2093  0.4366
  394MOL0     C53061   7.430   5.191   4.198 -0.5334  0.2034  0.3373
  394MOL0     C53062   7.396   5.131   4.074  0.2019  0.5592  0.4641
  394MOL0     O53063   7.270   5.139   4.025 -0.6515  1.0089 -0.0574
  394MOL0     C53064   7.264   5.162   3.880 -0.1561  0.6592 -1.0447
  394MOL0     C53065   7.135   5.241   3.855  0.9867  0.0820 -0.1576
  394MOL0     C53066   7.056   5.188   3.728 -0.5100 -0.2454  1.4241
  394MOL0     C53067   6.966   5.301   3.673 -0.5470 -0.2366  0.4376
  394MOL0     C53068   6.916   5.296   3.532 -0.0156 -0.2517 -0.0400
  394MOL0     C53069   6.789   5.376   3.514  0.1002 -0.5345  0.1144
  394MOL0     C53070   6.773   5.401   3.365  0.7595 -1.0427 -0.2290
  394MOL0     C53071   6.649   5.498   3.343 -0.0810  0.1936 -1.0614
  394MOL0     N53072   6.640   5.544   3.204  0.0375  0.1022 -0.1186
  394MOL0     C53073   6.523   5.577   3.137  0.4590 -0.5170 -0.4087
  394MOL0     C53074   6.560   5.650   3.024 -0.7044  0.1032  0.0197
  394MOL0     C53075   6.479   5.707   2.912  0.1779 -0.0113  0.5048
  394MOL0     C53076   6.383   5.811   2.951  0.1928  0.6758 -0.0971
  394MOL0     C53077   6.448   5.922   3.041  0.1473  0.1448 -0.2697
  394MOL0     C53078   6.544   6.005   2.962 -0.1200 -0.1173 -0.8918
  394MOL0     O53079   6.480   6.075   2.858 -0.4620  0.9117  0.4918
  394MOL0     C53080   6.557   6.126   2.768  0.9026 -0.7058  0.1535
  394MOL0     C53081   6.585   6.047   2.657  0.2552  0.7073  0.2152
  394MOL0     C53082   6.658   6.093   2.546 -0.1141  0.1574 -0.0814
  394MOL0     C53083   6.719   6.219   2.556 -0.2990 -0.2686  0.8975
  394MOL0     C53084   6.811   6.273   2.453  0.4276 -0.1598 -0.3749
  394MOL0     O53085   6.872   6.390   2.474  0.1521 -0.6815 -0.9553
  394MOL0     C53086   6.969   6.438   2.392  0.9278  0.2545  0.1971
  394MOL0     C53087   7.094   6.463   2.453  0.2011 -0.1635 -0.3573
  394MOL0     C53088   7.202   6.506   2.386 -0.2431  0.6270 -0.6851
  394MOL0     C53089   7.191   6.519   2.242 -1.0329 -0.1057 -0.2697
  394MOL0     O53090   7.306   6.559   2.172  0.1204  0.6381  0.6653
  394MOL0     C53091   7.294   6.588   2.036  0.2433  0.1332 -1.0136
  394MOL0     C53092   7.406   6.653   1.963 -0.9147 -0.4998  0.4137
  394MOL0     C53093   7.408   6.613   1.807  0.5725  0.2236 -0.0627
  394MOL0     C53094   7.285   6.685   1.739 -0.4744 -0.4882  0.6119
  394MOL0     C53095   7.285   6.636   1.597 -0.3419 -0.0719  0.3654
  394MOL0     C53096   7.252   6.491   1.576  1.1642  1.0556 -0.5710
  394MOL0     C53097   7.185   6.452   1.445 -0.1262 -0.4753 -0.4358
  394MOL0     C53098   7.278   6.377   1.354  0.1302  0.1519  0.6124
  394MOL0    Cl53099   7.263   6.201   1.389 -0.4115 -0.2815  0.1398
  394MOL0     C53100   7.059   6.499   2.177  1.0070  0.8434  0.3438
  394MOL0     C53101   6.954   6.451   2.256 -0.1876  0.8775 -0.4817
  394MOL0     O53102   6.823   6.196   2.356  0.1826 -0.5580  0.4920
  394MOL0     C53103   6.698   6.296   2.669 -0.6749 -0.1252  0.1204
  394MOL0     C53104   6.612   6.252   2.770  0.1020  0.5024  0.9899
  394MOL0     N53105   6.703   5.658   3.018  0.4122  0.6443 -0.2128
  394MOL0     N53106   6.747   5.594   3.126 -0.3055  0.2712  0.0546
  394MOL0     C53107   7.488   5.024   4.025  0.2828 -0.0321  1.9378
  394MOL0     C53108   7.606   5.000   4.091  0.4368  0.6391 -0.3024
  394MOL0     C53109   7.934   4.998   4.433 -0.5601  0.1866  0.2398
  394MOL0     C53110   8.025   4.983   4.327 -0.0600 -0.5280  0.2282
  394MOL0     C53111   8.164   4.948   4.349 -0.0793  0.0625  0.9425
  394MOL0     C53112   8.202   4.918   4.477  0.1209 -0.0276 -0.2582
  394MOL0     O53113   8.346   4.909   4.491  0.4396 -0.1066  0.2338
  394MOL0     C53114   8.397   4.879   4.618  0.9833 -0.2140  0.8740
  394MOL0     C53115   8.552   4.869   4.599 -0.4505  0.3683  0.4508
  394MOL0     C53116   8.582   4.733   4.544 -1.1049 -0.4721 -0.0313
  394MOL0     C53117   8.728   4.678   4.554 -0.4041  0.6442  0.5903
  394MOL0     C53118   8.729   4.548   4.483 -0.2088 -0.0766  1.1679
  394MOL0     C53119   8.736   4.435   4.449 -0.5300 -0.3554  0.0118
  394MOL0     C53120   8.115   4.927   4.584 -0.1136  0.1631  0.4985
  394MOL0     C53121   7.989   4.966   4.564  1.3066 -0.3301 -0.1182
  394MOL0     C53122   7.886   4.977   4.681  0.3509 -0.7735  0.0630
  394MOL0     H53123   7.596   5.223   4.345 -2.4331  1.7722  0.2733
  394MOL0     H53124   7.353   5.241   4.256 -0.2873  1.4940 -0.3922
  394MOL0     H53125   7.347   5.218   3.834 -1.4834  1.1051 -3.0419
  394MOL0     H53126   7.260   5.066   3.828 -1.5648 -0.2854  0.7325
  394MOL0     H53127   7.149   5.349   3.849  0.1085  0.1543 -1.1041
  394MOL0     H53128   7.078   5.223   3.946 -2.9204 -1.7693 -2.7030
  394MOL0     H53129   7.005   5.094   3.753 -1.4556 -0.6052 -1.4305
  394MOL0     H53130   7.128   5.169   3.647 -1.2673  4.6556 -0.7318
  394MOL0     H53131   6.881   5.308   3.741 -0.9036 -2.9901  0.3907
  394MOL0     H53132   7.034   5.387   3.679  2.3663 -2.4907  2.2911
  394MOL0     H53133   6.995   5.321   3.461  0.5155 -0.9725  0.2857
  394MOL0     H53134   6.889   5.193   3.510 -1.8383  0.0129  0.7684
  394MOL0     H53135   6.696   5.337   3.558 -1.9797  2.6460 -1.0904
  394MOL0     H53136   6.816   5.469   3.564 -0.4524 -0.1865 -0.2170
  394MOL0     H53137   6.765   5.306   3.311  2.0384  0.6031 -3.6442
  394MOL0     H53138   6.859   5.449   3.319  0.7803 -1.0247 -0.1713
  394MOL0     H53139   6.550   5.460   3.370 -0.7802  1.1082 -2.2150
  394MOL0     H53140   6.667   5.582   3.411 -2.2822 -1.4226  1.7501
  394MOL0     H53141   6.418   5.563   3.163  1.4225 -1.4680  3.6759
  394MOL0     H53142   6.544   5.759   2.842 -0.3406 -0.1883 -0.1241
  394MOL0     H53143   6.426   5.619   2.873 -2.1753  1.9444 -0.9831
  394MOL0     H53144   6.352   5.848   2.853  1.6281 -0.4824 -1.0100
  394MOL0     H53145   6.299   5.771   3.008 -0.2700 -0.6228 -1.6546
  394MOL0     H53146   6.494   5.871   3.127  0.6899  0.7347 -0.2054
  394MOL0     H53147   6.371   5.985   3.087  0.3307  0.3913 -0.3019
  394MOL0     H53148   6.623   5.942   2.921 -1.3744 -1.2695 -1.6285
  394MOL0     H53149   6.594   6.065   3.039 -1.7969  3.4566 -2.3832
  394MOL0     H53150   6.547   5.945   2.651  2.2595 -0.1993  1.7919
  394MOL0     H53151   6.680   6.020   2.470  1.2489 -0.6602  1.0559
  394MOL0     H53152   7.103   6.468   2.561  0.4719  2.2374 -0.4306
  394MOL0     H53153   7.296   6.528   2.435  0.5776 -1.7298 -1.0748
  394MOL0     H53154   7.280   6.491   1.987  0.6237 -1.0142  0.9911
  394MOL0     H53155   7.201   6.637   2.007  0.2477  1.3528  0.8336
  394MOL0     H53156   7.409   6.759   1.989 -1.8523 -0.9948  2.8162
  394MOL0     H53157   7.504   6.613   1.992  0.1184  1.7380  0.2115
  394MOL0     H53158   7.505   6.634   1.762  1.2791 -0.3809  1.0971
  394MOL0     H53159   7.384   6.506   1.803 -0.1286  0.4087 -0.9977
  394MOL0     H53160   7.307   6.792   1.742 -3.4919  0.2513 -0.1970
  394MOL0     H53161   7.189   6.666   1.789 -2.0973 -0.0687 -2.1605
  394MOL0     H53162   7.381   6.666   1.554  1.0024  1.5666  4.0125
  394MOL0     H53163   7.216   6.698   1.540  1.0892 -0.6038 -2.0841
  394MOL0     H53164   7.333   6.419   1.594 -0.1526  0.0955  2.1332
  394MOL0     H53165   7.177   6.462   1.650  1.1431 -1.4295 -1.5052
  394MOL0     H53166   7.161   6.546   1.394  1.6672 -1.9565 -4.3844
  394MOL0     H53167   7.087   6.406   1.461 -0.3823 -0.1994 -1.1733
  394MOL0     H53168   7.235   6.387   1.254 -1.0278  0.8144  1.1433
  394MOL0     H53169   7.383   6.407   1.359  0.4046 -0.1037 -2.0488
  394MOL0     H53170   7.026   6.504   2.074  0.5948  0.7647  0.4692
  394MOL0     H53171   6.853   6.426   2.224  0.0476 -2.6677  1.1148
  394MOL0     H53172   6.751   6.391   2.675 -3.2168  1.3844  0.3600
  394MOL0     H53173   6.602   6.311   2.861  2.1257  3.2405 -0.4305
  394MOL0     H53174   7.480   4.973   3.929  1.2772 -0.8728  2.2821
  394MOL0     H53175   7.673   4.923   4.054 -3.5754 -1.9236 -2.9483
  394MOL0     H53176   8.005   5.001   4.222  0.0147  1.2345  0.4843
  394MOL0     H53177   8.240   4.950   4.272 -0.4379 -0.8330  0.5615
  394MOL0     H53178   8.352   4.787   4.656 -0.2274  1.3658  3.5294
  394MOL0     H53179   8.383   4.966   4.682  1.6335 -0.4912  1.4078
  394MOL0     H53180   8.602   4.881   4.696 -2.8193  2.3088  1.5231
  394MOL0     H53181   8.562   4.943   4.519 -0.5523 -0.5701 -0.4451
  394MOL0     H53182   8.565   4.738   4.436 -0.0397 -0.6871 -0.2173
  394MOL0     H53183   8.513   4.663   4.593  1.0404 -0.4407  3.3305
  394MOL0     H53184   8.797   4.745   4.503 -1.5810 -0.5477 -2.8460
  394MOL0     H53185   8.767   4.676   4.656 -2.8231  1.1228  1.6002
  394MOL0     H53186   8.764   4.339   4.411  1.8499  0.6584 -1.0184
  394MOL0     H53187   8.148   4.911   4.686  0.7249  1.8250  0.5288
  394MOL0     H53188   7.914   4.943   4.781 -1.8922 -0.3276  0.8829
  394MOL0     H53189   7.871   5.084   4.699 -0.4921 -0.5049 -1.9352
  394MOL0     H53190   7.791   4.928   4.658  0.6378 -0.2314 -2.6706
  395MOL0     O53191   7.630  10.939   9.053 -0.2582 -0.2144  0.7890
  395MOL0     C53192   7.554  10.878   9.124 -0.5042  0.4386  0.8860
  395MOL0     O53193   7.473  10.933   9.212  0.6934  0.0164 -0.5511
  395MOL0     C53194   7.483  11.065   9.247 -0.9917  0.0706 -0.3003
  395MOL0     C53195   7.479  11.180   9.159  0.1037  0.2487 -0.1555
  395MOL0     C53196   7.497  11.305   9.203  0.2119 -1.0120 -0.4895
  395MOL0     C53197   7.512  11.343   9.345 -0.4929  0.1855 -0.6502
  395MOL0     O53198   7.526  11.473   9.378 -0.0247 -0.2733 -0.2919
  395MOL0     C53199   7.576  11.508   9.508 -0.6022 -0.4101 -0.7023
  395MOL0     C53200   7.605  11.657   9.522 -0.2466 -0.0657 -0.0976
  395MOL0     C53201   7.478  11.734   9.507  0.4488 -0.7503  0.2391
  395MOL0     C53202   7.497  11.886   9.543 -0.5030  0.7840 -0.4665
  395MOL0     C53203   7.384  11.978   9.507 -0.3243 -0.2539  0.0018
  395MOL0     C53204   7.415  12.117   9.552 -0.1059 -0.0373  0.6206
  395MOL0     C53205   7.327  12.221   9.493  0.0735  1.0809 -0.3580
  395MOL0     C53206   7.373  12.263   9.358 -0.6952 -0.1080  1.1032
  395MOL0     N53207   7.277  12.227   9.252 -0.0846 -0.4257  0.3603
  395MOL0     C53208   7.309  12.232   9.115  0.6661  0.0967 -0.1404
  395MOL0     C53209   7.197  12.177   9.059  0.3119  0.6295  0.2820
  395MOL0     C53210   7.198  12.147   8.911 -0.6409 -0.3778  0.7016
  395MOL0     C53211   7.133  12.271   8.837 -0.4070 -0.1685 -0.5517
  395MOL0     C53212   6.976  12.267   8.856  0.0432 -0.3074 -0.4847
  395MOL0     C53213   6.912  12.404   8.818  0.4316  1.0381  0.3504
  395MOL0     O53214   6.767  12.412   8.845  0.2590 -0.0021 -0.9209
  395MOL0     C53215   6.691  12.515   8.789 -0.4140 -0.2195 -0.0444
  395MOL0     C53216   6.742  12.599   8.701  0.2829 -0.4805  1.6105
  395MOL0     C53217   6.669  12.704   8.652 -0.7384 -0.5691  0.4465
  395MOL0     C53218   6.545  12.735   8.703 -0.0435  0.2320 -1.0282
  395MOL0     C53219   6.466  12.849   8.658 -0.3768 -0.4002  0.0493
  395MOL0     O53220   6.328  12.838   8.657  0.3417 -0.1326  0.7102
  395MOL0     C53221   6.275  12.961   8.645  0.7465  0.4883  0.7286
  395MOL0     C53222   6.190  13.006   8.537 -0.9970  1.1848 -0.0404
  395MOL0     C53223   6.128  13.134   8.529  1.0235  0.3922 -0.2049
  395MOL0     C53224   6.134  13.219   8.635 -0.0028  0.3774  0.6106
  395MOL0     O53225   6.075  13.343   8.633 -0.4056  0.4117  0.0756
  395MOL0     C53226   6.165  13.454   8.621 -0.3961  0.8877  0.7892
  395MOL0     C53227   6.165  13.539   8.749 -0.5106  0.2716 -0.4298
  395MOL0     C53228   6.259  13.664   8.738 -0.4713  0.1498  0.5118
  395MOL0     C53229   6.404  13.640   8.799 -0.1545 -0.2542  0.4872
  395MOL0     C53230   6.469  13.777   8.806  0.8009 -0.5389 -0.1846
  395MOL0     C53231   6.598  13.766   8.881  0.3115  0.7348  0.1094
  395MOL0     C53232   6.622  13.893   8.959 -0.5293 -0.5896  0.4017
  395MOL0     C53233   6.751  13.874   9.036 -0.5722 -0.0823 -0.0256
  395MOL0    Cl53234   6.722  13.774   9.175 -1.2352 -0.4739  0.3241
  395MOL0     C53235   6.220  13.184   8.741 -0.0141  0.5523 -0.2118
  395MOL0     C53236   6.288  13.061   8.748 -0.0351  0.8905 -0.6510
  395MOL0     O53237   6.527  12.952   8.620  0.2133  0.1409 -0.6121
  395MOL0     C53238   6.496  12.653   8.812 -0.9770 -0.7043  0.3970
  395MOL0     C53239   6.564  12.532   8.846 -0.0976  0.0240  0.5245
  395MOL0     N53240   7.099  12.133   9.155 -1.3883  0.5214 -1.2349
  395MOL0     N53241   7.157  12.162   9.269 -0.1439 -0.5623  0.2942
  395MOL0     C53242   7.491  11.234   9.427 -0.0382  0.0422 -0.5654
  395MOL0     C53243   7.491  11.102   9.385  0.0287  0.9105  1.2630
  395MOL0     C53244   7.547  10.733   9.087  0.4286 -0.3366  0.5286
  395MOL0     C53245   7.425  10.657   9.106 -1.0020  0.2436 -0.6362
  395MOL0     C53246   7.415  10.523   9.061  0.6619  0.3101 -0.1534
  395MOL0     C53247   7.533  10.457   9.013  0.3526  0.8270 -0.4640
  395MOL0     O53248   7.527  10.322   8.976  0.0478  0.2613  0.6055
  395MOL0     C53249   7.628  10.285   8.892 -0.4158  0.9784  1.1235
  395MOL0     C53250   7.580  10.163   8.811 -0.4478  0.4924  0.2489
  395MOL0     C53251   7.522  10.044   8.889 -0.0062  0.0296 -0.3789
  395MOL0     C53252   7.429   9.952   8.811 -0.3849  0.0642 -0.8111
  395MOL0     C53253   7.490   9.914   8.675 -0.0836 -0.7588  0.4004
  395MOL0     C53254   7.526   9.894   8.559 -0.8941 -0.4769  0.1158
  395MOL0     C53255   7.644  10.529   9.009 -0.2719 -1.3897 -0.4825
  395MOL0     C53256   7.659  10.663   9.037  0.1425 -1.2532  0.5350
  395MOL0     C53257   7.797  10.721   9.015  0.8854 -0.5842 -0.0551
  395MOL0     H53258   7.464  11.165   9.053 -3.0079 -0.9181  0.3489
  395MOL0     H53259   7.514  11.390   9.137 -1.6507 -0.6103 -0.5080
  395MOL0     H53260   7.501  11.470   9.578 -2.5861 -1.7603 -3.3718
  395MOL0     H53261   7.673  11.462   9.529 -1.4190 -1.0418  2.1847
  395MOL0     H53262   7.683  11.678   9.449 -1.4561  0.3146 -1.3326
  395MOL0     H53263   7.629  11.677   9.627 -2.2974  2.4394  0.0302
  395MOL0     H53264   7.394  11.696   9.567 -1.3765 -0.5825 -2.0560
  395MOL0     H53265   7.433  11.719   9.408 -1.2325 -1.0928  1.0085
  395MOL0     H53266   7.521  11.885   9.649  1.2039  0.0616 -0.8252
  395MOL0     H53267   7.584  11.934   9.498  0.6507  2.4866  3.2066
  395MOL0     H53268   7.384  11.985   9.398  4.0654 -2.4750 -0.3448
  395MOL0     H53269   7.295  11.943   9.561  1.2929 -0.7546  2.5178
  395MOL0     H53270   7.391  12.114   9.659 -0.5256  1.6332  0.6100
  395MOL0     H53271   7.520  12.141   9.535  0.6847 -3.7069 -0.6926
  395MOL0     H53272   7.317  12.315   9.547 -0.2949 -1.0512  3.6513
  395MOL0     H53273   7.230  12.171   9.493  2.2570 -4.1493  3.1749
  395MOL0     H53274   7.379  12.372   9.363 -0.8854  0.0013 -0.5455
  395MOL0     H53275   7.475  12.236   9.330 -1.3823  0.4896 -2.4075
  395MOL0     H53276   7.392  12.267   9.055  2.0195 -2.1658  0.2744
  395MOL0     H53277   7.302  12.132   8.881  0.6014  2.3552  3.1672
  395MOL0     H53278   7.148  12.050   8.899  0.9439 -1.1096 -0.4600
  395MOL0     H53279   7.167  12.370   8.869  1.0656 -0.9962  0.5823
  395MOL0     H53280   7.155  12.247   8.733 -2.7575 -0.1574 -1.1024
  395MOL0     H53281   6.942  12.248   8.958  0.0114 -1.6581 -0.7311
  395MOL0     H53282   6.946  12.170   8.817 -2.7365 -0.0654  0.8591
  395MOL0     H53283   6.947  12.423   8.715 -0.7442  0.9697 -0.0699
  395MOL0     H53284   6.963  12.482   8.875  2.5437 -0.8417  1.1804
  395MOL0     H53285   6.843  12.585   8.663  0.4490 -2.4139  2.6530
  395MOL0     H53286   6.709  12.758   8.567 -4.7452 -0.7734 -1.8237
  395MOL0     H53287   6.164  12.936   8.458 -0.0954 -1.9809  2.2425
  395MOL0     H53288   6.094  13.157   8.429 -0.8260 -0.0354  0.2934
  395MOL0     H53289   6.267  13.422   8.601 -0.1482  2.5633 -0.8243
  395MOL0     H53290   6.136  13.517   8.537  3.8589  3.4692  0.9775
  395MOL0     H53291   6.060  13.571   8.751 -1.5450 -2.8102  0.1869
  395MOL0     H53292   6.191  13.476   8.834 -2.1195 -0.2231 -0.2685
  395MOL0     H53293   6.274  13.699   8.636  1.5401  1.8125  1.2967
  395MOL0     H53294   6.211  13.743   8.798  1.3873  0.8095  1.2099
  395MOL0     H53295   6.466  13.566   8.749  0.9061  0.7578  0.2567
  395MOL0     H53296   6.381  13.602   8.899 -0.9947  0.9978  0.7959
  395MOL0     H53297   6.398  13.852   8.843  1.1783  0.7620 -1.9241
  395MOL0     H53298   6.491  13.808   8.703  4.3121  0.1279  0.6423
  395MOL0     H53299   6.606  13.673   8.938  1.4220 -0.8908 -2.5147
  395MOL0     H53300   6.665  13.746   8.797  0.0979 -2.6557  0.6091
  395MOL0     H53301   6.547  13.922   9.033 -2.3168  0.9082 -1.8488
  395MOL0     H53302   6.623  13.974   8.885  0.6478 -1.8824 -1.0651
  395MOL0     H53303   6.837  13.833   8.983 -1.1423  0.0876 -1.0950
  395MOL0     H53304   6.766  13.978   9.064  2.0909  1.0734 -4.7253
  395MOL0     H53305   6.231  13.267   8.810  1.8382  0.6169 -0.5468
  395MOL0     H53306   6.355  13.036   8.830  0.9192 -0.5728 -1.8358
  395MOL0     H53307   6.409  12.685   8.869 -0.7473 -0.6477  0.7229
  395MOL0     H53308   6.527  12.457   8.916  3.3687 -4.6801 -2.1421
  395MOL0     H53309   7.492  11.262   9.532 -1.9447 -0.7218 -0.2979
  395MOL0     H53310   7.492  11.020   9.456  0.5391  0.3811  0.6559
  395MOL0     H53311   7.332  10.703   9.140 -1.3346 -0.1195 -1.0462
  395MOL0     H53312   7.321  10.472   9.077  0.0514  1.5354  0.3483
  395MOL0     H53313   7.720  10.256   8.944  1.3221  2.1545 -1.1290
  395MOL0     H53314   7.660  10.360   8.819 -1.3394  2.4230  2.1518
  395MOL0     H53315   7.665  10.128   8.751  0.0276  1.4785  0.3249
  395MOL0     H53316   7.506  10.198   8.739  1.1369  0.9030 -1.2711
  395MOL0     H53317   7.467  10.088   8.973  0.1766 -0.1993 -0.1363
  395MOL0     H53318   7.601   9.975   8.923 -0.9620 -1.5154 -1.1840
  395MOL0     H53319   7.401   9.862   8.868  0.2428 -0.1927 -0.9068
  395MOL0     H53320   7.333  10.003   8.793  0.2263  1.6937  0.3697
  395MOL0     H53321   7.577   9.879   8.466  2.5440  1.6271  1.4643
  395MOL0     H53322   7.726  10.486   8.952 -1.2100 -0.3325 -2.7529
  395MOL0     H53323   7.802  10.786   8.927 -1.3486  1.5994  1.2611
  395MOL0     H53324   7.813  10.777   9.108 -0.0966 -4.6382  2.8055
  395MOL0     H53325   7.873  10.643   9.010 -1.2657 -2.7443 -0.9317
  396MOL0     O53326   1.442   8.112   8.951 -0.2476  0.6980  0.0379
  396MOL0     C53327   1.469   8.218   8.984  0.2371 -0.5345  0.9707
  396MOL0     O53328   1.395   8.335   8.941  0.0602  0.0437 -0.6025
  396MOL0     C53329   1.269   8.302   8.883  0.7084 -0.9167 -0.3255
  396MOL0     C53330   1.153   8.287   8.950  0.3934  0.3206 -0.3215
  396MOL0     C53331   1.047   8.225   8.887 -0.3713  0.9112 -0.9265
  396MOL0     C53332   1.045   8.180   8.755  0.7756 -0.2549 -0.1310
  396MOL0     O53333   0.942   8.099   8.717 -0.1444  0.1077 -0.3753
  396MOL0     C53334   0.838   8.159   8.645  0.1797 -0.5814  0.8587
  396MOL0     C53335   0.857   8.153   8.494  0.3556 -0.0977 -0.4539
  396MOL0     C53336   0.902   8.010   8.446  0.0295  0.3905  0.0729
  396MOL0     C53337   0.968   8.023   8.311  0.5488 -0.9963 -0.7821
  396MOL0     C53338   0.983   7.884   8.251 -0.3820  0.0536 -0.6505
  396MOL0     C53339   1.029   7.899   8.101  0.2545  0.9139 -0.7156
  396MOL0     C53340   1.073   7.762   8.042 -0.2103 -0.3196  0.5730
  396MOL0     C53341   0.969   7.654   8.041  1.7453 -0.4129 -0.1774
  396MOL0     N53342   0.846   7.681   7.955  0.3624  0.0494  0.2978
  396MOL0     C53343   0.738   7.757   7.998 -0.0590 -0.1231 -0.0731
  396MOL0     C53344   0.650   7.756   7.899 -0.9133  0.2224  0.2926
  396MOL0     C53345   0.527   7.840   7.888 -0.2723 -0.2731 -0.8982
  396MOL0     C53346   0.409   7.781   7.977 -0.7972 -0.6633  0.6088
  396MOL0     C53347   0.318   7.687   7.891  0.1464  0.0934 -0.2513
  396MOL0     C53348   0.234   7.600   7.982  0.4013  0.8733 -0.5103
  396MOL0     O53349   0.153   7.683   8.067 -0.2202  0.2739  0.3553
  396MOL0     C53350   0.045   7.624   8.133  0.5848  0.1369  0.0768
  396MOL0     C53351  -0.002   7.696   8.239  0.4457  0.5257  0.6406
  396MOL0     C53352  -0.076   7.627   8.338 -0.0345 -0.6983 -0.2255
  396MOL0     C53353  -0.112   7.493   8.325 -0.1202 -0.3659  0.3726
  396MOL0     C53354  -0.191   7.429   8.434 -0.3873 -0.7802  1.2654
  396MOL0     O53355  -0.214   7.517   8.535 -0.5053  0.3162 -0.7013
  396MOL0     C53356  -0.298   7.474   8.637 -0.0431 -0.7249 -0.0220
  396MOL0     C53357  -0.268   7.352   8.711  0.1341 -0.7516  0.2538
  396MOL0     C53358  -0.324   7.321   8.838  0.5941 -0.0349  0.0887
  396MOL0     C53359  -0.438   7.392   8.875  0.2170 -0.6282 -0.9856
  396MOL0     O53360  -0.510   7.365   8.987  0.3650  0.7087 -0.7789
  396MOL0     C53361  -0.534   7.228   9.027 -0.6585  0.3897  1.2776
  396MOL0     C53362  -0.436   7.185   9.132 -0.7186  0.6071 -0.0257
  396MOL0     C53363  -0.450   7.033   9.170 -0.6614  0.2455 -0.0496
  396MOL0     C53364  -0.341   6.982   9.270  0.3150  1.1183  0.3174
  396MOL0     C53365  -0.368   6.838   9.307 -0.0405 -0.4102 -0.5735
  396MOL0     C53366  -0.339   6.749   9.185  0.5042  0.3007 -0.5648
  396MOL0     C53367  -0.196   6.712   9.185  1.0699  0.0961 -0.8913
  396MOL0     C53368  -0.174   6.602   9.091 -0.3904  0.0829  0.1148
  396MOL0    Cl53369  -0.004   6.600   9.035  0.0573  0.1173 -0.3598
  396MOL0     C53370  -0.477   7.507   8.799  0.3294  0.1070 -0.0074
  396MOL0     C53371  -0.403   7.556   8.691 -1.0183  0.3845 -0.0939
  396MOL0     O53372  -0.214   7.311   8.430 -0.0504 -0.4377  0.2504
  396MOL0     C53373  -0.088   7.430   8.199 -0.8289  0.3798 -0.0855
  396MOL0     C53374   0.000   7.495   8.109 -0.9950 -0.1832 -0.6231
  396MOL0     N53375   0.700   7.674   7.799 -0.8877  0.7366 -0.6417
  396MOL0     N53376   0.822   7.636   7.833  0.5851  0.7361  0.1239
  396MOL0     C53377   1.150   8.215   8.690  0.1898 -0.1691  1.2648
  396MOL0     C53378   1.268   8.264   8.750  0.4377  0.1839  0.0525
  396MOL0     C53379   1.606   8.236   9.056  0.0047  0.5620  0.1983
  396MOL0     C53380   1.639   8.374   9.074  0.4809 -0.4435  0.0076
  396MOL0     C53381   1.744   8.418   9.158  0.2392 -0.2318 -0.0661
  396MOL0     C53382   1.817   8.318   9.224  0.0160  0.9581  0.2527
  396MOL0     O53383   1.928   8.337   9.303 -0.5445  0.1669  0.1294
  396MOL0     C53384   2.046   8.378   9.231  0.0057  0.1499 -0.0274
  396MOL0     C53385   2.175   8.312   9.262  0.9217 -0.8746 -0.3512
  396MOL0     C53386   2.239   8.224   9.153  0.3373 -0.2358 -0.3236
  396MOL0     C53387   2.355   8.134   9.212 -0.2634  0.0185  0.5751
  396MOL0     C53388   2.475   8.212   9.233 -0.0402 -0.7765 -0.0463
  396MOL0     C53389   2.573   8.287   9.225  0.5168  0.7319  0.4755
  396MOL0     C53390   1.794   8.186   9.195 -0.1765  0.0266 -0.1583
  396MOL0     C53391   1.688   8.139   9.114  0.5663  0.3051 -0.5810
  396MOL0     C53392   1.653   7.992   9.097 -0.1655 -0.1132  0.7905
  396MOL0     H53393   1.153   8.314   9.055 -0.4936  2.2004 -0.7761
  396MOL0     H53394   0.970   8.199   8.959  1.0010 -3.4563 -0.7997
  396MOL0     H53395   0.742   8.112   8.670 -0.3421  1.0154  2.0425
  396MOL0     H53396   0.833   8.260   8.685  2.6264 -1.0210  2.4782
  396MOL0     H53397   0.931   8.230   8.471  1.2218 -1.0152 -0.8532
  396MOL0     H53398   0.758   8.171   8.451 -0.0357  0.4778  0.6472
  396MOL0     H53399   0.815   7.945   8.440 -0.1954  0.6277  0.6361
  396MOL0     H53400   0.968   7.971   8.524 -0.2511  1.0186  0.6368
  396MOL0     H53401   0.917   8.083   8.235  2.4689  1.4096 -0.2911
  396MOL0     H53402   1.065   8.069   8.329 -0.1515 -0.0335  0.6453
  396MOL0     H53403   1.057   7.838   8.317 -1.1725 -1.5841 -0.8514
  396MOL0     H53404   0.878   7.853   8.251 -0.7755  1.2044 -2.6854
  396MOL0     H53405   0.952   7.945   8.038 -0.1669  0.8827 -0.2354
  396MOL0     H53406   1.116   7.965   8.102 -0.7975  2.3648 -0.9260
  396MOL0     H53407   1.167   7.722   8.082 -0.3990 -2.0398 -0.5905
  396MOL0     H53408   1.092   7.775   7.935 -2.7023  0.2400  0.1280
  396MOL0     H53409   1.009   7.558   8.008 -0.6477 -0.5774 -3.0627
  396MOL0     H53410   0.937   7.641   8.144  1.2096 -1.1635 -0.4282
  396MOL0     H53411   0.708   7.776   8.101  2.8040 -0.7383  0.9591
  396MOL0     H53412   0.543   7.943   7.921 -0.2668 -0.3569 -0.6402
  396MOL0     H53413   0.502   7.843   7.781 -0.1188 -1.1829 -0.9677
  396MOL0     H53414   0.446   7.730   8.066  4.2816 -0.9363 -1.2901
  396MOL0     H53415   0.347   7.862   8.016 -0.5526 -0.4584  0.5827
  396MOL0     H53416   0.381   7.615   7.839  0.4895  1.6164 -2.0440
  396MOL0     H53417   0.266   7.733   7.807 -0.9403 -0.2703  0.1978
  396MOL0     H53418   0.290   7.540   8.053  2.1180  1.5465 -1.2274
  396MOL0     H53419   0.174   7.527   7.927 -0.1083 -0.7653  2.0564
  396MOL0     H53420   0.007   7.803   8.251 -0.7457  0.7945 -0.5954
  396MOL0     H53421  -0.108   7.695   8.416  3.1297 -0.0926  0.6436
  396MOL0     H53422  -0.175   7.298   8.696  2.1960  1.5853  3.4074
  396MOL0     H53423  -0.287   7.227   8.878  2.0313  0.8236  0.8214
  396MOL0     H53424  -0.636   7.231   9.068 -1.5496 -1.2686 -0.6286
  396MOL0     H53425  -0.552   7.166   8.939 -2.3065 -1.0669  2.5488
  396MOL0     H53426  -0.332   7.211   9.111 -0.7663  0.3468 -0.5887
  396MOL0     H53427  -0.462   7.245   9.220  0.0738 -0.2672  0.8250
  396MOL0     H53428  -0.552   7.019   9.208 -0.9922  0.7278 -0.7277
  396MOL0     H53429  -0.453   6.974   9.078 -0.3972  0.9269 -0.5062
  396MOL0     H53430  -0.347   7.048   9.357  2.3921 -0.3944  1.6965
  396MOL0     H53431  -0.240   7.001   9.232  0.0001  2.7632  0.2095
  396MOL0     H53432  -0.474   6.820   9.326  0.0799 -1.9840 -1.2539
  396MOL0     H53433  -0.321   6.805   9.400  0.9385  2.5081  0.0604
  396MOL0     H53434  -0.403   6.660   9.184  0.2693  0.4273 -2.9630
  396MOL0     H53435  -0.359   6.805   9.094 -2.8117 -0.6010 -0.5110
  396MOL0     H53436  -0.153   6.695   9.284  2.4986  1.2144 -1.2706
  396MOL0     H53437  -0.135   6.799   9.158 -0.5700  2.7280  3.0605
  396MOL0     H53438  -0.203   6.513   9.147 -4.1819  1.3105  0.4243
  396MOL0     H53439  -0.237   6.609   9.002 -1.2573 -0.8308  0.6356
  396MOL0     H53440  -0.564   7.560   8.837  0.9334  2.4193 -1.6742
  396MOL0     H53441  -0.429   7.656   8.657 -2.1805  0.3215  0.5668
  396MOL0     H53442  -0.129   7.330   8.184 -2.4479  1.1704 -1.1476
  396MOL0     H53443   0.022   7.438   8.019 -2.6158  2.1126 -2.6022
  396MOL0     H53444   1.175   8.169   8.595 -0.2291 -2.3079  2.1287
  396MOL0     H53445   1.360   8.271   8.692 -0.0357  4.5711 -0.5842
  396MOL0     H53446   1.580   8.448   9.020  3.3287  0.7957 -1.6486
  396MOL0     H53447   1.774   8.520   9.179 -0.3003  0.5860 -2.8486
  396MOL0     H53448   2.055   8.484   9.254 -1.9928  0.2752  0.3330
  396MOL0     H53449   2.036   8.375   9.122  1.9376 -2.5589 -0.2560
  396MOL0     H53450   2.160   8.256   9.355  0.1533 -1.0442 -0.5718
  396MOL0     H53451   2.239   8.401   9.274  2.6961 -1.6706 -3.0717
  396MOL0     H53452   2.279   8.289   9.074  3.1411 -1.3003  0.1208
  396MOL0     H53453   2.161   8.163   9.107 -0.6754  1.8464 -1.5336
  396MOL0     H53454   2.325   8.085   9.306  0.7324 -0.3407  0.7191
  396MOL0     H53455   2.378   8.050   9.145 -1.4774  0.9850 -1.1189
  396MOL0     H53456   2.650   8.362   9.221 -0.7631  2.1939 -5.0548
  396MOL0     H53457   1.865   8.113   9.231 -2.3882 -1.3044  1.7924
  396MOL0     H53458   1.643   7.965   8.991  3.0152 -2.0222  0.8329
  396MOL0     H53459   1.737   7.924   9.115  2.0322  1.9646 -1.0011
  396MOL0     H53460   1.570   7.959   9.160 -1.6848 -1.5086 -1.7711
  397MOL0     O53461   9.810   4.216   1.220 -1.2463  0.4648  0.0241
  397MOL0     C53462   9.744   4.271   1.131  0.2658  0.0816  0.0401
  397MOL0     O53463   9.613   4.242   1.091 -0.0805 -0.2976  0.2216
  397MOL0     C53464   9.554   4.121   1.127  0.8497  0.1636 -0.9678
  397MOL0     C53465   9.548   4.050   1.252  0.0936  0.4328 -0.5857
  397MOL0     C53466   9.480   3.934   1.260  0.5511  0.3887 -0.5977
  397MOL0     C53467   9.409   3.886   1.155 -0.5583 -1.2006 -0.4139
  397MOL0     O53468   9.348   3.765   1.148  0.2930 -0.9409  0.8701
  397MOL0     C53469   9.383   3.653   1.234 -0.1851  0.2558 -0.3720
  397MOL0     C53470   9.299   3.658   1.363 -0.5161 -0.0818 -0.5413
  397MOL0     C53471   9.146   3.658   1.345  0.6172  0.4708 -0.5956
  397MOL0     C53472   9.059   3.621   1.472  0.2605 -1.1101 -0.3918
  397MOL0     C53473   9.056   3.709   1.601 -0.1545 -0.2505 -0.8306
  397MOL0     C53474   8.969   3.839   1.587 -0.9931 -0.7012  0.8728
  397MOL0     C53475   9.020   3.954   1.496  0.3927 -0.0537  0.3817
  397MOL0     C53476   8.934   4.081   1.527 -0.4465 -1.3646  0.5827
  397MOL0     N53477   8.791   4.057   1.548 -0.0139  0.1120 -0.9080
  397MOL0     C53478   8.695   3.995   1.465 -0.5570  0.5897  0.5611
  397MOL0     C53479   8.588   3.982   1.547 -0.3493  0.2226 -0.4564
  397MOL0     C53480   8.458   3.933   1.501  1.0609 -0.0795  0.6001
  397MOL0     C53481   8.451   3.788   1.453  0.0342 -0.1533  0.3741
  397MOL0     C53482   8.349   3.780   1.333 -0.3638  0.6869  0.0411
  397MOL0     C53483   8.316   3.633   1.315  1.3680  0.3331  0.5733
  397MOL0     O53484   8.247   3.585   1.435 -0.3054  0.0375  0.4765
  397MOL0     C53485   8.115   3.556   1.440  0.0024 -0.6492 -0.0555
  397MOL0     C53486   8.028   3.544   1.327 -0.2378 -0.6807  0.2808
  397MOL0     C53487   7.891   3.527   1.343  0.4899 -0.0795  0.1884
  397MOL0     C53488   7.834   3.494   1.461  0.1499  1.0651  0.3884
  397MOL0     C53489   7.702   3.451   1.467 -0.2232  0.1474  0.2234
  397MOL0     O53490   7.643   3.395   1.360 -0.9066  0.1828  0.0309
  397MOL0     C53491   7.507   3.376   1.348 -0.2406  0.0834 -0.1698
  397MOL0     C53492   7.408   3.392   1.451  0.3328  0.0376 -0.0950
  397MOL0     C53493   7.270   3.379   1.419  0.1529 -0.1462  0.9444
  397MOL0     C53494   7.227   3.362   1.281  0.3289 -0.2264  0.8315
  397MOL0     O53495   7.098   3.365   1.246 -0.0791  0.3490  0.1818
  397MOL0     C53496   7.031   3.237   1.253  0.0580 -0.3382  0.0920
  397MOL0     C53497   6.904   3.230   1.161 -0.7488  0.2108  0.7679
  397MOL0     C53498   6.821   3.102   1.172 -0.8126  1.8112 -0.8117
  397MOL0     C53499   6.891   2.979   1.107 -0.4735  0.2194  0.3087
  397MOL0     C53500   6.975   2.909   1.208 -0.5024  0.2299  0.2709
  397MOL0     C53501   7.003   2.755   1.176  0.5466 -0.4629 -0.2281
  397MOL0     C53502   7.126   2.748   1.085 -0.4148 -0.2601 -0.5693
  397MOL0     C53503   7.142   2.604   1.038  0.1763 -0.2399  0.6109
  397MOL0    Cl53504   7.294   2.625   0.960  0.0332 -0.2150 -0.4811
  397MOL0     C53505   7.322   3.350   1.185 -0.3829 -0.5177 -0.3879
  397MOL0     C53506   7.459   3.350   1.215  0.0099  0.5338  0.0258
  397MOL0     O53507   7.655   3.475   1.575 -0.1464  0.7099 -0.2065
  397MOL0     C53508   7.919   3.490   1.572 -0.1663 -1.0728 -0.4630
  397MOL0     C53509   8.062   3.526   1.565  1.3415  0.1161 -0.2258
  397MOL0     N53510   8.612   4.017   1.670 -0.5030 -0.1803 -0.4107
  397MOL0     N53511   8.736   4.056   1.672  0.0617 -0.5949 -0.1112
  397MOL0     C53512   9.400   3.959   1.038 -0.7347  0.7979 -0.2454
  397MOL0     C53513   9.476   4.075   1.025  0.1536  0.3066  0.0640
  397MOL0     C53514   9.818   4.381   1.058 -0.1394 -0.7076  0.3229
  397MOL0     C53515   9.960   4.389   1.073  1.6668  0.0978 -0.3780
  397MOL0     C53516  10.040   4.466   0.985 -0.1299 -0.3343 -0.7126
  397MOL0     C53517   9.980   4.550   0.891 -0.3675  0.2033 -0.3550
  397MOL0     O53518  10.038   4.630   0.799  0.3013 -0.1044 -0.3094
  397MOL0     C53519  10.170   4.670   0.832  0.4624  0.1863 -0.5501
  397MOL0     C53520  10.228   4.762   0.725 -0.4544  0.0330  0.8718
  397MOL0     C53521  10.375   4.814   0.745  0.2937 -0.0154 -0.8727
  397MOL0     C53522  10.443   4.870   0.618  0.6948  0.0976 -0.7798
  397MOL0     C53523  10.400   5.010   0.613  0.2639  0.1997  0.5944
  397MOL0     C53524  10.357   5.120   0.596 -0.1471  0.2005 -0.3725
  397MOL0     C53525   9.846   4.550   0.876 -0.9104  0.3950 -0.2223
  397MOL0     C53526   9.768   4.470   0.957 -0.4440 -0.0170 -1.3070
  397MOL0     C53527   9.614   4.487   0.948  0.2042  0.4532 -0.1584
  397MOL0     H53528   9.607   4.077   1.338  0.4199 -0.3644 -0.5465
  397MOL0     H53529   9.482   3.880   1.354  2.1855  2.0402  0.3822
  397MOL0     H53530   9.359   3.560   1.181 -0.1929  0.0688 -0.0445
  397MOL0     H53531   9.492   3.649   1.246  0.0737 -2.0088 -2.5638
  397MOL0     H53532   9.318   3.747   1.425  0.2212 -2.4985  2.9887
  397MOL0     H53533   9.333   3.576   1.427 -1.5625 -1.2268 -1.4290
  397MOL0     H53534   9.115   3.588   1.267 -2.3225  0.8646  0.0863
  397MOL0     H53535   9.112   3.756   1.311 -1.2218 -0.2499 -0.9344
  397MOL0     H53536   8.956   3.615   1.437 -0.3167  1.8183  0.4866
  397MOL0     H53537   9.092   3.525   1.513  2.4529  0.2950  1.4362
  397MOL0     H53538   9.037   3.661   1.698 -2.0720  0.3116 -0.8948
  397MOL0     H53539   9.159   3.740   1.622 -0.2232 -0.6986  0.2132
  397MOL0     H53540   8.874   3.809   1.542 -0.2989 -0.8324 -0.5562
  397MOL0     H53541   8.960   3.882   1.687  0.8738  0.6628  0.5091
  397MOL0     H53542   8.999   3.925   1.393 -2.4412  1.0152  0.5608
  397MOL0     H53543   9.126   3.978   1.512  0.3220 -0.9020  2.3901
  397MOL0     H53544   8.966   4.127   1.621 -0.0431 -0.8571  0.1988
  397MOL0     H53545   8.947   4.155   1.448 -0.5884 -1.7368  0.2090
  397MOL0     H53546   8.692   3.984   1.357  3.1006  0.1021  0.4014
  397MOL0     H53547   8.395   3.947   1.589 -1.9584 -3.6338 -0.7509
  397MOL0     H53548   8.432   3.995   1.415 -0.4859  1.4785  2.1065
  397MOL0     H53549   8.550   3.745   1.435 -0.3594 -2.2569  2.7488
  397MOL0     H53550   8.432   3.722   1.537  2.2297  1.1116  1.9778
  397MOL0     H53551   8.390   3.820   1.240 -0.6191  0.9587  0.0426
  397MOL0     H53552   8.253   3.828   1.353 -2.1087 -2.5678  0.0915
  397MOL0     H53553   8.409   3.577   1.299  0.7650 -0.8990  1.2019
  397MOL0     H53554   8.257   3.609   1.226 -2.2547  1.4435  2.4741
  397MOL0     H53555   8.073   3.569   1.232  1.4143  0.4775  1.3109
  397MOL0     H53556   7.826   3.534   1.256  0.3198 -0.1582  0.3072
  397MOL0     H53557   7.434   3.404   1.556 -0.8697 -0.2578  0.2555
  397MOL0     H53558   7.198   3.378   1.501 -2.1858 -1.4421 -0.9974
  397MOL0     H53559   7.104   3.162   1.221  3.0593  2.7285 -0.7998
  397MOL0     H53560   6.998   3.201   1.351  0.7485 -0.3476  0.3246
  397MOL0     H53561   6.845   3.322   1.167 -1.9198  0.1566 -4.7014
  397MOL0     H53562   6.942   3.233   1.059 -2.2869  3.6048  0.1313
  397MOL0     H53563   6.786   3.087   1.274 -0.2982 -3.2158 -1.1418
  397MOL0     H53564   6.737   3.123   1.105 -2.1796 -5.1064 -2.0103
  397MOL0     H53565   6.947   3.013   1.020 -1.4843  1.4737  0.1036
  397MOL0     H53566   6.824   2.902   1.066 -0.7584  0.4297  0.3774
  397MOL0     H53567   6.909   2.910   1.295  2.1048 -2.2611  2.4770
  397MOL0     H53568   7.068   2.965   1.219 -0.1988 -0.2591  0.2320
  397MOL0     H53569   7.041   2.692   1.257  0.7313 -2.0604 -1.5239
  397MOL0     H53570   6.914   2.705   1.138  0.9450 -0.8675 -0.6422
  397MOL0     H53571   7.214   2.782   1.141 -0.4835  0.5147 -0.9258
  397MOL0     H53572   7.111   2.810   0.997  1.1489  1.4315  0.2949
  397MOL0     H53573   7.157   2.534   1.121  1.7799 -1.3250 -0.5269
  397MOL0     H53574   7.068   2.568   0.966 -0.8817  0.5611  1.2707
  397MOL0     H53575   7.295   3.334   1.080 -1.0721 -1.4565 -0.0886
  397MOL0     H53576   7.532   3.340   1.134  0.7027  0.2240  0.6741
  397MOL0     H53577   7.884   3.467   1.672  1.5032 -0.5189  0.2839
  397MOL0     H53578   8.117   3.530   1.658  1.8085 -2.2335 -0.3301
  397MOL0     H53579   9.329   3.927   0.962 -0.8614  1.3849 -0.3782
  397MOL0     H53580   9.458   4.129   0.933 -3.2006 -0.3606  0.2128
  397MOL0     H53581  10.008   4.317   1.139 -2.2465 -2.1482  0.3466
  397MOL0     H53582  10.148   4.454   0.983 -0.1339 -1.3537  1.8364
  397MOL0     H53583  10.234   4.582   0.839 -0.4569 -0.3838  3.6985
  397MOL0     H53584  10.178   4.726   0.926 -2.7458  0.1741 -0.1417
  397MOL0     H53585  10.159   4.845   0.706  0.2466 -0.2229 -4.1892
  397MOL0     H53586  10.240   4.710   0.630  2.7665  0.1224  1.1319
  397MOL0     H53587  10.433   4.726   0.777  0.1517  1.2834  3.6888
  397MOL0     H53588  10.382   4.882   0.830  1.0021 -1.8936  0.6480
  397MOL0     H53589  10.550   4.879   0.635  0.2650 -1.2833  5.0234
  397MOL0     H53590  10.424   4.812   0.527  0.9365 -0.3137 -0.5704
  397MOL0     H53591  10.311   5.217   0.594 -0.4576  0.2043  2.5992
  397MOL0     H53592   9.805   4.613   0.797 -2.0589 -2.0255 -1.6754
  397MOL0     H53593   9.568   4.524   1.041 -2.6848 -2.3392 -0.3052
  397MOL0     H53594   9.589   4.555   0.866  0.7535  0.6880 -0.1381
  397MOL0     H53595   9.563   4.395   0.919  0.5453  0.2736 -0.1922
  398MOL0     O53596   1.615   0.177   7.123 -0.2137 -0.3376  0.0098
  398MOL0     C53597   1.710   0.129   7.191 -0.3353 -0.1438 -0.1797
  398MOL0     O53598   1.711   0.120   7.334 -0.6415  0.7616  0.3843
  398MOL0     C53599   1.601   0.168   7.408 -0.2028 -0.9766  0.2714
  398MOL0     C53600   1.554   0.302   7.418  0.9712 -1.2211 -0.1436
  398MOL0     C53601   1.437   0.343   7.491 -0.0058  0.8667  0.0547
  398MOL0     C53602   1.366   0.247   7.563  0.2501 -0.8397  0.1130
  398MOL0     O53603   1.263   0.284   7.642  0.0656  0.3335  0.1098
  398MOL0     C53604   1.149   0.188   7.629 -0.4820 -0.1527  0.3167
  398MOL0     C53605   1.035   0.259   7.690  0.1579 -0.0671 -0.1013
  398MOL0     C53606   0.892   0.216   7.670  0.2883 -0.1699 -0.7063
  398MOL0     C53607   0.864   0.064   7.691  0.4762 -0.4020 -0.1463
  398MOL0     C53608   0.734   0.013   7.621 -0.2043 -0.3771  0.9881
  398MOL0     C53609   0.671  -0.106   7.674 -0.1099 -0.0990 -0.5733
  398MOL0     C53610   0.604  -0.066   7.815 -0.3194 -0.0097  0.1147
  398MOL0     C53611   0.499  -0.162   7.855  0.5430  0.2322 -0.6756
  398MOL0     N53612   0.395  -0.205   7.755 -0.4432  0.4875  0.6137
  398MOL0     C53613   0.266  -0.151   7.731  0.0158  0.3160  0.6415
  398MOL0     C53614   0.216  -0.220   7.622 -0.6781 -0.1694  0.0041
  398MOL0     C53615   0.087  -0.177   7.563 -0.5050  0.0370  0.0510
  398MOL0     C53616   0.014  -0.305   7.507 -1.1870 -0.0778 -1.2880
  398MOL0     C53617  -0.139  -0.321   7.534  0.1493  0.4310  1.1165
  398MOL0     C53618  -0.229  -0.196   7.491 -1.8580  0.1537  0.8005
  398MOL0     O53619  -0.177  -0.141   7.370 -0.5993  0.1645  1.1161
  398MOL0     C53620  -0.245  -0.031   7.307  0.2570  0.5104  1.1471
  398MOL0     C53621  -0.172   0.039   7.213 -0.0895  0.2253  0.3407
  398MOL0     C53622  -0.223   0.159   7.171 -1.0720 -0.7625  0.5857
  398MOL0     C53623  -0.337   0.216   7.232 -0.5999  1.2703  0.2230
  398MOL0     C53624  -0.366   0.353   7.213  0.1256 -0.4086  0.1254
  398MOL0     O53625  -0.454   0.418   7.293  0.6101 -0.2465 -0.5393
  398MOL0     C53626  -0.481   0.553   7.288 -0.1700 -0.8078 -0.0262
  398MOL0     C53627  -0.585   0.607   7.371 -0.4455  0.6046  0.7901
  398MOL0     C53628  -0.612   0.742   7.380  0.7595 -0.9826 -0.1693
  398MOL0     C53629  -0.539   0.841   7.313 -0.3323  0.8936 -0.1350
  398MOL0     O53630  -0.563   0.971   7.338 -0.5369  0.8783  1.0102
  398MOL0     C53631  -0.460   1.070   7.320  0.0804  0.3066 -0.2457
  398MOL0     C53632  -0.352   1.052   7.427 -0.3806  0.2340 -0.0633
  398MOL0     C53633  -0.208   1.113   7.394  0.4955 -0.1084  0.2153
  398MOL0     C53634  -0.120   1.032   7.309  0.5757  0.2946  0.6597
  398MOL0     C53635   0.009   1.106   7.268  0.0041  0.2486 -0.5082
  398MOL0     C53636   0.009   1.245   7.212  0.0275 -0.7723  0.3246
  398MOL0     C53637   0.134   1.274   7.132  0.1602  0.4286  0.3201
  398MOL0     C53638   0.120   1.394   7.045 -0.3290 -0.1757  0.0700
  398MOL0    Cl53639  -0.010   1.370   6.899 -0.3340  0.0155 -0.4291
  398MOL0     C53640  -0.435   0.790   7.234 -0.1241  1.2347 -0.1753
  398MOL0     C53641  -0.397   0.653   7.225  0.8006 -0.1220 -0.6926
  398MOL0     O53642  -0.313   0.398   7.110 -0.1431 -0.1921  0.2309
  398MOL0     C53643  -0.406   0.144   7.331  0.0919 -0.8470  1.2883
  398MOL0     C53644  -0.360   0.019   7.361 -0.0665 -0.4328  0.1540
  398MOL0     N53645   0.309  -0.309   7.585 -0.4775 -0.0771 -0.3756
  398MOL0     N53646   0.421  -0.302   7.659  1.6387 -0.5429  0.1926
  398MOL0     C53647   1.415   0.114   7.554  0.3849  0.0054 -1.0332
  398MOL0     C53648   1.530   0.072   7.483  0.4158 -0.6116 -0.4247
  398MOL0     C53649   1.837   0.093   7.120  1.1124 -0.4955 -0.6102
  398MOL0     C53650   1.823  -0.030   7.044 -0.0177 -0.2649 -0.6063
  398MOL0     C53651   1.940  -0.096   6.993 -1.1856  0.0153  0.5333
  398MOL0     C53652   2.071  -0.047   7.006  0.5710  0.0813 -0.4388
  398MOL0     O53653   2.190  -0.106   6.957  0.1801 -0.0521 -0.0274
  398MOL0     C53654   2.190  -0.241   6.908 -0.4798  0.1916  0.1899
  398MOL0     C53655   2.327  -0.262   6.847 -0.1650  0.3598 -0.0545
  398MOL0     C53656   2.330  -0.369   6.738 -0.4685  0.3064 -0.4917
  398MOL0     C53657   2.477  -0.389   6.688  0.0250  0.3515 -0.7162
  398MOL0     C53658   2.492  -0.507   6.602  0.0750  0.0659  0.5347
  398MOL0     C53659   2.502  -0.603   6.520 -0.2003 -0.7512 -0.2181
  398MOL0     C53660   2.075   0.074   7.079  0.3271  0.3297 -0.0088
  398MOL0     C53661   1.965   0.139   7.142  0.3315 -0.1237 -0.2544
  398MOL0     C53662   1.996   0.254   7.227  0.6225 -0.0254 -0.1162
  398MOL0     H53663   1.602   0.386   7.369 -1.5288  0.0100 -0.5979
  398MOL0     H53664   1.390   0.440   7.479  0.7367  1.4865  1.8142
  398MOL0     H53665   1.126   0.176   7.523  4.6680 -3.0915 -0.8612
  398MOL0     H53666   1.167   0.091   7.678  1.9869 -1.0777 -2.0873
  398MOL0     H53667   1.047   0.362   7.657 -0.6281  0.6922  1.8269
  398MOL0     H53668   1.055   0.266   7.798  0.2891 -0.9102 -0.0609
  398MOL0     H53669   0.856   0.256   7.575  0.6507  0.5440 -0.5509
  398MOL0     H53670   0.835   0.255   7.755  0.8649 -2.0941  0.6288
  398MOL0     H53671   0.948   0.007   7.649  2.2762  2.5391 -0.7863
  398MOL0     H53672   0.845   0.044   7.797  0.3702  2.1028  0.3734
  398MOL0     H53673   0.667   0.100   7.614  1.0678  0.5377 -0.6491
  398MOL0     H53674   0.759  -0.002   7.516 -3.0876 -0.9205  0.2876
  398MOL0     H53675   0.586  -0.144   7.615 -0.5897 -2.6381  1.5865
  398MOL0     H53676   0.735  -0.195   7.685 -0.5177 -0.2677  0.4862
  398MOL0     H53677   0.571   0.039   7.816 -0.5526 -0.0805  0.1237
  398MOL0     H53678   0.683  -0.076   7.889  1.1819 -3.4575 -1.7386
  398MOL0     H53679   0.549  -0.252   7.892  2.7850  1.5761 -0.2844
  398MOL0     H53680   0.442  -0.127   7.941 -2.1311 -1.2896 -1.6908
  398MOL0     H53681   0.216  -0.066   7.776  0.7022  2.0710 -1.7078
  398MOL0     H53682   0.016  -0.134   7.634 -2.7182  0.0590 -2.0557
  398MOL0     H53683   0.096  -0.099   7.487 -1.6479 -0.0252 -0.1660
  398MOL0     H53684   0.026  -0.309   7.398  2.7431  0.3523 -1.0261
  398MOL0     H53685   0.072  -0.394   7.532 -0.2892  0.9645  0.5192
  398MOL0     H53686  -0.165  -0.337   7.639 -3.1819  0.2916  0.4096
  398MOL0     H53687  -0.184  -0.407   7.485 -3.7489  2.5273  0.5286
  398MOL0     H53688  -0.223  -0.114   7.563 -1.5967  2.3910 -1.6232
  398MOL0     H53689  -0.333  -0.230   7.488 -1.6012 -0.6574  0.8621
  398MOL0     H53690  -0.073   0.017   7.176 -0.7499 -1.3942 -0.5845
  398MOL0     H53691  -0.177   0.200   7.081 -0.3701  0.5537  1.5196
  398MOL0     H53692  -0.622   0.540   7.447 -0.0466 -1.7348 -0.9757
  398MOL0     H53693  -0.683   0.772   7.456  0.6708  1.4558 -1.1468
  398MOL0     H53694  -0.417   1.056   7.220  0.4252  0.9266 -0.1917
  398MOL0     H53695  -0.510   1.167   7.328 -1.9611 -0.8384  2.1196
  398MOL0     H53696  -0.381   1.091   7.525 -0.6229 -0.9824  0.3637
  398MOL0     H53697  -0.349   0.943   7.436 -0.0976 -0.0775 -2.9429
  398MOL0     H53698  -0.226   1.212   7.351 -1.6035  0.1815  1.6221
  398MOL0     H53699  -0.154   1.121   7.489  0.1944 -0.2129  0.3951
  398MOL0     H53700  -0.168   1.003   7.214  0.0909 -3.3329  1.8551
  398MOL0     H53701  -0.088   0.934   7.345  0.5694 -2.3209 -5.2762
  398MOL0     H53702   0.052   1.032   7.199  0.6162  0.1405 -0.0233
  398MOL0     H53703   0.072   1.110   7.358  1.0550 -3.4731 -0.8997
  398MOL0     H53704  -0.081   1.261   7.154  1.2173  1.8359 -0.9633
  398MOL0     H53705   0.002   1.323   7.289  2.0560 -1.0581  0.8729
  398MOL0     H53706   0.154   1.187   7.069  0.6847  0.1388  0.8806
  398MOL0     H53707   0.219   1.283   7.200 -0.6120  1.6793  1.1878
  398MOL0     H53708   0.084   1.484   7.096 -1.0089  1.3172 -2.8015
  398MOL0     H53709   0.211   1.425   6.992  0.5033 -0.1025  1.4970
  398MOL0     H53710  -0.374   0.856   7.173 -0.0726  2.1220  0.8143
  398MOL0     H53711  -0.308   0.629   7.168  1.8465 -0.8660  1.1734
  398MOL0     H53712  -0.487   0.188   7.389 -0.4726 -1.0890  0.6989
  398MOL0     H53713  -0.413  -0.042   7.433 -1.2450 -0.0526 -0.3689
  398MOL0     H53714   1.371   0.041   7.622  0.9070 -1.0942 -1.8432
  398MOL0     H53715   1.573  -0.027   7.469  0.3452 -1.4215  3.9181
  398MOL0     H53716   1.729  -0.080   7.026  0.2877 -0.2113 -2.5168
  398MOL0     H53717   1.935  -0.198   6.957 -0.8555  0.6102 -1.3255
  398MOL0     H53718   2.119  -0.235   6.826 -0.3376 -2.3842 -0.1996
  398MOL0     H53719   2.173  -0.322   6.979  0.5686 -0.8015 -0.6636
  398MOL0     H53720   2.395  -0.300   6.924 -1.7192 -1.9230  0.2715
  398MOL0     H53721   2.369  -0.172   6.801  2.5747 -1.9137 -2.5151
  398MOL0     H53722   2.266  -0.352   6.651 -1.0247 -0.2259 -0.1943
  398MOL0     H53723   2.302  -0.467   6.778  0.1442 -1.0176 -3.0727
  398MOL0     H53724   2.512  -0.306   6.626 -0.9340  1.5248  0.2370
  398MOL0     H53725   2.547  -0.399   6.772  1.0986  0.1034 -1.6259
  398MOL0     H53726   2.491  -0.670   6.436 -2.7573 -1.4560  0.5675
  398MOL0     H53727   2.173   0.116   7.099  1.7155 -0.5652 -4.0280
  398MOL0     H53728   1.943   0.271   7.321  2.3661  0.9388  0.7499
  398MOL0     H53729   2.102   0.266   7.252 -0.0854  3.3776  1.9200
  398MOL0     H53730   1.962   0.336   7.162 -2.3558 -3.6946 -3.7595
  399MOL0     O53731  10.354   3.551   1.461  0.0391 -0.5198  0.0328
  399MOL0     C53732  10.299   3.611   1.372  0.4808 -0.2767 -0.1215
  399MOL0     O53733  10.225   3.551   1.271  0.0560 -0.6039 -0.2884
  399MOL0     C53734  10.193   3.427   1.292  0.9866 -0.7889 -1.2521
  399MOL0     C53735  10.119   3.396   1.413  0.4567  0.1987 -0.2789
  399MOL0     C53736  10.071   3.271   1.446 -0.2340  0.4609  0.2737
  399MOL0     C53737  10.092   3.177   1.350  0.7081 -0.0899  0.2673
  399MOL0     O53738  10.040   3.043   1.371 -0.2025 -0.3381 -0.7375
  399MOL0     C53739   9.910   3.026   1.427  0.3063 -0.2830  0.2360
  399MOL0     C53740   9.881   2.871   1.401 -0.3665  0.0793 -0.6626
  399MOL0     C53741   9.737   2.842   1.438  0.2393  0.3294  0.4606
  399MOL0     C53742   9.685   2.709   1.379 -0.5445  0.4673  0.1110
  399MOL0     C53743   9.530   2.715   1.390  0.5091 -0.6504 -0.3157
  399MOL0     C53744   9.452   2.817   1.306 -0.4847  0.1913  0.6421
  399MOL0     C53745   9.469   2.803   1.157  0.4955 -0.4062 -0.0862
  399MOL0     C53746   9.328   2.838   1.087 -1.0855  0.5260  0.0734
  399MOL0     N53747   9.219   2.745   1.097  0.0560  0.4283 -0.3934
  399MOL0     C53748   9.163   2.652   1.188 -0.3690 -0.1242  0.4852
  399MOL0     C53749   9.065   2.584   1.131  0.3456  0.1448  0.4138
  399MOL0     C53750   8.994   2.459   1.193  0.1554 -0.1579  0.5739
  399MOL0     C53751   8.869   2.496   1.271 -0.6308 -0.5997 -0.2923
  399MOL0     C53752   8.854   2.394   1.386  0.5499 -0.5788 -0.1852
  399MOL0     C53753   8.832   2.245   1.348  0.3586 -0.1028  0.1047
  399MOL0     O53754   8.701   2.224   1.294 -0.4518 -0.1747 -0.0485
  399MOL0     C53755   8.589   2.249   1.364  0.3663  0.4101  0.2356
  399MOL0     C53756   8.483   2.317   1.297 -1.0563 -1.4051 -0.1796
  399MOL0     C53757   8.361   2.349   1.369  0.5899 -0.1648 -0.2944
  399MOL0     C53758   8.335   2.291   1.491  0.4202  0.7335  0.9397
  399MOL0     C53759   8.193   2.290   1.535 -0.3544  1.6600  0.7311
  399MOL0     O53760   8.165   2.218   1.646 -0.0856 -0.0853  0.6108
  399MOL0     C53761   8.035   2.225   1.688 -0.2421 -0.0483  0.3289
  399MOL0     C53762   7.982   2.351   1.737 -0.4908 -0.6006  0.6574
  399MOL0     C53763   7.853   2.347   1.800 -0.2704  0.3977  1.1411
  399MOL0     C53764   7.784   2.221   1.806  0.1016  0.0989 -0.6461
  399MOL0     O53765   7.650   2.213   1.840 -0.3940  0.1559 -0.0692
  399MOL0     C53766   7.559   2.304   1.780  0.0161 -0.6630 -0.5780
  399MOL0     C53767   7.493   2.255   1.648  0.8260 -0.0696  0.1763
  399MOL0     C53768   7.560   2.315   1.520 -0.0717  0.5240 -0.5562
  399MOL0     C53769   7.700   2.271   1.483  0.0072 -0.4967 -0.7419
  399MOL0     C53770   7.758   2.334   1.350 -0.6161  0.6383 -0.1216
  399MOL0     C53771   7.746   2.224   1.241 -0.2193  0.5094 -0.2823
  399MOL0     C53772   7.859   2.208   1.140  0.1663 -0.2879  0.9018
  399MOL0     C53773   7.988   2.166   1.202  1.1583 -0.3973  0.3439
  399MOL0    Cl53774   8.119   2.106   1.090  0.1137 -0.3485  0.0360
  399MOL0     C53775   7.837   2.109   1.742  0.1006  0.4485 -0.4820
  399MOL0     C53776   7.964   2.103   1.696 -1.1511  0.6382 -1.2793
  399MOL0     O53777   8.110   2.346   1.464 -1.4032 -0.4386  0.1834
  399MOL0     C53778   8.435   2.209   1.545  0.4796  0.3843 -0.3200
  399MOL0     C53779   8.565   2.209   1.490 -0.4497  0.1395  0.3105
  399MOL0     N53780   9.042   2.646   1.009  0.3267  0.4679  0.0533
  399MOL0     N53781   9.135   2.729   0.993  0.0888  0.2669  0.2860
  399MOL0     C53782  10.164   3.194   1.225 -0.2669 -0.3480  0.7249
  399MOL0     C53783  10.214   3.326   1.199  1.0477  0.5686  0.4288
  399MOL0     C53784  10.309   3.764   1.377 -0.4115  0.1497  0.3752
  399MOL0     C53785  10.221   3.830   1.294 -0.3997 -0.1953  0.5513
  399MOL0     C53786  10.222   3.969   1.284  0.2951  0.7476  0.7053
  399MOL0     C53787  10.291   4.046   1.376 -1.1316 -0.6173  0.1722
  399MOL0     O53788  10.260   4.183   1.370  0.6105 -0.5516 -0.4768
  399MOL0     C53789  10.313   4.276   1.467 -0.4564 -0.1995 -0.5216
  399MOL0     C53790  10.275   4.418   1.424  0.2643 -1.1741  0.3873
  399MOL0     C53791  10.361   4.455   1.309 -0.9371  0.0516  0.8943
  399MOL0     C53792  10.381   4.605   1.308  0.3500 -1.2107 -0.4926
  399MOL0     C53793  10.452   4.661   1.191 -0.6160  0.6818 -0.3643
  399MOL0     C53794  10.511   4.705   1.098 -0.7358  0.2335 -0.0225
  399MOL0     C53795  10.381   3.986   1.461 -0.4071 -0.5590 -0.8201
  399MOL0     C53796  10.394   3.844   1.462 -0.7826 -0.4897 -0.2348
  399MOL0     C53797  10.503   3.789   1.544 -0.2069  0.5338 -0.0104
  399MOL0     H53798  10.101   3.472   1.488  0.2104 -0.8762  0.7692
  399MOL0     H53799  10.030   3.233   1.539  0.8847  0.4259  0.7742
  399MOL0     H53800   9.900   3.044   1.534 -3.5466  1.5588 -0.2209
  399MOL0     H53801   9.832   3.082   1.374 -1.9138 -1.8849  1.6417
  399MOL0     H53802   9.945   2.799   1.453 -2.5028 -1.2686  0.2276
  399MOL0     H53803   9.886   2.861   1.293 -3.6388 -1.7887 -0.7736
  399MOL0     H53804   9.677   2.930   1.413  0.1978  0.7486  1.9003
  399MOL0     H53805   9.731   2.845   1.548 -0.3162  0.8095  0.4238
  399MOL0     H53806   9.719   2.686   1.278  0.5005  0.0740  0.5386
  399MOL0     H53807   9.730   2.630   1.440 -0.1046 -0.7278 -1.6862
  399MOL0     H53808   9.481   2.618   1.380 -1.7692  0.2282  1.5516
  399MOL0     H53809   9.529   2.738   1.497 -0.5982 -0.9234 -0.2592
  399MOL0     H53810   9.349   2.789   1.329  0.5076 -2.1628  2.7043
  399MOL0     H53811   9.459   2.919   1.345  0.2460  0.9344 -1.3426
  399MOL0     H53812   9.498   2.698   1.145  0.0421 -0.5524  0.0752
  399MOL0     H53813   9.543   2.877   1.126  0.1164 -0.9461 -2.4987
  399MOL0     H53814   9.298   2.940   1.113 -0.3585  1.3273 -1.9844
  399MOL0     H53815   9.348   2.852   0.980  2.3527 -1.6128  0.2745
  399MOL0     H53816   9.202   2.629   1.287  4.1602  2.9759 -0.2474
  399MOL0     H53817   8.973   2.389   1.113 -0.2699  1.3891 -0.7201
  399MOL0     H53818   9.068   2.417   1.262 -1.1721 -3.5853  0.1097
  399MOL0     H53819   8.890   2.591   1.322  0.5122 -1.8013  1.6073
  399MOL0     H53820   8.779   2.500   1.210  2.1039 -0.0445 -4.7519
  399MOL0     H53821   8.777   2.442   1.448  1.5597  2.0664 -0.8514
  399MOL0     H53822   8.946   2.404   1.444 -1.8113  2.1559  3.5615
  399MOL0     H53823   8.832   2.192   1.444 -1.1239  1.8617  1.2678
  399MOL0     H53824   8.912   2.204   1.286 -1.2970 -1.0103 -1.5200
  399MOL0     H53825   8.496   2.372   1.204 -5.5377 -1.4138 -1.0402
  399MOL0     H53826   8.279   2.395   1.315 -0.2097 -0.9184  0.2535
  399MOL0     H53827   8.039   2.444   1.738 -0.8270 -0.3526 -0.7177
  399MOL0     H53828   7.808   2.443   1.824  1.0044  0.7929  2.0883
  399MOL0     H53829   7.484   2.330   1.855 -0.0462  1.7146 -1.3669
  399MOL0     H53830   7.605   2.401   1.759  1.3591 -1.3356 -0.8326
  399MOL0     H53831   7.482   2.147   1.634 -3.1587  0.3639 -1.4547
  399MOL0     H53832   7.396   2.303   1.663  0.1190 -1.8043  1.5177
  399MOL0     H53833   7.501   2.288   1.433  1.6716 -0.6664 -1.4312
  399MOL0     H53834   7.556   2.424   1.532  2.4643  0.4414  2.4467
  399MOL0     H53835   7.713   2.163   1.493  2.1259 -0.0942  1.9852
  399MOL0     H53836   7.760   2.311   1.566  1.9513 -1.2462 -1.7344
  399MOL0     H53837   7.863   2.362   1.364  0.2038 -2.0956 -0.0638
  399MOL0     H53838   7.706   2.426   1.324 -3.1303 -0.0420  2.1000
  399MOL0     H53839   7.746   2.131   1.299 -2.2414  0.7124  0.1200
  399MOL0     H53840   7.649   2.241   1.194 -0.2881  2.8159  0.5839
  399MOL0     H53841   7.870   2.290   1.068 -1.3730 -2.2609 -1.7460
  399MOL0     H53842   7.833   2.125   1.074 -2.5154  3.8345 -3.9689
  399MOL0     H53843   8.028   2.253   1.257 -0.9753  1.3445 -0.7181
  399MOL0     H53844   7.950   2.084   1.264 -2.6277  0.3211 -0.7947
  399MOL0     H53845   7.775   2.021   1.734  0.3251  0.1156  1.1276
  399MOL0     H53846   8.007   2.011   1.658  2.6875  1.6971 -0.0007
  399MOL0     H53847   8.425   2.164   1.644  3.8367 -0.1655 -0.1177
  399MOL0     H53848   8.634   2.146   1.545  0.7453  0.3769 -0.8619
  399MOL0     H53849  10.171   3.121   1.145  0.8674  1.4159 -0.8926
  399MOL0     H53850  10.271   3.339   1.108  1.8753 -2.0183  0.4951
  399MOL0     H53851  10.149   3.777   1.233  1.4328  0.5862 -2.4947
  399MOL0     H53852  10.147   4.016   1.220  0.5492 -0.1186 -0.2638
  399MOL0     H53853  10.420   4.259   1.483 -0.8791 -1.1445  1.7134
  399MOL0     H53854  10.266   4.260   1.564 -4.2664  0.1424 -2.1381
  399MOL0     H53855  10.283   4.480   1.514 -0.6589 -2.1868  1.1982
  399MOL0     H53856  10.170   4.437   1.401  0.5187 -0.2805 -0.0910
  399MOL0     H53857  10.303   4.423   1.222  0.1154 -0.6439  0.4374
  399MOL0     H53858  10.456   4.401   1.314 -0.8491 -0.0324 -0.8628
  399MOL0     H53859  10.278   4.641   1.306  0.7628  0.1537  0.7855
  399MOL0     H53860  10.428   4.635   1.402 -3.0236  2.1026  0.3436
  399MOL0     H53861  10.582   4.742   1.026  0.5706 -0.9194  0.6230
  399MOL0     H53862  10.448   4.038   1.528  4.0795 -4.5734 -1.5780
  399MOL0     H53863  10.564   3.858   1.603 -1.1308 -0.1408  1.8086
  399MOL0     H53864  10.464   3.726   1.624 -0.0750  0.2893 -0.1349
  399MOL0     H53865  10.570   3.729   1.481 -0.8896 -0.1100 -0.1359
  400MOL0     O53866   1.661   3.963  11.396 -0.3962 -0.4916 -0.1864
  400MOL0     C53867   1.616   3.870  11.332 -0.1451  0.4297 -0.5616
  400MOL0     O53868   1.643   3.737  11.342  0.2400  0.4149  0.4519
  400MOL0     C53869   1.754   3.716  11.425 -0.6754  0.0774  0.8214
  400MOL0     C53870   1.733   3.644  11.543  0.0375  0.4169  1.3274
  400MOL0     C53871   1.852   3.617  11.621  0.4452  0.0772 -0.1346
  400MOL0     C53872   1.981   3.676  11.588  0.5759 -0.5111 -0.0849
  400MOL0     O53873   2.084   3.660  11.679  0.2862 -0.5373  0.4754
  400MOL0     C53874   2.175   3.770  11.688 -0.1797 -0.9297  0.9471
  400MOL0     C53875   2.266   3.754  11.810 -0.4607 -0.5400 -0.6917
  400MOL0     C53876   2.370   3.872  11.807  0.2189  0.3655  0.3678
  400MOL0     C53877   2.411   3.902  11.949  0.0356  0.1541  0.8976
  400MOL0     C53878   2.506   4.021  11.943  0.5178 -0.2696  0.3236
  400MOL0     C53879   2.576   4.026  12.077 -0.4412  0.4892 -0.0550
  400MOL0     C53880   2.715   4.090  12.061  0.1546  0.3699  0.2855
  400MOL0     C53881   2.761   4.170  12.186  0.4688 -0.3631  0.2459
  400MOL0     N53882   2.897   4.134  12.203 -0.6811 -0.0126 -1.0039
  400MOL0     C53883   2.999   4.202  12.141 -0.1189 -0.2127 -0.0011
  400MOL0     C53884   3.112   4.165  12.197  0.2797  0.8599 -0.5736
  400MOL0     C53885   3.242   4.230  12.167  0.0473 -0.7604 -0.2022
  400MOL0     C53886   3.336   4.149  12.078  0.0194 -0.0813 -0.7915
  400MOL0     C53887   3.341   4.209  11.934 -0.2139  0.0362  0.2812
  400MOL0     C53888   3.212   4.193  11.855 -0.4275 -0.1369 -0.4891
  400MOL0     O53889   3.171   4.061  11.879 -0.7874 -0.3480 -0.5931
  400MOL0     C53890   3.053   4.023  11.811  0.8045 -0.4963 -0.3113
  400MOL0     C53891   3.000   4.079  11.692 -0.4654 -0.7382  0.7095
  400MOL0     C53892   2.900   4.016  11.621  1.1738  0.0452  1.0320
  400MOL0     C53893   2.832   3.908  11.682 -0.0226 -1.4379 -0.1542
  400MOL0     C53894   2.731   3.838  11.627  0.1532 -0.0052  0.1168
  400MOL0     O53895   2.669   3.903  11.518 -0.4303  0.5313 -0.3129
  400MOL0     C53896   2.563   3.850  11.443  0.2723  0.0451  0.5489
  400MOL0     C53897   2.479   3.732  11.473 -0.0831 -0.0761  0.4738
  400MOL0     C53898   2.389   3.684  11.375  0.0062  0.5831  0.3426
  400MOL0     C53899   2.377   3.736  11.249  0.7740 -0.3346  0.1719
  400MOL0     O53900   2.288   3.688  11.161  0.0942  0.3267  0.6056
  400MOL0     C53901   2.293   3.709  11.022  0.2135 -0.5275 -0.1858
  400MOL0     C53902   2.223   3.604  10.942  1.4342 -0.1940  0.2711
  400MOL0     C53903   2.279   3.601  10.797  0.0338 -0.8626 -0.6627
  400MOL0     C53904   2.184   3.545  10.698 -0.2432  0.6125  0.3201
  400MOL0     C53905   2.175   3.394  10.705  1.0290  0.2571 -0.9317
  400MOL0     C53906   2.047   3.339  10.656  0.4664 -0.3224 -0.3424
  400MOL0     C53907   2.010   3.205  10.730  0.8085  0.3198  0.5152
  400MOL0     C53908   1.948   3.107  10.626  0.2790 -0.3286 -0.4243
  400MOL0    Cl53909   1.923   2.972  10.728 -0.0426  0.5024  0.0642
  400MOL0     C53910   2.452   3.850  11.225 -0.4892 -0.2736  0.7698
  400MOL0     C53911   2.542   3.904  11.318  0.5472  0.2827 -0.0907
  400MOL0     O53912   2.703   3.727  11.680 -0.4006  0.0877  0.5710
  400MOL0     C53913   2.871   3.867  11.808  0.0275 -0.5813  0.0712
  400MOL0     C53914   2.981   3.923  11.868 -0.6802  0.0127 -0.4805
  400MOL0     N53915   3.080   4.061  12.294  0.1257 -0.1185  0.3803
  400MOL0     N53916   2.949   4.047  12.290 -0.2653  0.0360 -0.5782
  400MOL0     C53917   1.984   3.752  11.470  0.8031  0.1169  0.1888
  400MOL0     C53918   1.877   3.768  11.385  0.5508 -0.3411 -0.7604
  400MOL0     C53919   1.505   3.901  11.242  0.2455 -0.8100 -0.6085
  400MOL0     C53920   1.416   3.798  11.209 -0.0353  0.4578 -0.3343
  400MOL0     C53921   1.302   3.826  11.135  0.2825 -1.0672 -0.6520
  400MOL0     C53922   1.273   3.951  11.092 -0.7580  0.1100 -0.4716
  400MOL0     O53923   1.163   3.978  11.017 -0.3325  0.3697  0.3784
  400MOL0     C53924   1.058   3.884  10.992  0.1576 -0.5011  0.2356
  400MOL0     C53925   0.953   3.923  10.885 -0.0376 -0.0895 -0.1418
  400MOL0     C53926   0.890   4.063  10.902 -0.2096 -0.4868 -0.1327
  400MOL0     C53927   0.782   4.063  10.801  0.6836 -0.5746 -0.2960
  400MOL0     C53928   0.734   4.199  10.793  0.4045 -0.2957 -0.3002
  400MOL0     C53929   0.715   4.318  10.786 -0.2786 -0.4235  0.0496
  400MOL0     C53930   1.371   4.048  11.111  0.1342 -0.2596 -0.7468
  400MOL0     C53931   1.488   4.033  11.197  0.5501 -0.2615 -0.0268
  400MOL0     C53932   1.582   4.149  11.217  0.7143 -0.1699  0.0604
  400MOL0     H53933   1.640   3.599  11.576 -1.2025 -0.4291 -2.7679
  400MOL0     H53934   1.858   3.567  11.717  2.0434 -0.0285 -0.2645
  400MOL0     H53935   2.235   3.772  11.597  0.5898  0.9471  1.4390
  400MOL0     H53936   2.124   3.867  11.692  4.0670  1.5705  0.7343
  400MOL0     H53937   2.311   3.654  11.803 -0.4585 -0.6030  0.0873
  400MOL0     H53938   2.213   3.751  11.906  0.4305  1.8004 -0.0716
  400MOL0     H53939   2.322   3.962  11.766 -0.1330 -0.0705 -0.1926
  400MOL0     H53940   2.452   3.864  11.735 -0.9088 -1.9664 -0.7436
  400MOL0     H53941   2.328   3.915  12.019 -1.1663 -1.1671 -0.2200
  400MOL0     H53942   2.473   3.817  11.980  0.8894  0.8854  1.2313
  400MOL0     H53943   2.569   4.014  11.854 -0.1539  2.0149 -0.4058
  400MOL0     H53944   2.446   4.112  11.930 -3.2755 -2.7982 -1.7507
  400MOL0     H53945   2.510   4.071  12.152 -1.5518 -0.1556 -0.6216
  400MOL0     H53946   2.602   3.927  12.116  0.6694  0.5949 -0.5033
  400MOL0     H53947   2.709   4.160  11.977 -2.5670  0.7886  0.7313
  400MOL0     H53948   2.789   4.015  12.031 -3.6641 -3.3579 -0.8288
  400MOL0     H53949   2.762   4.279  12.181  0.5224 -0.3682  0.1391
  400MOL0     H53950   2.709   4.137  12.276  0.3452 -1.0590 -0.0731
  400MOL0     H53951   2.986   4.275  12.063  0.9979  1.9954  1.7673
  400MOL0     H53952   3.220   4.326  12.121 -0.1682 -1.2137 -1.0508
  400MOL0     H53953   3.288   4.246  12.265 -2.7976  0.3787  1.0598
  400MOL0     H53954   3.439   4.155  12.113 -0.6551  0.3202  1.2476
  400MOL0     H53955   3.304   4.045  12.079  0.7669 -0.3184 -0.9033
  400MOL0     H53956   3.416   4.154  11.875 -0.2991 -1.9648  1.9361
  400MOL0     H53957   3.374   4.314  11.933  3.2465 -0.9173 -0.2117
  400MOL0     H53958   3.229   4.231  11.754  3.5102  4.4450  1.4924
  400MOL0     H53959   3.145   4.266  11.902  1.9991  2.7389 -1.1864
  400MOL0     H53960   3.062   4.156  11.648 -1.8003 -0.1993 -0.3135
  400MOL0     H53961   2.866   4.058  11.527 -1.5888  0.2788  2.0413
  400MOL0     H53962   2.497   3.676  11.564 -0.0725  2.7486  2.3179
  400MOL0     H53963   2.328   3.599  11.402 -0.4761  0.4088 -1.2275
  400MOL0     H53964   2.243   3.802  10.994 -0.6525 -1.1955 -0.9078
  400MOL0     H53965   2.395   3.722  10.983 -0.1668  0.3150 -0.9381
  400MOL0     H53966   2.250   3.504  10.979  4.2164 -0.5077 -2.2011
  400MOL0     H53967   2.118   3.635  10.942  1.3907 -0.3398  0.4705
  400MOL0     H53968   2.299   3.703  10.763  1.2401 -0.0558  2.1315
  400MOL0     H53969   2.368   3.540  10.779  1.1640 -0.1754  2.0244
  400MOL0     H53970   2.214   3.580  10.599  0.5943 -0.1676  0.2810
  400MOL0     H53971   2.085   3.587  10.718 -0.4708  0.2991 -0.1194
  400MOL0     H53972   2.187   3.366  10.810  2.5188  0.1462 -1.1100
  400MOL0     H53973   2.257   3.349  10.648  1.3642 -0.5994  0.2046
  400MOL0     H53974   1.967   3.402  10.694  0.4468 -0.8742  0.5613
  400MOL0     H53975   2.046   3.343  10.547 -0.8140  1.1628 -0.3134
  400MOL0     H53976   1.948   3.232  10.816 -0.9969  0.5471 -0.7877
  400MOL0     H53977   2.095   3.155  10.776 -0.6088 -1.8536  0.9105
  400MOL0     H53978   1.850   3.143  10.592  0.1289 -1.6144 -1.4616
  400MOL0     H53979   2.012   3.079  10.542 -1.5830 -1.3526 -1.5680
  400MOL0     H53980   2.419   3.908  11.139 -1.3413  1.8843  2.4662
  400MOL0     H53981   2.601   3.986  11.279 -1.8957  0.7341 -3.2580
  400MOL0     H53982   2.831   3.787  11.870 -0.5476  0.3353  0.9211
  400MOL0     H53983   3.014   3.885  11.964  3.4742  3.5714 -0.1850
  400MOL0     H53984   2.081   3.794  11.447  0.4962  0.9425  0.3822
  400MOL0     H53985   1.885   3.816  11.288 -1.1114  2.8293  0.5573
  400MOL0     H53986   1.431   3.693  11.234  3.6458  0.8367 -0.5361
  400MOL0     H53987   1.233   3.742  11.132  0.1713 -1.2435  2.7880
  400MOL0     H53988   1.005   3.863  11.086  0.4300  0.4754  0.6193
  400MOL0     H53989   1.099   3.788  10.962 -0.6960 -1.0216  0.6842
  400MOL0     H53990   0.879   3.845  10.899 -0.2761  0.1512 -0.0553
  400MOL0     H53991   0.986   3.922  10.781  1.0472  2.3800  0.0877
  400MOL0     H53992   0.957   4.149  10.900  0.8311 -1.2777 -0.1251
  400MOL0     H53993   0.840   4.080  10.998 -1.4919  2.5643 -1.2136
  400MOL0     H53994   0.808   4.041  10.697 -0.0566  2.5406 -1.2311
  400MOL0     H53995   0.703   3.994  10.834 -0.2419 -0.4768 -2.1716
  400MOL0     H53996   0.684   4.420  10.775  3.5782  0.6696 -3.4170
  400MOL0     H53997   1.356   4.136  11.050 -0.1142  0.5821  0.4915
  400MOL0     H53998   1.576   4.183  11.321 -0.5754 -1.8665  0.5934
  400MOL0     H53999   1.689   4.137  11.200  1.1307  4.0585 -1.3632
  400MOL0     H54000   1.551   4.236  11.159  2.1954 -0.2510 -0.8959
  401MOL0     O54001   6.556  10.435   9.687 -0.6627 -0.9925  0.6177
  401MOL0     C54002   6.557  10.315   9.719  0.2976 -0.3866  0.5613
  401MOL0     O54003   6.488  10.224   9.638  0.0297  0.7606 -0.6982
  401MOL0     C54004   6.389  10.252   9.536 -0.2570 -0.0017 -0.8177
  401MOL0     C54005   6.375  10.185   9.415 -0.3526  0.2120  0.1060
  401MOL0     C54006   6.275  10.206   9.317  1.3525  0.8451 -0.1977
  401MOL0     C54007   6.187  10.313   9.339 -0.0453 -0.1500  0.5965
  401MOL0     O54008   6.096  10.346   9.243 -0.5662 -0.0136 -0.3395
  401MOL0     C54009   5.987  10.433   9.278 -0.1089 -0.8558  1.4300
  401MOL0     C54010   5.903  10.453   9.147 -0.7755  0.8348  0.0112
  401MOL0     C54011   5.832  10.316   9.120  0.3256 -0.2696  0.6606
  401MOL0     C54012   5.730  10.339   9.009 -1.0880 -0.0474  0.8696
  401MOL0     C54013   5.634  10.218   8.990 -0.9234  0.1310 -0.4756
  401MOL0     C54014   5.536  10.238   8.887  0.2438 -0.2354 -0.4506
  401MOL0     C54015   5.426  10.125   8.892 -0.7447 -0.0692  0.2616
  401MOL0     C54016   5.345  10.117   8.756 -0.5104  0.1508  0.6382
  401MOL0     N54017   5.446  10.061   8.656 -0.4074 -0.6153 -0.1862
  401MOL0     C54018   5.505   9.934   8.668  0.7404 -0.5656 -1.1781
  401MOL0     C54019   5.617   9.933   8.591  0.4853  0.1393  0.3110
  401MOL0     C54020   5.707   9.816   8.565  0.2421 -0.2081  0.7557
  401MOL0     C54021   5.679   9.775   8.421 -0.0377  0.5005  1.3745
  401MOL0     C54022   5.549   9.697   8.407  0.1995 -0.1362 -0.3339
  401MOL0     C54023   5.526   9.634   8.274  0.7484  0.0276  0.4110
  401MOL0     O54024   5.635   9.563   8.216  0.3051 -0.0163  0.3495
  401MOL0     C54025   5.635   9.424   8.239 -1.3184 -0.2280 -0.7439
  401MOL0     C54026   5.581   9.355   8.345 -0.8012 -0.1228 -0.9950
  401MOL0     C54027   5.598   9.214   8.354 -0.1506  0.3923  0.3097
  401MOL0     C54028   5.664   9.140   8.254 -0.0698  0.8272  0.2336
  401MOL0     C54029   5.661   8.986   8.262 -0.4556 -0.0831  0.0545
  401MOL0     O54030   5.601   8.927   8.363  0.1324 -0.2114 -0.6728
  401MOL0     C54031   5.624   8.798   8.387  0.1834  0.6810 -0.1351
  401MOL0     C54032   5.749   8.728   8.370 -0.0693 -0.2354 -0.6851
  401MOL0     C54033   5.754   8.590   8.394  0.2496 -0.0204 -0.1287
  401MOL0     C54034   5.638   8.520   8.444 -0.1161 -0.7379 -0.0882
  401MOL0     O54035   5.647   8.386   8.488 -0.5452  0.2481 -0.1362
  401MOL0     C54036   5.633   8.297   8.381 -0.4596  0.4349  1.0741
  401MOL0     C54037   5.494   8.248   8.363 -0.2433 -0.0767  0.1219
  401MOL0     C54038   5.485   8.153   8.236  0.3081  0.4791  0.0394
  401MOL0     C54039   5.358   8.066   8.221  0.6464  1.4368  0.8544
  401MOL0     C54040   5.390   7.921   8.190  0.6341  0.1956 -0.8198
  401MOL0     C54041   5.517   7.862   8.262 -0.2041 -1.1049  0.3404
  401MOL0     C54042   5.511   7.712   8.261  0.0262  0.5275  0.7555
  401MOL0     C54043   5.642   7.657   8.304  0.3792 -0.9977  0.7021
  401MOL0    Cl54044   5.758   7.691   8.171 -0.2836 -0.0018 -0.2518
  401MOL0     C54045   5.514   8.591   8.463  0.3651  0.0246 -0.0851
  401MOL0     C54046   5.509   8.723   8.419 -0.1237  0.1272  0.1937
  401MOL0     O54047   5.702   8.923   8.166  0.5878  0.3218  0.4814
  401MOL0     C54048   5.716   9.205   8.145 -0.1282 -0.8158  0.5944
  401MOL0     C54049   5.708   9.348   8.142 -0.5232  0.2386 -0.1492
  401MOL0     N54050   5.623  10.056   8.523 -0.6559  0.7262 -0.7077
  401MOL0     N54051   5.534  10.127   8.571  0.2109 -0.8550 -0.4396
  401MOL0     C54052   6.206  10.388   9.455  0.5839  0.4768 -0.1648
  401MOL0     C54053   6.297  10.362   9.557  0.2197  0.5218 -0.1022
  401MOL0     C54054   6.658  10.249   9.809 -0.7120 -0.0704  0.2606
  401MOL0     C54055   6.674  10.110   9.806 -0.3628 -0.5052  0.5249
  401MOL0     C54056   6.766  10.043   9.881  1.6543  0.2304 -0.0742
  401MOL0     C54057   6.844  10.113   9.974  0.7986 -0.8154  0.9316
  401MOL0     O54058   6.937  10.053  10.062  0.4979  0.5311 -0.0174
  401MOL0     C54059   6.933   9.906  10.070 -0.1534  0.8340  0.9140
  401MOL0     C54060   7.026   9.872  10.184  0.2181  0.2519  0.2489
  401MOL0     C54061   7.153   9.799  10.125  0.5121 -0.5774 -0.7775
  401MOL0     C54062   7.265   9.790  10.232 -0.0349 -0.0126 -0.1883
  401MOL0     C54063   7.378   9.700  10.209 -0.0982  0.7341 -0.7859
  401MOL0     C54064   7.490   9.643  10.197 -0.0890 -0.1036  0.2852
  401MOL0     C54065   6.819  10.253   9.984  0.3983  0.2436 -0.7307
  401MOL0     C54066   6.732  10.325   9.902  0.3739  1.1742 -0.6214
  401MOL0     C54067   6.726  10.476   9.921  0.7727  0.0719 -0.2546
  401MOL0     H54068   6.458  10.120   9.388 -1.4670 -1.3649  0.3833
  401MOL0     H54069   6.266  10.147   9.226  3.3110 -1.7582  1.1935
  401MOL0     H54070   5.934  10.392   9.364 -1.1365  0.1786  1.3006
  401MOL0     H54071   6.025  10.531   9.308  0.0828 -0.6185  0.4614
  401MOL0     H54072   5.957  10.468   9.053  0.2936 -1.7391  0.1386
  401MOL0     H54073   5.831  10.533   9.167 -2.2305 -0.6101  0.7700
  401MOL0     H54074   5.775  10.294   9.211 -1.9285 -1.2400 -0.8776
  401MOL0     H54075   5.905  10.239   9.096  2.1799  1.1955  1.3674
  401MOL0     H54076   5.672  10.428   9.033 -0.7249  0.1312  1.0967
  401MOL0     H54077   5.795  10.361   8.924 -0.7045 -0.9903  0.9002
  401MOL0     H54078   5.695  10.130   8.968  1.1298  1.3124  0.2510
  401MOL0     H54079   5.584  10.195   9.084 -0.5740 -0.1171 -0.3516
  401MOL0     H54080   5.484  10.334   8.886 -0.2659 -0.4963 -2.1016
  401MOL0     H54081   5.590  10.226   8.793  0.9254 -1.5743  0.0883
  401MOL0     H54082   5.358  10.151   8.974 -3.1435 -1.3142 -1.2053
  401MOL0     H54083   5.453  10.024   8.924 -3.1807  0.1676  3.5905
  401MOL0     H54084   5.269  10.039   8.758 -3.2028  2.5893  0.2667
  401MOL0     H54085   5.287  10.207   8.735 -3.9490 -2.1277 -0.3650
  401MOL0     H54086   5.488   9.854   8.739  2.7445 -0.1487 -0.1758
  401MOL0     H54087   5.812   9.845   8.566  0.3841 -0.7022  1.7394
  401MOL0     H54088   5.694   9.740   8.642 -2.0361  1.1894  1.8582
  401MOL0     H54089   5.673   9.866   8.360 -2.3360  2.6435  4.4951
  401MOL0     H54090   5.759   9.712   8.380 -1.6820 -0.2897 -0.8029
  401MOL0     H54091   5.471   9.767   8.438  1.2846 -0.1676  2.7817
  401MOL0     H54092   5.552   9.613   8.476 -2.1060 -1.5167 -1.8050
  401MOL0     H54093   5.508   9.715   8.202 -1.4838 -1.1802 -0.5180
  401MOL0     H54094   5.436   9.574   8.261  0.6535  0.0541  0.9291
  401MOL0     H54095   5.525   9.402   8.425 -1.2611 -1.5787 -0.4326
  401MOL0     H54096   5.569   9.165   8.447 -0.2650  1.5348  0.8983
  401MOL0     H54097   5.826   8.790   8.326 -0.3264  0.6240  0.0581
  401MOL0     H54098   5.850   8.538   8.398  0.9352  1.2857  1.7341
  401MOL0     H54099   5.685   8.337   8.294  4.1241  1.1851  3.8382
  401MOL0     H54100   5.692   8.214   8.419  0.0205  1.7269  3.3496
  401MOL0     H54101   5.482   8.187   8.453 -1.8347  1.7293  1.1933
  401MOL0     H54102   5.424   8.332   8.359  0.6037  0.6038 -1.5678
  401MOL0     H54103   5.489   8.225   8.154  3.1054 -0.3400 -0.6596
  401MOL0     H54104   5.577   8.095   8.223  0.7689  1.3072 -0.4617
  401MOL0     H54105   5.294   8.115   8.147  0.0415  2.6294  2.1113
  401MOL0     H54106   5.301   8.054   8.314  1.3371 -2.9101  0.9277
  401MOL0     H54107   5.416   7.916   8.084 -0.1741 -0.9195 -0.9813
  401MOL0     H54108   5.310   7.855   8.224  1.9829 -0.8932  0.3915
  401MOL0     H54109   5.596   7.899   8.195 -0.3799 -2.3738 -0.5967
  401MOL0     H54110   5.533   7.904   8.362  2.6786  0.2101 -0.5524
  401MOL0     H54111   5.485   7.681   8.159 -0.5670  2.3249  0.3217
  401MOL0     H54112   5.435   7.663   8.324  0.4407 -3.0136 -1.2073
  401MOL0     H54113   5.678   7.709   8.394  1.8338  0.7796 -0.8375
  401MOL0     H54114   5.627   7.554   8.337  0.4222 -0.5394  2.2742
  401MOL0     H54115   5.429   8.537   8.504 -0.0195 -0.2968 -1.2566
  401MOL0     H54116   5.413   8.769   8.444 -0.0469 -1.0321  3.0843
  401MOL0     H54117   5.766   9.160   8.060 -0.0373 -1.6843  1.0938
  401MOL0     H54118   5.738   9.397   8.049  0.9287 -0.9175 -0.3250
  401MOL0     H54119   6.147  10.478   9.467 -0.4052 -0.2482  0.5676
  401MOL0     H54120   6.301  10.434   9.638  3.0734 -0.4474  0.7676
  401MOL0     H54121   6.623  10.046   9.733 -0.5954  1.8473 -1.5050
  401MOL0     H54122   6.772   9.935   9.874 -2.0532 -0.0284 -1.0656
  401MOL0     H54123   6.962   9.860   9.975 -1.6475  0.7993  0.4497
  401MOL0     H54124   6.833   9.865  10.084  0.9973 -2.6773 -0.0354
  401MOL0     H54125   6.976   9.803  10.252 -0.0836  0.9326  0.7267
  401MOL0     H54126   7.055   9.958  10.245  0.4861 -0.2837  0.8846
  401MOL0     H54127   7.189   9.860  10.042  2.6776  0.7473  1.0083
  401MOL0     H54128   7.120   9.700  10.093 -1.7541 -0.8998  2.1294
  401MOL0     H54129   7.303   9.891  10.250  0.7215 -0.1258 -1.0856
  401MOL0     H54130   7.204   9.769  10.320 -4.1085  4.6006 -1.4798
  401MOL0     H54131   7.581   9.587  10.201  0.6932  1.1509  0.8123
  401MOL0     H54132   6.876  10.298  10.065  1.1283 -0.7725 -0.6572
  401MOL0     H54133   6.630  10.481   9.973  0.0965 -2.3390 -1.1266
  401MOL0     H54134   6.807  10.510   9.986  1.0688  0.9079 -1.0338
  401MOL0     H54135   6.733  10.532   9.827  1.0261  1.6400  0.6536
  402MOL0     O54136   8.808  11.519   1.971 -0.2019  0.4776  0.0495
  402MOL0     C54137   8.819  11.628   2.019  0.7425  0.3654 -0.0861
  402MOL0     O54138   8.723  11.725   2.014  0.7842 -0.1477 -0.1173
  402MOL0     C54139   8.605  11.707   1.945 -0.4408  0.4135  0.6962
  402MOL0     C54140   8.497  11.776   1.997  1.1883 -0.1673  0.8892
  402MOL0     C54141   8.373  11.800   1.924 -0.2636  0.4878 -0.2620
  402MOL0     C54142   8.365  11.742   1.804  0.3282 -0.1505  0.3236
  402MOL0     O54143   8.256  11.754   1.715 -0.9209  0.2593 -0.4243
  402MOL0     C54144   8.129  11.746   1.785 -0.1927  0.0924  1.2102
  402MOL0     C54145   8.032  11.698   1.678  0.6237  0.5120  0.0395
  402MOL0     C54146   8.066  11.555   1.618 -0.2159 -0.4338  0.4104
  402MOL0     C54147   8.015  11.435   1.708  0.4048 -0.3255  0.4200
  402MOL0     C54148   8.055  11.302   1.648  0.4477  0.2668 -0.0818
  402MOL0     C54149   8.209  11.272   1.659  0.9362  0.9111  0.2005
  402MOL0     C54150   8.228  11.113   1.643  0.1822  0.0831  0.0763
  402MOL0     C54151   8.338  11.084   1.530  0.5540 -0.0167 -0.3924
  402MOL0     N54152   8.460  11.155   1.562 -0.6713 -0.3134 -0.3016
  402MOL0     C54153   8.555  11.112   1.652  0.2625  0.5360  0.5729
  402MOL0     C54154   8.653  11.214   1.658  0.3643  0.3652 -0.7315
  402MOL0     C54155   8.780  11.210   1.742 -0.5198  0.0393 -0.1201
  402MOL0     C54156   8.902  11.273   1.674  0.8059  0.2524 -0.4751
  402MOL0     C54157   8.917  11.217   1.533 -0.6264 -0.7657 -0.0050
  402MOL0     C54158   9.034  11.284   1.463 -0.1416  0.8022  0.6724
  402MOL0     O54159   9.152  11.206   1.492  0.2788 -0.2358  0.5809
  402MOL0     C54160   9.261  11.261   1.445 -0.4496  0.1285 -0.4984
  402MOL0     C54161   9.313  11.386   1.483 -0.2974 -0.3190 -0.0117
  402MOL0     C54162   9.427  11.451   1.436 -0.0060 -0.6027  0.2952
  402MOL0     C54163   9.496  11.390   1.324 -0.0104 -1.0863  0.0069
  402MOL0     C54164   9.612  11.464   1.263  0.8853  0.0594  1.5242
  402MOL0     O54165   9.675  11.398   1.163 -0.1266 -0.1478 -0.1454
  402MOL0     C54166   9.763  11.462   1.082  0.0918  0.1024 -0.3048
  402MOL0     C54167   9.736  11.586   1.028  0.0449 -0.2133  0.5674
  402MOL0     C54168   9.821  11.643   0.930 -0.6570  0.3696  0.1944
  402MOL0     C54169   9.939  11.583   0.897  0.5564 -0.0422 -0.4458
  402MOL0     O54170  10.016  11.634   0.801  0.1989  0.2882  1.4410
  402MOL0     C54171   9.988  11.749   0.727  0.4011  0.3508 -0.0356
  402MOL0     C54172  10.066  11.751   0.596 -0.1502 -0.3433  0.2236
  402MOL0     C54173  10.020  11.886   0.511 -0.3277 -0.0946  0.4809
  402MOL0     C54174  10.143  11.942   0.444 -0.7775  0.7492 -0.1037
  402MOL0     C54175  10.096  12.042   0.341  0.3834  0.2270  0.3397
  402MOL0     C54176  10.216  12.116   0.284  0.3535  0.7547  0.4653
  402MOL0     C54177  10.256  12.079   0.143 -1.0145  0.2616 -0.6846
  402MOL0     C54178  10.171  12.130   0.036  0.2575  0.3569  0.5725
  402MOL0    Cl54179  10.174  12.306   0.033  0.0940 -0.0830  0.0520
  402MOL0     C54180   9.971  11.463   0.949  0.7074  0.7410  0.0045
  402MOL0     C54181   9.881  11.400   1.036 -0.0736 -0.0406 -0.0612
  402MOL0     O54182   9.646  11.577   1.307  0.6786 -0.3825 -0.2444
  402MOL0     C54183   9.462  11.263   1.281 -0.5897  0.1447 -0.9728
  402MOL0     C54184   9.345  11.206   1.350 -1.0009 -0.4483 -0.2219
  402MOL0     N54185   8.613  11.310   1.570  0.3282 -0.7941 -0.4350
  402MOL0     N54186   8.504  11.269   1.515  0.6355  1.0276  0.0543
  402MOL0     C54187   8.468  11.662   1.755  1.5251  0.2992  0.4551
  402MOL0     C54188   8.595  11.643   1.820 -0.1581 -0.1761 -0.6289
  402MOL0     C54189   8.949  11.651   2.096 -0.8049 -0.1750  0.3117
  402MOL0     C54190   8.947  11.753   2.198  0.6027  0.6299 -0.4286
  402MOL0     C54191   9.056  11.790   2.275  0.4548  0.9218 -0.2086
  402MOL0     C54192   9.176  11.717   2.251  0.2732  0.5630 -0.6019
  402MOL0     O54193   9.288  11.728   2.331 -0.1337 -0.1352  0.3993
  402MOL0     C54194   9.307  11.842   2.412  0.1040 -0.2017 -0.3770
  402MOL0     C54195   9.390  11.950   2.347 -0.1969  0.6885 -0.5845
  402MOL0     C54196   9.442  12.052   2.447 -0.5255 -0.5746 -0.5106
  402MOL0     C54197   9.509  12.175   2.386 -0.2714  0.4301  1.0863
  402MOL0     C54198   9.419  12.237   2.287 -0.3711 -0.1315  0.2828
  402MOL0     C54199   9.331  12.277   2.206 -0.8753 -0.0917 -0.3081
  402MOL0     C54200   9.178  11.609   2.160  0.2973 -0.4956  0.2347
  402MOL0     C54201   9.069  11.583   2.075  0.1977  0.7299 -1.0948
  402MOL0     C54202   9.092  11.481   1.974 -0.4509  0.8632  0.4581
  402MOL0     H54203   8.510  11.827   2.091  1.8508  1.4224 -0.0215
  402MOL0     H54204   8.285  11.849   1.964  1.4168  3.7419 -0.2399
  402MOL0     H54205   8.130  11.666   1.860 -0.8402  1.3680  2.6482
  402MOL0     H54206   8.102  11.842   1.830 -0.7746  1.2295 -1.3536
  402MOL0     H54207   8.011  11.768   1.597 -0.1439  0.9332  0.6029
  402MOL0     H54208   7.939  11.693   1.735  2.1752  2.9504  3.0961
  402MOL0     H54209   8.171  11.546   1.589 -0.4202 -0.3714 -0.3932
  402MOL0     H54210   8.004  11.545   1.528  3.5982 -2.9236 -2.2663
  402MOL0     H54211   8.065  11.448   1.805 -1.6720 -0.1265  1.5137
  402MOL0     H54212   7.909  11.443   1.734  0.4780  4.0533  0.1920
  402MOL0     H54213   7.989  11.228   1.695 -2.0377  2.4938  0.1772
  402MOL0     H54214   8.016  11.295   1.546 -4.5453 -1.2910  1.6091
  402MOL0     H54215   8.259  11.321   1.574  3.3897  0.3219  1.2192
  402MOL0     H54216   8.257  11.298   1.754 -1.7610 -1.0270  2.2631
  402MOL0     H54217   8.137  11.061   1.613  0.3477 -0.1270 -0.0670
  402MOL0     H54218   8.275  11.078   1.735 -0.3921 -2.2922 -0.4675
  402MOL0     H54219   8.348  10.977   1.549 -1.9071 -0.7628 -2.8120
  402MOL0     H54220   8.303  11.091   1.427 -0.2057  0.5912 -0.1012
  402MOL0     H54221   8.547  11.025   1.716 -3.6435  1.3252  1.4637
  402MOL0     H54222   8.769  11.261   1.839 -1.7578  0.7132 -0.5968
  402MOL0     H54223   8.811  11.107   1.758  3.4729  0.6218 -2.7627
  402MOL0     H54224   8.902  11.382   1.666  0.0989  0.3500  0.7454
  402MOL0     H54225   8.992  11.249   1.731 -1.3577 -2.0328  2.2700
  402MOL0     H54226   8.838  11.244   1.462  2.3360  1.2464 -2.7872
  402MOL0     H54227   8.938  11.110   1.538 -1.0731 -0.8146  1.6014
  402MOL0     H54228   9.039  11.389   1.492 -2.6672  0.8238  1.2035
  402MOL0     H54229   9.043  11.280   1.354  0.1812 -1.9036  0.7181
  402MOL0     H54230   9.274  11.430   1.574  0.4840  0.2817  0.0509
  402MOL0     H54231   9.459  11.543   1.484  2.0181 -0.9737 -0.2680
  402MOL0     H54232   9.649  11.640   1.063 -0.4355 -1.5354  1.4497
  402MOL0     H54233   9.788  11.740   0.894 -0.5092  0.2780 -0.1919
  402MOL0     H54234   9.882  11.764   0.706  0.5330  1.0614 -0.2161
  402MOL0     H54235  10.016  11.838   0.784 -1.2162  0.1111  1.1770
  402MOL0     H54236  10.169  11.763   0.629 -0.0876 -0.4474  0.0651
  402MOL0     H54237  10.050  11.663   0.533  1.2372 -0.1681 -0.3994
  402MOL0     H54238   9.968  11.851   0.421  0.8631 -1.0305  0.1345
  402MOL0     H54239   9.963  11.959   0.568 -0.1093 -0.2589  0.9086
  402MOL0     H54240  10.211  11.873   0.393  2.6755  2.6446  1.5205
  402MOL0     H54241  10.202  11.995   0.520  2.7092 -3.1224  0.2776
  402MOL0     H54242  10.022  12.112   0.382  0.1601  0.2351 -0.0774
  402MOL0     H54243  10.054  11.982   0.261  1.6031  1.1190 -1.0198
  402MOL0     H54244  10.205  12.225   0.284 -3.4100  0.5446 -1.2256
  402MOL0     H54245  10.304  12.097   0.345  0.7414 -1.6705 -0.7347
  402MOL0     H54246  10.269  11.971   0.156 -2.8729  0.3470  3.6200
  402MOL0     H54247  10.350  12.130   0.123 -0.7252  0.1334  0.2969
  402MOL0     H54248  10.207  12.094  -0.061  1.1138  4.1149 -0.6660
  402MOL0     H54249  10.067  12.098   0.045 -0.0351  0.6574 -1.2974
  402MOL0     H54250  10.061  11.412   0.915  2.1955  2.0256  1.7977
  402MOL0     H54251   9.907  11.304   1.079  1.9212 -1.3071 -3.6696
  402MOL0     H54252   9.518  11.217   1.200 -0.0886 -2.4380  0.7017
  402MOL0     H54253   9.332  11.102   1.322 -1.5218 -0.2302 -0.8293
  402MOL0     H54254   8.454  11.604   1.665  0.7147  2.0757 -0.6133
  402MOL0     H54255   8.669  11.595   1.756  0.9321 -1.0763  1.2202
  402MOL0     H54256   8.851  11.802   2.212  1.3226  1.6865  1.0668
  402MOL0     H54257   9.029  11.867   2.347 -2.2438  2.3918 -2.5770
  402MOL0     H54258   9.348  11.814   2.510 -0.9500 -0.5552 -0.0254
  402MOL0     H54259   9.211  11.881   2.446 -0.3630 -0.3747 -1.4479
  402MOL0     H54260   9.317  11.993   2.278 -1.2243  3.3036  1.9243
  402MOL0     H54261   9.469  11.899   2.292 -0.0448 -1.5475  1.5434
  402MOL0     H54262   9.509  12.004   2.520 -0.0256  4.0355  2.4645
  402MOL0     H54263   9.356  12.088   2.504  2.3574  1.8513  2.7222
  402MOL0     H54264   9.517  12.242   2.472  0.3229 -2.0310  3.0687
  402MOL0     H54265   9.602  12.154   2.333 -0.4102 -2.5492  1.8872
  402MOL0     H54266   9.268  12.320   2.131  1.4081 -0.1901 -2.4025
  402MOL0     H54267   9.276  11.564   2.150  1.9764  2.8319  0.4367
  402MOL0     H54268   9.196  11.447   1.966 -1.3720 -1.6572 -2.9059
  402MOL0     H54269   9.034  11.393   2.003 -0.3661  1.9219  4.4163
  402MOL0     H54270   9.060  11.524   1.879  3.0951  1.5161 -0.6056
  403MOL0     O54271   0.855   8.999   1.889  0.0539 -0.2643  0.4241
  403MOL0     C54272   0.772   8.922   1.924  0.5705  0.4049 -0.5184
  403MOL0     O54273   0.677   8.855   1.833 -0.2442 -0.7932 -0.2357
  403MOL0     C54274   0.685   8.883   1.700  0.1321 -1.0180 -0.4333
  403MOL0     C54275   0.572   8.872   1.622 -0.2211  0.1496  0.3749
  403MOL0     C54276   0.572   8.892   1.484  0.0727  0.4893  0.2777
  403MOL0     C54277   0.694   8.914   1.416 -0.1110  0.4674  0.5620
  403MOL0     O54278   0.699   8.958   1.287 -0.4765 -0.3070 -0.2356
  403MOL0     C54279   0.575   8.980   1.222 -0.3722 -0.3917  0.5416
  403MOL0     C54280   0.611   9.034   1.073  0.2082 -1.1131 -1.2927
  403MOL0     C54281   0.597   8.926   0.969  1.4322  0.4908  0.0987
  403MOL0     C54282   0.587   8.984   0.829  0.6540  0.2963  0.4901
  403MOL0     C54283   0.600   8.866   0.735  0.3855 -0.0812  0.0255
  403MOL0     C54284   0.745   8.810   0.723 -0.6837  0.0658  0.5938
  403MOL0     C54285   0.764   8.733   0.596  0.5693  0.3405  0.7675
  403MOL0     C54286   0.671   8.608   0.583  0.8562 -0.8853 -0.0486
  403MOL0     N54287   0.698   8.529   0.462  0.1253 -0.0061 -0.8926
  403MOL0     C54288   0.622   8.432   0.402 -0.2233  0.6846  0.0137
  403MOL0     C54289   0.711   8.365   0.315  0.9844 -0.2915  0.0429
  403MOL0     C54290   0.676   8.244   0.233  0.3779  0.5533  0.3030
  403MOL0     C54291   0.583   8.271   0.126 -0.9732  0.0504 -0.6635
  403MOL0     C54292   0.573   8.160   0.024  0.7309 -0.4075 -0.0935
  403MOL0     C54293   0.455   8.195  -0.079  0.6993 -0.0821 -0.1341
  403MOL0     O54294   0.425   8.083  -0.168  0.1517  0.0846 -0.1186
  403MOL0     C54295   0.374   7.964  -0.124 -0.9705  0.2298  0.1436
  403MOL0     C54296   0.245   7.946  -0.121  0.5052  0.6434  0.4965
  403MOL0     C54297   0.183   7.833  -0.076 -0.2830  0.0116 -0.5171
  403MOL0     C54298   0.252   7.719  -0.028  0.0782  0.6994  0.1162
  403MOL0     C54299   0.191   7.599   0.010 -0.1611 -0.0512  0.7104
  403MOL0     O54300   0.058   7.578  -0.028 -0.4610 -0.0507  0.3260
  403MOL0     C54301  -0.008   7.459  -0.019 -0.4134 -0.7720  0.8181
  403MOL0     C54302   0.002   7.382   0.095  0.5974  0.1965  0.1831
  403MOL0     C54303  -0.086   7.267   0.110  0.4560  0.7385 -0.0339
  403MOL0     C54304  -0.168   7.221   0.009 -0.4069  1.5290 -0.0640
  403MOL0     O54305  -0.224   7.089   0.026 -0.0097 -1.2154 -0.6551
  403MOL0     C54306  -0.269   7.010  -0.091  0.5307  0.2047  0.2103
  403MOL0     C54307  -0.214   6.864  -0.100 -0.1163  0.3534 -0.2064
  403MOL0     C54308  -0.301   6.775  -0.015 -0.2771 -0.5582  0.4154
  403MOL0     C54309  -0.227   6.639  -0.010 -0.0771 -0.9325 -0.5101
  403MOL0     C54310  -0.314   6.541   0.067  0.3624 -0.4386  0.1068
  403MOL0     C54311  -0.286   6.390   0.025 -0.2922  0.5734  0.4613
  403MOL0     C54312  -0.406   6.286   0.036 -0.2795 -0.4303 -0.4604
  403MOL0     C54313  -0.422   6.261   0.187 -0.7133  0.2262 -0.3608
  403MOL0    Cl54314  -0.497   6.401   0.282  0.3078  0.0854 -0.3386
  403MOL0     C54315  -0.169   7.301  -0.113 -0.4814 -0.8031  0.2385
  403MOL0     C54316  -0.089   7.418  -0.130  0.4772 -0.2445 -0.9661
  403MOL0     O54317   0.264   7.518   0.069 -0.7655 -0.2408  0.2285
  403MOL0     C54318   0.391   7.743  -0.022  0.6407  0.4570 -0.0678
  403MOL0     C54319   0.455   7.857  -0.070  0.2756 -0.5348 -0.3661
  403MOL0     N54320   0.826   8.434   0.317 -0.7289 -0.0354  0.7521
  403MOL0     N54321   0.826   8.519   0.416 -0.2742  0.0641 -0.0954
  403MOL0     C54322   0.811   8.912   1.495 -1.0880 -0.9153 -0.0451
  403MOL0     C54323   0.806   8.905   1.629 -0.4298 -0.1221 -0.0841
  403MOL0     C54324   0.750   8.889   2.064 -0.3129 -0.4560 -0.4087
  403MOL0     C54325   0.807   8.977   2.153 -0.8558  0.3259 -0.6118
  403MOL0     C54326   0.792   8.955   2.291 -0.7383  0.0811 -0.4491
  403MOL0     C54327   0.717   8.849   2.344  0.4797 -0.6954  0.8524
  403MOL0     O54328   0.689   8.851   2.478  0.3550 -0.6577  0.6684
  403MOL0     C54329   0.802   8.865   2.572  0.4240  0.3099 -0.7035
  403MOL0     C54330   0.758   8.821   2.708  0.2990 -0.0239 -0.2652
  403MOL0     C54331   0.658   8.914   2.771  0.6512 -0.1862 -0.4507
  403MOL0     C54332   0.595   8.857   2.898  0.6720  0.5434 -0.2009
  403MOL0     C54333   0.703   8.824   3.006  1.5267 -0.8549 -0.3931
  403MOL0     C54334   0.780   8.799   3.094 -0.3061  0.1492 -0.5209
  403MOL0     C54335   0.668   8.754   2.259  0.7260 -0.7696 -0.1630
  403MOL0     C54336   0.683   8.775   2.120 -0.7638  0.8936  0.1784
  403MOL0     C54337   0.641   8.656   2.029  0.9493 -0.4049  0.4152
  403MOL0     H54338   0.478   8.836   1.661 -0.6115 -1.5236 -1.8894
  403MOL0     H54339   0.479   8.884   1.428  0.5155  3.3482 -1.0522
  403MOL0     H54340   0.505   8.896   1.222 -0.4857 -0.2983  0.3687
  403MOL0     H54341   0.522   9.059   1.277  3.5871  2.9775  0.0566
  403MOL0     H54342   0.703   9.094   1.070 -0.9657  0.7298 -2.2216
  403MOL0     H54343   0.536   9.106   1.041  1.5531  0.6804 -0.6154
  403MOL0     H54344   0.499   8.878   0.985  1.2342  0.9990  0.4408
  403MOL0     H54345   0.675   8.850   0.976  1.0333  0.2225  2.5743
  403MOL0     H54346   0.493   9.039   0.815  0.8693  0.1224 -2.2284
  403MOL0     H54347   0.674   9.047   0.809  1.5124 -1.0092  0.0230
  403MOL0     H54348   0.532   8.784   0.760  0.3065 -1.2465 -3.4381
  403MOL0     H54349   0.563   8.905   0.640  1.5335 -0.0916 -0.4525
  403MOL0     H54350   0.812   8.897   0.730 -0.5105 -0.0651  0.5787
  403MOL0     H54351   0.775   8.742   0.803 -1.6387 -0.2327  0.7084
  403MOL0     H54352   0.863   8.691   0.615  0.5422  1.5231  4.2656
  403MOL0     H54353   0.775   8.792   0.504  1.9710  1.3211  1.5251
  403MOL0     H54354   0.681   8.550   0.675 -0.3985  0.1752  0.7854
  403MOL0     H54355   0.571   8.651   0.583  1.2876  0.1666 -0.3319
  403MOL0     H54356   0.521   8.395   0.410 -0.3113  1.0296  0.6165
  403MOL0     H54357   0.773   8.206   0.199 -0.1068  1.2354 -1.9961
  403MOL0     H54358   0.638   8.165   0.298 -0.6352  0.3429 -0.5221
  403MOL0     H54359   0.481   8.272   0.166 -1.2960 -0.3430 -1.4435
  403MOL0     H54360   0.590   8.372   0.085 -1.0981 -0.6420 -2.4872
  403MOL0     H54361   0.532   8.082   0.088  2.0812  0.2760  1.6750
  403MOL0     H54362   0.664   8.124  -0.025  1.3177  2.9071 -1.7638
  403MOL0     H54363   0.486   8.277  -0.145 -1.4346  1.7952  1.0428
  403MOL0     H54364   0.364   8.224  -0.027  0.4160  1.6222 -1.4991
  403MOL0     H54365   0.180   8.026  -0.155  0.8754  1.9643  2.7214
  403MOL0     H54366   0.076   7.833  -0.057 -0.1590  2.0052  0.4541
  403MOL0     H54367   0.070   7.430   0.165  0.3495  2.1993 -0.8694
  403MOL0     H54368  -0.066   7.212   0.201  0.0332 -0.2024 -0.5053
  403MOL0     H54369  -0.377   6.997  -0.084  0.4346  0.1476 -1.2500
  403MOL0     H54370  -0.247   7.070  -0.180  0.3508  0.2084  0.1686
  403MOL0     H54371  -0.222   6.837  -0.205 -0.8979  1.7489 -0.5322
  403MOL0     H54372  -0.110   6.861  -0.065  0.1130  1.8746 -0.7032
  403MOL0     H54373  -0.307   6.812   0.088  0.7022 -0.1416  0.3298
  403MOL0     H54374  -0.403   6.768  -0.054  0.4567 -0.0281 -1.6913
  403MOL0     H54375  -0.131   6.651   0.041  0.3006  4.2475 -1.9025
  403MOL0     H54376  -0.207   6.605  -0.112  4.8784 -1.7228  0.4702
  403MOL0     H54377  -0.415   6.562   0.031  1.2980  1.2890 -1.6925
  403MOL0     H54378  -0.301   6.546   0.176  0.4029  1.0016  0.0590
  403MOL0     H54379  -0.237   6.380  -0.073  1.3276  0.3883  1.2577
  403MOL0     H54380  -0.204   6.367   0.093  1.1202 -0.1575 -1.4111
  403MOL0     H54381  -0.378   6.194  -0.016 -2.0409 -0.4909 -1.3751
  403MOL0     H54382  -0.502   6.313  -0.009 -1.9774 -0.0894  3.0509
  403MOL0     H54383  -0.486   6.172   0.194 -0.4237  0.1236  1.2591
  403MOL0     H54384  -0.329   6.229   0.234 -0.8483 -2.5419 -1.7897
  403MOL0     H54385  -0.221   7.268  -0.202  0.4020 -1.7540  0.0538
  403MOL0     H54386  -0.081   7.471  -0.224 -3.7640  2.3771 -0.1187
  403MOL0     H54387   0.454   7.655  -0.011  1.0496  0.7839  0.1853
  403MOL0     H54388   0.558   7.878  -0.043  0.0347 -0.3121  0.3982
  403MOL0     H54389   0.909   8.919   1.449 -0.5581  2.0337  1.3062
  403MOL0     H54390   0.898   8.915   1.686 -0.3865  1.0924 -0.3579
  403MOL0     H54391   0.879   9.047   2.113  2.8904 -2.9615 -0.2175
  403MOL0     H54392   0.832   9.029   2.361 -0.9634  0.5117 -0.7674
  403MOL0     H54393   0.844   8.965   2.581  0.6261  0.0554  1.8256
  403MOL0     H54394   0.880   8.799   2.533 -0.9406 -1.6359 -0.3174
  403MOL0     H54395   0.852   8.826   2.764  1.0426  2.7098 -1.5781
  403MOL0     H54396   0.720   8.718   2.707 -1.6585  0.6250  1.1213
  403MOL0     H54397   0.575   8.921   2.701  0.7836  5.8180 -0.5199
  403MOL0     H54398   0.700   9.013   2.791 -1.6278  0.7413  0.1006
  403MOL0     H54399   0.533   8.939   2.937 -0.1670 -1.3588  2.7937
  403MOL0     H54400   0.534   8.770   2.873  1.7166 -0.7140  1.3904
  403MOL0     H54401   0.854   8.783   3.170 -1.1691  0.8981  0.4879
  403MOL0     H54402   0.603   8.677   2.300  1.1796  0.4118  3.0801
  403MOL0     H54403   0.725   8.608   1.978 -0.5931  1.2828 -4.2356
  403MOL0     H54404   0.594   8.578   2.090 -1.5444  0.9809  0.4419
  403MOL0     H54405   0.560   8.672   1.956 -0.5045 -0.4049  1.9560
  404MOL0     O54406   7.699   7.387  10.885 -0.4458  0.6839 -0.4485
  404MOL0     C54407   7.579   7.401  10.899  0.0807  0.2316 -0.9714
  404MOL0     O54408   7.485   7.447  10.804 -0.4884  0.0104  0.2237
  404MOL0     C54409   7.516   7.446  10.675  1.3326 -0.2270  1.0097
  404MOL0     C54410   7.452   7.355  10.588  0.3719 -0.1708 -0.1262
  404MOL0     C54411   7.487   7.335  10.456 -0.9181 -0.2956  0.3154
  404MOL0     C54412   7.582   7.423  10.391  0.0470 -0.2101 -0.0120
  404MOL0     O54413   7.608   7.412  10.255 -0.3192  1.1324 -0.4144
  404MOL0     C54414   7.731   7.349  10.228  0.2730  0.5623 -0.3165
  404MOL0     C54415   7.767   7.392  10.084  0.1759  0.0964 -0.1760
  404MOL0     C54416   7.680   7.337   9.969 -0.5597  0.8621  0.2494
  404MOL0     C54417   7.678   7.427   9.845 -1.3978 -0.1680 -0.3129
  404MOL0     C54418   7.603   7.551   9.867 -0.1671  0.3037  0.1853
  404MOL0     C54419   7.637   7.627   9.737  0.0079  0.2057 -0.6808
  404MOL0     C54420   7.546   7.749   9.725  0.0270 -0.2108  0.4986
  404MOL0     C54421   7.616   7.854   9.634 -0.4533 -0.3866  0.1043
  404MOL0     N54422   7.501   7.947   9.591 -0.5978  0.2827 -0.0805
  404MOL0     C54423   7.485   7.989   9.460 -0.7633 -0.4239 -0.9010
  404MOL0     C54424   7.394   8.092   9.460 -0.1641  0.1615  0.6381
  404MOL0     C54425   7.349   8.150   9.334  0.2160  0.1844  0.1476
  404MOL0     C54426   7.367   8.303   9.344 -0.4087 -0.6077  0.3488
  404MOL0     C54427   7.303   8.358   9.219 -1.3267  0.1294 -0.1841
  404MOL0     C54428   7.374   8.311   9.087  0.1751 -0.2290 -0.2392
  404MOL0     O54429   7.520   8.314   9.089 -1.0744  0.1011  0.5488
  404MOL0     C54430   7.590   8.425   9.028 -0.1984  0.2333 -1.1786
  404MOL0     C54431   7.586   8.551   9.083  0.5482  0.8943  0.0043
  404MOL0     C54432   7.667   8.652   9.023 -1.1022 -0.1265 -0.0513
  404MOL0     C54433   7.753   8.634   8.913  0.8688 -0.8262  0.4729
  404MOL0     C54434   7.827   8.743   8.846 -0.0296 -0.3112  0.4896
  404MOL0     O54435   7.799   8.865   8.894 -0.2584 -0.8170 -0.2042
  404MOL0     C54436   7.868   8.972   8.843 -0.2703  0.6600 -0.6176
  404MOL0     C54437   7.834   9.039   8.729  0.0823 -0.2020  1.2174
  404MOL0     C54438   7.911   9.146   8.674  0.3122  0.0948 -0.6195
  404MOL0     C54439   8.031   9.183   8.738  0.5037  0.6344  0.4877
  404MOL0     O54440   8.110   9.283   8.690 -0.6416 -0.3836 -0.3420
  404MOL0     C54441   8.190   9.247   8.578 -0.5458 -0.2117  1.4577
  404MOL0     C54442   8.106   9.259   8.445 -0.0848 -0.5814  0.0998
  404MOL0     C54443   8.026   9.387   8.438  0.9524 -0.0768  0.6457
  404MOL0     C54444   7.953   9.405   8.301 -1.3350  0.9926 -0.1687
  404MOL0     C54445   7.858   9.525   8.297  0.1371 -0.2734 -0.7770
  404MOL0     C54446   7.722   9.517   8.374  0.3537  0.1554 -0.0259
  404MOL0     C54447   7.624   9.634   8.355 -0.1739 -1.1654 -0.6100
  404MOL0     C54448   7.554   9.632   8.214 -0.2418 -0.5435 -0.0904
  404MOL0    Cl54449   7.614   9.739   8.099 -0.0513 -0.1877  0.0212
  404MOL0     C54450   8.064   9.124   8.864 -0.4561  0.5380 -0.0526
  404MOL0     C54451   7.982   9.016   8.923  0.2130 -0.2196  0.1486
  404MOL0     O54452   7.918   8.713   8.759  0.3667  0.8022 -0.0045
  404MOL0     C54453   7.765   8.494   8.879 -0.7032 -0.7783  1.4027
  404MOL0     C54454   7.677   8.398   8.929 -0.5856  0.1442 -0.1313
  404MOL0     N54455   7.357   8.105   9.595  0.1273 -0.0194 -0.8206
  404MOL0     N54456   7.427   8.025   9.669  0.7769 -0.7171  0.6076
  404MOL0     C54457   7.634   7.526  10.480  0.5730  0.6004 -0.5478
  404MOL0     C54458   7.607   7.536  10.614  0.0990  0.1929  0.0614
  404MOL0     C54459   7.531   7.407  11.039  0.3477 -0.2166 -0.2498
  404MOL0     C54460   7.394   7.377  11.041  0.6405  0.8815 -0.0907
  404MOL0     C54461   7.330   7.381  11.173 -0.2990  0.3232  0.6119
  404MOL0     C54462   7.402   7.392  11.287 -0.2396  0.4756 -1.4570
  404MOL0     O54463   7.349   7.389  11.414  0.6987  0.9259  0.0032
  404MOL0     C54464   7.225   7.328  11.440 -0.1745 -0.4285  0.0474
  404MOL0     C54465   7.110   7.416  11.451  0.1087 -0.1989  0.6577
  404MOL0     C54466   7.120   7.500  11.578 -0.9983 -0.3657  0.8612
  404MOL0     C54467   6.995   7.588  11.604 -0.0148 -0.4625  0.2710
  404MOL0     C54468   6.977   7.676  11.492  0.4574 -0.2764 -0.0314
  404MOL0     C54469   6.958   7.749  11.392 -0.4451  0.5095  1.0155
  404MOL0     C54470   7.535   7.425  11.284  0.1065 -0.6222  0.3711
  404MOL0     C54471   7.606   7.439  11.156  0.9825 -0.3739 -0.0023
  404MOL0     C54472   7.750   7.462  11.159 -0.2208 -0.1720 -0.2411
  404MOL0     H54473   7.372   7.298  10.634  0.3735 -1.7448 -1.9370
  404MOL0     H54474   7.425   7.253  10.422 -1.5464 -0.5266  1.9357
  404MOL0     H54475   7.802   7.390  10.300  2.4723 -2.1104 -0.8026
  404MOL0     H54476   7.714   7.242  10.241  1.6564  0.5468  1.8484
  404MOL0     H54477   7.871   7.359  10.074  0.4660  0.3987  1.4210
  404MOL0     H54478   7.757   7.501  10.089 -4.0115 -0.0274 -1.6614
  404MOL0     H54479   7.577   7.339  10.006 -0.8431  1.5579 -0.5691
  404MOL0     H54480   7.715   7.239   9.934 -2.2772  0.7894 -1.4204
  404MOL0     H54481   7.785   7.449   9.834 -1.2488  0.0161  1.3091
  404MOL0     H54482   7.645   7.381   9.751 -0.5491 -0.0260 -0.6980
  404MOL0     H54483   7.495   7.536   9.859  0.0710 -2.0738  0.9108
  404MOL0     H54484   7.627   7.600   9.962 -1.9179  1.3990  0.1050
  404MOL0     H54485   7.740   7.662   9.752 -0.4084  1.0606  0.3520
  404MOL0     H54486   7.646   7.573   9.643  4.3574  0.1993 -0.4803
  404MOL0     H54487   7.511   7.795   9.818 -1.5888 -0.4331  0.0321
  404MOL0     H54488   7.459   7.717   9.668  0.7566 -2.6107  0.6260
  404MOL0     H54489   7.680   7.908   9.706  1.6275 -1.0000 -1.2054
  404MOL0     H54490   7.675   7.818   9.550 -1.9761 -1.5879 -0.4878
  404MOL0     H54491   7.537   7.956   9.371 -3.0714 -1.2711 -2.0099
  404MOL0     H54492   7.412   8.120   9.250 -0.2711  1.7247 -0.8141
  404MOL0     H54493   7.251   8.110   9.307  0.4171  1.0056 -2.0123
  404MOL0     H54494   7.344   8.345   9.442 -1.0574  0.9741 -0.4274
  404MOL0     H54495   7.473   8.326   9.330 -1.1450  1.3540 -3.6861
  404MOL0     H54496   7.298   8.467   9.224 -2.4852  0.0391  1.5551
  404MOL0     H54497   7.199   8.327   9.210 -1.1817 -0.3220 -0.3200
  404MOL0     H54498   7.327   8.367   9.006  0.0829  0.8415  0.5356
  404MOL0     H54499   7.343   8.208   9.067 -0.9801 -0.2319  1.3397
  404MOL0     H54500   7.530   8.573   9.173 -1.7303 -1.3077 -0.7721
  404MOL0     H54501   7.649   8.755   9.051 -1.9150 -0.4589  0.7176
  404MOL0     H54502   7.749   8.993   8.679 -0.3395 -0.0531  1.7773
  404MOL0     H54503   7.889   9.205   8.586 -0.9121 -1.3905 -1.3513
  404MOL0     H54504   8.278   9.307   8.556  0.7201 -3.2614 -3.1149
  404MOL0     H54505   8.230   9.148   8.601  1.4871  1.0276  3.7731
  404MOL0     H54506   8.177   9.253   8.362 -0.3401 -5.7896 -0.0461
  404MOL0     H54507   8.033   9.178   8.434  1.9263 -2.1978 -2.8163
  404MOL0     H54508   7.952   9.393   8.519  1.8156  2.1489  1.3487
  404MOL0     H54509   8.093   9.471   8.462 -0.1481  0.2074  3.1219
  404MOL0     H54510   7.896   9.314   8.282  2.6611 -1.3775 -2.1559
  404MOL0     H54511   8.021   9.400   8.215 -0.9346 -0.5430  0.2033
  404MOL0     H54512   7.828   9.531   8.192  0.2245 -3.4810 -1.1022
  404MOL0     H54513   7.915   9.610   8.336 -0.0688 -1.3901  2.2187
  404MOL0     H54514   7.681   9.423   8.336 -0.5850  0.5509 -0.0273
  404MOL0     H54515   7.742   9.521   8.481 -4.8250  4.6222  1.2513
  404MOL0     H54516   7.679   9.728   8.369  2.3759 -2.8656  2.0403
  404MOL0     H54517   7.539   9.626   8.423  1.1899 -1.7203  1.1056
  404MOL0     H54518   7.535   9.531   8.176  0.1295  0.4324 -3.0652
  404MOL0     H54519   7.456   9.680   8.215 -1.6861 -3.0950 -3.2656
  404MOL0     H54520   8.146   9.172   8.918 -0.8046  1.8701 -0.6845
  404MOL0     H54521   8.010   8.987   9.023  4.7349  0.2712 -0.7616
  404MOL0     H54522   7.836   8.483   8.798  0.9050  1.8306  2.3203
  404MOL0     H54523   7.689   8.299   8.887 -0.7554  0.8316 -1.8933
  404MOL0     H54524   7.704   7.595  10.434 -0.7696  3.3588  1.2653
  404MOL0     H54525   7.661   7.608  10.676  2.9835 -2.6898  1.1535
  404MOL0     H54526   7.335   7.345  10.956  0.0585  0.5208  0.4431
  404MOL0     H54527   7.225   7.356  11.173 -0.7085  1.8625 -0.8549
  404MOL0     H54528   7.230   7.282  11.539 -1.6915  1.3800  1.0398
  404MOL0     H54529   7.211   7.260  11.355 -0.6104  0.5808 -0.7090
  404MOL0     H54530   7.018   7.357  11.458 -1.4142  2.2248  2.5531
  404MOL0     H54531   7.104   7.475  11.358  0.1729 -1.9171 -0.4803
  404MOL0     H54532   7.212   7.554  11.600  0.6704 -3.5619  2.4665
  404MOL0     H54533   7.130   7.422  11.654  1.9253 -1.0980 -0.1517
  404MOL0     H54534   6.909   7.524  11.625  0.9208 -2.6745 -2.1008
  404MOL0     H54535   7.017   7.656  11.687  0.7408  0.9416 -1.0171
  404MOL0     H54536   6.944   7.803  11.300  1.8811 -0.3742  0.0737
  404MOL0     H54537   7.585   7.446  11.378  0.2447 -2.2101  0.6692
  404MOL0     H54538   7.800   7.369  11.130 -1.2222 -0.0539 -2.6193
  404MOL0     H54539   7.775   7.535  11.081 -2.4363  1.1797  0.2365
  404MOL0     H54540   7.791   7.502  11.252 -1.1854  1.0857 -0.3306
  405MOL0     O54541  10.094   1.543   9.081  0.0590 -1.0034  0.8474
  405MOL0     C54542  10.012   1.454   9.099 -0.6050 -0.1372  0.2673
  405MOL0     O54543   9.974   1.414   9.222 -0.7350  0.7549  0.1324
  405MOL0     C54544  10.048   1.462   9.333  0.7682  0.0397 -0.3677
  405MOL0     C54545  10.167   1.403   9.386  0.1983  0.4849  0.6700
  405MOL0     C54546  10.227   1.428   9.511 -0.3401  0.1103  0.4232
  405MOL0     C54547  10.168   1.530   9.584  0.8685 -0.2774 -0.1521
  405MOL0     O54548  10.215   1.545   9.710  0.7124  0.3671  1.3462
  405MOL0     C54549  10.253   1.677   9.745 -0.7594  0.7713 -0.1722
  405MOL0     C54550  10.288   1.675   9.897  0.2866  0.1245  0.7046
  405MOL0     C54551  10.302   1.828   9.941 -0.2236  0.0553 -0.3761
  405MOL0     C54552  10.447   1.869   9.956  0.1871  0.1943  0.6384
  405MOL0     C54553  10.462   1.984  10.049  0.2118  0.0146 -0.1683
  405MOL0     C54554  10.597   2.048  10.044  0.6362 -0.0237  0.0287
  405MOL0     C54555  10.663   2.052  10.181 -0.3191  0.0586 -0.4432
  405MOL0     C54556  10.793   2.139  10.180 -0.4364 -0.5528  1.1519
  405MOL0     N54557  10.868   2.152  10.309 -0.1090  0.5847 -0.0738
  405MOL0     C54558  10.964   2.056  10.357 -0.6057  0.7753  0.5025
  405MOL0     C54559  10.949   2.047  10.491 -1.0600 -0.7476 -0.1139
  405MOL0     C54560  11.008   1.944  10.579 -0.6929 -0.3919  0.0257
  405MOL0     C54561  11.003   1.970  10.725 -1.0181 -0.0765 -0.3695
  405MOL0     C54562  11.055   2.103  10.777 -0.7293 -0.1959  0.6120
  405MOL0     C54563  11.035   2.102  10.934 -0.3446  0.0346 -0.2253
  405MOL0     O54564  11.136   2.027  11.007 -0.9537  0.8016  0.2997
  405MOL0     C54565  11.253   2.093  11.042  0.1925 -0.5661 -0.0289
  405MOL0     C54566  11.289   2.223  11.004  0.4141 -0.1387  0.5050
  405MOL0     C54567  11.415   2.278  11.039  0.8736  0.5979  0.4444
  405MOL0     C54568  11.504   2.196  11.104 -1.1080 -0.3530 -0.4844
  405MOL0     C54569  11.644   2.237  11.138  0.5673 -0.1216  0.4354
  405MOL0     O54570  11.737   2.138  11.142  0.5205  0.3943  0.3717
  405MOL0     C54571  11.861   2.171  11.186  0.0203 -0.1313 -0.2435
  405MOL0     C54572  11.924   2.281  11.128  0.4058 -0.1713  0.3284
  405MOL0     C54573  12.053   2.312  11.174 -0.1268  0.5430  0.0753
  405MOL0     C54574  12.117   2.247  11.273  0.3323 -0.3987  1.1923
  405MOL0     O54575  12.242   2.291  11.311  0.1489  0.3726  0.3410
  405MOL0     C54576  12.348   2.212  11.250 -0.0433 -0.3476 -0.2732
  405MOL0     C54577  12.445   2.286  11.150 -0.0285 -0.0617 -0.8271
  405MOL0     C54578  12.552   2.388  11.208 -0.8385 -0.6937  0.3162
  405MOL0     C54579  12.481   2.487  11.295 -0.9574 -0.5098 -0.5135
  405MOL0     C54580  12.566   2.607  11.333  0.0007 -0.0595  0.1224
  405MOL0     C54581  12.690   2.569  11.401 -0.1516  0.5152 -0.4667
  405MOL0     C54582  12.769   2.695  11.431 -1.1656  0.1644  0.2513
  405MOL0     C54583  12.931   2.674  11.412  0.3007  0.4269 -0.1246
  405MOL0    Cl54584  13.004   2.819  11.482 -0.6035 -0.1745  0.0791
  405MOL0     C54585  12.061   2.127  11.318 -0.1960 -0.6957 -0.3820
  405MOL0     C54586  11.933   2.095  11.274 -0.0369 -0.2726  0.0518
  405MOL0     O54587  11.656   2.357  11.150 -0.6589 -0.0221 -0.7669
  405MOL0     C54588  11.470   2.069  11.149 -0.3523 -0.7804 -0.3534
  405MOL0     C54589  11.342   2.023  11.122 -0.0805 -0.3823 -0.5619
  405MOL0     N54590  10.867   2.151  10.533 -0.4968 -0.0257 -0.6785
  405MOL0     N54591  10.817   2.213  10.422  0.0148  0.4727  0.3333
  405MOL0     C54592  10.066   1.612   9.528  0.5929 -0.7192  0.8571
  405MOL0     C54593   9.997   1.570   9.408 -0.1804 -0.2050  0.1712
  405MOL0     C54594   9.953   1.396   8.978  0.0042 -0.3777 -1.1305
  405MOL0     C54595   9.893   1.472   8.881 -0.3185 -0.6615 -0.2072
  405MOL0     C54596   9.824   1.410   8.768 -0.1045  0.4186  0.1280
  405MOL0     C54597   9.796   1.267   8.774 -0.2272 -0.1010 -0.0330
  405MOL0     O54598   9.704   1.186   8.700 -1.0585  0.0236  0.6440
  405MOL0     C54599   9.599   1.246   8.626 -0.4824 -0.9566 -1.0404
  405MOL0     C54600   9.543   1.131   8.530  0.6103 -0.5779  0.4985
  405MOL0     C54601   9.415   1.150   8.460 -0.0102  0.0217  0.4796
  405MOL0     C54602   9.305   1.169   8.554  0.8551 -0.0946 -0.4557
  405MOL0     C54603   9.286   1.304   8.604  0.4956  0.1951 -0.4663
  405MOL0     C54604   9.278   1.418   8.645 -0.2506  0.0108 -0.4141
  405MOL0     C54605   9.867   1.193   8.870  1.1059 -0.4023 -0.2418
  405MOL0     C54606   9.932   1.252   8.978  0.2937  0.0712  0.1470
  405MOL0     C54607   9.986   1.152   9.083  0.1529 -0.3135  0.2469
  405MOL0     H54608  10.218   1.328   9.327 -0.5794  1.4952 -1.3731
  405MOL0     H54609  10.308   1.371   9.555  0.5116  0.1156 -1.0728
  405MOL0     H54610  10.340   1.713   9.691 -0.5256  1.4046  0.6040
  405MOL0     H54611  10.172   1.751   9.741 -0.3152  1.1978 -2.2335
  405MOL0     H54612  10.382   1.627   9.922  0.4661 -0.3426 -0.8053
  405MOL0     H54613  10.204   1.639   9.957 -0.8171 -1.1610 -1.5138
  405MOL0     H54614  10.252   1.835  10.039 -3.0960 -0.6929 -1.6736
  405MOL0     H54615  10.242   1.884   9.869  1.5805 -1.3283 -3.1184
  405MOL0     H54616  10.517   1.792   9.991  2.0933  0.7270 -1.6747
  405MOL0     H54617  10.488   1.900   9.860 -2.0539  1.4150  0.0212
  405MOL0     H54618  10.388   2.063  10.032  0.5851  0.0061 -2.0308
  405MOL0     H54619  10.448   1.928  10.142 -2.4539 -1.5255 -1.3732
  405MOL0     H54620  10.664   1.989   9.980  0.7593 -0.5259  0.6157
  405MOL0     H54621  10.586   2.151  10.007  1.5183 -0.0312 -0.2833
  405MOL0     H54622  10.670   1.953  10.227 -2.1046 -0.3060 -0.8744
  405MOL0     H54623  10.586   2.105  10.239 -1.9933 -1.3756 -1.2398
  405MOL0     H54624  10.860   2.114  10.097 -0.6610  0.4457  0.6464
  405MOL0     H54625  10.752   2.239  10.166 -0.3667 -0.6948 -0.2228
  405MOL0     H54626  11.012   1.987  10.288 -0.9945 -0.5501  1.5324
  405MOL0     H54627  10.970   1.841  10.574 -2.3700  0.1258  1.0405
  405MOL0     H54628  11.113   1.937  10.550 -0.3220  1.8365  0.6595
  405MOL0     H54629  10.898   1.964  10.757 -1.0933 -1.5299 -0.8063
  405MOL0     H54630  11.068   1.894  10.769  2.4450  3.5003  1.3657
  405MOL0     H54631  11.004   2.191  10.736  1.6067 -0.2258 -2.8020
  405MOL0     H54632  11.163   2.100  10.759 -0.8551  0.2285 -0.2903
  405MOL0     H54633  10.938   2.062  10.963  0.1829 -1.5122 -0.4746
  405MOL0     H54634  11.033   2.205  10.971 -0.1207  0.4019 -1.1948
  405MOL0     H54635  11.222   2.269  10.932 -0.6503 -2.6024 -0.1945
  405MOL0     H54636  11.448   2.376  11.005  3.3588  0.0364  1.0576
  405MOL0     H54637  11.875   2.339  11.051  0.4229  0.7211  0.9725
  405MOL0     H54638  12.101   2.392  11.118  0.9751  0.1390  0.4195
  405MOL0     H54639  12.409   2.167  11.329  1.7176 -1.9151 -2.3801
  405MOL0     H54640  12.306   2.122  11.204  0.2911 -0.4182 -0.4474
  405MOL0     H54641  12.499   2.202  11.105 -0.8594 -2.0722  1.6794
  405MOL0     H54642  12.372   2.334  11.084 -2.0914  0.2849  1.5560
  405MOL0     H54643  12.633   2.332  11.258 -0.5883 -2.0256 -1.4764
  405MOL0     H54644  12.601   2.445  11.129  1.1944 -0.0517  1.9320
  405MOL0     H54645  12.451   2.431  11.384  2.5792  0.8779  1.7303
  405MOL0     H54646  12.392   2.520  11.240  0.0413  2.4035 -0.5647
  405MOL0     H54647  12.512   2.674  11.401 -1.0986 -0.6156 -0.1606
  405MOL0     H54648  12.592   2.647  11.235  1.1320  1.4356  0.9911
  405MOL0     H54649  12.669   2.535  11.503 -0.7314 -0.0908 -0.7836
  405MOL0     H54650  12.757   2.502  11.347  1.3299  2.6440 -1.4366
  405MOL0     H54651  12.751   2.736  11.531  1.5814  0.0158  0.8752
  405MOL0     H54652  12.741   2.768  11.355 -1.2439 -0.6375 -0.5029
  405MOL0     H54653  12.969   2.593  11.474 -0.2568 -1.3560 -1.9927
  405MOL0     H54654  12.968   2.646  11.313 -0.0638 -0.7886  0.0641
  405MOL0     H54655  12.103   2.057  11.389  1.7951 -2.9761 -3.5605
  405MOL0     H54656  11.881   2.002  11.297 -0.9941  0.2678  0.1333
  405MOL0     H54657  11.548   2.018  11.203 -0.2665  0.8405  1.1579
  405MOL0     H54658  11.294   1.945  11.181 -3.3938  2.5669  0.9621
  405MOL0     H54659  10.011   1.685   9.586  0.1654  0.4693 -0.9630
  405MOL0     H54660   9.906   1.616   9.369 -0.9688 -2.6989 -1.1234
  405MOL0     H54661   9.889   1.580   8.887 -3.4356 -0.7321  0.5524
  405MOL0     H54662   9.763   1.462   8.694 -2.7123 -1.1406  1.0617
  405MOL0     H54663   9.630   1.327   8.560 -2.4223  1.4865  0.8694
  405MOL0     H54664   9.524   1.289   8.693  1.8229  0.5447  0.7435
  405MOL0     H54665   9.537   1.041   8.591  1.6157  0.4573  2.1902
  405MOL0     H54666   9.610   1.111   8.446 -0.1426 -1.1109  0.0101
  405MOL0     H54667   9.389   1.068   8.392 -0.8085  0.1321  0.6444
  405MOL0     H54668   9.409   1.238   8.395  1.0336  1.0155  1.6832
  405MOL0     H54669   9.213   1.135   8.505 -0.7169  0.8588  1.6724
  405MOL0     H54670   9.321   1.102   8.639  1.8424 -0.4177 -0.8759
  405MOL0     H54671   9.259   1.518   8.679 -1.4814 -0.2029 -0.4440
  405MOL0     H54672   9.862   1.085   8.869  3.6637 -0.6150  0.9960
  405MOL0     H54673   9.912   1.132   9.161 -0.9179 -0.1612 -0.7148
  405MOL0     H54674  10.004   1.058   9.030  1.2315  1.1636 -2.1343
  405MOL0     H54675  10.073   1.183   9.142  1.2132  1.2334 -1.9739
  406MOL0     O54676   5.629   2.909   1.800  0.2129  0.1988 -0.4945
  406MOL0     C54677   5.626   2.970   1.907  0.6800  0.9440 -0.8362
  406MOL0     O54678   5.620   2.910   2.028  0.4363 -0.7272 -0.1509
  406MOL0     C54679   5.647   2.777   2.038  0.2249 -0.5832 -0.7264
  406MOL0     C54680   5.566   2.666   2.011 -0.1823  0.3276 -0.0606
  406MOL0     C54681   5.616   2.531   2.049  0.7925 -0.3780 -0.8193
  406MOL0     C54682   5.734   2.508   2.122 -0.4969  0.2206 -0.1518
  406MOL0     O54683   5.767   2.381   2.143 -0.2792  0.9294  0.5850
  406MOL0     C54684   5.864   2.348   2.243  0.9624  0.0947 -0.2267
  406MOL0     C54685   5.820   2.380   2.382  0.0675 -0.0685  1.0708
  406MOL0     C54686   5.944   2.385   2.470 -0.5171 -0.3926 -0.2236
  406MOL0     C54687   5.903   2.382   2.617  0.3901  0.2259  1.1325
  406MOL0     C54688   6.020   2.379   2.712 -0.5797  0.0372 -0.0942
  406MOL0     C54689   6.081   2.516   2.736 -0.7498  0.4946  0.1398
  406MOL0     C54690   6.219   2.499   2.802 -0.0776  1.0823  0.3680
  406MOL0     C54691   6.265   2.641   2.838  0.5801 -0.1856  0.4000
  406MOL0     N54692   6.405   2.630   2.854 -0.1039  0.5654 -0.1785
  406MOL0     C54693   6.481   2.596   2.968 -0.6127  0.2585 -0.1856
  406MOL0     C54694   6.608   2.579   2.925 -0.7060 -0.1497 -0.4307
  406MOL0     C54695   6.720   2.546   3.020  0.0946  0.1187 -0.3761
  406MOL0     C54696   6.757   2.394   2.998  1.0203 -0.2027  0.7145
  406MOL0     C54697   6.877   2.343   3.080  0.6618 -0.8257  0.2127
  406MOL0     C54698   7.001   2.424   3.058 -1.4188 -0.1436  0.1588
  406MOL0     O54699   7.104   2.369   3.128  0.0485  0.0738 -0.3993
  406MOL0     C54700   7.238   2.394   3.099  0.1592 -0.5494  0.1292
  406MOL0     C54701   7.322   2.317   3.171  0.7421  0.3526 -1.5593
  406MOL0     C54702   7.460   2.331   3.145  0.7265  0.1011  0.1257
  406MOL0     C54703   7.508   2.415   3.049  0.1255 -0.3609  1.0547
  406MOL0     C54704   7.650   2.439   3.025  0.9944 -1.2745 -0.0844
  406MOL0     O54705   7.724   2.377   3.121 -0.0179 -0.2377 -0.3483
  406MOL0     C54706   7.858   2.347   3.098  0.1872  0.6548  0.4767
  406MOL0     C54707   7.895   2.272   2.985 -0.3512  0.9706 -0.4463
  406MOL0     C54708   8.029   2.234   2.966 -0.4452 -0.2795 -0.3981
  406MOL0     C54709   8.127   2.265   3.055 -0.3003  0.6109  0.2403
  406MOL0     O54710   8.254   2.228   3.014 -0.9929  0.5120  0.4278
  406MOL0     C54711   8.366   2.285   3.093 -0.7900 -0.8529 -0.2403
  406MOL0     C54712   8.498   2.215   3.045  0.3525 -0.4050 -0.9341
  406MOL0     C54713   8.526   2.248   2.897 -0.5802 -0.3716 -0.1267
  406MOL0     C54714   8.651   2.166   2.874 -0.5297  0.0391  0.4143
  406MOL0     C54715   8.678   2.154   2.728 -0.3544 -0.0828  1.1178
  406MOL0     C54716   8.819   2.103   2.712  0.0117  0.5410 -0.9820
  406MOL0     C54717   8.855   2.052   2.569  0.7518  0.2181 -0.0503
  406MOL0     C54718   8.972   1.958   2.572 -0.3394  0.5035  0.1543
  406MOL0    Cl54719   9.122   2.059   2.589  0.1815  0.0706 -0.1494
  406MOL0     C54720   8.094   2.343   3.171 -0.0706  0.8259 -0.1091
  406MOL0     C54721   7.957   2.385   3.192  0.2376 -0.6757 -1.0311
  406MOL0     O54722   7.696   2.509   2.933  0.0002 -0.4064 -0.5903
  406MOL0     C54723   7.418   2.488   2.972  0.6653  0.5489  0.6124
  406MOL0     C54724   7.278   2.483   3.003  0.1713 -0.7014 -0.3779
  406MOL0     N54725   6.613   2.595   2.791 -0.2590  0.2338  0.4671
  406MOL0     N54726   6.496   2.619   2.750  0.5053 -0.1112  0.3476
  406MOL0     C54727   5.806   2.619   2.156  0.9168 -1.0874 -0.5634
  406MOL0     C54728   5.760   2.758   2.126  0.0974  0.2178 -0.0468
  406MOL0     C54729   5.606   3.121   1.905  0.5946  0.3306 -0.6544
  406MOL0     C54730   5.574   3.187   2.025 -0.5151 -0.1456 -0.0434
  406MOL0     C54731   5.541   3.331   2.025 -0.2499  0.8013 -0.1087
  406MOL0     C54732   5.534   3.401   1.906 -0.0173  0.1340 -0.4113
  406MOL0     O54733   5.520   3.536   1.911 -0.8211  0.0819 -0.3234
  406MOL0     C54734   5.400   3.589   1.853  1.1344  1.3474  0.4372
  406MOL0     C54735   5.285   3.610   1.951  0.2630 -0.0517 -0.4146
  406MOL0     C54736   5.175   3.653   1.865  0.9193  0.8381  0.2090
  406MOL0     C54737   5.035   3.637   1.942 -0.4578 -0.3779  0.3047
  406MOL0     C54738   5.028   3.717   2.068  0.0464  0.6277  0.3684
  406MOL0     C54739   5.020   3.776   2.166 -0.0685  1.0237 -1.4460
  406MOL0     C54740   5.560   3.336   1.788  0.7757 -0.0276  0.2178
  406MOL0     C54741   5.589   3.197   1.791 -0.2669 -0.8914  1.7932
  406MOL0     C54742   5.624   3.143   1.651 -0.0291 -0.2566 -0.2466
  406MOL0     H54743   5.471   2.686   1.964 -0.5425  2.8176  1.5607
  406MOL0     H54744   5.553   2.450   2.014  0.5916 -2.0100  2.8741
  406MOL0     H54745   5.872   2.241   2.225 -4.1041 -0.9010  1.6896
  406MOL0     H54746   5.958   2.402   2.230  0.6970  1.0479  1.5022
  406MOL0     H54747   5.743   2.310   2.417 -0.7642  0.6934  0.8098
  406MOL0     H54748   5.778   2.481   2.381 -0.5490 -0.3192  0.6790
  406MOL0     H54749   5.996   2.481   2.465 -3.0101  1.3384  2.9784
  406MOL0     H54750   6.022   2.311   2.451  1.7577  2.1684 -1.5899
  406MOL0     H54751   5.838   2.469   2.631 -1.4565 -0.8454 -0.3908
  406MOL0     H54752   5.855   2.285   2.632 -1.1683 -0.2082 -4.5976
  406MOL0     H54753   5.969   2.345   2.802 -0.3870 -1.5452 -0.5552
  406MOL0     H54754   6.087   2.298   2.682 -1.5767 -0.1438 -2.0041
  406MOL0     H54755   6.089   2.570   2.641  2.4731  0.3301  0.1847
  406MOL0     H54756   6.009   2.559   2.806  0.5099  0.9598  1.2012
  406MOL0     H54757   6.282   2.442   2.732 -1.5492 -0.7345  0.4342
  406MOL0     H54758   6.216   2.436   2.891  1.7816  0.0683 -0.2317
  406MOL0     H54759   6.237   2.698   2.749  0.8977 -0.0417  0.3914
  406MOL0     H54760   6.219   2.688   2.926  0.1134 -0.7546  0.4654
  406MOL0     H54761   6.432   2.575   3.062 -1.1050 -1.0898 -0.7309
  406MOL0     H54762   6.796   2.621   2.995 -0.5772  0.0085 -2.9537
  406MOL0     H54763   6.680   2.558   3.121  0.6645 -0.2179 -0.1035
  406MOL0     H54764   6.671   2.333   3.029 -0.0421  1.0566  0.3509
  406MOL0     H54765   6.769   2.371   2.892 -1.1745 -1.2618  0.6232
  406MOL0     H54766   6.879   2.236   3.060 -2.5753 -1.5993  3.0696
  406MOL0     H54767   6.837   2.354   3.182  0.7840  0.4226  0.1485
  406MOL0     H54768   6.991   2.528   3.090  0.0346 -0.5952  2.2899
  406MOL0     H54769   7.011   2.420   2.949  0.5410  0.2975  0.2777
  406MOL0     H54770   7.291   2.244   3.245  0.4733  2.7717  0.9172
  406MOL0     H54771   7.518   2.266   3.209 -3.4980 -0.8202  3.5018
  406MOL0     H54772   7.823   2.214   2.928 -2.3083  0.7203  2.1055
  406MOL0     H54773   8.059   2.170   2.884  1.8156 -0.8595  0.7954
  406MOL0     H54774   8.371   2.394   3.085  0.7267 -1.0242 -2.8818
  406MOL0     H54775   8.364   2.247   3.196 -3.5049 -0.1147  0.0489
  406MOL0     H54776   8.581   2.235   3.114 -0.6532 -2.7093  1.1077
  406MOL0     H54777   8.483   2.107   3.054 -0.1060 -0.6437 -3.7597
  406MOL0     H54778   8.448   2.208   2.832  3.1562 -2.2382 -3.9889
  406MOL0     H54779   8.551   2.355   2.894 -2.4475  0.1605  1.4126
  406MOL0     H54780   8.626   2.067   2.912 -0.5223  1.0785  3.3657
  406MOL0     H54781   8.742   2.196   2.927  0.0662  0.0025 -0.5777
  406MOL0     H54782   8.670   2.252   2.679 -0.0987  0.5935  2.3863
  406MOL0     H54783   8.616   2.084   2.672  2.3024 -1.9521  0.3358
  406MOL0     H54784   8.895   2.178   2.736 -1.1768  1.5386 -0.2579
  406MOL0     H54785   8.834   2.021   2.783 -0.0715  2.7552  1.7580
  406MOL0     H54786   8.886   2.138   2.509  1.3558 -0.5184 -0.8054
  406MOL0     H54787   8.766   2.003   2.528  0.4426 -1.3134  2.2685
  406MOL0     H54788   8.966   1.900   2.665 -1.9554  1.9336  1.0131
  406MOL0     H54789   8.980   1.889   2.488  0.0402 -1.8812  2.0184
  406MOL0     H54790   8.166   2.368   3.248  0.4199 -1.1166  0.1066
  406MOL0     H54791   7.935   2.423   3.291 -0.5790  2.9417 -2.4416
  406MOL0     H54792   7.453   2.545   2.886 -0.2123 -0.0307 -0.1517
  406MOL0     H54793   7.205   2.542   2.949  2.1290  2.5443  0.2226
  406MOL0     H54794   5.898   2.611   2.212  0.4929  0.2882  0.3694
  406MOL0     H54795   5.819   2.847   2.148  1.4555 -0.8909  1.0267
  406MOL0     H54796   5.569   3.139   2.123  0.9391 -2.1970 -0.9027
  406MOL0     H54797   5.518   3.370   2.124  0.2344 -3.6069  1.9534
  406MOL0     H54798   5.384   3.525   1.766  3.0730 -0.1566  1.0973
  406MOL0     H54799   5.417   3.688   1.809  1.7829  0.6431 -0.9424
  406MOL0     H54800   5.309   3.689   2.022  3.7070  1.1459 -2.6556
  406MOL0     H54801   5.261   3.523   2.014  1.4741  1.7814  2.8054
  406MOL0     H54802   5.177   3.597   1.772 -1.1951  0.4799  0.3288
  406MOL0     H54803   5.185   3.760   1.845  0.5734  0.5694 -1.5929
  406MOL0     H54804   4.965   3.686   1.873  0.1858 -1.8236 -1.4421
  406MOL0     H54805   5.013   3.530   1.953 -1.3560 -0.4553 -1.7212
  406MOL0     H54806   5.015   3.830   2.259  2.2607  1.2934 -1.4293
  406MOL0     H54807   5.555   3.397   1.699  1.4386  2.2206  1.6168
  406MOL0     H54808   5.568   3.060   1.607 -2.4783  1.4835 -0.6605
  406MOL0     H54809   5.613   3.215   1.569 -1.3169  1.8701  1.6784
  406MOL0     H54810   5.725   3.112   1.678 -0.4525  0.3676  2.2942
  407MOL0     O54811   9.035  11.508   9.484  0.6454  0.1110 -0.7313
  407MOL0     C54812   9.051  11.577   9.579  1.0204 -0.4920 -0.2858
  407MOL0     O54813   9.128  11.689   9.578 -0.2615 -0.2420 -0.5721
  407MOL0     C54814   9.225  11.713   9.472 -0.6400 -0.0457 -0.4990
  407MOL0     C54815   9.316  11.617   9.406  0.0620  0.4130 -1.2910
  407MOL0     C54816   9.410  11.666   9.305  0.2839 -0.8406 -0.2610
  407MOL0     C54817   9.414  11.795   9.272 -0.3138 -0.6844 -0.5938
  407MOL0     O54818   9.515  11.841   9.197  0.1898  0.5923  0.0216
  407MOL0     C54819   9.563  11.785   9.085 -0.2765  0.3265  0.6426
  407MOL0     C54820   9.455  11.781   8.967  0.1490  0.2007 -0.8233
  407MOL0     C54821   9.423  11.921   8.940 -0.0497 -0.5705  0.4668
  407MOL0     C54822   9.356  11.930   8.799 -0.1530 -0.9669 -0.1432
  407MOL0     C54823   9.204  11.906   8.798  0.1911  0.0131 -0.4586
  407MOL0     C54824   9.132  11.950   8.673 -0.1605 -0.1511 -0.1719
  407MOL0     C54825   8.986  11.982   8.712 -0.4734 -0.5887  0.5401
  407MOL0     C54826   8.890  11.854   8.702  0.5184  0.3090 -0.2587
  407MOL0     N54827   8.756  11.893   8.743  0.9459  0.0698 -0.1701
  407MOL0     C54828   8.649  11.825   8.709  0.6511  1.0630 -0.0909
  407MOL0     C54829   8.547  11.881   8.783 -0.0988  0.5869  0.0195
  407MOL0     C54830   8.400  11.837   8.780 -0.8293  0.2761  0.9678
  407MOL0     C54831   8.317  11.949   8.715 -0.3216  0.6936  0.3087
  407MOL0     C54832   8.319  11.974   8.566  0.1370 -0.5687  0.5185
  407MOL0     C54833   8.316  11.851   8.472 -0.5238  0.5811  0.1302
  407MOL0     O54834   8.212  11.770   8.518 -0.6460  0.2833 -0.4274
  407MOL0     C54835   8.229  11.637   8.488  0.0987  0.1579 -0.4357
  407MOL0     C54836   8.217  11.539   8.587  0.5053 -0.2434  0.2798
  407MOL0     C54837   8.218  11.405   8.547  0.4792  0.7750 -0.1645
  407MOL0     C54838   8.218  11.364   8.416  0.2284  0.3722  0.0701
  407MOL0     C54839   8.212  11.228   8.369  0.1418 -0.2722 -0.7854
  407MOL0     O54840   8.253  11.128   8.452  0.3058  0.6965 -0.3431
  407MOL0     C54841   8.241  11.001   8.405  0.9592  0.3370  0.3627
  407MOL0     C54842   8.319  10.954   8.295  0.2916 -0.1289  0.4803
  407MOL0     C54843   8.293  10.831   8.234  0.0575 -1.2425 -0.0552
  407MOL0     C54844   8.190  10.754   8.270 -0.5934  0.1239 -0.6694
  407MOL0     O54845   8.159  10.635   8.207  0.4437  0.2588  0.1125
  407MOL0     C54846   8.251  10.527   8.191  0.5890 -0.5818  0.8036
  407MOL0     C54847   8.317  10.525   8.055  0.6730  0.6389 -0.1107
  407MOL0     C54848   8.280  10.403   7.969  0.8676 -0.1328 -0.0045
  407MOL0     C54849   8.308  10.421   7.822 -0.6950  0.0271  1.3312
  407MOL0     C54850   8.302  10.288   7.750  0.5656  0.7545  0.5468
  407MOL0     C54851   8.187  10.192   7.784 -0.2735  0.2067  0.4972
  407MOL0     C54852   8.159  10.069   7.690 -0.0901  1.6695 -0.5743
  407MOL0     C54853   8.087  10.109   7.571  0.3851  0.2789  0.0320
  407MOL0    Cl54854   8.180  10.204   7.447  0.5599 -0.7294 -0.0309
  407MOL0     C54855   8.101  10.799   8.373 -0.5441  0.0373 -0.0670
  407MOL0     C54856   8.138  10.925   8.438  0.5057  0.5808  0.2676
  407MOL0     O54857   8.167  11.218   8.257  0.2801  0.0014 -0.0053
  407MOL0     C54858   8.219  11.464   8.314 -1.1263  0.4889 -0.5506
  407MOL0     C54859   8.219  11.602   8.351  0.0425 -0.4418 -0.3083
  407MOL0     N54860   8.592  11.994   8.843 -0.1761 -0.5003  0.4496
  407MOL0     N54861   8.717  12.001   8.819 -0.4644 -0.2658 -0.1910
  407MOL0     C54862   9.331  11.885   9.333  0.4270  0.4745 -0.0275
  407MOL0     C54863   9.233  11.848   9.427  0.6538 -0.5029  0.9095
  407MOL0     C54864   8.958  11.569   9.701  1.6788  0.9212 -0.0948
  407MOL0     C54865   8.947  11.684   9.786  0.2851  0.5564 -0.2659
  407MOL0     C54866   8.862  11.701   9.894  0.2647 -0.2949 -0.5509
  407MOL0     C54867   8.771  11.606   9.918  0.4139  0.1736 -0.1374
  407MOL0     O54868   8.664  11.614  10.007 -0.3125  0.6298  0.3551
  407MOL0     C54869   8.535  11.567   9.980  0.2619  0.4005  0.6993
  407MOL0     C54870   8.436  11.675  10.015  0.2884  0.5948  0.9470
  407MOL0     C54871   8.436  11.772   9.896 -0.1279  0.7554 -0.0449
  407MOL0     C54872   8.549  11.883   9.902  0.0182 -0.4593 -1.0614
  407MOL0     C54873   8.583  11.944  10.032 -0.3177  0.1897  0.0020
  407MOL0     C54874   8.600  11.991  10.144 -0.3483 -0.7304 -0.8513
  407MOL0     C54875   8.777  11.497   9.830  1.0242  0.1710  0.9220
  407MOL0     C54876   8.861  11.462   9.728  0.2337 -0.2099  0.2871
  407MOL0     C54877   8.855  11.339   9.641 -0.6081 -0.0940  0.7096
  407MOL0     H54878   9.308  11.512   9.430  0.0531  0.7368  0.2403
  407MOL0     H54879   9.486  11.605   9.257  1.1433  0.1123 -0.1394
  407MOL0     H54880   9.656  11.834   9.054 -0.4466  1.1082  1.3196
  407MOL0     H54881   9.602  11.685   9.109  1.3222  0.3014 -1.8104
  407MOL0     H54882   9.367  11.721   8.994 -1.2656  1.6368 -2.0306
  407MOL0     H54883   9.507  11.726   8.888 -0.9161 -5.0443  1.6603
  407MOL0     H54884   9.503  11.996   8.948 -1.3694  1.2542 -2.2314
  407MOL0     H54885   9.354  11.943   9.022 -0.0609  1.1386  0.0489
  407MOL0     H54886   9.377  12.026   8.751 -0.4710 -2.3383 -3.3153
  407MOL0     H54887   9.410  11.864   8.730  2.5829  1.2298 -0.2694
  407MOL0     H54888   9.203  11.797   8.805  3.8149 -0.0722  0.8940
  407MOL0     H54889   9.150  11.945   8.884  1.1808 -1.5149  0.9039
  407MOL0     H54890   9.179  12.036   8.625 -3.2394  1.8167  0.0382
  407MOL0     H54891   9.131  11.868   8.601 -1.5381 -1.8713  1.6690
  407MOL0     H54892   8.948  12.055   8.639  1.0201  0.5345  0.8342
  407MOL0     H54893   8.981  12.033   8.808 -0.5054 -0.0506  0.2565
  407MOL0     H54894   8.895  11.838   8.594  0.3464  4.0385 -0.9231
  407MOL0     H54895   8.919  11.765   8.760 -0.3368 -0.3251 -0.7813
  407MOL0     H54896   8.645  11.729   8.660  1.3315  0.8956  0.1706
  407MOL0     H54897   8.383  11.749   8.717 -3.1940  2.5000 -1.8126
  407MOL0     H54898   8.373  11.818   8.884 -1.4031  0.8593  0.9314
  407MOL0     H54899   8.213  11.922   8.737 -0.8135  2.6478  0.5226
  407MOL0     H54900   8.339  12.045   8.761 -0.8445  2.3953 -2.6830
  407MOL0     H54901   8.401  12.043   8.544 -1.0409  1.8040  2.9742
  407MOL0     H54902   8.236  12.025   8.517  1.0924 -2.5166 -3.5789
  407MOL0     H54903   8.413  11.801   8.469 -0.4990  0.6316 -2.2857
  407MOL0     H54904   8.305  11.878   8.366 -4.4795 -0.8836 -0.0063
  407MOL0     H54905   8.205  11.581   8.686 -0.5977  1.0145 -0.3595
  407MOL0     H54906   8.220  11.327   8.624 -0.7873 -1.5526 -2.3291
  407MOL0     H54907   8.402  11.014   8.260  4.1800 -3.8352  2.3724
  407MOL0     H54908   8.354  10.788   8.155  0.1097 -0.8376 -0.2391
  407MOL0     H54909   8.338  10.540   8.256  1.7986  2.4999 -1.1995
  407MOL0     H54910   8.212  10.431   8.226  1.0774 -0.3883  1.9266
  407MOL0     H54911   8.300  10.614   7.994  1.2298 -0.1926 -1.5449
  407MOL0     H54912   8.426  10.513   8.061  0.6005 -0.7442 -1.0142
  407MOL0     H54913   8.329  10.315   8.013 -1.3127 -0.9774  0.8917
  407MOL0     H54914   8.171  10.392   7.982  0.8319 -1.8230 -1.3869
  407MOL0     H54915   8.410  10.459   7.812 -0.0621 -1.9347 -0.6624
  407MOL0     H54916   8.229  10.487   7.787  0.1445  2.1438  3.1874
  407MOL0     H54917   8.390  10.224   7.763  1.8856  2.3579 -0.0353
  407MOL0     H54918   8.291  10.320   7.645 -4.6898  0.4048  0.7398
  407MOL0     H54919   8.202  10.159   7.887 -2.1204 -2.7805 -0.0647
  407MOL0     H54920   8.097  10.255   7.788  0.9286  1.9703  0.8411
  407MOL0     H54921   8.093  10.007   7.751  0.7930 -0.2099 -1.4392
  407MOL0     H54922   8.247  10.006   7.677 -1.9839 -0.8688 -2.0125
  407MOL0     H54923   8.046  10.017   7.527 -1.0835  1.3603 -0.9574
  407MOL0     H54924   7.995  10.165   7.591 -0.8481 -1.0881 -1.4426
  407MOL0     H54925   8.010  10.741   8.386 -1.1341  0.4419 -2.0968
  407MOL0     H54926   8.068  10.977   8.503 -2.1400  2.3629 -3.5837
  407MOL0     H54927   8.225  11.434   8.210  2.3433  0.2338 -0.3938
  407MOL0     H54928   8.213  11.681   8.277  1.2118  0.2239  0.2830
  407MOL0     H54929   9.326  11.991   9.310 -0.2553  0.4208 -0.1436
  407MOL0     H54930   9.154  11.908   9.470 -0.5053 -0.1485 -1.5235
  407MOL0     H54931   9.015  11.767   9.773  0.7473  0.3149  0.5092
  407MOL0     H54932   8.869  11.782   9.966  0.6746 -1.8173  1.1943
  407MOL0     H54933   8.509  11.486  10.049 -1.9873 -1.0705 -1.6905
  407MOL0     H54934   8.516  11.526   9.880 -0.1227 -1.4701  1.4977
  407MOL0     H54935   8.455  11.719  10.113  2.9642  2.3198 -0.2191
  407MOL0     H54936   8.342  11.620  10.011  1.5549 -1.6772 -2.4473
  407MOL0     H54937   8.340  11.824   9.895  0.0647  1.2175  1.6419
  407MOL0     H54938   8.444  11.725   9.798 -0.7097  0.9470 -0.1890
  407MOL0     H54939   8.644  11.842   9.864  0.8542 -0.2985  0.7511
  407MOL0     H54940   8.518  11.971   9.845  2.4875  2.2379  1.4248
  407MOL0     H54941   8.610  12.029  10.244 -2.3128  2.4405 -1.7252
  407MOL0     H54942   8.705  11.422   9.860  2.2935 -1.1376  0.7832
  407MOL0     H54943   8.798  11.361   9.550 -1.0125 -0.9631  0.7515
  407MOL0     H54944   8.955  11.297   9.626 -0.2619  0.6140  0.9664
  407MOL0     H54945   8.795  11.266   9.695  1.0592 -0.2081  2.5379
  408MOL0     O54946   4.334   4.316   0.625  0.6724 -0.9517 -0.4442
  408MOL0     C54947   4.233   4.317   0.543 -0.5371 -0.4616 -0.8369
  408MOL0     O54948   4.208   4.229   0.444  0.9615  0.0291 -0.2054
  408MOL0     C54949   4.279   4.121   0.409 -0.6699 -0.0107 -0.2194
  408MOL0     C54950   4.382   4.059   0.486  0.1039 -0.2117  0.0038
  408MOL0     C54951   4.458   3.949   0.441  0.1488  0.3942  0.5281
  408MOL0     C54952   4.428   3.900   0.308 -0.4296 -0.3502 -0.6510
  408MOL0     O54953   4.497   3.805   0.243  0.1977 -0.1666  0.3661
  408MOL0     C54954   4.628   3.764   0.269 -0.6570  0.4952  0.2646
  408MOL0     C54955   4.647   3.615   0.315 -0.0690 -0.5537 -0.2398
  408MOL0     C54956   4.624   3.513   0.193  0.9309  0.0802  0.1743
  408MOL0     C54957   4.644   3.374   0.249  0.5419 -0.2628  0.8246
  408MOL0     C54958   4.656   3.269   0.141 -0.5408 -0.3112 -1.0064
  408MOL0     C54959   4.528   3.247   0.057 -0.6573  0.1020  0.5611
  408MOL0     C54960   4.538   3.160  -0.065 -0.3144 -0.0562 -0.6388
  408MOL0     C54961   4.574   3.014  -0.033  0.0036 -0.4493  0.2040
  408MOL0     N54962   4.496   2.940   0.066  0.2006 -0.7181  0.2761
  408MOL0     C54963   4.361   2.912   0.067 -1.0726 -0.7864 -0.5981
  408MOL0     C54964   4.337   2.833   0.181  0.5145 -0.2116  1.6869
  408MOL0     C54965   4.210   2.757   0.218 -0.3462  0.2343 -0.7004
  408MOL0     C54966   4.193   2.631   0.135  0.1516  0.0890 -0.1834
  408MOL0     C54967   4.312   2.534   0.132  1.2048 -0.9229 -0.4142
  408MOL0     C54968   4.277   2.419   0.029 -0.5744 -0.2619 -0.1260
  408MOL0     O54969   4.238   2.470  -0.091  0.1120  0.4241  0.0272
  408MOL0     C54970   4.269   2.399  -0.202 -0.1681 -0.1711  0.5661
  408MOL0     C54971   4.387   2.340  -0.244 -1.3920 -0.3169  0.4951
  408MOL0     C54972   4.396   2.277  -0.374  0.5460  0.1877 -0.3603
  408MOL0     C54973   4.294   2.262  -0.467 -0.4103 -0.2490 -0.0974
  408MOL0     C54974   4.309   2.188  -0.587 -0.7120  0.3844  0.0749
  408MOL0     O54975   4.238   2.227  -0.705 -0.0269  0.4194  0.4592
  408MOL0     C54976   4.250   2.149  -0.824 -0.2798  0.3484 -0.0522
  408MOL0     C54977   4.280   2.217  -0.950  0.9927 -0.4082 -0.1253
  408MOL0     C54978   4.277   2.138  -1.074  0.0447 -0.2322  0.0881
  408MOL0     C54979   4.265   1.997  -1.068 -0.1087 -0.8796  0.4927
  408MOL0     O54980   4.270   1.915  -1.175 -0.1639  0.2152 -0.2737
  408MOL0     C54981   4.168   1.950  -1.274 -0.6342  0.2485 -0.6201
  408MOL0     C54982   4.234   1.977  -1.413 -0.0130 -0.3833  0.0259
  408MOL0     C54983   4.343   1.871  -1.464 -0.1480  0.0666 -0.4978
  408MOL0     C54984   4.394   1.923  -1.597  0.5136  0.7355 -0.4786
  408MOL0     C54985   4.511   1.834  -1.651  0.2408  0.1870 -0.8448
  408MOL0     C54986   4.469   1.687  -1.656 -0.3420 -0.9823 -0.1692
  408MOL0     C54987   4.591   1.601  -1.699 -0.2249  0.3629  0.5435
  408MOL0     C54988   4.662   1.538  -1.582 -0.0605  0.1569 -0.5935
  408MOL0    Cl54989   4.577   1.384  -1.517 -0.1493 -0.0543 -0.5554
  408MOL0     C54990   4.236   1.940  -0.944 -0.0290  0.1461 -0.1737
  408MOL0     C54991   4.229   2.003  -0.822  0.3765 -0.4459  0.5824
  408MOL0     O54992   4.387   2.096  -0.590  0.0517  0.5713 -0.7876
  408MOL0     C54993   4.179   2.337  -0.427  0.6284 -0.6190 -0.2842
  408MOL0     C54994   4.171   2.407  -0.303  1.2751 -0.4870  0.8281
  408MOL0     N54995   4.459   2.797   0.226 -0.0466 -1.1387  0.0339
  408MOL0     N54996   4.548   2.865   0.163  0.1092  0.4150 -0.2429
  408MOL0     C54997   4.341   3.969   0.233 -0.3487 -0.2929 -0.3095
  408MOL0     C54998   4.263   4.068   0.280  0.4252  0.4084  0.1564
  408MOL0     C54999   4.148   4.442   0.548  0.6568 -0.2424  0.0049
  408MOL0     C55000   4.088   4.485   0.424 -0.2457  0.5631 -1.0841
  408MOL0     C55001   3.991   4.579   0.416 -0.4081 -0.3853  0.8386
  408MOL0     C55002   3.961   4.652   0.530 -0.8171  0.1410 -0.2396
  408MOL0     O55003   3.863   4.741   0.558 -0.0356  0.7172 -0.2884
  408MOL0     C55004   3.755   4.751   0.458 -0.5074  0.2575  0.1027
  408MOL0     C55005   3.612   4.752   0.526  0.0356  0.0219  0.1672
  408MOL0     C55006   3.570   4.635   0.614 -0.7137 -0.0835 -0.2701
  408MOL0     C55007   3.444   4.658   0.713  0.2620 -0.0516  1.2219
  408MOL0     C55008   3.335   4.723   0.643 -0.2124  0.0160 -0.5415
  408MOL0     C55009   3.254   4.799   0.597 -0.6668 -0.0589 -0.4190
  408MOL0     C55010   4.023   4.610   0.651  0.3208  0.3218 -0.6809
  408MOL0     C55011   4.117   4.510   0.665  0.1841  0.1881 -0.2256
  408MOL0     C55012   4.170   4.473   0.802  0.4904  0.3175 -0.3292
  408MOL0     H55013   4.420   4.098   0.580  2.9601  0.0733 -1.1906
  408MOL0     H55014   4.542   3.907   0.496  0.2879 -1.3731 -0.9204
  408MOL0     H55015   4.686   3.765   0.177  0.7012  2.1583  1.0762
  408MOL0     H55016   4.673   3.837   0.337 -1.9413 -1.3079  3.2983
  408MOL0     H55017   4.568   3.599   0.388 -0.1306 -1.9553 -0.5830
  408MOL0     H55018   4.741   3.608   0.371  1.3335  0.2435 -2.3556
  408MOL0     H55019   4.707   3.526   0.122  1.4765 -2.9911  0.1195
  408MOL0     H55020   4.524   3.512   0.149  0.0866 -1.7209  2.0008
  408MOL0     H55021   4.730   3.369   0.316 -1.2862 -1.3034  3.2534
  408MOL0     H55022   4.566   3.336   0.316  0.6191 -3.7088 -0.8018
  408MOL0     H55023   4.734   3.309   0.076  0.6450  0.0111  0.5498
  408MOL0     H55024   4.691   3.174   0.182  0.8987  1.7912  3.3179
  408MOL0     H55025   4.446   3.208   0.119 -1.0150  0.6991  0.4685
  408MOL0     H55026   4.488   3.342   0.021  0.2643  0.7655  1.2587
  408MOL0     H55027   4.625   3.201  -0.115 -0.3815  0.6296 -0.2056
  408MOL0     H55028   4.453   3.168  -0.133 -0.7287 -0.2545 -0.1512
  408MOL0     H55029   4.594   2.954  -0.122  3.3512 -0.1076  0.6148
  408MOL0     H55030   4.672   3.033   0.010 -0.1666 -0.0076  0.4062
  408MOL0     H55031   4.285   2.937  -0.007  1.7084  1.4558 -2.9234
  408MOL0     H55032   4.224   2.730   0.322  0.5625 -0.1415 -0.9136
  408MOL0     H55033   4.126   2.828   0.213  0.9208  2.2842  3.1352
  408MOL0     H55034   4.111   2.577   0.183  1.8715 -0.7755  1.9548
  408MOL0     H55035   4.169   2.661   0.033 -0.0213 -0.6582 -0.3603
  408MOL0     H55036   4.347   2.500   0.231 -0.9614 -0.4858  0.5665
  408MOL0     H55037   4.401   2.590   0.101 -0.3382  0.8064 -1.9142
  408MOL0     H55038   4.201   2.350   0.066  0.9299 -5.0342 -4.7027
  408MOL0     H55039   4.377   2.378   0.018 -0.0003  1.6562 -3.8924
  408MOL0     H55040   4.473   2.334  -0.178 -0.8495 -1.1519 -0.2713
  408MOL0     H55041   4.493   2.229  -0.389 -1.3391 -3.3623 -2.5847
  408MOL0     H55042   4.283   2.326  -0.951  2.7820 -0.4226 -1.9575
  408MOL0     H55043   4.297   2.180  -1.171  4.2532 -1.2105  0.3405
  408MOL0     H55044   4.113   1.856  -1.260 -2.1701  0.8596 -2.1970
  408MOL0     H55045   4.107   2.031  -1.235  0.5013 -0.4348  2.9154
  408MOL0     H55046   4.156   1.996  -1.488 -1.1569  1.5195  1.5874
  408MOL0     H55047   4.287   2.073  -1.415  1.4611 -1.1822 -0.6624
  408MOL0     H55048   4.429   1.872  -1.396 -0.5946  2.8138  0.1541
  408MOL0     H55049   4.292   1.774  -1.456 -1.9429  1.0999  1.6423
  408MOL0     H55050   4.445   2.016  -1.567  0.9807 -1.1021  5.7079
  408MOL0     H55051   4.317   1.941  -1.672 -0.9337  3.0994  1.4319
  408MOL0     H55052   4.594   1.827  -1.580 -2.7227 -2.6604  2.7701
  408MOL0     H55053   4.548   1.869  -1.747 -2.5184 -0.8503 -2.3935
  408MOL0     H55054   4.414   1.650  -1.570  1.2622 -1.0598  0.8505
  408MOL0     H55055   4.396   1.677  -1.738  0.9611  3.6819 -2.2384
  408MOL0     H55056   4.668   1.663  -1.746 -0.5945 -0.0514 -0.6403
  408MOL0     H55057   4.557   1.518  -1.762  0.8035 -1.6144  2.4702
  408MOL0     H55058   4.764   1.503  -1.602  0.5717  1.5292  0.0352
  408MOL0     H55059   4.673   1.614  -1.504 -0.7490 -0.9986  0.6967
  408MOL0     H55060   4.218   1.834  -0.955 -0.7273  0.3029 -0.6396
  408MOL0     H55061   4.216   1.949  -0.729 -1.7244  1.0193  1.2081
  408MOL0     H55062   4.101   2.328  -0.501  1.6843 -0.1520 -1.4836
  408MOL0     H55063   4.085   2.465  -0.269 -0.7239 -3.0196  0.3583
  408MOL0     H55064   4.318   3.923   0.138 -0.2976 -1.9637  0.4599
  408MOL0     H55065   4.194   4.108   0.206  0.8986 -2.7582 -2.2296
  408MOL0     H55066   4.123   4.440   0.332  1.7590 -3.0925  1.2359
  408MOL0     H55067   3.934   4.584   0.324 -0.3311 -4.3332  0.3804
  408MOL0     H55068   3.757   4.668   0.387  0.9010 -0.1212  0.5468
  408MOL0     H55069   3.767   4.847   0.409 -4.9306  1.7600  1.4590
  408MOL0     H55070   3.540   4.745   0.444 -0.6571 -2.3837  0.9038
  408MOL0     H55071   3.610   4.843   0.588 -0.7975  1.0234 -1.2764
  408MOL0     H55072   3.656   4.590   0.665 -0.7311 -2.2172 -1.9656
  408MOL0     H55073   3.551   4.544   0.557 -1.2338  1.2612 -2.3456
  408MOL0     H55074   3.407   4.561   0.748 -1.6802 -0.5790 -1.8514
  408MOL0     H55075   3.485   4.705   0.803  4.5665 -0.2880 -0.3646
  408MOL0     H55076   3.177   4.851   0.543 -1.8882 -0.4145  0.9258
  408MOL0     H55077   4.000   4.668   0.739  4.6982 -0.3947  1.1727
  408MOL0     H55078   4.279   4.477   0.812  0.5710 -0.3692 -0.8362
  408MOL0     H55079   4.133   4.537   0.883 -0.6896 -2.0143  1.0917
  408MOL0     H55080   4.133   4.376   0.835 -1.4873  0.9630 -0.5262
  409MOL0     O55081  11.080  10.283   9.046 -0.0215  0.2792  0.0192
  409MOL0     C55082  11.054  10.163   9.029 -0.6346 -0.1639  0.0678
  409MOL0     O55083  11.066  10.106   8.910  0.0381  0.0444  0.1591
  409MOL0     C55084  11.145  10.166   8.811 -0.7541 -0.2825 -0.5322
  409MOL0     C55085  11.232  10.082   8.750  0.7167  0.0415  0.0414
  409MOL0     C55086  11.325  10.134   8.657 -0.5185 -0.3332 -1.0923
  409MOL0     C55087  11.315  10.267   8.607 -0.9412  0.1005 -0.6760
  409MOL0     O55088  11.389  10.318   8.506  0.1934  0.4367 -0.7928
  409MOL0     C55089  11.403  10.237   8.381 -0.3917  0.4633 -0.1786
  409MOL0     C55090  11.266  10.228   8.311 -0.6313  0.1924  0.5876
  409MOL0     C55091  11.290  10.195   8.168  0.5322  0.9314  0.5484
  409MOL0     C55092  11.335  10.317   8.080 -0.7559  0.1981  0.3110
  409MOL0     C55093  11.335  10.301   7.922 -0.5716 -0.4100  0.4413
  409MOL0     C55094  11.340  10.435   7.853  0.8315 -0.1925  1.2669
  409MOL0     C55095  11.441  10.541   7.893  0.5726 -0.6805 -0.1945
  409MOL0     C55096  11.398  10.684   7.947  0.0046 -0.1853  0.3382
  409MOL0     N55097  11.479  10.796   7.901 -0.1388  0.0087  0.4662
  409MOL0     C55098  11.596  10.836   7.968 -0.6103  0.3123 -0.0601
  409MOL0     C55099  11.649  10.937   7.895  0.4678 -0.2132 -0.0125
  409MOL0     C55100  11.787  10.989   7.910 -0.5725 -1.0913 -0.0018
  409MOL0     C55101  11.893  10.873   7.946 -0.2593  1.5418 -0.3061
  409MOL0     C55102  12.031  10.923   8.002 -0.3364 -0.2061 -0.6798
  409MOL0     C55103  12.098  10.838   8.103  0.4721 -0.6702 -0.5334
  409MOL0     O55104  12.036  10.860   8.235  0.9549  0.4959  0.6252
  409MOL0     C55105  12.063  10.974   8.306  0.1292 -0.0169 -0.4207
  409MOL0     C55106  12.171  11.056   8.305 -0.4173 -0.2399 -0.2753
  409MOL0     C55107  12.179  11.168   8.390 -0.3089  0.2151 -0.4815
  409MOL0     C55108  12.079  11.199   8.483  0.6972  0.2344  0.4578
  409MOL0     C55109  12.083  11.309   8.578  0.1792  0.6405 -1.1205
  409MOL0     O55110  12.202  11.379   8.600  0.5855 -0.8365  0.2030
  409MOL0     C55111  12.189  11.477   8.688 -0.3514  0.0657  0.7052
  409MOL0     C55112  12.249  11.460   8.811 -0.2121 -0.1157  0.3565
  409MOL0     C55113  12.226  11.554   8.914  0.5580 -0.2365  0.8152
  409MOL0     C55114  12.157  11.668   8.882 -0.6361 -0.3491  0.2962
  409MOL0     O55115  12.155  11.771   8.978  0.1817 -0.4448 -0.6884
  409MOL0     C55116  12.083  11.743   9.107 -1.0632 -0.9162  0.1344
  409MOL0     C55117  11.931  11.746   9.085  0.5887  0.3266 -0.3503
  409MOL0     C55118  11.884  11.874   9.010 -0.0408  0.4712 -0.3360
  409MOL0     C55119  11.735  11.871   8.994 -0.4643  0.0657 -0.4834
  409MOL0     C55120  11.685  12.004   8.926 -1.2163  1.1466 -0.2505
  409MOL0     C55121  11.552  11.984   8.865  1.0676 -0.0001 -0.3025
  409MOL0     C55122  11.486  12.112   8.811 -0.7086  0.2568 -1.0343
  409MOL0     C55123  11.399  12.087   8.693 -0.6928  0.6290  1.0593
  409MOL0    Cl55124  11.359  12.245   8.630 -0.0275 -0.3390  0.1984
  409MOL0     C55125  12.096  11.685   8.753 -0.4674  0.4592 -0.0794
  409MOL0     C55126  12.110  11.583   8.657  0.0788 -0.0006  0.9948
  409MOL0     O55127  11.969  11.331   8.635 -0.7547  0.4311  0.6475
  409MOL0     C55128  11.974  11.105   8.488  0.5541  0.4400 -0.2598
  409MOL0     C55129  11.963  10.998   8.401  0.4875 -0.1740  0.2070
  409MOL0     N55130  11.559  10.962   7.790 -0.2974 -0.4205 -0.4152
  409MOL0     N55131  11.446  10.890   7.806 -0.2273 -0.3141  0.2537
  409MOL0     C55132  11.207  10.345   8.658  0.3731 -0.3583 -0.3084
  409MOL0     C55133  11.125  10.294   8.750  0.0701 -0.5009 -0.8573
  409MOL0     C55134  11.016  10.078   9.143  0.2221  0.5339 -0.0745
  409MOL0     C55135  10.976  10.138   9.263 -0.5929 -0.0937  0.0201
  409MOL0     C55136  10.935  10.063   9.376 -0.0101  0.4483 -0.1117
  409MOL0     C55137  10.951   9.922   9.379  0.5725  0.7262  0.3772
  409MOL0     O55138  10.916   9.849   9.491  0.2229  0.0110 -1.0142
  409MOL0     C55139  10.859   9.725   9.472  0.4142  0.7042 -1.0371
  409MOL0     C55140  10.763   9.683   9.581 -0.8737  0.4811  1.0967
  409MOL0     C55141  10.668   9.577   9.527  0.3718  0.8358  0.0575
  409MOL0     C55142  10.603   9.502   9.639 -0.1227 -0.5729  0.3939
  409MOL0     C55143  10.683   9.393   9.688  0.5201  0.6458 -0.1442
  409MOL0     C55144  10.736   9.298   9.733 -0.1507 -0.0151  0.3291
  409MOL0     C55145  11.005   9.868   9.264 -0.6864  1.1417  0.6797
  409MOL0     C55146  11.030   9.931   9.141  0.6846 -0.7876 -0.3089
  409MOL0     C55147  11.083   9.845   9.033  0.1134 -0.7930 -0.5485
  409MOL0     H55148  11.226   9.982   8.791 -3.2438 -0.2749 -0.9034
  409MOL0     H55149  11.415  10.078   8.635 -0.7776 -1.2047  0.0073
  409MOL0     H55150  11.485  10.280   8.322 -1.6141  3.4725  0.1281
  409MOL0     H55151  11.445  10.136   8.387  2.3171  0.9391 -5.0843
  409MOL0     H55152  11.215  10.324   8.300  0.5877  0.5601 -3.7088
  409MOL0     H55153  11.205  10.154   8.365 -0.9908 -2.5709 -3.1648
  409MOL0     H55154  11.195  10.168   8.120  1.4831 -2.5750  0.3577
  409MOL0     H55155  11.354  10.109   8.145 -0.2769  1.1000 -2.8597
  409MOL0     H55156  11.272  10.405   8.098 -2.4986 -1.2541  1.7262
  409MOL0     H55157  11.431  10.334   8.128 -1.6080  0.5290  1.9636
  409MOL0     H55158  11.415  10.231   7.895 -2.0284 -1.8724 -0.3004
  409MOL0     H55159  11.242  10.247   7.901 -0.3397  0.1775 -2.3936
  409MOL0     H55160  11.362  10.406   7.750  1.0790  2.1630  0.5888
  409MOL0     H55161  11.242  10.483   7.845  0.8127  0.1615  3.2125
  409MOL0     H55162  11.492  10.553   7.797  0.0762  1.2779 -0.2580
  409MOL0     H55163  11.502  10.489   7.967 -2.0649 -4.0953 -0.1999
  409MOL0     H55164  11.295  10.702   7.913  0.7600  0.2919 -1.8502
  409MOL0     H55165  11.394  10.680   8.056  1.5824  3.1697  0.6309
  409MOL0     H55166  11.648  10.778   8.045 -0.4538 -0.0466 -0.4344
  409MOL0     H55167  11.812  11.044   7.818 -1.4579  1.5944  1.2787
  409MOL0     H55168  11.786  11.066   7.988  1.0319  0.0494 -1.0225
  409MOL0     H55169  11.849  10.806   8.021 -0.0971  2.3008  0.4804
  409MOL0     H55170  11.921  10.813   7.859  4.1251 -1.4575  2.7459
  409MOL0     H55171  12.005  11.022   8.040  0.4834  0.0266 -0.7132
  409MOL0     H55172  12.091  10.943   7.913  1.0514  2.2155  0.6897
  409MOL0     H55173  12.203  10.870   8.104  0.5986 -1.0227  1.3444
  409MOL0     H55174  12.099  10.730   8.085  0.1078 -0.8918  0.6780
  409MOL0     H55175  12.251  11.034   8.235 -2.0317 -0.4162 -2.1480
  409MOL0     H55176  12.266  11.232   8.400 -2.7126  3.7177 -0.5374
  409MOL0     H55177  12.320  11.378   8.817  1.1672  0.9938 -0.1712
  409MOL0     H55178  12.283  11.564   9.006  0.3960  4.3078  0.6078
  409MOL0     H55179  12.116  11.648   9.152 -4.2652 -0.4437  4.0201
  409MOL0     H55180  12.105  11.818   9.183 -1.7857 -0.3474 -0.2034
  409MOL0     H55181  11.905  11.660   9.024 -3.3241  2.5092 -2.1186
  409MOL0     H55182  11.883  11.742   9.184  0.3358  1.9878 -0.3713
  409MOL0     H55183  11.912  11.956   9.078  1.3328 -1.4031  1.4672
  409MOL0     H55184  11.939  11.894   8.916  1.5150 -1.0323  0.2002
  409MOL0     H55185  11.691  11.869   9.094 -1.1720  2.6720 -0.6763
  409MOL0     H55186  11.696  11.785   8.938  3.0029 -0.9882 -1.5464
  409MOL0     H55187  11.763  12.024   8.852 -0.7412 -1.2370 -0.4709
  409MOL0     H55188  11.680  12.082   9.004  1.7346 -0.5322  1.7971
  409MOL0     H55189  11.553  11.904   8.789 -3.6936 -2.3819  1.7075
  409MOL0     H55190  11.488  11.951   8.948  1.1016  0.0170 -0.2704
  409MOL0     H55191  11.555  12.190   8.779 -0.8736  0.5904 -0.5919
  409MOL0     H55192  11.440  12.168   8.893  2.6256  0.4090  0.9160
  409MOL0     H55193  11.468  12.050   8.617 -0.3415  0.2077  1.5702
  409MOL0     H55194  11.314  12.021   8.712  0.0991 -0.5074  0.7846
  409MOL0     H55195  12.039  11.775   8.733  2.1605  1.4406 -4.5091
  409MOL0     H55196  12.051  11.589   8.566  0.4449 -1.8288  0.5999
  409MOL0     H55197  11.903  11.104   8.570  1.5864  1.0380  0.6759
  409MOL0     H55198  11.888  10.921   8.414 -2.2141  2.1558 -0.5694
  409MOL0     H55199  11.202  10.443   8.612 -0.6044 -0.9265 -1.4498
  409MOL0     H55200  11.044  10.358   8.784 -1.5266 -1.2317 -3.0520
  409MOL0     H55201  10.970  10.247   9.266 -1.4102 -0.1425  1.2880
  409MOL0     H55202  10.900  10.107   9.469 -0.7925 -1.2960  0.4585
  409MOL0     H55203  10.938   9.650   9.477 -0.2260 -0.0016  3.9037
  409MOL0     H55204  10.808   9.731   9.376 -2.4496 -0.2290  0.3021
  409MOL0     H55205  10.698   9.768   9.606 -0.8817  0.6658  0.4751
  409MOL0     H55206  10.820   9.643   9.665  2.1508  3.1625  0.5415
  409MOL0     H55207  10.701   9.496   9.462 -3.1221 -1.1835  0.5248
  409MOL0     H55208  10.588   9.634   9.478  1.3095  1.2780 -0.9805
  409MOL0     H55209  10.576   9.570   9.720 -2.7215  0.2372 -1.0472
  409MOL0     H55210  10.517   9.458   9.587 -0.1297  1.6594 -1.7015
  409MOL0     H55211  10.771   9.210   9.784 -1.1488  1.5403  3.9639
  409MOL0     H55212  11.028   9.762   9.262 -4.1946  0.2513 -0.7281
  409MOL0     H55213  11.170   9.804   9.084 -0.5368 -1.0372  0.4023
  409MOL0     H55214  11.014   9.766   8.999  1.5353 -1.5768 -1.7556
  409MOL0     H55215  11.122   9.891   8.942  3.5733 -0.8495  0.7774
  410MOL0     O55216  10.052  10.395   5.676  0.0530  0.1593  0.2966
  410MOL0     C55217  10.112  10.498   5.691 -1.1205 -0.3780  0.5804
  410MOL0     O55218  10.187  10.528   5.803  0.6625  0.2781 -0.4933
  410MOL0     C55219  10.185  10.461   5.918  0.5758 -0.5071 -0.2910
  410MOL0     C55220  10.155  10.326   5.932 -0.0676 -0.0223  0.1979
  410MOL0     C55221  10.132  10.266   6.056  0.4211  0.6115 -0.1096
  410MOL0     C55222  10.155  10.340   6.170 -0.1040  0.0394 -0.3085
  410MOL0     O55223  10.149  10.275   6.288  0.1734  0.3817 -0.0206
  410MOL0     C55224  10.274  10.274   6.358 -0.7232 -0.9846 -0.7417
  410MOL0     C55225  10.231  10.355   6.481  0.5063  1.1739 -0.1746
  410MOL0     C55226  10.113  10.296   6.561  0.0045 -0.4948  0.8306
  410MOL0     C55227  10.100  10.350   6.701 -0.6719  0.1862 -0.5956
  410MOL0     C55228   9.958  10.319   6.752  0.4642  0.4226  0.1565
  410MOL0     C55229   9.912  10.406   6.864  0.5543 -0.0057 -1.2275
  410MOL0     C55230  10.001  10.397   6.982  0.0891  1.2614  0.1969
  410MOL0     C55231   9.940  10.481   7.101  1.4685  0.3056 -0.2583
  410MOL0     N55232   9.806  10.430   7.155  0.2299  0.7193 -0.8570
  410MOL0     C55233   9.792  10.405   7.286 -0.1790 -0.7190  0.7467
  410MOL0     C55234   9.663  10.423   7.320 -0.6703 -0.7087 -0.4746
  410MOL0     C55235   9.602  10.400   7.464 -0.6560 -0.2569  0.1041
  410MOL0     C55236   9.507  10.513   7.501  1.4035 -0.8077 -0.1765
  410MOL0     C55237   9.367  10.501   7.440  0.5035  0.4209  0.5778
  410MOL0     C55238   9.273  10.599   7.512  0.1422 -0.2827 -0.0938
  410MOL0     O55239   9.205  10.529   7.615 -1.1548  0.4564 -0.4610
  410MOL0     C55240   9.090  10.578   7.674  0.0271 -0.0501 -0.2823
  410MOL0     C55241   9.033  10.707   7.633 -0.2318 -0.2264 -0.2227
  410MOL0     C55242   8.916  10.743   7.682  1.1246  1.6350  0.0907
  410MOL0     C55243   8.833  10.662   7.764  0.0211  0.3991  0.2213
  410MOL0     C55244   8.703  10.705   7.807 -0.4188 -0.3847  0.2754
  410MOL0     O55245   8.641  10.796   7.726 -0.0842 -0.3738  0.3030
  410MOL0     C55246   8.512  10.842   7.747 -0.4388 -0.2027  0.2107
  410MOL0     C55247   8.471  10.876   7.874  0.7439  0.3651  0.3324
  410MOL0     C55248   8.358  10.957   7.890 -0.8802 -0.4913 -0.4949
  410MOL0     C55249   8.280  11.008   7.784 -0.4820  0.3906  0.7261
  410MOL0     O55250   8.164  11.083   7.794  0.2543  0.1070 -0.0153
  410MOL0     C55251   8.115  11.097   7.927  0.0019 -0.1202 -0.8391
  410MOL0     C55252   7.973  11.158   7.949 -0.6267 -0.6192  0.4580
  410MOL0     C55253   7.880  11.118   7.828 -0.1088 -0.7613 -0.3759
  410MOL0     C55254   7.741  11.141   7.863  0.1723  0.2463  0.7556
  410MOL0     C55255   7.646  11.159   7.750  0.1563  0.2460 -0.2022
  410MOL0     C55256   7.494  11.159   7.805  0.7747 -1.1404 -0.0030
  410MOL0     C55257   7.396  11.135   7.687  0.6616 -0.5094 -0.2083
  410MOL0     C55258   7.293  11.029   7.716  0.0998  0.2704 -0.1881
  410MOL0    Cl55259   7.366  10.872   7.755 -0.1634  0.4505 -0.2730
  410MOL0     C55260   8.319  10.972   7.654  0.3096  0.5718 -0.3742
  410MOL0     C55261   8.433  10.886   7.635 -1.6653  0.0095 -0.4974
  410MOL0     O55262   8.635  10.635   7.878  0.5911 -0.3785 -0.2017
  410MOL0     C55263   8.892  10.538   7.814 -1.3253 -0.0335  1.8122
  410MOL0     C55264   9.021  10.501   7.758  0.2531  0.0215  0.0089
  410MOL0     N55265   9.590  10.442   7.201  0.4872 -0.2751 -0.6910
  410MOL0     N55266   9.677  10.450   7.107  0.8028  1.7822 -0.4721
  410MOL0     C55267  10.191  10.478   6.156 -0.5073 -0.0277 -0.8579
  410MOL0     C55268  10.204  10.538   6.032 -0.5331  0.1311 -0.8973
  410MOL0     C55269  10.100  10.601   5.585  0.3636 -0.6027 -0.0696
  410MOL0     C55270  10.190  10.705   5.609  0.4558 -0.8255  0.5459
  410MOL0     C55271  10.175  10.814   5.529 -0.7279 -0.4986  0.2006
  410MOL0     C55272  10.090  10.813   5.412 -0.1099  0.0174  0.0348
  410MOL0     O55273  10.075  10.934   5.339 -0.0193  0.1473 -0.2466
  410MOL0     C55274  10.080  10.918   5.200  0.6757 -0.7799  0.1370
  410MOL0     C55275  10.059  11.042   5.109  0.0162 -0.4363 -0.4934
  410MOL0     C55276  10.162  11.154   5.137  0.4754 -0.5850  1.0496
  410MOL0     C55277  10.135  11.271   5.053  0.3560 -0.3968  0.4984
  410MOL0     C55278  10.205  11.286   4.931  0.4570 -0.3759  0.0009
  410MOL0     C55279  10.284  11.297   4.836 -0.6964  0.8890 -0.7007
  410MOL0     C55280  10.008  10.707   5.383 -0.4726  0.7601 -0.2435
  410MOL0     C55281  10.012  10.601   5.472 -0.4577 -0.5609  0.9916
  410MOL0     C55282   9.930  10.478   5.440  0.5094  0.3524 -0.6096
  410MOL0     H55283  10.153  10.268   5.840  1.5931  2.2029 -1.3755
  410MOL0     H55284  10.100  10.162   6.058  1.6776  0.1985 -0.7706
  410MOL0     H55285  10.313  10.177   6.390 -2.1608 -0.5493  2.8071
  410MOL0     H55286  10.348  10.330   6.300 -1.5505  1.7840  0.6824
  410MOL0     H55287  10.225  10.461   6.457 -1.2313  1.1196 -0.1113
  410MOL0     H55288  10.323  10.354   6.540  2.0511 -1.3971 -2.3830
  410MOL0     H55289  10.123  10.188   6.571  0.8745 -0.5849 -0.6942
  410MOL0     H55290  10.020  10.321   6.509 -1.0282 -2.5815  1.5910
  410MOL0     H55291  10.182  10.313   6.763 -2.3975 -0.8621  1.2073
  410MOL0     H55292  10.102  10.459   6.689 -1.8464  0.1309 -1.4877
  410MOL0     H55293   9.888  10.325   6.668  2.3329 -0.3985 -1.5387
  410MOL0     H55294   9.960  10.217   6.793  1.9650  0.9878  1.6033
  410MOL0     H55295   9.920  10.509   6.826 -5.4813  1.5999  0.6321
  410MOL0     H55296   9.810  10.396   6.902  1.8837  0.5659  3.0761
  410MOL0     H55297  10.108  10.416   6.969  0.8829  0.8309  4.6911
  410MOL0     H55298  10.010  10.293   7.014  2.7476  1.9077  1.8285
  410MOL0     H55299  10.005  10.509   7.184 -1.6591 -0.1048  2.5454
  410MOL0     H55300   9.914  10.578   7.057 -0.9575  1.3260  3.0128
  410MOL0     H55301   9.883  10.390   7.344  1.7186 -0.8972 -2.0858
  410MOL0     H55302   9.553  10.302   7.468  0.4228 -0.9440 -2.1383
  410MOL0     H55303   9.692  10.389   7.524  1.7009  1.7976 -2.7607
  410MOL0     H55304   9.484  10.511   7.608 -1.2792 -1.2513 -0.6892
  410MOL0     H55305   9.542  10.612   7.473  2.2745 -0.4276  2.0699
  410MOL0     H55306   9.323  10.401   7.444 -1.2729  1.0404 -1.4152
  410MOL0     H55307   9.370  10.538   7.337 -4.8425 -0.2008 -0.0508
  410MOL0     H55308   9.205  10.640   7.437 -0.2354  1.6624  1.2524
  410MOL0     H55309   9.335  10.674   7.560 -2.2356  0.5569  1.8282
  410MOL0     H55310   9.080  10.767   7.555 -0.3562 -0.3089 -0.3620
  410MOL0     H55311   8.876  10.833   7.638  4.8296  1.6362 -3.9677
  410MOL0     H55312   8.532  10.850   7.960 -0.3497 -4.2215  0.0016
  410MOL0     H55313   8.348  11.016   7.981  3.7987 -0.8056  0.5131
  410MOL0     H55314   8.106  10.997   7.970 -2.1302  0.8591  1.2518
  410MOL0     H55315   8.188  11.153   7.987 -0.6352 -1.9689  1.8391
  410MOL0     H55316   7.942  11.137   8.052 -0.9954 -0.0203  0.4680
  410MOL0     H55317   7.993  11.265   7.948 -0.5757 -0.6280  0.5138
  410MOL0     H55318   7.915  11.163   7.735 -2.9000 -0.7296 -1.4833
  410MOL0     H55319   7.889  11.009   7.826 -0.4563 -0.8216  0.5849
  410MOL0     H55320   7.743  11.223   7.935  0.2432  0.5803  0.3746
  410MOL0     H55321   7.713  11.057   7.928 -0.7028  0.0921  0.1975
  410MOL0     H55322   7.669  11.080   7.678 -0.1573  0.0532 -0.0934
  410MOL0     H55323   7.655  11.250   7.690 -2.7086  1.2911  0.7838
  410MOL0     H55324   7.481  11.083   7.883  1.3034 -1.3286 -0.0925
  410MOL0     H55325   7.484  11.257   7.853  0.3117 -0.3168 -1.7318
  410MOL0     H55326   7.457  11.102   7.602  1.7768  2.8045 -0.8291
  410MOL0     H55327   7.348  11.226   7.650  0.5442 -0.1268  0.8631
  410MOL0     H55328   7.232  11.046   7.805  1.0219  0.4421  0.4247
  410MOL0     H55329   7.232  11.020   7.625 -0.4702 -1.4981  0.3272
  410MOL0     H55330   8.261  11.023   7.577 -0.5061  0.2450  0.0077
  410MOL0     H55331   8.471  10.849   7.541  1.8140 -3.0125  1.7915
  410MOL0     H55332   8.847  10.471   7.886  1.1543 -1.8131  1.8279
  410MOL0     H55333   9.062  10.404   7.787  2.3340  0.8331  0.0017
  410MOL0     H55334  10.209  10.537   6.245 -1.2133 -0.9381 -0.0861
  410MOL0     H55335  10.240  10.640   6.025  2.6586 -0.9701 -2.9118
  410MOL0     H55336  10.274  10.715   5.676  1.1637  0.2333 -0.4623
  410MOL0     H55337  10.232  10.904   5.552 -0.8675 -0.3612  0.0192
  410MOL0     H55338  10.018  10.836   5.162 -2.9658 -0.1014  3.9079
  410MOL0     H55339  10.183  10.887   5.180  1.8967  1.4090  2.3844
  410MOL0     H55340   9.958  11.082   5.119 -0.7444 -1.3561 -3.3770
  410MOL0     H55341  10.081  10.998   5.011  2.6305 -1.0318  0.2748
  410MOL0     H55342  10.261  11.108   5.123  1.5490  1.8203  0.2051
  410MOL0     H55343  10.145  11.186   5.241  2.9530  0.0920  1.3092
  410MOL0     H55344  10.032  11.267   5.018  1.1689  2.5751 -2.8168
  410MOL0     H55345  10.163  11.355   5.119  3.2351 -0.1602 -0.8640
  410MOL0     H55346  10.352  11.303   4.753 -0.1768 -0.4247 -0.4005
  410MOL0     H55347   9.925  10.694   5.315 -2.5679 -0.8377  2.4353
  410MOL0     H55348   9.860  10.457   5.521  1.2397 -3.9708 -0.8849
  410MOL0     H55349   9.867  10.502   5.353 -1.2459 -0.8533  0.2686
  410MOL0     H55350   9.995  10.393   5.418  1.0738  0.2930  1.1722
  411MOL0     O55351   7.021  11.338   5.073  0.5830  0.7508  0.2863
  411MOL0     C55352   6.975  11.428   5.150  0.1018  0.4152  0.5476
  411MOL0     O55353   7.029  11.552   5.163  1.0582  0.0286 -0.0378
  411MOL0     C55354   7.125  11.599   5.085 -0.3752 -0.5955  0.3610
  411MOL0     C55355   7.228  11.664   5.157  0.3975 -0.5230 -0.2808
  411MOL0     C55356   7.341  11.710   5.083  0.1201 -0.1777  0.0671
  411MOL0     C55357   7.338  11.714   4.938  0.1437  0.3843 -0.3759
  411MOL0     O55358   7.443  11.768   4.874 -0.1347 -0.7686 -0.2153
  411MOL0     C55359   7.538  11.663   4.838  0.1475  0.5405  0.1387
  411MOL0     C55360   7.509  11.609   4.702 -0.9044  0.1599  0.0502
  411MOL0     C55361   7.497  11.712   4.588  0.2576  0.5295 -1.0948
  411MOL0     C55362   7.557  11.661   4.466 -0.0064  0.2287  0.6190
  411MOL0     C55363   7.549  11.766   4.350  0.0887 -0.5797  0.9961
  411MOL0     C55364   7.614  11.715   4.225  0.2230 -0.0057 -0.7315
  411MOL0     C55365   7.618  11.818   4.119  0.0903 -0.1675 -0.2757
  411MOL0     C55366   7.692  11.786   3.980  0.4728  0.1380  0.4696
  411MOL0     N55367   7.832  11.777   4.004 -0.8002  1.3883 -0.8219
  411MOL0     C55368   7.926  11.871   3.972 -0.8343  1.0835 -0.2604
  411MOL0     C55369   8.042  11.813   4.007  0.4397 -0.2017 -0.4464
  411MOL0     C55370   8.178  11.875   4.016 -0.5829 -0.0723 -0.6552
  411MOL0     C55371   8.251  11.836   3.886  0.5049 -0.2654 -1.1581
  411MOL0     C55372   8.402  11.799   3.893 -0.0975  0.6413  0.5067
  411MOL0     C55373   8.429  11.666   3.977  0.4226 -0.1154  0.6307
  411MOL0     O55374   8.339  11.561   3.948 -1.1063  0.2404 -0.7690
  411MOL0     C55375   8.391  11.439   3.988 -0.1128  0.1648 -0.4039
  411MOL0     C55376   8.422  11.407   4.115 -0.8654  0.3900 -0.5682
  411MOL0     C55377   8.470  11.279   4.148 -1.0611 -0.5044  0.3629
  411MOL0     C55378   8.488  11.173   4.048  0.2643 -0.9426  0.9441
  411MOL0     C55379   8.563  11.045   4.084  1.1420 -0.6328 -0.2691
  411MOL0     O55380   8.627  10.977   3.981  0.0226  1.1980  0.0135
  411MOL0     C55381   8.700  10.879   4.034  0.1752 -0.4096  0.5566
  411MOL0     C55382   8.841  10.899   4.041 -1.2740  0.0367  0.3381
  411MOL0     C55383   8.923  10.786   4.071 -0.8028  0.0720 -0.2535
  411MOL0     C55384   8.863  10.662   4.103  0.0226  0.1031  0.3412
  411MOL0     O55385   8.944  10.554   4.097 -0.4070  0.0135  0.4373
  411MOL0     C55386   8.891  10.429   4.145  0.1734  0.6913 -0.7432
  411MOL0     C55387   9.003  10.321   4.118 -0.4506  1.2914  0.8455
  411MOL0     C55388   8.960  10.185   4.180 -0.1302  0.9702 -0.1691
  411MOL0     C55389   9.036  10.056   4.120  0.0425 -0.3553  0.8412
  411MOL0     C55390   9.056   9.947   4.225 -0.4746 -0.3364 -0.5114
  411MOL0     C55391   9.186   9.975   4.307 -0.2679 -0.2481  0.0879
  411MOL0     C55392   9.191   9.910   4.447 -0.0235  0.2360 -0.1560
  411MOL0     C55393   9.331   9.916   4.517  0.4776  0.0004 -0.7887
  411MOL0    Cl55394   9.309   9.856   4.688 -0.4376  0.0896 -0.2576
  411MOL0     C55395   8.728  10.653   4.116  0.3805  0.5606 -0.0551
  411MOL0     C55396   8.641  10.759   4.080  0.0547  0.4837  0.5850
  411MOL0     O55397   8.540  11.003   4.196  0.3256 -0.3043  0.5383
  411MOL0     C55398   8.445  11.213   3.911  0.6782  1.1973 -0.4988
  411MOL0     C55399   8.408  11.344   3.883  0.1024  0.4130  0.1073
  411MOL0     N55400   8.015  11.687   4.047  0.2722  0.9666  0.5544
  411MOL0     N55401   7.891  11.661   4.031 -0.6155  0.0218 -0.3311
  411MOL0     C55402   7.234  11.645   4.882 -0.0619  0.5110  0.5340
  411MOL0     C55403   7.135  11.592   4.950 -0.5784  0.2567 -0.4041
  411MOL0     C55404   6.851  11.402   5.220  0.7219  0.5940 -0.6262
  411MOL0     C55405   6.745  11.337   5.150  0.0582 -0.5385 -0.3852
  411MOL0     C55406   6.626  11.306   5.215  1.2278  1.3134 -0.0041
  411MOL0     C55407   6.607  11.343   5.351  0.1783  0.9344  0.2773
  411MOL0     O55408   6.490  11.314   5.416  0.1518 -0.0147 -0.1589
  411MOL0     C55409   6.411  11.429   5.466  0.1854  1.0532  0.9421
  411MOL0     C55410   6.398  11.415   5.618 -0.1012  0.5572 -0.1584
  411MOL0     C55411   6.329  11.287   5.669 -0.0762  0.2210  0.3312
  411MOL0     C55412   6.331  11.276   5.824  0.4470 -0.7169  0.6167
  411MOL0     C55413   6.274  11.393   5.890 -0.2870 -0.0901  0.4471
  411MOL0     C55414   6.214  11.484   5.941 -0.9516 -0.0532 -0.2014
  411MOL0     C55415   6.706  11.411   5.415  0.1260 -1.2141 -0.1012
  411MOL0     C55416   6.827  11.439   5.352  0.1403 -0.6889 -0.2722
  411MOL0     C55417   6.923  11.512   5.441  0.0696  0.1123  0.4777
  411MOL0     H55418   7.221  11.674   5.265 -4.0399 -1.5857 -0.2587
  411MOL0     H55419   7.427  11.760   5.124 -0.6860  1.4150 -0.1199
  411MOL0     H55420   7.644  11.692   4.831  0.3103 -0.4426 -2.8205
  411MOL0     H55421   7.529  11.590   4.920 -1.9728  1.0858  0.4289
  411MOL0     H55422   7.415  11.556   4.716  0.7595 -3.1931 -0.5786
  411MOL0     H55423   7.584  11.535   4.673 -2.6036 -0.6437 -2.7047
  411MOL0     H55424   7.539  11.809   4.619 -1.3758  0.3137  2.1770
  411MOL0     H55425   7.390  11.724   4.571 -0.5597 -1.8294  1.7578
  411MOL0     H55426   7.657  11.617   4.474  0.7295  0.9661 -2.7257
  411MOL0     H55427   7.495  11.584   4.420  2.6494 -2.9090  1.9748
  411MOL0     H55428   7.445  11.796   4.331 -0.3576 -2.7623 -0.3383
  411MOL0     H55429   7.597  11.859   4.382 -2.5778  0.0817  3.5673
  411MOL0     H55430   7.719  11.697   4.250  2.4895  1.7239 -7.0117
  411MOL0     H55431   7.559  11.623   4.203  0.2659  0.5148 -3.3538
  411MOL0     H55432   7.674  11.890   4.180  2.0745 -1.8422 -0.0285
  411MOL0     H55433   7.516  11.856   4.102  0.8673  2.5201  0.4624
  411MOL0     H55434   7.643  11.696   3.943  3.0090 -1.1392  0.0091
  411MOL0     H55435   7.677  11.872   3.914  0.8203 -0.2599 -0.1403
  411MOL0     H55436   7.914  11.967   3.923 -0.3811  0.1077 -2.4196
  411MOL0     H55437   8.163  11.983   4.021  0.6808  0.0836  0.1828
  411MOL0     H55438   8.240  11.850   4.102 -0.6855 -1.3785 -0.9429
  411MOL0     H55439   8.203  11.752   3.835 -1.4784  0.2347 -0.2170
  411MOL0     H55440   8.237  11.925   3.823  1.5566  0.9392  0.2406
  411MOL0     H55441   8.452  11.887   3.935 -1.8027  1.4385  0.9517
  411MOL0     H55442   8.440  11.784   3.791 -1.2270  0.0439  0.1546
  411MOL0     H55443   8.433  11.691   4.084  6.3360 -2.8711  1.4348
  411MOL0     H55444   8.533  11.636   3.959  0.6224  0.1675  1.2634
  411MOL0     H55445   8.425  11.492   4.183 -0.3428  1.0903 -1.4269
  411MOL0     H55446   8.507  11.243   4.244 -2.0075  0.9869  1.3293
  411MOL0     H55447   8.884  10.988   3.996 -1.1958 -1.1626 -2.1579
  411MOL0     H55448   9.030  10.789   4.051 -0.3396 -0.1739  1.9036
  411MOL0     H55449   8.879  10.429   4.254 -0.7421 -3.1445 -0.6927
  411MOL0     H55450   8.801  10.397   4.092  0.3094 -2.5519  0.7269
  411MOL0     H55451   9.002  10.307   4.009 -0.4733  2.7531  0.6346
  411MOL0     H55452   9.106  10.350   4.139  0.5173 -0.4538 -1.1075
  411MOL0     H55453   8.972  10.184   4.288  2.2698 -1.6682 -0.3361
  411MOL0     H55454   8.857  10.154   4.160 -0.2898 -1.7561  3.7150
  411MOL0     H55455   9.132  10.085   4.077 -0.3981  2.3897  1.5088
  411MOL0     H55456   8.969  10.013   4.046  2.5722  2.2331 -3.3574
  411MOL0     H55457   9.071   9.854   4.170  3.5356  0.8069 -1.6418
  411MOL0     H55458   8.965   9.937   4.285 -0.6423 -0.3461 -0.7663
  411MOL0     H55459   9.273   9.948   4.247 -2.5002 -1.0105 -3.0642
  411MOL0     H55460   9.201  10.082   4.325 -2.3226  0.3082 -1.0669
  411MOL0     H55461   9.155   9.808   4.430  4.4825 -1.2023 -2.9269
  411MOL0     H55462   9.114   9.966   4.499  0.6381  2.6522 -1.6277
  411MOL0     H55463   9.412   9.852   4.479  2.0346  0.8605  0.9509
  411MOL0     H55464   9.375  10.016   4.518 -0.1168  0.2699 -1.1095
  411MOL0     H55465   8.674  10.567   4.153 -0.6464  2.4212  3.1615
  411MOL0     H55466   8.536  10.732   4.084  0.3569 -0.8193  4.4786
  411MOL0     H55467   8.459  11.145   3.827 -0.8525  1.6834 -1.1787
  411MOL0     H55468   8.391  11.377   3.780  1.0158  1.3574  0.2424
  411MOL0     H55469   7.239  11.633   4.774 -0.9302  1.5684  0.3571
  411MOL0     H55470   7.052  11.534   4.911 -1.5721  2.2447 -1.3588
  411MOL0     H55471   6.766  11.317   5.045 -0.0425 -1.5351 -0.2193
  411MOL0     H55472   6.550  11.257   5.155  0.3280  2.2941  0.3144
  411MOL0     H55473   6.311  11.421   5.423  0.6862  1.6491 -0.3759
  411MOL0     H55474   6.433  11.533   5.438 -0.8233  0.6148 -1.6866
  411MOL0     H55475   6.328  11.496   5.643 -1.9126 -0.1978 -2.4218
  411MOL0     H55476   6.497  11.421   5.664  0.9839 -1.6667 -2.0034
  411MOL0     H55477   6.371  11.195   5.626 -0.1113  0.8968 -1.2188
  411MOL0     H55478   6.225  11.298   5.638  0.0403  1.4189  0.3488
  411MOL0     H55479   6.284  11.183   5.859 -2.8750  0.7915  0.4842
  411MOL0     H55480   6.431  11.258   5.865  0.2910 -1.4592  0.6896
  411MOL0     H55481   6.186  11.574   5.991 -0.6638 -1.2454  2.2364
  411MOL0     H55482   6.688  11.429   5.521  1.2221 -5.5839  1.0447
  411MOL0     H55483   6.917  11.616   5.407 -1.9558 -0.9307 -2.8697
  411MOL0     H55484   6.898  11.509   5.547  1.5636  1.7648  0.9301
  411MOL0     H55485   7.025  11.477   5.423  0.3984  0.8715  0.8104
  412MOL0     O55486   7.628   4.870   6.989 -0.1379 -0.1522 -1.1405
  412MOL0     C55487   7.653   4.766   6.931 -0.4616  0.0742  0.1994
  412MOL0     O55488   7.781   4.725   6.903 -0.3074 -0.2184  0.2428
  412MOL0     C55489   7.896   4.771   6.957 -0.4034  0.0399 -0.0166
  412MOL0     C55490   7.998   4.832   6.890  0.4813 -0.6645 -0.3614
  412MOL0     C55491   8.110   4.887   6.956 -0.1324  0.1676  1.3862
  412MOL0     C55492   8.117   4.887   7.092 -0.1946 -1.2040  0.4577
  412MOL0     O55493   8.222   4.947   7.166 -2.0107 -0.1965  0.0666
  412MOL0     C55494   8.354   4.902   7.153 -0.0647 -0.4554  0.2324
  412MOL0     C55495   8.371   4.786   7.234 -0.3301  0.1200 -0.8855
  412MOL0     C55496   8.495   4.698   7.181 -0.4689  0.8507 -0.1364
  412MOL0     C55497   8.517   4.554   7.223 -0.4661 -0.5174  0.0345
  412MOL0     C55498   8.663   4.511   7.186  0.6470 -0.1220 -0.0724
  412MOL0     C55499   8.706   4.553   7.046 -0.2487  0.3070  0.4796
  412MOL0     C55500   8.842   4.484   7.014  0.3810 -1.1176  0.3330
  412MOL0     C55501   8.946   4.500   7.125 -0.8713 -0.7971  0.4462
  412MOL0     N55502   9.082   4.477   7.070 -0.6070 -0.2818  0.7953
  412MOL0     C55503   9.139   4.356   7.047 -0.3639  0.4341 -1.4319
  412MOL0     C55504   9.273   4.388   7.058 -0.8173 -0.0010 -0.6703
  412MOL0     C55505   9.386   4.270   7.044 -0.2551  0.1900  0.2251
  412MOL0     C55506   9.488   4.294   7.155  0.9207  0.1311  0.5773
  412MOL0     C55507   9.442   4.230   7.282 -0.2669 -0.8401  0.1791
  412MOL0     C55508   9.526   4.263   7.405 -0.9518  0.3441 -0.3085
  412MOL0     O55509   9.669   4.243   7.387  0.1236  0.2276  0.9537
  412MOL0     C55510   9.748   4.232   7.491  0.4296  0.6624 -0.1469
  412MOL0     C55511   9.781   4.342   7.568 -1.7291 -0.0647  0.8586
  412MOL0     C55512   9.881   4.328   7.671  0.1815 -0.2811 -0.9082
  412MOL0     C55513   9.944   4.213   7.707  0.8137  0.4935 -0.0888
  412MOL0     C55514  10.038   4.194   7.821  1.0573  0.0500  0.7723
  412MOL0     O55515  10.097   4.312   7.861  0.3624  1.1441  1.1993
  412MOL0     C55516  10.188   4.311   7.960  0.0939 -0.3357 -0.7338
  412MOL0     C55517  10.282   4.406   7.952  0.1591  0.2440 -0.8733
  412MOL0     C55518  10.384   4.416   8.050  0.4593 -0.5062  0.4978
  412MOL0     C55519  10.391   4.334   8.156 -0.6140  0.0878 -0.1718
  412MOL0     O55520  10.500   4.351   8.249 -0.2580 -0.2351  0.5971
  412MOL0     C55521  10.489   4.302   8.380 -0.2683 -0.2067 -0.3782
  412MOL0     C55522  10.614   4.359   8.459  0.0433 -0.5249 -0.0697
  412MOL0     C55523  10.635   4.269   8.585 -0.1552 -0.0380  0.4227
  412MOL0     C55524  10.757   4.309   8.676  0.8328 -0.6459  0.8533
  412MOL0     C55525  10.787   4.202   8.783 -0.2679 -0.2426 -0.3826
  412MOL0     C55526  10.685   4.180   8.888 -0.6849  0.1600 -0.5313
  412MOL0     C55527  10.700   4.049   8.965  0.7800  0.3872  0.6027
  412MOL0     C55528  10.598   3.938   8.926 -0.2837 -0.8184  0.2984
  412MOL0    Cl55529  10.591   3.916   8.749 -0.0389 -0.0889  0.0332
  412MOL0     C55530  10.292   4.231   8.167 -0.0734  0.0568 -0.1647
  412MOL0     C55531  10.199   4.216   8.064  0.0868 -0.4555 -0.8861
  412MOL0     O55532  10.068   4.080   7.860 -0.3343 -0.7543 -0.5431
  412MOL0     C55533   9.908   4.108   7.633  0.7959  2.3917  0.5568
  412MOL0     C55534   9.816   4.118   7.518 -0.1461  0.4135 -0.3813
  412MOL0     N55535   9.287   4.519   7.091  0.1387 -0.0458 -0.2858
  412MOL0     N55536   9.174   4.580   7.086 -0.3771  0.1459  0.3983
  412MOL0     C55537   8.019   4.821   7.166  0.5364  0.0246  0.3546
  412MOL0     C55538   7.907   4.770   7.094 -0.7399  0.7087  0.7486
  412MOL0     C55539   7.534   4.688   6.888  0.4453  0.3386  0.0840
  412MOL0     C55540   7.562   4.564   6.821 -0.7382 -0.7451  0.0006
  412MOL0     C55541   7.463   4.468   6.794  0.0014 -0.1007 -0.7256
  412MOL0     C55542   7.335   4.492   6.826 -0.1461 -0.0100  0.2546
  412MOL0     O55543   7.236   4.407   6.812  0.2698 -0.3248  0.0731
  412MOL0     C55544   7.174   4.364   6.944 -0.3967 -0.0178  0.6670
  412MOL0     C55545   7.041   4.284   6.914  0.2516 -0.2674 -0.0539
  412MOL0     C55546   6.939   4.359   6.816  1.4739  0.3683  0.2647
  412MOL0     C55547   6.827   4.445   6.884  0.3148  1.1976  0.3803
  412MOL0     C55548   6.882   4.543   6.979  1.1137  0.1055  0.0737
  412MOL0     C55549   6.914   4.629   7.047 -0.1156 -0.1806  0.7124
  412MOL0     C55550   7.315   4.613   6.885  0.1664 -0.4950 -0.3408
  412MOL0     C55551   7.400   4.710   6.927 -0.0342 -0.2719  0.3131
  412MOL0     C55552   7.331   4.819   7.003 -0.2159 -0.0108 -0.3683
  412MOL0     H55553   8.000   4.837   6.781  3.9674  2.3739 -0.3617
  412MOL0     H55554   8.171   4.947   6.889  1.1042  0.4976  2.7458
  412MOL0     H55555   8.376   4.887   7.047 -1.9454  1.2520 -0.4717
  412MOL0     H55556   8.413   4.986   7.190 -1.7306  1.2597 -0.8183
  412MOL0     H55557   8.276   4.735   7.217 -1.2643  1.8704 -1.0737
  412MOL0     H55558   8.383   4.810   7.340 -1.7244  0.3371 -0.7641
  412MOL0     H55559   8.588   4.749   7.208 -0.8217  1.6530 -0.3788
  412MOL0     H55560   8.487   4.705   7.072 -0.9826  3.5412  0.0052
  412MOL0     H55561   8.504   4.535   7.330  1.9313 -0.5359  0.3733
  412MOL0     H55562   8.456   4.494   7.154  1.6081 -0.0300 -2.3670
  412MOL0     H55563   8.731   4.546   7.264  0.8387  1.4355 -0.9014
  412MOL0     H55564   8.669   4.402   7.199 -0.8443 -0.0608  1.6142
  412MOL0     H55565   8.638   4.510   6.972 -0.6266 -0.7302  1.3965
  412MOL0     H55566   8.711   4.662   7.041  2.1884  0.3772  2.2926
  412MOL0     H55567   8.882   4.531   6.924 -0.9631 -1.2843 -0.3631
  412MOL0     H55568   8.832   4.379   6.988  2.0245 -0.9746 -1.0986
  412MOL0     H55569   8.934   4.599   7.168 -5.1713 -0.0952 -1.7545
  412MOL0     H55570   8.930   4.425   7.203 -2.6684 -2.0498 -1.0250
  412MOL0     H55571   9.119   4.250   7.049 -0.5392  0.4639  0.4104
  412MOL0     H55572   9.342   4.170   7.046 -1.6010  0.7777  0.7594
  412MOL0     H55573   9.450   4.289   6.958  0.2342 -1.6057  0.1496
  412MOL0     H55574   9.581   4.250   7.120  1.2553 -0.8038  2.5142
  412MOL0     H55575   9.505   4.402   7.166  1.4989  0.1291 -0.2534
  412MOL0     H55576   9.452   4.124   7.257  2.7389  0.4291 -5.7748
  412MOL0     H55577   9.338   4.252   7.308 -0.6046 -1.7543 -0.3167
  412MOL0     H55578   9.485   4.214   7.493 -2.9194  2.0224 -0.2061
  412MOL0     H55579   9.500   4.368   7.425  3.0885  1.3797  0.4709
  412MOL0     H55580   9.732   4.438   7.555 -3.8493 -1.3050 -1.2062
  412MOL0     H55581   9.904   4.418   7.726 -1.7362  0.6029 -1.4761
  412MOL0     H55582  10.286   4.497   7.893  1.4831  2.1496  1.9069
  412MOL0     H55583  10.452   4.501   8.045  0.8829 -0.8299  0.7483
  412MOL0     H55584  10.400   4.347   8.426 -1.4760 -1.2344 -1.6205
  412MOL0     H55585  10.488   4.193   8.381 -4.5911 -0.3628  1.1736
  412MOL0     H55586  10.694   4.343   8.386  0.5067  0.8351  0.1037
  412MOL0     H55587  10.591   4.462   8.489 -2.3634 -1.4958  1.7204
  412MOL0     H55588  10.555   4.273   8.659  2.4435 -3.2905  3.8301
  412MOL0     H55589  10.642   4.167   8.545 -2.0176 -0.6742  1.6332
  412MOL0     H55590  10.745   4.403   8.731 -0.2387  1.2363 -2.2961
  412MOL0     H55591  10.855   4.323   8.630  0.3094  1.9281  0.3440
  412MOL0     H55592  10.886   4.226   8.823 -1.0519  2.2681  0.2820
  412MOL0     H55593  10.809   4.108   8.732  1.1218 -0.6940  0.9691
  412MOL0     H55594  10.699   4.270   8.949 -0.3459  0.9189 -1.6832
  412MOL0     H55595  10.587   4.185   8.839 -0.4280 -0.0865 -1.0820
  412MOL0     H55596  10.683   4.080   9.069 -3.9212  3.3012 -0.6968
  412MOL0     H55597  10.802   4.011   8.957  0.4042 -1.0248  2.0855
  412MOL0     H55598  10.645   3.849   8.968  3.4364  1.6644  1.8904
  412MOL0     H55599  10.505   3.964   8.978 -0.2875 -0.1041 -0.0526
  412MOL0     H55600  10.277   4.165   8.251 -1.1882  0.8007  0.2356
  412MOL0     H55601  10.117   4.147   8.084 -0.6298  0.3823 -0.8545
  412MOL0     H55602   9.955   4.011   7.640  0.3825  2.0650 -0.8555
  412MOL0     H55603   9.813   4.035   7.448 -3.2202  0.3849 -0.3482
  412MOL0     H55604   8.033   4.806   7.273  2.4544 -3.4495 -0.2225
  412MOL0     H55605   7.840   4.710   7.153 -0.1508  0.7265  1.4572
  412MOL0     H55606   7.666   4.539   6.804 -0.0881  0.8011  1.3419
  412MOL0     H55607   7.483   4.370   6.751 -1.3077 -0.2780 -0.9644
  412MOL0     H55608   7.165   4.444   7.019 -2.0646 -0.8596  1.4100
  412MOL0     H55609   7.234   4.295   7.003  0.6566  0.6486  0.4125
  412MOL0     H55610   6.987   4.264   7.007  1.8896  1.7248  1.4227
  412MOL0     H55611   7.063   4.181   6.885 -0.9501 -0.2976 -0.9207
  412MOL0     H55612   6.891   4.288   6.748  0.2615 -0.4676  1.9307
  412MOL0     H55613   6.991   4.416   6.738  2.4530 -2.7657 -1.5574
  412MOL0     H55614   6.769   4.490   6.803  1.2679  1.2687 -0.2821
  412MOL0     H55615   6.759   4.376   6.935 -1.3541  0.9983 -1.9334
  412MOL0     H55616   6.966   4.701   7.107 -0.3394  1.2849 -0.7636
  412MOL0     H55617   7.213   4.631   6.916  0.1067  1.1712 -1.3700
  412MOL0     H55618   7.369   4.815   7.105  1.2029 -0.1068 -0.8811
  412MOL0     H55619   7.358   4.921   6.973 -0.8807  0.2829 -0.0137
  412MOL0     H55620   7.222   4.808   7.013 -0.5773  1.5025 -2.0453
  413MOL0     O55621   3.578   9.698   5.072  0.2600  0.4010 -0.5996
  413MOL0     C55622   3.578   9.582   5.043 -0.2425  0.2998 -0.7008
  413MOL0     O55623   3.498   9.487   5.096  0.4686  0.0546 -0.0279
  413MOL0     C55624   3.428   9.521   5.214 -0.0956 -0.6478  0.3704
  413MOL0     C55625   3.303   9.462   5.212 -0.1472 -0.0136  0.1417
  413MOL0     C55626   3.221   9.484   5.328  0.4405  0.1987 -0.1355
  413MOL0     C55627   3.258   9.564   5.441 -0.1301  0.9628  0.0740
  413MOL0     O55628   3.172   9.587   5.548 -0.0334 -0.3285  0.0706
  413MOL0     C55629   3.129   9.723   5.536  0.1872  0.6285 -0.2337
  413MOL0     C55630   3.027   9.737   5.656  0.6522 -0.3340 -0.1851
  413MOL0     C55631   2.893   9.674   5.625 -0.3907 -0.4682  0.2085
  413MOL0     C55632   2.820   9.646   5.758 -0.4017 -1.2068  1.1755
  413MOL0     C55633   2.680   9.592   5.737  0.4052 -0.3709  0.4320
  413MOL0     C55634   2.595   9.580   5.852 -0.1559  0.4522 -0.5445
  413MOL0     C55635   2.453   9.540   5.832 -1.6443 -0.0005  1.1677
  413MOL0     C55636   2.433   9.414   5.750 -0.3273 -0.2739 -0.5020
  413MOL0     N55637   2.399   9.426   5.612  0.2681 -1.7857 -0.6081
  413MOL0     C55638   2.285   9.496   5.580  0.3575  0.2790  0.4320
  413MOL0     C55639   2.276   9.490   5.444  0.1125 -0.7975  0.7571
  413MOL0     C55640   2.150   9.537   5.372 -0.1615 -0.0852  0.8070
  413MOL0     C55641   2.120   9.448   5.250 -1.0124 -0.6157 -0.1410
  413MOL0     C55642   2.028   9.525   5.154 -0.2222  0.6508  0.8516
  413MOL0     C55643   1.912   9.613   5.211 -0.6019  0.4704 -0.0932
  413MOL0     O55644   1.841   9.657   5.106  0.4356 -0.0732 -0.2474
  413MOL0     C55645   1.746   9.755   5.121  0.7834 -0.1707 -1.5697
  413MOL0     C55646   1.719   9.827   5.249  0.0053  1.0490  0.0761
  413MOL0     C55647   1.635   9.935   5.253  0.3882  0.3537  0.0002
  413MOL0     C55648   1.552   9.956   5.137  0.9577 -0.0150 -0.0453
  413MOL0     C55649   1.438  10.050   5.151 -0.1093  0.6124 -0.2816
  413MOL0     O55650   1.449  10.143   5.255 -0.5071 -0.4177  0.0884
  413MOL0     C55651   1.371  10.255   5.248  0.1650 -0.6739  0.8833
  413MOL0     C55652   1.242  10.255   5.308 -0.4441 -0.1001  0.1111
  413MOL0     C55653   1.160  10.369   5.295 -0.0504 -0.0600  0.2367
  413MOL0     C55654   1.194  10.477   5.214  0.0920  0.8425  0.8627
  413MOL0     O55655   1.128  10.597   5.196 -0.2005  0.8288 -0.5771
  413MOL0     C55656   1.063  10.646   5.311 -0.0178  0.2554  0.2416
  413MOL0     C55657   1.047  10.793   5.300 -0.7579 -0.8991 -0.0485
  413MOL0     C55658   1.181  10.865   5.344  0.9731  0.0762 -0.4851
  413MOL0     C55659   1.165  11.015   5.373  0.4840  0.8129  0.0746
  413MOL0     C55660   1.115  11.049   5.502 -0.1442 -1.4984  0.0078
  413MOL0     C55661   1.057  11.191   5.497  0.1282  0.1809  0.5411
  413MOL0     C55662   0.998  11.229   5.628 -0.1156  0.6471 -0.2806
  413MOL0     C55663   0.879  11.135   5.674  0.8355  1.2032  0.5128
  413MOL0    Cl55664   0.789  11.194   5.823 -0.1018 -0.2686 -0.3554
  413MOL0     C55665   1.307  10.462   5.141 -0.1627 -0.1558  0.4822
  413MOL0     C55666   1.398  10.363   5.167 -0.4425 -0.0783 -0.1477
  413MOL0     O55667   1.339  10.029   5.082  0.9504 -0.5031 -0.6904
  413MOL0     C55668   1.565   9.872   5.022 -0.3609  0.1182 -0.3219
  413MOL0     C55669   1.664   9.773   5.016  0.1064  0.3492 -0.3866
  413MOL0     N55670   2.394   9.426   5.397 -0.4145 -0.5363  0.3177
  413MOL0     N55671   2.473   9.393   5.498  0.1956  0.5716  0.8342
  413MOL0     C55672   3.376   9.637   5.427  0.1503 -0.1686  0.2690
  413MOL0     C55673   3.467   9.612   5.327 -0.9987  1.2008  1.3282
  413MOL0     C55674   3.672   9.547   4.932  0.5294  0.5337 -0.3253
  413MOL0     C55675   3.637   9.449   4.838  0.5805  1.0131  0.0484
  413MOL0     C55676   3.715   9.411   4.736 -0.2659 -0.5269  0.0832
  413MOL0     C55677   3.834   9.469   4.708  0.3564  0.2067  0.4770
  413MOL0     O55678   3.900   9.421   4.599  0.3767 -0.3026 -0.7191
  413MOL0     C55679   4.026   9.472   4.555  0.4599 -0.9137 -0.3209
  413MOL0     C55680   4.068   9.395   4.426  0.0947  0.6636 -0.5117
  413MOL0     C55681   4.021   9.476   4.296  0.4809 -0.0459 -0.3921
  413MOL0     C55682   4.041   9.402   4.160 -0.3672 -0.5344 -0.6985
  413MOL0     C55683   4.049   9.503   4.056 -0.0671 -0.2582  0.2737
  413MOL0     C55684   4.052   9.582   3.962  0.0391 -0.7121 -0.2703
  413MOL0     C55685   3.868   9.584   4.787 -0.0692 -0.4000 -1.0184
  413MOL0     C55686   3.787   9.621   4.906  1.0331 -0.4463  0.0159
  413MOL0     C55687   3.843   9.728   4.988  0.3228 -0.2834  0.5229
  413MOL0     H55688   3.269   9.407   5.125  0.7713 -2.2265  1.1258
  413MOL0     H55689   3.124   9.436   5.332 -1.4398  3.5461 -1.3351
  413MOL0     H55690   3.209   9.796   5.550  0.4400  0.0401  1.6152
  413MOL0     H55691   3.078   9.742   5.440  1.4548 -0.0421 -1.0623
  413MOL0     H55692   2.998   9.842   5.664 -2.4788 -1.1642  0.6338
  413MOL0     H55693   3.074   9.708   5.750  1.2421  1.5812  0.1560
  413MOL0     H55694   2.912   9.585   5.565  1.6572  0.1602 -0.1291
  413MOL0     H55695   2.837   9.746   5.564 -0.2662 -0.0254  0.6015
  413MOL0     H55696   2.876   9.566   5.808 -0.0344  0.6905  4.0102
  413MOL0     H55697   2.804   9.737   5.817  1.1331 -1.3019  1.7755
  413MOL0     H55698   2.641   9.668   5.668  1.0135 -2.9122 -3.0020
  413MOL0     H55699   2.689   9.507   5.668 -0.3662  0.0892 -0.2608
  413MOL0     H55700   2.634   9.501   5.918 -0.5381  1.5954  1.1117
  413MOL0     H55701   2.598   9.670   5.914 -0.0987  1.1042 -1.4813
  413MOL0     H55702   2.396   9.618   5.779  2.5438  1.5880 -1.5632
  413MOL0     H55703   2.407   9.520   5.930 -0.6258 -1.3051  1.4021
  413MOL0     H55704   2.512   9.341   5.770 -2.1182 -1.6461  2.3004
  413MOL0     H55705   2.342   9.364   5.783 -0.4464  0.9145  1.1415
  413MOL0     H55706   2.213   9.550   5.641 -0.4173  1.7751 -1.6881
  413MOL0     H55707   2.060   9.541   5.435  0.4696 -1.6210  1.8631
  413MOL0     H55708   2.173   9.641   5.346  0.0376 -0.4684 -0.6123
  413MOL0     H55709   2.211   9.411   5.201 -1.1592 -2.2663  0.7571
  413MOL0     H55710   2.062   9.362   5.287 -1.8020 -1.6435 -3.3969
  413MOL0     H55711   1.990   9.459   5.076  1.1238 -0.1262  0.8399
  413MOL0     H55712   2.084   9.604   5.104 -0.5356 -0.3611 -1.2311
  413MOL0     H55713   1.930   9.685   5.291  1.8883  1.6619 -1.5961
  413MOL0     H55714   1.843   9.541   5.257 -0.0226 -1.1535 -1.6507
  413MOL0     H55715   1.769   9.794   5.340 -0.2493  1.5331  0.3988
  413MOL0     H55716   1.634   9.997   5.342  0.8120 -2.2224  1.9279
  413MOL0     H55717   1.219  10.175   5.378  3.2343 -0.8069  0.7140
  413MOL0     H55718   1.067  10.373   5.349 -0.7576 -2.0233 -0.7475
  413MOL0     H55719   0.967  10.594   5.308 -1.3953  2.6246  0.9546
  413MOL0     H55720   1.125  10.615   5.396  1.2869 -1.6156 -1.3173
  413MOL0     H55721   1.025  10.820   5.196 -0.4166  1.4934  0.4450
  413MOL0     H55722   0.963  10.824   5.362  0.8953 -0.1669  1.9675
  413MOL0     H55723   1.215  10.818   5.437  0.4529  1.1260  0.2561
  413MOL0     H55724   1.253  10.858   5.261  0.5954  0.7591 -0.8748
  413MOL0     H55725   1.090  11.045   5.300 -0.3480 -1.6132 -0.1824
  413MOL0     H55726   1.256  11.073   5.356 -0.1403  1.4320 -1.2667
  413MOL0     H55727   1.193  11.040   5.578 -0.0728  2.2697  0.5676
  413MOL0     H55728   1.030  10.987   5.528  0.6277 -2.1363  1.0771
  413MOL0     H55729   1.138  11.264   5.489  0.8270 -0.6937 -0.8066
  413MOL0     H55730   0.985  11.204   5.416 -0.3184  3.1709  1.2707
  413MOL0     H55731   0.970  11.335   5.621  0.2881  0.9602  1.9179
  413MOL0     H55732   1.080  11.232   5.702 -1.3671  0.9833  1.1422
  413MOL0     H55733   0.811  11.128   5.588 -0.9372 -1.1694  1.9871
  413MOL0     H55734   0.915  11.035   5.701  2.7623  2.6531  4.0014
  413MOL0     H55735   1.336  10.538   5.070 -2.2459  1.4664  1.2494
  413MOL0     H55736   1.495  10.372   5.120 -0.8149  0.0667 -0.9055
  413MOL0     H55737   1.506   9.908   4.938  0.4297  2.8640  0.1851
  413MOL0     H55738   1.671   9.712   4.926 -0.5762 -0.1663 -0.0974
  413MOL0     H55739   3.410   9.716   5.493 -1.4965  0.4344  0.4574
  413MOL0     H55740   3.558   9.671   5.320 -1.1357  1.3540  0.7934
  413MOL0     H55741   3.547   9.390   4.852  1.9722 -1.5669 -1.1074
  413MOL0     H55742   3.679   9.337   4.666  3.9807 -1.5440 -1.3079
  413MOL0     H55743   4.100   9.458   4.635  0.0552  0.6753  0.3717
  413MOL0     H55744   4.029   9.580   4.536  1.5554 -1.2022 -1.9460
  413MOL0     H55745   4.031   9.292   4.430 -2.3908  1.5195 -0.0531
  413MOL0     H55746   4.176   9.379   4.422 -0.0176 -0.0977 -0.8112
  413MOL0     H55747   4.078   9.570   4.296  1.7015 -0.6896  2.2713
  413MOL0     H55748   3.915   9.502   4.312  0.7259  1.7522 -1.4226
  413MOL0     H55749   4.136   9.349   4.164  0.4126  0.8605  0.2517
  413MOL0     H55750   3.964   9.326   4.145 -0.6993 -0.5644  0.8838
  413MOL0     H55751   4.061   9.642   3.874  0.0903  0.8699  0.7627
  413MOL0     H55752   3.964   9.632   4.770 -0.0269  0.0806  0.4552
  413MOL0     H55753   3.841   9.701   5.094  2.0572 -4.3438 -0.2984
  413MOL0     H55754   3.942   9.764   4.960 -0.5337  2.3534  0.5849
  413MOL0     H55755   3.777   9.815   4.982  0.3764 -0.3413 -1.8538
  414MOL0     O55756   0.904   1.873   6.614 -0.0654 -0.1885 -0.2001
  414MOL0     C55757   0.852   1.971   6.662 -0.0726  0.8374  0.2205
  414MOL0     O55758   0.829   2.088   6.600 -0.3099  0.1382  0.4108
  414MOL0     C55759   0.885   2.109   6.476 -0.3125  0.2522  0.6514
  414MOL0     C55760   0.832   2.061   6.362  0.5100  0.4471  0.3525
  414MOL0     C55761   0.891   2.081   6.232 -0.1200  1.3605  0.2049
  414MOL0     C55762   1.019   2.137   6.219 -0.1590  0.6674 -0.8351
  414MOL0     O55763   1.082   2.157   6.101 -0.0547 -0.4149  0.3711
  414MOL0     C55764   1.033   2.102   5.981 -0.0075 -0.3391  0.2069
  414MOL0     C55765   1.123   2.136   5.857 -0.4191 -0.6283 -0.7169
  414MOL0     C55766   1.276   2.082   5.862  0.3777 -0.1332 -1.6152
  414MOL0     C55767   1.299   1.929   5.890  0.1594 -1.8633  0.1409
  414MOL0     C55768   1.450   1.900   5.918  0.5568  0.0393 -0.5178
  414MOL0     C55769   1.481   1.748   5.930  0.1658  0.6205 -0.8087
  414MOL0     C55770   1.530   1.669   5.805  0.2679  0.5804  0.5671
  414MOL0     C55771   1.419   1.651   5.700  1.5075  0.7815 -0.2211
  414MOL0     N55772   1.459   1.534   5.625  0.3712  0.1583  0.4099
  414MOL0     C55773   1.459   1.404   5.672  0.3422 -0.3904 -0.1555
  414MOL0     C55774   1.490   1.330   5.566  0.5905  0.3552 -0.6368
  414MOL0     C55775   1.479   1.184   5.556 -0.1376  0.0727 -0.0938
  414MOL0     C55776   1.595   1.097   5.527  0.5225 -0.0010  0.2868
  414MOL0     C55777   1.676   1.139   5.402 -0.7253  0.4924  0.0124
  414MOL0     C55778   1.604   1.100   5.268  0.3912 -0.5386  0.4961
  414MOL0     O55779   1.700   1.039   5.174 -0.7743  0.4508 -0.3495
  414MOL0     C55780   1.643   0.960   5.071  0.2688  0.5936  0.5802
  414MOL0     C55781   1.521   0.971   5.009 -0.4628  0.2545 -0.5636
  414MOL0     C55782   1.480   0.897   4.891 -0.7178 -0.3579  0.4633
  414MOL0     C55783   1.562   0.786   4.864 -0.7773 -1.4578 -0.2926
  414MOL0     C55784   1.532   0.706   4.745  0.5602  0.2920 -0.2056
  414MOL0     O55785   1.634   0.639   4.670 -0.5032 -0.6885 -0.3084
  414MOL0     C55786   1.586   0.558   4.573  0.4318  1.2381  0.3278
  414MOL0     C55787   1.599   0.416   4.590 -0.1323 -0.7127  0.1929
  414MOL0     C55788   1.561   0.327   4.491 -0.2251 -0.4788  0.5297
  414MOL0     C55789   1.492   0.379   4.375 -0.8798  0.9154  0.4020
  414MOL0     O55790   1.470   0.287   4.274  0.0308  0.1994  0.6255
  414MOL0     C55791   1.430   0.322   4.144  0.5893 -0.3506 -1.3749
  414MOL0     C55792   1.501   0.220   4.057 -0.5916 -0.1251 -0.2074
  414MOL0     C55793   1.532   0.074   4.106  0.2804  0.5913 -0.7888
  414MOL0     C55794   1.413   0.000   4.168 -0.1336 -0.5356  0.0124
  414MOL0     C55795   1.436  -0.117   4.277  0.8937  1.0666  0.7121
  414MOL0     C55796   1.301  -0.155   4.355  1.2818  0.1934  0.8973
  414MOL0     C55797   1.314  -0.283   4.444 -0.1184  0.2131  0.2494
  414MOL0     C55798   1.178  -0.318   4.513  0.3590  0.2530  0.0390
  414MOL0    Cl55799   1.202  -0.464   4.608  0.5731  0.3211 -0.3555
  414MOL0     C55800   1.474   0.519   4.367 -0.5684  0.1674  0.5826
  414MOL0     C55801   1.518   0.604   4.465  0.8158 -0.3841 -0.2838
  414MOL0     O55802   1.408   0.692   4.719  0.6701 -0.0680  0.2965
  414MOL0     C55803   1.694   0.778   4.929 -0.0041  0.7605  0.0167
  414MOL0     C55804   1.725   0.855   5.032 -0.7241 -0.5973  0.5557
  414MOL0     N55805   1.533   1.410   5.463  0.8364  0.3680  0.2222
  414MOL0     N55806   1.527   1.535   5.507  1.5419 -0.0877  0.1968
  414MOL0     C55807   1.079   2.190   6.332  0.6341  0.1156 -1.1987
  414MOL0     C55808   1.019   2.172   6.460 -0.0248  0.0306  0.3483
  414MOL0     C55809   0.846   1.986   6.816  0.9070  0.1040  0.7005
  414MOL0     C55810   0.738   2.060   6.862  1.1958  0.1753  0.0933
  414MOL0     C55811   0.697   2.068   6.995 -0.5511 -0.6303 -0.8077
  414MOL0     C55812   0.778   1.995   7.089  0.1635 -0.7340 -0.2596
  414MOL0     O55813   0.751   1.986   7.228  0.0293 -0.7447  0.9136
  414MOL0     C55814   0.635   2.054   7.275  0.0852  0.3311 -0.4526
  414MOL0     C55815   0.623   2.057   7.431  0.0267 -0.2350  0.3983
  414MOL0     C55816   0.607   1.914   7.486 -0.7719 -0.2102  0.2087
  414MOL0     C55817   0.530   1.898   7.621  0.3920 -0.1391  0.2422
  414MOL0     C55818   0.577   1.998   7.723  0.4044 -1.1518  0.4194
  414MOL0     C55819   0.612   2.076   7.817 -0.2331 -0.2085 -0.1812
  414MOL0     C55820   0.891   1.926   7.042  0.8485  0.9337 -0.6567
  414MOL0     C55821   0.931   1.923   6.908 -0.6139 -0.4341  0.1074
  414MOL0     C55822   1.052   1.850   6.864  0.0501 -0.6941  0.5995
  414MOL0     H55823   0.726   2.037   6.361  0.4254  0.7724 -0.8335
  414MOL0     H55824   0.824   2.046   6.154  0.3773 -0.6862  0.6541
  414MOL0     H55825   1.029   1.993   5.987 -1.4174 -0.3827 -0.9366
  414MOL0     H55826   0.928   2.132   5.970  0.4429  1.8719  1.3165
  414MOL0     H55827   1.122   2.245   5.843 -1.4935 -0.7582 -1.7719
  414MOL0     H55828   1.066   2.103   5.770  1.3441  0.3060 -2.2945
  414MOL0     H55829   1.310   2.133   5.953 -1.4739  0.0922 -0.9953
  414MOL0     H55830   1.340   2.127   5.786 -0.3342  2.5942 -0.7200
  414MOL0     H55831   1.249   1.907   5.985  1.6234  2.2779  2.1071
  414MOL0     H55832   1.256   1.859   5.817 -0.2422 -2.1405  0.6301
  414MOL0     H55833   1.513   1.931   5.834  1.1735 -2.8389 -1.2631
  414MOL0     H55834   1.483   1.960   6.003  3.5346 -1.7048 -0.2821
  414MOL0     H55835   1.553   1.729   6.010  0.5102  1.0929 -0.9975
  414MOL0     H55836   1.397   1.696   5.976  0.3231  1.2854  0.2679
  414MOL0     H55837   1.588   1.581   5.833  3.5139  2.0962 -0.8108
  414MOL0     H55838   1.610   1.727   5.758 -0.2335  2.4163  1.8242
  414MOL0     H55839   1.321   1.621   5.737  1.2869 -1.7197 -2.5511
  414MOL0     H55840   1.410   1.742   5.641  1.2747  0.4424 -0.7097
  414MOL0     H55841   1.442   1.373   5.775 -0.7929  0.8677  0.0795
  414MOL0     H55842   1.447   1.160   5.658 -3.5717 -0.2279 -1.1198
  414MOL0     H55843   1.397   1.154   5.491 -2.4408  2.1611  1.6455
  414MOL0     H55844   1.668   1.107   5.608 -0.2968 -0.7251  1.1316
  414MOL0     H55845   1.576   0.991   5.509  2.3864  0.0478 -2.6100
  414MOL0     H55846   1.769   1.080   5.405 -1.9436 -1.4739  1.6676
  414MOL0     H55847   1.708   1.243   5.404  1.1543 -0.0519  2.1006
  414MOL0     H55848   1.562   1.194   5.230  5.2800  1.6023 -0.3162
  414MOL0     H55849   1.520   1.037   5.299 -1.4393  1.4898 -0.0367
  414MOL0     H55850   1.458   1.053   5.044  1.9964  2.2396 -0.4626
  414MOL0     H55851   1.382   0.920   4.850 -1.5043 -1.5285  1.5716
  414MOL0     H55852   1.644   0.375   4.680 -0.0985  1.0866  1.0439
  414MOL0     H55853   1.571   0.223   4.518  1.8155  0.2963  3.2293
  414MOL0     H55854   1.323   0.313   4.124  0.2757  1.1880 -0.5573
  414MOL0     H55855   1.463   0.422   4.116  0.9247  0.7295  2.2907
  414MOL0     H55856   1.454   0.202   3.959 -1.0829 -3.1429  0.4859
  414MOL0     H55857   1.593   0.269   4.024 -0.5023 -1.5651 -2.3280
  414MOL0     H55858   1.563   0.017   4.018 -3.7001 -0.3901 -1.7155
  414MOL0     H55859   1.615   0.084   4.177  0.7068  0.8785 -1.3197
  414MOL0     H55860   1.334  -0.014   4.094 -0.7078  2.6822 -0.1414
  414MOL0     H55861   1.360   0.070   4.234  0.0126 -1.4730  1.1400
  414MOL0     H55862   1.514  -0.086   4.348  3.2431  0.1446 -1.2989
  414MOL0     H55863   1.466  -0.203   4.216 -3.4610 -0.6462  0.6695
  414MOL0     H55864   1.271  -0.071   4.418  1.6971 -1.1529  2.9780
  414MOL0     H55865   1.218  -0.169   4.285  2.9295  1.9594 -1.5820
  414MOL0     H55866   1.386  -0.268   4.525  0.5900  0.1237 -0.3623
  414MOL0     H55867   1.346  -0.363   4.377 -2.8998  1.6684 -3.0794
  414MOL0     H55868   1.149  -0.235   4.578 -1.7138 -0.5308  0.1965
  414MOL0     H55869   1.099  -0.337   4.440  0.0092  1.9304 -0.0490
  414MOL0     H55870   1.422   0.552   4.278 -1.9297 -0.7105  1.0308
  414MOL0     H55871   1.494   0.708   4.443  0.2628  0.3543  3.1756
  414MOL0     H55872   1.757   0.703   4.883 -1.9559  0.7371 -2.8577
  414MOL0     H55873   1.830   0.849   5.058 -0.4630  0.7268 -0.0737
  414MOL0     H55874   1.178   2.234   6.338  0.3515  0.6314  0.1548
  414MOL0     H55875   1.069   2.189   6.554 -1.5940  0.4770  1.1465
  414MOL0     H55876   0.664   2.078   6.784  0.3979 -0.9318  0.5688
  414MOL0     H55877   0.609   2.119   7.030  0.1990 -1.9891  3.7701
  414MOL0     H55878   0.551   1.991   7.244 -0.4616 -0.8061  2.9229
  414MOL0     H55879   0.637   2.155   7.235 -1.5371 -0.0148 -1.5298
  414MOL0     H55880   0.525   2.104   7.445  0.1308 -0.7907  4.2613
  414MOL0     H55881   0.704   2.114   7.477  0.5957  1.8370 -2.8533
  414MOL0     H55882   0.705   1.866   7.486 -2.2778 -3.5883 -1.5950
  414MOL0     H55883   0.558   1.863   7.403  1.0193 -0.0613 -0.9791
  414MOL0     H55884   0.422   1.909   7.609  0.4268  2.2565  1.4954
  414MOL0     H55885   0.547   1.798   7.661  2.6289 -0.8523 -2.2148
  414MOL0     H55886   0.617   2.163   7.880 -2.3913  0.7658 -1.2775
  414MOL0     H55887   0.942   1.862   7.114  0.4533 -1.4438 -2.3741
  414MOL0     H55888   1.139   1.860   6.930  2.5679  3.6330 -2.8153
  414MOL0     H55889   1.037   1.745   6.835 -0.6913 -0.1915 -0.9261
  414MOL0     H55890   1.091   1.908   6.780 -1.5017  3.3210  2.4026
  415MOL0     O55891   0.953   0.909   1.527 -0.7177  1.5068  0.4664
  415MOL0     C55892   1.028   0.969   1.452  0.5619 -0.1247  0.7086
  415MOL0     O55893   1.015   0.986   1.316 -1.0262  0.0281  0.0725
  415MOL0     C55894   0.908   0.923   1.259  0.1067 -0.8369  1.1063
  415MOL0     C55895   0.782   0.978   1.239  0.0388 -0.8382  0.4021
  415MOL0     C55896   0.673   0.906   1.179 -0.9828  0.0571  0.0998
  415MOL0     C55897   0.696   0.767   1.134  0.0434 -0.8642 -0.2819
  415MOL0     O55898   0.588   0.698   1.085 -0.1261  1.3399 -0.2273
  415MOL0     C55899   0.619   0.568   1.035  0.1068  0.4613 -0.3258
  415MOL0     C55900   0.682   0.554   0.903  0.3809  0.8698  0.6082
  415MOL0     C55901   0.574   0.616   0.803  0.0276 -0.8075 -0.0273
  415MOL0     C55902   0.644   0.623   0.668  1.1199 -1.1240  0.7502
  415MOL0     C55903   0.558   0.624   0.536  0.2506 -0.7169  0.8434
  415MOL0     C55904   0.460   0.505   0.527 -0.0030  0.2514 -0.6651
  415MOL0     C55905   0.401   0.476   0.392  0.4958 -0.2758 -0.9315
  415MOL0     C55906   0.280   0.375   0.413 -0.2782  0.4446  0.0844
  415MOL0     N55907   0.212   0.320   0.294  0.8187  0.6076 -0.0488
  415MOL0     C55908   0.071   0.312   0.280 -1.1911 -0.1879 -0.7789
  415MOL0     C55909   0.047   0.228   0.177 -0.6896  0.0129 -0.9633
  415MOL0     C55910  -0.097   0.206   0.127 -0.3410 -0.6185 -0.4382
  415MOL0     C55911  -0.123   0.057   0.091 -0.8383 -0.7835  0.2697
  415MOL0     C55912  -0.264   0.024   0.079  0.5724 -1.1471  0.4875
  415MOL0     C55913  -0.304   0.077  -0.057 -0.1474 -0.8197 -0.2247
  415MOL0     O55914  -0.442   0.053  -0.084  0.1440  0.4922 -0.4068
  415MOL0     C55915  -0.509   0.097  -0.189  0.6767 -0.6102  0.2052
  415MOL0     C55916  -0.467   0.183  -0.291  0.0640 -0.2317 -0.8183
  415MOL0     C55917  -0.553   0.226  -0.396  1.0670 -0.0214 -0.0272
  415MOL0     C55918  -0.680   0.166  -0.410 -0.0871 -0.0319  0.8723
  415MOL0     C55919  -0.766   0.199  -0.527 -0.3778  0.0484  0.8067
  415MOL0     O55920  -0.751   0.320  -0.601 -0.3394  0.4979  0.2583
  415MOL0     C55921  -0.788   0.338  -0.737 -0.0674  0.6895 -0.4306
  415MOL0     C55922  -0.826   0.464  -0.788  0.4228 -0.6358 -0.0278
  415MOL0     C55923  -0.871   0.481  -0.923  0.0624 -0.2508  0.3822
  415MOL0     C55924  -0.873   0.367  -1.009 -0.5249 -0.8420  1.1784
  415MOL0     O55925  -0.915   0.381  -1.142 -0.1040 -0.0041  0.3198
  415MOL0     C55926  -0.988   0.493  -1.192  0.4242  0.2589  0.0972
  415MOL0     C55927  -1.112   0.451  -1.275  0.8557  0.6527  0.6019
  415MOL0     C55928  -1.096   0.341  -1.376 -0.1025  0.0476  0.1392
  415MOL0     C55929  -1.233   0.282  -1.422  0.3851 -1.2507  0.5971
  415MOL0     C55930  -1.198   0.196  -1.551  0.4190  0.3911  0.3374
  415MOL0     C55931  -1.321   0.134  -1.615 -0.7510  0.2183 -0.3683
  415MOL0     C55932  -1.371   0.012  -1.529  0.3876  0.6929 -0.9654
  415MOL0     C55933  -1.514  -0.040  -1.579 -0.1941  0.7061 -0.3018
  415MOL0    Cl55934  -1.640   0.072  -1.531 -0.3662 -1.0379 -0.1610
  415MOL0     C55935  -0.836   0.243  -0.964 -0.2297  0.1413 -0.3980
  415MOL0     C55936  -0.798   0.224  -0.824 -1.5473  0.2362  0.1550
  415MOL0     O55937  -0.862   0.123  -0.547  0.5113 -0.7413 -0.2692
  415MOL0     C55938  -0.722   0.069  -0.314  0.3476  0.1855  0.9745
  415MOL0     C55939  -0.646   0.044  -0.194 -0.5192  0.1565  0.7771
  415MOL0     N55940   0.175   0.192   0.128  0.3186 -0.8605 -0.5310
  415MOL0     N55941   0.274   0.249   0.190 -0.8700 -0.4552 -0.5743
  415MOL0     C55942   0.823   0.711   1.163 -0.5545 -1.3793  0.1311
  415MOL0     C55943   0.921   0.786   1.224  0.5928  0.1384 -0.9672
  415MOL0     C55944   1.143   1.028   1.519  0.1394  0.1420  0.7243
  415MOL0     C55945   1.125   1.149   1.584 -0.0110  0.0964  0.0269
  415MOL0     C55946   1.232   1.233   1.614 -0.1936 -0.4602  0.2173
  415MOL0     C55947   1.361   1.196   1.592  0.1223 -0.3350 -0.9613
  415MOL0     O55948   1.475   1.272   1.619 -0.3534 -0.5697 -0.5376
  415MOL0     C55949   1.468   1.349   1.741  0.3581 -0.1409 -0.6786
  415MOL0     C55950   1.600   1.421   1.751 -0.0919 -0.5463 -0.2869
  415MOL0     C55951   1.701   1.307   1.787  0.2476  0.3527  0.0631
  415MOL0     C55952   1.829   1.366   1.838 -0.1736 -0.5108  0.5167
  415MOL0     C55953   1.941   1.268   1.826  0.6646 -0.8377 -1.0053
  415MOL0     C55954   2.028   1.184   1.819  0.5343 -0.8167 -0.5031
  415MOL0     C55955   1.384   1.071   1.530  0.0552 -0.5283  0.1957
  415MOL0     C55956   1.272   0.987   1.504  0.1802  0.1028  0.0515
  415MOL0     C55957   1.301   0.860   1.437  0.0682  0.2172  0.8113
  415MOL0     H55958   0.766   1.083   1.261  1.1631 -0.3031 -1.1642
  415MOL0     H55959   0.575   0.952   1.173 -0.4954  1.0343 -0.6167
  415MOL0     H55960   0.672   0.501   1.103 -2.6160 -1.9370 -0.3485
  415MOL0     H55961   0.522   0.517   1.031  0.0604  0.2280  2.1975
  415MOL0     H55962   0.701   0.450   0.875 -0.5161  0.6529  0.7578
  415MOL0     H55963   0.775   0.611   0.904 -0.8731  3.2478 -2.6523
  415MOL0     H55964   0.550   0.715   0.842  1.7874  1.3683 -3.8990
  415MOL0     H55965   0.482   0.556   0.805  0.0689 -0.9230 -1.0149
  415MOL0     H55966   0.697   0.719   0.665  3.3714 -2.2761 -3.0212
  415MOL0     H55967   0.722   0.548   0.655  0.3186 -1.4841 -2.8945
  415MOL0     H55968   0.504   0.719   0.536  0.0844 -0.8116  0.6240
  415MOL0     H55969   0.634   0.621   0.457  2.0287 -0.6494  2.4751
  415MOL0     H55970   0.503   0.415   0.570 -0.6354  0.4564  0.4325
  415MOL0     H55971   0.374   0.535   0.587  0.8387  3.9359 -1.0444
  415MOL0     H55972   0.479   0.420   0.339  2.7059  0.7870  1.0140
  415MOL0     H55973   0.370   0.572   0.350  0.2634  0.7625  1.4763
  415MOL0     H55974   0.321   0.295   0.475 -1.3825  1.3274  2.0800
  415MOL0     H55975   0.203   0.411   0.482  1.2985  0.3180  2.0031
  415MOL0     H55976   0.013   0.370   0.351  2.8728 -0.2060  3.0344
  415MOL0     H55977  -0.156   0.248   0.209 -0.6895  0.1718 -1.0785
  415MOL0     H55978  -0.100   0.274   0.042 -0.7324  1.0731  0.8635
  415MOL0     H55979  -0.066   0.027   0.002  2.4871  1.6180  1.3938
  415MOL0     H55980  -0.084  -0.003   0.174  0.3218 -1.5084 -0.7646
  415MOL0     H55981  -0.332   0.069   0.151  0.3538  1.6293 -1.3158
  415MOL0     H55982  -0.276  -0.085   0.075  0.8789 -1.1945 -3.8907
  415MOL0     H55983  -0.242   0.044  -0.140 -2.1547  0.2134 -2.2393
  415MOL0     H55984  -0.290   0.185  -0.065 -3.0240 -0.4050 -0.6876
  415MOL0     H55985  -0.364   0.217  -0.293 -0.8318  2.8916  0.3665
  415MOL0     H55986  -0.508   0.283  -0.477  0.4824  0.3307 -0.1050
  415MOL0     H55987  -0.826   0.552  -0.725  3.4117 -2.7629  3.2745
  415MOL0     H55988  -0.901   0.576  -0.967  2.7172 -0.9836 -3.4254
  415MOL0     H55989  -1.030   0.560  -1.117 -2.4052 -0.7446 -0.4842
  415MOL0     H55990  -0.920   0.546  -1.260  0.6560 -0.0486  0.0861
  415MOL0     H55991  -1.185   0.416  -1.201  3.4607  1.0408  3.5843
  415MOL0     H55992  -1.157   0.538  -1.323 -4.2280 -2.6427 -1.4702
  415MOL0     H55993  -1.038   0.373  -1.463  2.0710 -0.7899  1.2230
  415MOL0     H55994  -1.049   0.256  -1.328 -0.4539 -0.4716 -0.4192
  415MOL0     H55995  -1.289   0.371  -1.453  5.1262  0.7607 -3.7052
  415MOL0     H55996  -1.286   0.230  -1.342 -1.1761 -0.1087  0.3534
  415MOL0     H55997  -1.123   0.122  -1.522  1.2491  0.7005 -0.9344
  415MOL0     H55998  -1.153   0.261  -1.626  0.8259 -0.4676 -0.1801
  415MOL0     H55999  -1.399   0.210  -1.632 -1.5396 -0.1810  1.2891
  415MOL0     H56000  -1.288   0.094  -1.711  0.2276  0.1771 -0.0192
  415MOL0     H56001  -1.367   0.033  -1.421  3.1684  1.2250 -1.0998
  415MOL0     H56002  -1.290  -0.061  -1.531  0.2168  0.3681  1.3473
  415MOL0     H56003  -1.505  -0.059  -1.687 -0.7076 -2.3841  0.1055
  415MOL0     H56004  -1.529  -0.140  -1.538  0.1911  0.8811  0.2768
  415MOL0     H56005  -0.826   0.157  -1.029  1.2243 -0.6454  0.7915
  415MOL0     H56006  -0.762   0.130  -0.783  1.4060  0.9763 -0.4953
  415MOL0     H56007  -0.819   0.024  -0.333  0.8680 -0.4051 -0.4438
  415MOL0     H56008  -0.691  -0.015  -0.115 -0.9078 -2.0144 -0.9585
  415MOL0     H56009   0.854   0.609   1.143 -0.3041 -0.8943 -2.2847
  415MOL0     H56010   1.001   0.719   1.251 -1.6370 -2.3090 -0.0015
  415MOL0     H56011   1.022   1.181   1.597  0.1166  0.5335 -0.0319
  415MOL0     H56012   1.213   1.326   1.667  2.2582  1.6452 -2.2732
  415MOL0     H56013   1.446   1.284   1.826 -3.8113  1.9446  0.1195
  415MOL0     H56014   1.388   1.424   1.745  1.5089  1.1030  2.6038
  415MOL0     H56015   1.597   1.483   1.841  0.2220 -0.2483 -0.4840
  415MOL0     H56016   1.621   1.480   1.662 -3.0046  1.6453  0.3263
  415MOL0     H56017   1.738   1.253   1.699  0.4350  1.4047 -0.5159
  415MOL0     H56018   1.654   1.242   1.862 -0.9467 -1.1821 -1.9063
  415MOL0     H56019   1.846   1.459   1.782  0.7878 -2.9099 -3.5507
  415MOL0     H56020   1.816   1.383   1.945  0.2251  0.5299  0.4168
  415MOL0     H56021   2.102   1.107   1.813  1.1475 -0.4873  1.7496
  415MOL0     H56022   1.484   1.044   1.496  0.6133  1.1696  0.4249
  415MOL0     H56023   1.244   0.768   1.446  1.9312 -1.3265 -1.7076
  415MOL0     H56024   1.308   0.873   1.328  2.8123  4.0478  1.2302
  415MOL0     H56025   1.393   0.832   1.489 -1.1193 -0.4873  2.6453
  416MOL0     O56026   1.165   9.594   8.832 -0.4822  0.1264  0.0014
  416MOL0     C56027   1.109   9.576   8.941  0.2463  0.4016 -1.6400
  416MOL0     O56028   0.973   9.578   8.959 -0.2291 -0.1797  0.7684
  416MOL0     C56029   0.901   9.650   8.865  0.1207 -0.1440  0.1267
  416MOL0     C56030   0.771   9.594   8.837 -0.5330  0.4260  0.5291
  416MOL0     C56031   0.684   9.654   8.746  0.4005  0.6530  0.9262
  416MOL0     C56032   0.728   9.769   8.673 -0.0793 -0.1692  0.0069
  416MOL0     O56033   0.641   9.837   8.596 -0.3512 -0.1022  0.5363
  416MOL0     C56034   0.665   9.845   8.454  0.8798 -1.0140  0.4016
  416MOL0     C56035   0.731   9.978   8.414 -0.6767  1.9485  1.4389
  416MOL0     C56036   0.640  10.101   8.455 -1.0835 -0.0797 -0.7807
  416MOL0     C56037   0.711  10.185   8.569  0.6487  0.3717  0.3601
  416MOL0     C56038   0.625  10.286   8.654  0.1986 -0.7598  0.4284
  416MOL0     C56039   0.536  10.214   8.750  0.7625 -0.3467  0.4654
  416MOL0     C56040   0.621  10.168   8.863  0.0096  0.2796 -0.3422
  416MOL0     C56041   0.549  10.115   8.980 -0.7422  0.5181 -0.1223
  416MOL0     N56042   0.468  10.206   9.067 -0.0809 -0.2635  0.4404
  416MOL0     C56043   0.505  10.336   9.101  0.0045  0.7710 -0.0743
  416MOL0     C56044   0.415  10.373   9.183  0.1007  0.1731  0.3127
  416MOL0     C56045   0.419  10.503   9.245 -0.6696  0.2453 -0.5983
  416MOL0     C56046   0.381  10.617   9.162 -0.4274 -0.0803 -0.5367
  416MOL0     C56047   0.225  10.614   9.145 -0.2104 -0.0446  0.0023
  416MOL0     C56048   0.161  10.738   9.073 -1.0285  0.0376 -0.5763
  416MOL0     O56049   0.218  10.852   9.130 -0.9194  0.8917 -0.7182
  416MOL0     C56050   0.123  10.924   9.194  0.7563  0.4334  0.3884
  416MOL0     C56051   0.127  11.057   9.189  0.0353 -1.1842 -0.5528
  416MOL0     C56052   0.052  11.132   9.278  0.5152  0.5223  0.2790
  416MOL0     C56053  -0.056  11.070   9.357  0.5791  0.2439 -0.2218
  416MOL0     C56054  -0.145  11.159   9.443 -0.2984  0.8370  0.1190
  416MOL0     O56055  -0.233  11.099   9.520  0.2258 -0.5883  0.6703
  416MOL0     C56056  -0.303  11.187   9.604  0.7865 -0.2486  0.8100
  416MOL0     C56057  -0.253  11.213   9.729 -0.2459  0.1917  0.5619
  416MOL0     C56058  -0.325  11.269   9.832  0.0768 -0.9008 -0.8206
  416MOL0     C56059  -0.460  11.307   9.806 -0.7110 -0.4025  0.2900
  416MOL0     O56060  -0.544  11.366   9.893 -0.0072 -0.0925 -0.4404
  416MOL0     C56061  -0.480  11.457   9.991 -0.4181 -0.5694  0.0103
  416MOL0     C56062  -0.585  11.531  10.064 -0.1884  0.1601 -1.1355
  416MOL0     C56063  -0.524  11.622  10.168 -0.4795 -0.6452 -0.1517
  416MOL0     C56064  -0.581  11.593  10.307 -0.5488 -0.3352 -0.4451
  416MOL0     C56065  -0.502  11.664  10.421 -0.1857  0.4789 -0.7682
  416MOL0     C56066  -0.509  11.822  10.414  0.0268  0.3861  0.4778
  416MOL0     C56067  -0.451  11.898  10.534 -0.0504 -0.1926  0.0103
  416MOL0     C56068  -0.481  12.048  10.519 -0.2090  0.3142  0.1178
  416MOL0    Cl56069  -0.370  12.151  10.607  0.0925 -0.0963  0.6160
  416MOL0     C56070  -0.521  11.278   9.671 -0.6481 -0.3790  0.3268
  416MOL0     C56071  -0.439  11.222   9.574 -0.7770  0.6127  0.3976
  416MOL0     O56072  -0.130  11.280   9.429  0.8581  0.0734 -0.2710
  416MOL0     C56073  -0.068  10.929   9.360 -0.0172  0.3117  0.6399
  416MOL0     C56074   0.024  10.860   9.274 -0.3711 -0.3693  0.0528
  416MOL0     N56075   0.314  10.277   9.199 -0.2815  0.0778 -0.3937
  416MOL0     N56076   0.352  10.175   9.129 -0.4957  0.5231 -0.1061
  416MOL0     C56077   0.849   9.819   8.697 -0.5420  0.0041 -0.0093
  416MOL0     C56078   0.935   9.756   8.788  0.1640  0.9006 -0.3248
  416MOL0     C56079   1.198   9.546   9.063  0.0511  0.3487  0.4946
  416MOL0     C56080   1.336   9.573   9.042 -1.0517 -0.3305  0.7174
  416MOL0     C56081   1.434   9.543   9.128  0.0122 -0.8871 -0.9046
  416MOL0     C56082   1.397   9.479   9.243 -0.0068  0.5287 -0.0710
  416MOL0     O56083   1.498   9.447   9.331 -0.1863  0.3594  0.0122
  416MOL0     C56084   1.468   9.414   9.468 -0.1321  0.1555 -0.5243
  416MOL0     C56085   1.578   9.435   9.569  0.3991 -0.6012  0.2259
  416MOL0     C56086   1.669   9.312   9.564  0.2395 -0.1530 -0.5899
  416MOL0     C56087   1.755   9.304   9.699  0.4380 -0.3676  0.3657
  416MOL0     C56088   1.825   9.177   9.688  0.1896  0.4017  0.0441
  416MOL0     C56089   1.878   9.071   9.684  0.1239  0.0691 -0.2337
  416MOL0     C56090   1.265   9.450   9.270 -0.9388  0.0264  0.3596
  416MOL0     C56091   1.162   9.480   9.189 -1.0127 -0.3483 -0.1201
  416MOL0     C56092   1.036   9.403   9.204 -0.6658  0.2725 -0.9578
  416MOL0     H56093   0.750   9.496   8.878 -3.4659 -0.0233 -1.6927
  416MOL0     H56094   0.590   9.601   8.731  0.8211 -0.3184  1.6535
  416MOL0     H56095   0.723   9.765   8.408  1.6064 -0.2043 -0.1306
  416MOL0     H56096   0.563   9.837   8.414  0.5509  2.1342  0.3685
  416MOL0     H56097   0.731   9.969   8.305  0.5488 -1.9015  1.6329
  416MOL0     H56098   0.832   9.990   8.454  0.9739 -0.3395 -1.6460
  416MOL0     H56099   0.536  10.077   8.479 -0.4939 -1.8003  0.2921
  416MOL0     H56100   0.623  10.167   8.369 -2.3839  0.2390 -0.2978
  416MOL0     H56101   0.740  10.109   8.642  0.9989  0.4192  0.2724
  416MOL0     H56102   0.796  10.238   8.524 -0.2254  2.2521  0.8088
  416MOL0     H56103   0.703  10.339   8.710  1.6285  0.5956 -2.6563
  416MOL0     H56104   0.564  10.342   8.583  0.5194  2.5472  2.5410
  416MOL0     H56105   0.456  10.284   8.774 -3.0021 -2.8165 -3.3832
  416MOL0     H56106   0.493  10.123   8.707  1.1898 -0.0425 -0.6544
  416MOL0     H56107   0.693  10.245   8.890 -1.1818  0.5217  2.6072
  416MOL0     H56108   0.686  10.084   8.836 -0.3492 -0.1997  0.2462
  416MOL0     H56109   0.477  10.040   8.945 -1.1597 -0.7121  2.9965
  416MOL0     H56110   0.625  10.069   9.044 -1.3542 -0.0055  0.2482
  416MOL0     H56111   0.595  10.390   9.073  0.5634  2.2695  3.8782
  416MOL0     H56112   0.348  10.502   9.328 -2.7094  2.9785 -2.1560
  416MOL0     H56113   0.523  10.510   9.280 -0.3975 -0.7568 -1.1617
  416MOL0     H56114   0.408  10.701   9.227  2.9191  0.4475 -2.3509
  416MOL0     H56115   0.432  10.621   9.065  2.4963  0.9357  0.9079
  416MOL0     H56116   0.166  10.600   9.236  2.3780  0.7561  1.9233
  416MOL0     H56117   0.189  10.526   9.090  0.4620  0.3869 -1.1784
  416MOL0     H56118   0.056  10.719   9.097 -0.1735 -0.5104  3.6115
  416MOL0     H56119   0.186  10.731   8.967  1.6074 -2.4709  0.0685
  416MOL0     H56120   0.198  11.117   9.132 -1.7897 -1.2485 -3.0460
  416MOL0     H56121   0.064  11.240   9.286 -1.5602  0.8024  0.1254
  416MOL0     H56122  -0.161  11.165   9.760  0.5106  0.0110 -1.7361
  416MOL0     H56123  -0.283  11.268   9.931  2.5573 -1.1086 -1.8051
  416MOL0     H56124  -0.437  11.399  10.072  0.0413  0.6533  0.6620
  416MOL0     H56125  -0.406  11.520   9.941  0.1712 -1.9184 -0.8843
  416MOL0     H56126  -0.643  11.596   9.998 -1.7463  1.4576  1.3191
  416MOL0     H56127  -0.652  11.454  10.105  1.1888 -1.6807 -2.1843
  416MOL0     H56128  -0.416  11.609  10.162 -0.6674 -1.8983 -1.6324
  416MOL0     H56129  -0.554  11.725  10.147  0.1470  0.1796  2.6171
  416MOL0     H56130  -0.575  11.484  10.317  3.0021 -0.1180  1.7392
  416MOL0     H56131  -0.687  11.615  10.316 -0.4155  1.8356 -3.0059
  416MOL0     H56132  -0.403  11.619  10.406 -0.5649 -0.5103 -0.4189
  416MOL0     H56133  -0.532  11.627  10.519 -0.9250  0.5133 -0.9781
  416MOL0     H56134  -0.453  11.868  10.332  0.2964 -0.8550 -0.0605
  416MOL0     H56135  -0.614  11.848  10.399 -0.0335 -0.2443 -0.2609
  416MOL0     H56136  -0.342  11.890  10.542  0.5257  1.5475 -4.0015
  416MOL0     H56137  -0.502  11.862  10.625  1.7192 -1.5756  0.5076
  416MOL0     H56138  -0.457  12.076  10.416 -0.2152  0.1954  0.0836
  416MOL0     H56139  -0.584  12.072  10.549  0.2462 -0.9715  3.0075
  416MOL0     H56140  -0.624  11.308   9.651 -0.5113  1.0201  1.5020
  416MOL0     H56141  -0.485  11.181   9.484  1.6664  3.5102 -2.4160
  416MOL0     H56142  -0.149  10.883   9.415  0.0268 -0.8144 -0.2035
  416MOL0     H56143   0.013  10.753   9.292 -4.5772  0.1631  1.8881
  416MOL0     H56144   0.889   9.913   8.660  0.3552 -0.8036 -1.1513
  416MOL0     H56145   1.027   9.812   8.803 -0.5050  1.9455  0.0167
  416MOL0     H56146   1.367   9.632   8.956 -1.8809 -0.3523  0.3893
  416MOL0     H56147   1.539   9.559   9.104 -0.0463 -1.0970 -1.2973
  416MOL0     H56148   1.428   9.313   9.463  1.1031 -0.5300  1.7264
  416MOL0     H56149   1.387   9.479   9.503  0.0457  2.1307 -3.4088
  416MOL0     H56150   1.533   9.448   9.667 -0.1444  0.3262 -0.1374
  416MOL0     H56151   1.632   9.527   9.546  0.9942 -0.9834  0.0553
  416MOL0     H56152   1.728   9.302   9.472  3.3009 -3.8094  1.4894
  416MOL0     H56153   1.605   9.225   9.556 -0.6421  0.5727 -1.7651
  416MOL0     H56154   1.823   9.390   9.700 -0.2657  0.3886 -3.2809
  416MOL0     H56155   1.686   9.302   9.784 -0.6105 -0.5173 -0.4721
  416MOL0     H56156   1.911   8.970   9.685  0.0833  0.0572  0.6310
  416MOL0     H56157   1.231   9.413   9.366  0.0718  0.7446  1.0067
  416MOL0     H56158   1.049   9.299   9.234 -2.3258  0.0852 -0.8006
  416MOL0     H56159   0.979   9.461   9.277  0.4071  0.6761 -0.4292
  416MOL0     H56160   0.984   9.406   9.107  1.0244 -0.7331 -1.9387
  417MOL0     O56161  10.739   1.945  11.030  0.0204 -0.0675 -0.2487
  417MOL0     C56162  10.702   2.013  11.133 -0.5321  0.8847  0.4302
  417MOL0     O56163  10.771   2.019  11.245  0.0031 -0.4346  0.2452
  417MOL0     C56164  10.849   1.911  11.273  0.1957  0.9530 -0.3846
  417MOL0     C56165  10.770   1.791  11.296 -0.3779  0.7784 -0.3358
  417MOL0     C56166  10.829   1.668  11.311 -0.2618 -0.2565  0.2270
  417MOL0     C56167  10.968   1.656  11.308  0.5613 -0.0708  0.9786
  417MOL0     O56168  11.025   1.531  11.325 -0.7887 -0.1127 -0.4771
  417MOL0     C56169  11.059   1.495  11.459 -0.6898  0.2002 -0.3682
  417MOL0     C56170  11.170   1.579  11.514 -0.3566 -0.0585 -0.1138
  417MOL0     C56171  11.188   1.552  11.663  0.2905  0.2550 -0.6467
  417MOL0     C56172  11.071   1.596  11.756 -0.4224  0.5832  0.2217
  417MOL0     C56173  11.078   1.753  11.775  0.3387  0.4334  0.1946
  417MOL0     C56174  11.144   1.791  11.916  0.0257  0.4751 -0.4593
  417MOL0     C56175  11.300   1.777  11.913  0.3508 -0.3022  0.6807
  417MOL0     C56176  11.352   1.833  12.044 -0.2859  0.7373 -0.0282
  417MOL0     N56177  11.332   1.970  12.086  0.7483 -0.3824  0.0267
  417MOL0     C56178  11.374   2.079  12.025 -0.1452 -0.5380  0.1789
  417MOL0     C56179  11.351   2.183  12.105  0.6478  0.5496  1.4706
  417MOL0     C56180  11.391   2.323  12.106 -0.3497  0.3310 -0.4243
  417MOL0     C56181  11.539   2.355  12.128 -0.2289  0.4588  0.1668
  417MOL0     C56182  11.596   2.326  12.270  0.7513 -0.3078 -0.1910
  417MOL0     C56183  11.735   2.390  12.295 -0.3322  0.1825  0.1620
  417MOL0     O56184  11.739   2.524  12.262  0.7358  0.4693 -0.9297
  417MOL0     C56185  11.702   2.619  12.364 -0.1731  0.6324  0.3322
  417MOL0     C56186  11.731   2.757  12.342 -0.9474  0.1456 -1.1880
  417MOL0     C56187  11.689   2.856  12.439  0.0320 -0.5816  0.1699
  417MOL0     C56188  11.632   2.810  12.561  0.2693 -0.2645  0.7212
  417MOL0     C56189  11.609   2.908  12.664  0.3797 -0.1625 -0.8813
  417MOL0     O56190  11.555   3.027  12.628 -0.1591  0.5324  0.4463
  417MOL0     C56191  11.523   3.125  12.714 -0.0537 -0.0717 -0.1693
  417MOL0     C56192  11.456   3.096  12.840 -0.5775  0.3012 -0.0622
  417MOL0     C56193  11.428   3.198  12.930 -0.3495  0.7756 -0.2043
  417MOL0     C56194  11.466   3.337  12.910 -0.2223  0.6791  0.2816
  417MOL0     O56195  11.457   3.418  13.011  0.3912 -0.1512  0.2921
  417MOL0     C56196  11.327   3.465  13.031  0.1064  0.3898  0.8573
  417MOL0     C56197  11.325   3.585  13.126  1.3699  0.9907  0.7318
  417MOL0     C56198  11.371   3.711  13.062  0.7394 -0.1161 -1.0249
  417MOL0     C56199  11.373   3.830  13.174 -0.3913 -0.2343 -0.0768
  417MOL0     C56200  11.413   3.965  13.120  0.2222  0.5106 -0.2283
  417MOL0     C56201  11.309   4.012  13.007 -0.6329 -0.1618 -0.9744
  417MOL0     C56202  11.331   4.154  12.973  0.1485  0.7310  0.0232
  417MOL0     C56203  11.247   4.247  13.062 -0.3190  0.1676  0.9420
  417MOL0    Cl56204  11.303   4.415  13.028 -0.2154  0.3601 -0.3247
  417MOL0     C56205  11.519   3.357  12.781 -0.4190  0.9111  0.4797
  417MOL0     C56206  11.554   3.258  12.688 -0.1808 -0.4689  0.0553
  417MOL0     O56207  11.627   2.871  12.775 -0.2162 -0.5743 -0.1576
  417MOL0     C56208  11.615   2.674  12.584 -0.4583 -0.1617  1.2312
  417MOL0     C56209  11.654   2.580  12.489 -0.4972  0.1294 -0.2874
  417MOL0     N56210  11.276   2.134  12.201 -0.1382  0.0744  0.1727
  417MOL0     N56211  11.253   2.004  12.195 -0.1516 -0.5664 -0.3091
  417MOL0     C56212  11.042   1.769  11.288 -0.5891 -0.1102 -0.1082
  417MOL0     C56213  10.990   1.897  11.276 -0.3752 -0.1274  0.0430
  417MOL0     C56214  10.593   2.106  11.110  0.2454  0.0246 -0.5207
  417MOL0     C56215  10.628   2.247  11.094  0.5981 -0.2789  0.2102
  417MOL0     C56216  10.531   2.342  11.065  0.1554  0.1024 -0.4176
  417MOL0     C56217  10.396   2.299  11.067 -0.0392 -0.3663 -0.5975
  417MOL0     O56218  10.316   2.407  11.038  0.2886  0.4463 -0.4278
  417MOL0     C56219  10.258   2.463  11.159  0.0365  0.2766 -0.2676
  417MOL0     C56220  10.119   2.524  11.145  0.0025 -0.1593 -0.2381
  417MOL0     C56221  10.065   2.606  11.269 -0.8494  0.1550  0.0195
  417MOL0     C56222   9.943   2.695  11.241  0.6795 -0.2724  0.0190
  417MOL0     C56223   9.902   2.758  11.370 -0.3461  0.0505  0.6952
  417MOL0     C56224   9.857   2.804  11.471 -0.2402 -0.8032  0.7745
  417MOL0     C56225  10.356   2.173  11.100 -0.6579  0.5138 -0.6886
  417MOL0     C56226  10.458   2.070  11.120  0.2947 -0.4370 -0.5077
  417MOL0     C56227  10.412   1.926  11.121  0.0605 -0.3264  0.0029
  417MOL0     H56228  10.662   1.787  11.293 -0.5000 -5.0863 -1.5235
  417MOL0     H56229  10.764   1.584  11.333  0.8830 -1.5981 -1.3033
  417MOL0     H56230  10.966   1.521  11.511 -0.5253  0.1495 -0.0480
  417MOL0     H56231  11.079   1.388  11.468 -1.1537  0.0491 -1.0695
  417MOL0     H56232  11.162   1.688  11.503 -1.3578 -0.0107  0.9092
  417MOL0     H56233  11.252   1.554  11.446 -1.2088  0.4804 -1.3783
  417MOL0     H56234  11.273   1.613  11.696 -0.7977  2.2661 -1.3790
  417MOL0     H56235  11.206   1.446  11.681 -0.0636  0.0145 -1.6272
  417MOL0     H56236  10.975   1.562  11.715  0.8446  0.0254 -2.5644
  417MOL0     H56237  11.080   1.561  11.859  0.7751  0.6266  0.1386
  417MOL0     H56238  11.129   1.802  11.692 -1.9394  0.2551 -1.3998
  417MOL0     H56239  10.973   1.781  11.780 -0.6275 -2.7860  0.3488
  417MOL0     H56240  11.115   1.894  11.938  0.1653  0.3167  0.4898
  417MOL0     H56241  11.090   1.735  11.993 -0.7819 -0.3060 -1.5586
  417MOL0     H56242  11.345   1.845  11.841  0.3329  2.5657  3.1665
  417MOL0     H56243  11.329   1.671  11.911  1.5496  0.0264 -0.7200
  417MOL0     H56244  11.318   1.762  12.120 -1.8180 -0.0315 -1.3750
  417MOL0     H56245  11.460   1.819  12.046 -0.5357 -1.3744  0.6633
  417MOL0     H56246  11.434   2.089  11.934 -1.7090  2.2838 -0.6800
  417MOL0     H56247  11.369   2.359  12.005  3.3649 -0.5166 -1.7055
  417MOL0     H56248  11.325   2.375  12.177 -0.3307 -2.5483  1.8935
  417MOL0     H56249  11.599   2.296  12.058 -2.1077 -1.8296  0.3515
  417MOL0     H56250  11.564   2.460  12.109  1.0330 -0.4154 -4.1552
  417MOL0     H56251  11.599   2.218  12.289  2.2697 -0.1846  0.4140
  417MOL0     H56252  11.525   2.354  12.347  1.1243 -0.6773  0.2928
  417MOL0     H56253  11.809   2.336  12.235 -2.3558  0.0942 -2.4689
  417MOL0     H56254  11.779   2.374  12.393  0.9155  3.9389  0.3592
  417MOL0     H56255  11.789   2.789  12.256  1.2141  0.5918  0.3443
  417MOL0     H56256  11.704   2.962  12.421 -1.2743 -0.0358  2.0152
  417MOL0     H56257  11.423   2.994  12.856 -0.2155  0.2364  0.2579
  417MOL0     H56258  11.390   3.168  13.027 -2.0886 -3.5961 -1.9611
  417MOL0     H56259  11.272   3.489  12.940 -1.4536 -4.0208  0.4289
  417MOL0     H56260  11.266   3.386  13.075  1.4442 -1.2802 -0.1484
  417MOL0     H56261  11.221   3.591  13.158  0.3630  0.2846 -2.1156
  417MOL0     H56262  11.377   3.562  13.219  4.2807 -1.8852 -1.3687
  417MOL0     H56263  11.473   3.704  13.024  0.1708 -0.4438 -2.5522
  417MOL0     H56264  11.314   3.743  12.975  1.1381  1.1301 -0.8464
  417MOL0     H56265  11.447   3.806  13.252  0.5477  0.2095 -0.8107
  417MOL0     H56266  11.269   3.842  13.205 -0.0307  1.2589  0.6382
  417MOL0     H56267  11.518   3.963  13.090  0.9451  1.1182  2.0924
  417MOL0     H56268  11.405   4.026  13.211  2.0981 -4.3317  3.5978
  417MOL0     H56269  11.326   3.954  12.916  1.7801  0.8245 -1.2385
  417MOL0     H56270  11.207   4.002  13.044 -0.3589  0.6496  0.0353
  417MOL0     H56271  11.313   4.163  12.866 -0.3666 -2.4456 -0.2464
  417MOL0     H56272  11.436   4.176  12.995  0.3943 -2.7106  3.5637
  417MOL0     H56273  11.140   4.244  13.043 -0.2121  3.3409 -0.8902
  417MOL0     H56274  11.288   4.224  13.160  3.0954 -2.2487 -0.8289
  417MOL0     H56275  11.538   3.460  12.751 -0.1964  0.5205 -0.7869
  417MOL0     H56276  11.588   3.293  12.591  0.0709  0.2024  0.3749
  417MOL0     H56277  11.569   2.636  12.674 -3.1571  1.8522  0.8196
  417MOL0     H56278  11.644   2.475  12.516  2.0270 -0.0988  0.0679
  417MOL0     H56279  11.151   1.771  11.292 -0.6346  1.0987  0.8099
  417MOL0     H56280  11.062   1.977  11.261 -0.0497  0.4079  3.7076
  417MOL0     H56281  10.726   2.288  11.073  0.4081 -1.3062 -3.4932
  417MOL0     H56282  10.565   2.441  11.036  3.7973 -1.0994 -0.7481
  417MOL0     H56283  10.323   2.549  11.177  2.0973 -1.2085 -0.1734
  417MOL0     H56284  10.264   2.399  11.248 -2.8755  1.8180  1.1446
  417MOL0     H56285  10.045   2.448  11.117  0.6734 -1.1191  0.5104
  417MOL0     H56286  10.122   2.601  11.067  0.1629 -0.1846 -0.2576
  417MOL0     H56287  10.154   2.660  11.301  0.3330 -0.8555 -1.4530
  417MOL0     H56288  10.043   2.537  11.351  1.6790  0.3010  0.8948
  417MOL0     H56289   9.962   2.766  11.160  0.3431  0.4972  0.6086
  417MOL0     H56290   9.861   2.627  11.214 -2.3474  3.6966 -1.7864
  417MOL0     H56291   9.813   2.855  11.555  1.3424  0.4004  0.9230
  417MOL0     H56292  10.248   2.162  11.110 -0.3037 -1.4444  2.3194
  417MOL0     H56293  10.411   1.892  11.018  2.5963  0.1696 -0.2446
  417MOL0     H56294  10.485   1.857  11.165  0.8002 -0.1567 -0.9413
  417MOL0     H56295  10.313   1.914  11.168 -0.2530 -4.1706 -1.3515
  418MOL0     O56296   2.294   6.575   1.133  0.0902 -0.0550  0.2807
  418MOL0     C56297   2.227   6.671   1.153  0.3838  0.5824  0.4839
  418MOL0     O56298   2.261   6.763   1.253 -0.5731  0.0941  0.2872
  418MOL0     C56299   2.397   6.784   1.271 -0.4431  0.1397  0.1496
  418MOL0     C56300   2.461   6.716   1.376  0.1762  1.5353 -0.2321
  418MOL0     C56301   2.602   6.728   1.391  0.2051 -0.6522 -0.9096
  418MOL0     C56302   2.671   6.820   1.312 -0.0548  0.4062  0.7692
  418MOL0     O56303   2.809   6.831   1.341 -0.3983  0.2554 -0.0374
  418MOL0     C56304   2.872   6.955   1.355  1.1691 -0.6283 -0.3420
  418MOL0     C56305   2.985   6.959   1.445  0.1188  0.7399 -0.0527
  418MOL0     C56306   2.965   6.888   1.584  0.3932 -1.0623  0.4036
  418MOL0     C56307   3.102   6.889   1.659  0.2267  0.5912 -0.4758
  418MOL0     C56308   3.086   6.830   1.807  0.2222  0.4727  0.5343
  418MOL0     C56309   3.218   6.844   1.885  0.6486  0.7519  0.0914
  418MOL0     C56310   3.215   6.770   2.018 -0.4926  0.4990 -0.2302
  418MOL0     C56311   3.248   6.628   2.004  0.3432  0.4042 -0.6698
  418MOL0     N56312   3.229   6.540   2.119 -0.5253  0.7925 -0.2329
  418MOL0     C56313   3.275   6.410   2.126 -0.1862  0.1250 -0.2271
  418MOL0     C56314   3.232   6.363   2.248  0.0487  0.5191 -0.4294
  418MOL0     C56315   3.227   6.217   2.298 -0.1549 -0.2315  0.8280
  418MOL0     C56316   3.308   6.119   2.199 -0.2273  0.8969 -0.1603
  418MOL0     C56317   3.466   6.136   2.193  1.0220 -0.5328  0.0496
  418MOL0     C56318   3.534   6.026   2.119  0.0476  0.4054  0.6101
  418MOL0     O56319   3.676   6.057   2.142 -0.3826 -0.1876  0.1257
  418MOL0     C56320   3.763   5.961   2.196 -0.0859  0.0732  0.8583
  418MOL0     C56321   3.899   5.990   2.162  0.1894 -0.1479  0.9741
  418MOL0     C56322   3.993   5.894   2.187 -1.1167 -0.0009 -0.3780
  418MOL0     C56323   3.958   5.775   2.254  0.1756  0.6716  0.2144
  418MOL0     C56324   4.068   5.677   2.297  0.4831  0.3682  1.0651
  418MOL0     O56325   4.033   5.602   2.410 -0.1689  0.5356  0.2953
  418MOL0     C56326   4.101   5.487   2.439 -0.0744 -0.2487  0.1544
  418MOL0     C56327   4.229   5.443   2.404 -0.0291  0.0292  1.4477
  418MOL0     C56328   4.270   5.310   2.439 -0.2052 -0.2391  0.7616
  418MOL0     C56329   4.191   5.233   2.532  0.3466 -0.3985 -0.6883
  418MOL0     O56330   4.241   5.127   2.595 -0.5237  0.6080  0.2036
  418MOL0     C56331   4.363   5.062   2.563  0.1429 -0.3824  0.7035
  418MOL0     C56332   4.351   4.984   2.445 -0.9488  0.7838  0.3288
  418MOL0     C56333   4.245   4.868   2.461  0.2313  0.1276 -0.9762
  418MOL0     C56334   4.249   4.779   2.340 -0.3075  0.0234 -0.2319
  418MOL0     C56335   4.122   4.694   2.345  0.6272  0.3952  0.1318
  418MOL0     C56336   4.109   4.580   2.241  0.7667  0.8354  0.1283
  418MOL0     C56337   3.965   4.535   2.216 -0.5939  0.4809 -0.4813
  418MOL0     C56338   3.902   4.590   2.080 -0.5677  0.1276  0.0166
  418MOL0    Cl56339   3.976   4.492   1.947 -0.5417  0.5152 -0.2820
  418MOL0     C56340   4.060   5.280   2.557 -0.0194 -0.8971  1.1410
  418MOL0     C56341   4.019   5.410   2.519  0.2777  0.4918 -0.3360
  418MOL0     O56342   4.175   5.684   2.236  0.1699 -0.0902 -0.5228
  418MOL0     C56343   3.826   5.754   2.306 -0.8253 -0.4501  0.4149
  418MOL0     C56344   3.736   5.845   2.278 -0.5946 -0.3532  0.7944
  418MOL0     N56345   3.176   6.472   2.309  0.2334 -0.3268 -0.7867
  418MOL0     N56346   3.164   6.572   2.233  0.0777  0.3363  1.1353
  418MOL0     C56347   2.605   6.888   1.205  0.2832 -1.4662  0.5604
  418MOL0     C56348   2.470   6.867   1.193  0.9320 -0.0835  1.1738
  418MOL0     C56349   2.083   6.670   1.116  0.0814  0.6568  0.6069
  418MOL0     C56350   1.992   6.718   1.210 -0.4843  1.0674 -0.0471
  418MOL0     C56351   1.853   6.716   1.188 -0.3003 -0.7392  1.1645
  418MOL0     C56352   1.812   6.692   1.053 -0.2852  1.6213  0.1404
  418MOL0     O56353   1.684   6.704   1.002 -0.6965  0.2455 -0.9048
  418MOL0     C56354   1.567   6.741   1.078 -0.7093 -0.3657 -0.1116
  418MOL0     C56355   1.442   6.757   0.989  0.4367  0.6411 -0.2794
  418MOL0     C56356   1.397   6.613   0.943 -0.0160  0.8831  0.1636
  418MOL0     C56357   1.353   6.527   1.060  0.4386 -0.6865  0.2146
  418MOL0     C56358   1.235   6.594   1.122 -0.4189  0.1607  0.5634
  418MOL0     C56359   1.140   6.652   1.167 -0.7992 -0.1026 -0.5324
  418MOL0     C56360   1.906   6.641   0.970 -0.8790 -0.2205  0.4110
  418MOL0     C56361   2.038   6.617   0.996  0.5005 -0.4021  1.1294
  418MOL0     C56362   2.132   6.559   0.885  0.2926  0.8292 -0.2988
  418MOL0     H56363   2.402   6.647   1.436 -0.0064  1.1672 -0.8337
  418MOL0     H56364   2.650   6.672   1.471  1.6740  0.9439 -0.6116
  418MOL0     H56365   2.892   6.992   1.255 -3.6155 -1.1603 -1.7501
  418MOL0     H56366   2.791   7.016   1.397 -0.3810 -1.7910 -1.4875
  418MOL0     H56367   3.026   7.059   1.463  1.6775  0.1927 -0.4163
  418MOL0     H56368   3.064   6.915   1.383 -2.4362  0.7307 -3.5447
  418MOL0     H56369   2.941   6.783   1.568  0.0703 -0.9320  0.0179
  418MOL0     H56370   2.878   6.931   1.635  0.1772 -2.8636  1.6284
  418MOL0     H56371   3.182   6.836   1.607 -0.2546  1.4728 -2.1883
  418MOL0     H56372   3.141   6.990   1.677 -1.2576  0.5508  4.5221
  418MOL0     H56373   3.013   6.890   1.862  0.4149 -0.3205  1.6881
  418MOL0     H56374   3.052   6.726   1.807  0.2386  0.4678  0.6145
  418MOL0     H56375   3.299   6.812   1.820  0.2553  2.3422 -1.2331
  418MOL0     H56376   3.240   6.947   1.912  0.3808  0.4788  1.4759
  418MOL0     H56377   3.117   6.775   2.065 -0.2646 -0.2738  0.3431
  418MOL0     H56378   3.297   6.812   2.078 -0.2501 -0.1187 -0.1274
  418MOL0     H56379   3.179   6.581   1.934 -2.4246  2.5085  0.4499
  418MOL0     H56380   3.356   6.620   1.984  0.7952  1.0931  1.2449
  418MOL0     H56381   3.327   6.364   2.042  0.0862 -0.6762  0.3638
  418MOL0     H56382   3.260   6.217   2.402  0.5644  2.5515  0.6645
  418MOL0     H56383   3.127   6.173   2.290  0.3654 -1.2467 -0.6905
  418MOL0     H56384   3.294   6.019   2.240  0.3486  1.0227  0.3456
  418MOL0     H56385   3.264   6.130   2.099  1.7989  1.5653 -1.0261
  418MOL0     H56386   3.486   6.129   2.300 -1.5207 -1.2857  0.5474
  418MOL0     H56387   3.503   6.231   2.154 -0.3279 -0.2359 -0.5713
  418MOL0     H56388   3.506   6.023   2.013 -0.4471  0.4878  0.7387
  418MOL0     H56389   3.514   5.927   2.161 -0.1449  0.2289  0.1070
  418MOL0     H56390   3.929   6.079   2.108  1.1846 -1.3449 -0.5104
  418MOL0     H56391   4.095   5.912   2.155 -1.7817  1.0648 -2.0585
  418MOL0     H56392   4.302   5.499   2.346  0.5078 -1.2559  0.8433
  418MOL0     H56393   4.371   5.277   2.416 -0.6636 -1.0317 -0.2468
  418MOL0     H56394   4.447   5.131   2.556 -0.2469  0.3307  2.5232
  418MOL0     H56395   4.398   4.997   2.644 -3.2458 -2.1507  0.9115
  418MOL0     H56396   4.323   5.046   2.359  0.9324 -1.5460 -2.1720
  418MOL0     H56397   4.445   4.930   2.430 -1.9457 -0.3329 -2.6385
  418MOL0     H56398   4.270   4.813   2.552 -3.3205 -2.0528 -1.1154
  418MOL0     H56399   4.146   4.913   2.467 -0.0837 -0.7483  1.3040
  418MOL0     H56400   4.330   4.710   2.364 -1.2780 -0.8988  0.5303
  418MOL0     H56401   4.270   4.824   2.243 -0.0435  1.8022  0.6235
  418MOL0     H56402   4.048   4.772   2.327 -0.8029 -0.2012  2.8075
  418MOL0     H56403   4.084   4.656   2.440 -3.0934 -0.6451 -1.6081
  418MOL0     H56404   4.134   4.622   2.144  2.3954 -3.4955 -1.6028
  418MOL0     H56405   4.178   4.497   2.259 -2.5424 -2.3099 -0.4171
  418MOL0     H56406   3.903   4.549   2.305  1.8298 -0.2842  1.4536
  418MOL0     H56407   3.975   4.426   2.205 -1.0809 -0.0853  3.1837
  418MOL0     H56408   3.793   4.583   2.085 -0.5720  0.8617  1.4354
  418MOL0     H56409   3.923   4.696   2.060 -2.8112  0.6223 -0.0721
  418MOL0     H56410   3.989   5.228   2.620  1.7581  2.6678  6.8768
  418MOL0     H56411   3.928   5.445   2.566 -0.6258 -0.2451 -1.4723
  418MOL0     H56412   3.793   5.672   2.369  0.5384 -2.1530 -0.9548
  418MOL0     H56413   3.634   5.830   2.312 -2.0090  3.5275 -1.0418
  418MOL0     H56414   2.665   6.953   1.141  0.4766  0.0869  2.2558
  418MOL0     H56415   2.411   6.912   1.114  0.4965 -0.9470  1.0056
  418MOL0     H56416   2.032   6.760   1.301 -0.9542  0.2554  0.5503
  418MOL0     H56417   1.783   6.771   1.251 -0.3347  1.9343 -1.0300
  418MOL0     H56418   1.583   6.843   1.115 -1.7660  0.2578 -1.2952
  418MOL0     H56419   1.570   6.669   1.159 -0.5957  0.4670  0.6406
  418MOL0     H56420   1.458   6.805   0.892  1.1030 -2.4125 -1.7895
  418MOL0     H56421   1.366   6.815   1.042 -1.4270 -1.6433 -0.3180
  418MOL0     H56422   1.471   6.561   0.882 -1.5969 -0.6511 -0.4991
  418MOL0     H56423   1.313   6.632   0.876  0.5702  0.9451 -0.5750
  418MOL0     H56424   1.326   6.428   1.023 -0.5396 -0.1354 -0.6028
  418MOL0     H56425   1.432   6.495   1.128  1.0821 -3.6839 -1.7532
  418MOL0     H56426   1.066   6.717   1.208 -0.0127  0.5118 -0.0674
  418MOL0     H56427   1.864   6.613   0.874 -3.9566 -2.1721  2.1451
  418MOL0     H56428   2.214   6.631   0.872  2.6812 -1.3363  1.6397
  418MOL0     H56429   2.179   6.471   0.929 -4.4230  0.0865  4.1917
  418MOL0     H56430   2.087   6.528   0.791 -0.7949  1.4360  0.0034
  419MOL0     O56431   2.510   1.707   1.208 -0.9479  0.4646 -0.3622
  419MOL0     C56432   2.547   1.812   1.258 -0.4901 -0.7462 -0.6083
  419MOL0     O56433   2.462   1.904   1.313 -0.8060 -0.2762 -0.6823
  419MOL0     C56434   2.336   1.873   1.345 -1.1976  0.4310  0.0556
  419MOL0     C56435   2.311   1.783   1.454 -0.5876 -0.2500  1.7597
  419MOL0     C56436   2.178   1.761   1.495  0.4081  0.1726 -0.4963
  419MOL0     C56437   2.068   1.824   1.428 -0.0817 -0.1671  0.5647
  419MOL0     O56438   1.936   1.809   1.488 -0.1301 -0.1246  0.0512
  419MOL0     C56439   1.928   1.802   1.627  0.0910 -0.3496 -0.4506
  419MOL0     C56440   1.802   1.887   1.661  0.0287 -0.0853  0.2631
  419MOL0     C56441   1.660   1.825   1.697 -0.1618 -0.7715 -0.1506
  419MOL0     C56442   1.588   1.774   1.573 -0.1284  0.6065  0.3137
  419MOL0     C56443   1.452   1.704   1.607  0.2277  0.0670 -0.8908
  419MOL0     C56444   1.328   1.794   1.625 -0.6525 -0.2929  0.2085
  419MOL0     C56445   1.315   1.860   1.766  0.0522  0.5121 -0.5478
  419MOL0     C56446   1.200   1.956   1.785 -0.2526 -0.4969 -0.0220
  419MOL0     N56447   1.207   2.006   1.918 -0.6781  0.0311 -0.7689
  419MOL0     C56448   1.223   2.142   1.946  0.0983 -1.0106  0.3200
  419MOL0     C56449   1.165   2.163   2.066 -0.7337 -0.3546  0.4688
  419MOL0     C56450   1.148   2.288   2.147 -0.0767 -0.7744 -0.5818
  419MOL0     C56451   1.278   2.361   2.157  0.6034  0.2643  0.0669
  419MOL0     C56452   1.282   2.494   2.088 -0.2119 -1.8897  0.2087
  419MOL0     C56453   1.399   2.582   2.128 -0.8512 -0.9303  0.6540
  419MOL0     O56454   1.515   2.499   2.080 -0.6525  0.1011 -1.1456
  419MOL0     C56455   1.649   2.544   2.078  0.6835  0.1528  0.2163
  419MOL0     C56456   1.748   2.447   2.048  0.0816 -0.6629 -0.4719
  419MOL0     C56457   1.878   2.478   2.030  0.7404 -0.2930  0.3852
  419MOL0     C56458   1.919   2.613   2.047 -0.0315 -1.0319  0.5870
  419MOL0     C56459   2.063   2.646   2.026  0.1124 -0.5592  0.4324
  419MOL0     O56460   2.165   2.555   2.028  0.0051  0.2649  0.0241
  419MOL0     C56461   2.291   2.591   2.042 -0.4924  0.3136  0.4324
  419MOL0     C56462   2.338   2.697   2.127  0.3266  0.7921  0.4132
  419MOL0     C56463   2.474   2.722   2.138 -0.4936 -0.1614 -1.0120
  419MOL0     C56464   2.566   2.649   2.077 -0.0476 -0.3456 -0.1768
  419MOL0     O56465   2.695   2.681   2.089  0.5303 -0.2388  0.5740
  419MOL0     C56466   2.791   2.656   1.987 -0.2111 -0.2680 -0.1046
  419MOL0     C56467   2.767   2.736   1.861  0.4319  0.0530 -1.2487
  419MOL0     C56468   2.864   2.684   1.753  0.1963 -0.2158  0.4900
  419MOL0     C56469   2.854   2.782   1.636 -0.2831  0.9899  0.7306
  419MOL0     C56470   2.953   2.899   1.653 -0.2319 -0.5517 -0.1292
  419MOL0     C56471   3.097   2.868   1.610  0.4527  1.1369 -0.7278
  419MOL0     C56472   3.109   2.845   1.453 -0.2811 -0.7803 -0.7253
  419MOL0     C56473   3.244   2.864   1.390 -0.5608 -0.0546  0.0527
  419MOL0    Cl56474   3.227   2.833   1.211  0.0579  0.4521 -0.1141
  419MOL0     C56475   2.530   2.547   2.000 -0.1066  0.0824  0.8582
  419MOL0     C56476   2.387   2.517   1.979 -0.6057 -0.0793  0.4492
  419MOL0     O56477   2.080   2.758   1.982 -0.0074 -0.2554  0.0920
  419MOL0     C56478   1.821   2.711   2.065 -0.3214 -0.3427 -0.3097
  419MOL0     C56479   1.682   2.685   2.084 -0.1702  0.2511 -0.2036
  419MOL0     N56480   1.119   2.045   2.111  1.2368  0.8600 -1.0863
  419MOL0     N56481   1.146   1.954   2.027 -1.4899 -0.0890  0.3980
  419MOL0     C56482   2.091   1.886   1.298 -0.4739  0.7003 -1.6374
  419MOL0     C56483   2.230   1.905   1.263  0.0792  0.1774  0.9964
  419MOL0     C56484   2.685   1.847   1.256 -0.3651  0.6911  0.2679
  419MOL0     C56485   2.725   1.981   1.244  1.0339  0.4386  0.1319
  419MOL0     C56486   2.856   2.024   1.246 -0.3488 -0.5062  1.1401
  419MOL0     C56487   2.962   1.935   1.273  0.5994  0.8085  0.4441
  419MOL0     O56488   3.091   1.972   1.272 -0.6645 -0.0620 -0.2272
  419MOL0     C56489   3.185   1.866   1.243 -0.7131  0.1433 -0.5054
  419MOL0     C56490   3.336   1.914   1.230 -0.0527  0.3550  0.4119
  419MOL0     C56491   3.341   2.066   1.178 -0.5412  0.4435  0.5234
  419MOL0     C56492   3.480   2.103   1.142 -0.6625  0.0724  1.1823
  419MOL0     C56493   3.489   2.235   1.086 -0.7909  0.5200  0.1316
  419MOL0     C56494   3.487   2.336   1.031  0.3795 -0.7561  0.4351
  419MOL0     C56495   2.925   1.796   1.287 -0.0115 -0.1969 -0.2324
  419MOL0     C56496   2.790   1.750   1.274 -0.1063  0.6320  1.2606
  419MOL0     C56497   2.769   1.601   1.266  0.2550  0.3594 -0.4057
  419MOL0     H56498   2.394   1.733   1.503  2.1718  1.1970 -1.0532
  419MOL0     H56499   2.152   1.699   1.581  2.4724  3.1915  2.5426
  419MOL0     H56500   1.932   1.702   1.671  1.1556 -0.1230  0.0088
  419MOL0     H56501   2.011   1.857   1.672 -0.7516  0.3225  0.3447
  419MOL0     H56502   1.774   1.955   1.579 -2.8129 -1.7086 -0.2397
  419MOL0     H56503   1.827   1.949   1.747 -0.3717  0.5842 -0.0949
  419MOL0     H56504   1.610   1.917   1.730  5.2833  4.0159 -3.1856
  419MOL0     H56505   1.664   1.757   1.783 -2.5759 -1.2222 -0.3224
  419MOL0     H56506   1.564   1.860   1.509 -1.0715  0.8727  1.0031
  419MOL0     H56507   1.649   1.702   1.518 -2.4037  0.5814 -2.4058
  419MOL0     H56508   1.422   1.633   1.530  0.1073  1.0386 -1.7565
  419MOL0     H56509   1.470   1.649   1.700 -4.0462 -2.0646 -1.0771
  419MOL0     H56510   1.321   1.866   1.543 -1.1006  1.2137  1.5257
  419MOL0     H56511   1.242   1.725   1.623 -2.6047  2.0262  0.2887
  419MOL0     H56512   1.403   1.920   1.790 -0.2971  0.3184  1.3799
  419MOL0     H56513   1.293   1.782   1.840 -0.2085  2.1064  1.1055
  419MOL0     H56514   1.216   2.039   1.716  2.5458 -0.8343  0.0808
  419MOL0     H56515   1.116   1.888   1.772 -1.1342  0.2951  1.2921
  419MOL0     H56516   1.272   2.213   1.881 -6.3564  3.0125 -1.0530
  419MOL0     H56517   1.074   2.360   2.113  1.0738  0.1030 -1.2712
  419MOL0     H56518   1.119   2.263   2.250 -0.2826 -0.6837 -0.6163
  419MOL0     H56519   1.297   2.393   2.259  2.8589  1.1602 -0.5650
  419MOL0     H56520   1.359   2.295   2.121  0.9650  2.0567 -2.7460
  419MOL0     H56521   1.198   2.561   2.109  1.3098  0.3248 -0.4056
  419MOL0     H56522   1.281   2.495   1.978 -3.3017  0.1159  0.1074
  419MOL0     H56523   1.407   2.600   2.236  0.2412 -0.5310  0.5230
  419MOL0     H56524   1.390   2.678   2.077 -2.5956 -1.9488 -1.0826
  419MOL0     H56525   1.712   2.349   2.019 -3.4027  0.9458 -2.0344
  419MOL0     H56526   1.956   2.408   2.001  1.5288  0.3570  0.9014
  419MOL0     H56527   2.275   2.767   2.180  1.3430  1.7722  0.3630
  419MOL0     H56528   2.503   2.806   2.200 -2.2987  0.4373 -0.9153
  419MOL0     H56529   2.892   2.670   2.027  0.9090 -0.2523 -2.7398
  419MOL0     H56530   2.792   2.549   1.964 -1.3955 -0.1821 -0.6545
  419MOL0     H56531   2.661   2.720   1.840  0.1195 -1.2288  0.9838
  419MOL0     H56532   2.782   2.843   1.874  0.6195 -0.2610  1.8672
  419MOL0     H56533   2.965   2.691   1.796 -1.1503  1.3902  3.7477
  419MOL0     H56534   2.853   2.584   1.712  0.7975 -0.5069  1.0080
  419MOL0     H56535   2.751   2.819   1.628 -1.2309 -1.4161  0.8876
  419MOL0     H56536   2.855   2.728   1.541 -5.5570  1.4235  0.0940
  419MOL0     H56537   2.949   2.916   1.761  1.6120 -1.0559  0.0422
  419MOL0     H56538   2.918   2.990   1.602 -1.4713 -1.0386 -0.1826
  419MOL0     H56539   3.160   2.952   1.640 -0.5449  1.7350 -0.2492
  419MOL0     H56540   3.137   2.787   1.670 -3.0666 -0.5532 -0.4025
  419MOL0     H56541   3.045   2.925   1.413  0.2104  1.4357  2.5354
  419MOL0     H56542   3.060   2.749   1.433 -3.1825  0.7167 -1.4033
  419MOL0     H56543   3.296   2.958   1.413 -1.9557  0.7800 -0.0502
  419MOL0     H56544   3.313   2.783   1.415  0.4007 -0.0628 -2.3049
  419MOL0     H56545   2.605   2.493   1.943 -1.0821  0.0570 -0.4515
  419MOL0     H56546   2.352   2.429   1.926 -1.3432  0.2731  0.3266
  419MOL0     H56547   1.847   2.817   2.064 -0.0896 -0.4035 -0.8356
  419MOL0     H56548   1.616   2.771   2.090 -1.8524 -1.0402  0.5258
  419MOL0     H56549   2.008   1.914   1.233 -1.6267 -1.0612 -1.0082
  419MOL0     H56550   2.248   1.940   1.162 -0.4243 -2.2527 -0.0009
  419MOL0     H56551   2.638   2.046   1.238 -0.6752 -0.8828  5.2326
  419MOL0     H56552   2.888   2.127   1.234 -0.7074 -0.6159 -1.2513
  419MOL0     H56553   3.161   1.826   1.144 -1.5162 -2.4593  0.6475
  419MOL0     H56554   3.195   1.786   1.317 -0.2693  1.1972  0.6045
  419MOL0     H56555   3.389   1.843   1.166 -0.1867 -1.7300  2.4533
  419MOL0     H56556   3.368   1.904   1.334 -1.9758 -2.8605  0.8371
  419MOL0     H56557   3.303   2.137   1.252 -0.7397 -1.0004  1.8698
  419MOL0     H56558   3.286   2.073   1.084 -0.1688  1.3350  0.3629
  419MOL0     H56559   3.549   2.096   1.226  3.1366 -0.1115 -1.7109
  419MOL0     H56560   3.505   2.037   1.059 -0.4070  2.3059 -0.6013
  419MOL0     H56561   3.479   2.424   0.970  2.9457 -0.5200  0.3242
  419MOL0     H56562   2.996   1.718   1.311  0.6739  0.2729 -0.6820
  419MOL0     H56563   2.735   1.571   1.166 -0.4207  0.2287 -0.1410
  419MOL0     H56564   2.857   1.537   1.277  1.0950  0.6707 -3.9255
  419MOL0     H56565   2.697   1.577   1.345 -0.0248  0.0631 -0.7457
  420MOL0     O56566   2.308   4.511   2.775 -0.0561 -0.7358 -0.0176
  420MOL0     C56567   2.330   4.461   2.886 -0.5153  0.8804  0.4533
  420MOL0     O56568   2.424   4.504   2.975 -0.5875 -0.0670  0.6595
  420MOL0     C56569   2.525   4.596   2.951 -0.7857 -0.4414  0.0289
  420MOL0     C56570   2.611   4.605   2.837  0.4399 -0.0792  0.2647
  420MOL0     C56571   2.713   4.698   2.826  0.1535  0.9081  1.0795
  420MOL0     C56572   2.733   4.787   2.936 -0.1262 -0.6009 -0.0843
  420MOL0     O56573   2.836   4.880   2.943 -0.2004 -0.5630 -0.1986
  420MOL0     C56574   2.961   4.877   2.859  0.4973 -0.9476 -0.4669
  420MOL0     C56575   3.066   4.966   2.925 -0.4053 -1.3265 -0.1685
  420MOL0     C56576   3.152   4.895   3.032 -0.0259 -0.3417  1.1018
  420MOL0     C56577   3.293   4.963   3.032 -0.5017  0.3272 -0.6324
  420MOL0     C56578   3.370   4.952   3.164 -0.4489 -0.2781 -1.2048
  420MOL0     C56579   3.468   4.831   3.182 -0.3579  0.6010  0.6364
  420MOL0     C56580   3.404   4.692   3.188  0.2256  0.6012 -0.0321
  420MOL0     C56581   3.503   4.575   3.177  0.2844 -0.7657  0.6450
  420MOL0     N56582   3.550   4.552   3.044  0.7610  1.1060 -0.1881
  420MOL0     C56583   3.470   4.523   2.945  0.0642 -0.2664 -0.1247
  420MOL0     C56584   3.540   4.564   2.829  0.4047 -0.1822  0.1715
  420MOL0     C56585   3.488   4.570   2.690 -0.0772 -1.2815  0.3945
  420MOL0     C56586   3.363   4.655   2.667 -0.7696  0.5263 -0.4200
  420MOL0     C56587   3.270   4.605   2.552 -0.4342 -0.1651  0.3255
  420MOL0     C56588   3.214   4.461   2.566  0.7655  0.6180 -0.3238
  420MOL0     O56589   3.104   4.429   2.654 -0.2150 -0.3437 -0.3544
  420MOL0     C56590   3.139   4.394   2.786 -0.5446  0.1647 -0.5112
  420MOL0     C56591   3.088   4.476   2.885 -0.5242 -0.3229 -0.0528
  420MOL0     C56592   3.114   4.435   3.018  0.8475  0.1513 -0.5899
  420MOL0     C56593   3.172   4.305   3.049  1.3865 -1.4830  0.6611
  420MOL0     C56594   3.191   4.254   3.186  0.1872  0.0455  0.3498
  420MOL0     O56595   3.260   4.130   3.206 -0.5992 -0.4568 -1.6581
  420MOL0     C56596   3.279   4.059   3.324 -0.5227  1.3551 -0.3561
  420MOL0     C56597   3.376   3.961   3.318 -1.4751 -0.2914  0.1308
  420MOL0     C56598   3.420   3.878   3.426  0.5506  0.2121  0.1665
  420MOL0     C56599   3.344   3.889   3.549 -0.5372 -0.8283  0.3412
  420MOL0     O56600   3.388   3.810   3.654 -0.4098 -0.4302  0.0009
  420MOL0     C56601   3.367   3.853   3.797 -0.2877  0.6357  0.0024
  420MOL0     C56602   3.503   3.823   3.874  0.2059 -0.0654  0.1429
  420MOL0     C56603   3.501   3.896   4.009  0.7275 -0.3361  0.0688
  420MOL0     C56604   3.587   3.843   4.118  0.8313 -0.0674  0.7232
  420MOL0     C56605   3.592   3.916   4.247  0.2913 -0.2775  0.0665
  420MOL0     C56606   3.465   3.890   4.339 -0.2769 -0.3930 -0.2145
  420MOL0     C56607   3.494   3.941   4.471  0.1666  0.2129 -0.1044
  420MOL0     C56608   3.373   3.899   4.560 -0.3129 -0.2079  0.0427
  420MOL0    Cl56609   3.220   3.956   4.516  0.3075 -0.3484  0.5010
  420MOL0     C56610   3.244   3.987   3.551  0.1075 -0.4970  0.3351
  420MOL0     C56611   3.210   4.068   3.441  0.6996  1.2442 -0.0941
  420MOL0     O56612   3.161   4.331   3.271  0.8020 -0.4109  0.0016
  420MOL0     C56613   3.218   4.225   2.944 -0.0777 -0.5877 -0.6178
  420MOL0     C56614   3.188   4.273   2.816  0.2448  1.1840 -0.6518
  420MOL0     N56615   3.665   4.614   2.872 -0.1477  0.4319 -0.8100
  420MOL0     N56616   3.672   4.593   3.002 -0.0667 -0.8099  0.4096
  420MOL0     C56617   2.660   4.774   3.049 -0.2987  0.6443  0.1752
  420MOL0     C56618   2.562   4.674   3.059  0.2976  0.0653  0.4119
  420MOL0     C56619   2.249   4.350   2.939 -0.2667 -0.8134 -0.0189
  420MOL0     C56620   2.110   4.363   2.924  0.3842  0.2620  0.5848
  420MOL0     C56621   2.025   4.263   2.972 -0.1414 -0.5263 -0.4872
  420MOL0     C56622   2.077   4.149   3.037 -0.1379  0.0732  0.4767
  420MOL0     O56623   2.006   4.042   3.090 -0.0995 -0.0043  0.1744
  420MOL0     C56624   1.903   4.082   3.183 -0.3735  0.1494  0.4836
  420MOL0     C56625   1.831   3.955   3.227  0.1711  0.4411 -0.3416
  420MOL0     C56626   1.720   3.981   3.314 -0.5202 -0.2684 -1.0236
  420MOL0     C56627   1.584   3.984   3.255 -0.6537  0.1144  0.7678
  420MOL0     C56628   1.469   4.017   3.346 -0.5075 -0.3030  1.0007
  420MOL0     C56629   1.382   4.034   3.425  0.7873  0.2567  0.0213
  420MOL0     C56630   2.210   4.146   3.060  0.2098 -0.0479  0.5883
  420MOL0     C56631   2.299   4.240   3.006  0.4184  0.0488  0.2892
  420MOL0     C56632   2.444   4.207   3.037  1.2414  0.1962  0.3651
  420MOL0     H56633   2.589   4.542   2.751 -0.9465  3.0766 -1.8820
  420MOL0     H56634   2.775   4.708   2.737  2.3279 -2.0919  2.0949
  420MOL0     H56635   2.995   4.776   2.831  0.8072 -1.0148  0.1354
  420MOL0     H56636   2.926   4.922   2.766 -1.5669 -0.7803  0.3343
  420MOL0     H56637   3.021   5.053   2.974 -1.7157 -0.9169 -2.0088
  420MOL0     H56638   3.113   4.994   2.830 -2.6397 -0.6173 -1.1242
  420MOL0     H56639   3.157   4.788   3.014  1.7250 -0.3862  1.6569
  420MOL0     H56640   3.102   4.918   3.127  0.0071  2.3091  0.5686
  420MOL0     H56641   3.348   4.927   2.945  0.4231  0.5165 -0.1416
  420MOL0     H56642   3.277   5.068   3.004  0.1509  0.7316  0.4211
  420MOL0     H56643   3.431   5.043   3.171 -0.6315 -0.2208  4.1339
  420MOL0     H56644   3.310   4.962   3.255  0.9011 -0.9365 -0.2070
  420MOL0     H56645   3.538   4.832   3.098 -0.8590  1.5245  0.2213
  420MOL0     H56646   3.544   4.854   3.257  0.6248  0.5551 -0.3250
  420MOL0     H56647   3.324   4.678   3.114 -0.7678  0.8616  0.9527
  420MOL0     H56648   3.345   4.689   3.281  1.0721  0.5320  0.5075
  420MOL0     H56649   3.586   4.577   3.249 -0.2939 -0.2439  1.3091
  420MOL0     H56650   3.429   4.498   3.198 -2.3996  1.4124 -0.1835
  420MOL0     H56651   3.370   4.480   2.935  0.0881  0.1171 -2.6884
  420MOL0     H56652   3.568   4.607   2.625  0.4942 -0.8514  1.3102
  420MOL0     H56653   3.479   4.470   2.647 -0.6353  0.2938 -3.5740
  420MOL0     H56654   3.311   4.649   2.763  2.7285  2.7101  1.8457
  420MOL0     H56655   3.387   4.762   2.665  1.2549  0.1562  0.9893
  420MOL0     H56656   3.334   4.612   2.463  0.3055 -0.9349  0.7766
  420MOL0     H56657   3.184   4.672   2.551  0.3926  0.9523  1.4056
  420MOL0     H56658   3.288   4.393   2.609 -1.3636  0.2330  3.0778
  420MOL0     H56659   3.184   4.435   2.464  2.6929  4.3585 -2.0710
  420MOL0     H56660   3.044   4.572   2.862  0.4258  0.0383 -0.4366
  420MOL0     H56661   3.074   4.498   3.098  2.2296  0.5716 -0.2088
  420MOL0     H56662   3.435   3.955   3.227  0.7594  3.5081  1.0738
  420MOL0     H56663   3.501   3.806   3.412 -0.0507 -0.3848 -0.3057
  420MOL0     H56664   3.347   3.961   3.797  1.6341  1.1826 -3.8362
  420MOL0     H56665   3.281   3.799   3.839 -0.6143 -0.5495 -2.0594
  420MOL0     H56666   3.510   3.715   3.882  0.0975 -0.0384  0.6183
  420MOL0     H56667   3.590   3.868   3.824  2.6976 -0.9149  3.3458
  420MOL0     H56668   3.532   3.998   3.987  0.6435 -0.5567 -1.1246
  420MOL0     H56669   3.395   3.884   4.035  0.8134  0.1749  0.6871
  420MOL0     H56670   3.688   3.830   4.077 -0.1081  1.0567 -2.2354
  420MOL0     H56671   3.555   3.746   4.157  0.3318  0.7570  2.4597
  420MOL0     H56672   3.596   4.023   4.224 -2.7609 -0.3759 -1.4304
  420MOL0     H56673   3.684   3.880   4.293  1.6082 -0.5690 -2.6104
  420MOL0     H56674   3.386   3.946   4.287  1.0029 -0.8124 -2.7935
  420MOL0     H56675   3.440   3.784   4.345 -2.5639 -0.1409 -3.1213
  420MOL0     H56676   3.498   4.049   4.485 -4.6209  0.4030  1.4092
  420MOL0     H56677   3.593   3.910   4.508  0.0734  2.3960  2.2125
  420MOL0     H56678   3.381   3.797   4.598 -0.6291 -0.8456 -1.5050
  420MOL0     H56679   3.395   3.957   4.650  0.0724  0.9927 -0.7870
  420MOL0     H56680   3.177   3.981   3.637  1.2949 -3.0050  1.2121
  420MOL0     H56681   3.125   4.136   3.447 -0.2661  0.1035 -0.4303
  420MOL0     H56682   3.257   4.124   2.943  0.9046 -0.3902 -5.2940
  420MOL0     H56683   3.214   4.209   2.732  3.0260  2.6167 -0.9860
  420MOL0     H56684   2.702   4.833   3.130  0.6815 -1.9700  1.7019
  420MOL0     H56685   2.509   4.665   3.153  0.0189 -1.3739  0.1424
  420MOL0     H56686   2.056   4.442   2.873 -1.3883 -1.7221 -0.7735
  420MOL0     H56687   1.919   4.261   2.952  0.3663 -0.8886 -3.6005
  420MOL0     H56688   1.843   4.157   3.131 -0.8151  0.8013  1.8980
  420MOL0     H56689   1.940   4.131   3.272  1.1861  0.7562 -0.4680
  420MOL0     H56690   1.908   3.899   3.281  1.3269 -0.3559 -2.6620
  420MOL0     H56691   1.793   3.898   3.142 -1.3476 -0.3175  0.8146
  420MOL0     H56692   1.735   4.084   3.347 -1.4418  0.7166 -3.5131
  420MOL0     H56693   1.727   3.922   3.406  4.8558  2.4390  0.7754
  420MOL0     H56694   1.581   4.065   3.181 -3.9484  0.0793  0.7344
  420MOL0     H56695   1.570   3.884   3.213  2.1469  0.2364 -0.7004
  420MOL0     H56696   1.323   4.049   3.513  1.3994  2.3038  0.1248
  420MOL0     H56697   2.243   4.062   3.121  2.5930  0.8920  0.7198
  420MOL0     H56698   2.490   4.241   3.130 -0.5628  0.3418  1.2525
  420MOL0     H56699   2.456   4.098   3.038 -1.2194 -0.1615  2.4049
  420MOL0     H56700   2.494   4.242   2.947  0.6834  2.2247  0.7801
  421MOL0     O56701   1.722   0.164   5.149  0.3473  0.2112 -0.4807
  421MOL0     C56702   1.735   0.041   5.162 -0.2155 -0.4977 -0.8290
  421MOL0     O56703   1.672  -0.047   5.090 -0.1737 -0.2185  0.9623
  421MOL0     C56704   1.568  -0.006   5.015  0.3572  0.0366 -0.0174
  421MOL0     C56705   1.437  -0.029   5.059  0.7096  0.1710  0.1416
  421MOL0     C56706   1.325   0.006   4.976 -0.4402  0.4064 -0.5272
  421MOL0     C56707   1.347   0.082   4.853 -0.6254  0.5363 -1.0579
  421MOL0     O56708   1.242   0.133   4.784  0.5885 -0.8770 -0.3324
  421MOL0     C56709   1.257   0.183   4.654 -0.6449 -0.1578 -0.6327
  421MOL0     C56710   1.121   0.196   4.585  0.7853 -0.2560 -0.6690
  421MOL0     C56711   1.136   0.224   4.440 -0.1757 -0.5030  0.6558
  421MOL0     C56712   1.013   0.230   4.359  0.0016 -0.0433 -0.0934
  421MOL0     C56713   1.019   0.186   4.212  0.6508 -0.5971 -0.6271
  421MOL0     C56714   0.866   0.178   4.160 -0.2262 -0.1769  0.1865
  421MOL0     C56715   0.873   0.141   4.013 -1.3244  1.0359  0.2711
  421MOL0     C56716   0.731   0.153   3.960 -0.1873 -0.4463 -0.8235
  421MOL0     N56717   0.620   0.073   4.021 -0.2064 -0.0450 -0.1840
  421MOL0     C56718   0.640  -0.063   4.065 -0.0383 -0.5281 -0.5148
  421MOL0     C56719   0.508  -0.102   4.098  0.3153  0.2854 -0.0562
  421MOL0     C56720   0.456  -0.234   4.158  0.0903 -0.1965  0.2155
  421MOL0     C56721   0.341  -0.286   4.075  0.3203  0.2787  0.5380
  421MOL0     C56722   0.298  -0.433   4.115  0.2750 -0.4668 -0.4411
  421MOL0     C56723   0.389  -0.543   4.047 -0.5484  0.2848  0.0458
  421MOL0     O56724   0.307  -0.659   4.037  0.1148  0.5606  0.1100
  421MOL0     C56725   0.358  -0.775   3.981 -0.4488  0.3231 -0.2043
  421MOL0     C56726   0.490  -0.800   3.936 -0.2521 -0.0928 -0.5725
  421MOL0     C56727   0.512  -0.914   3.857 -0.8508 -0.4522 -0.1822
  421MOL0     C56728   0.408  -1.000   3.835 -0.4915  0.6153  0.3681
  421MOL0     C56729   0.434  -1.130   3.777 -0.2867 -0.9861  0.0003
  421MOL0     O56730   0.351  -1.236   3.815 -0.4844 -0.6434  0.7873
  421MOL0     C56731   0.328  -1.311   3.703 -0.8337 -0.9121  0.3770
  421MOL0     C56732   0.315  -1.457   3.721  0.2506 -0.1281 -0.6522
  421MOL0     C56733   0.309  -1.543   3.612  0.8028  0.3667  0.2066
  421MOL0     C56734   0.311  -1.501   3.484 -0.4937 -0.2526  1.5813
  421MOL0     O56735   0.312  -1.599   3.382  0.6419 -0.0412 -0.0353
  421MOL0     C56736   0.347  -1.545   3.254  0.8954  0.7846  0.3041
  421MOL0     C56737   0.370  -1.666   3.151 -0.4287  0.3649  0.5427
  421MOL0     C56738   0.420  -1.625   3.009  0.7106 -0.6313 -0.6885
  421MOL0     C56739   0.395  -1.731   2.902 -0.7516  0.3184 -0.1674
  421MOL0     C56740   0.244  -1.744   2.870 -0.6631  0.1804 -0.2266
  421MOL0     C56741   0.215  -1.730   2.719 -0.5867 -0.4321 -0.0288
  421MOL0     C56742   0.079  -1.809   2.696  0.1569 -0.6047  0.5346
  421MOL0     C56743   0.103  -1.953   2.631  0.1837 -0.7802  0.3740
  421MOL0    Cl56744   0.214  -2.062   2.736  0.5637  0.2465  0.1614
  421MOL0     C56745   0.323  -1.361   3.465  0.4108 -0.4234 -0.0242
  421MOL0     C56746   0.326  -1.266   3.566 -0.6324  0.4953  0.4564
  421MOL0     O56747   0.536  -1.140   3.705  0.3382 -0.2386 -0.5099
  421MOL0     C56748   0.283  -0.974   3.887  0.6941 -0.2592  0.9814
  421MOL0     C56749   0.257  -0.865   3.958 -0.1777 -0.1311 -0.5103
  421MOL0     N56750   0.426   0.013   4.088 -0.4780 -0.1970 -0.0455
  421MOL0     N56751   0.494   0.111   4.040  0.0377 -0.1650  1.5795
  421MOL0     C56752   1.485   0.095   4.813 -0.4564  0.4618  0.8575
  421MOL0     C56753   1.591   0.049   4.887 -0.1709 -0.7991 -0.0369
  421MOL0     C56754   1.846  -0.009   5.251  0.4205  0.7904  0.9460
  421MOL0     C56755   1.894  -0.143   5.232 -0.7965  0.4094 -0.0659
  421MOL0     C56756   2.014  -0.185   5.289  0.2752 -0.3845 -0.1873
  421MOL0     C56757   2.075  -0.103   5.381  0.6531  0.2387  0.4965
  421MOL0     O56758   2.180  -0.159   5.448 -0.4682 -0.0364  0.1537
  421MOL0     C56759   2.299  -0.077   5.468  0.0786  0.2124 -0.2948
  421MOL0     C56760   2.423  -0.167   5.441  0.3646 -0.2033 -0.1188
  421MOL0     C56761   2.405  -0.266   5.322  0.0066 -0.6864 -0.5821
  421MOL0     C56762   2.548  -0.314   5.287  0.5310  0.5890 -0.2623
  421MOL0     C56763   2.534  -0.412   5.174 -0.7068 -0.3837 -0.4001
  421MOL0     C56764   2.512  -0.484   5.080 -0.7615  0.0993  0.1971
  421MOL0     C56765   2.009   0.013   5.428 -1.2182 -0.0029 -0.0409
  421MOL0     C56766   1.892   0.063   5.362  0.0870 -0.3214  0.4055
  421MOL0     C56767   1.816   0.182   5.418  0.3384 -0.5810  1.5609
  421MOL0     H56768   1.427  -0.064   5.161  1.1433 -2.5241 -0.6714
  421MOL0     H56769   1.225  -0.012   5.013  0.1336 -0.8644  0.4514
  421MOL0     H56770   1.314   0.276   4.649  1.8615 -1.5279  0.9245
  421MOL0     H56771   1.310   0.105   4.599 -0.6379  0.7074 -1.8750
  421MOL0     H56772   1.052   0.273   4.620  1.8736  0.0716  0.8404
  421MOL0     H56773   1.074   0.100   4.607  1.5632 -0.2513  1.1424
  421MOL0     H56774   1.195   0.142   4.396  1.2384  1.1603 -0.6948
  421MOL0     H56775   1.193   0.317   4.432  1.6977 -1.4841  1.8524
  421MOL0     H56776   0.932   0.175   4.407  0.0563  1.6530  2.0831
  421MOL0     H56777   0.978   0.333   4.370 -4.1049 -1.2063 -0.4923
  421MOL0     H56778   1.068   0.271   4.164 -0.7781  0.2067 -0.6977
  421MOL0     H56779   1.079   0.098   4.190  0.5152 -0.2813 -2.3301
  421MOL0     H56780   0.813   0.095   4.207  0.8434  0.3935  2.5646
  421MOL0     H56781   0.818   0.275   4.178  0.3282 -0.3773  3.2611
  421MOL0     H56782   0.896   0.034   4.011 -0.1332  1.2322  1.5867
  421MOL0     H56783   0.950   0.195   3.956 -0.8121 -1.0258 -1.1179
  421MOL0     H56784   0.695   0.256   3.968  3.3252  0.7642  3.7639
  421MOL0     H56785   0.753   0.126   3.857  4.1458 -3.7558  0.6700
  421MOL0     H56786   0.718  -0.139   4.076 -1.7335 -2.4583 -1.1965
  421MOL0     H56787   0.543  -0.301   4.154  2.9536  3.0805  2.2736
  421MOL0     H56788   0.435  -0.219   4.264  3.1727 -0.1032  0.9099
  421MOL0     H56789   0.260  -0.213   4.084  0.8198  1.0210 -0.7027
  421MOL0     H56790   0.366  -0.280   3.969 -0.4576  0.0564  0.3319
  421MOL0     H56791   0.192  -0.442   4.088  0.3642 -0.0757 -0.9447
  421MOL0     H56792   0.305  -0.461   4.220 -1.2106 -1.9348 -0.6890
  421MOL0     H56793   0.479  -0.561   4.105  0.3075  1.0065 -1.0050
  421MOL0     H56794   0.421  -0.510   3.948 -2.1271  0.1941 -0.5345
  421MOL0     H56795   0.573  -0.741   3.975 -0.8987  0.7811 -0.5110
  421MOL0     H56796   0.617  -0.922   3.832 -0.5242  0.7392  0.6966
  421MOL0     H56797   0.323  -1.502   3.820 -1.4428 -2.4699 -1.4747
  421MOL0     H56798   0.315  -1.647   3.642 -1.2224 -0.2254 -1.2017
  421MOL0     H56799   0.269  -1.477   3.218  0.4165 -1.4138 -3.2969
  421MOL0     H56800   0.438  -1.486   3.273 -0.0378  2.0831  0.9340
  421MOL0     H56801   0.448  -1.734   3.186 -0.1750 -1.9022 -3.6562
  421MOL0     H56802   0.277  -1.723   3.136 -0.0483 -0.1255 -0.0317
  421MOL0     H56803   0.379  -1.535   2.962  2.5333 -0.4584 -2.1127
  421MOL0     H56804   0.528  -1.610   3.019  0.2640  3.1992  0.0735
  421MOL0     H56805   0.443  -1.822   2.938 -0.7870  0.3641 -0.0057
  421MOL0     H56806   0.453  -1.716   2.810  1.0205 -2.6011  0.3562
  421MOL0     H56807   0.181  -1.672   2.922 -0.9590 -0.9838  1.1047
  421MOL0     H56808   0.217  -1.845   2.902 -3.4803  1.1263  0.5928
  421MOL0     H56809   0.215  -1.626   2.687  1.4596 -0.6096 -0.7015
  421MOL0     H56810   0.301  -1.774   2.669  0.1504  0.5492  0.3609
  421MOL0     H56811   0.020  -1.764   2.615  0.9565  1.9001  1.2692
  421MOL0     H56812   0.010  -1.825   2.779 -1.2956 -0.2254 -0.5440
  421MOL0     H56813   0.002  -1.993   2.622 -0.6711  1.6264 -1.4805
  421MOL0     H56814   0.145  -1.960   2.531  2.6592  0.4715  1.2360
  421MOL0     H56815   0.337  -1.313   3.369 -0.2520  0.2594  0.2099
  421MOL0     H56816   0.339  -1.166   3.529 -1.7816  0.3145 -0.4873
  421MOL0     H56817   0.208  -1.052   3.882 -4.7866  4.2982  2.4879
  421MOL0     H56818   0.155  -0.837   3.983 -1.3149 -0.7770 -3.8279
  421MOL0     H56819   1.520   0.148   4.725 -1.3017  2.9452  1.9374
  421MOL0     H56820   1.697   0.049   4.865  0.3835 -0.6088  2.3902
  421MOL0     H56821   1.845  -0.214   5.166 -0.8116  1.2556 -0.9881
  421MOL0     H56822   2.051  -0.284   5.265 -1.0108 -0.6883 -1.0436
  421MOL0     H56823   2.309  -0.035   5.569  5.4809 -0.5619 -0.2193
  421MOL0     H56824   2.292   0.001   5.392  2.4409 -1.5519 -2.4861
  421MOL0     H56825   2.434  -0.226   5.533 -3.2747  0.1580  0.6944
  421MOL0     H56826   2.517  -0.118   5.416  0.3041  0.5799  1.1187
  421MOL0     H56827   2.361  -0.208   5.240  1.5180  2.8070  0.8433
  421MOL0     H56828   2.340  -0.350   5.349 -0.3670  0.0264  0.8860
  421MOL0     H56829   2.615  -0.233   5.255 -1.1189  2.5954  1.0835
  421MOL0     H56830   2.583  -0.354   5.383  0.6373 -1.2225 -1.0149
  421MOL0     H56831   2.478  -0.526   4.987  2.0804 -0.0563 -0.8948
  421MOL0     H56832   2.044   0.059   5.519 -0.9965  0.3764 -0.3171
  421MOL0     H56833   1.839   0.173   5.525  3.4993 -1.4763  0.9029
  421MOL0     H56834   1.875   0.270   5.393 -2.1269  0.6013 -0.5238
  421MOL0     H56835   1.707   0.188   5.406  0.4613 -1.3566 -0.1262
  422MOL0     O56836   3.969   4.702   6.766  0.4547  0.3031  0.3335
  422MOL0     C56837   3.882   4.756   6.829 -0.5854 -0.3168 -0.8655
  422MOL0     O56838   3.872   4.740   6.972  0.5092 -0.3506  0.6485
  422MOL0     C56839   3.941   4.643   7.037  0.1080 -0.1194  0.3461
  422MOL0     C56840   3.896   4.641   7.171  0.3924 -0.6586 -0.2856
  422MOL0     C56841   3.933   4.544   7.259 -0.2569  1.1098 -0.1878
  422MOL0     C56842   4.019   4.437   7.215  0.4075  0.2919 -0.0034
  422MOL0     O56843   4.071   4.349   7.311  0.3442  0.3630  0.1902
  422MOL0     C56844   4.095   4.393   7.449  0.1588  0.2416  0.2719
  422MOL0     C56845   4.227   4.336   7.501  0.6731  1.3407  0.7645
  422MOL0     C56846   4.241   4.335   7.650  0.8657  0.2354 -0.1028
  422MOL0     C56847   4.141   4.235   7.710 -0.3383 -0.6735 -0.5532
  422MOL0     C56848   4.162   4.211   7.858  0.4321 -0.4949  0.7422
  422MOL0     C56849   4.295   4.153   7.901 -0.0864  0.0306  0.9225
  422MOL0     C56850   4.335   4.020   7.831  0.4168  0.4801 -0.2507
  422MOL0     C56851   4.471   3.957   7.880  0.1496 -0.0844 -1.8168
  422MOL0     N56852   4.594   4.037   7.856  0.4530  0.4228  0.1791
  422MOL0     C56853   4.659   4.050   7.733 -0.1127  0.4576 -0.1140
  422MOL0     C56854   4.794   4.083   7.752  0.5182 -0.9764  0.2907
  422MOL0     C56855   4.895   4.115   7.651  0.3055  0.6018  0.5341
  422MOL0     C56856   4.895   4.009   7.536 -0.6584  0.0813  0.0754
  422MOL0     C56857   4.931   4.073   7.400  0.5513 -1.4464  0.3848
  422MOL0     C56858   4.817   4.166   7.346 -0.3796 -1.1143  0.3230
  422MOL0     O56859   4.687   4.110   7.371 -0.5124  0.0904  0.5071
  422MOL0     C56860   4.618   4.077   7.263  0.6149  0.1655  0.2195
  422MOL0     C56861   4.620   3.943   7.216  0.3020 -0.7481  0.8083
  422MOL0     C56862   4.561   3.909   7.092  0.7988  0.6387  0.3091
  422MOL0     C56863   4.485   3.999   7.014  1.1557  0.0966  0.3440
  422MOL0     C56864   4.424   3.952   6.877 -1.2420 -0.0428  1.2148
  422MOL0     O56865   4.357   4.051   6.806  0.2530  0.1009  0.0198
  422MOL0     C56866   4.317   4.037   6.678  1.2920 -0.7670 -0.5145
  422MOL0     C56867   4.226   4.137   6.633  0.7933 -0.2881  0.7372
  422MOL0     C56868   4.176   4.144   6.505  0.4947 -0.4298 -0.1897
  422MOL0     C56869   4.213   4.048   6.414  0.2834 -0.5047 -0.5108
  422MOL0     O56870   4.174   4.056   6.277 -0.6514 -0.2947 -0.3019
  422MOL0     C56871   4.140   4.188   6.223  0.3159 -0.1571 -0.5318
  422MOL0     C56872   4.131   4.165   6.070 -0.9997  0.0481  0.0533
  422MOL0     C56873   3.992   4.124   6.012 -0.0620  1.2551 -0.6866
  422MOL0     C56874   3.975   3.970   6.063  0.6672 -0.4783  0.1325
  422MOL0     C56875   3.845   3.913   5.998 -0.5703  0.9326 -0.2083
  422MOL0     C56876   3.830   3.773   6.029  0.4873 -0.2814 -0.0109
  422MOL0     C56877   3.721   3.715   5.929 -0.1101  0.6560 -0.4056
  422MOL0     C56878   3.657   3.588   6.001 -0.1892 -0.5599 -0.3947
  422MOL0    Cl56879   3.539   3.519   5.878  0.2308  0.1423  0.1564
  422MOL0     C56880   4.292   3.947   6.450  0.5071 -0.3738 -0.5260
  422MOL0     C56881   4.341   3.935   6.586 -0.3918 -0.6538  0.6716
  422MOL0     O56882   4.445   3.836   6.843 -0.2079  0.3797  0.0352
  422MOL0     C56883   4.472   4.125   7.067 -0.2683 -0.6626 -0.5019
  422MOL0     C56884   4.552   4.167   7.180 -0.8421 -0.1223  0.3681
  422MOL0     N56885   4.815   4.086   7.887 -0.5631  0.6369 -0.0099
  422MOL0     N56886   4.698   4.055   7.943 -0.0273 -0.4604  1.2015
  422MOL0     C56887   4.068   4.437   7.086 -0.9342  0.6809  0.2586
  422MOL0     C56888   4.025   4.534   6.994 -0.7018  0.5763  0.5051
  422MOL0     C56889   3.793   4.853   6.760 -0.0868 -0.6266 -0.8317
  422MOL0     C56890   3.705   4.936   6.836 -0.3789 -0.1082  0.6658
  422MOL0     C56891   3.633   5.039   6.775  0.1000  0.3688 -0.2969
  422MOL0     C56892   3.632   5.065   6.637  0.7010 -0.1452  0.5891
  422MOL0     O56893   3.551   5.172   6.594  0.4570  0.5046  0.1313
  422MOL0     C56894   3.493   5.179   6.460 -0.0444  0.1565  0.6257
  422MOL0     C56895   3.386   5.280   6.447 -0.1021  0.6132  0.0942
  422MOL0     C56896   3.301   5.296   6.580  0.2544  0.0576  0.6208
  422MOL0     C56897   3.184   5.400   6.571  0.0323  0.7119  0.6456
  422MOL0     C56898   3.251   5.524   6.584 -1.1006 -0.3808  0.2851
  422MOL0     C56899   3.304   5.628   6.600 -0.3686  1.2656  0.1496
  422MOL0     C56900   3.712   4.979   6.563  0.0613  0.6719  0.5742
  422MOL0     C56901   3.784   4.875   6.618  0.0155  0.5777  0.3647
  422MOL0     C56902   3.870   4.794   6.519  0.2340  0.1194 -0.0157
  422MOL0     H56903   3.820   4.707   7.212  0.9261  1.1760 -2.1100
  422MOL0     H56904   3.889   4.547   7.358 -1.0493 -3.3572 -0.2102
  422MOL0     H56905   4.092   4.503   7.454  1.6410  0.3371 -0.4449
  422MOL0     H56906   4.009   4.361   7.508  1.0575  0.2274  1.6325
  422MOL0     H56907   4.301   4.397   7.450 -1.9555  0.8827 -4.2545
  422MOL0     H56908   4.238   4.240   7.451  0.6124  1.9850 -0.5191
  422MOL0     H56909   4.213   4.433   7.689 -3.4833 -1.2726  1.0987
  422MOL0     H56910   4.342   4.299   7.674  0.8651  0.2172 -0.1275
  422MOL0     H56911   4.045   4.289   7.710 -0.6891 -1.2893 -0.2997
  422MOL0     H56912   4.117   4.149   7.647 -2.4931  0.6785 -1.7107
  422MOL0     H56913   4.125   4.293   7.921 -0.4985 -1.5226  1.5750
  422MOL0     H56914   4.086   4.137   7.883 -0.2453 -0.4593 -1.0669
  422MOL0     H56915   4.382   4.219   7.893 -1.4146  1.6614 -4.0356
  422MOL0     H56916   4.281   4.128   8.006  1.7003 -0.9021  0.9857
  422MOL0     H56917   4.355   4.032   7.724 -0.0443 -0.5462 -0.4653
  422MOL0     H56918   4.256   3.945   7.848  0.5739  0.6001  1.1644
  422MOL0     H56919   4.450   3.936   7.985 -1.1633  2.4207 -1.4930
  422MOL0     H56920   4.491   3.865   7.824  2.4790 -0.9481  0.2668
  422MOL0     H56921   4.597   4.042   7.644 -0.0294 -1.0196 -0.0605
  422MOL0     H56922   4.874   4.216   7.615  2.0101  0.3893 -1.2416
  422MOL0     H56923   4.996   4.123   7.693 -0.2377 -1.4886  2.3894
  422MOL0     H56924   4.975   3.943   7.569  0.0668  1.6164  1.5735
  422MOL0     H56925   4.802   3.953   7.528  0.3857 -2.1038  2.0241
  422MOL0     H56926   4.951   3.988   7.334  1.8866 -0.1300 -1.0025
  422MOL0     H56927   5.022   4.132   7.414 -2.0025  3.4163 -1.1864
  422MOL0     H56928   4.845   4.174   7.241  3.7702  2.3573  1.3734
  422MOL0     H56929   4.817   4.269   7.383  3.2122 -1.3922  1.5699
  422MOL0     H56930   4.671   3.866   7.274  2.0260 -1.6086 -1.6685
  422MOL0     H56931   4.578   3.808   7.057  0.2358  0.5714  0.2092
  422MOL0     H56932   4.202   4.220   6.700  0.9245 -0.5550  1.1206
  422MOL0     H56933   4.123   4.235   6.480  1.5752  0.4118  0.4632
  422MOL0     H56934   4.041   4.220   6.257  0.5478  0.7210 -0.6739
  422MOL0     H56935   4.209   4.269   6.247  0.0201 -0.5773  2.0223
  422MOL0     H56936   4.139   4.256   6.010  0.0523 -0.8619 -1.2561
  422MOL0     H56937   4.200   4.083   6.049  0.4004  0.8040  1.4427
  422MOL0     H56938   3.911   4.191   6.043 -2.4161 -1.1886 -1.2316
  422MOL0     H56939   4.000   4.137   5.904 -1.7003  2.3010 -0.7125
  422MOL0     H56940   3.975   3.962   6.172  3.1571 -1.0482  0.1543
  422MOL0     H56941   4.055   3.900   6.037  1.7921  0.7206  0.3227
  422MOL0     H56942   3.846   3.918   5.889  1.2828 -0.6926 -0.3236
  422MOL0     H56943   3.761   3.973   6.033 -2.3914 -0.8195 -1.3345
  422MOL0     H56944   3.923   3.718   6.014  1.9928  2.4636 -1.6005
  422MOL0     H56945   3.786   3.762   6.128 -0.2127 -1.6042 -0.4519
  422MOL0     H56946   3.775   3.669   5.845 -1.5244 -2.6415  0.3047
  422MOL0     H56947   3.651   3.792   5.894 -1.7652 -0.2110  0.8516
  422MOL0     H56948   3.739   3.517   6.021  1.8401  1.5659 -0.7034
  422MOL0     H56949   3.612   3.626   6.093 -0.3029 -0.1117 -0.6364
  422MOL0     H56950   4.314   3.883   6.365  2.8748  2.7202 -2.4673
  422MOL0     H56951   4.401   3.847   6.608  1.3279  0.6899  1.5576
  422MOL0     H56952   4.406   4.193   7.015 -1.0772 -2.9398 -2.6794
  422MOL0     H56953   4.555   4.275   7.191 -0.6442  0.1124 -1.5650
  422MOL0     H56954   4.144   4.363   7.061 -3.2135 -0.9192 -2.4549
  422MOL0     H56955   4.060   4.521   6.891 -3.1223 -1.1828 -0.1751
  422MOL0     H56956   3.700   4.920   6.943  1.4821  4.1578  1.6294
  422MOL0     H56957   3.559   5.084   6.841 -0.1176 -0.4532  0.0196
  422MOL0     H56958   3.451   5.083   6.429 -1.3688  1.0081 -0.3100
  422MOL0     H56959   3.578   5.205   6.396 -0.4909 -0.2358 -0.1384
  422MOL0     H56960   3.324   5.260   6.358  0.5918  1.5657 -0.6253
  422MOL0     H56961   3.434   5.378   6.443 -2.5203  1.8681 -0.8005
  422MOL0     H56962   3.364   5.324   6.665  2.7800  1.3559 -1.5130
  422MOL0     H56963   3.255   5.200   6.603 -0.9735  0.4721  0.0042
  422MOL0     H56964   3.142   5.391   6.470  0.8851 -0.8947  0.3915
  422MOL0     H56965   3.099   5.377   6.636  2.1008  1.0426  3.6625
  422MOL0     H56966   3.356   5.720   6.616 -0.3630  1.3544 -0.3465
  422MOL0     H56967   3.731   5.002   6.459  0.3144  1.3090  0.7571
  422MOL0     H56968   3.977   4.808   6.539  0.0919  0.3763  0.6224
  422MOL0     H56969   3.839   4.689   6.519  2.3498 -0.5434 -0.3296
  422MOL0     H56970   3.865   4.809   6.411 -3.4711 -2.1115 -0.3382
  423MOL0     O56971   1.393   7.048   4.096  0.0595  0.0858 -0.0181
  423MOL0     C56972   1.290   6.999   4.141 -0.2732 -1.0039 -0.5200
  423MOL0     O56973   1.256   7.007   4.272  0.3205 -0.5116  0.8186
  423MOL0     C56974   1.358   7.011   4.358 -0.0726  0.3765 -0.7512
  423MOL0     C56975   1.350   7.069   4.482  0.3118 -0.1052  0.1343
  423MOL0     C56976   1.449   7.074   4.576  0.0503  0.0962  0.8315
  423MOL0     C56977   1.574   7.018   4.548 -0.2511 -0.7844 -0.4735
  423MOL0     O56978   1.674   7.007   4.632 -0.1533 -0.7162  0.1249
  423MOL0     C56979   1.711   7.118   4.716  0.1568 -0.2141 -0.4059
  423MOL0     C56980   1.677   7.075   4.868 -0.2672  0.0708  0.0586
  423MOL0     C56981   1.763   6.957   4.916  0.2593  0.0928 -0.1501
  423MOL0     C56982   1.802   6.962   5.067  0.3354  0.0370  0.0525
  423MOL0     C56983   1.852   6.822   5.117  0.1071  0.4435  0.9971
  423MOL0     C56984   1.783   6.759   5.236  0.0111 -0.2596  0.5322
  423MOL0     C56985   1.832   6.608   5.255 -0.0377 -0.1720 -1.2484
  423MOL0     C56986   1.987   6.604   5.283  0.1699 -0.0724  0.4859
  423MOL0     N56987   2.019   6.632   5.424  0.8118  0.0502 -0.3473
  423MOL0     C56988   2.031   6.542   5.525 -0.3027  0.6818  0.9340
  423MOL0     C56989   2.051   6.612   5.630 -0.0472  0.7937 -0.2667
  423MOL0     C56990   2.086   6.552   5.765 -0.4890 -0.1864  0.3165
  423MOL0     C56991   2.239   6.549   5.788 -0.3333  0.4041  0.8589
  423MOL0     C56992   2.290   6.423   5.846 -0.1234 -0.1648  0.3784
  423MOL0     C56993   2.436   6.420   5.887 -0.4185  0.6911 -0.1261
  423MOL0     O56994   2.528   6.453   5.776 -0.7453 -0.5078  0.5960
  423MOL0     C56995   2.553   6.366   5.672 -0.4488  0.5451  0.5738
  423MOL0     C56996   2.634   6.412   5.564 -0.0469 -0.7528  0.8188
  423MOL0     C56997   2.660   6.338   5.454  0.6808 -0.4241 -0.0856
  423MOL0     C56998   2.615   6.213   5.437  1.1257  0.1321 -0.0936
  423MOL0     C56999   2.664   6.135   5.316  0.0410 -0.1240  0.0988
  423MOL0     O57000   2.715   6.210   5.215  0.3043  0.2791 -0.2513
  423MOL0     C57001   2.746   6.143   5.091 -0.4314 -0.7432  0.9580
  423MOL0     C57002   2.645   6.096   4.997 -0.3841 -0.3239  0.5530
  423MOL0     C57003   2.690   6.022   4.888 -0.0422 -1.0465  0.5953
  423MOL0     C57004   2.827   5.998   4.848  0.9071 -0.4948  0.0321
  423MOL0     O57005   2.857   5.922   4.732  0.5208  1.1845  0.3585
  423MOL0     C57006   2.991   5.872   4.719  0.8022  0.1498 -0.0757
  423MOL0     C57007   3.009   5.764   4.608 -0.3353 -0.4269  0.3222
  423MOL0     C57008   3.143   5.685   4.616 -0.4232 -0.9528 -0.2068
  423MOL0     C57009   3.177   5.599   4.498 -0.6276  0.7354 -0.2598
  423MOL0     C57010   3.327   5.545   4.511 -0.8247 -0.6618 -0.6139
  423MOL0     C57011   3.424   5.650   4.436  0.2955 -0.5658  0.1153
  423MOL0     C57012   3.567   5.608   4.453  0.2756 -0.3952  0.1339
  423MOL0     C57013   3.641   5.590   4.590  0.4451  1.0872  0.8726
  423MOL0    Cl57014   3.667   5.750   4.656 -0.2827  0.0472 -0.0060
  423MOL0     C57015   2.921   6.068   4.926  0.2326 -0.7069 -0.1169
  423MOL0     C57016   2.886   6.129   5.046 -0.3943  0.2207 -0.5190
  423MOL0     O57017   2.659   6.012   5.315  0.9837  0.1561  0.1716
  423MOL0     C57018   2.540   6.156   5.547  1.3403  0.7791  0.1573
  423MOL0     C57019   2.505   6.235   5.657  0.1637  1.0142 -0.8242
  423MOL0     N57020   2.056   6.742   5.608  1.1071 -0.7501 -0.0298
  423MOL0     N57021   2.038   6.754   5.482  0.3922 -0.1868  0.0230
  423MOL0     C57022   1.588   6.950   4.435  0.3015  0.0887  0.8892
  423MOL0     C57023   1.482   6.935   4.344 -0.5260 -0.1651  0.7047
  423MOL0     C57024   1.201   6.957   4.043 -1.1024 -0.5082 -0.0700
  423MOL0     C57025   1.067   6.941   4.079 -0.9442  0.1696 -0.1042
  423MOL0     C57026   0.968   6.919   3.983  1.1423  0.3096 -0.0040
  423MOL0     C57027   1.000   6.896   3.849 -0.9446 -0.0436  1.1381
  423MOL0     O57028   0.908   6.887   3.753 -0.0702  0.3922  1.1967
  423MOL0     C57029   0.772   6.864   3.778  0.4132 -0.0346 -0.0197
  423MOL0     C57030   0.691   6.840   3.650 -0.1541  0.0084 -0.2454
  423MOL0     C57031   0.729   6.917   3.516  0.2919 -0.4934 -0.3265
  423MOL0     C57032   0.595   6.936   3.448  0.2222 -0.1447 -0.3896
  423MOL0     C57033   0.584   6.857   3.324  0.2115 -0.4152  0.3968
  423MOL0     C57034   0.554   6.795   3.218  0.2755 -0.8804  0.1755
  423MOL0     C57035   1.140   6.900   3.819  0.1934  0.6496 -0.5385
  423MOL0     C57036   1.240   6.937   3.907 -0.6090 -0.0125 -0.8623
  423MOL0     C57037   1.374   6.942   3.845  0.6919 -0.2025  0.6207
  423MOL0     H57038   1.246   7.089   4.506  0.2696 -1.4848  1.2374
  423MOL0     H57039   1.428   7.104   4.678 -1.6721 -1.9824  1.1682
  423MOL0     H57040   1.820   7.133   4.720  0.3562 -1.3627  4.4898
  423MOL0     H57041   1.669   7.208   4.669  0.5335  0.0669 -0.2160
  423MOL0     H57042   1.570   7.054   4.875  0.2326 -2.0153  3.2191
  423MOL0     H57043   1.687   7.161   4.935  1.0672 -0.1747  0.2046
  423MOL0     H57044   1.851   6.935   4.854  0.3801 -0.8000  0.3314
  423MOL0     H57045   1.699   6.869   4.905  0.2384  0.2085 -1.0876
  423MOL0     H57046   1.880   7.035   5.088  1.6936 -1.5173  0.6173
  423MOL0     H57047   1.708   6.984   5.120  0.0703 -1.2554  0.1511
  423MOL0     H57048   1.851   6.745   5.040  0.6464  1.0888  0.3183
  423MOL0     H57049   1.956   6.843   5.145  0.9240 -1.9425  0.0248
  423MOL0     H57050   1.803   6.810   5.331  1.1096 -3.1154  1.9352
  423MOL0     H57051   1.679   6.758   5.202  0.4095 -0.4304 -0.7403
  423MOL0     H57052   1.811   6.549   5.165  0.5625  0.6332 -1.9334
  423MOL0     H57053   1.789   6.563   5.345  2.1274  0.7136  0.3009
  423MOL0     H57054   2.035   6.506   5.269  1.6673  0.4290  1.7952
  423MOL0     H57055   2.030   6.679   5.217 -1.3092  1.9947  1.7511
  423MOL0     H57056   2.030   6.433   5.516  2.0182  0.6697  0.2020
  423MOL0     H57057   2.036   6.607   5.846 -3.7750 -0.0418 -1.6138
  423MOL0     H57058   2.035   6.455   5.763  1.6260 -1.3704  1.0087
  423MOL0     H57059   2.291   6.571   5.695 -0.2325 -0.1149  0.7888
  423MOL0     H57060   2.269   6.625   5.861 -1.3673  1.3562  0.3110
  423MOL0     H57061   2.269   6.340   5.777 -1.1529  0.6829 -0.3744
  423MOL0     H57062   2.221   6.403   5.928 -1.0887  0.6487 -0.2082
  423MOL0     H57063   2.448   6.322   5.933 -1.9679 -0.4802 -2.0280
  423MOL0     H57064   2.439   6.503   5.958 -2.8899  1.7098 -1.0976
  423MOL0     H57065   2.672   6.513   5.572 -2.2235  0.0808  1.5149
  423MOL0     H57066   2.723   6.374   5.373  1.2593 -2.0855 -0.4045
  423MOL0     H57067   2.546   6.085   5.039 -0.7418 -0.5602 -0.3363
  423MOL0     H57068   2.612   5.982   4.825 -0.9615  1.6549 -0.1446
  423MOL0     H57069   3.057   5.957   4.698 -1.2655  1.6799 -0.7397
  423MOL0     H57070   3.018   5.820   4.811  1.8395  2.7157  1.1693
  423MOL0     H57071   2.926   5.695   4.621 -0.9196  0.1319 -0.3464
  423MOL0     H57072   3.000   5.812   4.510 -0.8332 -1.2250 -0.0346
  423MOL0     H57073   3.226   5.757   4.623  1.0746 -2.4979 -1.2717
  423MOL0     H57074   3.141   5.625   4.707 -2.1017  0.2443  0.6030
  423MOL0     H57075   3.149   5.648   4.405 -2.2775 -2.1923 -1.4537
  423MOL0     H57076   3.113   5.509   4.500  0.8334 -0.4382 -2.3348
  423MOL0     H57077   3.325   5.444   4.468 -3.7641 -0.9525  0.0122
  423MOL0     H57078   3.369   5.527   4.611 -0.1884 -3.9918 -1.3421
  423MOL0     H57079   3.396   5.656   4.330 -2.0992 -0.7556  0.6751
  423MOL0     H57080   3.394   5.752   4.463  0.6703  0.3488 -2.6017
  423MOL0     H57081   3.633   5.675   4.398  0.6138  1.0524  2.1833
  423MOL0     H57082   3.561   5.511   4.403 -1.6161 -1.1006  1.5635
  423MOL0     H57083   3.592   5.523   4.663  0.6708 -1.6877 -1.3426
  423MOL0     H57084   3.735   5.535   4.582 -0.5625 -0.3622 -2.8737
  423MOL0     H57085   3.027   6.053   4.904  0.6639  1.8531 -0.0231
  423MOL0     H57086   2.970   6.179   5.093 -0.4315  0.8749 -1.1186
  423MOL0     H57087   2.515   6.051   5.545  1.8046  0.6595 -2.2064
  423MOL0     H57088   2.446   6.191   5.737 -0.5774  0.2381 -1.7795
  423MOL0     H57089   1.673   6.894   4.397 -0.6692 -0.0467 -1.1608
  423MOL0     H57090   1.504   6.878   4.255 -1.5148  0.7247 -0.1387
  423MOL0     H57091   1.026   6.970   4.176 -0.2460  1.8331 -0.2644
  423MOL0     H57092   0.868   6.937   4.020  1.1058 -2.6647  1.6198
  423MOL0     H57093   0.730   6.950   3.831  0.3410 -1.1692  1.8273
  423MOL0     H57094   0.755   6.782   3.848 -1.2938 -0.6727 -1.0863
  423MOL0     H57095   0.589   6.861   3.684 -0.2368  2.4494 -1.7973
  423MOL0     H57096   0.681   6.734   3.622 -1.4565 -1.0282  3.4931
  423MOL0     H57097   0.811   6.867   3.464  3.4704  2.1577  1.7538
  423MOL0     H57098   0.772   7.011   3.552 -2.1907  0.1030  1.3652
  423MOL0     H57099   0.506   6.920   3.509  0.5051 -1.2051 -0.2385
  423MOL0     H57100   0.582   7.036   3.404  0.7750 -0.5231 -1.4454
  423MOL0     H57101   0.509   6.740   3.137 -0.7011 -1.2641  0.9569
  423MOL0     H57102   1.154   6.883   3.713 -1.0110  0.0108 -0.6102
  423MOL0     H57103   1.452   6.896   3.905 -0.5201  0.3411  2.7000
  423MOL0     H57104   1.378   6.891   3.748  1.0712  0.0244  0.5162
  423MOL0     H57105   1.406   7.044   3.823  3.0384 -0.9361  0.4197
  424MOL0     O57106   2.723   0.657   5.745  0.3093  0.9418 -1.2799
  424MOL0     C57107   2.625   0.686   5.684  0.4509  0.4805 -0.4772
  424MOL0     O57108   2.578   0.607   5.581  0.9757  0.3412 -0.3469
  424MOL0     C57109   2.646   0.491   5.556  0.3442 -0.5554 -0.1740
  424MOL0     C57110   2.747   0.477   5.456  0.4489 -0.5191 -0.2088
  424MOL0     C57111   2.807   0.351   5.443 -0.2657  0.6893 -0.9995
  424MOL0     C57112   2.754   0.238   5.506  0.2133 -0.3399 -0.1763
  424MOL0     O57113   2.805   0.108   5.505  0.4881  0.2198  0.2069
  424MOL0     C57114   2.880   0.061   5.388 -0.2557  0.5050 -0.1491
  424MOL0     C57115   2.806  -0.063   5.335  0.3455 -0.0198 -1.1415
  424MOL0     C57116   2.877  -0.156   5.227  0.2783 -0.5335 -0.6788
  424MOL0     C57117   2.868  -0.117   5.083  0.0841 -0.8830  0.9479
  424MOL0     C57118   2.959  -0.196   4.985  0.7824 -0.6456 -0.3059
  424MOL0     C57119   2.894  -0.334   4.977 -0.1482 -0.7126  0.5239
  424MOL0     C57120   2.961  -0.411   4.864  0.5288 -0.3727  0.2770
  424MOL0     C57121   2.874  -0.538   4.825  0.2603 -0.0990 -0.4343
  424MOL0     N57122   2.922  -0.606   4.706  0.2790  0.5976  0.3778
  424MOL0     C57123   3.053  -0.652   4.681 -0.0496  0.4413  0.5125
  424MOL0     C57124   3.064  -0.679   4.551  0.6055  0.9395  0.2479
  424MOL0     C57125   3.179  -0.712   4.466  0.3980 -0.1307  0.3661
  424MOL0     C57126   3.180  -0.847   4.394  0.1896 -0.2291  0.5400
  424MOL0     C57127   3.303  -0.876   4.323 -0.5547 -0.0252 -0.1078
  424MOL0     C57128   3.297  -0.991   4.227 -0.1633 -0.3838  0.8165
  424MOL0     O57129   3.190  -1.096   4.243 -0.0653 -0.1687  0.9332
  424MOL0     C57130   3.225  -1.192   4.331  0.3217 -0.1788 -0.3060
  424MOL0     C57131   3.137  -1.298   4.340  0.0666 -0.9096  0.1942
  424MOL0     C57132   3.157  -1.412   4.422  0.7957 -0.6466 -0.4475
  424MOL0     C57133   3.260  -1.410   4.509 -0.5529  0.6625 -0.6305
  424MOL0     C57134   3.284  -1.526   4.605  1.0570  0.3476  0.8936
  424MOL0     O57135   3.198  -1.635   4.584  0.3815  0.0600  1.3614
  424MOL0     C57136   3.207  -1.746   4.656 -0.1322 -0.0370  0.1552
  424MOL0     C57137   3.107  -1.844   4.633  0.1398 -0.5147  0.5783
  424MOL0     C57138   3.097  -1.971   4.698  0.0480 -0.7342  0.6843
  424MOL0     C57139   3.179  -1.991   4.815 -0.9579  0.0535  0.8817
  424MOL0     O57140   3.176  -2.101   4.905  0.7203  0.1078  0.4015
  424MOL0     C57141   3.057  -2.187   4.894  0.3144  0.2272 -0.3849
  424MOL0     C57142   3.047  -2.281   5.017  0.8569 -0.2249  1.6027
  424MOL0     C57143   2.964  -2.421   5.016  0.7818 -0.2566 -0.1712
  424MOL0     C57144   2.981  -2.499   5.151  0.4810  0.9989 -0.3002
  424MOL0     C57145   2.935  -2.646   5.128 -0.1160  0.4682 -0.0077
  424MOL0     C57146   2.780  -2.660   5.154  0.9220  0.3102  0.7877
  424MOL0     C57147   2.770  -2.801   5.229 -0.5629  0.2377 -0.7597
  424MOL0     C57148   2.626  -2.831   5.277 -0.1751 -0.1906 -0.5518
  424MOL0    Cl57149   2.520  -2.861   5.136  0.3494  0.3265 -0.0042
  424MOL0     C57150   3.280  -1.901   4.841 -0.1963  0.9725 -0.0536
  424MOL0     C57151   3.297  -1.781   4.767  0.4595  0.0071 -0.4098
  424MOL0     O57152   3.376  -1.528   4.676 -0.0596 -0.0522  0.4479
  424MOL0     C57153   3.334  -1.288   4.524 -0.1013 -0.1445 -0.2845
  424MOL0     C57154   3.325  -1.177   4.430  0.3420 -0.7101  0.3275
  424MOL0     N57155   2.936  -0.666   4.494 -0.2961  0.2709 -0.3268
  424MOL0     N57156   2.856  -0.619   4.586  0.6840 -0.3091  0.2215
  424MOL0     C57157   2.650   0.257   5.594  0.7886  0.2831 -0.7022
  424MOL0     C57158   2.590   0.381   5.615  0.0588  0.7420 -0.2210
  424MOL0     C57159   2.543   0.801   5.744  0.0047 -0.1198  0.5054
  424MOL0     C57160   2.410   0.807   5.702  0.3608 -0.0419 -0.3536
  424MOL0     C57161   2.325   0.919   5.729  0.1848  0.6512  0.7327
  424MOL0     C57162   2.377   1.023   5.806  0.8471  0.5303  0.1332
  424MOL0     O57163   2.292   1.124   5.834  0.6177  0.5575 -0.1345
  424MOL0     C57164   2.326   1.221   5.940 -0.0152 -0.1328 -0.2070
  424MOL0     C57165   2.209   1.324   5.987  0.9491  0.2909  1.4203
  424MOL0     C57166   2.083   1.243   5.999  1.5314  0.3201  0.0995
  424MOL0     C57167   1.961   1.267   5.911 -0.2021 -0.4887  0.3394
  424MOL0     C57168   1.843   1.189   5.955 -0.6049  1.0021  0.5376
  424MOL0     C57169   1.746   1.125   5.980 -0.1126  0.3023  0.4203
  424MOL0     C57170   2.505   1.014   5.852 -0.5227  0.3695 -0.3284
  424MOL0     C57171   2.588   0.904   5.826 -0.0267 -0.4977  0.5477
  424MOL0     C57172   2.722   0.914   5.883 -0.5167  0.2453 -0.2721
  424MOL0     H57173   2.784   0.572   5.419 -1.7563  0.3865 -0.2769
  424MOL0     H57174   2.899   0.325   5.392 -0.1001  0.8078 -0.7644
  424MOL0     H57175   2.893   0.133   5.306 -0.8180  2.0712  1.0901
  424MOL0     H57176   2.980   0.037   5.426  0.2586  0.5989 -1.3804
  424MOL0     H57177   2.706  -0.036   5.300  0.8863 -0.3612 -3.0407
  424MOL0     H57178   2.791  -0.127   5.422  2.2841  1.5652  0.4758
  424MOL0     H57179   2.838  -0.254   5.256 -1.9312  0.9506  2.0009
  424MOL0     H57180   2.983  -0.154   5.251  0.5166 -0.7109 -1.6870
  424MOL0     H57181   2.763  -0.131   5.057  0.4107 -1.2431 -0.2644
  424MOL0     H57182   2.896  -0.012   5.091 -0.9471 -0.5339  0.1844
  424MOL0     H57183   2.977  -0.145   4.890  3.3347 -1.7417 -0.4802
  424MOL0     H57184   3.059  -0.211   5.027  0.8414 -2.0941 -0.9222
  424MOL0     H57185   2.911  -0.396   5.066  1.6688  1.3067  1.6692
  424MOL0     H57186   2.785  -0.325   4.970 -0.2225  2.3813  3.2924
  424MOL0     H57187   3.054  -0.466   4.881  0.1069 -1.1299  0.1980
  424MOL0     H57188   2.970  -0.348   4.775 -2.3389 -1.1894 -0.7102
  424MOL0     H57189   2.871  -0.593   4.920  0.6712  1.9808  0.8673
  424MOL0     H57190   2.771  -0.512   4.799 -0.3287 -0.9304  0.9364
  424MOL0     H57191   3.138  -0.648   4.748 -0.4889  2.2657  1.0156
  424MOL0     H57192   3.197  -0.626   4.401 -3.9343  1.0608  0.4035
  424MOL0     H57193   3.267  -0.711   4.530  0.0373 -1.3736  0.9153
  424MOL0     H57194   3.169  -0.913   4.481  0.5276  1.0580  1.5933
  424MOL0     H57195   3.095  -0.844   4.325  0.1852  0.4251  0.5618
  424MOL0     H57196   3.381  -0.886   4.400 -2.0331  1.0354  1.6324
  424MOL0     H57197   3.334  -0.791   4.260  1.2610  1.3850  2.4571
  424MOL0     H57198   3.391  -1.044   4.213 -0.9155 -1.2929 -1.0644
  424MOL0     H57199   3.301  -0.941   4.130  2.6339 -1.8994  0.0581
  424MOL0     H57200   3.044  -1.275   4.290  0.5623  0.6981 -0.0840
  424MOL0     H57201   3.097  -1.503   4.415 -0.9716  0.4139  0.1461
  424MOL0     H57202   3.035  -1.832   4.553 -2.2634 -1.7168  2.4426
  424MOL0     H57203   3.032  -2.046   4.656 -1.3485  2.3313 -3.3138
  424MOL0     H57204   2.969  -2.125   4.876  0.5115  0.4932 -0.4417
  424MOL0     H57205   3.076  -2.246   4.804 -0.3328  1.0019 -1.0353
  424MOL0     H57206   3.148  -2.305   5.051  0.8565  0.1771  1.8960
  424MOL0     H57207   2.999  -2.224   5.098 -1.2149  0.1222  0.2125
  424MOL0     H57208   2.857  -2.407   4.998  0.0985  0.7411  3.7131
  424MOL0     H57209   2.994  -2.479   4.929 -2.0699  0.0671 -1.4707
  424MOL0     H57210   2.930  -2.457   5.238  2.8568 -2.9357  3.4228
  424MOL0     H57211   3.087  -2.512   5.174  0.8758  3.8270 -0.1842
  424MOL0     H57212   2.989  -2.715   5.193 -4.1270 -1.9124  1.1452
  424MOL0     H57213   2.966  -2.676   5.027 -1.7587  1.0688 -0.7269
  424MOL0     H57214   2.745  -2.582   5.223  0.2596 -2.6437  4.0780
  424MOL0     H57215   2.725  -2.656   5.060 -0.8589 -0.9352  1.7063
  424MOL0     H57216   2.838  -2.791   5.314 -0.5783 -2.6132 -0.3209
  424MOL0     H57217   2.802  -2.877   5.157  0.6327  1.1240 -1.2147
  424MOL0     H57218   2.618  -2.919   5.341 -0.2183 -0.9627 -1.5830
  424MOL0     H57219   2.595  -2.739   5.326 -0.6682 -1.3338  1.3853
  424MOL0     H57220   3.341  -1.913   4.930  1.1036  0.8383 -0.9218
  424MOL0     H57221   3.377  -1.713   4.796  0.7418 -0.0665 -1.0064
  424MOL0     H57222   3.412  -1.270   4.598 -0.4602 -2.2158  0.6599
  424MOL0     H57223   3.397  -1.096   4.431 -0.7304  0.5356 -4.1145
  424MOL0     H57224   2.604   0.173   5.644 -0.0396  0.3446 -1.3477
  424MOL0     H57225   2.498   0.388   5.673 -0.1153  1.4094 -0.5730
  424MOL0     H57226   2.367   0.728   5.641  0.7743 -0.3822 -0.2147
  424MOL0     H57227   2.218   0.906   5.715  0.4383 -0.8509  0.0405
  424MOL0     H57228   2.416   1.274   5.905  0.2097  0.3467  1.0316
  424MOL0     H57229   2.354   1.170   6.032  0.4786  2.5560  1.2511
  424MOL0     H57230   2.195   1.411   5.922 -1.7071  0.7989  2.5396
  424MOL0     H57231   2.235   1.369   6.084 -1.4353  1.6934  1.4650
  424MOL0     H57232   2.045   1.276   6.096  0.3621  0.0596 -0.2531
  424MOL0     H57233   2.095   1.135   6.011  1.3606  0.5515  2.8371
  424MOL0     H57234   1.942   1.374   5.925  4.3891  0.5790  0.0126
  424MOL0     H57235   1.990   1.239   5.809  1.9248 -5.4668  1.9720
  424MOL0     H57236   1.672   1.058   6.019  0.4431  0.9923  2.8130
  424MOL0     H57237   2.548   1.088   5.919  0.3954  1.4711 -2.0746
  424MOL0     H57238   2.742   0.818   5.933 -0.3552 -1.0600 -2.6971
  424MOL0     H57239   2.800   0.939   5.810 -0.5856  0.4872 -0.2644
  424MOL0     H57240   2.741   0.978   5.970  4.8525  0.0926 -0.9781
  425MOL0     O57241  10.896   8.479  10.221 -0.4335  0.2622  0.6502
  425MOL0     C57242  10.935   8.466  10.109  0.6506 -1.3555  0.5278
  425MOL0     O57243  10.866   8.500   9.991 -0.2062  0.2864 -0.7738
  425MOL0     C57244  10.725   8.488   9.992  0.2009 -0.7685  0.2755
  425MOL0     C57245  10.671   8.562   9.887  0.1682  1.1678  0.3333
  425MOL0     C57246  10.530   8.568   9.870  0.6746  0.7493  0.3191
  425MOL0     C57247  10.446   8.508   9.969  0.6237 -0.3033 -0.6553
  425MOL0     O57248  10.316   8.535   9.980 -0.6695  0.0210  0.2180
  425MOL0     C57249  10.232   8.463   9.890  0.5744 -0.1664  0.3551
  425MOL0     C57250  10.107   8.549   9.860  0.3226  0.4101  0.4973
  425MOL0     C57251  10.132   8.680   9.786 -0.1505 -0.2681 -0.5205
  425MOL0     C57252  10.007   8.726   9.717  0.8512  0.0251 -0.1841
  425MOL0     C57253  10.016   8.868   9.652  0.6711  0.8769  0.8638
  425MOL0     C57254  10.111   8.887   9.536  0.0771 -0.0946  0.1697
  425MOL0     C57255  10.074   9.006   9.448  0.4185 -0.4545  1.0810
  425MOL0     C57256  10.179   9.008   9.335  0.4351  0.3666 -0.8372
  425MOL0     N57257  10.146   9.100   9.223 -0.4348  0.1889  0.0767
  425MOL0     C57258  10.045   9.073   9.134  0.9519  1.1636  0.9554
  425MOL0     C57259  10.060   9.160   9.033 -0.5760 -0.6952  0.9844
  425MOL0     C57260   9.965   9.183   8.915 -0.1291  0.1166 -0.0266
  425MOL0     C57261   9.845   9.262   8.965  0.0143 -0.0489  1.3021
  425MOL0     C57262   9.767   9.334   8.847 -0.5775  0.2009  0.1121
  425MOL0     C57263   9.649   9.408   8.895 -0.2936  0.3714  0.2595
  425MOL0     O57264   9.680   9.493   9.005 -0.5206  0.7220 -0.1924
  425MOL0     C57265   9.720   9.623   8.997 -0.2928 -0.2616  0.8370
  425MOL0     C57266   9.739   9.703   8.879 -1.0060 -0.3873 -0.4006
  425MOL0     C57267   9.811   9.825   8.880  0.0853 -0.1627  0.9923
  425MOL0     C57268   9.850   9.876   9.005 -0.2807 -0.0703  0.4259
  425MOL0     C57269   9.921  10.006   9.014 -0.8186  0.4187 -0.2345
  425MOL0     O57270   9.962  10.044   9.142  0.1560 -0.0351  0.3669
  425MOL0     C57271  10.028  10.164   9.156 -0.3527  0.2379 -0.4582
  425MOL0     C57272  10.028  10.210   9.291  0.5113  0.4772  0.8517
  425MOL0     C57273  10.101  10.323   9.324  1.0782  0.7317 -0.0762
  425MOL0     C57274  10.179  10.390   9.234  0.5568 -0.9245  0.3914
  425MOL0     O57275  10.254  10.506   9.257  0.6438  0.3295  0.6808
  425MOL0     C57276  10.374  10.502   9.329 -1.4111  0.1286 -0.0954
  425MOL0     C57277  10.485  10.466   9.227  0.1779  0.3329 -0.2673
  425MOL0     C57278  10.550  10.583   9.143 -0.2455  1.5442 -0.7741
  425MOL0     C57279  10.672  10.531   9.057  0.2249  0.2424 -0.7816
  425MOL0     C57280  10.742  10.636   8.974  0.2017  0.4558 -0.4954
  425MOL0     C57281  10.645  10.671   8.855  0.7146 -0.5898 -0.3854
  425MOL0     C57282  10.667  10.813   8.802 -0.3170  0.1272 -0.0022
  425MOL0     C57283  10.672  10.798   8.646 -0.5031  0.3432 -0.6007
  425MOL0    Cl57284  10.529  10.708   8.580 -0.0976 -0.4915 -0.5679
  425MOL0     C57285  10.185  10.346   9.102  0.8021  0.2974 -0.1131
  425MOL0     C57286  10.117  10.233   9.064  0.1965 -0.4329  0.4534
  425MOL0     O57287   9.923  10.075   8.915  0.2551 -0.6765  0.8037
  425MOL0     C57288   9.829   9.803   9.123 -0.7516  1.4747 -0.6747
  425MOL0     C57289   9.760   9.685   9.117  0.7215  0.0620 -0.2301
  425MOL0     N57290  10.166   9.241   9.066 -0.2077 -0.8144 -0.0451
  425MOL0     N57291  10.222   9.198   9.170 -0.2213 -0.0817 -0.3076
  425MOL0     C57292  10.503   8.423  10.068 -0.4861  0.3747 -0.2460
  425MOL0     C57293  10.635   8.421  10.075 -0.4825 -0.1461 -0.0216
  425MOL0     C57294  11.077   8.419  10.098 -0.1082  0.3453  0.3232
  425MOL0     C57295  11.109   8.348   9.991  0.0495  0.0325  0.8633
  425MOL0     C57296  11.239   8.286   9.971  0.4913 -0.5130  0.5794
  425MOL0     C57297  11.335   8.298  10.068 -0.4147 -0.4212 -0.6385
  425MOL0     O57298  11.461   8.248  10.069  0.7669 -0.1377  0.3595
  425MOL0     C57299  11.504   8.161   9.965  0.5353 -0.5942  0.2527
  425MOL0     C57300  11.633   8.092  10.007  0.7790  0.8207  0.1682
  425MOL0     C57301  11.640   8.043  10.146  0.5450 -0.6419  0.2517
  425MOL0     C57302  11.781   7.981  10.164  0.2831 -0.0635 -0.8432
  425MOL0     C57303  11.785   7.927  10.302 -1.6787 -0.0883  0.2252
  425MOL0     C57304  11.791   7.907  10.421 -0.1731  0.3366  0.8175
  425MOL0     C57305  11.305   8.371  10.177  0.3430 -0.0925  0.1701
  425MOL0     C57306  11.180   8.432  10.191 -0.7165  0.6315 -0.6729
  425MOL0     C57307  11.163   8.500  10.322 -0.1062  0.1608  0.3624
  425MOL0     H57308  10.732   8.598   9.805  0.5720 -0.8528 -0.3003
  425MOL0     H57309  10.487   8.630   9.792  5.7599  1.5181 -2.2490
  425MOL0     H57310  10.290   8.445   9.799 -1.3969  0.7096 -1.1495
  425MOL0     H57311  10.189   8.371   9.930 -2.2811  1.3276  1.0160
  425MOL0     H57312  10.049   8.567   9.950  0.8566  1.8626  0.5831
  425MOL0     H57313  10.050   8.484   9.792  1.6092 -2.1559  1.7227
  425MOL0     H57314  10.214   8.674   9.714  1.6214  2.4647  1.0704
  425MOL0     H57315  10.165   8.757   9.856  1.9528 -0.9870 -0.6488
  425MOL0     H57316   9.984   8.664   9.630  2.6182 -1.1568  0.1548
  425MOL0     H57317   9.919   8.728   9.782  0.7776  0.1489 -0.2857
  425MOL0     H57318   9.917   8.890   9.610  0.6069  0.1971  0.6547
  425MOL0     H57319  10.037   8.941   9.731 -1.4259 -1.6775  4.0601
  425MOL0     H57320  10.212   8.893   9.579  0.3007  0.4633 -0.4341
  425MOL0     H57321  10.117   8.791   9.484 -0.3024 -1.1504  1.9722
  425MOL0     H57322  10.063   9.101   9.500  1.0167  0.9732 -1.2698
  425MOL0     H57323   9.974   9.002   9.403  1.1420 -1.2655 -0.5094
  425MOL0     H57324  10.275   9.039   9.377  2.1135 -1.2504 -3.1851
  425MOL0     H57325  10.201   8.917   9.277  4.1412  1.7489 -1.8820
  425MOL0     H57326   9.955   9.013   9.148  0.4348  0.0602 -4.8883
  425MOL0     H57327  10.015   9.234   8.832 -0.1992 -0.2764 -0.3147
  425MOL0     H57328   9.943   9.082   8.879 -1.0075  0.1837  0.3182
  425MOL0     H57329   9.780   9.187   9.009  0.6502 -1.0982  0.5082
  425MOL0     H57330   9.880   9.340   9.033  1.4400  0.0158  0.5455
  425MOL0     H57331   9.729   9.249   8.790 -2.5104 -0.4631  2.2106
  425MOL0     H57332   9.825   9.410   8.795 -1.1571  0.3723 -0.2948
  425MOL0     H57333   9.577   9.331   8.925  2.4681 -2.7050 -0.3276
  425MOL0     H57334   9.602   9.467   8.816 -0.8469 -1.6848 -1.0371
  425MOL0     H57335   9.703   9.671   8.782 -0.0414 -0.2741 -0.8053
  425MOL0     H57336   9.816   9.892   8.794 -0.7136  0.5827  1.5071
  425MOL0     H57337   9.975  10.170   9.376 -2.4330  0.5660 -0.8162
  425MOL0     H57338  10.094  10.349   9.429 -2.2515  0.5685 -0.1441
  425MOL0     H57339  10.394  10.602   9.368 -0.8380 -0.0744  0.1432
  425MOL0     H57340  10.378  10.441   9.420  1.8589  2.6385  1.6999
  425MOL0     H57341  10.568  10.427   9.288 -1.9415 -2.4912  1.0289
  425MOL0     H57342  10.450  10.377   9.175 -0.1908 -0.3331  1.0718
  425MOL0     H57343  10.468  10.595   9.071 -2.1119 -3.2096  0.2013
  425MOL0     H57344  10.577  10.676   9.193  2.5463  1.8584 -2.6069
  425MOL0     H57345  10.655  10.453   8.983  1.1487  0.3063 -1.0741
  425MOL0     H57346  10.751  10.495   9.124 -0.5894  0.2842  0.2242
  425MOL0     H57347  10.840  10.604   8.936 -0.1165  1.8092 -2.6068
  425MOL0     H57348  10.759  10.723   9.038 -0.8097 -0.0139  0.4535
  425MOL0     H57349  10.664  10.610   8.766  1.4846  1.1773 -1.4781
  425MOL0     H57350  10.540  10.685   8.881  1.6813  3.9142  2.0444
  425MOL0     H57351  10.766  10.855   8.817  1.1738 -1.8949 -3.1006
  425MOL0     H57352  10.581  10.873   8.834 -2.8004 -3.3346  0.4991
  425MOL0     H57353  10.674  10.898   8.600 -0.2010  0.9087  0.6104
  425MOL0     H57354  10.769  10.756   8.617  0.3548  1.4207  0.6029
  425MOL0     H57355  10.258  10.371   9.026  1.1785 -0.4616 -0.0143
  425MOL0     H57356  10.127  10.182   8.969 -1.3127  0.1500 -0.0349
  425MOL0     H57357   9.855   9.850   9.218  1.3256  0.0371 -0.4672
  425MOL0     H57358   9.760   9.620   9.204  1.2635 -0.2170 -0.4363
  425MOL0     H57359  10.442   8.380  10.147  1.2034  1.1537  1.5601
  425MOL0     H57360  10.664   8.361  10.161 -0.6421  2.2379  1.7992
  425MOL0     H57361  11.047   8.343   9.902  3.8117 -0.1370 -1.9925
  425MOL0     H57362  11.262   8.227   9.883  4.1305 -0.9212  1.6490
  425MOL0     H57363  11.521   8.219   9.874 -0.0244 -1.2342 -0.2703
  425MOL0     H57364  11.425   8.089   9.942  0.1083  0.1004 -0.4987
  425MOL0     H57365  11.719   8.155   9.984 -0.0522  2.3034  0.9345
  425MOL0     H57366  11.652   8.005   9.945  0.8244  0.7129  0.3332
  425MOL0     H57367  11.556   7.974  10.154 -0.6830  0.5520 -1.5240
  425MOL0     H57368  11.622   8.119  10.223 -0.2782  1.2500 -1.7136
  425MOL0     H57369  11.797   7.906  10.086 -2.1906 -1.6959  0.0699
  425MOL0     H57370  11.859   8.057  10.164  0.1429  0.5587  5.0792
  425MOL0     H57371  11.813   7.893  10.524  0.5025  0.1356  0.6463
  425MOL0     H57372  11.376   8.380  10.259  0.6407  0.6310 -0.1655
  425MOL0     H57373  11.141   8.607  10.314 -0.8302 -0.1217 -4.4710
  425MOL0     H57374  11.082   8.458  10.381  2.2316  0.3790  4.1023
  425MOL0     H57375  11.258   8.491  10.377 -0.5367 -0.6713  0.9905
  426MOL0     O57376   1.517   1.821   9.181  0.4761  0.7270  0.6363
  426MOL0     C57377   1.454   1.918   9.194  0.5757 -0.2022  0.4879
  426MOL0     O57378   1.495   2.037   9.140  0.5954 -0.0566 -0.1386
  426MOL0     C57379   1.605   2.041   9.057  0.0399  0.1091 -0.2731
  426MOL0     C57380   1.727   2.100   9.086  0.5259 -0.5977  0.0152
  426MOL0     C57381   1.822   2.115   8.976 -0.1826  0.2148  0.1054
  426MOL0     C57382   1.791   2.067   8.849  0.2829  0.2760  0.5439
  426MOL0     O57383   1.871   2.082   8.732  0.1343 -0.1891  0.1773
  426MOL0     C57384   2.000   2.020   8.752 -0.5218 -0.3456 -0.1822
  426MOL0     C57385   2.053   1.957   8.626 -0.7114 -1.0212 -0.3212
  426MOL0     C57386   2.087   2.067   8.520  0.3490 -0.2428 -0.0905
  426MOL0     C57387   2.191   2.005   8.419  0.6581 -0.0510 -0.8827
  426MOL0     C57388   2.252   2.124   8.328  0.1850  0.2832 -1.0206
  426MOL0     C57389   2.346   2.074   8.222  0.6907  0.8582 -0.2349
  426MOL0     C57390   2.310   1.926   8.163 -0.7039 -0.2772  0.5721
  426MOL0     C57391   2.178   1.926   8.081 -0.2867 -0.2719  0.8248
  426MOL0     N57392   2.147   1.795   8.033  0.8579  0.4039 -0.3807
  426MOL0     C57393   2.216   1.732   7.930  0.5865  0.8171  0.0006
  426MOL0     C57394   2.164   1.606   7.939  0.5999 -0.3467 -0.2147
  426MOL0     C57395   2.202   1.506   7.837 -0.2847 -0.2227  0.0929
  426MOL0     C57396   2.166   1.355   7.862  1.0058 -1.0983  0.4696
  426MOL0     C57397   2.239   1.299   7.981 -0.3495 -0.0722 -0.6784
  426MOL0     C57398   2.254   1.147   7.966 -0.1492  0.1695  0.6036
  426MOL0     O57399   2.114   1.097   7.984 -0.3394  0.0433  0.4925
  426MOL0     C57400   2.108   0.993   8.073  0.0644  0.0727  0.1848
  426MOL0     C57401   2.035   0.882   8.028 -0.7228 -0.2426 -0.3692
  426MOL0     C57402   2.005   0.775   8.108 -0.3444 -0.5605 -0.5947
  426MOL0     C57403   2.042   0.770   8.238  0.0080 -0.3680  0.4503
  426MOL0     C57404   2.012   0.656   8.322  0.2083  0.0185 -0.0601
  426MOL0     O57405   1.950   0.556   8.255 -0.0192 -0.0088 -0.5903
  426MOL0     C57406   1.906   0.452   8.341 -0.4472  0.2302 -0.5459
  426MOL0     C57407   1.767   0.421   8.358  0.0779  0.9510  0.2678
  426MOL0     C57408   1.722   0.328   8.446 -0.1932 -0.4340  0.3882
  426MOL0     C57409   1.820   0.260   8.523  0.6597 -0.1077 -0.8794
  426MOL0     O57410   1.791   0.154   8.604  0.0430  0.6668 -1.0118
  426MOL0     C57411   1.653   0.146   8.652 -0.7107  0.1776  0.9522
  426MOL0     C57412   1.633   0.040   8.755 -0.8085 -0.2442 -0.2115
  426MOL0     C57413   1.487   0.038   8.803  0.5655  0.0373 -0.4004
  426MOL0     C57414   1.453  -0.102   8.833 -0.0703  0.3921 -0.3468
  426MOL0     C57415   1.544  -0.174   8.936  0.1170  0.0134 -0.0270
  426MOL0     C57416   1.520  -0.106   9.065 -0.5255 -0.5657 -0.0533
  426MOL0     C57417   1.554  -0.190   9.192 -0.6487  0.5257 -0.9794
  426MOL0     C57418   1.708  -0.212   9.188  0.0786 -0.4236 -0.3908
  426MOL0    Cl57419   1.755  -0.254   9.364 -0.3946 -0.1315  0.2033
  426MOL0     C57420   1.952   0.293   8.525  0.8854 -0.5246  0.8596
  426MOL0     C57421   1.999   0.384   8.425 -0.0905  0.3589 -0.2107
  426MOL0     O57422   2.042   0.656   8.441  0.3730  0.7309  0.2707
  426MOL0     C57423   2.113   0.879   8.293 -0.5286  0.1789 -0.5348
  426MOL0     C57424   2.158   0.986   8.206  0.3548  1.2962 -0.8846
  426MOL0     N57425   2.073   1.597   8.036  0.4074  0.6664 -0.6765
  426MOL0     N57426   2.073   1.701   8.103 -0.2642 -0.3587 -0.2768
  426MOL0     C57427   1.668   2.005   8.822 -0.5115  0.1838  0.4147
  426MOL0     C57428   1.589   1.990   8.931 -0.2793  1.4969 -0.2629
  426MOL0     C57429   1.331   1.920   9.286 -0.2527 -0.0854  1.1770
  426MOL0     C57430   1.238   2.019   9.257 -0.5756  0.3638  0.0834
  426MOL0     C57431   1.126   2.027   9.342  0.6486 -0.0197  1.0250
  426MOL0     C57432   1.094   1.932   9.438  0.6121  0.3269  0.6514
  426MOL0     O57433   0.970   1.933   9.506  0.2146 -0.4194 -0.5449
  426MOL0     C57434   0.958   1.884   9.639  0.5093 -0.6743  0.0432
  426MOL0     C57435   0.808   1.866   9.648  0.1068 -0.5714 -0.6379
  426MOL0     C57436   0.757   1.877   9.793  0.3298 -0.3403  0.2405
  426MOL0     C57437   0.609   1.848   9.807 -0.5402 -0.7535 -0.4659
  426MOL0     C57438   0.571   1.868   9.946 -0.0930 -0.5326  0.4522
  426MOL0     C57439   0.553   1.880  10.062  0.2942  0.1710 -0.7564
  426MOL0     C57440   1.196   1.836   9.462 -0.2694  0.2852 -0.1744
  426MOL0     C57441   1.310   1.826   9.385 -0.8569  0.3919 -0.0782
  426MOL0     C57442   1.405   1.715   9.415  0.7933  0.8971  0.7556
  426MOL0     H57443   1.754   2.137   9.184 -1.1478 -0.2475  0.3795
  426MOL0     H57444   1.903   2.186   8.987  0.6072 -0.2049 -2.4515
  426MOL0     H57445   2.066   2.098   8.792 -0.4200 -0.3120 -0.4155
  426MOL0     H57446   2.005   1.945   8.831  1.9369  1.2440  1.3130
  426MOL0     H57447   1.975   1.889   8.591 -0.2076 -0.6530 -2.2651
  426MOL0     H57448   2.145   1.901   8.642 -0.4726 -0.9671 -1.4496
  426MOL0     H57449   2.130   2.148   8.579  0.9606 -0.3790 -0.3338
  426MOL0     H57450   2.000   2.095   8.460  1.4005  1.6686 -0.8042
  426MOL0     H57451   2.273   1.946   8.461  0.2339  0.7286  1.1346
  426MOL0     H57452   2.134   1.936   8.357 -1.9378  2.6758 -1.7736
  426MOL0     H57453   2.164   2.171   8.284 -1.4476  1.1879  2.7598
  426MOL0     H57454   2.296   2.207   8.384  2.4639 -1.2248 -0.4446
  426MOL0     H57455   2.349   2.135   8.132  2.7296 -1.2860 -1.7445
  426MOL0     H57456   2.445   2.074   8.269  0.7664  0.4524 -0.3906
  426MOL0     H57457   2.307   1.852   8.243  2.3649 -0.9636  0.2007
  426MOL0     H57458   2.387   1.908   8.087 -1.2687  0.8481 -0.3125
  426MOL0     H57459   2.092   1.962   8.139  0.6681  0.8011  1.6283
  426MOL0     H57460   2.186   1.996   7.998  2.8901 -0.9656  0.4332
  426MOL0     H57461   2.280   1.778   7.855  0.6814 -0.1153 -0.4951
  426MOL0     H57462   2.140   1.541   7.754 -0.3281 -1.3479 -0.3648
  426MOL0     H57463   2.310   1.511   7.820 -0.4808  1.5237 -0.8618
  426MOL0     H57464   2.062   1.356   7.895  1.5850  2.2319  2.7195
  426MOL0     H57465   2.171   1.299   7.768 -0.7228  1.2473 -1.1422
  426MOL0     H57466   2.190   1.317   8.077 -2.9248  0.9495 -2.0870
  426MOL0     H57467   2.341   1.333   7.999 -0.5272  0.4434 -0.6329
  426MOL0     H57468   2.317   1.108   8.046 -0.1219  0.7435  0.8601
  426MOL0     H57469   2.297   1.129   7.867  1.4013  2.8378  0.7265
  426MOL0     H57470   2.015   0.870   7.922  3.5519  4.5429 -2.1634
  426MOL0     H57471   1.961   0.690   8.057  2.0780 -1.8073 -0.7743
  426MOL0     H57472   1.701   0.491   8.308 -0.9686  0.9434  1.5731
  426MOL0     H57473   1.618   0.301   8.459 -0.5834  1.5766  1.9968
  426MOL0     H57474   1.633   0.246   8.691 -0.9683  0.2255  0.6938
  426MOL0     H57475   1.587   0.114   8.571  0.6649 -2.1922  0.6647
  426MOL0     H57476   1.660  -0.059   8.716  0.5788  0.0455 -0.0134
  426MOL0     H57477   1.703   0.053   8.838 -0.4791  1.1962 -0.6782
  426MOL0     H57478   1.488   0.098   8.895  2.3312  1.5507 -1.3470
  426MOL0     H57479   1.414   0.066   8.726 -0.3175  1.5999  0.9436
  426MOL0     H57480   1.455  -0.155   8.737  0.5502 -0.9055  0.3459
  426MOL0     H57481   1.350  -0.107   8.870 -0.3425  0.6399 -1.0549
  426MOL0     H57482   1.649  -0.165   8.907 -0.2938  0.0211 -1.6059
  426MOL0     H57483   1.506  -0.276   8.935  1.9314 -0.6987  0.3573
  426MOL0     H57484   1.582  -0.016   9.057 -0.3279 -0.8649 -3.1778
  426MOL0     H57485   1.414  -0.081   9.079 -0.6284 -1.1379  0.2186
  426MOL0     H57486   1.495  -0.282   9.196 -0.3898  0.3934  1.1628
  426MOL0     H57487   1.520  -0.151   9.289 -3.4820 -2.1472 -0.7159
  426MOL0     H57488   1.735  -0.301   9.130 -3.1037 -2.1509  0.5245
  426MOL0     H57489   1.768  -0.126   9.158  0.0613 -0.0758  0.5387
  426MOL0     H57490   2.021   0.240   8.590  0.1566 -1.8131  0.5973
  426MOL0     H57491   2.104   0.409   8.414  0.6634 -2.2831  0.3095
  426MOL0     H57492   2.125   0.883   8.401  0.3848  0.3618 -0.6339
  426MOL0     H57493   2.207   1.067   8.261 -2.7478  2.2116  0.7759
  426MOL0     H57494   1.635   1.964   8.727 -0.5311  2.1192 -0.4637
  426MOL0     H57495   1.492   1.943   8.914 -0.0916 -0.2334  2.8331
  426MOL0     H57496   1.250   2.091   9.176  3.0199 -0.7853 -0.5478
  426MOL0     H57497   1.056   2.110   9.341  3.0130  2.1303 -1.3317
  426MOL0     H57498   1.013   1.950   9.707  2.9862 -2.9307  0.3552
  426MOL0     H57499   1.006   1.786   9.648 -0.2339 -1.0625 -0.1471
  426MOL0     H57500   0.783   1.772   9.600 -1.4343  0.5536 -2.1502
  426MOL0     H57501   0.767   1.945   9.584 -0.3322  0.9442  1.3967
  426MOL0     H57502   0.802   1.964   9.841  2.0753 -1.6135  1.0370
  426MOL0     H57503   0.798   1.784   9.834  0.0347 -0.5557  0.0502
  426MOL0     H57504   0.562   1.921   9.740  1.2032  0.9138  0.0110
  426MOL0     H57505   0.594   1.744   9.779 -0.3774 -1.6619  2.4906
  426MOL0     H57506   0.559   1.911  10.164 -1.1457  3.1318 -1.4779
  426MOL0     H57507   1.177   1.765   9.542 -1.4938  0.6042 -0.1614
  426MOL0     H57508   1.399   1.644   9.333 -3.6187 -0.9011  2.3477
  426MOL0     H57509   1.507   1.753   9.427  0.5578  2.2446 -1.0806
  426MOL0     H57510   1.373   1.663   9.505 -1.5983  0.7007 -0.1447
  427MOL0     O57511   8.523   6.064   2.816 -0.5111 -0.0780  0.5156
  427MOL0     C57512   8.476   6.094   2.710  0.1400 -1.3639 -0.1361
  427MOL0     O57513   8.407   6.209   2.686  0.0631  0.0744 -0.4101
  427MOL0     C57514   8.333   6.270   2.784  0.0549  0.2662 -1.0692
  427MOL0     C57515   8.273   6.195   2.891  0.8435  0.4466  0.3026
  427MOL0     C57516   8.179   6.246   2.982  0.3244 -0.2475 -0.2523
  427MOL0     C57517   8.148   6.384   2.977  0.2144 -1.0228 -0.6724
  427MOL0     O57518   8.065   6.455   3.063  0.5809 -0.8370  0.4465
  427MOL0     C57519   7.977   6.385   3.151 -0.7236 -0.8516 -0.7201
  427MOL0     C57520   7.860   6.476   3.207 -0.0064 -0.2507  0.0678
  427MOL0     C57521   7.788   6.426   3.337 -0.4596 -0.0700 -0.3297
  427MOL0     C57522   7.695   6.300   3.305 -0.7173 -0.2537 -0.0187
  427MOL0     C57523   7.615   6.249   3.424 -0.5600  0.8396 -0.5316
  427MOL0     C57524   7.531   6.122   3.392 -0.9460  0.1832 -0.3816
  427MOL0     C57525   7.613   5.992   3.341  0.4596  0.3310 -0.4032
  427MOL0     C57526   7.735   5.943   3.425 -0.4541 -1.2213  1.0634
  427MOL0     N57527   7.865   6.007   3.388 -0.0410  0.1001 -0.7355
  427MOL0     C57528   7.936   6.075   3.483  0.9608  0.2243  0.6413
  427MOL0     C57529   8.048   6.114   3.425 -0.4615 -1.8860  0.2825
  427MOL0     C57530   8.159   6.199   3.479  0.5863  0.0339  0.5132
  427MOL0     C57531   8.287   6.105   3.513 -0.3401 -0.6667  0.2693
  427MOL0     C57532   8.377   6.187   3.615 -0.2239  0.4781 -0.1977
  427MOL0     C57533   8.404   6.333   3.555  0.9988 -0.1015  0.7590
  427MOL0     O57534   8.511   6.378   3.642 -0.1122  0.7226  0.4032
  427MOL0     C57535   8.642   6.335   3.613  0.2102  0.7438 -1.2189
  427MOL0     C57536   8.712   6.296   3.726  0.0193 -0.9341  0.5701
  427MOL0     C57537   8.842   6.249   3.713 -0.7717  0.5341  0.3657
  427MOL0     C57538   8.902   6.235   3.587 -0.3999  0.5626  0.1343
  427MOL0     C57539   9.037   6.181   3.583  0.1280  0.2097  0.9887
  427MOL0     O57540   9.074   6.136   3.460 -0.1696 -0.0660 -0.2958
  427MOL0     C57541   9.204   6.107   3.443 -0.6090 -0.1113 -0.6140
  427MOL0     C57542   9.269   6.168   3.333  0.3615 -0.5294  0.7512
  427MOL0     C57543   9.394   6.137   3.287 -0.3980 -0.3022  0.0072
  427MOL0     C57544   9.476   6.078   3.378  0.8582 -0.8573 -0.6047
  427MOL0     O57545   9.602   6.042   3.331  1.1776  0.2503 -0.0846
  427MOL0     C57546   9.724   6.072   3.408 -0.3595  0.2814 -0.1184
  427MOL0     C57547   9.723   5.988   3.535  0.2376 -0.5158 -0.9494
  427MOL0     C57548   9.865   5.970   3.594  0.4380 -0.1888  0.6214
  427MOL0     C57549   9.857   5.911   3.733 -0.1205  0.1077 -1.8023
  427MOL0     C57550   9.999   5.872   3.788  0.4278  1.5459  0.6964
  427MOL0     C57551  10.054   5.741   3.727 -0.2207 -0.5522  0.2198
  427MOL0     C57552  10.148   5.682   3.833  0.1655 -0.2468 -0.2513
  427MOL0     C57553  10.190   5.531   3.793  0.1205 -0.7527  0.0985
  427MOL0    Cl57554  10.350   5.484   3.839 -0.4874  0.3032  0.2116
  427MOL0     C57555   9.419   6.014   3.490  0.4985  0.0810 -0.4498
  427MOL0     C57556   9.286   6.029   3.526  0.2451  0.2819 -0.1266
  427MOL0     O57557   9.117   6.198   3.671 -0.1812  0.4610  0.4076
  427MOL0     C57558   8.822   6.277   3.474 -0.0436  0.4246 -0.0323
  427MOL0     C57559   8.700   6.318   3.488 -0.1231 -0.5605  0.6778
  427MOL0     N57560   8.049   6.081   3.289  0.2310  0.2684  0.5769
  427MOL0     N57561   7.943   6.006   3.271 -0.3909  0.2466  0.2723
  427MOL0     C57562   8.211   6.459   2.880 -0.3166  0.0874  0.2228
  427MOL0     C57563   8.299   6.403   2.782 -0.0687  0.7665  0.5085
  427MOL0     C57564   8.507   6.013   2.600 -0.0607 -0.2667 -0.3622
  427MOL0     C57565   8.556   6.064   2.474 -0.2877  0.9080  0.3164
  427MOL0     C57566   8.601   5.990   2.373 -0.1482  0.2680  0.0895
  427MOL0     C57567   8.595   5.848   2.382  0.1134 -0.4459  0.1196
  427MOL0     O57568   8.630   5.763   2.279 -0.3159 -0.1752 -0.9934
  427MOL0     C57569   8.583   5.805   2.150 -0.3728 -0.1913  0.6346
  427MOL0     C57570   8.585   5.678   2.058 -2.0622 -0.1880  0.0177
  427MOL0     C57571   8.495   5.576   2.114 -0.2552  0.9621 -0.3433
  427MOL0     C57572   8.504   5.442   2.033 -0.5688  0.5177 -0.7980
  427MOL0     C57573   8.491   5.458   1.885 -0.2481  1.2956  0.3583
  427MOL0     C57574   8.495   5.463   1.767 -0.0514  0.1379 -0.2453
  427MOL0     C57575   8.535   5.795   2.497  0.6373  0.0089 -0.7235
  427MOL0     C57576   8.494   5.874   2.610  0.8137 -0.1432  0.4923
  427MOL0     C57577   8.436   5.795   2.729  0.7632 -0.4081 -0.1501
  427MOL0     H57578   8.322   6.100   2.913  3.1882  1.7705  1.1689
  427MOL0     H57579   8.134   6.184   3.059  5.1581 -1.2484  2.1696
  427MOL0     H57580   7.935   6.290   3.116 -0.6499 -1.7175  1.3518
  427MOL0     H57581   8.032   6.357   3.241 -0.0641  1.5003 -0.3433
  427MOL0     H57582   7.785   6.475   3.127  2.1372 -1.8631 -2.0491
  427MOL0     H57583   7.883   6.582   3.222 -2.4762  0.4827 -0.8397
  427MOL0     H57584   7.734   6.507   3.387  1.0698 -1.2452  3.6400
  427MOL0     H57585   7.861   6.400   3.414 -3.3366  2.5073  3.7491
  427MOL0     H57586   7.628   6.331   3.224  1.1786  2.0298 -0.8316
  427MOL0     H57587   7.761   6.219   3.274  0.3200  0.9167 -1.0121
  427MOL0     H57588   7.688   6.224   3.502 -0.9677  4.1517  1.1264
  427MOL0     H57589   7.555   6.329   3.470 -0.4867 -0.0149  1.1458
  427MOL0     H57590   7.477   6.091   3.482  0.7133 -4.5354 -0.7213
  427MOL0     H57591   7.460   6.150   3.314 -1.6820  2.3683  0.9785
  427MOL0     H57592   7.634   6.000   3.234 -3.8392 -0.4069 -1.5067
  427MOL0     H57593   7.546   5.907   3.349  2.5806 -1.3506  0.3987
  427MOL0     H57594   7.697   5.957   3.527 -6.8413  0.1377 -1.0397
  427MOL0     H57595   7.752   5.835   3.420 -0.9001 -1.2939  1.0138
  427MOL0     H57596   7.920   6.091   3.589  1.5372  0.5614  0.6799
  427MOL0     H57597   8.185   6.277   3.408 -2.6299  1.0914  0.3537
  427MOL0     H57598   8.111   6.253   3.560 -0.4853  2.5914 -1.6962
  427MOL0     H57599   8.249   6.013   3.558  0.3170 -2.6554 -2.9027
  427MOL0     H57600   8.329   6.068   3.419 -1.3186  0.8707 -0.8260
  427MOL0     H57601   8.470   6.141   3.649  0.2116  1.7302  0.3674
  427MOL0     H57602   8.322   6.203   3.708 -1.0089  1.7037 -0.8349
  427MOL0     H57603   8.321   6.403   3.566 -2.8409 -4.1695  0.5784
  427MOL0     H57604   8.442   6.330   3.453 -0.5363  0.5153  0.1326
  427MOL0     H57605   8.656   6.301   3.819 -1.8963  1.2655 -0.5895
  427MOL0     H57606   8.906   6.217   3.795 -0.3355 -2.4681 -1.0018
  427MOL0     H57607   9.216   6.243   3.276  2.1822  0.4796  0.3041
  427MOL0     H57608   9.442   6.181   3.200 -0.6617 -0.1788 -0.0767
  427MOL0     H57609   9.807   6.071   3.337 -0.1221 -1.3461  0.1618
  427MOL0     H57610   9.716   6.177   3.438 -0.2955  0.2326  0.0659
  427MOL0     H57611   9.656   6.030   3.610 -0.9852 -2.4543 -0.8747
  427MOL0     H57612   9.684   5.887   3.517  0.3876 -0.6101 -0.7578
  427MOL0     H57613   9.917   5.914   3.516 -0.9590 -0.1354 -0.3699
  427MOL0     H57614   9.921   6.064   3.602  0.3046  0.2054 -2.1270
  427MOL0     H57615   9.798   5.819   3.739 -1.4443  0.9823  2.6202
  427MOL0     H57616   9.804   5.980   3.799 -0.9081 -0.6232 -1.6506
  427MOL0     H57617   9.987   5.866   3.897  3.4406  1.7882  1.1117
  427MOL0     H57618  10.076   5.947   3.774  1.0148  0.4777 -2.4199
  427MOL0     H57619   9.979   5.671   3.689  2.3069 -1.1456 -4.3836
  427MOL0     H57620  10.105   5.781   3.639 -1.4205  1.6384  0.4529
  427MOL0     H57621  10.094   5.688   3.927  0.2422  0.9092 -0.2739
  427MOL0     H57622  10.240   5.740   3.836  1.5464 -1.5361 -5.5891
  427MOL0     H57623  10.116   5.467   3.843  0.3587 -0.3713  0.9626
  427MOL0     H57624  10.182   5.529   3.684 -2.9134  1.8552  0.1078
  427MOL0     H57625   9.472   5.959   3.567 -1.9957  2.0280  2.9225
  427MOL0     H57626   9.241   5.963   3.600 -1.2433 -0.9759 -2.0299
  427MOL0     H57627   8.866   6.276   3.374  1.0320 -0.0238  0.4208
  427MOL0     H57628   8.651   6.355   3.399  2.8049 -2.2659 -1.8662
  427MOL0     H57629   8.207   6.567   2.888 -1.6338  0.2218 -1.6626
  427MOL0     H57630   8.345   6.472   2.711 -3.9556  1.1134 -2.0546
  427MOL0     H57631   8.562   6.171   2.460 -0.6699  0.7172 -1.5271
  427MOL0     H57632   8.640   6.038   2.284  0.7547 -1.1578 -0.3304
  427MOL0     H57633   8.650   5.879   2.107 -2.2902  1.5471  0.5079
  427MOL0     H57634   8.482   5.842   2.168 -1.1423 -2.5342  1.5144
  427MOL0     H57635   8.692   5.656   2.064 -0.8363  4.3618 -1.4659
  427MOL0     H57636   8.574   5.714   1.955  2.7099 -0.7068 -0.9508
  427MOL0     H57637   8.391   5.609   2.123 -0.0332  1.0480  4.1454
  427MOL0     H57638   8.531   5.540   2.211  0.4908 -1.8395 -1.5714
  427MOL0     H57639   8.591   5.384   2.065  0.2245  1.8138 -0.5447
  427MOL0     H57640   8.412   5.389   2.058 -0.1210 -0.3580 -0.9763
  427MOL0     H57641   8.500   5.482   1.662  0.2187 -1.2918 -0.5173
  427MOL0     H57642   8.507   5.691   2.513 -1.1858  0.1899 -2.3080
  427MOL0     H57643   8.429   5.850   2.824  2.7619 -0.2084 -0.0817
  427MOL0     H57644   8.337   5.774   2.689  0.8868  1.8239 -1.7885
  427MOL0     H57645   8.497   5.706   2.748  3.3730  1.1413 -0.7548
  428MOL0     O57646   1.958   6.029   2.717  0.2306 -0.2269 -0.3446
  428MOL0     C57647   1.927   6.147   2.722 -0.3667  0.0760 -1.1490
  428MOL0     O57648   1.950   6.237   2.618 -0.0357 -0.0909 -0.9694
  428MOL0     C57649   2.026   6.205   2.509 -0.6722 -0.3986  0.2955
  428MOL0     C57650   2.086   6.085   2.465  0.4596  0.1814  0.0404
  428MOL0     C57651   2.163   6.079   2.348  0.4495 -0.0278  0.8117
  428MOL0     C57652   2.184   6.184   2.262 -0.6978 -0.4493 -0.9925
  428MOL0     O57653   2.252   6.164   2.147 -0.4329 -0.2615 -0.6539
  428MOL0     C57654   2.293   6.275   2.064 -0.1331 -0.4774 -0.2864
  428MOL0     C57655   2.335   6.214   1.925  0.0506  0.0690 -0.3538
  428MOL0     C57656   2.342   6.324   1.816  0.4506  0.6452 -0.7028
  428MOL0     C57657   2.365   6.258   1.684  0.5380 -0.1296  0.1589
  428MOL0     C57658   2.380   6.361   1.576  0.3759 -0.6737  0.8787
  428MOL0     C57659   2.248   6.436   1.545 -0.9712 -1.1064  0.5915
  428MOL0     C57660   2.113   6.359   1.510 -0.1410  0.7640  0.0560
  428MOL0     C57661   2.018   6.430   1.412 -0.2340  0.2831 -0.1281
  428MOL0     N57662   1.885   6.373   1.392  0.4768  0.3392 -0.1080
  428MOL0     C57663   1.854   6.266   1.312 -0.2937  0.3646 -0.1673
  428MOL0     C57664   1.718   6.242   1.331 -0.0363  0.2747  0.0386
  428MOL0     C57665   1.643   6.134   1.257 -0.2300 -0.2682 -0.9665
  428MOL0     C57666   1.555   6.170   1.135  0.2294 -0.4918  0.8562
  428MOL0     C57667   1.465   6.054   1.106 -0.0076  0.3136 -0.3557
  428MOL0     C57668   1.367   6.081   0.993  0.2410  0.9656  0.2104
  428MOL0     O57669   1.447   6.075   0.873 -0.6260 -0.8584 -0.5242
  428MOL0     C57670   1.386   6.042   0.753  0.0028  0.6537  0.5771
  428MOL0     C57671   1.318   6.138   0.666 -0.4519 -0.4225  0.2464
  428MOL0     C57672   1.265   6.103   0.536 -0.4377  1.2388  0.1716
  428MOL0     C57673   1.276   5.970   0.480  0.4226 -0.2878  0.2052
  428MOL0     C57674   1.236   5.934   0.344 -0.8531 -0.1128  0.0103
  428MOL0     O57675   1.133   6.003   0.293  0.0934  0.9398 -0.4609
  428MOL0     C57676   1.116   6.034   0.155 -0.0234 -0.7514  0.5471
  428MOL0     C57677   1.226   6.044   0.071  1.0659  0.2523  0.0070
  428MOL0     C57678   1.205   6.045  -0.068 -0.4335 -0.5146 -0.5562
  428MOL0     C57679   1.078   6.071  -0.125 -0.3342  0.2576  0.9229
  428MOL0     O57680   1.075   6.088  -0.263  0.2317 -0.5059  0.3216
  428MOL0     C57681   0.949   6.146  -0.306  0.7771 -0.3062 -0.3512
  428MOL0     C57682   0.953   6.186  -0.453 -0.4152  0.0915 -0.1814
  428MOL0     C57683   0.967   6.056  -0.552  0.2102 -0.1579  0.3509
  428MOL0     C57684   0.961   6.109  -0.689  0.5600 -0.0621  0.0679
  428MOL0     C57685   0.960   6.016  -0.805  0.4992  0.7231 -1.0665
  428MOL0     C57686   1.013   5.878  -0.771  0.8080 -0.6178 -0.0931
  428MOL0     C57687   1.008   5.795  -0.908 -0.2518 -0.4048  0.2002
  428MOL0     C57688   1.058   5.647  -0.897 -0.0882  0.3748 -0.3530
  428MOL0    Cl57689   0.980   5.565  -1.033 -0.3269  0.4611 -0.2592
  428MOL0     C57690   0.971   6.067  -0.042 -0.8368 -0.4420 -0.8900
  428MOL0     C57691   0.987   6.046   0.098 -0.1129  0.3294  0.2846
  428MOL0     O57692   1.298   5.852   0.275 -0.0682  0.6303 -0.1942
  428MOL0     C57693   1.358   5.890   0.557  0.7070 -0.2841 -0.2957
  428MOL0     C57694   1.401   5.911   0.694 -0.6532  0.4159  0.1650
  428MOL0     N57695   1.678   6.333   1.425 -0.8051 -0.2713 -0.1254
  428MOL0     N57696   1.767   6.405   1.466  0.1106 -0.4381 -0.2125
  428MOL0     C57697   2.142   6.309   2.308  1.4643  0.2179  0.3828
  428MOL0     C57698   2.059   6.323   2.426 -0.3772 -0.4220  0.2171
  428MOL0     C57699   1.889   6.206   2.851  1.1505  0.1070 -0.0121
  428MOL0     C57700   1.893   6.351   2.858 -0.4722 -0.5455 -0.3135
  428MOL0     C57701   1.863   6.429   2.971 -0.2758  0.9372  0.1663
  428MOL0     C57702   1.836   6.357   3.089  0.4110 -0.0052 -0.8250
  428MOL0     O57703   1.809   6.404   3.216 -0.8478 -0.3133 -0.2073
  428MOL0     C57704   1.825   6.545   3.232  0.4408 -0.9065  0.4290
  428MOL0     C57705   1.768   6.600   3.364 -0.2335  0.2894  0.1655
  428MOL0     C57706   1.872   6.580   3.475 -0.5669 -0.8016  0.0034
  428MOL0     C57707   1.820   6.640   3.607  0.0153  0.2586 -0.2742
  428MOL0     C57708   1.927   6.639   3.703 -0.6923 -0.6894 -0.4146
  428MOL0     C57709   2.007   6.663   3.791  0.1902 -0.3777 -0.9068
  428MOL0     C57710   1.805   6.218   3.079  0.1534  0.1449 -0.6478
  428MOL0     C57711   1.841   6.141   2.966  0.3588 -0.5483 -0.4006
  428MOL0     C57712   1.812   5.997   2.989 -0.3694 -0.9569  0.8848
  428MOL0     H57713   2.075   5.994   2.523 -2.2380 -0.4496 -1.2893
  428MOL0     H57714   2.203   5.987   2.308  2.8902  0.9700  0.7731
  428MOL0     H57715   2.201   6.332   2.050 -1.0232 -2.3703 -2.9993
  428MOL0     H57716   2.383   6.332   2.089  1.4975 -1.8053 -2.7489
  428MOL0     H57717   2.255   6.141   1.922  0.0678 -0.0432  1.1160
  428MOL0     H57718   2.429   6.157   1.928 -0.6107 -0.9904  2.0311
  428MOL0     H57719   2.421   6.397   1.838  0.5692  0.4708 -0.5443
  428MOL0     H57720   2.240   6.364   1.815 -0.0685 -0.5679  0.6189
  428MOL0     H57721   2.456   6.198   1.691  0.6743  0.2627  2.8625
  428MOL0     H57722   2.284   6.188   1.661  0.2104  0.7373 -1.4316
  428MOL0     H57723   2.449   6.437   1.615  1.0557 -0.8775  0.0910
  428MOL0     H57724   2.432   6.315   1.491 -0.6878 -0.8434  0.3059
  428MOL0     H57725   2.230   6.502   1.630 -1.3078 -0.9325  0.3921
  428MOL0     H57726   2.265   6.505   1.461  1.3115 -1.7426  0.4597
  428MOL0     H57727   2.064   6.340   1.606  0.4496 -0.3015  0.1601
  428MOL0     H57728   2.142   6.264   1.464  0.6087  0.2517  1.5215
  428MOL0     H57729   2.006   6.534   1.443  0.1432 -0.4602  2.8101
  428MOL0     H57730   2.081   6.428   1.322  0.6992 -2.8555  0.4666
  428MOL0     H57731   1.909   6.204   1.242 -3.5861 -0.7820 -1.9683
  428MOL0     H57732   1.727   6.071   1.225  1.1233  0.5665  0.7997
  428MOL0     H57733   1.585   6.072   1.327 -0.8579  0.6121 -0.6917
  428MOL0     H57734   1.501   6.255   1.179  2.6850  1.8614 -0.3986
  428MOL0     H57735   1.610   6.210   1.050 -1.9427  1.4316  0.2415
  428MOL0     H57736   1.411   6.023   1.196  3.0569 -2.1627  0.8437
  428MOL0     H57737   1.533   5.971   1.083 -1.1376 -0.6347 -0.3456
  428MOL0     H57738   1.314   6.176   0.981  1.5125  1.3598 -4.0653
  428MOL0     H57739   1.295   5.999   0.991  1.3856 -0.0703 -0.7954
  428MOL0     H57740   1.309   6.240   0.700 -1.0774 -0.4327  0.1260
  428MOL0     H57741   1.215   6.172   0.470  0.2675  2.3327  0.7535
  428MOL0     H57742   1.328   6.026   0.104  1.1045  1.2789  0.4768
  428MOL0     H57743   1.289   6.031  -0.136 -0.3852  1.8997 -1.0855
  428MOL0     H57744   0.870   6.070  -0.304 -1.5404  1.9998  1.1573
  428MOL0     H57745   0.928   6.225  -0.234 -2.8227 -2.8372  1.6878
  428MOL0     H57746   0.865   6.245  -0.481 -1.7887 -0.8082  1.9987
  428MOL0     H57747   1.045   6.243  -0.468 -1.5560  1.5558 -1.9748
  428MOL0     H57748   1.063   6.006  -0.534  1.3513 -0.0612 -4.3606
  428MOL0     H57749   0.889   5.982  -0.533 -0.9090  1.3272  1.8834
  428MOL0     H57750   1.052   6.169  -0.695  0.0817  0.6117 -0.9348
  428MOL0     H57751   0.872   6.172  -0.697  1.2079  0.9716  0.7689
  428MOL0     H57752   0.999   6.058  -0.898  0.3698  2.9199 -0.1929
  428MOL0     H57753   0.853   6.000  -0.814  0.3790  0.0051  1.0539
  428MOL0     H57754   1.118   5.885  -0.743  0.1142 -0.3194  2.6505
  428MOL0     H57755   0.953   5.823  -0.698 -2.8484 -1.1297 -3.1361
  428MOL0     H57756   1.063   5.854  -0.983 -0.5218  1.5095  1.4299
  428MOL0     H57757   0.901   5.793  -0.929 -0.1184  0.0974 -0.5687
  428MOL0     H57758   1.166   5.647  -0.912 -0.1073 -0.3095 -0.5221
  428MOL0     H57759   1.031   5.590  -0.807 -3.2479 -0.4827 -1.6722
  428MOL0     H57760   0.870   6.071  -0.084 -1.2111 -1.9296 -0.1825
  428MOL0     H57761   0.889   6.044   0.146 -2.0432  1.6642 -3.1860
  428MOL0     H57762   1.405   5.801   0.514 -2.4626 -2.9789  1.3496
  428MOL0     H57763   1.457   5.829   0.737 -1.5530 -0.9741 -1.1974
  428MOL0     H57764   2.171   6.397   2.252  0.8839 -0.1599 -0.5339
  428MOL0     H57765   2.031   6.425   2.450 -0.3223 -0.3102 -0.1807
  428MOL0     H57766   1.927   6.408   2.771 -1.0610  0.2411 -0.0382
  428MOL0     H57767   1.886   6.535   2.982  2.1800  0.3661  1.4045
  428MOL0     H57768   1.773   6.605   3.156  0.2059 -0.6676  0.7772
  428MOL0     H57769   1.928   6.580   3.223  0.4487  0.1495  3.6736
  428MOL0     H57770   1.681   6.538   3.387  0.7162 -0.5049  1.7595
  428MOL0     H57771   1.744   6.707   3.357 -4.0330 -0.5179 -2.8106
  428MOL0     H57772   1.955   6.642   3.440 -1.1834 -0.4166 -0.8203
  428MOL0     H57773   1.928   6.486   3.478  2.9529  0.9298 -2.9983
  428MOL0     H57774   1.780   6.739   3.585 -2.3654 -0.6560 -0.2828
  428MOL0     H57775   1.739   6.579   3.648 -1.5447  1.2113 -1.8052
  428MOL0     H57776   2.072   6.690   3.872  0.4288 -0.5447 -1.0409
  428MOL0     H57777   1.763   6.170   3.167  0.5192  0.5256 -0.2634
  428MOL0     H57778   1.731   5.975   3.058  1.2748 -3.1829  2.2387
  428MOL0     H57779   1.814   5.938   2.897  1.9846  1.5634 -0.8426
  428MOL0     H57780   1.897   5.958   3.045 -0.8224 -2.8566  0.3198
  429MOL0     O57781   1.420   3.729   9.101 -0.9914  0.4032  0.4352
  429MOL0     C57782   1.339   3.719   9.189  0.0053  0.7578 -0.2421
  429MOL0     O57783   1.252   3.816   9.225  0.4383  0.0384  0.2021
  429MOL0     C57784   1.278   3.944   9.173  0.2698 -0.0353 -1.1518
  429MOL0     C57785   1.184   4.002   9.092  1.1342 -1.2901 -0.4533
  429MOL0     C57786   1.200   4.136   9.060  0.2724 -0.4248  0.5732
  429MOL0     C57787   1.315   4.204   9.090  0.1780 -1.0088  0.3449
  429MOL0     O57788   1.306   4.337   9.054 -0.1995 -0.1656 -1.2065
  429MOL0     C57789   1.298   4.421   9.165  0.0858 -0.8007  0.9515
  429MOL0     C57790   1.282   4.568   9.135  0.0932 -0.2766  0.8216
  429MOL0     C57791   1.414   4.631   9.101  0.1137  0.5144 -1.1378
  429MOL0     C57792   1.513   4.631   9.230 -0.5676  0.5340  1.0187
  429MOL0     C57793   1.653   4.692   9.185 -0.2124  0.1773 -0.2654
  429MOL0     C57794   1.747   4.687   9.300  0.4000 -0.6683  0.3072
  429MOL0     C57795   1.874   4.771   9.282  0.1000 -0.3566 -0.7614
  429MOL0     C57796   1.969   4.780   9.407 -1.2059 -1.4885 -0.2358
  429MOL0     N57797   1.993   4.654   9.479 -0.3169 -0.0048 -1.0434
  429MOL0     C57798   2.075   4.547   9.450 -0.1508 -0.2939  0.1413
  429MOL0     C57799   2.076   4.465   9.555  0.4708  0.6142 -0.0334
  429MOL0     C57800   2.152   4.338   9.580 -0.1461 -0.6673  0.2005
  429MOL0     C57801   2.306   4.346   9.572  0.5630 -1.0090 -0.2664
  429MOL0     C57802   2.389   4.222   9.609 -0.4668  0.7687 -0.0307
  429MOL0     C57803   2.344   4.133   9.710 -0.6472 -0.1045 -0.3143
  429MOL0     O57804   2.355   4.192   9.841  0.0963  0.8123 -0.0147
  429MOL0     C57805   2.254   4.173   9.936 -0.6227  0.5132  1.1781
  429MOL0     C57806   2.260   4.270  10.033 -0.1440  0.1726 -1.5077
  429MOL0     C57807   2.157   4.288  10.131  0.1971  0.3532  0.1928
  429MOL0     C57808   2.047   4.196  10.134  0.1541  0.0885 -0.1604
  429MOL0     C57809   1.946   4.203  10.246  0.1608  1.0743  0.0180
  429MOL0     O57810   1.818   4.140  10.235  0.3634  0.5401  0.6017
  429MOL0     C57811   1.722   4.182  10.329  1.0017 -0.5986  0.1506
  429MOL0     C57812   1.658   4.309  10.338 -0.9238  0.3590 -0.9157
  429MOL0     C57813   1.565   4.331  10.441  0.0343 -0.6644  0.4025
  429MOL0     C57814   1.526   4.231  10.531 -0.3680  0.0473  0.8082
  429MOL0     O57815   1.408   4.252  10.603  0.2911 -0.2072 -0.2815
  429MOL0     C57816   1.402   4.217  10.735  0.5038 -0.7482 -0.6001
  429MOL0     C57817   1.271   4.295  10.778 -0.5402 -0.0475  0.5838
  429MOL0     C57818   1.255   4.446  10.753 -0.0427 -0.4710  0.1506
  429MOL0     C57819   1.123   4.497  10.696  0.7164 -0.3840 -0.0905
  429MOL0     C57820   0.999   4.491  10.786 -0.0752  0.0566 -0.0138
  429MOL0     C57821   1.009   4.558  10.924 -0.9976  0.5053  1.1595
  429MOL0     C57822   0.871   4.547  10.989 -0.0792 -0.1258 -0.2225
  429MOL0     C57823   0.856   4.634  11.114  0.4644 -0.0025 -0.2843
  429MOL0    Cl57824   0.683   4.629  11.162  0.0242 -0.3980  0.6111
  429MOL0     C57825   1.592   4.114  10.522 -0.1899 -0.2655 -0.4442
  429MOL0     C57826   1.691   4.093  10.428 -0.3459  0.3678  0.0405
  429MOL0     O57827   1.972   4.270  10.349  0.5396  0.3370  0.3951
  429MOL0     C57828   2.049   4.094  10.034  0.6643 -0.4637  0.1093
  429MOL0     C57829   2.154   4.077   9.941  0.4189  0.2394  0.3948
  429MOL0     N57830   1.979   4.511   9.643  0.2105 -1.3536  0.0324
  429MOL0     N57831   1.941   4.635   9.603 -0.5154  0.7655 -0.0931
  429MOL0     C57832   1.416   4.146   9.168  0.6615  0.3467  0.2554
  429MOL0     C57833   1.388   4.015   9.217 -0.0198  0.4907 -0.1609
  429MOL0     C57834   1.336   3.599   9.281 -0.8238 -1.2066  0.0876
  429MOL0     C57835   1.458   3.538   9.301 -0.2022  1.1613  0.4463
  429MOL0     C57836   1.475   3.426   9.374 -0.0826  0.2420  0.1781
  429MOL0     C57837   1.366   3.372   9.440  0.4295  0.3786 -0.1126
  429MOL0     O57838   1.365   3.271   9.530 -0.0619 -0.4187  0.5723
  429MOL0     C57839   1.475   3.187   9.564 -0.1652  0.1353 -0.4935
  429MOL0     C57840   1.441   3.048   9.493 -0.2612  0.4358 -0.2507
  429MOL0     C57841   1.291   3.008   9.490  0.0897 -0.7316  1.0870
  429MOL0     C57842   1.223   3.031   9.352 -0.5772 -0.8248  1.2281
  429MOL0     C57843   1.269   2.938   9.249  0.2735 -0.9221 -0.3347
  429MOL0     C57844   1.282   2.841   9.181 -0.0549  0.6082  0.0290
  429MOL0     C57845   1.243   3.427   9.424  0.2228  0.0127  0.1576
  429MOL0     C57846   1.224   3.550   9.353 -0.5154  0.1061 -0.7360
  429MOL0     C57847   1.082   3.604   9.358 -0.3792 -0.2224 -0.0835
  429MOL0     H57848   1.101   3.939   9.062  1.2900 -1.9077  0.3687
  429MOL0     H57849   1.113   4.181   9.013  2.0833  1.0354 -1.5220
  429MOL0     H57850   1.204   4.405   9.217 -1.5497 -0.0665 -1.6091
  429MOL0     H57851   1.386   4.403   9.228  0.6448  0.7505  0.6612
  429MOL0     H57852   1.254   4.614   9.230 -1.7411 -1.0894  0.6965
  429MOL0     H57853   1.214   4.595   9.054  1.0340 -0.2362  0.0151
  429MOL0     H57854   1.405   4.737   9.075  0.9102  0.7351 -0.5670
  429MOL0     H57855   1.469   4.577   9.023  0.1838 -1.8564  0.4610
  429MOL0     H57856   1.481   4.684   9.320 -1.5582  0.7426  0.5620
  429MOL0     H57857   1.535   4.526   9.251 -1.9597 -0.1884 -0.8554
  429MOL0     H57858   1.706   4.641   9.104  0.1177 -0.5650  0.4009
  429MOL0     H57859   1.632   4.795   9.154 -1.6579  0.2247  0.7775
  429MOL0     H57860   1.704   4.727   9.392 -1.1942  1.9828 -1.4475
  429MOL0     H57861   1.778   4.583   9.316  1.3410 -0.6033 -0.9413
  429MOL0     H57862   1.846   4.873   9.254 -2.0810 -0.7068 -0.1158
  429MOL0     H57863   1.926   4.721   9.200  2.0846 -1.4678  1.0652
  429MOL0     H57864   2.070   4.802   9.370 -1.7100 -2.3201 -2.2057
  429MOL0     H57865   1.927   4.861   9.467  1.4586  0.2525 -0.5123
  429MOL0     H57866   2.150   4.540   9.372 -0.0416  4.6986 -0.5242
  429MOL0     H57867   2.135   4.306   9.683  0.9677  2.1668  1.3452
  429MOL0     H57868   2.125   4.264   9.503  0.4719  0.0087 -0.6838
  429MOL0     H57869   2.329   4.362   9.466 -1.7091  0.7979 -0.5704
  429MOL0     H57870   2.326   4.434   9.634 -0.4574 -1.4965  0.7877
  429MOL0     H57871   2.492   4.251   9.630 -0.0432  0.0827 -1.0369
  429MOL0     H57872   2.386   4.167   9.514 -0.4649 -0.2503  0.5429
  429MOL0     H57873   2.402   4.040   9.716  1.5404  1.2980  3.3208
  429MOL0     H57874   2.241   4.097   9.695 -1.5721  2.3948 -0.4355
  429MOL0     H57875   2.346   4.336  10.032  0.5631 -0.5571  1.6967
  429MOL0     H57876   2.154   4.363  10.209 -2.2878  0.1480  0.3857
  429MOL0     H57877   1.687   4.386  10.266 -3.2523  3.5354  1.2274
  429MOL0     H57878   1.523   4.431  10.440 -0.8521 -1.0221 -0.5297
  429MOL0     H57879   1.402   4.108  10.742  0.0903 -0.7812 -1.0734
  429MOL0     H57880   1.483   4.272  10.783  1.3605 -0.6430 -2.1131
  429MOL0     H57881   1.191   4.250  10.718  1.0697  0.2846 -1.9927
  429MOL0     H57882   1.243   4.278  10.882 -4.0335  1.3076  0.0097
  429MOL0     H57883   1.282   4.504  10.842 -1.9590  1.7639 -0.6356
  429MOL0     H57884   1.328   4.472  10.675 -1.4901 -1.1050 -1.4626
  429MOL0     H57885   1.096   4.436  10.609 -2.7876  1.1003 -0.2233
  429MOL0     H57886   1.142   4.600  10.664 -1.0815  0.2575  0.7869
  429MOL0     H57887   0.973   4.386  10.797 -2.1165 -0.2087 -4.8866
  429MOL0     H57888   0.910   4.533  10.738  0.7132  0.9286 -0.7521
  429MOL0     H57889   1.085   4.509  10.985 -1.3624 -0.5798  0.7531
  429MOL0     H57890   1.035   4.664  10.921  0.6905  0.1149  1.2240
  429MOL0     H57891   0.863   4.451  11.041 -1.0632 -0.7408 -1.4652
  429MOL0     H57892   0.783   4.554  10.924 -1.5680  0.7092  1.7843
  429MOL0     H57893   0.919   4.601  11.197 -2.1034 -1.0766  1.3735
  429MOL0     H57894   0.876   4.739  11.090 -2.4264  0.3038 -1.7730
  429MOL0     H57895   1.567   4.030  10.585  0.4930  0.2243  0.5138
  429MOL0     H57896   1.712   3.986  10.429 -4.6986 -0.6774 -0.1900
  429MOL0     H57897   1.971   4.017  10.035  3.7991 -3.9260  1.8815
  429MOL0     H57898   2.168   3.990   9.878  1.0190  1.6420 -1.5281
  429MOL0     H57899   1.500   4.210   9.194 -0.1714  2.0940 -1.1706
  429MOL0     H57900   1.455   3.965   9.285 -2.9454 -4.4032 -0.3613
  429MOL0     H57901   1.536   3.593   9.249 -0.9868  1.2573 -0.6696
  429MOL0     H57902   1.571   3.375   9.385  0.1448 -0.0626 -2.5181
  429MOL0     H57903   1.478   3.190   9.673 -2.5450  2.9868 -0.3700
  429MOL0     H57904   1.572   3.230   9.536 -0.8789  2.1633 -0.0095
  429MOL0     H57905   1.509   2.974   9.536  1.8900  2.5041  0.1004
  429MOL0     H57906   1.470   3.057   9.388 -0.4729  4.0103 -0.1031
  429MOL0     H57907   1.229   3.063   9.562 -0.9675 -0.0310 -0.3120
  429MOL0     H57908   1.285   2.901   9.512 -2.2949 -1.7523 -3.4029
  429MOL0     H57909   1.118   3.000   9.353  0.4784 -5.9291 -2.3262
  429MOL0     H57910   1.237   3.136   9.326 -1.4963 -1.0123 -0.1552
  429MOL0     H57911   1.278   2.746   9.131 -2.4547 -1.0771  3.0619
  429MOL0     H57912   1.164   3.381   9.481 -0.4446  1.7983  0.7156
  429MOL0     H57913   1.069   3.712   9.349 -5.8965 -0.7185 -1.8427
  429MOL0     H57914   1.048   3.551   9.268  2.8495 -2.0732 -0.3704
  429MOL0     H57915   1.024   3.575   9.446  0.5641  0.3548  0.7492
  430MOL0     O57916   0.998   2.728   2.161  0.5139 -0.9590 -0.3270
  430MOL0     C57917   0.887   2.668   2.195 -0.1027  0.2659 -0.3450
  430MOL0     O57918   0.866   2.617   2.325 -0.9834  0.4111  0.0906
  430MOL0     C57919   0.972   2.626   2.409  0.4408 -0.0898 -0.3176
  430MOL0     C57920   1.081   2.542   2.390  0.5757 -0.2468 -0.1091
  430MOL0     C57921   1.188   2.548   2.479  0.1112  0.5439 -0.5556
  430MOL0     C57922   1.197   2.654   2.569  0.3030 -0.4095  0.0762
  430MOL0     O57923   1.309   2.668   2.644 -0.5294 -0.5024 -0.5726
  430MOL0     C57924   1.360   2.800   2.683  0.1687 -0.2829 -0.6769
  430MOL0     C57925   1.507   2.799   2.719  0.3263  0.7420  0.7313
  430MOL0     C57926   1.540   2.876   2.843 -0.1009  0.3881 -0.1043
  430MOL0     C57927   1.692   2.855   2.883  1.6205  0.8621 -0.1905
  430MOL0     C57928   1.795   2.896   2.782  0.5699  0.5678  0.9696
  430MOL0     C57929   1.760   3.035   2.712 -0.5962  0.2569 -0.2921
  430MOL0     C57930   1.863   3.083   2.607 -0.1146 -0.2277 -0.2064
  430MOL0     C57931   1.791   3.201   2.537  0.5231  0.2219 -0.2205
  430MOL0     N57932   1.690   3.164   2.434 -0.0646  0.3787  0.2370
  430MOL0     C57933   1.599   3.241   2.368 -0.3379  0.3088 -0.0581
  430MOL0     C57934   1.546   3.161   2.280  0.5249 -0.0074 -0.1331
  430MOL0     C57935   1.428   3.205   2.199  0.1060  0.2713 -0.6468
  430MOL0     C57936   1.301   3.120   2.227  0.3379  0.4905 -0.6242
  430MOL0     C57937   1.276   3.109   2.384 -0.0929  1.3519  0.4877
  430MOL0     C57938   1.143   3.042   2.424  0.3321 -0.9878  0.4913
  430MOL0     O57939   1.114   3.032   2.559  0.7772 -0.4511 -0.5227
  430MOL0     C57940   1.076   3.136   2.638 -0.7615 -0.6001 -1.1856
  430MOL0     C57941   1.073   3.108   2.772  0.0449  0.2364 -0.2630
  430MOL0     C57942   1.037   3.206   2.862  0.4232 -0.2044 -0.9459
  430MOL0     C57943   1.003   3.338   2.820  1.0906  0.5254  0.5426
  430MOL0     C57944   0.965   3.445   2.917 -0.9189  0.6530 -0.1781
  430MOL0     O57945   0.926   3.565   2.865 -0.3142  0.3172 -0.2516
  430MOL0     C57946   0.913   3.672   2.952  0.4368 -0.3683 -0.1049
  430MOL0     C57947   1.022   3.764   2.977 -0.2473 -0.2056  0.0221
  430MOL0     C57948   1.015   3.866   3.081  0.4488 -0.3409  0.9464
  430MOL0     C57949   0.896   3.878   3.156  0.1560  1.5810 -0.5798
  430MOL0     O57950   0.881   3.966   3.252  0.3212 -0.3114  0.1045
  430MOL0     C57951   0.900   3.908   3.384 -0.8938 -1.1888 -0.4011
  430MOL0     C57952   0.863   4.017   3.487 -0.3312  0.2889  0.6438
  430MOL0     C57953   0.968   4.130   3.496 -0.2432 -0.5500  0.1561
  430MOL0     C57954   0.929   4.250   3.582 -0.6007 -0.9004  0.8147
  430MOL0     C57955   0.786   4.301   3.576  0.6056 -0.2003 -0.1111
  430MOL0     C57956   0.760   4.354   3.436 -0.4139  1.4224 -0.5316
  430MOL0     C57957   0.603   4.345   3.408  0.5622 -0.1393 -0.9901
  430MOL0     C57958   0.570   4.225   3.322  0.3198 -0.2306  0.3360
  430MOL0    Cl57959   0.659   4.225   3.171  0.0916 -0.2187  0.1611
  430MOL0     C57960   0.785   3.795   3.129 -0.8694  0.9420  1.0440
  430MOL0     C57961   0.796   3.697   3.030 -0.2055 -0.6096  0.2344
  430MOL0     O57962   0.967   3.411   3.035 -0.0760 -0.3610 -0.6078
  430MOL0     C57963   1.010   3.363   2.679 -0.4772 -1.2141 -0.4917
  430MOL0     C57964   1.037   3.264   2.587 -0.5832  0.8546 -0.5760
  430MOL0     N57965   1.606   3.038   2.280 -0.8669  0.3426 -0.1233
  430MOL0     N57966   1.676   3.039   2.382 -0.3352 -1.0090  0.0841
  430MOL0     C57967   1.086   2.741   2.587 -0.2163 -0.3033 -0.0914
  430MOL0     C57968   0.972   2.723   2.505  0.9039  0.6116  0.1302
  430MOL0     C57969   0.766   2.693   2.099 -0.0927 -0.1304  0.1435
  430MOL0     C57970   0.642   2.675   2.151 -0.5760 -1.4475  0.2198
  430MOL0     C57971   0.533   2.697   2.079  0.6908 -0.3954  0.0957
  430MOL0     C57972   0.541   2.723   1.931  0.5983  0.6345  0.9453
  430MOL0     O57973   0.432   2.748   1.846  0.3593 -0.1666  0.5050
  430MOL0     C57974   0.296   2.753   1.897 -0.2658 -0.2474 -0.2250
  430MOL0     C57975   0.201   2.760   1.779 -0.1886  0.0631  0.3562
  430MOL0     C57976   0.187   2.626   1.692  0.2649 -0.6352  0.0499
  430MOL0     C57977   0.306   2.589   1.591  0.0539  0.0090  0.0104
  430MOL0     C57978   0.267   2.465   1.525 -0.2685 -0.6844  0.2320
  430MOL0     C57979   0.234   2.354   1.491 -0.7776 -0.1725  0.0297
  430MOL0     C57980   0.671   2.750   1.883 -0.2938 -0.3461 -0.3980
  430MOL0     C57981   0.780   2.726   1.959 -0.0347  0.0887  0.4698
  430MOL0     C57982   0.910   2.723   1.887 -0.5985 -0.0216 -0.7892
  430MOL0     H57983   1.073   2.469   2.310  2.4393  0.6933 -1.2278
  430MOL0     H57984   1.267   2.473   2.479  0.2339  0.5153  3.0919
  430MOL0     H57985   1.336   2.871   2.603 -0.1768 -0.3611 -0.6455
  430MOL0     H57986   1.315   2.842   2.774  1.6728  0.7184 -0.3493
  430MOL0     H57987   1.563   2.850   2.640  4.5754  2.0809  4.1662
  430MOL0     H57988   1.544   2.697   2.734  1.9368  1.3356  1.0556
  430MOL0     H57989   1.469   2.854   2.923 -2.2321 -0.5191 -2.1130
  430MOL0     H57990   1.522   2.983   2.826  0.7180  0.6796  0.7539
  430MOL0     H57991   1.703   2.919   2.971  0.1464  3.3078 -1.6445
  430MOL0     H57992   1.695   2.752   2.917 -2.0829  1.6016  3.0719
  430MOL0     H57993   1.880   2.917   2.847  0.5862  2.2314  0.4466
  430MOL0     H57994   1.810   2.822   2.703 -1.3273  2.4567 -1.3059
  430MOL0     H57995   1.661   3.037   2.667 -1.4412  1.0615  1.5221
  430MOL0     H57996   1.758   3.117   2.785  2.7044  0.7535 -0.5868
  430MOL0     H57997   1.896   3.004   2.540 -0.8134 -1.3954  0.7805
  430MOL0     H57998   1.951   3.120   2.661 -2.2972  2.1567  2.0250
  430MOL0     H57999   1.747   3.258   2.619 -0.7554 -0.2869 -0.5261
  430MOL0     H58000   1.862   3.270   2.490 -0.3436 -0.0121 -1.9312
  430MOL0     H58001   1.572   3.344   2.387 -1.0091  0.0636  0.3439
  430MOL0     H58002   1.404   3.306   2.234  0.8220  0.6932 -1.3280
  430MOL0     H58003   1.453   3.216   2.093 -0.7424  1.1016 -0.7704
  430MOL0     H58004   1.219   3.174   2.177  1.6669  0.7402 -2.6775
  430MOL0     H58005   1.303   3.021   2.180 -2.9538 -0.1220  0.2576
  430MOL0     H58006   1.294   3.206   2.432  0.6095  0.6084  1.7741
  430MOL0     H58007   1.341   3.033   2.428 -0.0994  1.8609  1.4136
  430MOL0     H58008   1.130   2.950   2.367  2.0948  0.4244 -2.4723
  430MOL0     H58009   1.070   3.107   2.375  3.0064 -0.3337 -3.0140
  430MOL0     H58010   1.080   3.008   2.814 -4.0571 -1.1897 -2.4467
  430MOL0     H58011   1.023   3.177   2.966 -0.3323 -0.8120 -1.2174
  430MOL0     H58012   1.106   3.735   2.915  0.4313  0.0805  0.7781
  430MOL0     H58013   1.105   3.923   3.103  1.8866 -1.9635 -0.3695
  430MOL0     H58014   0.836   3.821   3.405 -2.0046  0.3500  3.3628
  430MOL0     H58015   1.002   3.877   3.410 -1.1579 -0.7963  1.2057
  430MOL0     H58016   0.768   4.067   3.469  1.1051  3.5332  1.3682
  430MOL0     H58017   0.859   3.988   3.593 -1.4275 -0.1492  0.4915
  430MOL0     H58018   1.058   4.092   3.545 -0.4070 -1.1979 -0.0250
  430MOL0     H58019   1.001   4.140   3.393  3.0818 -2.7053  0.8464
  430MOL0     H58020   0.999   4.329   3.551 -1.8603  0.0590  0.3203
  430MOL0     H58021   0.946   4.225   3.687 -2.1684 -6.1232  0.0660
  430MOL0     H58022   0.769   4.386   3.643 -2.1121  1.3032 -2.4511
  430MOL0     H58023   0.712   4.226   3.605  1.2489 -1.9864 -2.7693
  430MOL0     H58024   0.793   4.458   3.440 -0.6171  1.4620  0.3467
  430MOL0     H58025   0.811   4.296   3.359  0.5640  0.2246  0.9594
  430MOL0     H58026   0.558   4.429   3.354 -2.3207 -1.4095 -0.7119
  430MOL0     H58027   0.553   4.341   3.505 -3.5136 -2.3060 -2.9494
  430MOL0     H58028   0.578   4.130   3.376 -2.5677 -0.9438 -0.2835
  430MOL0     H58029   0.464   4.224   3.297 -0.5281 -4.8393  2.8296
  430MOL0     H58030   0.704   3.805   3.200 -0.6282 -1.2669  1.7137
  430MOL0     H58031   0.715   3.631   3.003 -0.6520  0.1711 -0.3692
  430MOL0     H58032   1.000   3.464   2.642  3.1567 -1.5653 -2.9645
  430MOL0     H58033   1.016   3.292   2.484  1.1339  0.3630 -1.1059
  430MOL0     H58034   1.092   2.817   2.664  3.0505 -2.1228  1.6505
  430MOL0     H58035   0.882   2.784   2.504  0.2029 -0.3506  1.5298
  430MOL0     H58036   0.638   2.645   2.255 -1.4382  0.4380  0.7734
  430MOL0     H58037   0.433   2.701   2.122  0.7056  1.3543  0.0271
  430MOL0     H58038   0.288   2.846   1.955  1.4300  1.8721 -3.1526
  430MOL0     H58039   0.281   2.667   1.962 -2.1390  0.7461  0.7590
  430MOL0     H58040   0.232   2.847   1.721 -0.6472  1.4353  2.0729
  430MOL0     H58041   0.102   2.777   1.822 -0.7718 -1.7015 -0.1742
  430MOL0     H58042   0.098   2.643   1.630  2.4210  1.7433 -2.6785
  430MOL0     H58043   0.163   2.546   1.763 -0.5622 -0.4858 -0.0439
  430MOL0     H58044   0.313   2.660   1.509 -1.6944 -1.2561 -1.3170
  430MOL0     H58045   0.406   2.577   1.633  2.0060 -0.6179 -4.3406
  430MOL0     H58046   0.203   2.253   1.473  0.8944 -0.8342  0.6193
  430MOL0     H58047   0.676   2.793   1.784 -3.6102 -0.6013 -0.7943
  430MOL0     H58048   0.942   2.619   1.901 -1.3069 -0.5863 -3.0120
  430MOL0     H58049   0.893   2.734   1.780  0.2774 -3.1168 -1.3546
  430MOL0     H58050   0.982   2.799   1.918 -3.4936  3.5198 -2.0745
  431MOL0     O58051   7.432   6.792   9.988 -0.4419  0.0561  1.1885
  431MOL0     C58052   7.498   6.830   9.890  0.3182 -0.3558 -0.5198
  431MOL0     O58053   7.585   6.748   9.814  0.4140  0.5343  0.5770
  431MOL0     C58054   7.624   6.628   9.869  0.4874 -0.3110 -0.4825
  431MOL0     C58055   7.540   6.525   9.899 -0.0536 -0.2078 -0.1053
  431MOL0     C58056   7.589   6.418   9.966 -1.1431 -0.4719 -0.4880
  431MOL0     C58057   7.714   6.426  10.028 -0.3940  0.3035 -0.4439
  431MOL0     O58058   7.755   6.333  10.124  0.0159  0.6418 -0.2348
  431MOL0     C58059   7.842   6.383  10.232 -0.1471  0.3170 -0.8963
  431MOL0     C58060   7.824   6.300  10.362  0.5486  0.3563 -0.2390
  431MOL0     C58061   7.911   6.174  10.366 -0.0652 -0.6218 -0.3884
  431MOL0     C58062   7.877   6.097  10.496 -0.3860  0.0026 -0.1709
  431MOL0     C58063   7.955   5.966  10.507 -0.4169  0.0240 -0.1094
  431MOL0     C58064   7.949   5.887  10.641  0.3456 -0.9762  0.0966
  431MOL0     C58065   7.972   5.967  10.774  0.2381  0.0683 -0.3694
  431MOL0     C58066   8.115   6.007  10.810 -0.2767 -0.7087  0.3231
  431MOL0     N58067   8.167   6.133  10.747  0.5069 -0.7157  0.3327
  431MOL0     C58068   8.121   6.254  10.786 -0.1986  0.3298 -0.4074
  431MOL0     C58069   8.202   6.341  10.718 -0.3031 -0.4842 -0.2810
  431MOL0     C58070   8.199   6.495  10.723 -0.2247  0.0326 -0.0248
  431MOL0     C58071   8.094   6.554  10.630 -0.0377  0.7835  0.3303
  431MOL0     C58072   8.142   6.530  10.485 -0.1770  1.0056  0.6711
  431MOL0     C58073   8.087   6.632  10.381 -0.4722 -0.3285  0.8736
  431MOL0     O58074   8.115   6.600  10.246 -0.2840  0.1061  0.4449
  431MOL0     C58075   8.232   6.650  10.183 -0.0927 -0.4995 -0.5206
  431MOL0     C58076   8.331   6.559  10.142 -0.4097 -0.5554 -0.3348
  431MOL0     C58077   8.452   6.597  10.093  0.0440 -0.2432 -0.0082
  431MOL0     C58078   8.481   6.730  10.080  0.2313 -1.5055 -0.1757
  431MOL0     C58079   8.608   6.779  10.024  0.2307  0.4811 -0.4974
  431MOL0     O58080   8.670   6.882  10.103 -0.0895  0.5586  1.0766
  431MOL0     C58081   8.806   6.923  10.075  0.5108 -0.2560 -0.3051
  431MOL0     C58082   8.893   6.943  10.186  0.4738  0.3377  0.0700
  431MOL0     C58083   9.028   6.984  10.172  0.3081 -0.9397 -0.2230
  431MOL0     C58084   9.079   7.019  10.043 -0.3384 -0.4505 -0.0732
  431MOL0     O58085   9.210   7.058  10.025  0.1625 -0.3528  0.7492
  431MOL0     C58086   9.258   7.116   9.896 -0.4841  0.1663  0.4196
  431MOL0     C58087   9.407   7.151   9.907 -0.2596  0.3710  0.1461
  431MOL0     C58088   9.440   7.267   9.811 -0.0659 -0.0546  0.4081
  431MOL0     C58089   9.569   7.334   9.820 -0.1445 -0.6811 -0.6134
  431MOL0     C58090   9.607   7.403   9.954 -1.0920  0.0838  0.5860
  431MOL0     C58091   9.753   7.460   9.955 -0.0136 -0.0286 -0.6159
  431MOL0     C58092   9.798   7.543   9.845  0.2206 -0.5071  0.6247
  431MOL0     C58093   9.716   7.674   9.849 -0.4306  0.1706  0.6199
  431MOL0    Cl58094   9.754   7.779   9.704 -1.5434  0.2527  0.3005
  431MOL0     C58095   8.986   7.011   9.935  0.0055  0.3606  0.1466
  431MOL0     C58096   8.850   6.964   9.947  1.1664  0.0195 -0.4595
  431MOL0     O58097   8.647   6.731   9.917  0.2316  0.3673 -0.4158
  431MOL0     C58098   8.385   6.827  10.118 -1.1871 -0.0864  0.8283
  431MOL0     C58099   8.262   6.788  10.174  0.5422  0.7976  0.4240
  431MOL0     N58100   8.287   6.267  10.645  0.0531  0.3214 -0.1159
  431MOL0     N58101   8.260   6.145  10.661  0.0672  0.1156 -0.0450
  431MOL0     C58102   7.798   6.528   9.999 -0.4272 -0.7170 -0.4160
  431MOL0     C58103   7.755   6.623   9.910  0.4356 -0.5356 -0.2827
  431MOL0     C58104   7.473   6.971   9.845 -0.6840  0.0415  0.4526
  431MOL0     C58105   7.549   7.019   9.737  0.3135 -0.5845  0.3188
  431MOL0     C58106   7.510   7.131   9.655 -0.6919 -0.4354 -0.6299
  431MOL0     C58107   7.392   7.197   9.685  0.4595 -0.1698 -0.6617
  431MOL0     O58108   7.359   7.287   9.584 -0.5708 -0.1873 -0.0260
  431MOL0     C58109   7.244   7.360   9.591 -0.4836 -0.1486 -0.1458
  431MOL0     C58110   7.209   7.418   9.448 -0.8402  0.2998  0.5630
  431MOL0     C58111   7.121   7.329   9.366 -0.3386  0.0399  0.3842
  431MOL0     C58112   7.088   7.393   9.239 -1.0328  0.1380 -0.4555
  431MOL0     C58113   7.204   7.400   9.148 -0.3906 -0.3142  0.4932
  431MOL0     C58114   7.315   7.415   9.097 -0.8589 -0.0069  0.7210
  431MOL0     C58115   7.317   7.161   9.796 -0.0489  0.7386 -0.2755
  431MOL0     C58116   7.359   7.051   9.880  0.0614 -0.2409  0.2379
  431MOL0     C58117   7.273   7.018  10.001 -0.8214 -0.0424 -0.6978
  431MOL0     H58118   7.437   6.524   9.867 -0.7761  1.3933  2.0027
  431MOL0     H58119   7.525   6.333   9.988  1.4007 -3.5953 -3.9187
  431MOL0     H58120   7.944   6.394  10.193 -0.5223 -3.5441 -3.4510
  431MOL0     H58121   7.808   6.484  10.259 -3.6616 -1.4414  2.1577
  431MOL0     H58122   7.723   6.267  10.387  0.4498  1.1835  0.4996
  431MOL0     H58123   7.853   6.368  10.442 -1.2164 -0.6926  1.3472
  431MOL0     H58124   8.017   6.195  10.384  0.8059 -5.2173  1.3322
  431MOL0     H58125   7.886   6.124  10.272  0.7244 -1.4210 -0.1843
  431MOL0     H58126   7.909   6.158  10.581  1.0492 -1.3464  0.3106
  431MOL0     H58127   7.774   6.061  10.502 -1.1530  2.3433  2.3101
  431MOL0     H58128   7.920   5.895  10.432 -1.5724 -1.9919  2.1780
  431MOL0     H58129   8.059   5.993  10.486 -0.1385 -0.3507  0.7187
  431MOL0     H58130   7.859   5.829  10.661  0.8485 -2.0317 -0.6092
  431MOL0     H58131   8.037   5.822  10.629  1.9368  1.0774  0.0027
  431MOL0     H58132   7.937   5.899  10.851  2.6206 -1.0801 -0.2027
  431MOL0     H58133   7.908   6.055  10.766  2.0391  1.2750 -3.0151
  431MOL0     H58134   8.130   6.033  10.915 -2.1824  1.3449  0.1516
  431MOL0     H58135   8.182   5.922  10.792 -0.8505 -0.5036 -3.7711
  431MOL0     H58136   8.036   6.273  10.850 -1.9238 -0.8768 -2.2131
  431MOL0     H58137   8.177   6.523  10.826 -1.1144  0.9182 -0.4378
  431MOL0     H58138   8.304   6.514  10.700  0.9872 -3.3581  1.9530
  431MOL0     H58139   8.003   6.495  10.641  1.8267 -2.0339  1.8931
  431MOL0     H58140   8.084   6.658  10.659  1.8131  0.3654  2.7960
  431MOL0     H58141   8.106   6.432  10.452  0.1024  1.3187 -0.6592
  431MOL0     H58142   8.251   6.533  10.484 -0.1115 -0.5890  0.4449
  431MOL0     H58143   8.148   6.720  10.401  1.9048 -2.0267  1.4830
  431MOL0     H58144   7.983   6.659  10.402 -0.4586 -1.6584  2.9997
  431MOL0     H58145   8.315   6.452  10.149 -1.2055 -0.3591  4.5816
  431MOL0     H58146   8.533   6.529  10.069 -0.0145  0.4534 -2.3870
  431MOL0     H58147   8.841   6.923  10.279 -1.6951  2.6690 -0.5275
  431MOL0     H58148   9.086   7.010  10.260  0.5075 -0.3425 -0.5259
  431MOL0     H58149   9.260   7.034   9.824  2.2704 -1.8519  2.5367
  431MOL0     H58150   9.190   7.196   9.867 -0.5521  0.9506  2.5335
  431MOL0     H58151   9.437   7.174  10.009  2.7891 -0.0641 -0.5562
  431MOL0     H58152   9.454   7.063   9.861  1.6234  1.6510 -0.5214
  431MOL0     H58153   9.432   7.240   9.705 -1.2219  3.3049 -0.4842
  431MOL0     H58154   9.359   7.339   9.825  1.1027  1.5332 -0.5858
  431MOL0     H58155   9.563   7.403   9.735  2.4304 -0.2784 -0.5287
  431MOL0     H58156   9.645   7.257   9.804 -0.6691 -0.8736 -2.3982
  431MOL0     H58157   9.620   7.323  10.027 -0.0841  0.4111  0.7737
  431MOL0     H58158   9.535   7.478   9.988  0.3190  1.4156  0.7622
  431MOL0     H58159   9.775   7.518  10.046 -0.6945  0.1889 -0.5885
  431MOL0     H58160   9.823   7.376   9.959 -0.7303 -0.5896  1.6518
  431MOL0     H58161   9.786   7.490   9.750  0.3955 -0.7997  0.7634
  431MOL0     H58162   9.903   7.571   9.854 -0.3743  3.0151 -1.5627
  431MOL0     H58163   9.607   7.659   9.844 -0.4520  0.2701 -5.1211
  431MOL0     H58164   9.737   7.733   9.939 -0.3801  1.2686 -0.0980
  431MOL0     H58165   9.017   7.027   9.833 -1.5301  0.5075 -0.3192
  431MOL0     H58166   8.780   6.957   9.864  1.3966 -2.9691 -0.5178
  431MOL0     H58167   8.399   6.935  10.112 -4.9288  0.4249 -3.3240
  431MOL0     H58168   8.191   6.864  10.205 -0.0489  0.6376 -0.4839
  431MOL0     H58169   7.895   6.539  10.045 -1.4819  1.3319  1.5016
  431MOL0     H58170   7.813   6.712   9.892  2.0181 -1.3940  0.4014
  431MOL0     H58171   7.635   6.960   9.708  2.1886  1.3398  1.6136
  431MOL0     H58172   7.561   7.167   9.567  0.6212 -3.3091 -1.1667
  431MOL0     H58173   7.252   7.441   9.664 -0.4036 -1.5099  1.4235
  431MOL0     H58174   7.156   7.302   9.620 -3.1125  4.6832  2.8959
  431MOL0     H58175   7.308   7.424   9.401 -1.2093 -2.2739 -0.6839
  431MOL0     H58176   7.165   7.516   9.469  2.0440  2.4262 -2.1691
  431MOL0     H58177   7.026   7.320   9.419 -0.2241 -1.9690  0.3367
  431MOL0     H58178   7.166   7.230   9.352 -3.7130 -1.6345  0.3207
  431MOL0     H58179   7.005   7.338   9.195 -0.1606 -1.3891 -0.2534
  431MOL0     H58180   7.062   7.498   9.253 -0.4730  0.3300 -0.8170
  431MOL0     H58181   7.407   7.425   9.042 -1.2036  3.8314  0.5597
  431MOL0     H58182   7.219   7.202   9.817 -0.6905  0.4505 -2.5097
  431MOL0     H58183   7.322   7.021  10.099  2.8182  1.1603 -2.3638
  431MOL0     H58184   7.192   7.090  10.016 -2.3124 -2.3681  5.3112
  431MOL0     H58185   7.220   6.924   9.989 -1.5750  0.4118 -1.0011
  432MOL0     O58186   0.484   9.376   3.570  0.0857  0.7376  0.4570
  432MOL0     C58187   0.392   9.321   3.630 -0.2208 -0.4144  0.3361
  432MOL0     O58188   0.272   9.372   3.654 -0.1190 -0.6357 -0.1107
  432MOL0     C58189   0.220   9.486   3.591 -0.1302 -0.0294 -0.1455
  432MOL0     C58190   0.258   9.543   3.471 -0.3563  0.1417 -0.1404
  432MOL0     C58191   0.171   9.634   3.409  0.5578 -0.0923  0.4293
  432MOL0     C58192   0.041   9.678   3.459 -0.0205  0.1832 -0.3293
  432MOL0     O58193  -0.039   9.771   3.403 -0.0184 -0.1644  0.2282
  432MOL0     C58194  -0.007   9.801   3.264  0.3581  0.0270 -0.6528
  432MOL0     C58195  -0.122   9.893   3.220  0.7706 -1.2467 -0.4119
  432MOL0     C58196  -0.248   9.823   3.198 -0.9156 -0.9337  0.0452
  432MOL0     C58197  -0.371   9.918   3.182  0.0848  0.3001  0.5393
  432MOL0     C58198  -0.484   9.835   3.137 -0.3771 -0.0898 -0.2628
  432MOL0     C58199  -0.543   9.741   3.246 -0.6177 -0.6419 -0.0606
  432MOL0     C58200  -0.692   9.700   3.211 -0.3858  0.9146 -0.4596
  432MOL0     C58201  -0.720   9.631   3.080 -0.7095 -0.0536 -0.8667
  432MOL0     N58202  -0.835   9.691   3.001 -0.0523  0.2096 -0.3967
  432MOL0     C58203  -0.814   9.803   2.927  0.1675  0.1891  0.5391
  432MOL0     C58204  -0.928   9.830   2.861  0.6317 -0.2020  0.2617
  432MOL0     C58205  -0.958   9.943   2.764  0.3477 -1.0819  1.2479
  432MOL0     C58206  -0.941   9.907   2.615  0.6287 -0.0843 -0.0538
  432MOL0     C58207  -0.803   9.911   2.568 -0.7652 -1.0026  0.3351
  432MOL0     C58208  -0.789   9.883   2.421 -0.3307 -0.0222  1.0849
  432MOL0     O58209  -0.656   9.924   2.396  0.2201 -0.0947  0.0603
  432MOL0     C58210  -0.592   9.905   2.275 -0.5135  0.4583  0.4709
  432MOL0     C58211  -0.463   9.857   2.272 -0.0276  0.7874  0.0215
  432MOL0     C58212  -0.396   9.827   2.152 -0.2479 -0.1837 -1.3777
  432MOL0     C58213  -0.455   9.866   2.027 -0.1455  0.0941  1.0708
  432MOL0     C58214  -0.390   9.844   1.894 -0.2154  0.5716 -0.5633
  432MOL0     O58215  -0.460   9.876   1.787  0.5339  0.2757  0.5245
  432MOL0     C58216  -0.421   9.856   1.652  0.5202  0.3945 -0.1957
  432MOL0     C58217  -0.330   9.761   1.603  0.1446 -0.3595  0.0387
  432MOL0     C58218  -0.321   9.726   1.468 -0.3149  0.0519 -0.5636
  432MOL0     C58219  -0.393   9.804   1.372 -0.4704  0.8610  0.0191
  432MOL0     O58220  -0.358   9.780   1.239  0.6178  0.0136  0.5257
  432MOL0     C58221  -0.469   9.782   1.143  0.1011  0.2337  0.2089
  432MOL0     C58222  -0.420   9.788   0.993 -0.0707  0.4419 -1.1934
  432MOL0     C58223  -0.340   9.662   0.952  0.2994 -0.8333 -0.3563
  432MOL0     C58224  -0.289   9.678   0.810  0.5586 -0.9734 -0.9664
  432MOL0     C58225  -0.225   9.555   0.757 -0.0139 -0.3056  0.2038
  432MOL0     C58226  -0.148   9.603   0.633 -0.3698 -0.8640 -0.5765
  432MOL0     C58227  -0.058   9.500   0.570 -0.5772 -0.6828  0.8152
  432MOL0     C58228  -0.118   9.376   0.515  0.8823 -0.6506 -1.1859
  432MOL0    Cl58229  -0.017   9.312   0.391 -0.6312 -1.1572  0.6794
  432MOL0     C58230  -0.482   9.895   1.420 -0.8775 -0.0642 -0.5108
  432MOL0     C58231  -0.498   9.916   1.556 -0.6692 -0.5748  0.1779
  432MOL0     O58232  -0.273   9.805   1.898  0.2659 -0.3560  0.6726
  432MOL0     C58233  -0.586   9.910   2.026 -0.2225  0.5028  0.5043
  432MOL0     C58234  -0.652   9.925   2.149 -0.4175 -0.6732 -0.0028
  432MOL0     N58235  -1.029   9.738   2.916 -1.0062 -0.4012  0.0414
  432MOL0     N58236  -0.969   9.668   3.011 -0.3424  0.3381  0.6322
  432MOL0     C58237   0.008   9.623   3.582 -0.2470  0.0496  0.4504
  432MOL0     C58238   0.092   9.525   3.640 -0.3310 -0.7429 -0.8544
  432MOL0     C58239   0.402   9.181   3.691 -0.0050 -1.2090 -0.7860
  432MOL0     C58240   0.311   9.136   3.795 -0.4783 -0.3948 -0.3721
  432MOL0     C58241   0.318   9.007   3.852  0.0338  0.4587  0.3806
  432MOL0     C58242   0.425   8.927   3.822  0.6657  0.4000 -0.2198
  432MOL0     O58243   0.441   8.816   3.907  0.6310 -0.6969  0.9725
  432MOL0     C58244   0.440   8.691   3.829 -0.7778  0.3736 -0.7876
  432MOL0     C58245   0.332   8.603   3.892 -0.1683  0.1750  0.3165
  432MOL0     C58246   0.372   8.524   4.011 -0.1389 -0.7044  0.0223
  432MOL0     C58247   0.381   8.605   4.138 -0.0565 -0.7076 -0.6955
  432MOL0     C58248   0.368   8.507   4.254  0.0258  0.2684  0.5383
  432MOL0     C58249   0.353   8.434   4.352  0.5692 -0.0292  0.3101
  432MOL0     C58250   0.526   8.967   3.730 -0.4842 -0.1717 -0.5626
  432MOL0     C58251   0.514   9.096   3.660  0.4262  1.0345  0.5020
  432MOL0     C58252   0.597   9.109   3.535  0.1220 -0.6415 -0.0624
  432MOL0     H58253   0.354   9.519   3.426 -0.0457  1.6476 -0.3214
  432MOL0     H58254   0.215   9.684   3.323  2.9091 -4.2410 -1.0666
  432MOL0     H58255   0.093   9.845   3.255  1.0342 -0.7985  1.9525
  432MOL0     H58256   0.009   9.718   3.194  4.2678  3.7869 -4.8767
  432MOL0     H58257  -0.093   9.944   3.128  0.5564  0.9033  0.6495
  432MOL0     H58258  -0.145   9.969   3.295  4.2792  2.5932 -2.8011
  432MOL0     H58259  -0.255   9.746   3.276 -0.9194 -0.9144  0.0639
  432MOL0     H58260  -0.220   9.773   3.105  1.3041 -1.2583  0.8246
  432MOL0     H58261  -0.396   9.978   3.270 -0.1961 -0.0496  0.7031
  432MOL0     H58262  -0.337   9.989   3.106  1.6172 -0.6935  0.2612
  432MOL0     H58263  -0.567   9.900   3.108 -1.2938 -0.7895  0.6919
  432MOL0     H58264  -0.453   9.774   3.052  1.0444  0.0672  0.1217
  432MOL0     H58265  -0.480   9.652   3.258 -3.6258 -3.0744 -0.7768
  432MOL0     H58266  -0.552   9.801   3.336  2.8383  0.4735 -0.3213
  432MOL0     H58267  -0.749   9.791   3.229  1.7712  1.7128  3.5618
  432MOL0     H58268  -0.715   9.628   3.290 -0.8836 -1.7383 -2.8593
  432MOL0     H58269  -0.626   9.648   3.028  0.2090  0.4369  0.8926
  432MOL0     H58270  -0.749   9.528   3.101 -1.3883  0.2553 -0.2251
  432MOL0     H58271  -0.712   9.841   2.924  1.8674 -3.7709  1.0537
  432MOL0     H58272  -1.061   9.980   2.767  0.9396  0.5643  3.6673
  432MOL0     H58273  -0.899  10.030   2.793 -1.7953  0.2813  1.7302
  432MOL0     H58274  -0.967   9.801   2.619  2.3066 -0.5851 -1.1640
  432MOL0     H58275  -1.008   9.968   2.553 -0.7768  1.5029  2.8591
  432MOL0     H58276  -0.745   9.833   2.618  0.6954 -2.4163 -3.2618
  432MOL0     H58277  -0.760  10.008   2.597  0.3536 -1.9208  1.9287
  432MOL0     H58278  -0.857   9.947   2.365  0.5025 -0.4116 -0.4466
  432MOL0     H58279  -0.801   9.775   2.406  3.0007 -0.1704 -2.0487
  432MOL0     H58280  -0.427   9.839   2.373 -0.8784 -0.2984  0.1531
  432MOL0     H58281  -0.297   9.782   2.158 -0.4585 -0.5874 -0.8057
  432MOL0     H58282  -0.263   9.699   1.662 -1.6313  1.8907  5.0605
  432MOL0     H58283  -0.262   9.640   1.438  1.3326  1.6933 -2.3611
  432MOL0     H58284  -0.520   9.686   1.153  0.2311  0.0881 -0.4522
  432MOL0     H58285  -0.545   9.860   1.154 -0.2965 -0.5660  7.2619
  432MOL0     H58286  -0.510   9.803   0.933 -1.7779  0.1733  1.1544
  432MOL0     H58287  -0.357   9.877   0.986 -1.2715  2.1969  4.7481
  432MOL0     H58288  -0.256   9.666   1.022 -1.7398  1.9755  2.2483
  432MOL0     H58289  -0.401   9.573   0.965 -3.0877  0.8933 -2.9321
  432MOL0     H58290  -0.216   9.760   0.813 -2.4153  1.8534 -0.1164
  432MOL0     H58291  -0.376   9.709   0.751  1.3337  1.3557 -0.9887
  432MOL0     H58292  -0.295   9.476   0.729 -1.5194  1.4753 -1.3613
  432MOL0     H58293  -0.159   9.514   0.833 -0.4115  1.0196  1.3036
  432MOL0     H58294  -0.213   9.647   0.557  1.1647 -0.5518 -1.7482
  432MOL0     H58295  -0.092   9.694   0.655 -1.3772 -0.6452  1.3536
  432MOL0     H58296   0.026   9.479   0.637  1.9377 -1.6909 -2.3864
  432MOL0     H58297  -0.017   9.553   0.484  0.7938 -1.1776  1.1281
  432MOL0     H58298  -0.121   9.306   0.599  0.9845  0.9740  0.2290
  432MOL0     H58299  -0.221   9.384   0.480  0.9498 -1.6527 -1.6640
  432MOL0     H58300  -0.543   9.953   1.350  0.8656  2.4677 -0.0911
  432MOL0     H58301  -0.574   9.989   1.581 -0.6819 -0.4804 -0.1435
  432MOL0     H58302  -0.636   9.951   1.939  2.4557  3.7879  0.3040
  432MOL0     H58303  -0.750   9.971   2.136 -0.6150 -0.8596  0.8032
  432MOL0     H58304  -0.091   9.632   3.627  0.5116  1.1151  1.9901
  432MOL0     H58305   0.049   9.469   3.723  0.3416 -0.8504 -0.5733
  432MOL0     H58306   0.243   9.211   3.834 -0.5941 -0.6982  0.0112
  432MOL0     H58307   0.232   8.971   3.908 -0.1147  1.1199  0.5863
  432MOL0     H58308   0.532   8.632   3.830 -0.1813  1.2966 -0.7310
  432MOL0     H58309   0.416   8.700   3.723 -2.0307 -2.5875 -0.8701
  432MOL0     H58310   0.303   8.533   3.814  0.8308  0.9334 -0.7691
  432MOL0     H58311   0.244   8.662   3.921 -0.6705 -0.4256  0.0325
  432MOL0     H58312   0.473   8.483   4.006 -0.2975 -1.3800  1.7929
  432MOL0     H58313   0.303   8.440   4.023  0.9538 -1.6055  0.1603
  432MOL0     H58314   0.472   8.664   4.148 -0.4894 -0.2810  0.8788
  432MOL0     H58315   0.297   8.674   4.146 -0.6928 -1.3651 -1.4350
  432MOL0     H58316   0.332   8.371   4.436  0.4364 -1.2475 -0.6032
  432MOL0     H58317   0.602   8.890   3.716  1.0051  1.1453  0.0056
  432MOL0     H58318   0.614   9.015   3.482 -0.1225 -1.2605  0.9267
  432MOL0     H58319   0.535   9.173   3.471 -0.9095  0.8628  2.3117
  432MOL0     H58320   0.687   9.171   3.541 -0.8561  1.2782 -2.9639
  433MOL0     O58321  11.158   3.459   7.568 -0.0173  0.4230 -0.8493
  433MOL0     C58322  11.129   3.498   7.459  0.5572  0.7532  0.2674
  433MOL0     O58323  11.221   3.515   7.357 -0.0162  0.6198 -0.3518
  433MOL0     C58324  11.350   3.484   7.400  0.7311  0.0222 -0.4997
  433MOL0     C58325  11.394   3.362   7.346  0.6982  0.0944 -0.7853
  433MOL0     C58326  11.531   3.329   7.366 -0.0293 -0.4741 -0.7339
  433MOL0     C58327  11.613   3.409   7.450 -0.0513  0.2197  0.7289
  433MOL0     O58328  11.749   3.384   7.470 -0.4451  0.5994  0.5399
  433MOL0     C58329  11.811   3.261   7.417 -0.7372  0.0894  0.4226
  433MOL0     C58330  11.964   3.237   7.440  0.0769 -0.5378 -0.5268
  433MOL0     C58331  12.069   3.334   7.362 -0.8285  0.2034 -0.1095
  433MOL0     C58332  12.094   3.296   7.218  0.1318  0.5546  0.1910
  433MOL0     C58333  12.156   3.414   7.154 -0.6701 -0.6614 -0.2933
  433MOL0     C58334  12.176   3.408   7.005  1.3835 -0.3606  0.2134
  433MOL0     C58335  12.194   3.553   6.948 -0.2500 -0.5906 -0.1776
  433MOL0     C58336  12.260   3.526   6.806  0.5550 -0.6879 -0.5015
  433MOL0     N58337  12.311   3.643   6.734 -0.5119  0.7726  0.1861
  433MOL0     C58338  12.398   3.735   6.797  0.4798 -0.2314  0.6001
  433MOL0     C58339  12.452   3.806   6.695 -0.4090 -0.6783 -0.3141
  433MOL0     C58340  12.542   3.923   6.690  0.8982 -0.2860  0.5617
  433MOL0     C58341  12.465   4.062   6.695  0.1395 -0.3653 -0.1893
  433MOL0     C58342  12.558   4.182   6.674 -0.9416 -0.1664 -0.9252
  433MOL0     C58343  12.644   4.198   6.796 -0.0398 -0.6597 -1.2390
  433MOL0     O58344  12.756   4.278   6.760 -0.9475 -0.8640  0.3213
  433MOL0     C58345  12.861   4.264   6.849  0.5838 -0.1488  0.0736
  433MOL0     C58346  12.936   4.147   6.851 -0.5432 -0.1416 -0.0799
  433MOL0     C58347  13.035   4.122   6.954 -0.2989  0.4840  0.0530
  433MOL0     C58348  13.054   4.225   7.048 -0.1555 -0.7644  2.3526
  433MOL0     C58349  13.171   4.218   7.144  0.3309 -0.1273  0.4089
  433MOL0     O58350  13.214   4.333   7.202 -1.0762  0.2382 -0.1141
  433MOL0     C58351  13.323   4.315   7.285 -0.7550  0.6418  0.9057
  433MOL0     C58352  13.459   4.298   7.245  0.2076  0.0866  0.0986
  433MOL0     C58353  13.567   4.284   7.333  0.4071 -0.4983 -0.0180
  433MOL0     C58354  13.546   4.288   7.473  0.1835 -0.1762 -1.0073
  433MOL0     O58355  13.660   4.271   7.554 -0.5119  0.0757  0.5297
  433MOL0     C58356  13.666   4.237   7.683  0.3075  0.6319 -1.0175
  433MOL0     C58357  13.754   4.334   7.762  0.0007 -0.5151 -0.3555
  433MOL0     C58358  13.774   4.280   7.902  0.1715  0.2263  1.0813
  433MOL0     C58359  13.849   4.394   7.978  0.6681 -0.3431  0.1385
  433MOL0     C58360  13.901   4.340   8.115 -0.7980  0.6233 -0.0982
  433MOL0     C58361  13.981   4.441   8.190  0.3270  0.5094 -0.9300
  433MOL0     C58362  14.061   4.366   8.307  0.3810 -0.3564  0.0384
  433MOL0     C58363  14.105   4.446   8.416  0.6782 -0.0341  0.4819
  433MOL0    Cl58364  13.946   4.472   8.508  0.0519  0.0249  0.8010
  433MOL0     C58365  13.415   4.292   7.509  0.4241  1.1791  0.1289
  433MOL0     C58366  13.305   4.313   7.425  0.7250 -0.3635 -0.2198
  433MOL0     O58367  13.214   4.102   7.163  0.0288 -0.4718 -0.0629
  433MOL0     C58368  12.971   4.336   7.052 -0.5905  0.0949 -0.0361
  433MOL0     C58369  12.874   4.353   6.951  0.1208  0.5854  0.3018
  433MOL0     N58370  12.411   3.750   6.574  0.3387  0.4982 -0.9332
  433MOL0     N58371  12.323   3.664   6.597  0.0447  0.3229  0.1432
  433MOL0     C58372  11.573   3.539   7.496  0.2460  1.1559 -0.1504
  433MOL0     C58373  11.436   3.571   7.471  0.1106 -0.9443 -0.0302
  433MOL0     C58374  10.993   3.547   7.433 -0.3749 -0.0001  1.1688
  433MOL0     C58375  10.884   3.483   7.501 -0.0743 -0.0345 -0.7480
  433MOL0     C58376  10.755   3.534   7.488 -0.2634  0.3655  0.2489
  433MOL0     C58377  10.728   3.643   7.407 -0.5579  0.2236 -0.1387
  433MOL0     O58378  10.605   3.712   7.399 -0.1054 -0.2288 -0.0066
  433MOL0     C58379  10.524   3.720   7.515  0.5471 -0.2870  0.2745
  433MOL0     C58380  10.403   3.808   7.488  0.0877  0.4312  0.5477
  433MOL0     C58381  10.286   3.743   7.431  0.3204  0.4771 -0.4205
  433MOL0     C58382  10.169   3.839   7.441  0.0253  0.1954 -0.1026
  433MOL0     C58383  10.189   3.948   7.336  0.1134  0.0310  0.0315
  433MOL0     C58384  10.209   4.037   7.255 -1.0200 -0.2905  0.3921
  433MOL0     C58385  10.833   3.696   7.330 -0.4263  0.6196 -0.6502
  433MOL0     C58386  10.962   3.647   7.334  0.0004  0.0603 -0.2452
  433MOL0     C58387  11.073   3.712   7.251  0.5370 -1.1467 -0.1629
  433MOL0     H58388  11.315   3.310   7.293  0.1335  0.2363 -0.1037
  433MOL0     H58389  11.563   3.228   7.342  2.2734 -0.2703  1.0846
  433MOL0     H58390  11.758   3.172   7.451  0.9093 -0.5924  1.3229
  433MOL0     H58391  11.788   3.264   7.310 -2.5840  3.5455  0.7502
  433MOL0     H58392  12.008   3.137   7.434 -0.8699 -1.4049  3.7757
  433MOL0     H58393  11.971   3.247   7.548  1.0392  0.1419 -0.6359
  433MOL0     H58394  12.164   3.327   7.417 -0.0176 -2.1665 -1.6186
  433MOL0     H58395  12.035   3.437   7.372  2.3001  1.2952  0.6690
  433MOL0     H58396  12.153   3.207   7.196 -0.4660  0.6059 -1.8301
  433MOL0     H58397  11.998   3.300   7.165 -0.1813 -2.4067  0.3895
  433MOL0     H58398  12.096   3.503   7.172 -1.0108 -1.0234  0.4150
  433MOL0     H58399  12.253   3.433   7.201 -0.5549 -0.1998 -0.7035
  433MOL0     H58400  12.267   3.351   6.985  0.4087 -1.9389  0.1209
  433MOL0     H58401  12.086   3.371   6.954  1.8604  0.7105 -1.5139
  433MOL0     H58402  12.258   3.606   7.019 -1.1197 -1.4229  1.2819
  433MOL0     H58403  12.102   3.608   6.927  0.3314 -0.7169 -3.6220
  433MOL0     H58404  12.336   3.448   6.812  0.0017 -1.7337 -4.3544
  433MOL0     H58405  12.180   3.485   6.743  0.1006 -0.9670  0.2458
  433MOL0     H58406  12.419   3.763   6.900  2.8786 -0.4419  0.2469
  433MOL0     H58407  12.619   3.914   6.767  0.3344  2.5303  1.5778
  433MOL0     H58408  12.601   3.922   6.597  1.5851 -2.1001  0.9713
  433MOL0     H58409  12.398   4.058   6.610  2.2931  1.4921 -2.1138
  433MOL0     H58410  12.414   4.073   6.791  3.0829  2.0070  1.3019
  433MOL0     H58411  12.496   4.269   6.648 -1.3465 -1.4741 -5.0808
  433MOL0     H58412  12.625   4.160   6.590  0.9051 -0.4207  0.5490
  433MOL0     H58413  12.668   4.094   6.821 -1.9604 -1.3209 -1.9431
  433MOL0     H58414  12.596   4.243   6.884 -0.1578 -2.5626 -0.2837
  433MOL0     H58415  12.936   4.078   6.767  1.5274  3.0477 -2.9602
  433MOL0     H58416  13.116   4.049   6.949 -2.2200 -1.7221 -0.9386
  433MOL0     H58417  13.480   4.294   7.138 -1.8680 -0.6635 -0.3300
  433MOL0     H58418  13.669   4.276   7.296 -0.7140  0.0462 -3.5871
  433MOL0     H58419  13.567   4.241   7.729  2.0090  1.3974  2.9528
  433MOL0     H58420  13.690   4.132   7.700  0.5920  0.6927 -1.0466
  433MOL0     H58421  13.846   4.346   7.703  0.3960 -1.0678  0.1442
  433MOL0     H58422  13.695   4.426   7.757 -1.0599 -1.2253 -1.6600
  433MOL0     H58423  13.677   4.260   7.949  0.3219  1.6006  2.0349
  433MOL0     H58424  13.835   4.189   7.902 -3.2601 -2.2939  0.1136
  433MOL0     H58425  13.784   4.480   7.995  0.0624 -1.2306  2.7484
  433MOL0     H58426  13.932   4.431   7.916  3.7592 -6.5740 -0.2302
  433MOL0     H58427  13.965   4.255   8.088 -4.8763 -2.0859 -2.5039
  433MOL0     H58428  13.823   4.294   8.177 -1.9653 -2.4515 -3.4132
  433MOL0     H58429  14.055   4.485   8.124  4.0137 -2.3612  0.8722
  433MOL0     H58430  13.911   4.515   8.231  1.0077  1.4436 -1.4298
  433MOL0     H58431  14.153   4.329   8.260 -0.4163 -2.6562  0.2035
  433MOL0     H58432  14.003   4.287   8.355 -3.6380  1.3400 -1.5524
  433MOL0     H58433  14.174   4.389   8.478 -1.9041 -0.3441  3.3211
  433MOL0     H58434  14.148   4.540   8.383 -1.4918  0.0604 -2.4973
  433MOL0     H58435  13.401   4.297   7.617  1.7065  3.5594  0.2570
  433MOL0     H58436  13.202   4.333   7.454  0.3063  1.1686 -2.4806
  433MOL0     H58437  12.977   4.408   7.133  0.7862  0.6476 -0.6014
  433MOL0     H58438  12.811   4.442   6.943  2.1254  1.9807 -0.7568
  433MOL0     H58439  11.645   3.600   7.550  1.9266 -1.6712  1.0482
  433MOL0     H58440  11.401   3.672   7.492 -0.7197 -0.3228 -3.6934
  433MOL0     H58441  10.907   3.406   7.575  3.3611  2.0000  0.5907
  433MOL0     H58442  10.678   3.484   7.545  0.7399 -0.4294  0.9477
  433MOL0     H58443  10.582   3.765   7.596  1.2287  1.6584 -1.1972
  433MOL0     H58444  10.487   3.618   7.527 -0.9172  0.1526 -0.3165
  433MOL0     H58445  10.430   3.892   7.423 -0.3051 -0.8815 -1.4062
  433MOL0     H58446  10.375   3.849   7.585  0.6651 -0.2620  1.0208
  433MOL0     H58447  10.265   3.662   7.502 -1.4019  2.8104  1.9031
  433MOL0     H58448  10.294   3.692   7.334 -0.4111 -0.0570 -0.2165
  433MOL0     H58449  10.069   3.798   7.422 -0.3228  1.0052 -0.0835
  433MOL0     H58450  10.167   3.885   7.540 -1.9048  1.1770 -0.5421
  433MOL0     H58451  10.233   4.113   7.183  1.4955 -3.0048 -1.9557
  433MOL0     H58452  10.812   3.794   7.290  1.4235  1.2525 -0.1561
  433MOL0     H58453  11.028   3.780   7.179 -0.0023  0.5373  1.6652
  433MOL0     H58454  11.145   3.762   7.316  0.4746 -0.3259 -0.7161
  433MOL0     H58455  11.132   3.642   7.191 -2.4024 -2.3511 -1.8451
  434MOL0     O58456   2.244   2.055  10.069  0.5585 -0.1963 -0.0736
  434MOL0     C58457   2.205   1.960  10.000  0.3690 -0.4545 -0.0647
  434MOL0     O58458   2.285   1.883   9.918 -0.6373  0.5329 -0.1502
  434MOL0     C58459   2.424   1.896   9.922 -0.0314  0.3473  0.3184
  434MOL0     C58460   2.495   1.907  10.034  0.4166  0.2760  0.1616
  434MOL0     C58461   2.626   1.957  10.031 -0.3298 -0.7696  0.1219
  434MOL0     C58462   2.688   1.979   9.910  0.3639 -0.1341  0.6989
  434MOL0     O58463   2.821   2.024   9.899  0.1528 -0.6806 -0.9265
  434MOL0     C58464   2.919   1.928   9.946 -0.5193  0.7682  0.4543
  434MOL0     C58465   3.061   1.981   9.925 -0.2982 -0.1355  0.0207
  434MOL0     C58466   3.089   2.113  10.003 -0.4348 -0.1796 -0.4327
  434MOL0     C58467   3.231   2.164   9.962 -0.1448  0.2405  0.3388
  434MOL0     C58468   3.236   2.308  10.017 -0.5453 -0.9226  0.5081
  434MOL0     C58469   3.373   2.375   9.978 -0.1723 -0.7764 -0.1734
  434MOL0     C58470   3.391   2.518  10.039  0.2615  0.5162 -0.5611
  434MOL0     C58471   3.542   2.548  10.046  0.2678 -0.2934 -0.9103
  434MOL0     N58472   3.583   2.677  10.109 -0.1731  0.0632 -0.7908
  434MOL0     C58473   3.576   2.705  10.240 -0.0042  0.2430 -0.0408
  434MOL0     C58474   3.600   2.839  10.254  0.4740  0.1772 -0.0040
  434MOL0     C58475   3.607   2.924  10.374  0.7709 -0.2046  0.3244
  434MOL0     C58476   3.570   3.071  10.339  0.6308  0.4811  0.5717
  434MOL0     C58477   3.602   3.170  10.449 -0.1036  0.3106  0.4227
  434MOL0     C58478   3.517   3.122  10.575 -0.2331 -0.3049  0.7722
  434MOL0     O58479   3.547   3.201  10.690  0.1654  0.0393 -0.3658
  434MOL0     C58480   3.471   3.185  10.805 -0.0387  0.4637  0.5347
  434MOL0     C58481   3.535   3.232  10.922  0.4321  0.0979 -0.0792
  434MOL0     C58482   3.462   3.229  11.041  0.0439 -1.1075  0.5487
  434MOL0     C58483   3.320   3.196  11.039 -0.1740  0.2446  0.5041
  434MOL0     C58484   3.241   3.194  11.167 -0.6893  0.9360  0.2234
  434MOL0     O58485   3.297   3.251  11.278 -0.5001 -0.1366 -0.2616
  434MOL0     C58486   3.224   3.283  11.397 -0.2475 -0.3630 -0.2874
  434MOL0     C58487   3.144   3.191  11.477 -0.3606 -0.6007  0.3366
  434MOL0     C58488   3.079   3.235  11.598 -0.1294 -0.2191  0.1927
  434MOL0     C58489   3.071   3.370  11.621 -0.3508  0.3668 -0.3099
  434MOL0     O58490   3.005   3.430  11.725  0.3425  0.3377 -0.2963
  434MOL0     C58491   2.922   3.348  11.821  0.1871  0.8002 -0.0429
  434MOL0     C58492   2.855   3.446  11.927  0.0424 -0.7355  0.3063
  434MOL0     C58493   2.960   3.540  11.987 -0.8886  0.5360  0.4266
  434MOL0     C58494   2.908   3.613  12.109  0.9361  0.5193  1.0404
  434MOL0     C58495   2.950   3.552  12.249 -0.2104  0.4290 -0.4029
  434MOL0     C58496   2.880   3.414  12.266  0.0952  1.0287  0.2961
  434MOL0     C58497   2.917   3.352  12.401 -0.4261 -0.5766 -0.2999
  434MOL0     C58498   2.927   3.196  12.410 -0.0496 -0.0524 -0.0033
  434MOL0    Cl58499   2.757   3.143  12.384  0.3086 -0.0282 -0.1103
  434MOL0     C58500   3.136   3.457  11.535  0.2444 -0.8486  1.1292
  434MOL0     C58501   3.222   3.421  11.427  0.1694  0.4209  0.9862
  434MOL0     O58502   3.132   3.133  11.161  0.6780  0.2827  0.4517
  434MOL0     C58503   3.266   3.127  10.921  1.6299 -0.0950  0.4404
  434MOL0     C58504   3.344   3.118  10.809 -0.9463 -0.8927 -0.1396
  434MOL0     N58505   3.625   2.889  10.133 -0.5528 -0.3190 -0.3425
  434MOL0     N58506   3.613   2.789  10.043 -0.2544  0.3588 -0.0762
  434MOL0     C58507   2.619   1.953   9.795 -0.6838 -0.2180  0.2237
  434MOL0     C58508   2.484   1.917   9.799 -0.3520 -0.2589  0.3634
  434MOL0     C58509   2.057   1.949  10.000 -0.3610  0.3804  0.0176
  434MOL0     C58510   1.981   2.032  10.089 -1.2394  0.5873  0.3421
  434MOL0     C58511   1.847   2.018  10.095  0.4855 -0.1666  0.1959
  434MOL0     C58512   1.771   1.938  10.012  0.1219 -0.6612 -0.3274
  434MOL0     O58513   1.632   1.941  10.022 -0.0095  0.1979 -0.3561
  434MOL0     C58514   1.552   1.884   9.913  0.1756  1.7464  0.5033
  434MOL0     C58515   1.427   1.970   9.894  0.9813  0.3899 -0.6582
  434MOL0     C58516   1.460   2.091   9.809  0.3413 -0.0670 -0.7646
  434MOL0     C58517   1.419   2.054   9.665  0.1077  0.0656 -0.0145
  434MOL0     C58518   1.498   2.106   9.557  0.3596 -0.9025 -0.0034
  434MOL0     C58519   1.556   2.162   9.471 -0.0939  0.0482  0.1779
  434MOL0     C58520   1.837   1.861   9.919  0.0010 -0.0293  0.6052
  434MOL0     C58521   1.981   1.862   9.909  1.8371 -0.5906  0.6244
  434MOL0     C58522   2.042   1.780   9.807  0.7024 -1.2265  1.1112
  434MOL0     H58523   2.445   1.895  10.130  3.1241  1.0173  1.7836
  434MOL0     H58524   2.685   1.985  10.117 -1.4683  2.2354  0.0409
  434MOL0     H58525   2.911   1.923  10.055 -1.6372 -0.3348  0.3438
  434MOL0     H58526   2.905   1.831   9.898 -1.2270  1.1137 -0.0558
  434MOL0     H58527   3.059   1.996   9.817 -4.3427 -0.1776 -0.0762
  434MOL0     H58528   3.141   1.913   9.953  1.4413  1.4350 -0.9153
  434MOL0     H58529   3.093   2.096  10.111  1.0168  0.2875 -0.3926
  434MOL0     H58530   3.013   2.188   9.978  2.2819  1.5992 -4.3202
  434MOL0     H58531   3.303   2.088   9.992 -1.3908 -1.1801 -0.1205
  434MOL0     H58532   3.255   2.169   9.856  1.0601  2.2221  0.6688
  434MOL0     H58533   3.153   2.350   9.960  1.1315 -1.1804 -2.3584
  434MOL0     H58534   3.226   2.312  10.125 -0.7318 -2.6043  0.5675
  434MOL0     H58535   3.455   2.310  10.011 -0.9707 -1.3732  0.6794
  434MOL0     H58536   3.368   2.372   9.869 -3.3236 -0.7311 -0.0997
  434MOL0     H58537   3.354   2.516  10.142  1.2443 -2.6566 -0.1572
  434MOL0     H58538   3.337   2.588   9.975  3.2248  1.3461 -2.3415
  434MOL0     H58539   3.595   2.476  10.109  1.2187 -1.3166 -2.7996
  434MOL0     H58540   3.586   2.536   9.946 -1.6445  2.9554 -2.3076
  434MOL0     H58541   3.551   2.639  10.323 -3.2710  1.9378  0.5052
  434MOL0     H58542   3.525   2.895  10.440 -2.8543  1.1496 -3.1781
  434MOL0     H58543   3.709   2.924  10.412  1.6420 -0.4059 -1.8796
  434MOL0     H58544   3.615   3.111  10.247  0.6871 -1.7582 -0.4346
  434MOL0     H58545   3.464   3.083  10.317  0.4385  0.5732  1.5286
  434MOL0     H58546   3.577   3.268  10.406 -2.7933 -1.0101 -1.2911
  434MOL0     H58547   3.709   3.176  10.466 -0.0067 -2.2553  1.0393
  434MOL0     H58548   3.529   3.020  10.612  2.1699  0.1504  1.4468
  434MOL0     H58549   3.414   3.146  10.548  1.1191  4.3711 -1.2144
  434MOL0     H58550   3.635   3.271  10.935 -0.1429  1.1114  1.5447
  434MOL0     H58551   3.502   3.252  11.139  1.0739 -0.6947  0.0530
  434MOL0     H58552   3.143   3.085  11.454 -1.8810 -0.8895  1.5658
  434MOL0     H58553   3.029   3.169  11.668  2.1968 -2.3881 -0.0482
  434MOL0     H58554   2.857   3.273  11.775  2.0554 -0.8390 -0.1539
  434MOL0     H58555   2.984   3.292  11.892 -1.8852  0.6957  1.7817
  434MOL0     H58556   2.793   3.505  11.859  2.8992  1.5030 -0.5662
  434MOL0     H58557   2.793   3.382  11.990 -0.5828 -0.1192  0.3229
  434MOL0     H58558   3.049   3.481  12.009 -1.1390  0.2932  0.7906
  434MOL0     H58559   2.991   3.610  11.909  0.1720  1.1971  1.4123
  434MOL0     H58560   2.800   3.603  12.097  1.3650 -2.4719 -1.4555
  434MOL0     H58561   2.936   3.719  12.105  1.4489  0.5492  3.5876
  434MOL0     H58562   2.918   3.628  12.321 -1.3252  0.9632 -1.4280
  434MOL0     H58563   3.058   3.546  12.263 -0.0085  2.3132 -0.8486
  434MOL0     H58564   2.771   3.420  12.254  0.1082  1.0812  0.2016
  434MOL0     H58565   2.914   3.343  12.191 -1.2193  1.2012 -0.5017
  434MOL0     H58566   2.858   3.394  12.483  0.0285  3.1323 -1.6653
  434MOL0     H58567   3.009   3.400  12.437 -1.0494  0.3267  0.1270
  434MOL0     H58568   3.007   3.155  12.348  0.8242 -2.7591  2.6525
  434MOL0     H58569   2.956   3.178  12.514  0.7387  1.0941 -0.0133
  434MOL0     H58570   3.125   3.561  11.566  0.0177 -0.1427 -1.1114
  434MOL0     H58571   3.265   3.503  11.371 -0.7014  1.2369  1.4886
  434MOL0     H58572   3.169   3.081  10.906  0.5210  2.9977 -3.7491
  434MOL0     H58573   3.326   3.068  10.715  5.4334 -1.8407 -1.3215
  434MOL0     H58574   2.670   1.965   9.700 -0.3661  2.2805  0.6581
  434MOL0     H58575   2.424   1.909   9.708 -0.2641  1.1639  0.1560
  434MOL0     H58576   2.031   2.108  10.147  2.8655 -2.9922  2.0152
  434MOL0     H58577   1.809   2.091  10.166  0.0261 -1.2558  1.0887
  434MOL0     H58578   1.518   1.786   9.949 -0.0654  2.4329  2.2241
  434MOL0     H58579   1.609   1.869   9.821  0.4192  2.2341  0.5759
  434MOL0     H58580   1.394   1.997   9.995 -3.1513 -1.6925 -1.2262
  434MOL0     H58581   1.337   1.921   9.856 -0.5972  3.2932 -0.9125
  434MOL0     H58582   1.568   2.106   9.804  0.0308  2.4015 -2.3918
  434MOL0     H58583   1.410   2.186   9.832  2.4715  1.3383 -1.5631
  434MOL0     H58584   1.414   1.944   9.663 -3.2550  0.0875  0.2024
  434MOL0     H58585   1.319   2.096   9.647 -0.5659  1.3078  5.1317
  434MOL0     H58586   1.619   2.220   9.406  1.5256 -0.0495  1.5702
  434MOL0     H58587   1.779   1.790   9.860 -4.0367  0.0805  3.9521
  434MOL0     H58588   1.975   1.726   9.740  2.5794 -3.0507  0.5871
  434MOL0     H58589   2.101   1.843   9.739  0.8726 -0.4356  1.9679
  434MOL0     H58590   2.103   1.706   9.859  0.3226 -1.8545  0.6671
  435MOL0     O58591   1.219   9.336   2.856  0.5454  0.1461  0.3076
  435MOL0     C58592   1.206   9.239   2.930  0.0828  0.0609  0.0194
  435MOL0     O58593   1.098   9.162   2.921  0.3212 -0.5869 -0.3519
  435MOL0     C58594   0.975   9.219   2.865  1.4911  0.3193 -0.4953
  435MOL0     C58595   0.971   9.243   2.727 -1.1037 -0.8437  0.0347
  435MOL0     C58596   0.866   9.302   2.662  0.3276  0.1749  0.5711
  435MOL0     C58597   0.748   9.335   2.736 -0.1323 -0.6789 -0.6164
  435MOL0     O58598   0.647   9.413   2.679 -0.2388 -0.3543 -0.1038
  435MOL0     C58599   0.639   9.424   2.539  0.6260  0.2344  0.4514
  435MOL0     C58600   0.497   9.357   2.511 -0.4686 -0.8047 -0.1649
  435MOL0     C58601   0.448   9.395   2.372  0.3216 -0.5795 -0.3406
  435MOL0     C58602   0.532   9.329   2.266 -0.4202 -0.6914  0.0429
  435MOL0     C58603   0.471   9.349   2.130  0.2037 -0.9950  0.5817
  435MOL0     C58604   0.551   9.254   2.035  0.6116 -0.0516 -0.9385
  435MOL0     C58605   0.529   9.269   1.881  0.1141  0.2552 -0.4858
  435MOL0     C58606   0.391   9.221   1.838  0.2327  0.5205 -1.2368
  435MOL0     N58607   0.378   9.216   1.691 -0.4036 -0.1649  0.5747
  435MOL0     C58608   0.435   9.309   1.609 -0.0657  0.6270  0.2692
  435MOL0     C58609   0.403   9.261   1.480  0.3399 -1.1300 -0.2540
  435MOL0     C58610   0.437   9.328   1.347 -0.1717  0.0375 -1.4088
  435MOL0     C58611   0.587   9.342   1.340 -0.7806 -0.9240  0.2367
  435MOL0     C58612   0.634   9.489   1.383 -0.0674 -0.0037 -0.6104
  435MOL0     C58613   0.599   9.599   1.281 -0.3786  0.2626 -0.1526
  435MOL0     O58614   0.661   9.721   1.339  0.0833  0.9928 -0.7439
  435MOL0     C58615   0.602   9.795   1.445  0.1600  0.4618  0.3955
  435MOL0     C58616   0.672   9.887   1.517 -1.6524 -0.4854 -0.7307
  435MOL0     C58617   0.619   9.968   1.623  1.4896  0.5421 -0.4118
  435MOL0     C58618   0.479   9.954   1.660 -0.6300  0.4169  0.4795
  435MOL0     C58619   0.428  10.020   1.777 -0.8262  0.1731 -1.0263
  435MOL0     O58620   0.294  10.004   1.792 -0.2573 -0.5012  0.2209
  435MOL0     C58621   0.223  10.024   1.913 -0.1339 -0.0632  1.1577
  435MOL0     C58622   0.086   9.977   1.907 -0.0091  0.2105 -0.5452
  435MOL0     C58623   0.003   9.989   2.021 -0.7181 -0.5313 -0.3550
  435MOL0     C58624   0.047  10.063   2.135  0.1244  0.4939 -0.0075
  435MOL0     O58625  -0.044  10.081   2.246 -0.0758 -0.0695 -0.4037
  435MOL0     C58626  -0.157  10.161   2.207 -0.8451 -0.0428 -0.0508
  435MOL0     C58627  -0.251  10.198   2.327  0.5117 -1.2805  0.6195
  435MOL0     C58628  -0.182  10.305   2.421  0.0715  0.2278  0.5714
  435MOL0     C58629  -0.216  10.298   2.567  0.4358 -0.4790 -0.6779
  435MOL0     C58630  -0.180  10.166   2.648  0.2298 -0.5295  0.4999
  435MOL0     C58631  -0.292  10.069   2.659  0.0901 -0.5711  0.1920
  435MOL0     C58632  -0.245   9.932   2.714  0.7732 -1.4465 -0.3679
  435MOL0     C58633  -0.360   9.833   2.717  0.1480  0.4317 -0.9488
  435MOL0    Cl58634  -0.308   9.666   2.785 -0.2569  0.0417  0.3099
  435MOL0     C58635   0.187  10.104   2.143  1.4904 -0.5988  0.2352
  435MOL0     C58636   0.267  10.080   2.030 -0.2765 -0.4000 -0.8560
  435MOL0     O58637   0.500  10.085   1.854  0.2351  0.0010  0.0629
  435MOL0     C58638   0.406   9.862   1.587  0.5098 -0.5361  0.1113
  435MOL0     C58639   0.471   9.781   1.485 -0.1408 -0.4324 -0.9548
  435MOL0     N58640   0.342   9.143   1.484  0.4942  1.2174 -0.2458
  435MOL0     N58641   0.323   9.111   1.605  0.2596  0.4089  0.1920
  435MOL0     C58642   0.740   9.300   2.868 -0.3490 -0.6127  0.5586
  435MOL0     C58643   0.853   9.249   2.934 -0.3263 -0.4011 -0.0757
  435MOL0     C58644   1.319   9.196   3.018  0.2087  0.1884  1.1517
  435MOL0     C58645   1.306   9.081   3.103 -0.3710 -0.0028  0.2054
  435MOL0     C58646   1.404   9.027   3.184  0.4774 -0.1554 -0.1788
  435MOL0     C58647   1.519   9.097   3.195 -0.4758  0.0549 -0.1387
  435MOL0     O58648   1.607   9.052   3.291 -0.3599  0.0639 -0.4256
  435MOL0     C58649   1.733   9.116   3.321 -0.0410  0.0348  0.8348
  435MOL0     C58650   1.840   9.100   3.207 -0.1634 -0.3414  0.0063
  435MOL0     C58651   1.865   8.963   3.155  0.0898  0.0819  0.7273
  435MOL0     C58652   1.992   8.949   3.064  0.5539 -0.0499  0.9319
  435MOL0     C58653   2.116   8.960   3.142 -0.4099 -0.3999  1.0085
  435MOL0     C58654   2.225   8.981   3.200 -0.5144  0.1668  0.5227
  435MOL0     C58655   1.545   9.202   3.110 -0.4825  0.6519 -0.1589
  435MOL0     C58656   1.442   9.256   3.023 -1.0846  0.3318 -0.3145
  435MOL0     C58657   1.483   9.374   2.939 -0.8445  0.3387 -0.3523
  435MOL0     H58658   1.056   9.212   2.668 -0.4658  2.8858 -1.2426
  435MOL0     H58659   0.881   9.308   2.555 -1.8589  0.5005  0.2450
  435MOL0     H58660   0.633   9.533   2.526  0.0906  0.4197  2.0355
  435MOL0     H58661   0.712   9.376   2.473 -1.3510 -1.5323 -0.5987
  435MOL0     H58662   0.427   9.395   2.586 -0.3093 -1.3850  0.2790
  435MOL0     H58663   0.502   9.250   2.529  0.8935 -0.0774  5.6572
  435MOL0     H58664   0.457   9.503   2.361  1.3287 -0.6660 -0.5079
  435MOL0     H58665   0.343   9.367   2.358  0.4869 -0.5832 -1.7312
  435MOL0     H58666   0.637   9.361   2.267 -0.9000  1.0353 -0.7227
  435MOL0     H58667   0.528   9.221   2.283 -1.2970 -0.9546 -1.5722
  435MOL0     H58668   0.365   9.320   2.133 -0.2201  0.5184  2.7287
  435MOL0     H58669   0.490   9.453   2.103 -2.1854 -0.1955  1.6950
  435MOL0     H58670   0.659   9.250   2.056  0.5701 -0.4290 -0.7844
  435MOL0     H58671   0.523   9.155   2.075 -2.7982  1.1185 -0.1190
  435MOL0     H58672   0.604   9.215   1.824  1.4139  0.4372  0.9729
  435MOL0     H58673   0.533   9.377   1.863  2.9798  0.2879  0.0059
  435MOL0     H58674   0.370   9.120   1.875  0.6218  1.5020  1.9818
  435MOL0     H58675   0.315   9.286   1.881 -0.3563 -0.5123 -0.6700
  435MOL0     H58676   0.480   9.406   1.629  3.6483 -0.2822 -2.5670
  435MOL0     H58677   0.403   9.276   1.257 -0.0864 -0.2320 -1.2842
  435MOL0     H58678   0.383   9.423   1.349  0.1345  0.2006 -0.7591
  435MOL0     H58679   0.639   9.265   1.397 -0.3425 -0.6701  0.1871
  435MOL0     H58680   0.616   9.328   1.235  0.5440  2.8246 -0.0576
  435MOL0     H58681   0.743   9.492   1.390 -0.1809 -0.1686  2.5698
  435MOL0     H58682   0.596   9.508   1.484 -3.1803  2.2775 -2.0603
  435MOL0     H58683   0.494   9.608   1.253 -1.1947 -0.8152  2.2562
  435MOL0     H58684   0.651   9.577   1.187 -0.0955 -0.2167  0.1101
  435MOL0     H58685   0.779   9.894   1.497 -1.6516  0.7307 -0.3433
  435MOL0     H58686   0.679  10.034   1.684  0.0098 -0.4420  2.2643
  435MOL0     H58687   0.038   9.960   1.811 -0.4211  1.0273 -0.4903
  435MOL0     H58688  -0.101   9.960   2.017 -1.5296  1.6877  1.7446
  435MOL0     H58689  -0.128  10.257   2.164  0.1986 -1.6599 -3.2848
  435MOL0     H58690  -0.213  10.108   2.129 -4.4781  1.2640  1.4367
  435MOL0     H58691  -0.351  10.233   2.303  0.4131 -2.5594 -1.0169
  435MOL0     H58692  -0.272  10.109   2.386 -1.6908 -1.8958 -0.9789
  435MOL0     H58693  -0.073  10.291   2.422 -0.0010 -0.3482  0.9988
  435MOL0     H58694  -0.194  10.407   2.385 -0.9138 -0.4241 -1.0150
  435MOL0     H58695  -0.322  10.320   2.581  0.9953  0.5633  2.7298
  435MOL0     H58696  -0.153  10.379   2.604 -0.7344  0.3101 -0.3946
  435MOL0     H58697  -0.143  10.201   2.745  2.8407  0.3375 -0.7128
  435MOL0     H58698  -0.092  10.127   2.595  0.3091  0.8712 -0.4597
  435MOL0     H58699  -0.365  10.124   2.719  3.2922  2.3803  1.7268
  435MOL0     H58700  -0.333  10.043   2.561 -1.0585 -0.2567  0.5709
  435MOL0     H58701  -0.211   9.935   2.818  1.1219 -1.4669 -0.4776
  435MOL0     H58702  -0.162   9.893   2.654  0.1404 -1.0799 -1.5046
  435MOL0     H58703  -0.420   9.882   2.794 -1.5050  0.0144 -1.9302
  435MOL0     H58704  -0.417   9.831   2.624  0.9061 -2.6114 -1.4689
  435MOL0     H58705   0.234  10.147   2.231 -1.1865  0.0581  1.4345
  435MOL0     H58706   0.373  10.099   2.045 -0.2328 -1.7136  0.7685
  435MOL0     H58707   0.302   9.836   1.603  0.7789 -0.8209  1.5759
  435MOL0     H58708   0.424   9.688   1.455  1.1137 -0.7677 -1.9571
  435MOL0     H58709   0.657   9.319   2.936  1.1100  3.4884  1.4719
  435MOL0     H58710   0.858   9.224   3.040 -2.2738 -4.9129 -0.7664
  435MOL0     H58711   1.208   9.036   3.112 -1.1188  1.2323 -1.2277
  435MOL0     H58712   1.394   8.949   3.258  0.6077  2.2308  2.5268
  435MOL0     H58713   1.769   9.067   3.412  1.4414 -1.1849 -0.3569
  435MOL0     H58714   1.725   9.224   3.336  1.3821  0.1256  1.0519
  435MOL0     H58715   1.935   9.142   3.240 -0.1537  1.2548 -1.8789
  435MOL0     H58716   1.825   9.156   3.114  1.2468  0.5533  0.2940
  435MOL0     H58717   1.785   8.942   3.084  2.8353  4.0542 -4.2603
  435MOL0     H58718   1.878   8.897   3.241  1.4257 -0.9506 -0.2137
  435MOL0     H58719   1.983   8.844   3.033 -2.3344  0.3620  0.0493
  435MOL0     H58720   1.991   9.020   2.981  2.2237 -0.4604  0.5292
  435MOL0     H58721   2.310   8.986   3.265 -2.3084  4.2964  2.9625
  435MOL0     H58722   1.639   9.255   3.113  0.9272 -1.6880  2.9603
  435MOL0     H58723   1.449   9.343   2.839  1.0982 -1.0233 -0.6619
  435MOL0     H58724   1.458   9.477   2.963  0.3838  0.5058  0.3165
  435MOL0     H58725   1.593   9.380   2.939 -0.8784  1.0526 -0.7274
  436MOL0     O58726   2.111   9.980   3.430 -0.5640  0.5666 -0.2377
  436MOL0     C58727   2.064  10.093   3.454  0.1674 -0.5657  0.8045
  436MOL0     O58728   2.141  10.196   3.517  0.0002  0.4996 -0.7571
  436MOL0     C58729   2.262  10.176   3.569  0.1884  0.1201  0.0488
  436MOL0     C58730   2.382  10.169   3.502  0.5952  0.0565 -0.3160
  436MOL0     C58731   2.503  10.193   3.577  0.9745 -0.6446  0.0175
  436MOL0     C58732   2.507  10.204   3.721 -0.4426 -0.2547  0.2925
  436MOL0     O58733   2.617  10.223   3.800  0.3451 -0.1510 -0.2422
  436MOL0     C58734   2.740  10.192   3.749  0.5116  0.4258  0.1878
  436MOL0     C58735   2.838  10.225   3.856  0.1678  0.3602  0.0084
  436MOL0     C58736   2.983  10.214   3.803  0.3575  0.6946  0.6559
  436MOL0     C58737   3.074  10.235   3.927  0.0514 -0.7257 -0.3302
  436MOL0     C58738   3.224  10.234   3.892  0.9478 -0.0540 -0.5985
  436MOL0     C58739   3.281  10.098   3.849 -0.0767  0.1221 -0.5560
  436MOL0     C58740   3.301   9.980   3.942  0.7381 -0.3863 -0.9017
  436MOL0     C58741   3.339  10.014   4.091  0.0521 -0.6060  0.3626
  436MOL0     N58742   3.488  10.030   4.100  0.7570  0.4604  0.0932
  436MOL0     C58743   3.569   9.962   4.195 -0.5842  0.6243  0.1932
  436MOL0     C58744   3.689  10.023   4.181 -0.0611  0.4872  0.6379
  436MOL0     C58745   3.813   9.999   4.271 -0.2440  0.1819  0.0533
  436MOL0     C58746   3.783   9.920   4.397  0.7932 -0.2300 -1.0324
  436MOL0     C58747   3.715  10.003   4.516 -0.3864 -0.7191  0.4392
  436MOL0     C58748   3.822  10.059   4.610 -0.0280 -0.2463  0.3293
  436MOL0     O58749   3.766  10.123   4.728 -0.2785 -0.3748  0.1809
  436MOL0     C58750   3.720  10.253   4.718 -0.7636 -0.6409  0.2147
  436MOL0     C58751   3.705  10.332   4.833  0.1488 -0.0416  0.0436
  436MOL0     C58752   3.653  10.461   4.831 -0.0207  0.4107  0.4698
  436MOL0     C58753   3.633  10.520   4.704  0.4204 -0.4838  0.4397
  436MOL0     C58754   3.571  10.660   4.704 -0.7504  1.1167 -0.0435
  436MOL0     O58755   3.550  10.726   4.828  0.6575  1.0076  0.2111
  436MOL0     C58756   3.522  10.857   4.829 -0.0090  0.2435 -0.5551
  436MOL0     C58757   3.609  10.955   4.776  0.0334  0.5404  0.9681
  436MOL0     C58758   3.591  11.094   4.809 -0.6724 -0.2893 -0.0042
  436MOL0     C58759   3.483  11.134   4.888  0.7815 -0.8743  0.3179
  436MOL0     O58760   3.441  11.264   4.901  1.0879 -0.4200 -0.5871
  436MOL0     C58761   3.506  11.365   4.829 -0.0038 -0.3805 -0.1667
  436MOL0     C58762   3.408  11.474   4.817 -0.0083 -0.3330 -0.7347
  436MOL0     C58763   3.383  11.547   4.949  0.4501 -0.5686 -0.1573
  436MOL0     C58764   3.302  11.678   4.938  0.5916 -0.5304  1.3042
  436MOL0     C58765   3.357  11.769   4.824  0.7048  0.0368 -0.4938
  436MOL0     C58766   3.275  11.901   4.804  1.4717  0.2714  0.2133
  436MOL0     C58767   3.139  11.863   4.747  0.2247 -0.0396 -0.3399
  436MOL0     C58768   3.059  11.996   4.706  1.2785  0.4759  0.3827
  436MOL0    Cl58769   3.127  12.098   4.576  0.2831 -0.1674  0.2734
  436MOL0     C58770   3.389  11.032   4.922 -0.2855  0.0533 -1.1644
  436MOL0     C58771   3.406  10.890   4.901 -0.0901 -0.0412  0.0202
  436MOL0     O58772   3.554  10.701   4.590 -0.6472  0.4232  0.5553
  436MOL0     C58773   3.650  10.443   4.586 -0.0599  0.4891  0.5578
  436MOL0     C58774   3.697  10.312   4.590  0.4112  0.1954  1.3908
  436MOL0     N58775   3.678  10.129   4.091  0.1261  0.4908 -0.1349
  436MOL0     N58776   3.554  10.133   4.047 -0.1794  0.4398 -0.0549
  436MOL0     C58777   2.384  10.192   3.786  0.0239 -1.1742  0.5054
  436MOL0     C58778   2.264  10.186   3.713  0.3533 -0.3473  0.4961
  436MOL0     C58779   1.943  10.135   3.382  0.7805 -0.0069 -0.7577
  436MOL0     C58780   1.915  10.273   3.360  0.9592  0.4731 -0.0389
  436MOL0     C58781   1.803  10.312   3.293 -0.9284 -0.3772 -0.5213
  436MOL0     C58782   1.709  10.225   3.254  0.1746  0.2306 -0.7422
  436MOL0     O58783   1.606  10.260   3.174 -0.3253 -0.0401  0.0644
  436MOL0     C58784   1.523  10.372   3.226 -0.5812  0.2662 -0.3049
  436MOL0     C58785   1.392  10.323   3.295 -0.2546  0.6794 -0.6396
  436MOL0     C58786   1.309  10.450   3.331  0.2012  0.4124  0.7231
  436MOL0     C58787   1.207  10.434   3.428  0.0318 -1.1371  0.1104
  436MOL0     C58788   1.107  10.342   3.378  0.5180  1.2060  0.9551
  436MOL0     C58789   1.020  10.263   3.337 -0.7141  0.4959 -0.4755
  436MOL0     C58790   1.727  10.088   3.278 -0.2931 -0.2207  0.8781
  436MOL0     C58791   1.838  10.044   3.354  0.0448  1.0837  1.1446
  436MOL0     C58792   1.833   9.902   3.406 -0.4439  0.1843 -0.2939
  436MOL0     H58793   2.404  10.143   3.398  0.4284 -1.2748 -0.0306
  436MOL0     H58794   2.588  10.200   3.510  1.0605 -0.1208  0.1773
  436MOL0     H58795   2.743  10.095   3.699 -1.4900  1.9423 -3.3277
  436MOL0     H58796   2.745  10.272   3.674 -0.5837  2.9541  2.6351
  436MOL0     H58797   2.824  10.156   3.940  2.8652 -3.6603 -2.4828
  436MOL0     H58798   2.815  10.330   3.878 -2.1604 -0.0458 -0.2144
  436MOL0     H58799   3.012  10.293   3.733  0.8070 -0.8898 -1.0277
  436MOL0     H58800   2.999  10.122   3.747  0.4663  0.9812  0.2081
  436MOL0     H58801   3.055  10.335   3.967  1.5310 -0.2448 -0.7580
  436MOL0     H58802   3.052  10.163   4.007 -0.2999 -1.5322 -1.1381
  436MOL0     H58803   3.230  10.292   3.800 -1.2334  2.0606  0.4862
  436MOL0     H58804   3.292  10.284   3.962 -1.7670  2.3602  0.5352
  436MOL0     H58805   3.227  10.066   3.760 -0.1197  0.3441 -0.6118
  436MOL0     H58806   3.383  10.113   3.813  0.9327 -2.0517  1.1788
  436MOL0     H58807   3.370   9.904   3.902 -1.4856 -1.7585 -2.3976
  436MOL0     H58808   3.208   9.922   3.935  1.3886 -1.3821 -1.7031
  436MOL0     H58809   3.299  10.110   4.125  2.8767  1.0151 -0.5369
  436MOL0     H58810   3.314   9.934   4.161  1.1566 -0.5632  0.8305
  436MOL0     H58811   3.537   9.888   4.267  0.5961  0.2901  0.4067
  436MOL0     H58812   3.892   9.947   4.215  0.3912  1.1472  0.0337
  436MOL0     H58813   3.865  10.092   4.294  1.0210 -0.0939 -1.4550
  436MOL0     H58814   3.724   9.836   4.358 -1.0808  1.1622 -1.3363
  436MOL0     H58815   3.881   9.884   4.431  0.5382  0.0493  0.0182
  436MOL0     H58816   3.651   9.941   4.579 -1.7394  1.5869  1.4916
  436MOL0     H58817   3.653  10.083   4.475 -0.4924  0.1970  2.2748
  436MOL0     H58818   3.885  10.129   4.555  2.5253 -2.3790  0.3087
  436MOL0     H58819   3.883   9.970   4.629 -0.2602 -0.7364 -1.1302
  436MOL0     H58820   3.739  10.310   4.933  0.3223  1.8888  0.4313
  436MOL0     H58821   3.649  10.504   4.930  1.7783 -0.9524  1.1843
  436MOL0     H58822   3.703  10.946   4.722  1.4104  2.5626  2.8192
  436MOL0     H58823   3.667  11.157   4.765  1.6080 -1.8327  1.5242
  436MOL0     H58824   3.597  11.407   4.874 -0.8575  0.7720  0.5404
  436MOL0     H58825   3.546  11.338   4.730  4.7183 -0.5767  1.5530
  436MOL0     H58826   3.439  11.544   4.739  0.6571  0.6910  0.4153
  436MOL0     H58827   3.321  11.424   4.772  0.2645 -1.0764 -0.4599
  436MOL0     H58828   3.348  11.485   5.032  3.2262 -1.9412  0.0915
  436MOL0     H58829   3.484  11.562   4.986  0.5898  0.9990 -1.0723
  436MOL0     H58830   3.297  11.743   5.026 -2.6426  1.8202 -0.4286
  436MOL0     H58831   3.197  11.651   4.922  1.1666 -3.6847  2.0821
  436MOL0     H58832   3.359  11.717   4.728 -4.8146 -2.2737  0.2760
  436MOL0     H58833   3.461  11.788   4.851  0.2664  0.4366  1.0250
  436MOL0     H58834   3.267  11.966   4.891 -0.3375  0.2481  0.1101
  436MOL0     H58835   3.326  11.965   4.732  0.1404  2.0265  0.7835
  436MOL0     H58836   3.070  11.806   4.810 -0.2599 -1.5054 -2.1021
  436MOL0     H58837   3.164  11.799   4.661 -0.1042 -1.7886  0.8231
  436MOL0     H58838   2.959  11.962   4.677  1.1292  0.5042  0.8601
  436MOL0     H58839   3.049  12.067   4.789  1.6276 -0.5932  1.3607
  436MOL0     H58840   3.294  11.055   4.968  0.1954  1.4586 -0.8415
  436MOL0     H58841   3.325  10.820   4.923 -0.2883  0.4806  1.0050
  436MOL0     H58842   3.645  10.485   4.486  0.7824  1.5232  0.9372
  436MOL0     H58843   3.706  10.272   4.490 -3.2297 -1.4699  1.5527
  436MOL0     H58844   2.392  10.196   3.894  0.8795  2.8122  0.4659
  436MOL0     H58845   2.174  10.181   3.774  0.1118  0.3091  0.2020
  436MOL0     H58846   1.981  10.351   3.395  0.7911  0.8608 -0.5793
  436MOL0     H58847   1.785  10.418   3.277  0.7843  0.1204  0.6227
  436MOL0     H58848   1.496  10.443   3.147  0.4653 -1.4855 -2.3726
  436MOL0     H58849   1.577  10.427   3.303 -0.4321 -1.3750  0.8045
  436MOL0     H58850   1.422  10.253   3.374 -1.9826 -0.5570 -1.0097
  436MOL0     H58851   1.350  10.251   3.224  0.8917  3.2844 -4.2206
  436MOL0     H58852   1.270  10.484   3.235  2.3824  2.7485  0.5591
  436MOL0     H58853   1.376  10.526   3.372 -1.4389  1.4023  1.6745
  436MOL0     H58854   1.239  10.396   3.525  0.9398 -1.4969 -0.3141
  436MOL0     H58855   1.159  10.527   3.461  2.3979 -0.2790  1.3498
  436MOL0     H58856   0.946  10.188   3.318  0.5476 -0.5747 -1.2872
  436MOL0     H58857   1.660  10.005   3.259 -0.7859  1.0739 -4.3061
  436MOL0     H58858   1.916   9.846   3.362 -0.0548 -1.3484  2.1645
  436MOL0     H58859   1.846   9.888   3.514 -0.9789  0.2673 -0.2174
  436MOL0     H58860   1.742   9.852   3.372 -4.0713  4.6064  1.8589
  437MOL0     O58861   6.557   4.696   4.600  0.0693 -0.0211  0.1767
  437MOL0     C58862   6.456   4.746   4.635 -0.2465  0.2096  0.8046
  437MOL0     O58863   6.449   4.872   4.677  0.3732 -0.0429  0.2285
  437MOL0     C58864   6.551   4.962   4.657  0.7328  0.0983 -0.0861
  437MOL0     C58865   6.519   5.083   4.589  0.3436  0.0922 -0.5875
  437MOL0     C58866   6.615   5.189   4.576 -0.4487  0.2904 -0.4386
  437MOL0     C58867   6.744   5.171   4.622 -0.0597 -0.0223 -0.8020
  437MOL0     O58868   6.844   5.271   4.625  0.4008 -0.2792  0.1089
  437MOL0     C58869   6.816   5.419   4.615  0.4998  0.3341  0.2837
  437MOL0     C58870   6.865   5.495   4.740 -0.3692  0.2011 -0.0633
  437MOL0     C58871   6.795   5.450   4.870  0.1716 -0.2155 -0.2304
  437MOL0     C58872   6.650   5.497   4.882 -0.3575  0.9361 -0.4108
  437MOL0     C58873   6.637   5.614   4.964 -0.1159 -1.1180 -0.3104
  437MOL0     C58874   6.624   5.580   5.113 -0.8778 -0.0023 -0.7239
  437MOL0     C58875   6.556   5.691   5.196  0.3519 -0.0074 -0.5118
  437MOL0     C58876   6.659   5.802   5.214  0.5906 -0.0755 -0.4716
  437MOL0     N58877   6.774   5.760   5.305  0.0515  0.3627  0.0743
  437MOL0     C58878   6.903   5.723   5.270 -0.2420  0.0308  1.0165
  437MOL0     C58879   6.971   5.715   5.380  0.2121  0.4644  0.1163
  437MOL0     C58880   7.100   5.645   5.395  0.1589 -0.8584 -0.1311
  437MOL0     C58881   7.201   5.755   5.419  0.1484 -0.0277 -0.0689
  437MOL0     C58882   7.241   5.783   5.564 -0.2757 -0.8878  1.2939
  437MOL0     C58883   7.276   5.925   5.590  0.1438 -0.5606  0.9399
  437MOL0     O58884   7.411   5.952   5.553 -0.2867 -0.3226 -0.2153
  437MOL0     C58885   7.451   5.983   5.423 -0.8322  0.1920 -0.4109
  437MOL0     C58886   7.585   5.966   5.388  0.1571  0.0536  0.1576
  437MOL0     C58887   7.636   5.982   5.258 -0.2327 -0.8384 -0.0967
  437MOL0     C58888   7.556   6.031   5.158 -0.2327  0.2986  0.3750
  437MOL0     C58889   7.601   6.025   5.017 -0.1252 -0.8015 -0.6182
  437MOL0     O58890   7.733   6.041   4.985  0.6485  0.2969  0.7084
  437MOL0     C58891   7.768   6.065   4.858  0.0109  0.0209 -0.4497
  437MOL0     C58892   7.851   5.986   4.782  0.2284 -0.1841 -0.2387
  437MOL0     C58893   7.882   6.012   4.648  0.0013  1.0860  0.1160
  437MOL0     C58894   7.842   6.134   4.593 -0.0128 -0.0999  0.9731
  437MOL0     O58895   7.885   6.189   4.470  0.1606  1.2126  1.0071
  437MOL0     C58896   7.868   6.109   4.354  1.1183 -1.0284  0.1798
  437MOL0     C58897   7.744   6.164   4.275 -0.2916  0.3580  0.0935
  437MOL0     C58898   7.772   6.298   4.227 -1.1983 -0.4988  0.7982
  437MOL0     C58899   7.642   6.380   4.199  0.4023 -0.1890 -0.8776
  437MOL0     C58900   7.677   6.524   4.159  0.3224 -0.7432  0.0173
  437MOL0     C58901   7.698   6.559   4.006  0.1324 -0.1680 -0.3716
  437MOL0     C58902   7.571   6.520   3.935  0.4765 -0.2988  0.3600
  437MOL0     C58903   7.512   6.628   3.848  0.4698 -1.2458  0.2221
  437MOL0    Cl58904   7.395   6.553   3.754  0.3528 -0.2657 -0.2937
  437MOL0     C58905   7.764   6.219   4.672  0.6531 -0.8680 -0.1973
  437MOL0     C58906   7.734   6.190   4.802  0.3438  0.3020  0.2303
  437MOL0     O58907   7.511   6.009   4.933 -0.5152  0.5158  0.3032
  437MOL0     C58908   7.416   6.044   5.188  0.3076 -0.7870  0.6864
  437MOL0     C58909   7.369   6.031   5.318  0.0951  0.4454 -0.1135
  437MOL0     N58910   6.893   5.745   5.485 -0.8753 -0.1456  0.6148
  437MOL0     N58911   6.775   5.774   5.439  0.6172 -0.5078  0.7166
  437MOL0     C58912   6.781   5.051   4.677  0.0160  0.3165  0.5240
  437MOL0     C58913   6.684   4.948   4.699  1.8630 -0.3147 -0.3335
  437MOL0     C58914   6.335   4.669   4.632 -0.2932 -0.8058  0.2564
  437MOL0     C58915   6.223   4.733   4.694  0.3143  0.4362  0.2400
  437MOL0     C58916   6.091   4.681   4.698 -0.0929  0.4746  0.6461
  437MOL0     C58917   6.071   4.553   4.656  0.3254 -0.6666 -0.7764
  437MOL0     O58918   5.947   4.491   4.671 -0.5359 -0.3809 -0.5033
  437MOL0     C58919   5.915   4.378   4.591 -0.6072 -0.9608  0.8983
  437MOL0     C58920   5.878   4.403   4.443 -0.6567 -0.4269 -0.1293
  437MOL0     C58921   5.841   4.546   4.404  0.3714 -1.3579 -0.1177
  437MOL0     C58922   5.826   4.554   4.256  0.3565 -0.7468 -1.0381
  437MOL0     C58923   5.701   4.493   4.198  0.2113 -0.3535  0.2720
  437MOL0     C58924   5.593   4.467   4.149  0.0512  0.4824  0.3873
  437MOL0     C58925   6.183   4.492   4.593  0.4365  0.2825 -0.0145
  437MOL0     C58926   6.312   4.542   4.582  0.0330 -0.5069 -0.7959
  437MOL0     C58927   6.417   4.461   4.507 -0.1299  0.9044  0.3874
  437MOL0     H58928   6.421   5.109   4.549 -0.8003 -1.1607  1.2199
  437MOL0     H58929   6.583   5.283   4.533  0.8734  1.9448  1.9789
  437MOL0     H58930   6.872   5.459   4.530 -0.0727 -1.7276 -1.1244
  437MOL0     H58931   6.715   5.454   4.588  0.9709  0.8470 -0.8867
  437MOL0     H58932   6.847   5.603   4.735  0.5455  0.3607 -0.0014
  437MOL0     H58933   6.974   5.491   4.737 -0.2801  2.0792 -2.1932
  437MOL0     H58934   6.850   5.482   4.959  1.0640 -1.1848 -0.4218
  437MOL0     H58935   6.812   5.342   4.866 -0.7071 -0.3465 -0.5271
  437MOL0     H58936   6.617   5.501   4.777  1.5851 -1.2089 -1.1799
  437MOL0     H58937   6.596   5.406   4.909  0.3505  0.0861 -1.7747
  437MOL0     H58938   6.718   5.683   4.938 -1.6773 -0.0690 -2.7537
  437MOL0     H58939   6.555   5.681   4.937  2.9710  2.8822 -0.7685
  437MOL0     H58940   6.561   5.492   5.113 -1.5340  0.4597 -1.0745
  437MOL0     H58941   6.723   5.556   5.152 -0.5145 -1.2700 -2.3248
  437MOL0     H58942   6.507   5.669   5.292 -2.6012  0.9728 -1.6741
  437MOL0     H58943   6.471   5.726   5.137 -0.2999 -1.9936 -0.8376
  437MOL0     H58944   6.703   5.836   5.119 -1.2801  0.0824 -1.3258
  437MOL0     H58945   6.605   5.880   5.269  0.1864 -0.2798 -0.5797
  437MOL0     H58946   6.926   5.703   5.165 -1.3158  2.0879  0.3312
  437MOL0     H58947   7.093   5.571   5.475 -2.3672  0.0834  0.6261
  437MOL0     H58948   7.119   5.593   5.301 -0.8249 -0.3735 -0.6105
  437MOL0     H58949   7.294   5.720   5.373  0.4282 -1.5830  1.5952
  437MOL0     H58950   7.164   5.848   5.375 -1.9051  1.6012  4.5330
  437MOL0     H58951   7.330   5.726   5.593 -1.6623 -2.3136  2.9596
  437MOL0     H58952   7.169   5.774   5.645  1.2095  2.3010  3.1799
  437MOL0     H58953   7.267   5.926   5.699 -2.6750 -3.4253  0.8965
  437MOL0     H58954   7.214   5.987   5.525  1.2844 -1.2192 -0.8643
  437MOL0     H58955   7.650   5.939   5.470  0.5561  0.8401  0.1066
  437MOL0     H58956   7.739   5.956   5.239  0.4240  0.7231  1.0578
  437MOL0     H58957   7.886   5.886   4.806 -0.9960 -0.5326  0.1743
  437MOL0     H58958   7.941   5.941   4.591  2.8016  3.8028 -0.6246
  437MOL0     H58959   7.963   6.112   4.299  0.3855 -1.3175 -1.1478
  437MOL0     H58960   7.833   6.008   4.377  2.3435 -0.9734  2.6093
  437MOL0     H58961   7.735   6.093   4.193 -0.0521 -1.3538  1.4993
  437MOL0     H58962   7.651   6.172   4.331 -1.2062 -1.7188 -1.0286
  437MOL0     H58963   7.837   6.346   4.301  2.6085  3.4963 -4.4199
  437MOL0     H58964   7.824   6.279   4.133 -0.1047 -0.0067  1.2902
  437MOL0     H58965   7.586   6.363   4.291  0.6499 -0.2876 -0.7417
  437MOL0     H58966   7.587   6.341   4.113 -1.0450  3.1280 -1.5739
  437MOL0     H58967   7.762   6.554   4.220  1.7404 -2.0650 -1.2323
  437MOL0     H58968   7.591   6.583   4.194  0.9538  0.3604 -0.2369
  437MOL0     H58969   7.734   6.661   3.993  2.0206 -0.9048 -1.2273
  437MOL0     H58970   7.780   6.499   3.967  2.1739  1.5500  1.0036
  437MOL0     H58971   7.485   6.498   3.999 -0.2454  0.3825 -0.3524
  437MOL0     H58972   7.593   6.431   3.875  4.1908 -0.0752  1.1637
  437MOL0     H58973   7.461   6.707   3.904 -2.5209 -1.4602 -1.9499
  437MOL0     H58974   7.595   6.673   3.793 -0.2635  0.9197  0.7855
  437MOL0     H58975   7.727   6.310   4.628  3.0451  1.7683  2.7513
  437MOL0     H58976   7.680   6.268   4.854  0.6196  1.1457 -0.7220
  437MOL0     H58977   7.330   6.078   5.130 -0.7108 -6.7550 -2.1789
  437MOL0     H58978   7.267   6.064   5.334  0.8728  2.0880  1.9074
  437MOL0     H58979   6.878   5.038   4.724 -0.5534  0.4323  1.7661
  437MOL0     H58980   6.721   4.859   4.748 -0.3899  0.7287  3.7456
  437MOL0     H58981   6.229   4.838   4.723 -0.4880  0.3195  0.8531
  437MOL0     H58982   6.008   4.746   4.726  0.4707  2.1143 -1.2739
  437MOL0     H58983   5.822   4.339   4.632 -0.8375 -0.9509  0.3983
  437MOL0     H58984   5.991   4.302   4.611 -2.1447 -2.6063  0.7369
  437MOL0     H58985   5.803   4.329   4.413  1.9717 -2.4790 -2.1981
  437MOL0     H58986   5.965   4.378   4.381 -0.0435 -1.3724  1.0817
  437MOL0     H58987   5.921   4.617   4.426  2.2700 -3.0725 -1.0996
  437MOL0     H58988   5.748   4.571   4.456  1.7758  0.8950  1.5259
  437MOL0     H58989   5.830   4.662   4.239  1.8966 -0.8330 -1.4167
  437MOL0     H58990   5.914   4.512   4.206 -0.0074 -1.0648 -1.4195
  437MOL0     H58991   5.503   4.454   4.094  0.4202  0.7782 -0.2921
  437MOL0     H58992   6.176   4.387   4.565  0.1457  0.2186  0.2877
  437MOL0     H58993   6.494   4.416   4.570  3.3792  0.8452 -3.4507
  437MOL0     H58994   6.375   4.376   4.452 -1.7422  1.0747  1.2951
  437MOL0     H58995   6.460   4.529   4.432 -1.9845  0.0688 -1.5624
  438MOL0     O58996   5.705   3.395   4.953  0.2005  0.0348  0.3212
  438MOL0     C58997   5.691   3.329   4.848  0.1448  0.2767  0.1898
  438MOL0     O58998   5.577   3.277   4.799  0.4665 -0.0155  0.1844
  438MOL0     C58999   5.479   3.238   4.888  0.1289  0.3433  0.7143
  438MOL0     C59000   5.351   3.302   4.908  0.2421  0.6374 -1.1618
  438MOL0     C59001   5.262   3.242   5.002 -0.0769  0.0072  0.6720
  438MOL0     C59002   5.289   3.122   5.070  0.8552  0.6794 -0.5538
  438MOL0     O59003   5.198   3.094   5.169  0.1481  0.3220 -0.9795
  438MOL0     C59004   5.215   2.972   5.239 -0.1520  0.3022  0.6848
  438MOL0     C59005   5.111   2.970   5.348  0.0269  0.6670 -0.5419
  438MOL0     C59006   4.985   2.876   5.315 -1.3308 -0.4236 -0.2946
  438MOL0     C59007   4.870   2.900   5.413 -1.1904  0.1946  0.3725
  438MOL0     C59008   4.738   2.871   5.368  0.2108  0.0422  0.2247
  438MOL0     C59009   4.685   2.969   5.265 -0.6021  0.4825  1.1035
  438MOL0     C59010   4.554   2.933   5.200  0.9433 -0.6739  0.2313
  438MOL0     C59011   4.527   3.022   5.073  0.4581  0.3867  0.1649
  438MOL0     N59012   4.387   3.021   5.030  0.6433  0.3464 -0.1354
  438MOL0     C59013   4.344   2.933   4.946 -0.3376 -0.2024 -0.9117
  438MOL0     C59014   4.215   2.958   4.911  0.1633 -0.8421 -0.0931
  438MOL0     C59015   4.135   2.872   4.814 -1.1188 -0.3739 -0.4825
  438MOL0     C59016   4.188   2.727   4.805 -0.6581  0.2030  0.6801
  438MOL0     C59017   4.166   2.652   4.671  0.1769 -1.2513 -1.0873
  438MOL0     C59018   4.167   2.502   4.687  0.1329 -0.4254 -0.3194
  438MOL0     O59019   4.049   2.448   4.755 -0.9166 -0.3277 -0.4024
  438MOL0     C59020   3.926   2.479   4.703 -0.3672 -0.4471 -0.7230
  438MOL0     C59021   3.815   2.446   4.784  0.1314  0.2011  0.6897
  438MOL0     C59022   3.677   2.479   4.748  0.6793  0.3281  0.3158
  438MOL0     C59023   3.668   2.544   4.625  0.1326 -1.0613  0.2204
  438MOL0     C59024   3.535   2.607   4.594 -0.4003  1.4728 -0.2673
  438MOL0     O59025   3.533   2.684   4.486 -0.5266  0.2124 -0.7614
  438MOL0     C59026   3.417   2.701   4.422  0.5941 -0.6019 -0.8170
  438MOL0     C59027   3.292   2.632   4.443 -0.6505  0.1276  0.0608
  438MOL0     C59028   3.177   2.673   4.380  0.4793  0.0401 -0.3601
  438MOL0     C59029   3.178   2.790   4.304  0.2746 -0.5411 -0.1618
  438MOL0     O59030   3.080   2.842   4.230 -0.2280 -0.7875  0.7724
  438MOL0     C59031   3.000   2.753   4.164 -0.2871 -0.4455  0.5972
  438MOL0     C59032   2.940   2.828   4.049  0.3071  0.7925 -0.6301
  438MOL0     C59033   3.032   2.846   3.928 -0.0842 -1.3408 -1.1578
  438MOL0     C59034   2.951   2.907   3.822 -0.1995  0.8170  0.6032
  438MOL0     C59035   3.000   2.852   3.684 -1.0919 -0.3236 -0.5695
  438MOL0     C59036   2.896   2.867   3.572 -0.3746 -0.8096  0.0478
  438MOL0     C59037   2.775   2.760   3.569 -0.7375 -0.3870  0.3600
  438MOL0     C59038   2.631   2.828   3.572  0.1270  0.1015  0.0312
  438MOL0    Cl59039   2.599   2.933   3.714  0.1180 -0.0446 -0.5547
  438MOL0     C59040   3.294   2.857   4.272  0.6734 -0.0288 -0.1253
  438MOL0     C59041   3.404   2.808   4.336 -0.0437  0.0721  0.1650
  438MOL0     O59042   3.445   2.590   4.682 -0.6857 -0.2612 -0.0188
  438MOL0     C59043   3.775   2.571   4.538  0.7667 -0.0206  0.3732
  438MOL0     C59044   3.905   2.529   4.573  0.2210  0.3743  0.5020
  438MOL0     N59045   4.185   3.079   4.976  0.4262  0.6761  0.0497
  438MOL0     N59046   4.291   3.113   5.048  0.0179  0.3290 -0.0432
  438MOL0     C59047   5.415   3.066   5.050 -0.4057  0.6756 -0.1432
  438MOL0     C59048   5.505   3.120   4.963 -0.4943 -0.4371 -0.2208
  438MOL0     C59049   5.819   3.318   4.764 -0.3090 -0.9403 -0.4325
  438MOL0     C59050   5.836   3.191   4.721  0.1160  0.6579 -0.1554
  438MOL0     C59051   5.939   3.163   4.634  0.1678  0.4554  0.7335
  438MOL0     C59052   6.028   3.259   4.583 -0.0932 -0.8921  0.7525
  438MOL0     O59053   6.124   3.236   4.493  0.1951  0.0093  0.6581
  438MOL0     C59054   6.076   3.256   4.354  0.2913 -0.1317 -1.4519
  438MOL0     C59055   6.205   3.203   4.277 -0.2229 -0.1442  0.6871
  438MOL0     C59056   6.268   3.073   4.328  0.0049 -0.0792 -0.7029
  438MOL0     C59057   6.380   3.016   4.241 -0.3053  0.3526  0.5404
  438MOL0     C59058   6.442   2.900   4.306  0.0861 -0.1466 -0.5114
  438MOL0     C59059   6.508   2.822   4.371 -0.1849 -0.2651 -0.8643
  438MOL0     C59060   6.006   3.395   4.629  0.9051  1.5638 -0.2818
  438MOL0     C59061   5.895   3.427   4.715  0.3473 -0.5712 -0.4102
  438MOL0     C59062   5.866   3.565   4.767 -0.2933 -0.4127 -0.3966
  438MOL0     H59063   5.323   3.389   4.849 -2.8783 -0.0408 -0.8374
  438MOL0     H59064   5.167   3.294   5.012  0.0054  0.6911 -1.4679
  438MOL0     H59065   5.220   2.885   5.172  1.4809  1.9167 -1.4085
  438MOL0     H59066   5.306   2.975   5.299 -1.2818  1.5794  2.4367
  438MOL0     H59067   5.092   3.074   5.374  2.7431  1.4734 -1.4622
  438MOL0     H59068   5.158   2.917   5.431 -1.3914  1.6773  0.9668
  438MOL0     H59069   5.012   2.770   5.306  2.2400  0.2787  0.6076
  438MOL0     H59070   4.953   2.915   5.218  0.6955  0.0501 -0.8235
  438MOL0     H59071   4.896   2.844   5.504  1.6246 -1.3367 -1.2253
  438MOL0     H59072   4.877   3.005   5.442 -0.4148 -0.0786  1.2406
  438MOL0     H59073   4.719   2.764   5.357 -1.7450  0.2941  0.7321
  438MOL0     H59074   4.671   2.888   5.453  1.4197 -3.6803  2.1323
  438MOL0     H59075   4.659   3.060   5.319  0.2677  0.8587  0.9040
  438MOL0     H59076   4.758   2.994   5.188 -0.0119  1.3364  1.9207
  438MOL0     H59077   4.477   2.959   5.273  1.4518 -2.1356  1.3204
  438MOL0     H59078   4.539   2.826   5.187 -0.6804 -0.5251  0.6100
  438MOL0     H59079   4.567   3.118   5.106  1.4742  0.1157 -0.2455
  438MOL0     H59080   4.593   2.976   4.999  1.1286  2.0398 -0.3155
  438MOL0     H59081   4.402   2.846   4.918 -1.6897 -2.0831  1.6612
  438MOL0     H59082   4.026   2.870   4.828 -1.0031 -0.9512  0.4199
  438MOL0     H59083   4.137   2.917   4.715 -1.7926 -1.1052 -0.8377
  438MOL0     H59084   4.297   2.714   4.810 -0.5735  0.6522  0.0990
  438MOL0     H59085   4.141   2.669   4.884 -0.3475 -1.1441 -0.0953
  438MOL0     H59086   4.257   2.676   4.615  0.4558  1.0954  0.2211
  438MOL0     H59087   4.081   2.696   4.619 -0.8766 -1.5007  0.3697
  438MOL0     H59088   4.255   2.471   4.743  0.0439  1.6651  1.1020
  438MOL0     H59089   4.182   2.451   4.591 -1.3895 -3.0451  0.7273
  438MOL0     H59090   3.827   2.436   4.891  1.7604  3.0039  0.8769
  438MOL0     H59091   3.593   2.449   4.810 -3.2887  4.5491 -2.3641
  438MOL0     H59092   3.274   2.558   4.520 -0.5129  2.8949  2.9219
  438MOL0     H59093   3.083   2.620   4.387  1.2464 -2.1028 -4.1135
  438MOL0     H59094   3.052   2.667   4.119 -1.5551 -0.4606 -0.9243
  438MOL0     H59095   2.930   2.708   4.235  1.1305 -2.3925  0.8543
  438MOL0     H59096   2.846   2.775   4.029 -0.6213  0.7890  2.9935
  438MOL0     H59097   2.902   2.925   4.081 -2.7712  0.4674 -2.8315
  438MOL0     H59098   3.118   2.909   3.951 -0.3040 -1.8783  1.3835
  438MOL0     H59099   3.071   2.747   3.904 -0.5892 -1.8666  0.0880
  438MOL0     H59100   2.947   3.016   3.824 -2.8804  0.8266 -0.4377
  438MOL0     H59101   2.849   2.867   3.812  1.3626 -3.1184 -2.4679
  438MOL0     H59102   3.025   2.746   3.694 -0.7627 -0.2221 -0.2474
  438MOL0     H59103   3.094   2.901   3.655 -1.1159 -0.2442 -0.5146
  438MOL0     H59104   2.846   2.964   3.576  1.5275  0.3738 -1.9873
  438MOL0     H59105   2.951   2.875   3.477  2.5842  0.4348  1.7479
  438MOL0     H59106   2.792   2.682   3.643 -2.6687  0.0730  1.3565
  438MOL0     H59107   2.782   2.706   3.474  1.2517  1.0559 -0.3939
  438MOL0     H59108   2.619   2.892   3.483 -0.3432 -0.8479 -0.5961
  438MOL0     H59109   2.562   2.743   3.571  1.6976 -1.2466 -2.0938
  438MOL0     H59110   3.295   2.927   4.189  2.4824 -0.1942 -0.2811
  438MOL0     H59111   3.492   2.861   4.301  1.3978 -2.0503  0.3955
  438MOL0     H59112   3.752   2.618   4.442 -0.8153 -2.6384 -0.6319
  438MOL0     H59113   3.985   2.542   4.501  0.3905  2.9294  1.0383
  438MOL0     H59114   5.445   2.968   5.083 -3.3291 -1.4094 -3.0588
  438MOL0     H59115   5.599   3.069   4.947 -0.9319 -1.0493 -0.9224
  438MOL0     H59116   5.766   3.111   4.740 -0.8240  1.3924 -0.4623
  438MOL0     H59117   5.963   3.063   4.600  0.6679  0.5008  0.9397
  438MOL0     H59118   6.062   3.364   4.344  2.9192  0.4945  0.6504
  438MOL0     H59119   5.986   3.201   4.324 -0.4248  1.4303 -2.3115
  438MOL0     H59120   6.283   3.279   4.276 -0.9020  0.5769  1.2996
  438MOL0     H59121   6.179   3.196   4.171  2.3559 -2.5859  0.0953
  438MOL0     H59122   6.186   3.002   4.340 -0.2336  0.4701  1.2063
  438MOL0     H59123   6.313   3.101   4.424  0.2564  0.7848 -1.0562
  438MOL0     H59124   6.336   2.984   4.146 -0.5909  1.1410  0.4020
  438MOL0     H59125   6.464   3.083   4.220  0.3760 -1.5495 -3.6824
  438MOL0     H59126   6.560   2.740   4.416  0.4292 -0.2245 -1.4883
  438MOL0     H59127   6.062   3.474   4.580  0.1967  2.1133 -0.2181
  438MOL0     H59128   5.761   3.588   4.788 -0.7928  0.0904 -3.1196
  438MOL0     H59129   5.933   3.596   4.848 -1.4070  4.4154 -1.0201
  438MOL0     H59130   5.896   3.631   4.685 -0.3525 -1.9104 -1.6789
  439MOL0     O59131   7.438   8.917   0.148  0.3582  0.0821 -0.4283
  439MOL0     C59132   7.440   8.808   0.203  0.4480 -0.1422  0.9363
  439MOL0     O59133   7.444   8.687   0.136  0.1059 -0.5813  0.3138
  439MOL0     C59134   7.397   8.669   0.012 -0.4126 -1.2918  0.7525
  439MOL0     C59135   7.464   8.705  -0.103  0.0368 -0.1539  0.4451
  439MOL0     C59136   7.408   8.707  -0.225  0.1879 -0.8221 -0.0134
  439MOL0     C59137   7.283   8.662  -0.237 -0.3985 -0.0659 -0.3723
  439MOL0     O59138   7.236   8.650  -0.360 -0.0020  0.4582  0.0702
  439MOL0     C59139   7.188   8.517  -0.407  0.2898 -0.1304 -0.6431
  439MOL0     C59140   7.310   8.411  -0.399  0.5936 -0.7652  0.7597
  439MOL0     C59141   7.383   8.433  -0.533  0.0306 -0.2054  0.5032
  439MOL0     C59142   7.457   8.311  -0.570 -0.3887 -0.1003 -0.5241
  439MOL0     C59143   7.500   8.298  -0.712 -0.9047 -0.5137 -0.1927
  439MOL0     C59144   7.558   8.155  -0.726  0.4818 -1.0921  0.2576
  439MOL0     C59145   7.586   8.128  -0.876  1.0987  0.2042 -0.6571
  439MOL0     C59146   7.684   8.217  -0.957  0.9106  0.0287  0.2599
  439MOL0     N59147   7.815   8.217  -0.903 -0.3622 -0.3088  0.9017
  439MOL0     C59148   7.900   8.103  -0.885 -0.0392 -0.1751 -0.1490
  439MOL0     C59149   8.005   8.165  -0.828 -1.0854  0.4809  0.1967
  439MOL0     C59150   8.106   8.091  -0.757  0.5550  0.2865 -0.2594
  439MOL0     C59151   8.239   8.075  -0.845  0.0263  0.6061  0.3490
  439MOL0     C59152   8.209   7.996  -0.971 -0.4744 -0.9279  0.1561
  439MOL0     C59153   8.336   7.992  -1.063 -0.0608 -0.0686 -0.7318
  439MOL0     O59154   8.308   7.913  -1.185 -0.0608 -0.2041 -0.3217
  439MOL0     C59155   8.393   7.928  -1.291 -1.3005  0.1048  0.5748
  439MOL0     C59156   8.517   7.994  -1.273  0.3461  0.4119  0.6645
  439MOL0     C59157   8.619   8.009  -1.373  1.0941  0.0024 -0.5243
  439MOL0     C59158   8.603   7.949  -1.498 -0.5028  0.0801 -0.5129
  439MOL0     C59159   8.708   7.963  -1.606  0.1299 -0.3874  0.2823
  439MOL0     O59160   8.698   7.863  -1.711  0.8678 -0.5953 -0.2949
  439MOL0     C59161   8.776   7.883  -1.819 -1.1971 -1.1004 -0.6897
  439MOL0     C59162   8.917   7.905  -1.803  0.4985 -0.0504 -0.3591
  439MOL0     C59163   8.984   7.936  -1.917 -0.4032  0.3127 -0.3768
  439MOL0     C59164   8.933   7.937  -2.052  1.1433  0.5884  0.0605
  439MOL0     O59165   9.003   7.944  -2.169  0.1582 -0.3935 -0.5967
  439MOL0     C59166   9.053   7.827  -2.224  0.6226  0.3447  1.6629
  439MOL0     C59167   9.011   7.816  -2.378 -0.0828 -0.3635 -0.7405
  439MOL0     C59168   9.074   7.685  -2.435 -0.7134 -0.2221  0.2809
  439MOL0     C59169   9.218   7.708  -2.487 -0.1551  0.0577 -0.1325
  439MOL0     C59170   9.261   7.577  -2.577  0.5590  0.8188  0.3401
  439MOL0     C59171   9.291   7.464  -2.478  0.5341  0.0107 -0.2083
  439MOL0     C59172   9.436   7.497  -2.420 -0.5578  0.3628 -0.7403
  439MOL0     C59173   9.486   7.385  -2.331 -0.8712 -1.2981  0.5522
  439MOL0    Cl59174   9.646   7.439  -2.256 -0.2470  0.1259 -0.4070
  439MOL0     C59175   8.798   7.898  -2.062 -0.8524  0.4493 -0.1485
  439MOL0     C59176   8.716   7.876  -1.949 -1.1155 -0.1443 -0.1247
  439MOL0     O59177   8.769   8.070  -1.607  0.9734  0.3791  0.9040
  439MOL0     C59178   8.492   7.875  -1.515  0.5492 -0.5718 -0.6261
  439MOL0     C59179   8.384   7.865  -1.423  0.2270 -0.3110  0.5613
  439MOL0     N59180   7.980   8.292  -0.793  0.2386 -0.5119  0.1466
  439MOL0     N59181   7.865   8.321  -0.834  0.3314 -0.4599  0.3332
  439MOL0     C59182   7.209   8.621  -0.130  0.1656 -0.2439  0.5294
  439MOL0     C59183   7.268   8.626  -0.005 -0.0881  0.8821  0.2542
  439MOL0     C59184   7.435   8.811   0.344 -0.4014 -0.0401  0.5773
  439MOL0     C59185   7.385   8.926   0.406 -0.4361  0.0203 -0.8655
  439MOL0     C59186   7.389   8.956   0.544 -0.1831 -0.0990  0.6490
  439MOL0     C59187   7.448   8.861   0.630 -0.9837  0.6475  0.2242
  439MOL0     O59188   7.434   8.882   0.764  0.5731  0.5213  0.1550
  439MOL0     C59189   7.315   8.817   0.821  0.5316 -0.2597 -0.3850
  439MOL0     C59190   7.333   8.672   0.886  0.2748  0.1925  0.2840
  439MOL0     C59191   7.200   8.633   0.954  0.6822 -0.1716 -0.1126
  439MOL0     C59192   7.208   8.536   1.076 -0.5542  0.1721  0.2999
  439MOL0     C59193   7.253   8.611   1.192 -0.6895 -0.6051  0.5534
  439MOL0     C59194   7.286   8.675   1.294 -0.4234  0.3018  0.6594
  439MOL0     C59195   7.484   8.736   0.575 -0.2141  0.4281  0.1096
  439MOL0     C59196   7.475   8.712   0.432  0.1410  0.9471 -0.0990
  439MOL0     C59197   7.527   8.584   0.378  0.7765 -0.7004 -0.3346
  439MOL0     H59198   7.567   8.738  -0.093  0.8494 -2.1045 -0.9170
  439MOL0     H59199   7.451   8.763  -0.307  1.6193  0.9014  1.8112
  439MOL0     H59200   7.105   8.485  -0.344  0.6819 -2.6009 -1.2985
  439MOL0     H59201   7.150   8.533  -0.508 -0.9193 -0.5708 -0.2746
  439MOL0     H59202   7.264   8.314  -0.381 -0.4211 -1.4396 -4.1954
  439MOL0     H59203   7.382   8.425  -0.317  2.4578  0.6472 -1.0040
  439MOL0     H59204   7.451   8.519  -0.530 -1.4777  1.3892 -3.7167
  439MOL0     H59205   7.312   8.457  -0.613  0.3538 -1.8261 -0.3236
  439MOL0     H59206   7.542   8.301  -0.501 -0.5331 -1.2314 -0.4773
  439MOL0     H59207   7.398   8.222  -0.544 -1.9048  0.9723 -0.1727
  439MOL0     H59208   7.410   8.315  -0.771  0.8365 -1.6173 -3.4103
  439MOL0     H59209   7.576   8.371  -0.740  1.6613 -2.9019  0.1239
  439MOL0     H59210   7.654   8.135  -0.677  1.2012 -2.8589 -1.7278
  439MOL0     H59211   7.478   8.092  -0.687  0.0009  0.9173  2.7904
  439MOL0     H59212   7.495   8.152  -0.933  0.3236 -1.1661 -0.0509
  439MOL0     H59213   7.608   8.021  -0.890 -0.0526 -0.2886  0.9792
  439MOL0     H59214   7.682   8.184  -1.061 -2.6328 -0.5675  0.3804
  439MOL0     H59215   7.642   8.318  -0.961 -0.3517 -0.5030 -0.6808
  439MOL0     H59216   7.881   7.999  -0.907 -1.3671  0.0619 -0.2138
  439MOL0     H59217   8.132   8.129  -0.658 -0.4210 -3.8465  1.7994
  439MOL0     H59218   8.060   7.997  -0.728  0.3626  0.5701  0.3749
  439MOL0     H59219   8.273   8.170  -0.887  0.1695  0.4188  0.0321
  439MOL0     H59220   8.321   8.031  -0.788  0.9112  1.9504  0.1479
  439MOL0     H59221   8.124   8.037  -1.026  0.3749 -0.1291 -0.6006
  439MOL0     H59222   8.179   7.896  -0.938  3.1014 -1.8811  0.9972
  439MOL0     H59223   8.424   7.950  -1.013  0.2354  0.1733 -1.0429
  439MOL0     H59224   8.347   8.096  -1.096 -0.4062  0.6023  1.1913
  439MOL0     H59225   8.553   8.039  -1.181 -0.4606  1.1344  0.6313
  439MOL0     H59226   8.714   8.058  -1.355  3.0553 -2.3133 -3.4723
  439MOL0     H59227   8.972   7.897  -1.709 -1.6993 -0.0719  0.9974
  439MOL0     H59228   9.091   7.947  -1.904  0.3000 -4.6065  0.0098
  439MOL0     H59229   9.161   7.843  -2.225  0.6185  0.8202 -1.9065
  439MOL0     H59230   9.013   7.742  -2.167  1.2938 -0.5908  0.7556
  439MOL0     H59231   8.902   7.815  -2.374 -0.5636  5.8944 -1.6602
  439MOL0     H59232   9.026   7.907  -2.438  2.0299 -1.0691 -1.3650
  439MOL0     H59233   9.071   7.607  -2.357  2.5766  1.5927  2.4387
  439MOL0     H59234   9.025   7.655  -2.528  1.4113  1.6983 -1.5641
  439MOL0     H59235   9.289   7.725  -2.406  0.3270 -0.7001 -0.3918
  439MOL0     H59236   9.216   7.796  -2.553 -1.1220  1.3957  1.6081
  439MOL0     H59237   9.338   7.613  -2.646 -3.0293  4.3386 -2.3833
  439MOL0     H59238   9.178   7.542  -2.640 -0.4296 -2.4952  3.2220
  439MOL0     H59239   9.204   7.467  -2.412 -1.5043  5.1757 -2.5384
  439MOL0     H59240   9.292   7.365  -2.525  1.9275  0.8076 -1.9939
  439MOL0     H59241   9.437   7.590  -2.363 -0.0198 -0.3843  0.4900
  439MOL0     H59242   9.500   7.528  -2.504  1.8167 -1.6034  0.2193
  439MOL0     H59243   9.420   7.362  -2.247  0.3116 -1.9237  1.3291
  439MOL0     H59244   9.484   7.297  -2.397 -5.5817 -1.3925  0.4914
  439MOL0     H59245   8.741   7.890  -2.154  0.3707  3.4679 -1.2947
  439MOL0     H59246   8.610   7.860  -1.960 -1.0717 -0.5711  0.0655
  439MOL0     H59247   8.490   7.818  -1.608  0.8244 -1.8353  0.1146
  439MOL0     H59248   8.291   7.818  -1.454  0.0856  0.4413 -0.1697
  439MOL0     H59249   7.108   8.581  -0.131 -0.7815  1.8770 -2.2472
  439MOL0     H59250   7.211   8.602   0.084 -1.7409 -2.5010 -1.5172
  439MOL0     H59251   7.331   9.006   0.358 -0.4443 -0.7729 -2.2323
  439MOL0     H59252   7.328   9.038   0.581 -0.9680 -1.0276  1.4715
  439MOL0     H59253   7.231   8.821   0.751  1.4740  5.2110 -1.7173
  439MOL0     H59254   7.284   8.887   0.899 -1.3744 -0.5110 -0.8752
  439MOL0     H59255   7.420   8.685   0.951  3.2172 -2.2336 -2.7601
  439MOL0     H59256   7.356   8.594   0.813  1.5714  0.7899  0.0427
  439MOL0     H59257   7.125   8.592   0.886 -0.1423 -1.2039  1.3500
  439MOL0     H59258   7.151   8.721   0.995  1.8441  0.2794  0.3417
  439MOL0     H59259   7.112   8.487   1.091  0.4305 -2.2572 -0.7564
  439MOL0     H59260   7.281   8.458   1.052 -4.6309 -4.2311  0.6506
  439MOL0     H59261   7.329   8.724   1.379 -1.8498  4.8016 -0.9541
  439MOL0     H59262   7.526   8.652   0.629  1.0307  1.7550  1.2934
  439MOL0     H59263   7.545   8.517   0.463 -0.6333  0.6297  1.0868
  439MOL0     H59264   7.467   8.524   0.309 -1.0730  1.8275 -1.0933
  439MOL0     H59265   7.618   8.616   0.326  0.5263  0.9626  0.1820
  440MOL0     O59266   3.137   7.985   0.010 -0.3410 -0.2324  0.9134
  440MOL0     C59267   3.097   7.892  -0.060  0.1781 -0.2756  0.1692
  440MOL0     O59268   3.140   7.759  -0.044  0.3155  0.4963  0.4198
  440MOL0     C59269   3.200   7.716   0.071  0.7983  0.1085  0.1574
  440MOL0     C59270   3.194   7.777   0.198  0.2620 -0.5166 -1.1129
  440MOL0     C59271   3.270   7.722   0.306  0.4052  0.5935 -1.3190
  440MOL0     C59272   3.341   7.602   0.290  0.4729  0.6704 -0.5363
  440MOL0     O59273   3.424   7.557   0.392 -0.0037  0.3526  0.0173
  440MOL0     C59274   3.429   7.409   0.398 -0.5108 -0.2563 -0.1270
  440MOL0     C59275   3.485   7.366   0.532  0.3002 -0.8915 -0.7363
  440MOL0     C59276   3.643   7.358   0.540 -0.2573  1.2149  0.5128
  440MOL0     C59277   3.705   7.218   0.516 -0.7462 -0.4013  0.1598
  440MOL0     C59278   3.861   7.229   0.495  0.0320  0.5196  1.0340
  440MOL0     C59279   3.937   7.298   0.605  0.9260 -0.2731 -0.6971
  440MOL0     C59280   4.090   7.261   0.595  0.1229 -0.1518  0.5574
  440MOL0     C59281   4.159   7.356   0.699  0.1803  0.0949  0.4398
  440MOL0     N59282   4.298   7.310   0.727 -0.3998 -0.2372  0.0552
  440MOL0     C59283   4.357   7.302   0.849 -0.3975 -0.4989  1.4853
  440MOL0     C59284   4.481   7.254   0.829  0.1477 -0.3005 -0.3892
  440MOL0     C59285   4.573   7.236   0.953  0.2072  0.0997 -0.6393
  440MOL0     C59286   4.547   7.131   1.047  0.3372  0.5121 -0.0295
  440MOL0     C59287   4.574   6.980   1.002 -0.4423  0.4005 -0.0817
  440MOL0     C59288   4.582   6.876   1.106 -0.3912  0.3472 -0.3910
  440MOL0     O59289   4.680   6.934   1.197  0.4523  0.7232  0.5090
  440MOL0     C59290   4.705   6.871   1.319  0.6539  0.1421 -0.5757
  440MOL0     C59291   4.806   6.927   1.397 -0.3840  0.8408  1.0311
  440MOL0     C59292   4.856   6.885   1.522  0.2302  0.7380  0.2489
  440MOL0     C59293   4.778   6.776   1.575 -0.7842 -0.0921  0.5301
  440MOL0     C59294   4.797   6.731   1.720  0.5510  0.3608  0.2958
  440MOL0     O59295   4.708   6.637   1.773 -0.2863  0.0328 -0.3314
  440MOL0     C59296   4.733   6.549   1.875 -0.3992  0.1592 -0.4112
  440MOL0     C59297   4.616   6.486   1.922 -0.3083 -0.2492  0.6932
  440MOL0     C59298   4.642   6.370   2.002  0.6845  0.0131 -0.8928
  440MOL0     C59299   4.765   6.325   2.047 -0.5901 -0.5183  0.4119
  440MOL0     O59300   4.761   6.213   2.123 -0.8980 -0.3364 -0.6655
  440MOL0     C59301   4.883   6.166   2.174  0.0148  0.1389  0.0085
  440MOL0     C59302   4.935   6.072   2.067 -0.2033  1.3044 -1.4915
  440MOL0     C59303   4.860   5.941   2.068  0.1446 -0.0859 -0.2116
  440MOL0     C59304   4.907   5.859   1.951  0.3420 -0.4185  0.4363
  440MOL0     C59305   4.864   5.716   1.960  0.9301 -0.2137 -0.0016
  440MOL0     C59306   4.728   5.695   1.890  0.0604 -0.1544 -0.8875
  440MOL0     C59307   4.714   5.541   1.874  0.0315 -0.4083  0.5066
  440MOL0     C59308   4.587   5.516   1.788 -0.2454 -0.7772 -0.2052
  440MOL0    Cl59309   4.426   5.578   1.860 -0.0963 -0.0674  0.4227
  440MOL0     C59310   4.878   6.393   1.994 -0.3374 -0.3176 -0.3708
  440MOL0     C59311   4.857   6.509   1.913 -0.0152  1.0704  0.3157
  440MOL0     O59312   4.911   6.756   1.763 -0.3274  1.1724 -0.0930
  440MOL0     C59313   4.684   6.715   1.492  1.1500  0.8219  1.3709
  440MOL0     C59314   4.645   6.759   1.366 -0.5370  0.6307 -0.5862
  440MOL0     N59315   4.502   7.234   0.692  0.6353 -0.1082 -0.5218
  440MOL0     N59316   4.386   7.264   0.642 -0.0118 -0.4057 -0.4210
  440MOL0     C59317   3.343   7.541   0.166  0.6142  0.3793 -0.7503
  440MOL0     C59318   3.273   7.596   0.061 -0.1279 -0.9605  0.1709
  440MOL0     C59319   3.026   7.927  -0.187 -0.1676  0.0477 -0.0527
  440MOL0     C59320   2.895   7.886  -0.198  0.4764  0.0326  0.6508
  440MOL0     C59321   2.811   7.929  -0.307 -0.4225  0.4493 -0.3573
  440MOL0     C59322   2.865   8.003  -0.407 -0.3700  0.5297  0.0502
  440MOL0     O59323   2.779   8.034  -0.507 -1.1513  0.7451  0.2124
  440MOL0     C59324   2.837   8.052  -0.636 -0.0911 -0.2539  0.7885
  440MOL0     C59325   2.876   7.919  -0.713 -0.3108 -0.5765  0.3820
  440MOL0     C59326   2.975   7.958  -0.826 -0.7487  0.1339 -1.0554
  440MOL0     C59327   2.949   7.852  -0.942 -0.2105 -0.2399 -0.3261
  440MOL0     C59328   3.061   7.852  -1.039  0.3611 -0.0997  0.3646
  440MOL0     C59329   3.151   7.880  -1.123 -0.1067 -0.7909 -0.0569
  440MOL0     C59330   2.996   8.047  -0.396 -0.4654  0.1868  0.2471
  440MOL0     C59331   3.079   8.015  -0.286 -0.7762  0.2111 -0.8593
  440MOL0     C59332   3.211   8.089  -0.259  0.9239 -0.3987  0.7733
  440MOL0     H59333   3.160   7.879   0.216  2.2757 -0.1448  1.1279
  440MOL0     H59334   3.270   7.764   0.406 -0.5039  3.4964 -2.4550
  440MOL0     H59335   3.332   7.363   0.379 -1.0883  1.6465 -2.3203
  440MOL0     H59336   3.505   7.377   0.326 -0.1972  2.0809 -0.9298
  440MOL0     H59337   3.445   7.275   0.578 -0.8973  0.5964  1.3342
  440MOL0     H59338   3.450   7.448   0.595  2.0259  1.6427 -2.8570
  440MOL0     H59339   3.666   7.404   0.637 -1.3173 -0.8654  1.8241
  440MOL0     H59340   3.681   7.424   0.461 -0.5467  0.0819 -0.5960
  440MOL0     H59341   3.674   7.147   0.594 -3.1579  0.9377  0.5281
  440MOL0     H59342   3.661   7.177   0.425 -0.3654 -1.4194  0.4136
  440MOL0     H59343   3.899   7.128   0.477 -0.1570  0.8982 -1.8683
  440MOL0     H59344   3.883   7.284   0.403 -0.8567  2.0089  1.6788
  440MOL0     H59345   3.911   7.402   0.585  1.1397  0.2980  1.6902
  440MOL0     H59346   3.897   7.291   0.706 -3.7527  1.3520 -2.1775
  440MOL0     H59347   4.126   7.271   0.492 -4.3312 -1.7766 -1.3723
  440MOL0     H59348   4.089   7.156   0.626 -2.1383 -0.0859  0.8282
  440MOL0     H59349   4.182   7.457   0.663  0.3148 -0.1725 -0.2462
  440MOL0     H59350   4.101   7.358   0.791 -2.3774 -2.9237 -0.9392
  440MOL0     H59351   4.315   7.333   0.944 -0.5394  2.2341  0.6009
  440MOL0     H59352   4.675   7.209   0.924 -0.7476 -3.3683 -1.2794
  440MOL0     H59353   4.581   7.338   0.990 -2.7141  0.5808 -1.0654
  440MOL0     H59354   4.607   7.158   1.134  1.0919  5.2681 -1.7218
  440MOL0     H59355   4.442   7.143   1.076  0.9847  2.9714  1.6078
  440MOL0     H59356   4.671   6.979   0.950 -0.1306  4.3796  0.1745
  440MOL0     H59357   4.497   6.953   0.929  1.1630  0.7529 -2.0164
  440MOL0     H59358   4.620   6.781   1.067  1.2832  0.5038  0.7255
  440MOL0     H59359   4.484   6.856   1.151 -0.3574 -0.0090 -0.4715
  440MOL0     H59360   4.862   6.999   1.338 -2.3724  2.0769  0.5358
  440MOL0     H59361   4.938   6.925   1.580 -1.6214  0.6017  3.1650
  440MOL0     H59362   4.521   6.514   1.879  1.1184  1.2864 -1.6600
  440MOL0     H59363   4.558   6.325   2.054  0.3317  1.6746  0.0482
  440MOL0     H59364   4.953   6.248   2.194 -1.5726  1.0306  2.3288
  440MOL0     H59365   4.872   6.109   2.266  1.1279 -2.6291 -1.4631
  440MOL0     H59366   4.936   6.130   1.974 -0.4434  3.3426 -0.2649
  440MOL0     H59367   5.042   6.058   2.085 -0.7113  0.9882  1.7383
  440MOL0     H59368   4.885   5.881   2.156 -0.6696  0.3010  0.2960
  440MOL0     H59369   4.752   5.960   2.068 -0.0589 -1.1707  0.1950
  440MOL0     H59370   5.016   5.858   1.951  0.3532  0.0622 -0.3098
  440MOL0     H59371   4.871   5.912   1.862 -1.5940  0.1425  1.4972
  440MOL0     H59372   4.853   5.692   2.066 -1.3391  1.3548  0.1803
  440MOL0     H59373   4.942   5.661   1.907  2.0171 -1.1366  2.3846
  440MOL0     H59374   4.650   5.732   1.956  0.7324 -0.0094 -0.1539
  440MOL0     H59375   4.719   5.736   1.789  0.8982 -0.6218 -1.1658
  440MOL0     H59376   4.693   5.493   1.970 -0.3060 -1.6170 -0.1431
  440MOL0     H59377   4.807   5.504   1.830  0.0868  1.8984 -1.5320
  440MOL0     H59378   4.603   5.577   1.698  3.4258 -2.0009 -0.5593
  440MOL0     H59379   4.578   5.410   1.765 -0.4509 -0.5348 -1.3337
  440MOL0     H59380   4.983   6.366   1.995  0.2774  1.7703  1.9453
  440MOL0     H59381   4.949   6.549   1.872  1.6360 -0.5157  2.2349
  440MOL0     H59382   4.633   6.625   1.525  0.8333 -1.1147 -3.5861
  440MOL0     H59383   4.570   6.713   1.303 -1.0289 -1.5624  1.4474
  440MOL0     H59384   3.398   7.452   0.136  2.0741  1.2554 -0.7590
  440MOL0     H59385   3.289   7.549  -0.036 -0.5786 -3.1924  1.1063
  440MOL0     H59386   2.860   7.819  -0.119  2.1466 -0.1696  1.2668
  440MOL0     H59387   2.705   7.905  -0.305  0.3555 -3.7990  0.4094
  440MOL0     H59388   2.929   8.111  -0.632 -0.9713  1.3492 -1.1189
  440MOL0     H59389   2.769   8.112  -0.696  2.2118  2.2909  0.5431
  440MOL0     H59390   2.781   7.878  -0.748 -0.7023  0.2413  0.4645
  440MOL0     H59391   2.927   7.847  -0.648  1.6775 -1.3931 -1.9351
  440MOL0     H59392   3.078   7.960  -0.789 -1.1606 -1.1971  0.2668
  440MOL0     H59393   2.955   8.055  -0.872 -0.3633  0.6862 -0.0979
  440MOL0     H59394   2.926   7.757  -0.894 -0.1393  1.3730  3.2574
  440MOL0     H59395   2.860   7.876  -1.002  0.1132  2.1209  0.0161
  440MOL0     H59396   3.231   7.918  -1.184 -1.2321  0.8333 -0.5994
  440MOL0     H59397   3.043   8.124  -0.457  0.6782 -0.6299  0.0542
  440MOL0     H59398   3.286   8.010  -0.251 -0.4581 -2.0990 -1.6974
  440MOL0     H59399   3.240   8.140  -0.351  0.3952 -3.5946 -1.3630
  440MOL0     H59400   3.210   8.149  -0.168 -3.0071 -1.0575  1.3703
  441MOL0     O59401   2.955   9.992   8.606 -0.1079  0.9701  0.0564
  441MOL0     C59402   3.060  10.038   8.573  0.4264 -0.1453 -0.1058
  441MOL0     O59403   3.155  10.087   8.645 -0.5284 -0.2315 -0.1853
  441MOL0     C59404   3.119  10.122   8.774 -1.0663 -0.4706  0.3989
  441MOL0     C59405   3.134  10.256   8.814  0.3709 -0.3082  0.2994
  441MOL0     C59406   3.083  10.297   8.933 -0.2833 -0.2066  0.2369
  441MOL0     C59407   3.023  10.213   9.020  0.5632  0.5832  0.1297
  441MOL0     O59408   2.971  10.255   9.137  0.2150  1.3771 -0.4767
  441MOL0     C59409   2.975  10.399   9.170  0.1001  0.1385  0.3283
  441MOL0     C59410   3.114  10.405   9.232 -0.0847  0.1603 -0.5050
  441MOL0     C59411   3.141  10.539   9.292  0.2681  0.6391 -0.0872
  441MOL0     C59412   3.293  10.538   9.333  0.4566 -0.2676  0.7355
  441MOL0     C59413   3.343  10.641   9.432 -0.6123 -0.1026 -0.9964
  441MOL0     C59414   3.371  10.781   9.373  0.0197 -0.1424  0.9680
  441MOL0     C59415   3.508  10.815   9.314  0.6557 -1.2337  0.0714
  441MOL0     C59416   3.505  10.919   9.191 -0.8772  0.1663  0.1903
  441MOL0     N59417   3.430  11.042   9.226  0.0319  0.7562  0.9090
  441MOL0     C59418   3.469  11.125   9.330  0.0506  1.1946  0.6126
  441MOL0     C59419   3.401  11.237   9.298 -0.3445 -0.4573  0.1255
  441MOL0     C59420   3.391  11.355   9.396 -0.5068 -0.2920  0.0111
  441MOL0     C59421   3.527  11.439   9.371  0.5092  0.5217 -0.8438
  441MOL0     C59422   3.534  11.554   9.476  0.0775 -0.9631  1.2453
  441MOL0     C59423   3.669  11.615   9.500  0.8016 -0.1955  0.4345
  441MOL0     O59424   3.697  11.723   9.404 -0.3190  0.3324 -1.1658
  441MOL0     C59425   3.752  11.672   9.290  0.1000  2.1134  0.0249
  441MOL0     C59426   3.881  11.611   9.299  0.3810  0.5711 -0.0936
  441MOL0     C59427   3.954  11.579   9.187  0.8046  0.4646  0.2028
  441MOL0     C59428   3.889  11.592   9.061  0.1410 -0.1477  1.1587
  441MOL0     C59429   3.967  11.565   8.940 -0.3275  0.0236  0.7052
  441MOL0     O59430   4.107  11.567   8.951  0.3785  0.5597 -0.3114
  441MOL0     C59431   4.177  11.571   8.835 -0.1705 -0.0202 -0.2922
  441MOL0     C59432   4.243  11.460   8.787  0.5568  0.0460 -0.7391
  441MOL0     C59433   4.324  11.468   8.671  1.3949  0.6221  0.0292
  441MOL0     C59434   4.324  11.588   8.599  0.2793  0.3877  0.7933
  441MOL0     O59435   4.387  11.596   8.478 -0.6800 -0.0278  0.4672
  441MOL0     C59436   4.344  11.520   8.362 -0.3454 -0.1686 -0.5352
  441MOL0     C59437   4.452  11.527   8.249  0.8546  0.0024 -0.1519
  441MOL0     C59438   4.578  11.444   8.263 -0.3502  0.6744  0.5501
  441MOL0     C59439   4.669  11.489   8.152 -0.1149  0.3507  0.1967
  441MOL0     C59440   4.786  11.395   8.111  0.1338  0.2457  0.4420
  441MOL0     C59441   4.889  11.354   8.221  0.1407  0.8142  0.6312
  441MOL0     C59442   4.978  11.469   8.269 -0.3812  0.9680  0.1572
  441MOL0     C59443   5.088  11.486   8.162  0.1776 -0.2781  0.0057
  441MOL0    Cl59444   5.218  11.590   8.218 -0.2603  0.0732  0.4932
  441MOL0     C59445   4.253  11.699   8.642 -0.4341  0.5443  0.0429
  441MOL0     C59446   4.184  11.694   8.762  1.6935  0.3249 -0.7913
  441MOL0     O59447   3.904  11.552   8.835  0.1336  1.3595 -0.3462
  441MOL0     C59448   3.751  11.637   9.048 -0.4556  0.1156 -0.5941
  441MOL0     C59449   3.691  11.680   9.162  0.4369  0.1210 -0.6367
  441MOL0     N59450   3.318  11.222   9.187 -0.0716 -0.3175  0.0629
  441MOL0     N59451   3.339  11.104   9.147 -0.5596  0.2600 -0.2548
  441MOL0     C59452   3.020  10.077   8.988 -0.4426 -0.5817  0.5195
  441MOL0     C59453   3.075  10.036   8.873 -0.5976 -0.7464 -0.0526
  441MOL0     C59454   3.079  10.058   8.431 -0.3114 -0.9928 -1.0991
  441MOL0     C59455   3.122  10.181   8.382 -0.2103 -0.1380 -0.1911
  441MOL0     C59456   3.173  10.197   8.253  0.1740 -0.8178  0.5631
  441MOL0     C59457   3.166  10.101   8.159  0.6487  0.2632  0.1494
  441MOL0     O59458   3.222  10.111   8.036  0.0599  0.6320  0.4589
  441MOL0     C59459   3.321  10.202   8.009  0.1904 -0.0112  0.9927
  441MOL0     C59460   3.336  10.201   7.852  0.5764 -0.6167 -0.8518
  441MOL0     C59461   3.221  10.278   7.791 -0.5757  0.5163  0.6504
  441MOL0     C59462   3.198  10.250   7.644  0.7595  0.1643 -0.6925
  441MOL0     C59463   3.308  10.280   7.555  0.6683  0.7734  0.2236
  441MOL0     C59464   3.387  10.306   7.470  0.0710 -1.3584  0.3036
  441MOL0     C59465   3.108   9.981   8.205 -0.5716  0.2836 -0.7053
  441MOL0     C59466   3.050   9.960   8.332 -0.3822 -0.0279 -0.1653
  441MOL0     C59467   2.979   9.822   8.367  0.5596  0.6927  0.1901
  441MOL0     H59468   3.165  10.327   8.737 -4.6995  1.2832 -0.6308
  441MOL0     H59469   3.090  10.404   8.945  0.8302 -0.1375 -0.8349
  441MOL0     H59470   2.972  10.472   9.089 -2.3329 -2.7474 -2.4201
  441MOL0     H59471   2.897  10.426   9.241  0.8707  1.2272  0.7998
  441MOL0     H59472   3.186  10.370   9.158 -0.6007  0.9417 -1.3941
  441MOL0     H59473   3.135  10.330   9.309 -1.7269  1.3760  1.2353
  441MOL0     H59474   3.075  10.544   9.380  1.9614  2.0448  1.1588
  441MOL0     H59475   3.114  10.618   9.221 -1.7898 -0.2972 -0.4245
  441MOL0     H59476   3.322  10.436   9.359 -0.9429 -0.8549  0.0854
  441MOL0     H59477   3.346  10.561   9.240  0.8531 -1.6116  0.6026
  441MOL0     H59478   3.263  10.640   9.507 -0.8506 -1.6216 -1.2446
  441MOL0     H59479   3.434  10.607   9.482 -1.6809  1.0983  1.9662
  441MOL0     H59480   3.303  10.801   9.290  1.5276  1.2824  0.0187
  441MOL0     H59481   3.340  10.856   9.447 -3.2047  0.3709 -0.7040
  441MOL0     H59482   3.556  10.720   9.289  2.0817 -1.3870  2.9915
  441MOL0     H59483   3.574  10.867   9.384 -1.2719 -1.2768  1.9911
  441MOL0     H59484   3.608  10.948   9.166 -0.2934 -0.4341  1.7233
  441MOL0     H59485   3.462  10.868   9.105  1.2368 -0.2795 -0.6560
  441MOL0     H59486   3.546  11.112   9.406  1.4718 -2.2977 -1.1971
  441MOL0     H59487   3.302  11.411   9.368  0.6540  1.5329 -0.1929
  441MOL0     H59488   3.383  11.306   9.493  3.9095 -2.3055 -0.3544
  441MOL0     H59489   3.611  11.371   9.387 -1.4875 -2.4422 -2.0678
  441MOL0     H59490   3.530  11.479   9.269  3.6067 -0.5901 -1.2794
  441MOL0     H59491   3.507  11.517   9.575 -1.0589 -0.3120  1.1941
  441MOL0     H59492   3.476  11.639   9.438  1.0398 -1.5981 -2.0090
  441MOL0     H59493   3.735  11.529   9.497  1.6031  0.2354 -5.1446
  441MOL0     H59494   3.673  11.658   9.600  2.5602 -1.9427  1.1740
  441MOL0     H59495   3.931  11.599   9.395  1.8998  0.2700 -0.8954
  441MOL0     H59496   4.058  11.549   9.195  1.3440  1.5338 -1.9445
  441MOL0     H59497   4.225  11.371   8.847 -1.3778  0.0155 -1.2921
  441MOL0     H59498   4.393  11.393   8.631 -1.4900  0.8248 -6.7023
  441MOL0     H59499   4.336  11.413   8.383 -2.5528  0.2626  1.2639
  441MOL0     H59500   4.250  11.552   8.316 -1.5912  0.6304  2.3244
  441MOL0     H59501   4.400  11.496   8.158 -0.5006  1.7276 -0.0215
  441MOL0     H59502   4.477  11.632   8.231  2.0202 -0.4868 -1.4875
  441MOL0     H59503   4.632  11.451   8.358 -0.5299  0.9638  0.6311
  441MOL0     H59504   4.560  11.337   8.247 -2.0949  0.5123  3.0102
  441MOL0     H59505   4.711  11.574   8.207  2.9224  0.0100 -1.4063
  441MOL0     H59506   4.622  11.527   8.061  3.2996  1.9110 -1.0691
  441MOL0     H59507   4.839  11.448   8.031 -1.8241  1.5375 -0.0857
  441MOL0     H59508   4.726  11.308   8.080 -2.8168  2.3723 -0.2921
  441MOL0     H59509   4.836  11.312   8.307  1.6629 -0.1561  1.1179
  441MOL0     H59510   4.954  11.273   8.187 -0.0517 -0.7443  3.6564
  441MOL0     H59511   5.008  11.448   8.372 -0.4401  1.5127  0.2901
  441MOL0     H59512   4.914  11.558   8.264 -0.6109  0.8743  1.2610
  441MOL0     H59513   5.137  11.391   8.141  1.4604  1.0447 -3.7979
  441MOL0     H59514   5.051  11.538   8.073 -1.6478  2.7211  2.3080
  441MOL0     H59515   4.248  11.798   8.596  2.7938 -0.4700 -2.9665
  441MOL0     H59516   4.130  11.782   8.796  2.4517 -0.4850  3.1033
  441MOL0     H59517   3.701  11.634   8.952  1.7364 -0.6154 -1.7956
  441MOL0     H59518   3.590  11.719   9.150  1.3603  3.3103  0.9515
  441MOL0     H59519   2.994   9.997   9.057  0.4444 -0.5651  0.8978
  441MOL0     H59520   3.068   9.929   8.863  0.0085 -1.1963  3.2979
  441MOL0     H59521   3.139  10.260   8.454 -2.8685 -0.0529  0.4760
  441MOL0     H59522   3.227  10.287   8.225 -1.8634 -0.1732 -1.6495
  441MOL0     H59523   3.420  10.170   8.042  1.5183 -1.8956 -3.9861
  441MOL0     H59524   3.300  10.305   8.041  3.4855  1.3141 -0.6643
  441MOL0     H59525   3.337  10.099   7.813 -5.7059 -1.4642  0.2639
  441MOL0     H59526   3.431  10.247   7.821 -0.1239  0.6676 -1.1504
  441MOL0     H59527   3.227  10.383   7.820 -0.4190 -0.0122  2.6796
  441MOL0     H59528   3.138  10.220   7.833 -0.7104  1.2041  1.3512
  441MOL0     H59529   3.189  10.141   7.634  0.4305  0.3513 -3.3709
  441MOL0     H59530   3.102  10.299   7.625  0.0564 -0.9331 -0.1295
  441MOL0     H59531   3.455  10.340   7.395 -1.6203  1.3649 -0.1491
  441MOL0     H59532   3.092   9.901   8.133 -1.5504 -1.0989  0.9514
  441MOL0     H59533   3.051   9.758   8.418 -0.0814 -0.3279 -0.1536
  441MOL0     H59534   2.895   9.837   8.436 -0.6199 -0.5046 -0.9327
  441MOL0     H59535   2.933   9.778   8.278 -1.9789 -1.0835  2.2225
  442MOL0     O59536   7.117   0.347   2.792 -0.6934  0.3791  0.6960
  442MOL0     C59537   7.102   0.354   2.914 -0.2416  0.1885  0.6386
  442MOL0     O59538   7.203   0.365   3.011 -0.5847  0.3134 -0.1312
  442MOL0     C59539   7.320   0.415   2.968  0.4979 -0.2021 -0.0371
  442MOL0     C59540   7.406   0.323   2.901  0.4007  0.2324 -0.4024
  442MOL0     C59541   7.535   0.366   2.875  0.0298 -0.6680 -0.1802
  442MOL0     C59542   7.573   0.497   2.909  0.7058 -0.2666 -0.2049
  442MOL0     O59543   7.699   0.549   2.885 -0.7280 -0.1417  0.9204
  442MOL0     C59544   7.760   0.514   2.764  0.6129 -0.6854 -0.4434
  442MOL0     C59545   7.904   0.579   2.752  0.3366  0.1697  0.5564
  442MOL0     C59546   7.886   0.740   2.725 -0.7268 -0.2354 -1.2802
  442MOL0     C59547   8.028   0.813   2.725  0.4018  0.6061 -0.2224
  442MOL0     C59548   8.094   0.814   2.581  0.4428  0.2788 -0.9544
  442MOL0     C59549   8.242   0.872   2.610 -0.1229  0.0304  0.9436
  442MOL0     C59550   8.313   0.936   2.494  0.5134 -0.7456  0.5861
  442MOL0     C59551   8.313   0.853   2.376 -0.7786 -0.4939  0.0583
  442MOL0     N59552   8.373   0.919   2.259  0.0587  0.5257 -0.0802
  442MOL0     C59553   8.507   0.930   2.224  0.3801 -0.2700  0.9448
  442MOL0     C59554   8.503   1.015   2.117 -0.3571 -0.1907  0.3134
  442MOL0     C59555   8.618   1.047   2.019  0.2999  0.0112  0.2673
  442MOL0     C59556   8.757   1.082   2.092 -0.0720  0.6434  0.5053
  442MOL0     C59557   8.860   1.092   1.978  0.2152 -0.0182 -0.2845
  442MOL0     C59558   8.982   1.153   2.040 -0.9821 -0.5911 -0.3899
  442MOL0     O59559   9.000   1.114   2.177 -0.7759 -0.6637  0.1483
  442MOL0     C59560   8.993   1.213   2.276  0.7658  0.0017 -0.4750
  442MOL0     C59561   9.047   1.336   2.245 -0.5986  0.5415 -0.8101
  442MOL0     C59562   9.061   1.441   2.343 -0.1528 -0.2919 -0.6850
  442MOL0     C59563   9.019   1.415   2.475  0.1392 -0.0861 -0.1940
  442MOL0     C59564   9.013   1.512   2.579  0.3935  0.6173 -0.3742
  442MOL0     O59565   8.992   1.480   2.708 -0.2713  0.4778  0.2273
  442MOL0     C59566   9.037   1.569   2.806  0.4965 -0.0438  0.5086
  442MOL0     C59567   9.176   1.616   2.817  0.4870 -0.2773  0.6607
  442MOL0     C59568   9.220   1.694   2.927  0.0036  0.2995  1.1673
  442MOL0     C59569   9.123   1.749   3.014  0.4441 -0.7611 -0.0455
  442MOL0     O59570   9.140   1.840   3.118  0.0641 -0.5875 -0.1272
  442MOL0     C59571   9.215   1.792   3.225 -0.5183  0.9408  0.1521
  442MOL0     C59572   9.136   1.786   3.356 -0.5772  0.4361 -0.8422
  442MOL0     C59573   9.055   1.646   3.367 -0.0115 -0.5826  0.4794
  442MOL0     C59574   9.016   1.634   3.517 -0.8647 -0.7246 -0.4518
  442MOL0     C59575   8.948   1.756   3.582 -0.5403  0.2274 -1.0323
  442MOL0     C59576   8.925   1.758   3.734 -0.2427  0.1300 -0.0750
  442MOL0     C59577   8.888   1.905   3.777  0.4526 -0.5218 -0.0724
  442MOL0     C59578   9.017   1.962   3.842  0.4832 -0.4955  0.2163
  442MOL0    Cl59579   9.049   1.878   4.003 -0.0824 -0.1019  0.2061
  442MOL0     C59580   8.984   1.700   2.998 -0.3440 -0.0104  0.2656
  442MOL0     C59581   8.942   1.618   2.892  1.1155  0.1832 -0.0864
  442MOL0     O59582   9.041   1.627   2.542  0.8519 -0.5182 -0.0059
  442MOL0     C59583   8.994   1.283   2.502  1.2547 -0.3632 -0.4856
  442MOL0     C59584   8.962   1.183   2.410  0.3972 -0.5995 -1.3110
  442MOL0     N59585   8.367   1.041   2.085  0.7627  0.3009 -0.1197
  442MOL0     N59586   8.292   0.993   2.173  2.0757  0.9624 -0.3927
  442MOL0     C59587   7.480   0.585   2.973 -0.6942  0.8844  0.2576
  442MOL0     C59588   7.357   0.545   3.006  0.5698 -0.2424  0.9948
  442MOL0     C59589   6.966   0.384   2.950  1.0524  0.7485 -0.0149
  442MOL0     C59590   6.891   0.477   2.884  0.0265 -0.7216  0.2981
  442MOL0     C59591   6.760   0.513   2.934  0.3483 -0.4016 -0.1036
  442MOL0     C59592   6.698   0.455   3.045 -1.3473 -0.1347 -0.2475
  442MOL0     O59593   6.572   0.493   3.084 -0.1298  0.0534 -0.2597
  442MOL0     C59594   6.483   0.389   3.026  0.1240 -0.3369  0.1943
  442MOL0     C59595   6.342   0.450   2.995 -0.5739 -1.3303  0.7096
  442MOL0     C59596   6.343   0.554   2.877 -0.3700  0.2513  0.4256
  442MOL0     C59597   6.203   0.607   2.842 -0.6981  0.2141  0.4573
  442MOL0     C59598   6.105   0.494   2.821 -0.0155 -0.3756 -0.5714
  442MOL0     C59599   6.021   0.406   2.817 -0.3879 -0.1022 -0.2999
  442MOL0     C59600   6.786   0.364   3.119  0.8965  0.7172  1.0906
  442MOL0     C59601   6.909   0.327   3.064  0.7680 -1.1212 -0.5768
  442MOL0     C59602   6.984   0.222   3.155 -0.0746  0.0558  0.0319
  442MOL0     H59603   7.384   0.230   2.850  1.7646 -0.1541 -0.3399
  442MOL0     H59604   7.599   0.288   2.835 -1.6990 -1.6859 -1.0910
  442MOL0     H59605   7.769   0.406   2.751  1.8151 -1.1698  3.2986
  442MOL0     H59606   7.698   0.550   2.681  0.7289  0.8890  0.1189
  442MOL0     H59607   7.958   0.520   2.677  2.3078  0.4516  1.6921
  442MOL0     H59608   7.966   0.572   2.842  1.2659  1.2567  0.0225
  442MOL0     H59609   7.824   0.783   2.804  0.7169  0.0636 -0.2718
  442MOL0     H59610   7.852   0.750   2.621  1.5853  2.4237 -1.8971
  442MOL0     H59611   7.999   0.916   2.750  1.1760  1.2645 -1.9199
  442MOL0     H59612   8.095   0.774   2.802  2.3963 -0.2476 -2.2979
  442MOL0     H59613   8.096   0.708   2.552  0.5978  0.0709 -0.2306
  442MOL0     H59614   8.039   0.864   2.502 -3.7274  0.3629  1.6989
  442MOL0     H59615   8.238   0.944   2.692  1.1649  0.6220  0.5122
  442MOL0     H59616   8.300   0.783   2.636  2.1327  1.1907  0.2059
  442MOL0     H59617   8.402   0.982   2.537 -0.9763  1.8891  1.0358
  442MOL0     H59618   8.268   1.033   2.472 -0.7764 -1.5353 -0.4804
  442MOL0     H59619   8.355   0.755   2.402  1.1742  0.1275 -0.5496
  442MOL0     H59620   8.210   0.846   2.341 -0.1973  0.3212 -2.0037
  442MOL0     H59621   8.594   0.881   2.266 -0.0307 -3.8763 -1.9461
  442MOL0     H59622   8.624   0.961   1.951  3.5102  0.1065  0.2845
  442MOL0     H59623   8.588   1.129   1.953  1.8915  0.7778  0.4659
  442MOL0     H59624   8.756   1.167   2.161 -0.0311 -0.3419  1.7556
  442MOL0     H59625   8.797   1.003   2.156 -0.8006 -0.4353 -0.3300
  442MOL0     H59626   8.819   1.148   1.893  1.6131 -1.5960 -2.0836
  442MOL0     H59627   8.881   0.989   1.948 -0.0904 -0.6335  1.4883
  442MOL0     H59628   8.957   1.258   2.026 -2.7119 -1.2026 -2.3197
  442MOL0     H59629   9.067   1.121   1.979  0.8881 -2.3358  2.8219
  442MOL0     H59630   9.085   1.347   2.144 -0.1405 -3.8512 -1.2811
  442MOL0     H59631   9.095   1.533   2.298  0.5052 -0.0679  0.2483
  442MOL0     H59632   9.249   1.576   2.748  2.6058 -0.7013  2.9955
  442MOL0     H59633   9.327   1.713   2.935 -0.0721  1.7691 -0.5820
  442MOL0     H59634   9.255   1.692   3.204 -3.8499 -1.0752  2.5254
  442MOL0     H59635   9.297   1.864   3.235  0.9829 -0.6778 -0.0341
  442MOL0     H59636   9.210   1.779   3.436 -0.5094 -2.2506 -1.0460
  442MOL0     H59637   9.080   1.880   3.370  2.1407  1.6579  4.6018
  442MOL0     H59638   8.965   1.642   3.305 -0.4450  0.7024  1.0012
  442MOL0     H59639   9.126   1.569   3.333  3.2556  2.5618 -0.4697
  442MOL0     H59640   9.112   1.617   3.567 -1.0144  3.1917  1.4537
  442MOL0     H59641   8.960   1.541   3.530  0.8433 -1.8455 -0.7412
  442MOL0     H59642   8.849   1.764   3.537 -2.0649 -0.3893  1.9404
  442MOL0     H59643   9.012   1.839   3.551  1.1874 -1.6364 -2.7346
  442MOL0     H59644   8.850   1.683   3.761  1.7743 -0.9297  3.3128
  442MOL0     H59645   9.003   1.714   3.797  1.8172 -3.8068 -4.7313
  442MOL0     H59646   8.810   1.889   3.851  0.5999 -0.1509  0.1714
  442MOL0     H59647   8.862   1.970   3.693 -0.0836 -0.4463  0.1508
  442MOL0     H59648   9.098   1.949   3.770  1.0671 -1.0408  0.9466
  442MOL0     H59649   9.008   2.067   3.873  0.1450 -0.9260  1.6751
  442MOL0     H59650   8.935   1.742   3.085  3.6044 -3.5626  4.6753
  442MOL0     H59651   8.840   1.582   2.882  0.3837  2.0474  0.2157
  442MOL0     H59652   8.985   1.247   2.604 -1.1865  0.1799 -0.4616
  442MOL0     H59653   8.935   1.089   2.457 -0.8321  0.4388  0.1415
  442MOL0     H59654   7.523   0.679   3.004  0.0147  0.9105 -0.7585
  442MOL0     H59655   7.286   0.606   3.060 -2.4716  0.3599 -3.1858
  442MOL0     H59656   6.934   0.525   2.796  0.3448  0.3132  0.9951
  442MOL0     H59657   6.697   0.583   2.881 -1.3017 -0.3603  1.7683
  442MOL0     H59658   6.475   0.303   3.093 -2.2758  0.3020  0.8336
  442MOL0     H59659   6.516   0.351   2.929  0.4916 -1.0913  0.6049
  442MOL0     H59660   6.295   0.506   3.076 -1.8657 -0.0014 -0.8861
  442MOL0     H59661   6.285   0.360   2.971  0.5885 -0.9923 -4.6244
  442MOL0     H59662   6.377   0.495   2.792 -2.5506 -2.7721  1.4884
  442MOL0     H59663   6.412   0.636   2.902 -3.0081  2.6079  0.4952
  442MOL0     H59664   6.177   0.670   2.927 -3.2096 -1.2089  0.8271
  442MOL0     H59665   6.215   0.657   2.745 -0.7184 -1.5086 -0.4737
  442MOL0     H59666   5.946   0.331   2.828 -0.5349  0.1213  0.2404
  442MOL0     H59667   6.743   0.321   3.209 -0.4140 -0.6318 -0.1103
  442MOL0     H59668   6.907   0.152   3.191 -1.3587 -2.4827 -6.2752
  442MOL0     H59669   7.058   0.162   3.101 -1.6852 -1.7799 -0.2884
  442MOL0     H59670   7.046   0.270   3.231  3.4092 -1.7636 -1.4075
  443MOL0     O59671   9.928   4.708   3.766  0.4326 -0.3558  0.1223
  443MOL0     C59672   9.894   4.668   3.877  0.0803  0.0550 -0.4155
  443MOL0     O59673   9.837   4.547   3.897  0.0798 -0.3524 -0.0322
  443MOL0     C59674   9.870   4.436   3.818 -0.1888  0.2904 -0.4586
  443MOL0     C59675   9.768   4.346   3.768 -0.0173 -0.0278  0.4903
  443MOL0     C59676   9.806   4.236   3.692  0.1929  0.1971 -0.5621
  443MOL0     C59677   9.943   4.214   3.670  0.5481 -1.0014  0.0732
  443MOL0     O59678   9.982   4.115   3.590  0.6206 -0.3027  0.0721
  443MOL0     C59679   9.905   4.084   3.476  0.9365  0.9613 -0.4347
  443MOL0     C59680  10.004   4.066   3.353  0.0903  0.7564 -0.2809
  443MOL0     C59681   9.984   3.924   3.292  0.3824 -0.9077  0.1060
  443MOL0     C59682  10.100   3.889   3.216 -0.2575 -0.8068  0.0280
  443MOL0     C59683  10.062   3.768   3.130  0.0656  0.0217 -0.2313
  443MOL0     C59684  10.174   3.721   3.045 -0.7747 -0.2000 -0.1804
  443MOL0     C59685  10.148   3.594   2.959 -0.5608 -0.3870  0.4432
  443MOL0     C59686  10.267   3.557   2.874  0.5979  0.4596 -0.3611
  443MOL0     N59687  10.242   3.442   2.793 -0.6133  0.6855 -0.3187
  443MOL0     C59688  10.192   3.324   2.846  0.0187 -0.2960  0.7279
  443MOL0     C59689  10.161   3.245   2.743  0.9529  0.6049  0.4161
  443MOL0     C59690  10.096   3.107   2.757 -0.2976  0.2592  0.5081
  443MOL0     C59691   9.969   3.086   2.682  0.8928 -0.5701 -0.3080
  443MOL0     C59692   9.927   2.942   2.648 -0.0418 -0.4393  0.1513
  443MOL0     C59693   9.779   2.932   2.589 -0.6663 -0.4609 -0.2187
  443MOL0     O59694   9.705   2.991   2.691  0.6592 -0.5092 -0.2494
  443MOL0     C59695   9.570   2.997   2.670 -0.3983  0.3593  0.6643
  443MOL0     C59696   9.516   3.087   2.578 -0.5236  0.6117  0.0555
  443MOL0     C59697   9.379   3.075   2.542 -0.2125  0.3107 -1.2410
  443MOL0     C59698   9.297   2.980   2.600 -0.0707  0.8155 -0.7191
  443MOL0     C59699   9.154   2.961   2.557  0.2607 -0.3359 -0.3221
  443MOL0     O59700   9.113   3.042   2.451 -0.2327 -0.1190 -0.2885
  443MOL0     C59701   8.972   3.049   2.432  0.0224 -0.7576  0.0252
  443MOL0     C59702   8.894   2.938   2.402 -0.4362 -0.5116  1.5463
  443MOL0     C59703   8.767   2.951   2.361 -0.3027 -0.4863 -0.4656
  443MOL0     C59704   8.695   3.069   2.370 -0.6517 -1.3469 -0.7930
  443MOL0     O59705   8.561   3.077   2.337  0.4845  0.4609  0.5630
  443MOL0     C59706   8.475   2.973   2.299  0.2087  0.7644 -0.3850
  443MOL0     C59707   8.331   3.016   2.255  0.4627 -0.1680  0.6141
  443MOL0     C59708   8.271   3.092   2.373  0.3799 -0.0284  0.2262
  443MOL0     C59709   8.138   3.158   2.332  1.1502  0.4844 -0.7575
  443MOL0     C59710   8.105   3.287   2.418 -0.1144  0.3264  0.2017
  443MOL0     C59711   7.953   3.313   2.410 -0.9337 -0.4279 -0.2278
  443MOL0     C59712   7.925   3.413   2.513 -0.0207 -0.3125  0.2347
  443MOL0     C59713   7.775   3.443   2.509 -0.1257 -0.0731 -0.2074
  443MOL0    Cl59714   7.746   3.523   2.661  0.3465  0.3280  0.0532
  443MOL0     C59715   8.767   3.185   2.411 -0.2771  0.8725  0.2300
  443MOL0     C59716   8.909   3.176   2.439  0.5414  0.5032 -0.0787
  443MOL0     O59717   9.080   2.886   2.619  0.3312  0.0935 -0.0525
  443MOL0     C59718   9.354   2.891   2.697  0.2802  1.4013  0.0171
  443MOL0     C59719   9.488   2.900   2.731  0.7965  0.9923  0.2444
  443MOL0     N59720  10.181   3.320   2.624 -0.3720  0.3411 -0.0865
  443MOL0     N59721  10.228   3.430   2.657 -0.4828 -0.0783 -0.0665
  443MOL0     C59722  10.041   4.290   3.731 -0.4908 -0.1129 -0.4964
  443MOL0     C59723  10.006   4.400   3.814 -0.0331 -0.3816  0.2181
  443MOL0     C59724   9.881   4.759   3.996 -0.0659 -1.2303 -0.8291
  443MOL0     C59725   9.821   4.708   4.110 -0.2050  0.1739 -0.5860
  443MOL0     C59726   9.798   4.786   4.227  0.4690 -0.2208  0.3296
  443MOL0     C59727   9.837   4.921   4.229 -1.0463 -0.1677  0.1785
  443MOL0     O59728   9.821   5.006   4.329 -0.4071 -0.1482 -0.6603
  443MOL0     C59729   9.763   4.953   4.457 -1.1096 -0.4541  0.7399
  443MOL0     C59730   9.609   4.943   4.452  0.0384  0.3959 -0.0428
  443MOL0     C59731   9.559   4.901   4.595 -0.0307 -0.1226  1.4479
  443MOL0     C59732   9.477   5.017   4.647 -0.3809  0.7640  0.9776
  443MOL0     C59733   9.410   4.985   4.769  0.0301 -0.0236  0.4960
  443MOL0     C59734   9.371   4.956   4.880 -0.2229 -0.2171  0.1956
  443MOL0     C59735   9.909   4.976   4.117  1.1300 -0.2489  0.2197
  443MOL0     C59736   9.929   4.894   4.001  0.2962  0.1003 -0.7189
  443MOL0     C59737   9.996   4.966   3.893  0.4126 -0.3090  0.4384
  443MOL0     H59738   9.663   4.372   3.776  0.3125  1.1573  1.2185
  443MOL0     H59739   9.733   4.183   3.631 -0.7342  1.4855 -0.5988
  443MOL0     H59740   9.864   3.986   3.501  1.2328  0.7005 -0.9611
  443MOL0     H59741   9.825   4.153   3.449  0.6972  1.2107  0.8452
  443MOL0     H59742  10.100   4.086   3.400 -0.8440  0.3395  1.9485
  443MOL0     H59743   9.983   4.140   3.276  3.2781  2.7115  0.5754
  443MOL0     H59744   9.899   3.935   3.223  1.1370  1.3144 -0.5486
  443MOL0     H59745   9.949   3.849   3.364 -2.0298 -1.5313 -1.5886
  443MOL0     H59746  10.132   3.967   3.147  1.8276  0.6532  2.4869
  443MOL0     H59747  10.177   3.863   3.288 -0.5592  0.6776  0.9157
  443MOL0     H59748  10.019   3.685   3.186  1.6226  0.3531  1.5502
  443MOL0     H59749   9.987   3.809   3.062 -0.5022 -1.5291 -0.5697
  443MOL0     H59750  10.204   3.807   2.984 -1.9259  3.0670  3.4244
  443MOL0     H59751  10.251   3.692   3.117  1.8500  3.4897 -1.2093
  443MOL0     H59752  10.067   3.626   2.893 -1.6342  1.9786  2.7622
  443MOL0     H59753  10.098   3.513   3.013 -2.2482  1.0291  1.0804
  443MOL0     H59754  10.300   3.638   2.807 -1.6763  2.0864  0.3411
  443MOL0     H59755  10.343   3.526   2.946 -1.3609 -3.1065  0.3466
  443MOL0     H59756  10.187   3.294   2.951  3.2048 -1.9804  0.5557
  443MOL0     H59757  10.163   3.027   2.723 -1.1089  0.1144 -0.7786
  443MOL0     H59758  10.076   3.087   2.863  3.9281 -1.5032  1.2017
  443MOL0     H59759   9.896   3.137   2.745  1.3735  1.0170 -0.9871
  443MOL0     H59760   9.969   3.140   2.587 -3.8832 -2.6692 -1.8119
  443MOL0     H59761   9.939   2.872   2.731 -1.2415  1.6910  2.2243
  443MOL0     H59762   9.987   2.895   2.569 -0.1680 -0.3284 -0.0128
  443MOL0     H59763   9.744   2.830   2.570 -1.2277 -0.0958 -1.2477
  443MOL0     H59764   9.776   3.002   2.505 -1.8361  0.9771  0.9646
  443MOL0     H59765   9.576   3.160   2.524 -3.1094  1.8896 -1.2946
  443MOL0     H59766   9.346   3.131   2.455 -1.9290 -0.6258 -1.2331
  443MOL0     H59767   8.940   2.840   2.401 -2.1303 -1.4657 -2.3679
  443MOL0     H59768   8.707   2.866   2.327 -1.5415  1.0322 -2.3472
  443MOL0     H59769   8.517   2.925   2.210 -2.4981 -0.0406 -1.3245
  443MOL0     H59770   8.478   2.899   2.380 -0.1953  2.0858  0.8722
  443MOL0     H59771   8.339   3.070   2.161 -3.8283 -1.0806 -0.5114
  443MOL0     H59772   8.260   2.936   2.231 -2.7404  2.9776 -1.4081
  443MOL0     H59773   8.242   3.021   2.450  0.2347 -2.4921 -1.9732
  443MOL0     H59774   8.341   3.166   2.414 -0.3195 -0.6005  2.6458
  443MOL0     H59775   8.060   3.083   2.347  1.8538  0.1012  1.2458
  443MOL0     H59776   8.136   3.178   2.224  0.6237  1.3985 -0.5873
  443MOL0     H59777   8.174   3.368   2.392 -1.5576  1.0675 -1.4965
  443MOL0     H59778   8.121   3.258   2.523 -0.6118 -1.9491 -0.2929
  443MOL0     H59779   7.928   3.350   2.310 -1.6135 -1.9600 -0.6514
  443MOL0     H59780   7.914   3.213   2.430 -1.0242 -0.3183  0.1508
  443MOL0     H59781   7.967   3.505   2.471  2.2068 -0.7284  1.3893
  443MOL0     H59782   7.966   3.398   2.614 -0.9890  3.0462  1.2607
  443MOL0     H59783   7.741   3.497   2.420  2.9379 -0.8950 -2.0159
  443MOL0     H59784   7.710   3.355   2.518 -1.3263  0.6734 -1.1872
  443MOL0     H59785   8.707   3.276   2.405 -2.3868 -0.1571  3.0777
  443MOL0     H59786   8.966   3.265   2.464 -0.4862  0.6521  1.8915
  443MOL0     H59787   9.292   2.813   2.740 -0.1035  2.1994  0.9625
  443MOL0     H59788   9.528   2.839   2.812  1.8660  1.9823  0.4930
  443MOL0     H59789  10.144   4.278   3.699 -0.5941  1.2748 -1.4461
  443MOL0     H59790  10.085   4.460   3.859 -0.4000 -0.6721  1.2760
  443MOL0     H59791   9.789   4.604   4.117 -2.9200  0.8905 -1.0941
  443MOL0     H59792   9.752   4.748   4.318  2.4224  0.7983  1.8417
  443MOL0     H59793   9.789   5.021   4.538 -1.4716 -0.0499  0.5245
  443MOL0     H59794   9.813   4.860   4.485  0.6986  0.5878  1.0715
  443MOL0     H59795   9.591   4.864   4.378  0.7950 -1.2219  1.4156
  443MOL0     H59796   9.572   5.039   4.415  1.9132  0.9667 -0.5447
  443MOL0     H59797   9.641   4.883   4.665  1.4412  1.2392  0.1723
  443MOL0     H59798   9.502   4.809   4.582 -0.3798  0.1869  0.6609
  443MOL0     H59799   9.542   5.105   4.647 -0.9640  1.3600 -2.7108
  443MOL0     H59800   9.401   5.047   4.574  1.2720 -1.8728 -2.0625
  443MOL0     H59801   9.327   4.962   4.977 -3.3124  1.0522 -1.1566
  443MOL0     H59802   9.930   5.082   4.116  0.5518 -0.0786  2.1908
  443MOL0     H59803  10.044   5.058   3.928  1.6642 -0.4281 -0.8897
  443MOL0     H59804  10.072   4.900   3.850  0.4751  0.0290  0.0188
  443MOL0     H59805   9.923   4.990   3.815  1.3683  1.4993  0.0602
  444MOL0     O59806   2.660  10.841   7.406  0.8801  0.3541  0.5024
  444MOL0     C59807   2.745  10.881   7.323  0.9891  0.3884  0.5083
  444MOL0     O59808   2.717  10.898   7.193  0.2810  0.0253  0.0976
  444MOL0     C59809   2.605  10.831   7.137 -0.3477 -0.3634 -1.1066
  444MOL0     C59810   2.592  10.688   7.131  0.2511 -1.2632 -0.0151
  444MOL0     C59811   2.479  10.622   7.086 -0.0433  0.5089 -0.1807
  444MOL0     C59812   2.371  10.700   7.039 -0.4228  0.5160  0.4254
  444MOL0     O59813   2.264  10.624   7.004  0.4687  0.2382 -0.5393
  444MOL0     C59814   2.137  10.685   6.976 -1.0037 -0.8414 -0.6066
  444MOL0     C59815   2.024  10.591   7.002 -0.2011  0.2471 -0.9672
  444MOL0     C59816   2.023  10.551   7.151 -0.1244 -0.3179  0.0790
  444MOL0     C59817   1.909  10.455   7.170 -0.4952  0.1169  0.8534
  444MOL0     C59818   1.949  10.311   7.130  0.1728 -1.0423  1.5706
  444MOL0     C59819   1.857  10.216   7.203  0.7324  0.1528  0.0166
  444MOL0     C59820   1.808  10.107   7.105  0.4546  0.0847 -0.4106
  444MOL0     C59821   1.929  10.025   7.070 -0.2461 -0.2124  0.7308
  444MOL0     N59822   1.872   9.897   7.019 -0.6931  0.2003  0.4549
  444MOL0     C59823   1.877   9.862   6.886  0.0235 -0.3961 -0.0828
  444MOL0     C59824   1.857   9.732   6.865 -0.0227  0.0934 -0.5182
  444MOL0     C59825   1.867   9.655   6.736  0.2415 -1.0152 -0.4698
  444MOL0     C59826   1.776   9.524   6.732 -0.2888  0.4437  0.1142
  444MOL0     C59827   1.763   9.472   6.581  0.5986 -0.2450 -0.3205
  444MOL0     C59828   1.700   9.580   6.486  0.1560 -0.7610  0.0297
  444MOL0     O59829   1.669   9.511   6.366 -0.4079 -0.9479  0.0465
  444MOL0     C59830   1.613   9.586   6.274 -0.2718 -0.2214  1.2583
  444MOL0     C59831   1.498   9.536   6.224 -0.3491  0.1372  0.1735
  444MOL0     C59832   1.430   9.600   6.113  0.5881  0.0514  0.4084
  444MOL0     C59833   1.470   9.720   6.055  0.0348 -0.1761 -0.9042
  444MOL0     C59834   1.392   9.778   5.946 -0.1212  0.0607  0.1081
  444MOL0     O59835   1.422   9.907   5.900  0.0928  0.4818  0.2251
  444MOL0     C59836   1.320   9.978   5.840 -0.0522  0.0598 -1.2424
  444MOL0     C59837   1.204   9.991   5.916  0.9022 -1.3821 -1.0559
  444MOL0     C59838   1.105  10.089   5.876 -0.0839  0.0230  0.3087
  444MOL0     C59839   1.114  10.174   5.766 -0.5022 -0.0918  0.1367
  444MOL0     O59840   1.003  10.256   5.733 -0.1907  0.1973 -0.3651
  444MOL0     C59841   0.920  10.327   5.828 -0.1223  0.8278 -0.1390
  444MOL0     C59842   0.909  10.472   5.777  0.7639  0.4139  0.0379
  444MOL0     C59843   1.040  10.528   5.706  0.3299  0.6988 -0.7743
  444MOL0     C59844   1.153  10.558   5.805  0.3986  0.6236 -0.0035
  444MOL0     C59845   1.266  10.602   5.717 -0.3816 -0.1211 -0.1049
  444MOL0     C59846   1.343  10.478   5.659  0.0979  0.2673 -0.0099
  444MOL0     C59847   1.438  10.516   5.541  0.1588 -0.2908  0.4481
  444MOL0     C59848   1.565  10.429   5.535  0.0164  0.1195 -1.0652
  444MOL0    Cl59849   1.643  10.439   5.382 -0.0718 -0.5203 -0.1961
  444MOL0     C59850   1.220  10.146   5.686  0.1346  0.8194 -0.5889
  444MOL0     C59851   1.326  10.053   5.726  0.4009 -0.0705  0.2180
  444MOL0     O59852   1.307   9.698   5.899  0.3244 -1.4687  0.8227
  444MOL0     C59853   1.594   9.763   6.106  0.4731  1.5012 -0.2290
  444MOL0     C59854   1.668   9.699   6.211 -0.3136 -0.5311  0.1636
  444MOL0     N59855   1.848   9.677   6.999  0.1128  0.3112  0.7291
  444MOL0     N59856   1.868   9.777   7.090 -0.2614 -0.2088  1.2118
  444MOL0     C59857   2.383  10.841   7.035  0.2703 -0.1034 -0.5914
  444MOL0     C59858   2.498  10.905   7.081 -0.1027 -0.2413 -0.9357
  444MOL0     C59859   2.889  10.905   7.371 -0.0806  0.5878 -0.9057
  444MOL0     C59860   2.919  10.862   7.503 -0.6618  0.0400  0.3625
  444MOL0     C59861   3.032  10.917   7.559 -0.8555  0.1107 -0.4964
  444MOL0     C59862   3.140  10.978   7.481  0.1239 -0.3908 -0.1568
  444MOL0     O59863   3.266  11.018   7.530 -0.3510  0.5810 -0.3478
  444MOL0     C59864   3.304  11.041   7.672 -0.3409 -0.4088  0.7350
  444MOL0     C59865   3.285  11.173   7.749 -1.2082  0.2874  0.2068
  444MOL0     C59866   3.325  11.296   7.659 -0.3948  0.0791 -0.3005
  444MOL0     C59867   3.305  11.430   7.738  0.6979 -0.0849 -0.0893
  444MOL0     C59868   3.160  11.454   7.762 -0.3244 -0.7147 -0.4877
  444MOL0     C59869   3.041  11.456   7.796 -0.5269  0.2608  1.0870
  444MOL0     C59870   3.114  11.001   7.344  0.4336  0.3451  0.4830
  444MOL0     C59871   2.986  10.964   7.289 -0.5749  0.6072  0.4153
  444MOL0     C59872   2.971  10.989   7.135  0.3498  0.4356 -0.4193
  444MOL0     H59873   2.670  10.624   7.171 -0.0682 -2.2511 -0.9341
  444MOL0     H59874   2.476  10.514   7.076 -1.7797  0.5709 -0.6854
  444MOL0     H59875   2.123  10.770   7.043  0.3012 -0.9428 -0.1815
  444MOL0     H59876   2.144  10.714   6.871 -0.9795 -0.6051 -0.5399
  444MOL0     H59877   2.028  10.502   6.939 -1.5450 -2.0263  1.9028
  444MOL0     H59878   1.922  10.632   6.998 -1.7004 -3.2208 -3.6056
  444MOL0     H59879   2.019  10.640   7.215 -1.1731 -0.4638  0.2332
  444MOL0     H59880   2.121  10.506   7.167 -0.1017 -1.3646 -2.4815
  444MOL0     H59881   1.880  10.461   7.275 -1.4485 -0.7164  0.6594
  444MOL0     H59882   1.814  10.487   7.127 -0.4394  3.5807  2.9684
  444MOL0     H59883   1.938  10.300   7.021 -0.1281 -0.1557  1.5083
  444MOL0     H59884   2.053  10.287   7.157  0.9690  0.4921  0.0818
  444MOL0     H59885   1.904  10.176   7.293  1.8858 -1.1095 -1.0884
  444MOL0     H59886   1.778  10.276   7.249  1.2124  1.8813 -1.3024
  444MOL0     H59887   1.774  10.158   7.014 -1.6135 -0.1167  0.1883
  444MOL0     H59888   1.728  10.045   7.147  0.7053  0.2607  0.3455
  444MOL0     H59889   1.987  10.070   6.989 -0.7798  1.4207  1.2149
  444MOL0     H59890   1.992   9.992   7.153  1.4138 -2.0891 -1.1543
  444MOL0     H59891   1.894   9.933   6.805 -0.9850  0.6435  0.5880
  444MOL0     H59892   1.840   9.722   6.654  0.1276 -1.5301 -0.8569
  444MOL0     H59893   1.971   9.626   6.721  0.5531  0.4696 -1.3984
  444MOL0     H59894   1.807   9.456   6.813 -1.4025  0.9520  0.9978
  444MOL0     H59895   1.679   9.560   6.768 -0.3486  2.3796 -1.8336
  444MOL0     H59896   1.695   9.386   6.581 -1.2574  1.0928  2.0535
  444MOL0     H59897   1.861   9.455   6.536  1.1742  1.7445  0.0949
  444MOL0     H59898   1.768   9.665   6.473 -0.6438 -0.1470 -0.2148
  444MOL0     H59899   1.613   9.616   6.541  2.1154 -0.6764  3.3401
  444MOL0     H59900   1.463   9.440   6.261 -2.6940  1.0285  0.4101
  444MOL0     H59901   1.330   9.567   6.085  0.6230  0.7339 -0.5633
  444MOL0     H59902   1.194   9.943   6.013  1.8172  2.2565  1.0242
  444MOL0     H59903   1.012  10.104   5.930  1.1014  0.9193  2.2147
  444MOL0     H59904   0.817  10.293   5.837 -0.8632  2.9859  0.1623
  444MOL0     H59905   0.972  10.343   5.923 -0.5839  2.7253 -0.1633
  444MOL0     H59906   0.822  10.481   5.711 -0.2515 -0.3808  1.2012
  444MOL0     H59907   0.872  10.540   5.855 -1.5478  1.9082 -2.2202
  444MOL0     H59908   1.082  10.460   5.631  1.0260 -1.3552  1.3157
  444MOL0     H59909   1.020  10.625   5.660  1.4772  0.8430 -0.9965
  444MOL0     H59910   1.182  10.457   5.835  2.1213  0.5532 -1.7221
  444MOL0     H59911   1.130  10.613   5.897  0.6451 -0.0375  0.4652
  444MOL0     H59912   1.335  10.647   5.790  3.1173 -2.6142 -1.6114
  444MOL0     H59913   1.235  10.671   5.638 -1.1250  0.7885  0.9448
  444MOL0     H59914   1.394  10.438   5.748  2.1216  0.7924 -0.8778
  444MOL0     H59915   1.272  10.406   5.618 -0.2022  1.3889 -1.5540
  444MOL0     H59916   1.472  10.620   5.540  3.6970 -1.2495 -1.8593
  444MOL0     H59917   1.390  10.510   5.443  1.2580 -1.5251 -0.0525
  444MOL0     H59918   1.633  10.459   5.616 -1.1932  1.2629 -0.4463
  444MOL0     H59919   1.542  10.323   5.547 -0.6264  0.3046 -0.6265
  444MOL0     H59920   1.226  10.208   5.596 -1.2982  1.6199 -0.1591
  444MOL0     H59921   1.414  10.048   5.662  1.7695  0.1416  2.0133
  444MOL0     H59922   1.628   9.854   6.057  2.6293  1.1399  0.4750
  444MOL0     H59923   1.765   9.725   6.250 -0.4156 -0.6065  0.4757
  444MOL0     H59924   2.297  10.897   7.001 -1.7437 -2.7663 -0.2048
  444MOL0     H59925   2.504  11.012   7.099 -1.2659 -0.1318 -1.1482
  444MOL0     H59926   2.845  10.826   7.575 -0.4024  1.6039  1.4604
  444MOL0     H59927   3.054  10.886   7.660 -2.6436 -0.4336 -0.2340
  444MOL0     H59928   3.405  11.002   7.689 -0.6511 -0.8591  1.6551
  444MOL0     H59929   3.251  10.972   7.740  0.8077 -0.5410  1.5352
  444MOL0     H59930   3.360  11.168   7.828 -3.3494 -1.9474  2.2671
  444MOL0     H59931   3.202  11.199   7.815  0.1892 -0.7565  2.5166
  444MOL0     H59932   3.264  11.299   7.567  2.6446  1.4110 -2.4484
  444MOL0     H59933   3.426  11.295   7.617  0.6914 -0.8985  2.1643
  444MOL0     H59934   3.354  11.429   7.836  0.8652 -1.2281 -0.1709
  444MOL0     H59935   3.340  11.520   7.686 -0.6237  1.3791  1.4544
  444MOL0     H59936   2.936  11.467   7.813 -0.3330  1.6127  1.5673
  444MOL0     H59937   3.182  11.058   7.280  0.0199  0.6060  0.2666
  444MOL0     H59938   3.062  11.004   7.075  0.5135 -3.8661 -1.5477
  444MOL0     H59939   2.924  10.908   7.080  2.3393 -1.4436  0.4769
  444MOL0     H59940   2.905  11.076   7.129  1.0304  1.0493  0.6143
  445MOL0     O59941   7.685  10.863   5.046  0.1177 -0.2176  0.3548
  445MOL0     C59942   7.753  10.889   5.143  0.1092 -0.5006  0.3416
  445MOL0     O59943   7.887  10.887   5.152  0.1738 -0.2633  0.3734
  445MOL0     C59944   7.959  10.819   5.051 -0.3423  0.9308  0.2712
  445MOL0     C59945   8.079  10.878   4.998 -0.1958 -0.7789  1.1464
  445MOL0     C59946   8.157  10.814   4.896  0.9150 -0.2851  0.5711
  445MOL0     C59947   8.117  10.686   4.846  0.9458  0.3331  0.1368
  445MOL0     O59948   8.174  10.620   4.738 -0.2908 -0.0801 -0.8306
  445MOL0     C59949   8.258  10.697   4.657 -0.2945  0.0113  0.2089
  445MOL0     C59950   8.174  10.786   4.573 -0.7443 -0.1617  0.4696
  445MOL0     C59951   8.262  10.892   4.503  0.2173  0.2669 -0.1839
  445MOL0     C59952   8.171  11.007   4.450  0.5167  0.8197  0.2209
  445MOL0     C59953   8.243  11.089   4.336  1.0153  0.3271 -0.7701
  445MOL0     C59954   8.160  11.222   4.319  0.9531  0.0525  0.3210
  445MOL0     C59955   8.024  11.200   4.271 -0.3359  1.7359  0.9844
  445MOL0     C59956   7.933  11.324   4.281 -0.3117 -0.0445 -0.1861
  445MOL0     N59957   7.961  11.407   4.392  0.2427 -0.1136  1.0358
  445MOL0     C59958   8.026  11.524   4.380  0.9074  0.3868  0.3060
  445MOL0     C59959   8.010  11.597   4.494 -0.3701  0.2606 -0.0042
  445MOL0     C59960   8.066  11.735   4.536  0.1209  0.4164 -0.0846
  445MOL0     C59961   7.986  11.852   4.472  0.0576  0.8971  0.1847
  445MOL0     C59962   7.901  11.929   4.569  0.6591 -0.4805  0.8211
  445MOL0     C59963   7.827  12.038   4.497  0.1709  0.5881 -0.8029
  445MOL0     O59964   7.902  12.157   4.482 -0.7100  0.7753  0.1901
  445MOL0     C59965   7.971  12.181   4.365 -0.3342 -0.1373 -0.1637
  445MOL0     C59966   7.918  12.166   4.241  0.3552 -0.6680 -1.2571
  445MOL0     C59967   7.973  12.206   4.124  0.5116  0.7298 -0.1764
  445MOL0     C59968   8.105  12.256   4.131  0.6922  0.3767  0.3891
  445MOL0     C59969   8.169  12.301   4.011 -1.0796 -0.2961  0.2285
  445MOL0     O59970   8.233  12.424   4.027  1.4669 -0.5174  0.2315
  445MOL0     C59971   8.286  12.491   3.921  0.0027  0.2090 -0.1308
  445MOL0     C59972   8.216  12.588   3.850 -0.1572 -0.2112  0.7040
  445MOL0     C59973   8.281  12.663   3.745  0.8117  0.1082 -0.0871
  445MOL0     C59974   8.415  12.648   3.720  1.2068 -0.3070  0.2491
  445MOL0     O59975   8.485  12.717   3.625  0.1691 -0.6476  0.9427
  445MOL0     C59976   8.419  12.819   3.545 -0.6586  0.1774  0.0555
  445MOL0     C59977   8.505  12.870   3.424 -0.3240  0.5476  0.3824
  445MOL0     C59978   8.632  12.954   3.476 -0.2792 -0.7497  0.4179
  445MOL0     C59979   8.755  12.852   3.506 -0.0164  0.0168  0.9069
  445MOL0     C59980   8.811  12.769   3.386 -0.4782  0.6612  0.0952
  445MOL0     C59981   8.876  12.861   3.292 -0.3342 -1.2401 -0.6522
  445MOL0     C59982   8.972  12.817   3.180  0.9161  0.8248  0.2341
  445MOL0     C59983   8.943  12.669   3.138 -0.3229 -0.9259 -0.5411
  445MOL0    Cl59984   8.775  12.622   3.092 -0.2949 -0.3793  0.4503
  445MOL0     C59985   8.488  12.555   3.792 -0.5402  0.7080  0.1184
  445MOL0     C59986   8.424  12.488   3.898  0.0390  0.5675  0.4082
  445MOL0     O59987   8.153  12.234   3.910  0.1411 -0.3531  0.0174
  445MOL0     C59988   8.163  12.266   4.251 -1.5494 -0.2054 -0.5208
  445MOL0     C59989   8.101  12.235   4.370  0.8350 -0.3564  0.7844
  445MOL0     N59990   7.928  11.518   4.570 -0.2603 -0.3894 -0.4176
  445MOL0     N59991   7.890  11.408   4.509 -0.3416  0.2221  0.8001
  445MOL0     C59992   8.000  10.624   4.904 -0.3923 -0.4045 -0.2938
  445MOL0     C59993   7.923  10.692   5.004 -0.2712 -0.3865 -0.3596
  445MOL0     C59994   7.676  10.915   5.264 -0.6388 -0.2325  0.3406
  445MOL0     C59995   7.563  10.842   5.291  0.1092 -0.2451 -0.4718
  445MOL0     C59996   7.474  10.870   5.389  1.2460 -0.2943  0.1273
  445MOL0     C59997   7.503  10.978   5.477  0.0484 -0.8937  0.3672
  445MOL0     O59998   7.432  11.019   5.589  0.0748  1.1322 -0.0265
  445MOL0     C59999   7.289  10.994   5.590  0.1142 -1.1863  0.6020
  445MOL0     C60000   7.214  11.114   5.656 -0.0714 -0.1895  0.4249
  445MOL0     C60001   7.065  11.137   5.627  0.5466 -0.1024  0.3256
  445MOL0     C60002   6.997  11.247   5.706  0.7548 -0.3831 -0.7332
  445MOL0     C60003   6.859  11.213   5.744  0.5185 -0.1505 -0.7271
  445MOL0     C60004   6.750  11.190   5.791 -0.2896  0.1633 -0.3094
  445MOL0     C60005   7.617  11.051   5.458  0.1387  0.7466 -0.4521
  445MOL0     C60006   7.700  11.033   5.349  0.3814  0.4776  0.3491
  445MOL0     C60007   7.818  11.132   5.325  0.5320  0.0050 -0.1830
  445MOL0     H60008   8.126  10.974   5.016 -1.1427 -0.1593  0.4689
  445MOL0     H60009   8.243  10.872   4.866 -0.1007  1.3008  0.6217
  445MOL0     H60010   8.330  10.754   4.716  1.8074 -1.0448 -1.2408
  445MOL0     H60011   8.320  10.629   4.599  1.7169  1.8538  0.0837
  445MOL0     H60012   8.113  10.844   4.642 -3.1019 -0.9765 -0.8007
  445MOL0     H60013   8.102  10.731   4.512 -1.4751 -1.4341  2.3986
  445MOL0     H60014   8.313  10.843   4.419 -0.1242  2.6017 -1.8549
  445MOL0     H60015   8.337  10.925   4.575 -0.6042  2.8995 -0.4137
  445MOL0     H60016   8.081  10.954   4.415  0.2895  0.4611  1.3150
  445MOL0     H60017   8.142  11.079   4.527  0.1618 -0.4315  1.2978
  445MOL0     H60018   8.342  11.097   4.382  0.4729 -3.4626  1.5185
  445MOL0     H60019   8.248  11.030   4.245 -1.5652 -1.7907  0.3207
  445MOL0     H60020   8.174  11.273   4.415  0.8537 -1.2166  1.0327
  445MOL0     H60021   8.208  11.281   4.240 -0.7427  1.7817  0.5178
  445MOL0     H60022   7.986  11.117   4.331  0.5128  1.2610  0.8886
  445MOL0     H60023   8.030  11.179   4.163  1.4993 -1.1908  1.5178
  445MOL0     H60024   7.937  11.389   4.194  1.4179  0.0860 -0.0399
  445MOL0     H60025   7.833  11.283   4.301 -0.0076  0.1915  2.1757
  445MOL0     H60026   8.073  11.550   4.285  0.1369 -0.3819 -0.3090
  445MOL0     H60027   8.072  11.744   4.645 -0.4637  0.2079 -0.0280
  445MOL0     H60028   8.168  11.746   4.498  0.3964 -0.4164  0.3946
  445MOL0     H60029   8.052  11.924   4.421  0.9810  0.5312  0.8432
  445MOL0     H60030   7.922  11.811   4.393  0.6357 -0.1830  0.2584
  445MOL0     H60031   7.968  11.981   4.639 -1.0690  3.3065 -0.0866
  445MOL0     H60032   7.845  11.854   4.625  0.4749 -0.7625  0.2625
  445MOL0     H60033   7.740  12.063   4.559 -1.0634 -0.5106 -2.0300
  445MOL0     H60034   7.795  12.000   4.399 -0.9356 -0.7436  0.0281
  445MOL0     H60035   7.821  12.118   4.241  2.0972 -4.7526  0.8111
  445MOL0     H60036   7.917  12.190   4.033 -1.0977  1.0818  0.7127
  445MOL0     H60037   8.108  12.600   3.853 -0.1475  1.2031 -1.7209
  445MOL0     H60038   8.236  12.746   3.692 -0.0346 -1.1589 -1.4237
  445MOL0     H60039   8.334  12.767   3.501  0.9492 -1.3342 -1.4111
  445MOL0     H60040   8.380  12.908   3.596 -1.8410  0.1975 -0.8629
  445MOL0     H60041   8.545  12.778   3.380  0.4205 -0.0788  2.2656
  445MOL0     H60042   8.432  12.913   3.355 -2.5760  0.0904  2.3379
  445MOL0     H60043   8.665  13.034   3.410 -1.9023  2.6534  3.4355
  445MOL0     H60044   8.613  13.003   3.571 -0.6710 -0.1079  0.0080
  445MOL0     H60045   8.730  12.771   3.576  1.4124  0.7844  2.3801
  445MOL0     H60046   8.840  12.909   3.545  2.5233 -0.4313 -3.3777
  445MOL0     H60047   8.736  12.704   3.339  1.2829  0.2638 -2.3651
  445MOL0     H60048   8.890  12.703   3.423 -1.2797  1.2783  3.1681
  445MOL0     H60049   8.797  12.920   3.243 -1.0646 -1.1916  0.5319
  445MOL0     H60050   8.937  12.933   3.348  0.1389 -2.6565  0.7257
  445MOL0     H60051   9.075  12.817   3.217 -0.0990 -1.2201  3.4929
  445MOL0     H60052   8.960  12.884   3.094 -1.4720  0.4892  0.2151
  445MOL0     H60053   8.999  12.647   3.046 -1.1808  1.0360 -1.6003
  445MOL0     H60054   8.985  12.612   3.221 -1.6403 -3.7059 -1.6590
  445MOL0     H60055   8.595  12.553   3.775 -0.5954  3.0625 -0.8821
  445MOL0     H60056   8.487  12.429   3.964 -0.8944 -0.8420  0.0958
  445MOL0     H60057   8.264  12.308   4.253 -1.8684  1.2863 -4.6849
  445MOL0     H60058   8.150  12.261   4.463  1.9252  3.1810 -0.6169
  445MOL0     H60059   7.969  10.532   4.856  0.1344 -1.0209  0.5227
  445MOL0     H60060   7.839  10.638   5.045 -0.8726  1.7229  1.3606
  445MOL0     H60061   7.543  10.761   5.222 -0.6923 -0.2402 -0.2467
  445MOL0     H60062   7.387  10.807   5.399  0.9315  0.2511  0.8962
  445MOL0     H60063   7.252  10.913   5.653 -2.0646  0.5403  1.6761
  445MOL0     H60064   7.247  10.974   5.490  2.2007 -2.3623 -0.0852
  445MOL0     H60065   7.274  11.202   5.630  0.6933 -1.5764 -3.0473
  445MOL0     H60066   7.231  11.094   5.762 -1.4561 -3.2319  0.1774
  445MOL0     H60067   7.007  11.045   5.628  0.9799 -0.4100 -1.0005
  445MOL0     H60068   7.060  11.172   5.524  2.8943 -2.0682 -0.5451
  445MOL0     H60069   7.072  11.263   5.784  2.4960 -3.4680 -1.6330
  445MOL0     H60070   6.987  11.329   5.633  0.8776 -2.3969 -3.1418
  445MOL0     H60071   6.649  11.164   5.817  0.6692 -4.6163 -0.5172
  445MOL0     H60072   7.645  11.118   5.538 -1.5272  2.0968 -0.9492
  445MOL0     H60073   7.876  11.131   5.418  1.6725  1.5214 -0.8464
  445MOL0     H60074   7.896  11.096   5.258  1.7233 -1.4313  1.8416
  445MOL0     H60075   7.782  11.235   5.322 -2.7790 -0.9892  0.7529
  446MOL0     O60076   6.333   6.349   7.152  0.3531  0.0699 -0.0465
  446MOL0     C60077   6.274   6.341   7.046 -0.5245 -0.6188  0.4851
  446MOL0     O60078   6.142   6.386   7.034  0.6870  0.0874  1.1091
  446MOL0     C60079   6.086   6.454   7.132  0.5867  0.0790  0.7726
  446MOL0     C60080   6.059   6.397   7.260  0.2545 -0.0829 -0.9188
  446MOL0     C60081   5.995   6.474   7.353  0.0549  0.5521  0.3673
  446MOL0     C60082   5.964   6.606   7.328  0.7302 -0.1812 -0.7510
  446MOL0     O60083   5.925   6.676   7.444  0.0352  0.2679 -0.1985
  446MOL0     C60084   5.846   6.780   7.425 -0.1017 -1.2624 -0.2123
  446MOL0     C60085   5.807   6.840   7.562  1.0039  0.2428 -0.8039
  446MOL0     C60086   5.723   6.745   7.659 -0.6819  1.0324  0.9520
  446MOL0     C60087   5.749   6.767   7.804 -0.3621  0.1301  1.6823
  446MOL0     C60088   5.674   6.655   7.886  0.2261  0.1602 -0.6966
  446MOL0     C60089   5.749   6.515   7.894 -0.3280 -0.1471  0.2709
  446MOL0     C60090   5.677   6.378   7.926 -0.8835  0.0274  0.1519
  446MOL0     C60091   5.608   6.333   7.799  0.1446  0.7204  0.0938
  446MOL0     N60092   5.543   6.209   7.829  0.9217 -0.8640 -0.4434
  446MOL0     C60093   5.601   6.085   7.827  0.4626 -0.3407 -0.4698
  446MOL0     C60094   5.511   5.992   7.864  2.0271 -0.1787  0.1078
  446MOL0     C60095   5.548   5.852   7.891  0.2748  0.3473  0.7515
  446MOL0     C60096   5.579   5.841   8.045  0.4558  0.0745  0.6765
  446MOL0     C60097   5.639   5.700   8.054 -0.3355 -0.3105 -1.0272
  446MOL0     C60098   5.671   5.659   8.198 -0.0148  0.1034 -0.6040
  446MOL0     O60099   5.766   5.552   8.195 -0.3054  0.6381  0.4104
  446MOL0     C60100   5.805   5.502   8.317  0.5997 -0.1947 -0.6890
  446MOL0     C60101   5.930   5.517   8.355 -0.5827  0.3199 -0.2350
  446MOL0     C60102   5.975   5.452   8.467 -0.0596 -0.1627  0.1719
  446MOL0     C60103   5.892   5.372   8.549  0.7582 -0.5708  0.3786
  446MOL0     C60104   5.938   5.316   8.685 -0.0665  0.1397 -1.0139
  446MOL0     O60105   5.848   5.241   8.773  0.0693 -0.8011  0.0119
  446MOL0     C60106   5.898   5.191   8.889 -0.0938  0.4227  1.5649
  446MOL0     C60107   5.824   5.237   8.993 -0.4668  0.8618  0.3946
  446MOL0     C60108   5.852   5.180   9.118 -0.1667  0.5713 -0.2924
  446MOL0     C60109   5.951   5.076   9.129  0.1126 -0.1320  0.2176
  446MOL0     O60110   5.976   5.053   9.260 -0.0984  0.1904  0.3583
  446MOL0     C60111   5.893   4.938   9.305  0.4362 -0.3737  0.2533
  446MOL0     C60112   5.935   4.852   9.421  0.3145  0.3290  0.1643
  446MOL0     C60113   5.817   4.753   9.459  0.5735 -0.6412 -1.3086
  446MOL0     C60114   5.833   4.665   9.586  0.1309  0.0925  0.1693
  446MOL0     C60115   5.937   4.559   9.570  0.0543  0.4613  0.4701
  446MOL0     C60116   5.922   4.453   9.675 -0.0083  0.5326 -0.2691
  446MOL0     C60117   6.027   4.344   9.685 -1.0931 -1.0429 -0.4046
  446MOL0     C60118   6.127   4.376   9.798 -0.3055  0.2632 -0.2411
  446MOL0    Cl60119   6.233   4.523   9.768  0.2594  0.0759  0.6495
  446MOL0     C60120   6.027   5.041   9.020  0.3367 -0.4236  0.6390
  446MOL0     C60121   6.007   5.102   8.890  0.5275  0.8907  0.1311
  446MOL0     O60122   6.052   5.339   8.715  0.2714 -0.0648  0.3270
  446MOL0     C60123   5.758   5.348   8.509 -0.1729 -0.5196 -0.3120
  446MOL0     C60124   5.719   5.420   8.398 -0.5047 -0.1750 -0.1961
  446MOL0     N60125   5.404   6.063   7.911 -1.1037 -0.2558 -0.3662
  446MOL0     N60126   5.429   6.195   7.886 -0.0355 -0.3073 -0.2031
  446MOL0     C60127   5.982   6.660   7.200 -0.5244 -0.0783 -0.5711
  446MOL0     C60128   6.044   6.582   7.102 -0.0527 -0.3150  0.2386
  446MOL0     C60129   6.360   6.303   6.920 -0.6318  0.0176 -0.6592
  446MOL0     C60130   6.503   6.296   6.934  0.2461 -1.3879  0.9852
  446MOL0     C60131   6.581   6.264   6.827  0.3068  0.5956  0.2781
  446MOL0     C60132   6.519   6.232   6.708  0.0362  0.4143  0.7488
  446MOL0     O60133   6.602   6.202   6.596 -1.1401  0.0793 -0.0766
  446MOL0     C60134   6.654   6.073   6.593 -0.0750  0.4066 -0.5815
  446MOL0     C60135   6.754   6.042   6.488  0.4548 -0.8876  0.6479
  446MOL0     C60136   6.859   6.147   6.467 -0.8743  0.1007  0.0266
  446MOL0     C60137   6.928   6.149   6.334 -1.3396 -0.1177 -0.1128
  446MOL0     C60138   6.875   6.252   6.250 -0.1432  0.4261  1.2110
  446MOL0     C60139   6.850   6.353   6.181 -0.5278  0.6601  1.0311
  446MOL0     C60140   6.383   6.224   6.695  0.5611  0.1622 -0.5079
  446MOL0     C60141   6.300   6.264   6.799  0.4309 -0.6101 -0.1274
  446MOL0     C60142   6.153   6.266   6.769  0.1080 -0.7366 -0.0275
  446MOL0     H60143   6.073   6.291   7.279  1.0434  0.0481 -0.7392
  446MOL0     H60144   5.960   6.428   7.445 -0.2047 -2.0724 -0.9433
  446MOL0     H60145   5.882   6.862   7.361  2.7008 -1.3118  1.1681
  446MOL0     H60146   5.758   6.737   7.376 -0.4388 -0.3648 -0.4171
  446MOL0     H60147   5.744   6.927   7.544 -1.3642 -1.6639 -2.3667
  446MOL0     H60148   5.895   6.876   7.615  0.1634 -0.1336  0.9179
  446MOL0     H60149   5.739   6.639   7.636 -0.5015  1.0198  1.1333
  446MOL0     H60150   5.619   6.768   7.634 -0.4068  1.0046 -0.2619
  446MOL0     H60151   5.857   6.780   7.815  0.1288  2.8716 -3.4268
  446MOL0     H60152   5.698   6.858   7.840  1.4205  1.6083  0.6279
  446MOL0     H60153   5.647   6.694   7.984 -0.1872 -0.1475 -0.6853
  446MOL0     H60154   5.582   6.648   7.828 -0.9651  4.0931  0.4607
  446MOL0     H60155   5.793   6.498   7.796 -1.3014  1.7228 -0.5278
  446MOL0     H60156   5.835   6.523   7.962  2.8301  1.6364 -3.5018
  446MOL0     H60157   5.607   6.405   8.005  2.1941  0.3135  2.9639
  446MOL0     H60158   5.741   6.309   7.981 -1.4877 -0.0701  0.7486
  446MOL0     H60159   5.532   6.406   7.768  0.8790  1.6194  0.3591
  446MOL0     H60160   5.668   6.312   7.711 -2.2247 -0.9928 -1.2221
  446MOL0     H60161   5.701   6.066   7.790  0.2041 -0.6981 -1.0052
  446MOL0     H60162   5.476   5.784   7.845 -0.2882  2.0131 -0.9589
  446MOL0     H60163   5.641   5.821   7.843  0.6493 -1.0677  2.2957
  446MOL0     H60164   5.645   5.922   8.079  2.1393 -1.6728  1.7785
  446MOL0     H60165   5.496   5.836   8.117 -1.3601 -0.9186 -1.3942
  446MOL0     H60166   5.735   5.704   8.002  0.5919 -0.6243  0.6037
  446MOL0     H60167   5.566   5.627   8.017 -0.8006 -2.2011  3.0882
  446MOL0     H60168   5.575   5.640   8.247 -1.9480  3.1758 -2.8110
  446MOL0     H60169   5.721   5.736   8.259  0.7263  0.1866 -1.3028
  446MOL0     H60170   6.000   5.573   8.294  1.6048 -0.4493  1.4504
  446MOL0     H60171   6.077   5.464   8.502  0.2061 -3.8628  1.0471
  446MOL0     H60172   5.747   5.311   8.973  1.0649  2.1092 -1.1259
  446MOL0     H60173   5.790   5.202   9.204 -1.1361  1.5181 -1.1905
  446MOL0     H60174   5.796   4.976   9.339 -0.3049 -1.3660 -0.6954
  446MOL0     H60175   5.887   4.877   9.215 -1.4480  2.8014 -1.9502
  446MOL0     H60176   6.016   4.787   9.386 -0.9402 -1.9238  1.2311
  446MOL0     H60177   5.965   4.917   9.503 -1.7104  2.8546 -0.9331
  446MOL0     H60178   5.723   4.809   9.464  0.8740 -0.2610  1.0718
  446MOL0     H60179   5.812   4.686   9.373  2.6316 -1.6622 -0.6869
  446MOL0     H60180   5.738   4.613   9.600 -0.5928  1.5481  0.8680
  446MOL0     H60181   5.859   4.730   9.669 -0.0239 -1.4051  1.4283
  446MOL0     H60182   6.040   4.595   9.569 -0.0034  0.6359  0.6405
  446MOL0     H60183   5.924   4.516   9.470 -0.4821  0.0080  0.7272
  446MOL0     H60184   5.914   4.503   9.772 -4.0728 -0.6706  0.2313
  446MOL0     H60185   5.818   4.417   9.668 -0.1900  1.0193 -0.1207
  446MOL0     H60186   6.093   4.339   9.597  1.7616 -2.6580  1.6287
  446MOL0     H60187   5.978   4.248   9.706  2.3835 -3.1368 -0.8767
  446MOL0     H60188   6.082   4.384   9.897  3.2036 -2.5128  1.8110
  446MOL0     H60189   6.197   4.293   9.804 -0.3440  0.3252  1.4694
  446MOL0     H60190   6.091   4.954   9.026 -0.2251 -0.8709  0.3194
  446MOL0     H60191   6.048   5.077   8.793  0.7775 -1.3661  0.7645
  446MOL0     H60192   5.682   5.303   8.571 -0.5630  1.9979  1.1906
  446MOL0     H60193   5.617   5.438   8.366 -0.8700  2.8254  2.2452
  446MOL0     H60194   5.958   6.764   7.180  3.4421  0.8641 -1.3453
  446MOL0     H60195   6.056   6.629   7.004 -2.5381  0.2178  0.1288
  446MOL0     H60196   6.545   6.322   7.031 -0.2593  0.6304  0.7172
  446MOL0     H60197   6.689   6.254   6.832  0.4874  0.9593 -2.0247
  446MOL0     H60198   6.569   6.003   6.587  0.2819 -0.1197  0.2793
  446MOL0     H60199   6.703   6.046   6.687 -0.8839 -0.5873 -0.4167
  446MOL0     H60200   6.708   6.032   6.389  2.6027  2.6618 -0.9268
  446MOL0     H60201   6.805   5.950   6.517 -0.5697 -0.9762  2.2621
  446MOL0     H60202   6.928   6.130   6.550 -2.9392  2.3519  2.3987
  446MOL0     H60203   6.819   6.247   6.485 -0.5123  0.3263 -0.3846
  446MOL0     H60204   7.036   6.167   6.334 -1.8078  3.4252 -1.7599
  446MOL0     H60205   6.918   6.058   6.274  0.8090  0.3729 -1.3208
  446MOL0     H60206   6.824   6.436   6.119  0.3733  0.9890  1.0728
  446MOL0     H60207   6.339   6.200   6.599 -2.9209 -2.6223  1.5036
  446MOL0     H60208   6.134   6.241   6.664  0.5381 -4.4683  0.6493
  446MOL0     H60209   6.096   6.195   6.829 -0.9952  0.6182  0.5859
  446MOL0     H60210   6.114   6.368   6.783  1.5727 -0.1826  0.2229
  447MOL0     O60211   3.704   2.999   9.168  0.1731  0.2066 -0.0085
  447MOL0     C60212   3.616   2.918   9.186  0.3599 -0.3796  0.3968
  447MOL0     O60213   3.639   2.788   9.224 -0.2030  0.2196 -0.1213
  447MOL0     C60214   3.761   2.752   9.268 -1.1591 -0.0836 -0.7440
  447MOL0     C60215   3.823   2.647   9.195 -0.5110 -0.4817 -1.0615
  447MOL0     C60216   3.945   2.595   9.255  0.5053 -0.2984  0.7231
  447MOL0     C60217   4.006   2.645   9.370 -0.6163  0.3803 -0.2935
  447MOL0     O60218   4.130   2.605   9.419 -0.1528  0.7621  0.5549
  447MOL0     C60219   4.145   2.458   9.442 -0.2926  0.3015 -0.5411
  447MOL0     C60220   4.039   2.400   9.536  0.0503 -0.8950 -0.3044
  447MOL0     C60221   4.028   2.444   9.677  0.4472 -1.7925  0.6362
  447MOL0     C60222   4.020   2.324   9.770  0.0191  0.6558 -0.6895
  447MOL0     C60223   3.987   2.365   9.924  0.8079  0.0949 -0.3154
  447MOL0     C60224   3.986   2.241  10.023  0.5157  0.1676  0.0345
  447MOL0     C60225   3.865   2.159  10.002  0.4684  0.7488  0.9116
  447MOL0     C60226   3.726   2.203  10.059 -0.9630 -0.6043 -0.9685
  447MOL0     N60227   3.630   2.102  10.024 -0.0374 -0.3739 -0.4324
  447MOL0     C60228   3.602   1.992  10.106 -0.5119 -0.1237  1.0238
  447MOL0     C60229   3.532   1.905  10.026 -0.7065 -0.4253 -0.3893
  447MOL0     C60230   3.488   1.774  10.084 -0.2487 -0.8564  0.7429
  447MOL0     C60231   3.341   1.778  10.108 -0.4330  0.9115 -0.1333
  447MOL0     C60232   3.308   1.655  10.192 -0.6057 -0.0125 -1.2224
  447MOL0     C60233   3.156   1.655  10.228  0.1035  0.3929 -0.1465
  447MOL0     O60234   3.086   1.615  10.108  0.0978  0.3057  0.0485
  447MOL0     C60235   2.953   1.615  10.119 -0.1333 -0.1153 -0.3704
  447MOL0     C60236   2.897   1.564  10.008 -0.0580 -0.6222 -0.1592
  447MOL0     C60237   2.761   1.557   9.990  0.0098  0.8319 -0.3999
  447MOL0     C60238   2.673   1.596  10.099 -0.5848 -0.4320 -0.2376
  447MOL0     C60239   2.525   1.579  10.092  0.0972  0.6009  0.4008
  447MOL0     O60240   2.455   1.624  10.199 -0.4408 -0.2790 -0.0453
  447MOL0     C60241   2.324   1.608  10.208 -0.0077  0.7051  0.0902
  447MOL0     C60242   2.234   1.624  10.103  0.4137 -0.5259 -1.3050
  447MOL0     C60243   2.097   1.618  10.133 -0.9552  0.3060  0.0768
  447MOL0     C60244   2.050   1.609  10.265 -1.0693 -0.7900 -1.2864
  447MOL0     O60245   1.918   1.589  10.295  0.6919  0.4931 -0.1961
  447MOL0     C60246   1.816   1.671  10.239  1.0213  0.7360  0.4363
  447MOL0     C60247   1.689   1.583  10.250 -0.1926 -1.2915 -0.4358
  447MOL0     C60248   1.715   1.461  10.165  0.0041  0.2193 -0.1606
  447MOL0     C60249   1.587   1.381  10.145  0.3765 -0.6473  0.9204
  447MOL0     C60250   1.540   1.361   9.997  0.3831  0.2542  0.0340
  447MOL0     C60251   1.427   1.262   9.991  0.9201  0.9424 -0.2338
  447MOL0     C60252   1.402   1.231   9.850 -0.1406  0.2176  1.3528
  447MOL0     C60253   1.315   1.113   9.822 -0.5396 -0.0157  0.4697
  447MOL0    Cl60254   1.275   1.104   9.647 -0.3820  0.2434  0.4102
  447MOL0     C60255   2.149   1.603  10.366  0.6750  1.6293  0.3708
  447MOL0     C60256   2.280   1.593  10.342  0.5982 -0.2365 -0.7819
  447MOL0     O60257   2.478   1.524   9.998  0.0277  0.5542  0.9166
  447MOL0     C60258   2.734   1.653  10.208 -0.3027  0.5496 -0.4523
  447MOL0     C60259   2.871   1.661  10.221  0.4777  0.4605 -0.6850
  447MOL0     N60260   3.519   1.965   9.901  0.2260 -0.2179 -0.2424
  447MOL0     N60261   3.583   2.072   9.900  0.2039 -0.7037 -0.1407
  447MOL0     C60262   3.951   2.750   9.432  0.0516 -0.1468 -0.1905
  447MOL0     C60263   3.831   2.812   9.383 -0.6323 -1.2569 -0.0560
  447MOL0     C60264   3.480   2.953   9.147  0.4193  0.4565  0.0353
  447MOL0     C60265   3.419   2.866   9.055  0.0760 -0.3085  0.2251
  447MOL0     C60266   3.307   2.913   8.981 -0.2507 -0.0471 -0.0663
  447MOL0     C60267   3.252   3.039   9.005 -0.1822  0.9945 -0.5413
  447MOL0     O60268   3.138   3.096   8.964 -0.2877  0.7912 -0.0312
  447MOL0     C60269   3.080   3.065   8.838  0.0349 -0.1468  1.1308
  447MOL0     C60270   3.131   3.165   8.736 -0.6502  0.4721  0.1171
  447MOL0     C60271   3.079   3.103   8.602 -0.2829  1.2393  0.1688
  447MOL0     C60272   3.071   3.208   8.493 -0.0324  1.0477  0.1569
  447MOL0     C60273   2.962   3.302   8.497 -0.1141 -0.5604  0.6755
  447MOL0     C60274   2.877   3.394   8.497  0.1951 -0.7114  1.8755
  447MOL0     C60275   3.317   3.128   9.100  0.2534 -0.6482  0.5074
  447MOL0     C60276   3.433   3.090   9.167  0.7645 -0.0155  1.1471
  447MOL0     C60277   3.503   3.183   9.266  0.1699 -0.0361  0.2444
  447MOL0     H60278   3.775   2.593   9.115 -0.7087 -1.4630 -0.2971
  447MOL0     H60279   3.986   2.503   9.214 -0.1579 -1.7744  3.1803
  447MOL0     H60280   4.140   2.397   9.351  0.5280 -0.2231 -0.2452
  447MOL0     H60281   4.238   2.433   9.493 -1.6327  0.1264  1.9424
  447MOL0     H60282   4.070   2.295   9.525  0.1768 -0.7052 -2.0527
  447MOL0     H60283   3.944   2.396   9.482 -1.6099 -0.0473  2.3466
  447MOL0     H60284   3.933   2.497   9.693  0.5437 -0.6501 -1.9794
  447MOL0     H60285   4.101   2.513   9.721  1.1059 -2.4887  0.6619
  447MOL0     H60286   3.961   2.237   9.739  0.2383  0.5907 -0.9288
  447MOL0     H60287   4.120   2.281   9.777 -0.9616 -1.6046  0.7161
  447MOL0     H60288   4.060   2.430   9.972  2.1928 -1.6597  0.0353
  447MOL0     H60289   3.891   2.419   9.931  0.8669  0.5372 -2.3229
  447MOL0     H60290   4.077   2.185  10.003  1.0072  0.3130  1.6977
  447MOL0     H60291   3.992   2.274  10.128 -0.4042 -1.4365  0.6297
  447MOL0     H60292   3.894   2.068  10.055  0.5904  2.2313  3.5435
  447MOL0     H60293   3.847   2.137   9.896 -0.9019  0.2944  1.2163
  447MOL0     H60294   3.726   2.226  10.166 -1.1736  2.5392 -1.5411
  447MOL0     H60295   3.701   2.288   9.994 -0.9408 -0.0683 -0.2958
  447MOL0     H60296   3.640   1.969  10.206  1.0576 -2.7878 -0.0638
  447MOL0     H60297   3.513   1.694  10.014 -2.1842 -0.1793 -0.7773
  447MOL0     H60298   3.545   1.765  10.178 -0.7802  3.0284  1.5970
  447MOL0     H60299   3.311   1.869  10.160 -1.2255  0.3968  0.3402
  447MOL0     H60300   3.291   1.776  10.011 -1.8196  2.3063  0.4988
  447MOL0     H60301   3.366   1.669  10.284 -1.2714 -0.7213 -0.6861
  447MOL0     H60302   3.345   1.569  10.136  2.6158  0.7460 -0.4553
  447MOL0     H60303   3.130   1.753  10.269  2.1666  1.1887 -0.6029
  447MOL0     H60304   3.143   1.578  10.305  2.4768  0.9347  0.8825
  447MOL0     H60305   2.963   1.531   9.928  0.9387 -0.2054  0.4650
  447MOL0     H60306   2.730   1.500   9.903 -0.4808 -1.0005  0.9082
  447MOL0     H60307   2.278   1.651  10.007 -2.4752  3.0241 -1.8724
  447MOL0     H60308   2.039   1.625  10.041  0.9476  1.1998 -1.1161
  447MOL0     H60309   1.792   1.769  10.279 -4.6460  0.4509 -1.4132
  447MOL0     H60310   1.837   1.673  10.131 -0.8289 -0.5403  0.0180
  447MOL0     H60311   1.660   1.552  10.351 -0.3639 -0.6626 -0.2840
  447MOL0     H60312   1.605   1.635  10.203 -1.1098 -1.6735  0.7296
  447MOL0     H60313   1.755   1.488  10.067  0.9134  5.4742  1.3825
  447MOL0     H60314   1.791   1.398  10.212  1.9851  2.5089 -0.1121
  447MOL0     H60315   1.503   1.423  10.201  0.5504  3.2067 -1.3716
  447MOL0     H60316   1.614   1.282  10.181  1.6063 -1.1563 -1.2192
  447MOL0     H60317   1.623   1.322   9.938  0.7195  0.4571  0.3642
  447MOL0     H60318   1.505   1.458   9.960 -1.7014 -0.9403 -1.3520
  447MOL0     H60319   1.453   1.173  10.049  1.9904  0.6233 -1.1750
  447MOL0     H60320   1.344   1.312  10.041  2.0964  1.3604  1.3641
  447MOL0     H60321   1.499   1.216   9.802 -0.3375  2.6352  0.0191
  447MOL0     H60322   1.357   1.314   9.795  0.6224 -0.7457 -0.8232
  447MOL0     H60323   1.352   1.017   9.859  1.0467 -0.2578 -1.5603
  447MOL0     H60324   1.224   1.136   9.878 -1.8945  0.0387 -1.6426
  447MOL0     H60325   2.110   1.583  10.466  1.9145  0.5660  0.6703
  447MOL0     H60326   2.358   1.590  10.417 -0.6058 -0.1252  0.5183
  447MOL0     H60327   2.671   1.711  10.274  3.2470  3.0825  1.0683
  447MOL0     H60328   2.909   1.705  10.313 -1.2494  4.7474 -1.7930
  447MOL0     H60329   3.993   2.788   9.525 -0.4119 -0.1878  0.0443
  447MOL0     H60330   3.780   2.888   9.443  0.3699  1.0442 -1.9393
  447MOL0     H60331   3.471   2.773   9.032  2.3044  1.4611 -2.6147
  447MOL0     H60332   3.259   2.850   8.906  3.0240 -2.0795 -0.6346
  447MOL0     H60333   2.972   3.079   8.843 -0.2224 -1.3016 -0.5120
  447MOL0     H60334   3.097   2.963   8.803  1.8681  1.0594 -2.0018
  447MOL0     H60335   3.238   3.188   8.743 -0.4349 -0.8128  1.7659
  447MOL0     H60336   3.085   3.259   8.765 -0.5110  1.2666 -2.0483
  447MOL0     H60337   2.985   3.050   8.620 -0.1016 -0.0246 -2.1184
  447MOL0     H60338   3.161   3.041   8.564  0.1883  2.0796 -0.2077
  447MOL0     H60339   3.166   3.261   8.507  0.1939  0.1828  2.1376
  447MOL0     H60340   3.058   3.159   8.396 -2.6106  2.0358 -0.0769
  447MOL0     H60341   2.798   3.465   8.487 -0.0969 -0.9197  2.6129
  447MOL0     H60342   3.266   3.216   9.137  0.2151 -0.3007 -0.3503
  447MOL0     H60343   3.538   3.130   9.356  0.7560  0.0897  0.0951
  447MOL0     H60344   3.586   3.229   9.211 -0.3482 -0.0534 -0.5611
  447MOL0     H60345   3.440   3.270   9.287 -1.2347 -1.1935  1.0334
  448MOL0     O60346   3.702   6.086   7.593  0.0960 -0.6782 -0.0689
  448MOL0     C60347   3.823   6.067   7.573 -1.5588 -0.2855  0.7508
  448MOL0     O60348   3.918   6.113   7.656 -0.4129 -0.3380  0.2729
  448MOL0     C60349   3.882   6.121   7.787  0.8221  0.5468  0.0297
  448MOL0     C60350   3.921   6.236   7.856  0.5416 -0.1307 -0.2370
  448MOL0     C60351   3.895   6.268   7.994  1.0940  0.7693  0.7709
  448MOL0     C60352   3.840   6.163   8.069 -0.3183  0.7911  0.5249
  448MOL0     O60353   3.816   6.183   8.204  0.5714 -1.0878  0.3166
  448MOL0     C60354   3.840   6.071   8.289 -0.0707 -0.2405 -0.6052
  448MOL0     C60355   3.889   6.100   8.431 -0.5718 -1.2644  0.4372
  448MOL0     C60356   4.046   6.132   8.420 -0.2855  0.6338 -0.2505
  448MOL0     C60357   4.099   6.161   8.566  0.2307 -0.2867 -0.2757
  448MOL0     C60358   4.109   6.037   8.665 -0.1383 -0.0781  0.4211
  448MOL0     C60359   4.107   6.070   8.816 -0.5621 -0.2614  0.4031
  448MOL0     C60360   4.227   6.161   8.855 -0.1251  0.0148 -0.1004
  448MOL0     C60361   4.226   6.183   9.013  0.5995 -0.0258  0.4061
  448MOL0     N60362   4.353   6.241   9.037 -0.3248  0.1442 -0.0503
  448MOL0     C60363   4.365   6.364   9.070  0.3862 -0.5627 -0.3979
  448MOL0     C60364   4.491   6.398   9.055  0.0076 -0.4974 -0.6008
  448MOL0     C60365   4.551   6.537   9.081 -0.1660  1.3007  0.8291
  448MOL0     C60366   4.556   6.621   8.950 -0.1733  0.1729 -0.3280
  448MOL0     C60367   4.647   6.577   8.837  0.5475 -0.1092  0.4217
  448MOL0     C60368   4.664   6.672   8.724  1.0983 -1.0749  0.4135
  448MOL0     O60369   4.536   6.722   8.668 -1.0528  0.1091 -0.2167
  448MOL0     C60370   4.552   6.809   8.569 -0.5041 -0.6118  0.5563
  448MOL0     C60371   4.669   6.856   8.515 -0.3241  0.6187 -0.7603
  448MOL0     C60372   4.678   6.962   8.423 -0.0905 -0.1976  0.0036
  448MOL0     C60373   4.559   7.022   8.373 -0.3054 -1.1095 -0.4850
  448MOL0     C60374   4.553   7.129   8.272 -1.0610 -0.0042  0.0318
  448MOL0     O60375   4.432   7.185   8.237  0.3650  0.1373 -0.1907
  448MOL0     C60376   4.436   7.272   8.128  0.5003  0.5258  0.4378
  448MOL0     C60377   4.413   7.224   7.999 -0.0343  0.3009 -0.9065
  448MOL0     C60378   4.399   7.319   7.901 -0.5315  0.5328  0.2205
  448MOL0     C60379   4.426   7.461   7.921 -1.0756  0.2301  0.3016
  448MOL0     O60380   4.417   7.541   7.803  0.0759 -0.5176 -0.0491
  448MOL0     C60381   4.471   7.671   7.803  0.6325 -0.3704 -0.6699
  448MOL0     C60382   4.630   7.674   7.813  1.2494 -0.0015  0.2471
  448MOL0     C60383   4.676   7.807   7.741  0.3088 -0.1185  0.5577
  448MOL0     C60384   4.615   7.936   7.797  0.1254 -1.0272 -0.3372
  448MOL0     C60385   4.654   8.055   7.717 -1.0489 -0.4667  0.1660
  448MOL0     C60386   4.566   8.184   7.758  1.0804 -0.1884  0.4142
  448MOL0     C60387   4.597   8.313   7.681  0.3884 -0.4132 -0.3530
  448MOL0     C60388   4.506   8.428   7.730  0.2730  0.2107  0.4492
  448MOL0    Cl60389   4.499   8.460   7.902  0.3264  0.1976 -0.1961
  448MOL0     C60390   4.463   7.502   8.046 -0.6771  0.3458  0.7566
  448MOL0     C60391   4.453   7.407   8.152  0.0730  0.9658 -0.9445
  448MOL0     O60392   4.665   7.145   8.207  0.1308  0.0464 -0.4390
  448MOL0     C60393   4.443   6.969   8.428 -0.1428  0.4188 -0.5373
  448MOL0     C60394   4.444   6.869   8.520 -0.5282  1.0573  0.4877
  448MOL0     N60395   4.560   6.284   9.031  0.7879  0.1663 -0.4751
  448MOL0     N60396   4.477   6.185   9.026 -0.4553  0.7000  0.4795
  448MOL0     C60397   3.800   6.047   7.996  0.3182 -0.0788  0.4308
  448MOL0     C60398   3.820   6.026   7.861 -0.1372 -0.8556  1.1063
  448MOL0     C60399   3.876   6.022   7.447 -0.4489  0.3531  0.4227
  448MOL0     C60400   4.020   6.038   7.423 -0.5048 -0.7736  0.3794
  448MOL0     C60401   4.080   6.031   7.297  0.5026  0.7413 -0.0121
  448MOL0     C60402   4.013   5.973   7.192 -0.2242 -0.3744  0.0612
  448MOL0     O60403   4.065   5.928   7.068  0.1539  0.2324 -0.9975
  448MOL0     C60404   4.197   5.950   7.051 -0.4089 -0.4433  0.1344
  448MOL0     C60405   4.216   5.940   6.904  0.3399  0.0042 -0.5405
  448MOL0     C60406   4.200   5.800   6.846  0.2623 -0.1919 -1.3900
  448MOL0     C60407   4.298   5.688   6.890  0.8789 -0.3175  0.6044
  448MOL0     C60408   4.243   5.559   6.836  0.4818 -0.9593  0.3073
  448MOL0     C60409   4.200   5.461   6.786 -0.1636  0.5050  0.2016
  448MOL0     C60410   3.880   5.937   7.218  0.6972  0.2594  0.5899
  448MOL0     C60411   3.811   5.963   7.336  0.8535  0.1384  0.0396
  448MOL0     C60412   3.669   5.900   7.337 -0.1574 -0.0862 -0.0104
  448MOL0     H60413   3.966   6.320   7.804 -0.4353  2.5262  2.8651
  448MOL0     H60414   3.931   6.361   8.037  2.3066  0.6509  0.0574
  448MOL0     H60415   3.741   6.032   8.316 -1.2827  1.6359 -2.0370
  448MOL0     H60416   3.908   5.997   8.247  2.2418  1.2652  0.2940
  448MOL0     H60417   3.870   6.006   8.484 -1.3761 -2.1890 -1.4408
  448MOL0     H60418   3.848   6.191   8.477  0.5371  0.6544 -2.1330
  448MOL0     H60419   4.072   6.229   8.374 -3.4207  2.6629  1.8969
  448MOL0     H60420   4.099   6.044   8.384 -0.1620 -0.2156  1.8956
  448MOL0     H60421   4.204   6.191   8.567 -0.2626  1.5675 -0.8068
  448MOL0     H60422   4.045   6.246   8.608  1.9162  0.9480 -0.5050
  448MOL0     H60423   4.023   5.970   8.655 -2.2632  2.3646  1.3738
  448MOL0     H60424   4.200   5.977   8.657  1.0170  1.7159 -0.3997
  448MOL0     H60425   4.010   6.113   8.845 -2.4194 -3.4253 -0.5425
  448MOL0     H60426   4.106   5.978   8.875  1.6288 -1.4962 -1.3615
  448MOL0     H60427   4.230   6.259   8.807  0.5924  0.5461  0.9948
  448MOL0     H60428   4.317   6.102   8.833 -1.4146 -1.6312 -1.2626
  448MOL0     H60429   4.145   6.251   9.040 -1.1239 -0.7169 -2.6616
  448MOL0     H60430   4.219   6.087   9.064  0.9934 -0.4072 -0.2447
  448MOL0     H60431   4.286   6.433   9.098  1.7191  0.3113  1.5121
  448MOL0     H60432   4.499   6.596   9.157  1.3102  0.9420  2.1693
  448MOL0     H60433   4.656   6.529   9.109  0.5870 -3.0023 -2.2649
  448MOL0     H60434   4.452   6.621   8.915 -0.3532  2.5980  0.0862
  448MOL0     H60435   4.588   6.722   8.975  1.7559  0.3751 -3.1856
  448MOL0     H60436   4.607   6.485   8.795  1.9214 -0.7881  0.5332
  448MOL0     H60437   4.751   6.557   8.866  0.5107  1.2060  1.6131
  448MOL0     H60438   4.727   6.613   8.657  0.2181 -2.3531  0.6629
  448MOL0     H60439   4.725   6.760   8.746 -0.9134  0.6672 -0.6065
  448MOL0     H60440   4.767   6.823   8.548 -0.1364  3.1177  1.5371
  448MOL0     H60441   4.776   6.988   8.385 -0.1936 -1.5937 -1.3753
  448MOL0     H60442   4.412   7.116   7.990  2.0937  0.0009  1.3751
  448MOL0     H60443   4.361   7.285   7.806 -0.5057 -0.7476  0.6553
  448MOL0     H60444   4.437   7.725   7.715 -1.0386 -1.0224 -0.4646
  448MOL0     H60445   4.441   7.729   7.890  0.3475  2.9730 -2.8427
  448MOL0     H60446   4.674   7.666   7.913 -0.4185 -3.7682  0.8782
  448MOL0     H60447   4.662   7.587   7.756  1.4897  0.1886  0.0909
  448MOL0     H60448   4.784   7.816   7.753  0.5296 -0.3733 -0.9526
  448MOL0     H60449   4.649   7.804   7.635  0.5707  1.2947  0.4340
  448MOL0     H60450   4.660   7.958   7.894 -3.3180  2.6007  0.6790
  448MOL0     H60451   4.507   7.929   7.807 -0.1538  1.9936 -0.4273
  448MOL0     H60452   4.660   8.023   7.612  1.3038 -1.3194  0.4815
  448MOL0     H60453   4.756   8.089   7.740 -2.3690  3.6319  0.7346
  448MOL0     H60454   4.462   8.156   7.739  0.9139  2.2987 -3.5668
  448MOL0     H60455   4.582   8.204   7.865  1.1040  3.4165 -0.1282
  448MOL0     H60456   4.574   8.293   7.576  1.8862 -1.3813 -0.5284
  448MOL0     H60457   4.700   8.339   7.707 -0.5059  0.6082  2.5586
  448MOL0     H60458   4.537   8.518   7.677  0.3964  1.0814  1.9472
  448MOL0     H60459   4.406   8.411   7.689  0.1745 -2.6878  1.6847
  448MOL0     H60460   4.482   7.608   8.058 -0.4885  0.5223 -0.9327
  448MOL0     H60461   4.464   7.440   8.255  3.8761 -0.4178 -0.7264
  448MOL0     H60462   4.347   7.016   8.404 -1.2264 -1.7991 -0.7712
  448MOL0     H60463   4.350   6.833   8.559 -0.0648 -0.3365  0.3641
  448MOL0     H60464   3.759   5.958   8.043 -0.7802  0.0856 -0.2002
  448MOL0     H60465   3.789   5.936   7.809  1.6853 -0.3268 -1.0344
  448MOL0     H60466   4.082   6.080   7.501  0.0587  2.7018 -1.7154
  448MOL0     H60467   4.185   6.056   7.288  0.5258  1.3655  1.5971
  448MOL0     H60468   4.265   5.894   7.116  0.3397  1.6314  1.2374
  448MOL0     H60469   4.226   6.050   7.084 -0.2580 -0.1103 -0.9664
  448MOL0     H60470   4.309   5.992   6.881 -0.6794  1.2621 -2.0586
  448MOL0     H60471   4.149   6.012   6.856  1.2007  1.4273  0.3462
  448MOL0     H60472   4.205   5.812   6.737  0.7121 -0.7186 -1.4338
  448MOL0     H60473   4.101   5.768   6.878  1.0878 -1.2178  0.2850
  448MOL0     H60474   4.400   5.710   6.857  0.1791  2.8080  0.3041
  448MOL0     H60475   4.295   5.683   6.999  0.1863 -2.2177  0.5389
  448MOL0     H60476   4.153   5.389   6.722  1.6272  0.5908 -1.2799
  448MOL0     H60477   3.823   5.881   7.144 -3.2687 -0.5440  3.8990
  448MOL0     H60478   3.601   5.975   7.294 -0.5703  1.4087  2.9786
  448MOL0     H60479   3.658   5.804   7.285  1.6808  1.4475 -3.5494
  448MOL0     H60480   3.619   5.890   7.434 -2.5048 -2.0040 -1.3013
  449MOL0     O60481   4.692   2.153  10.209 -0.4675  0.2483 -0.1843
  449MOL0     C60482   4.693   2.060  10.289 -0.1045 -0.2546  0.0636
  449MOL0     O60483   4.654   2.059  10.415  0.1689  0.1306  0.4333
  449MOL0     C60484   4.675   2.157  10.509 -0.9062 -0.2417 -1.2202
  449MOL0     C60485   4.611   2.153  10.633 -0.1507 -0.4990  0.0632
  449MOL0     C60486   4.639   2.249  10.738  0.0509  0.7686  0.3962
  449MOL0     C60487   4.731   2.352  10.714  0.3889  0.1703  0.0660
  449MOL0     O60488   4.748   2.445  10.805 -0.3883  0.7547  0.6834
  449MOL0     C60489   4.765   2.578  10.753 -0.3311  0.4934  0.7275
  449MOL0     C60490   4.917   2.601  10.759  0.0037  0.2333  0.1301
  449MOL0     C60491   4.978   2.631  10.905 -0.8408  0.5188  0.1816
  449MOL0     C60492   5.130   2.651  10.911 -0.0299  0.1950  0.5366
  449MOL0     C60493   5.193   2.635  11.057  0.2198 -0.7590 -0.4080
  449MOL0     C60494   5.170   2.740  11.167 -0.2440 -0.0728 -0.3573
  449MOL0     C60495   5.239   2.869  11.115  0.0719  0.7886 -0.0016
  449MOL0     C60496   5.260   2.968  11.223  0.0863 -0.1945 -0.4286
  449MOL0     N60497   5.330   3.098  11.179 -0.0919 -0.0713 -0.0215
  449MOL0     C60498   5.269   3.178  11.078 -0.0975  0.6787 -0.6260
  449MOL0     C60499   5.339   3.285  11.070 -0.4549  0.4353  0.6165
  449MOL0     C60500   5.313   3.414  10.991  0.3563  0.6814  0.2490
  449MOL0     C60501   5.186   3.481  11.036 -0.4908 -1.2281 -0.4645
  449MOL0     C60502   5.192   3.640  11.052 -0.6217  0.9367  1.1363
  449MOL0     C60503   5.221   3.702  10.911  0.9678  1.0867  0.7717
  449MOL0     O60504   5.354   3.681  10.855 -0.2202 -0.1948  0.1901
  449MOL0     C60505   5.446   3.788  10.854  0.8913 -0.0015 -0.9305
  449MOL0     C60506   5.415   3.912  10.923 -0.9892  0.1568  1.0956
  449MOL0     C60507   5.501   4.024  10.887  0.3865 -0.0135 -0.3329
  449MOL0     C60508   5.617   4.015  10.809  0.0391  0.1181 -0.4766
  449MOL0     C60509   5.705   4.127  10.791 -0.0555 -0.3655  0.2537
  449MOL0     O60510   5.805   4.117  10.687  0.6402 -0.2544 -0.3081
  449MOL0     C60511   5.938   4.147  10.686 -0.8288 -0.5141 -0.5298
  449MOL0     C60512   6.021   4.146  10.571  0.2663  1.8172 -0.2087
  449MOL0     C60513   6.160   4.172  10.575  1.5902 -0.4663  0.1927
  449MOL0     C60514   6.221   4.188  10.701 -0.1401 -0.6692 -0.4407
  449MOL0     O60515   6.354   4.216  10.720 -0.1973 -0.5557  0.4049
  449MOL0     C60516   6.407   4.292  10.602  0.2235  1.0480 -1.0819
  449MOL0     C60517   6.540   4.351  10.647  0.0442 -0.1905  0.0886
  449MOL0     C60518   6.639   4.240  10.662 -0.0634 -1.4396 -0.8370
  449MOL0     C60519   6.777   4.294  10.684 -0.2177  0.3081 -0.2381
  449MOL0     C60520   6.889   4.193  10.657 -0.2919  0.4230 -0.1726
  449MOL0     C60521   7.015   4.196  10.748 -0.1883  0.1870 -0.6742
  449MOL0     C60522   7.083   4.331  10.708 -0.2180  0.2930 -0.5924
  449MOL0     C60523   7.226   4.360  10.758 -0.7522 -0.0799  0.0546
  449MOL0    Cl60524   7.252   4.337  10.937  0.2276 -0.1880 -0.3432
  449MOL0     C60525   6.142   4.196  10.817 -1.0966  0.2978 -1.1728
  449MOL0     C60526   6.002   4.178  10.805 -0.2684 -0.5388 -0.6203
  449MOL0     O60527   5.697   4.218  10.872  0.6244 -0.4735  0.8648
  449MOL0     C60528   5.656   3.889  10.780 -0.0229  0.2471 -0.7413
  449MOL0     C60529   5.571   3.776  10.789  0.7633 -0.9149  0.4666
  449MOL0     N60530   5.440   3.272  11.169  0.1888  0.1924 -0.9410
  449MOL0     N60531   5.441   3.162  11.231 -0.2141 -0.5849 -0.0673
  449MOL0     C60532   4.798   2.353  10.587 -0.4902  0.2964  0.3530
  449MOL0     C60533   4.760   2.264  10.487  0.6071  1.1919 -0.2615
  449MOL0     C60534   4.754   1.930  10.257 -0.1060 -0.2346 -0.4888
  449MOL0     C60535   4.755   1.832  10.354  0.5462  0.6780 -0.6560
  449MOL0     C60536   4.832   1.714  10.341 -0.6140  0.2498  0.4341
  449MOL0     C60537   4.911   1.689  10.228  0.2952 -0.2877 -0.2192
  449MOL0     O60538   4.985   1.579  10.216 -0.3256 -0.0196  0.0353
  449MOL0     C60539   5.105   1.582  10.299 -0.5012  0.4658  0.6845
  449MOL0     C60540   5.196   1.470  10.270 -0.3787 -0.6658 -0.4013
  449MOL0     C60541   5.286   1.489  10.150 -1.0697  0.1387  0.3461
  449MOL0     C60542   5.416   1.410  10.168 -0.3665  0.4539  0.0352
  449MOL0     C60543   5.457   1.363  10.033  0.4167  0.1403  0.1456
  449MOL0     C60544   5.472   1.336   9.918  0.8362 -0.1607  0.1550
  449MOL0     C60545   4.902   1.785  10.125 -0.9243 -0.0938 -0.7103
  449MOL0     C60546   4.827   1.904  10.136  0.9689  0.1885 -0.4198
  449MOL0     C60547   4.854   2.006  10.036  1.3725 -0.2942 -0.2102
  449MOL0     H60548   4.549   2.065  10.644 -0.6505  0.1180  2.9882
  449MOL0     H60549   4.590   2.240  10.834 -0.0200 -1.2899  0.2009
  449MOL0     H60550   4.724   2.603  10.654 -1.5351  2.4805  1.6674
  449MOL0     H60551   4.717   2.653  10.816  1.1828  1.5403  0.6918
  449MOL0     H60552   4.929   2.690  10.696  1.7547 -1.0666 -1.5078
  449MOL0     H60553   4.964   2.517  10.707  2.5670  1.1973  0.7457
  449MOL0     H60554   4.955   2.552  10.978 -0.1579 -0.3746 -0.5359
  449MOL0     H60555   4.928   2.722  10.937  1.2316  1.0921  2.0298
  449MOL0     H60556   5.187   2.582  10.849  0.9406 -0.2775  1.8876
  449MOL0     H60557   5.145   2.747  10.862 -2.0964  0.3165  0.0805
  449MOL0     H60558   5.145   2.545  11.097 -3.9067  0.9958 -0.8808
  449MOL0     H60559   5.298   2.607  11.053 -0.1547 -2.4681  0.3354
  449MOL0     H60560   5.063   2.757  11.175 -0.3741 -1.4542  1.8946
  449MOL0     H60561   5.216   2.713  11.263  4.3225  3.5095 -1.1980
  449MOL0     H60562   5.171   2.911  11.040 -0.1444  0.7591  0.1760
  449MOL0     H60563   5.335   2.849  11.068  0.1438  0.4266  0.2982
  449MOL0     H60564   5.166   2.990  11.275  2.2944  2.1766  2.9994
  449MOL0     H60565   5.332   2.928  11.294 -3.0136 -0.2620  3.0134
  449MOL0     H60566   5.174   3.171  11.026 -0.3453  1.7493 -0.3491
  449MOL0     H60567   5.400   3.480  10.991  1.9335 -1.2691 -1.8468
  449MOL0     H60568   5.313   3.389  10.885  1.0535 -0.4776  0.5088
  449MOL0     H60569   5.108   3.463  10.962  1.9617  0.0701 -3.5770
  449MOL0     H60570   5.156   3.449  11.137  2.1702 -0.0666  0.8044
  449MOL0     H60571   5.274   3.654  11.124  1.4460  0.9077 -1.0754
  449MOL0     H60572   5.099   3.683  11.091 -0.2829  0.9716  1.9378
  449MOL0     H60573   5.180   3.802  10.900 -1.6461  0.0217 -0.0068
  449MOL0     H60574   5.144   3.658  10.847  3.2734  0.0307 -1.4901
  449MOL0     H60575   5.331   3.925  10.991 -2.2749  1.0359 -0.5735
  449MOL0     H60576   5.472   4.126  10.909 -0.1994 -0.6041  2.0303
  449MOL0     H60577   5.979   4.125  10.474 -0.4599  2.2860 -0.0055
  449MOL0     H60578   6.206   4.159  10.478 -0.9495  2.0226 -1.5133
  449MOL0     H60579   6.417   4.226  10.516 -0.3389 -2.4048  1.2722
  449MOL0     H60580   6.343   4.378  10.583 -0.0518  0.7775 -1.3910
  449MOL0     H60581   6.568   4.416  10.564  0.5136 -1.4064 -0.7198
  449MOL0     H60582   6.530   4.409  10.739  1.1892  0.8941 -0.4398
  449MOL0     H60583   6.626   4.177  10.750  0.1736  0.3490  0.5508
  449MOL0     H60584   6.628   4.165  10.584  1.1461 -0.0452 -2.4334
  449MOL0     H60585   6.782   4.322  10.790  5.1112  0.4514 -0.2565
  449MOL0     H60586   6.798   4.387  10.631  1.8345 -1.5635 -3.0008
  449MOL0     H60587   6.906   4.189  10.549  0.4677  2.6463 -0.2015
  449MOL0     H60588   6.855   4.095  10.690  0.4769 -0.1956 -1.1459
  449MOL0     H60589   7.009   4.180  10.856 -3.0420  0.1787 -0.7634
  449MOL0     H60590   7.088   4.121  10.717  1.5402  1.2766  0.5994
  449MOL0     H60591   7.028   4.419  10.741  2.5301  2.3729 -1.2284
  449MOL0     H60592   7.080   4.329  10.599 -1.7419  1.3834 -0.5933
  449MOL0     H60593   7.296   4.290  10.712 -2.3595 -1.6441 -0.1363
  449MOL0     H60594   7.261   4.459  10.726  2.7126 -1.4581 -0.8108
  449MOL0     H60595   6.195   4.206  10.911 -2.0965 -3.7964  0.0712
  449MOL0     H60596   5.953   4.180  10.902 -1.5903 -0.7436 -1.2677
  449MOL0     H60597   5.752   3.874  10.731 -0.3316  4.2705 -2.9935
  449MOL0     H60598   5.616   3.694  10.733 -0.5091 -0.1149 -1.8851
  449MOL0     H60599   4.869   2.429  10.557 -1.7335  1.0026 -0.9387
  449MOL0     H60600   4.805   2.267  10.389  3.6110  0.8010  1.0093
  449MOL0     H60601   4.692   1.839  10.442 -0.4494  0.6473 -1.3535
  449MOL0     H60602   4.812   1.641  10.419  2.7412  0.1458  1.3760
  449MOL0     H60603   5.076   1.565  10.403 -1.3207  2.3188  0.7930
  449MOL0     H60604   5.163   1.675  10.297 -0.7981  0.9613  5.0653
  449MOL0     H60605   5.128   1.387  10.253  0.0358 -0.9140 -0.8776
  449MOL0     H60606   5.250   1.445  10.362  2.3379 -0.6312 -1.8737
  449MOL0     H60607   5.315   1.593  10.137 -2.8166  0.8916  1.9704
  449MOL0     H60608   5.236   1.450  10.061 -0.5922  2.1769 -0.8672
  449MOL0     H60609   5.503   1.467  10.201  0.7258 -1.5742  0.7625
  449MOL0     H60610   5.406   1.323  10.233 -0.3098  0.1034 -0.4163
  449MOL0     H60611   5.480   1.307   9.815 -1.2925  0.6722 -0.3047
  449MOL0     H60612   4.947   1.768  10.027 -1.6444  0.7211 -1.1951
  449MOL0     H60613   4.931   1.967   9.969  0.3892 -0.7011 -1.1252
  449MOL0     H60614   4.778   2.019   9.959 -0.9888 -1.6597  1.7604
  449MOL0     H60615   4.901   2.087  10.093  1.7204 -2.4271  2.7626
  450MOL0     O60616   5.880   5.910   9.307 -0.0600 -0.0973  0.3081
  450MOL0     C60617   5.919   5.868   9.415 -0.2715 -0.6688 -0.4588
  450MOL0     O60618   5.889   5.936   9.524  0.1953 -0.5071  0.0455
  450MOL0     C60619   5.840   6.064   9.525  1.1503 -0.5361 -0.4658
  450MOL0     C60620   5.912   6.178   9.493 -0.4434 -0.9977 -0.4036
  450MOL0     C60621   5.853   6.307   9.487 -0.0066  0.4380 -0.0606
  450MOL0     C60622   5.724   6.329   9.543  0.3151 -0.0168  0.8194
  450MOL0     O60623   5.661   6.446   9.544 -0.2425 -0.5181 -0.1639
  450MOL0     C60624   5.736   6.564   9.507 -0.6955  0.2633 -0.2218
  450MOL0     C60625   5.652   6.688   9.507 -0.8759  0.2052 -0.2447
  450MOL0     C60626   5.633   6.747   9.649 -0.2869  0.0230  0.0347
  450MOL0     C60627   5.722   6.872   9.670  0.2604  0.5622 -0.1990
  450MOL0     C60628   5.700   6.920   9.819 -0.2798  0.2926  0.8832
  450MOL0     C60629   5.793   7.037   9.859  0.1907  0.6123  0.8429
  450MOL0     C60630   5.936   6.988   9.892  0.1149  0.0153  0.0345
  450MOL0     C60631   5.930   6.881  10.000 -1.1243  0.3699 -0.3780
  450MOL0     N60632   6.073   6.858  10.043 -0.5658  0.2848 -0.2075
  450MOL0     C60633   6.165   6.776   9.983 -0.2913 -0.1341 -1.0705
  450MOL0     C60634   6.284   6.790  10.044 -0.4017 -0.2374  0.0641
  450MOL0     C60635   6.400   6.704  10.025 -0.4146  0.0910 -0.1247
  450MOL0     C60636   6.406   6.574  10.112  0.0908 -0.3497  0.2936
  450MOL0     C60637   6.531   6.484  10.081  0.4634  0.1073 -0.2199
  450MOL0     C60638   6.510   6.354  10.159  0.5282 -0.8296 -0.0661
  450MOL0     O60639   6.623   6.276  10.136  0.9023  0.3609 -0.0205
  450MOL0     C60640   6.612   6.147  10.077 -0.4498  0.8365 -0.3187
  450MOL0     C60641   6.732   6.083  10.064 -0.4313  0.4091  0.5742
  450MOL0     C60642   6.737   5.946  10.009 -0.1152 -0.6761  0.3745
  450MOL0     C60643   6.615   5.880   9.969 -0.5292 -0.1666  0.0129
  450MOL0     C60644   6.614   5.738   9.924 -0.8140  1.7345 -0.0578
  450MOL0     O60645   6.741   5.695   9.886  0.2218 -0.1940 -0.1312
  450MOL0     C60646   6.762   5.568   9.891  0.0457  1.1533 -0.5735
  450MOL0     C60647   6.733   5.478   9.792 -0.5707 -0.4358 -0.9828
  450MOL0     C60648   6.775   5.353   9.806  0.6750 -1.0925 -0.6724
  450MOL0     C60649   6.821   5.294   9.924  0.0771  0.0581 -0.0594
  450MOL0     O60650   6.855   5.164   9.937  0.5166 -0.5355 -0.3601
  450MOL0     C60651   6.898   5.099   9.816  0.3082  0.1811 -0.8083
  450MOL0     C60652   6.945   4.954   9.861 -0.4682 -0.6933 -1.9070
  450MOL0     C60653   6.823   4.871   9.898  0.3141  0.7972  0.5387
  450MOL0     C60654   6.764   4.801   9.768 -0.8373 -0.7194 -0.6672
  450MOL0     C60655   6.664   4.883   9.676 -0.2146 -0.2486 -0.5259
  450MOL0     C60656   6.565   4.979   9.739  0.0912 -0.2327  0.0456
  450MOL0     C60657   6.472   4.919   9.845 -0.4608  0.8091  0.6561
  450MOL0     C60658   6.342   4.851   9.793  0.6349  0.3310 -0.3194
  450MOL0    Cl60659   6.225   4.956   9.716 -0.1464  0.1661 -0.0475
  450MOL0     C60660   6.844   5.381  10.028 -1.1524 -0.5438  0.0072
  450MOL0     C60661   6.810   5.515  10.011  0.0099 -0.2962 -0.5938
  450MOL0     O60662   6.507   5.671   9.935 -0.5346 -0.6632 -0.6169
  450MOL0     C60663   6.501   5.956   9.979  0.1117 -0.1262 -0.1428
  450MOL0     C60664   6.496   6.085  10.036  0.4255  0.9172 -0.4563
  450MOL0     N60665   6.271   6.890  10.138  0.5654 -0.9321  0.0779
  450MOL0     N60666   6.148   6.934  10.131 -0.0762  0.4790 -0.0513
  450MOL0     C60667   5.647   6.217   9.574  0.0346  1.2450 -1.0798
  450MOL0     C60668   5.703   6.091   9.568 -0.1220  0.2108 -0.5522
  450MOL0     C60669   5.979   5.727   9.430  0.3822  0.0919  1.2987
  450MOL0     C60670   5.984   5.672   9.558 -0.6082 -0.6312  0.2456
  450MOL0     C60671   6.030   5.548   9.582 -0.1767 -0.2771 -0.2997
  450MOL0     C60672   6.094   5.476   9.481 -0.5295 -1.2372  1.2188
  450MOL0     O60673   6.159   5.355   9.495  0.1726 -0.3412  0.9742
  450MOL0     C60674   6.151   5.303   9.627 -0.0813 -0.4945 -1.2413
  450MOL0     C60675   6.252   5.352   9.726 -0.1133 -1.1603 -0.2293
  450MOL0     C60676   6.229   5.303   9.866  0.0592 -1.0205  0.0962
  450MOL0     C60677   6.336   5.367   9.962 -0.1770  0.3945 -0.4346
  450MOL0     C60678   6.261   5.450  10.055  0.4040  0.6091 -0.3670
  450MOL0     C60679   6.217   5.529  10.134 -0.4608  0.4518  0.2710
  450MOL0     C60680   6.088   5.519   9.350  0.1923  1.1263 -0.1751
  450MOL0     C60681   6.031   5.646   9.329  0.1806  1.4349 -0.0385
  450MOL0     C60682   6.026   5.688   9.185  0.3365  0.2121  0.6116
  450MOL0     H60683   6.014   6.161   9.462  0.7163 -0.9736  2.9239
  450MOL0     H60684   5.916   6.389   9.454  1.7948 -0.8034  0.1570
  450MOL0     H60685   5.819   6.583   9.576 -1.6556  0.4983  0.9034
  450MOL0     H60686   5.773   6.561   9.404  2.3312 -1.1194  0.7865
  450MOL0     H60687   5.554   6.673   9.460 -0.7444  0.7646 -0.7096
  450MOL0     H60688   5.711   6.762   9.451 -0.7247  0.2975  0.0311
  450MOL0     H60689   5.652   6.674   9.728 -1.2914  1.6430  1.8427
  450MOL0     H60690   5.526   6.765   9.660 -0.4174 -1.7629  2.3525
  450MOL0     H60691   5.829   6.851   9.664 -0.0559 -0.9553 -0.9767
  450MOL0     H60692   5.705   6.950   9.596  4.9640  2.3941  0.3402
  450MOL0     H60693   5.602   6.969   9.819 -0.6246 -0.3480 -0.7289
  450MOL0     H60694   5.699   6.834   9.887  2.0549 -0.7754 -0.3054
  450MOL0     H60695   5.798   7.101   9.771 -0.7188 -2.6620 -1.7863
  450MOL0     H60696   5.762   7.083   9.953  1.3446  0.6249  1.2387
  450MOL0     H60697   5.991   7.077   9.926 -3.7303  3.9372 -2.8790
  450MOL0     H60698   5.988   6.951   9.803 -3.5249 -2.7362 -1.2030
  450MOL0     H60699   5.866   6.913  10.083 -0.1052  1.4655  0.0177
  450MOL0     H60700   5.895   6.790   9.951 -4.2279  1.1651  0.1458
  450MOL0     H60701   6.149   6.705   9.903 -0.1967  1.3156 -2.4431
  450MOL0     H60702   6.398   6.669   9.922 -0.2969 -1.9083  0.5110
  450MOL0     H60703   6.492   6.761  10.043  1.0479 -2.5518  1.4695
  450MOL0     H60704   6.411   6.619  10.212 -0.7591 -2.3538  1.2744
  450MOL0     H60705   6.312   6.526  10.087 -1.7193  2.2586  1.5363
  450MOL0     H60706   6.622   6.540  10.104  1.8218 -1.2271 -2.0073
  450MOL0     H60707   6.536   6.453   9.976 -0.8166  0.8457 -0.5201
  450MOL0     H60708   6.416   6.314  10.122 -0.2116  1.3680 -0.7134
  450MOL0     H60709   6.490   6.369  10.266 -1.2685 -0.1585 -0.4686
  450MOL0     H60710   6.823   6.124  10.105  0.2290  0.7197 -1.0937
  450MOL0     H60711   6.825   5.885   9.992  0.8588  0.6014  0.6868
  450MOL0     H60712   6.689   5.517   9.700 -2.6237 -0.9872 -0.2815
  450MOL0     H60713   6.760   5.296   9.714 -1.2780  0.2684 -1.2539
  450MOL0     H60714   6.824   5.097   9.735  0.0046  2.6068 -0.6437
  450MOL0     H60715   6.985   5.143   9.767  1.0047  1.2445  1.2676
  450MOL0     H60716   7.007   4.908   9.784  1.6956  1.6774 -1.6951
  450MOL0     H60717   7.018   4.954   9.943  2.1881 -0.1215 -4.1233
  450MOL0     H60718   6.841   4.787   9.967 -3.9008  0.1937  1.1838
  450MOL0     H60719   6.743   4.924   9.950 -1.8526 -3.8730  2.6236
  450MOL0     H60720   6.712   4.710   9.796  1.3327 -1.5730  0.8685
  450MOL0     H60721   6.847   4.768   9.704 -0.0514 -0.2382  0.0781
  450MOL0     H60722   6.611   4.797   9.633  0.8676  0.1795 -2.9135
  450MOL0     H60723   6.721   4.923   9.591 -0.6595  0.3245 -0.5563
  450MOL0     H60724   6.626   5.052   9.793 -2.0797  0.6969  1.3666
  450MOL0     H60725   6.507   5.027   9.660 -1.1134  0.5126  1.3399
  450MOL0     H60726   6.443   4.998   9.915 -2.6075  3.4038 -2.8352
  450MOL0     H60727   6.534   4.849   9.902  0.4347  3.8690  3.7322
  450MOL0     H60728   6.362   4.775   9.716  1.7729  1.8044 -1.5349
  450MOL0     H60729   6.313   4.803   9.887  0.8457  0.1796 -0.3319
  450MOL0     H60730   6.869   5.341  10.126  0.2301 -3.1275 -1.2919
  450MOL0     H60731   6.841   5.582  10.091  0.1857 -1.3438  0.2300
  450MOL0     H60732   6.403   5.911   9.969 -0.2721  0.0099  2.3398
  450MOL0     H60733   6.404   6.144  10.038  0.6834  1.3075  0.2519
  450MOL0     H60734   5.545   6.235   9.604  0.3361 -2.4523  3.1038
  450MOL0     H60735   5.637   6.009   9.594 -5.1556  2.2942 -4.9501
  450MOL0     H60736   5.944   5.726   9.643 -2.9648  1.3385 -1.9594
  450MOL0     H60737   6.036   5.517   9.686 -2.4843 -0.4479 -0.1709
  450MOL0     H60738   6.168   5.199   9.598 -2.4586 -1.9035  1.7885
  450MOL0     H60739   6.047   5.299   9.662 -0.6085  3.0047 -1.9977
  450MOL0     H60740   6.258   5.461   9.720 -0.8420 -1.2033 -2.6007
  450MOL0     H60741   6.347   5.305   9.699  0.9489  1.5208 -1.5941
  450MOL0     H60742   6.239   5.194   9.871 -0.3608 -1.2571 -2.8504
  450MOL0     H60743   6.132   5.330   9.909  0.7955 -0.3344  1.4164
  450MOL0     H60744   6.386   5.281  10.006  0.5656  0.9994 -0.0681
  450MOL0     H60745   6.400   5.441   9.912 -0.0381 -0.3427 -1.3726
  450MOL0     H60746   6.188   5.607  10.201 -2.2084 -0.8605  1.1025
  450MOL0     H60747   6.145   5.463   9.276 -1.9805  2.2321 -2.8838
  450MOL0     H60748   6.059   5.612   9.113  2.4291  1.7125 -0.1119
  450MOL0     H60749   5.920   5.709   9.170 -0.1049 -0.0582  2.9689
  450MOL0     H60750   6.093   5.771   9.162  1.9483 -1.7264 -2.3719
  451MOL0     O60751   6.217   6.076   9.728 -0.4321 -0.5351 -0.2211
  451MOL0     C60752   6.174   5.971   9.771  0.2981 -0.3341 -1.1287
  451MOL0     O60753   6.211   5.845   9.721  1.4362 -0.1917 -0.2942
  451MOL0     C60754   6.283   5.824   9.608  0.2380 -0.1124 -0.1247
  451MOL0     C60755   6.275   5.902   9.487  0.7111  0.5993  0.0829
  451MOL0     C60756   6.366   5.881   9.379 -0.2366 -0.5218  0.1376
  451MOL0     C60757   6.452   5.767   9.384  0.7798 -0.7734 -0.1864
  451MOL0     O60758   6.538   5.728   9.290  0.8968  0.1542  0.0968
  451MOL0     C60759   6.476   5.635   9.191 -0.1139 -0.0681 -1.2861
  451MOL0     C60760   6.589   5.588   9.096  0.2481 -1.0353 -0.3041
  451MOL0     C60761   6.541   5.494   8.971  0.8708 -0.9602  0.2816
  451MOL0     C60762   6.398   5.518   8.922 -1.0956 -0.6016 -0.4499
  451MOL0     C60763   6.371   5.442   8.802 -0.1183 -0.0213 -0.0532
  451MOL0     C60764   6.444   5.489   8.669  1.0417  0.9970  0.3202
  451MOL0     C60765   6.419   5.384   8.564 -0.1589 -0.2369  1.2897
  451MOL0     C60766   6.429   5.437   8.424 -0.0644  0.4335 -0.1805
  451MOL0     N60767   6.574   5.444   8.374  0.1515  0.2765 -0.3517
  451MOL0     C60768   6.643   5.337   8.317 -0.6492  0.0237  0.0909
  451MOL0     C60769   6.774   5.373   8.320  0.7375 -0.4369  0.1901
  451MOL0     C60770   6.879   5.273   8.281 -0.0816  1.1669 -0.0338
  451MOL0     C60771   6.895   5.259   8.134  0.0817 -0.2737  0.4183
  451MOL0     C60772   6.898   5.387   8.044 -0.2765 -0.4483  0.1803
  451MOL0     C60773   6.924   5.358   7.904  0.1755  0.3511  0.2525
  451MOL0     O60774   6.863   5.249   7.850  0.9009  0.8297 -1.0533
  451MOL0     C60775   6.878   5.229   7.717  0.5238 -0.7926 -0.4248
  451MOL0     C60776   6.908   5.329   7.622 -0.2324  0.3880 -0.3058
  451MOL0     C60777   6.902   5.302   7.484 -0.1412  1.1795 -0.0028
  451MOL0     C60778   6.870   5.173   7.441  0.6057 -0.3757  0.2096
  451MOL0     C60779   6.849   5.152   7.292 -0.3583  0.0253  0.9368
  451MOL0     O60780   6.824   5.023   7.249  0.1352  0.5497  0.0698
  451MOL0     C60781   6.825   5.013   7.110 -0.2151  0.6595 -0.9115
  451MOL0     C60782   6.714   4.960   7.052  0.3388  1.0244  0.2416
  451MOL0     C60783   6.718   4.920   6.923  0.0063 -0.6693  0.2781
  451MOL0     C60784   6.833   4.918   6.838  0.4928  0.6307  0.4271
  451MOL0     O60785   6.820   4.864   6.711  0.8203 -0.5843 -0.1718
  451MOL0     C60786   6.945   4.875   6.633 -0.8099  0.7804  0.2258
  451MOL0     C60787   7.042   4.758   6.657  0.3377 -0.1732  1.0974
  451MOL0     C60788   7.148   4.766   6.555  0.0399 -0.4698 -0.8973
  451MOL0     C60789   7.256   4.881   6.591  0.7150 -0.3435  0.5603
  451MOL0     C60790   7.357   4.915   6.486 -0.3901  0.0043  0.7593
  451MOL0     C60791   7.474   5.000   6.535 -0.1238  0.5873  0.0759
  451MOL0     C60792   7.598   4.992   6.435 -0.0220 -0.7677 -0.1216
  451MOL0     C60793   7.567   5.065   6.302 -0.4194 -0.3161  0.2238
  451MOL0    Cl60794   7.606   5.244   6.285  0.0480  0.1058  0.2539
  451MOL0     C60795   6.941   4.994   6.893  0.2417  0.7684  0.7485
  451MOL0     C60796   6.944   5.034   7.027 -0.0729  0.5160  0.0873
  451MOL0     O60797   6.851   5.254   7.225  0.2094 -0.4546  0.5392
  451MOL0     C60798   6.837   5.073   7.543 -0.2577  0.4236  0.2445
  451MOL0     C60799   6.835   5.108   7.673 -0.1805  0.0600 -0.5602
  451MOL0     N60800   6.781   5.499   8.373  0.1579 -0.2070  0.1048
  451MOL0     N60801   6.665   5.542   8.411  0.3811 -0.0083 -0.2749
  451MOL0     C60802   6.457   5.687   9.493 -1.1999 -0.7370 -0.6352
  451MOL0     C60803   6.380   5.719   9.604  0.5210  0.2510 -0.1474
  451MOL0     C60804   6.092   5.979   9.897 -0.2547 -0.5661 -0.6570
  451MOL0     C60805   6.075   5.862   9.970  0.0755 -0.5218  0.5291
  451MOL0     C60806   6.029   5.868  10.102  0.0404  0.1699  0.3152
  451MOL0     C60807   5.990   5.987  10.158  0.6953  1.1216 -0.6028
  451MOL0     O60808   5.971   5.978  10.293 -0.3178  0.2253  0.2776
  451MOL0     C60809   5.907   6.084  10.371  0.3895 -0.2674 -0.0143
  451MOL0     C60810   5.850   6.031  10.505 -0.0985 -0.1546  1.0328
  451MOL0     C60811   5.813   6.128  10.617  0.3511  0.2120 -0.2280
  451MOL0     C60812   5.723   6.084  10.730  1.3108  0.4123 -0.4409
  451MOL0     C60813   5.779   5.968  10.801  0.1941 -0.0840 -0.8652
  451MOL0     C60814   5.834   5.885  10.873  1.2107  0.9741 -0.1071
  451MOL0     C60815   5.988   6.105  10.082  0.6057  0.2399 -0.1315
  451MOL0     C60816   6.036   6.102   9.946 -0.8632  0.4344 -1.0116
  451MOL0     C60817   6.029   6.235   9.877 -0.5622  0.3975 -0.3979
  451MOL0     H60818   6.201   5.981   9.476  2.0243  3.0532  5.3939
  451MOL0     H60819   6.357   5.940   9.288 -0.8579  3.1861  2.3932
  451MOL0     H60820   6.438   5.547   9.243  3.9664 -0.0255  2.2850
  451MOL0     H60821   6.405   5.696   9.132 -0.4704  2.3453  1.4253
  451MOL0     H60822   6.657   5.527   9.156 -1.3672  0.2152  3.1011
  451MOL0     H60823   6.646   5.673   9.057 -0.1521 -0.1083  1.0363
  451MOL0     H60824   6.540   5.386   8.987 -3.1122 -1.4237 -2.0332
  451MOL0     H60825   6.623   5.515   8.901  1.7000 -2.3186  0.8081
  451MOL0     H60826   6.323   5.496   8.998  0.1725 -1.5640  0.5781
  451MOL0     H60827   6.384   5.622   8.892 -3.6675 -0.6425  0.4166
  451MOL0     H60828   6.393   5.337   8.824 -0.7955 -0.9519 -3.2377
  451MOL0     H60829   6.262   5.444   8.787 -0.3902  2.6210  1.7770
  451MOL0     H60830   6.393   5.584   8.647 -3.9845 -1.6774 -1.0762
  451MOL0     H60831   6.548   5.509   8.694  0.6508  2.8643  0.6700
  451MOL0     H60832   6.321   5.337   8.583 -1.4510  0.5809 -2.4660
  451MOL0     H60833   6.490   5.302   8.569  0.2481  0.0451  0.2887
  451MOL0     H60834   6.372   5.366   8.363 -0.0436 -0.4123  0.7750
  451MOL0     H60835   6.382   5.535   8.405  4.7919  2.7627 -1.9840
  451MOL0     H60836   6.598   5.255   8.261 -2.3576  0.6251  0.5123
  451MOL0     H60837   6.961   5.322   8.334 -1.3446 -1.3074  4.8010
  451MOL0     H60838   6.880   5.173   8.326  0.2743  0.4944 -1.4682
  451MOL0     H60839   6.992   5.209   8.132  0.7051  0.6072  3.7583
  451MOL0     H60840   6.818   5.191   8.094  0.3480 -1.1646  1.3786
  451MOL0     H60841   6.977   5.454   8.079 -2.2066  3.2807 -2.0639
  451MOL0     H60842   6.805   5.442   8.057 -0.6090 -1.3708  2.2475
  451MOL0     H60843   7.032   5.360   7.889  0.0309 -0.3660 -1.0839
  451MOL0     H60844   6.888   5.446   7.850 -0.1107  0.3534  0.4427
  451MOL0     H60845   6.930   5.433   7.647 -0.5113  0.2786  0.4253
  451MOL0     H60846   6.911   5.389   7.420  0.6457  1.5570  0.6098
  451MOL0     H60847   6.615   4.953   7.097 -0.3946  0.1336 -1.4038
  451MOL0     H60848   6.624   4.893   6.875 -0.4953  0.2577  0.7163
  451MOL0     H60849   6.915   4.871   6.528 -0.9506  2.3738  0.1747
  451MOL0     H60850   6.987   4.976   6.641  0.9260  0.3050 -1.8193
  451MOL0     H60851   7.087   4.757   6.757 -0.0078  0.1359  1.2632
  451MOL0     H60852   6.985   4.667   6.640 -1.1059  1.3416 -4.2616
  451MOL0     H60853   7.198   4.668   6.554 -0.8432 -0.9430 -2.6355
  451MOL0     H60854   7.099   4.775   6.457 -1.5731  1.0671  0.0037
  451MOL0     H60855   7.300   4.858   6.688 -0.7900  3.0451  2.2216
  451MOL0     H60856   7.190   4.966   6.606  1.1208 -0.0369  0.6061
  451MOL0     H60857   7.312   4.983   6.414  0.0654  1.8795  2.1640
  451MOL0     H60858   7.398   4.820   6.450  0.1293 -0.1795  1.7838
  451MOL0     H60859   7.451   5.107   6.541  1.3766  0.9092  0.4190
  451MOL0     H60860   7.512   4.966   6.632  0.3030 -1.7179 -0.8261
  451MOL0     H60861   7.621   4.887   6.416 -2.3263 -1.4856  0.6944
  451MOL0     H60862   7.689   5.037   6.477 -0.1517  1.3289 -1.8960
  451MOL0     H60863   7.613   5.011   6.218 -1.2768 -4.0876  1.9860
  451MOL0     H60864   7.459   5.061   6.284 -0.1584 -2.0345 -1.2964
  451MOL0     H60865   7.032   5.010   6.836 -1.0932 -1.1942 -2.1679
  451MOL0     H60866   7.046   5.053   7.058  0.1599 -1.2136  0.4459
  451MOL0     H60867   6.811   4.972   7.514  3.5307 -0.6048 -0.1516
  451MOL0     H60868   6.812   5.035   7.750 -0.3568  0.3373 -0.3493
  451MOL0     H60869   6.535   5.612   9.503 -0.1289  0.6525  3.9445
  451MOL0     H60870   6.376   5.644   9.682 -2.6425 -0.8445 -1.1948
  451MOL0     H60871   6.108   5.769   9.926  0.9007 -0.2181  0.4955
  451MOL0     H60872   6.039   5.777  10.161 -1.8293  0.8176  1.7643
  451MOL0     H60873   5.822   6.115  10.310  1.4841 -0.7071 -1.8487
  451MOL0     H60874   5.955   6.182  10.382 -0.6242  0.1850  0.4984
  451MOL0     H60875   5.926   5.959  10.538 -0.2329 -0.1862  1.2773
  451MOL0     H60876   5.753   5.985  10.484 -0.4267  0.7772  0.4643
  451MOL0     H60877   5.774   6.218  10.568  3.9038  1.7172 -0.5957
  451MOL0     H60878   5.898   6.171  10.671  1.8667  0.7565 -2.8887
  451MOL0     H60879   5.704   6.157  10.809  0.8625 -0.1316 -0.0398
  451MOL0     H60880   5.627   6.057  10.684  0.2468 -1.4203  2.5354
  451MOL0     H60881   5.880   5.812  10.937  3.4897  1.8215 -0.6632
  451MOL0     H60882   5.963   6.200  10.128  1.3928 -0.3314  1.5293
  451MOL0     H60883   5.951   6.295   9.925  1.8988  2.2861  1.5583
  451MOL0     H60884   6.126   6.281   9.894 -0.7876  2.1811 -3.2861
  451MOL0     H60885   6.024   6.232   9.768  2.8007 -2.6080 -0.6743
  452MOL0     O60886   8.248   0.187   0.008  0.2761 -0.1869 -1.0671
  452MOL0     C60887   8.220   0.107  -0.083 -0.2114  0.1617 -0.1068
  452MOL0     O60888   8.285  -0.020  -0.091  0.6085  1.2527 -0.1786
  452MOL0     C60889   8.369  -0.050   0.022  0.5053  0.0630 -0.4782
  452MOL0     C60890   8.498  -0.017   0.022  0.1504 -0.2291  0.4271
  452MOL0     C60891   8.583  -0.030   0.131 -0.1679 -0.4121  0.3189
  452MOL0     C60892   8.530  -0.071   0.251  0.5584  0.0569  0.0186
  452MOL0     O60893   8.607  -0.069   0.363 -0.1733  0.2316 -0.2717
  452MOL0     C60894   8.683   0.054   0.388 -0.9388  0.2791  0.5051
  452MOL0     C60895   8.597   0.166   0.409  1.6187 -0.0343 -0.8168
  452MOL0     C60896   8.681   0.289   0.458  0.2707  0.0745 -0.1993
  452MOL0     C60897   8.609   0.423   0.448 -0.5051  0.2970 -0.4036
  452MOL0     C60898   8.682   0.523   0.538 -0.5227 -0.0546  0.7161
  452MOL0     C60899   8.635   0.668   0.518 -0.4715 -0.3534 -0.2694
  452MOL0     C60900   8.725   0.775   0.565  0.5457 -0.3200  0.0427
  452MOL0     C60901   8.844   0.804   0.480 -0.0267 -0.5054  0.1093
  452MOL0     N60902   8.909   0.928   0.530 -0.2854  0.3512 -0.1068
  452MOL0     C60903   8.876   1.051   0.484 -0.8066 -0.3068  0.5571
  452MOL0     C60904   8.962   1.135   0.551  0.0694  0.9306  0.6047
  452MOL0     C60905   8.984   1.287   0.547  0.4932 -0.8849 -0.4823
  452MOL0     C60906   8.920   1.355   0.422  0.2318 -0.1219  0.5076
  452MOL0     C60907   9.012   1.369   0.306  0.3427 -0.1441 -0.1445
  452MOL0     C60908   8.942   1.446   0.195 -0.0503 -1.0496  0.6643
  452MOL0     O60909   8.812   1.418   0.167  1.0453  0.8261 -0.2252
  452MOL0     C60910   8.762   1.476   0.057  0.0558 -0.4127 -1.7855
  452MOL0     C60911   8.829   1.573  -0.031 -0.1184  1.3287  0.0186
  452MOL0     C60912   8.759   1.621  -0.139  0.2121  0.0410  0.1309
  452MOL0     C60913   8.620   1.586  -0.162 -0.3374 -0.0374  0.2487
  452MOL0     C60914   8.556   1.628  -0.290  0.5377 -0.0919 -0.9788
  452MOL0     O60915   8.432   1.664  -0.267  0.6931  0.3559  0.1223
  452MOL0     C60916   8.347   1.679  -0.370  0.1392  0.8370  0.1543
  452MOL0     C60917   8.307   1.565  -0.447  0.6628 -0.4768  0.1989
  452MOL0     C60918   8.206   1.575  -0.539  0.1309  0.7082  0.2801
  452MOL0     C60919   8.132   1.693  -0.560 -0.2918  0.1800 -0.2604
  452MOL0     O60920   8.028   1.716  -0.651 -0.2144 -0.0820  0.2937
  452MOL0     C60921   7.987   1.607  -0.735 -0.6969  1.0679  0.0024
  452MOL0     C60922   8.064   1.603  -0.864  0.0846 -0.5803 -0.1293
  452MOL0     C60923   7.993   1.530  -0.985 -0.4512 -0.0967 -0.7937
  452MOL0     C60924   8.081   1.540  -1.111 -0.5422  0.0070  0.4601
  452MOL0     C60925   8.028   1.438  -1.221 -0.3446 -0.1746  0.0441
  452MOL0     C60926   8.091   1.453  -1.358 -1.0172 -0.2987 -0.5513
  452MOL0     C60927   8.236   1.400  -1.384  0.2376 -0.2628 -0.5335
  452MOL0     C60928   8.342   1.519  -1.350 -1.1012  1.1366  0.2745
  452MOL0    Cl60929   8.322   1.649  -1.473 -0.2613 -0.1367 -0.0471
  452MOL0     C60930   8.170   1.802  -0.493  0.0075  0.8291  0.9912
  452MOL0     C60931   8.270   1.796  -0.391  0.2111 -0.5189  0.4744
  452MOL0     O60932   8.618   1.614  -0.396  0.0727 -0.2594  0.2304
  452MOL0     C60933   8.556   1.514  -0.053  0.5896  0.2966 -0.0985
  452MOL0     C60934   8.629   1.457   0.058 -0.0850 -0.0954 -0.3116
  452MOL0     N60935   9.017   1.063   0.654  0.5339 -0.4516 -0.0198
  452MOL0     N60936   8.998   0.938   0.637  0.2451 -0.1918 -0.4969
  452MOL0     C60937   8.390  -0.100   0.262 -0.2550  0.2383  0.1018
  452MOL0     C60938   8.314  -0.087   0.148  1.0603 -0.4250 -0.2404
  452MOL0     C60939   8.117   0.148  -0.185 -0.5371 -0.6351  0.4871
  452MOL0     C60940   8.048   0.276  -0.179 -0.4031  0.0256 -0.8116
  452MOL0     C60941   7.932   0.293  -0.248  0.0904 -0.0276 -0.1871
  452MOL0     C60942   7.884   0.196  -0.333  0.2747  0.6645 -0.4601
  452MOL0     O60943   7.764   0.193  -0.401  0.7503  0.7730 -0.0155
  452MOL0     C60944   7.712   0.314  -0.451 -0.0688  0.9444  0.0215
  452MOL0     C60945   7.589   0.370  -0.368  0.5646 -0.2614 -0.2801
  452MOL0     C60946   7.521   0.483  -0.452 -0.3076  0.2132 -0.7011
  452MOL0     C60947   7.399   0.527  -0.380 -0.2350  0.4999 -0.6196
  452MOL0     C60948   7.373   0.656  -0.453  1.1001  0.3664 -0.0844
  452MOL0     C60949   7.349   0.762  -0.515 -0.1379 -0.4241 -0.4849
  452MOL0     C60950   7.963   0.081  -0.353 -0.8212  0.4316 -0.3316
  452MOL0     C60951   8.076   0.051  -0.283 -0.8416  0.0778 -1.5965
  452MOL0     C60952   8.141  -0.092  -0.309 -0.2582  0.1796 -0.7254
  452MOL0     H60953   8.545   0.016  -0.070  0.5554 -1.5176  0.1615
  452MOL0     H60954   8.689  -0.016   0.111 -0.5036 -0.4727 -1.7268
  452MOL0     H60955   8.757   0.030   0.465  1.5176  0.7413 -1.5714
  452MOL0     H60956   8.742   0.071   0.297 -3.3327 -2.0817 -1.6536
  452MOL0     H60957   8.527   0.125   0.481  0.4815 -0.2666 -2.0218
  452MOL0     H60958   8.528   0.193   0.329 -0.6217  0.3961  1.1653
  452MOL0     H60959   8.769   0.305   0.396 -0.1040  2.9920 -0.0946
  452MOL0     H60960   8.729   0.273   0.555  1.3348 -1.3204 -0.9180
  452MOL0     H60961   8.590   0.464   0.349  1.4383  0.3268 -0.7964
  452MOL0     H60962   8.509   0.399   0.487 -0.5587 -2.2820 -1.8869
  452MOL0     H60963   8.667   0.490   0.641 -2.7153 -2.1714 -0.1686
  452MOL0     H60964   8.787   0.530   0.508 -1.2050 -0.3453 -2.0124
  452MOL0     H60965   8.611   0.691   0.413 -0.2394  1.3326  0.0187
  452MOL0     H60966   8.539   0.673   0.570 -3.5490 -0.5113 -5.2484
  452MOL0     H60967   8.759   0.743   0.663 -0.6626 -0.2363  0.5045
  452MOL0     H60968   8.662   0.863   0.581 -2.0195 -1.0627 -4.3346
  452MOL0     H60969   8.916   0.721   0.486  2.9259  1.9769  2.6963
  452MOL0     H60970   8.826   0.817   0.373  2.0340 -1.3116 -0.3916
  452MOL0     H60971   8.822   1.085   0.396 -1.5753 -0.3995  0.9888
  452MOL0     H60972   8.947   1.344   0.633 -0.5108 -2.0985 -0.0606
  452MOL0     H60973   9.091   1.306   0.549  0.1276  1.4704  1.8302
  452MOL0     H60974   8.830   1.304   0.388 -1.6979 -0.2157  4.9765
  452MOL0     H60975   8.886   1.456   0.443 -1.3263  0.8588 -5.2999
  452MOL0     H60976   9.031   1.268   0.267 -4.0172 -1.1613 -0.1331
  452MOL0     H60977   9.098   1.428   0.338 -1.4011  2.0111  0.8444
  452MOL0     H60978   8.999   1.425   0.104 -0.5181 -1.3509  0.4391
  452MOL0     H60979   8.936   1.555   0.207 -2.9449 -1.2857  2.4503
  452MOL0     H60980   8.934   1.597  -0.017  1.1811 -2.8659 -0.9992
  452MOL0     H60981   8.819   1.684  -0.204  1.8197  1.4751  2.8439
  452MOL0     H60982   8.347   1.465  -0.437  1.9297 -0.1346 -1.0640
  452MOL0     H60983   8.193   1.483  -0.596  2.5331  0.6701 -0.3119
  452MOL0     H60984   7.995   1.507  -0.691  2.7902  2.6344  3.5240
  452MOL0     H60985   7.882   1.627  -0.760 -0.1918  2.3393 -1.2663
  452MOL0     H60986   8.075   1.708  -0.895 -1.8034  0.6347  2.9133
  452MOL0     H60987   8.160   1.552  -0.848 -0.2185 -1.4306 -0.8987
  452MOL0     H60988   7.993   1.428  -0.946 -0.1245  0.9017  2.0817
  452MOL0     H60989   7.895   1.574  -1.005 -0.2689  0.6337 -0.1431
  452MOL0     H60990   8.187   1.518  -1.097 -0.1087 -2.0574 -4.0939
  452MOL0     H60991   8.080   1.643  -1.148 -3.0196  0.0247  0.4408
  452MOL0     H60992   7.919   1.443  -1.224 -0.5075 -2.0172  1.4047
  452MOL0     H60993   8.056   1.339  -1.184 -0.8973  0.1410  1.3684
  452MOL0     H60994   8.027   1.391  -1.420 -0.1792 -0.8919 -0.8432
  452MOL0     H60995   8.082   1.553  -1.401 -1.7084 -0.6571 -1.2570
  452MOL0     H60996   8.250   1.373  -1.489 -0.7611 -0.1706 -0.7029
  452MOL0     H60997   8.257   1.321  -1.312 -0.8682  2.9131  3.6536
  452MOL0     H60998   8.339   1.561  -1.249  1.6118  1.0648  0.4484
  452MOL0     H60999   8.441   1.477  -1.369 -0.2609  2.7151  1.0919
  452MOL0     H61000   8.119   1.895  -0.515 -2.1826 -0.7293 -1.0575
  452MOL0     H61001   8.293   1.880  -0.326 -0.3009  0.5213 -0.6747
  452MOL0     H61002   8.454   1.478  -0.060  0.3026  1.1871 -0.6561
  452MOL0     H61003   8.562   1.389   0.111 -2.2241  0.8150 -1.6745
  452MOL0     H61004   8.362  -0.119   0.365  2.4370  1.6937  1.2043
  452MOL0     H61005   8.205  -0.092   0.150  0.9623  1.3139  0.1815
  452MOL0     H61006   8.082   0.352  -0.109  0.9164  1.3360 -2.7541
  452MOL0     H61007   7.864   0.375  -0.225 -0.6542  0.7098 -4.1718
  452MOL0     H61008   7.654   0.284  -0.539 -0.9321  0.4585  0.7361
  452MOL0     H61009   7.783   0.394  -0.472  0.6736  0.3792  0.3304
  452MOL0     H61010   7.631   0.413  -0.276  0.7938 -0.2293 -0.3999
  452MOL0     H61011   7.518   0.289  -0.348  0.6555 -0.4999 -0.9167
  452MOL0     H61012   7.485   0.452  -0.551 -1.1000  3.2866 -1.4690
  452MOL0     H61013   7.602   0.557  -0.458  0.9712 -1.1378 -0.7405
  452MOL0     H61014   7.314   0.460  -0.396  0.7855 -0.8332 -0.6616
  452MOL0     H61015   7.425   0.536  -0.275  2.0804 -2.4114 -0.8218
  452MOL0     H61016   7.300   0.844  -0.564 -0.0392  0.0799  0.2414
  452MOL0     H61017   7.923   0.008  -0.423 -0.3092 -0.5376  0.3554
  452MOL0     H61018   8.089  -0.138  -0.394  1.2728 -1.7252 -0.7080
  452MOL0     H61019   8.244  -0.064  -0.332 -0.6493 -0.2334 -3.3464
  452MOL0     H61020   8.145  -0.164  -0.227 -1.6995 -1.8108 -2.2755
  453MOL0     O61021   8.167   9.597   2.048  0.2154  0.3643 -0.4386
  453MOL0     C61022   8.240   9.555   1.963 -0.5162 -0.0368 -0.4262
  453MOL0     O61023   8.196   9.520   1.839 -0.2367  0.5770 -0.2442
  453MOL0     C61024   8.072   9.469   1.827 -0.2285 -0.6826  0.7693
  453MOL0     C61025   8.011   9.511   1.712 -0.5058 -1.1993 -0.0934
  453MOL0     C61026   7.890   9.458   1.684  0.2316 -0.2441  0.5168
  453MOL0     C61027   7.814   9.366   1.751 -0.4288 -0.0347 -0.5756
  453MOL0     O61028   7.688   9.343   1.706 -0.5457 -0.1699  0.1208
  453MOL0     C61029   7.607   9.236   1.759 -0.4057 -0.0800 -0.1957
  453MOL0     C61030   7.523   9.266   1.888 -0.2196 -1.1730  0.7021
  453MOL0     C61031   7.447   9.148   1.924 -0.5792 -0.3872 -0.2411
  453MOL0     C61032   7.434   9.140   2.079 -0.2676 -1.3629 -0.1464
  453MOL0     C61033   7.336   9.029   2.100 -0.5016 -0.3021 -0.8593
  453MOL0     C61034   7.310   8.987   2.252  0.1354 -1.2144 -0.0584
  453MOL0     C61035   7.265   8.838   2.271  0.0591 -0.8049 -0.0482
  453MOL0     C61036   7.371   8.742   2.213 -0.0236  0.2613  0.6373
  453MOL0     N61037   7.349   8.612   2.289 -1.3327 -0.8129  0.1041
  453MOL0     C61038   7.440   8.546   2.358 -0.7716  0.4570  0.3667
  453MOL0     C61039   7.381   8.434   2.402  0.0417  0.0955  0.6282
  453MOL0     C61040   7.432   8.308   2.466 -0.0318 -0.2787 -0.0161
  453MOL0     C61041   7.459   8.322   2.619  0.3466 -0.4989  0.5907
  453MOL0     C61042   7.551   8.219   2.659  0.6068  0.5389 -1.6035
  453MOL0     C61043   7.542   8.196   2.814 -1.1340 -0.5005 -0.1093
  453MOL0     O61044   7.417   8.121   2.840 -1.0415  0.4157 -0.4078
  453MOL0     C61045   7.349   8.124   2.964 -0.1655 -1.4449 -0.7748
  453MOL0     C61046   7.241   8.044   2.982  0.2921 -0.6620  0.1030
  453MOL0     C61047   7.191   8.030   3.116 -0.7577  0.6237  0.7909
  453MOL0     C61048   7.256   8.091   3.219  0.6631 -1.4711 -0.8491
  453MOL0     C61049   7.220   8.059   3.353 -0.1799  0.0596  1.4519
  453MOL0     O61050   7.304   8.120   3.451  1.1890  0.1762  0.1228
  453MOL0     C61051   7.302   8.081   3.585  0.7934 -0.7979 -0.4744
  453MOL0     C61052   7.276   8.176   3.691  0.0990  0.4211 -0.5720
  453MOL0     C61053   7.293   8.140   3.824 -0.3250 -0.0862  0.4820
  453MOL0     C61054   7.358   8.018   3.853 -0.0553  0.2639  0.4132
  453MOL0     O61055   7.389   7.996   3.984 -0.2753  0.0767 -0.4024
  453MOL0     C61056   7.512   7.933   4.007  0.1964 -0.0686 -0.6511
  453MOL0     C61057   7.583   7.984   4.138  0.7491 -0.6975 -0.1503
  453MOL0     C61058   7.730   7.967   4.117  0.8378  0.9056  0.5267
  453MOL0     C61059   7.792   8.062   4.006 -0.3061 -0.2123  0.0714
  453MOL0     C61060   7.952   8.079   4.017  0.1707 -0.3595  0.6292
  453MOL0     C61061   8.011   8.140   3.888  0.1545  0.5544  0.1807
  453MOL0     C61062   7.964   8.284   3.852  0.4843 -0.0345  0.1886
  453MOL0     C61063   8.057   8.361   3.764 -0.9864 -0.0490  0.1521
  453MOL0    Cl61064   8.218   8.405   3.834  0.0663  0.1555 -0.0578
  453MOL0     C61065   7.377   7.922   3.749 -1.4466  0.7730 -0.0175
  453MOL0     C61066   7.339   7.950   3.620 -1.2120  0.0253 -0.1964
  453MOL0     O61067   7.134   7.972   3.375  0.2217 -0.4526 -0.0302
  453MOL0     C61068   7.353   8.194   3.190 -0.3350 -0.1453  0.3457
  453MOL0     C61069   7.388   8.216   3.064 -1.3474  0.3437  0.0080
  453MOL0     N61070   7.245   8.437   2.370  0.1594 -0.2233  0.4346
  453MOL0     N61071   7.227   8.543   2.306  0.1379 -0.4781  0.5886
  453MOL0     C61072   7.866   9.331   1.874  0.4783 -0.0110 -0.2574
  453MOL0     C61073   8.000   9.379   1.912  0.2525  0.2302 -0.2168
  453MOL0     C61074   8.388   9.571   1.981 -0.0733 -0.5837 -1.3528
  453MOL0     C61075   8.424   9.647   2.097  0.0397 -0.0749 -0.1339
  453MOL0     C61076   8.553   9.686   2.119  0.1125 -0.5248  0.0050
  453MOL0     C61077   8.650   9.638   2.028 -0.6205  0.3591 -0.4994
  453MOL0     O61078   8.782   9.673   2.025  0.1687 -0.4798  0.5015
  453MOL0     C61079   8.851   9.739   2.126 -0.7135 -0.3117  0.8944
  453MOL0     C61080   8.988   9.778   2.073 -0.5870  0.2194 -0.3970
  453MOL0     C61081   8.983   9.827   1.937 -0.6397 -0.2455  0.8726
  453MOL0     C61082   8.888   9.942   1.925  0.1612 -0.5836 -0.5519
  453MOL0     C61083   8.891   9.988   1.785 -0.3440  0.2602  0.7750
  453MOL0     C61084   8.929  10.009   1.668  0.3587 -0.3570  0.9693
  453MOL0     C61085   8.609   9.541   1.932 -1.0729 -0.5089  0.3454
  453MOL0     C61086   8.485   9.506   1.903  0.6001 -0.3488 -0.8544
  453MOL0     C61087   8.461   9.429   1.770  0.6662 -0.3260 -0.1546
  453MOL0     H61088   8.053   9.584   1.644  1.5136 -3.0104 -0.9122
  453MOL0     H61089   7.848   9.489   1.588  0.4781 -2.2280 -0.2886
  453MOL0     H61090   7.549   9.199   1.674  0.7958  0.6104 -1.3533
  453MOL0     H61091   7.663   9.146   1.787 -1.4424  0.3070  3.6440
  453MOL0     H61092   7.452   9.345   1.862 -0.7660 -1.6149  0.8231
  453MOL0     H61093   7.592   9.304   1.964  3.2994 -0.1796 -2.6376
  453MOL0     H61094   7.474   9.052   1.880 -0.3656 -0.4844  0.1024
  453MOL0     H61095   7.348   9.168   1.880 -0.6633  1.9196  0.8278
  453MOL0     H61096   7.531   9.118   2.124 -0.0706  0.0510  0.1377
  453MOL0     H61097   7.387   9.228   2.123 -2.5204 -2.5110 -0.1138
  453MOL0     H61098   7.237   9.043   2.057 -0.4261  1.1484 -0.5941
  453MOL0     H61099   7.379   8.950   2.038  0.5176  2.0665 -3.3736
  453MOL0     H61100   7.401   8.997   2.310 -0.0507  0.5407 -0.0345
  453MOL0     H61101   7.240   9.053   2.304 -1.5186 -3.8998  1.3995
  453MOL0     H61102   7.169   8.829   2.220 -0.4187 -1.8745  1.0111
  453MOL0     H61103   7.250   8.819   2.378  1.4463 -1.2256  0.0920
  453MOL0     H61104   7.353   8.732   2.106 -0.4065  0.4031  0.6866
  453MOL0     H61105   7.473   8.775   2.236 -0.2834  1.1160  0.6160
  453MOL0     H61106   7.545   8.567   2.340 -1.0605  0.7816 -1.0296
  453MOL0     H61107   7.361   8.226   2.458 -0.3150 -0.3389  2.3203
  453MOL0     H61108   7.523   8.282   2.412  0.0629  0.0995 -0.0478
  453MOL0     H61109   7.502   8.421   2.635 -0.4617 -0.0276 -0.0807
  453MOL0     H61110   7.360   8.319   2.665  0.8373 -0.5804  1.6892
  453MOL0     H61111   7.652   8.244   2.624  0.2508  2.2914 -1.4880
  453MOL0     H61112   7.529   8.119   2.619 -2.2284 -1.3121  3.6759
  453MOL0     H61113   7.558   8.295   2.858  0.2632 -1.9993  3.0926
  453MOL0     H61114   7.623   8.139   2.859 -1.2554  1.3706  2.7265
  453MOL0     H61115   7.206   7.987   2.896  0.7665 -0.9763  0.1135
  453MOL0     H61116   7.120   7.950   3.134  1.7866 -1.5618  1.6411
  453MOL0     H61117   7.255   8.281   3.676  2.4162  0.8505 -1.4124
  453MOL0     H61118   7.282   8.209   3.906  1.9532  0.1954  0.6261
  453MOL0     H61119   7.490   7.827   4.021  0.8725 -0.0379  0.6958
  453MOL0     H61120   7.583   7.935   3.924  2.5399  1.4780  1.2646
  453MOL0     H61121   7.568   8.092   4.148 -0.9488 -0.9681  0.8410
  453MOL0     H61122   7.544   7.934   4.228  1.2829 -1.1145 -0.1501
  453MOL0     H61123   7.777   7.989   4.213  1.0606  1.4406  0.3019
  453MOL0     H61124   7.749   7.861   4.100 -3.9750 -0.2333  0.8134
  453MOL0     H61125   7.738   8.157   4.010 -0.8526 -0.5211  0.0158
  453MOL0     H61126   7.771   8.013   3.911 -2.0048 -0.4469  0.5332
  453MOL0     H61127   7.984   7.977   4.040 -0.7290 -0.9383 -0.5554
  453MOL0     H61128   7.969   8.140   4.106  0.0417  3.6048 -1.8128
  453MOL0     H61129   8.120   8.136   3.900  0.1521 -1.6422  0.0062
  453MOL0     H61130   7.990   8.063   3.814 -1.1212  0.1051  0.9752
  453MOL0     H61131   7.945   8.337   3.946  1.0436  2.6114 -1.0840
  453MOL0     H61132   7.861   8.276   3.815  0.0556 -1.2634  1.5854
  453MOL0     H61133   8.066   8.304   3.671  1.5834  3.1449 -1.8048
  453MOL0     H61134   8.009   8.456   3.737  0.4236  0.3025 -1.2723
  453MOL0     H61135   7.408   7.822   3.776 -0.8083  1.0715  0.3667
  453MOL0     H61136   7.346   7.879   3.538 -1.7153 -1.5012  1.0409
  453MOL0     H61137   7.394   8.259   3.267 -1.0403  0.6645  0.0502
  453MOL0     H61138   7.468   8.287   3.048  1.3275 -2.7955 -1.7698
  453MOL0     H61139   7.803   9.271   1.939 -3.1611  0.9275 -2.6043
  453MOL0     H61140   8.043   9.335   2.002 -3.4321 -1.2527  1.0165
  453MOL0     H61141   8.353   9.693   2.166 -0.9514 -4.1982  1.8900
  453MOL0     H61142   8.585   9.772   2.177  1.7117 -1.1766  0.1660
  453MOL0     H61143   8.869   9.669   2.208 -1.1146 -4.2446 -2.0553
  453MOL0     H61144   8.803   9.829   2.165  0.9279  2.7642 -3.3715
  453MOL0     H61145   9.055   9.692   2.086 -1.1628 -0.0160  1.1908
  453MOL0     H61146   9.027   9.847   2.148 -0.9277 -2.6460  2.6536
  453MOL0     H61147   8.963   9.750   1.862  3.7994  0.9589 -1.9338
  453MOL0     H61148   9.083   9.858   1.905 -1.9665  1.7908 -1.5886
  453MOL0     H61149   8.787   9.913   1.955 -1.3028  0.2798 -4.0700
  453MOL0     H61150   8.919  10.028   1.985 -1.3936 -1.0611  1.0024
  453MOL0     H61151   8.954  10.031   1.567 -1.5311 -1.6575  0.1589
  453MOL0     H61152   8.697   9.519   1.871  0.1234  1.8856  1.0741
  453MOL0     H61153   8.549   9.391   1.717  0.9073  0.7687 -0.5476
  453MOL0     H61154   8.395   9.344   1.792  1.4730 -0.6358  1.2150
  453MOL0     H61155   8.417   9.495   1.696  2.1736  1.0056  0.0926
  454MOL0     O61156   5.632   1.053  11.223 -0.3669  0.0129  0.0092
  454MOL0     C61157   5.657   1.131  11.314 -0.9795 -0.3887  0.1530
  454MOL0     O61158   5.610   1.123  11.445  0.7438  0.2879  1.3486
  454MOL0     C61159   5.519   1.028  11.491  0.4196 -0.3090 -0.5455
  454MOL0     C61160   5.472   1.047  11.623  0.1658 -0.1131 -0.2624
  454MOL0     C61161   5.375   0.957  11.679 -0.5741 -0.1270  0.0256
  454MOL0     C61162   5.340   0.837  11.607 -0.3671  0.0978  1.1052
  454MOL0     O61163   5.265   0.741  11.673  0.1736  0.5935 -0.1952
  454MOL0     C61164   5.138   0.712  11.597 -0.5853 -0.7944  0.2573
  454MOL0     C61165   5.026   0.718  11.683  0.1891  0.1050 -0.5304
  454MOL0     C61166   4.886   0.693  11.610  0.0773  0.6301 -0.5545
  454MOL0     C61167   4.814   0.560  11.643 -0.3774  0.0827 -0.4580
  454MOL0     C61168   4.660   0.552  11.625 -0.8039  0.0319  0.2068
  454MOL0     C61169   4.608   0.415  11.682 -0.2824 -1.2954 -0.2319
  454MOL0     C61170   4.454   0.412  11.663  0.2795 -1.0486  0.0176
  454MOL0     C61171   4.394   0.384  11.795  0.6784  0.6723  0.1642
  454MOL0     N61172   4.240   0.390  11.793  0.6690 -0.3942  0.5093
  454MOL0     C61173   4.159   0.499  11.777 -0.5253  0.8236  0.6812
  454MOL0     C61174   4.040   0.437  11.765  0.9090  0.7480  0.2301
  454MOL0     C61175   3.905   0.490  11.741  0.4289 -0.2170  0.7048
  454MOL0     C61176   3.878   0.539  11.594 -0.4720  1.0505  0.3104
  454MOL0     C61177   3.740   0.609  11.583  0.1220  1.1283  0.2850
  454MOL0     C61178   3.742   0.694  11.450  0.1791  1.0918 -0.9040
  454MOL0     O61179   3.830   0.804  11.446 -0.0723  0.6158 -0.6816
  454MOL0     C61180   3.836   0.872  11.326 -0.3975 -1.0095 -0.1901
  454MOL0     C61181   3.732   0.906  11.258  0.0210 -0.3683  0.2016
  454MOL0     C61182   3.736   0.973  11.144  0.7586 -0.7232 -0.4683
  454MOL0     C61183   3.859   1.018  11.085 -1.3893  0.0671 -0.5103
  454MOL0     C61184   3.867   1.102  10.965 -0.7324 -0.1558  0.0966
  454MOL0     O61185   3.739   1.125  10.910 -0.1240 -0.0979  0.0040
  454MOL0     C61186   3.708   1.185  10.790 -0.7453  0.3256 -0.0438
  454MOL0     C61187   3.599   1.140  10.718 -0.0619  0.9921 -1.1488
  454MOL0     C61188   3.570   1.187  10.595 -0.1271  0.3647 -0.5725
  454MOL0     C61189   3.666   1.268  10.528  0.8317 -0.0844  0.6494
  454MOL0     O61190   3.659   1.313  10.397 -0.1518 -1.2579 -0.5021
  454MOL0     C61191   3.611   1.223  10.299 -0.1346  0.8395 -0.0104
  454MOL0     C61192   3.610   1.293  10.165 -0.3419 -0.7303 -0.6547
  454MOL0     C61193   3.756   1.329  10.129 -0.1638  0.7020  0.1648
  454MOL0     C61194   3.754   1.417  10.001 -0.8981 -0.1825  0.4928
  454MOL0     C61195   3.658   1.356   9.896 -0.0059 -0.7075 -0.3744
  454MOL0     C61196   3.667   1.432   9.766 -0.2784  0.6806 -0.8197
  454MOL0     C61197   3.536   1.422   9.683 -0.8874 -1.0369 -0.3961
  454MOL0     C61198   3.507   1.305   9.594 -0.4464  0.0733 -0.3129
  454MOL0    Cl61199   3.650   1.279   9.486  0.0622 -0.0088  0.0189
  454MOL0     C61200   3.773   1.321  10.602 -0.0069 -0.0194  0.3980
  454MOL0     C61201   3.793   1.275  10.735  0.6193 -0.5817 -0.1848
  454MOL0     O61202   3.978   1.125  10.918  0.7626  0.2109 -0.3308
  454MOL0     C61203   3.978   0.996  11.161  0.1611 -0.2441 -0.3722
  454MOL0     C61204   3.962   0.923  11.285 -0.0563  0.3289  0.9017
  454MOL0     N61205   4.042   0.297  11.789  0.4781  0.3197 -0.3048
  454MOL0     N61206   4.167   0.272  11.805 -0.2458 -0.0887 -0.7240
  454MOL0     C61207   5.397   0.808  11.477 -0.7401 -0.7623 -1.0467
  454MOL0     C61208   5.478   0.911  11.424 -0.2765 -0.5707 -0.5889
  454MOL0     C61209   5.733   1.257  11.278 -0.1025  1.0878  0.6722
  454MOL0     C61210   5.714   1.309  11.148 -0.7537  0.3873 -0.1554
  454MOL0     C61211   5.780   1.420  11.109  1.3407  0.6362  0.5866
  454MOL0     C61212   5.863   1.486  11.194 -0.1028 -0.5340 -0.2960
  454MOL0     O61213   5.924   1.606  11.163  0.0707  0.5668 -0.5619
  454MOL0     C61214   6.064   1.621  11.201 -0.2887  0.0731 -0.3772
  454MOL0     C61215   6.114   1.734  11.130 -0.3766  0.2008 -0.1430
  454MOL0     C61216   6.268   1.780  11.146  0.0079 -0.3190 -1.0953
  454MOL0     C61217   6.371   1.681  11.084 -0.3684 -0.8875 -0.7797
  454MOL0     C61218   6.383   1.689  10.941 -0.6043  0.1463  0.3119
  454MOL0     C61219   6.393   1.689  10.825 -0.6778 -0.4072 -0.3432
  454MOL0     C61220   5.878   1.441  11.326 -0.5256  0.6627 -0.0727
  454MOL0     C61221   5.813   1.324  11.374  0.0852 -0.2157  1.1119
  454MOL0     C61222   5.839   1.285  11.512  0.2505  0.0705  0.3109
  454MOL0     H61223   5.513   1.136  11.670 -1.6070  1.6408 -1.8169
  454MOL0     H61224   5.324   0.971  11.774 -2.8224 -2.1204 -0.8022
  454MOL0     H61225   5.130   0.767  11.503 -6.4721 -1.4629 -0.0113
  454MOL0     H61226   5.138   0.605  11.572 -2.4416 -1.0388  1.1548
  454MOL0     H61227   5.026   0.814  11.735 -2.5631 -1.8400  3.6475
  454MOL0     H61228   5.029   0.654  11.772 -3.8945 -0.4145 -0.5956
  454MOL0     H61229   4.900   0.683  11.502 -0.9927  2.2514 -0.8886
  454MOL0     H61230   4.824   0.784  11.617 -1.2118 -0.0902 -1.8288
  454MOL0     H61231   4.862   0.473  11.598 -0.8398 -1.2792  1.5198
  454MOL0     H61232   4.812   0.555  11.752 -0.7155  2.5221 -0.3055
  454MOL0     H61233   4.612   0.631  11.684  2.3034  2.9054 -0.8396
  454MOL0     H61234   4.635   0.557  11.519 -2.1430  0.1477  0.5038
  454MOL0     H61235   4.667   0.336  11.635  0.2540 -1.7498  1.1453
  454MOL0     H61236   4.627   0.400  11.789 -0.0806 -2.3883 -0.4111
  454MOL0     H61237   4.427   0.337  11.588 -2.6190  1.6263 -1.8798
  454MOL0     H61238   4.412   0.510  11.641 -2.2117 -2.2211 -0.9042
  454MOL0     H61239   4.422   0.284  11.830 -0.1357 -0.5157 -2.3439
  454MOL0     H61240   4.435   0.460  11.863  4.7272  0.1650 -1.4365
  454MOL0     H61241   4.178   0.606  11.771 -0.8788  0.9652  1.9249
  454MOL0     H61242   3.833   0.416  11.776  0.9074 -3.0432 -3.5450
  454MOL0     H61243   3.906   0.574  11.811 -0.7089 -1.0142  1.7213
  454MOL0     H61244   3.967   0.602  11.578  0.5113 -0.8180 -2.3183
  454MOL0     H61245   3.871   0.454  11.525  0.5901  1.4088 -0.2695
  454MOL0     H61246   3.724   0.678  11.667  0.1387  4.0959 -1.9794
  454MOL0     H61247   3.661   0.535  11.570  0.0749  1.1976  0.1810
  454MOL0     H61248   3.636   0.719  11.440 -0.3601 -0.1099  1.1732
  454MOL0     H61249   3.769   0.628  11.368 -2.6226 -0.4261 -0.7392
  454MOL0     H61250   3.634   0.878  11.297  0.6374 -2.1934  0.5345
  454MOL0     H61251   3.641   0.989  11.093 -0.1405  0.7508  1.5237
  454MOL0     H61252   3.531   1.069  10.763  0.5997  0.6918 -0.6017
  454MOL0     H61253   3.487   1.165  10.528  0.7627  2.0324 -2.3249
  454MOL0     H61254   3.677   1.136  10.306 -1.7915 -0.3858  1.3181
  454MOL0     H61255   3.507   1.191  10.314 -0.8640  3.6549  1.7307
  454MOL0     H61256   3.573   1.219  10.094 -1.1342 -0.5487 -0.4431
  454MOL0     H61257   3.544   1.381  10.171 -1.2524 -1.4561  0.5071
  454MOL0     H61258   3.796   1.381  10.217  0.0638 -1.2973  1.2911
  454MOL0     H61259   3.814   1.237  10.119  1.4346  1.5120  1.5767
  454MOL0     H61260   3.856   1.405   9.963 -0.4355  1.4934  1.0826
  454MOL0     H61261   3.727   1.523  10.012 -0.6653 -0.2384  1.6645
  454MOL0     H61262   3.557   1.353   9.938 -0.2094  0.2430 -0.7613
  454MOL0     H61263   3.680   1.251   9.878 -0.2696 -0.4604 -2.4368
  454MOL0     H61264   3.671   1.535   9.804  1.3240  1.1217 -2.0555
  454MOL0     H61265   3.765   1.404   9.724  0.2664 -0.5504  1.1559
  454MOL0     H61266   3.537   1.514   9.623 -2.0394  0.0314  1.1286
  454MOL0     H61267   3.449   1.418   9.749 -2.7298  1.7121 -2.4539
  454MOL0     H61268   3.494   1.213   9.652 -1.9204  0.8272  0.6070
  454MOL0     H61269   3.417   1.327   9.536  0.6838  2.8296 -1.1874
  454MOL0     H61270   3.850   1.388  10.564 -2.7484  5.1550  2.8672
  454MOL0     H61271   3.890   1.304  10.775  1.0167  1.5483 -2.4451
  454MOL0     H61272   4.079   1.027  11.135  0.8595 -2.4628 -0.5131
  454MOL0     H61273   4.051   0.906  11.345  2.5177 -3.4871 -3.3711
  454MOL0     H61274   5.382   0.710  11.434 -1.0037 -0.8760 -0.7081
  454MOL0     H61275   5.519   0.881  11.329  0.2978  0.9540 -0.8400
  454MOL0     H61276   5.658   1.254  11.073  0.2606 -0.1691 -0.5224
  454MOL0     H61277   5.766   1.456  11.007  1.4128 -1.2287 -0.1116
  454MOL0     H61278   6.124   1.532  11.179 -1.2435 -0.3577 -1.3431
  454MOL0     H61279   6.084   1.636  11.308  4.4387  1.7244 -1.2606
  454MOL0     H61280   6.061   1.826  11.155 -0.6044  0.6488 -2.1034
  454MOL0     H61281   6.098   1.707  11.025 -1.2185 -5.4133  1.0978
  454MOL0     H61282   6.294   1.792  11.251  1.6581  0.4833 -1.5535
  454MOL0     H61283   6.270   1.872  11.086 -0.9293 -1.1327 -2.4596
  454MOL0     H61284   6.470   1.702  11.125  0.8245 -3.6148 -1.9709
  454MOL0     H61285   6.343   1.576  11.101 -1.6574 -0.3007  0.9945
  454MOL0     H61286   6.401   1.688  10.718  0.9263 -1.4779 -0.2483
  454MOL0     H61287   5.950   1.482  11.397 -0.3225  3.5180 -1.7775
  454MOL0     H61288   5.859   1.178  11.519  0.0915 -0.2374 -2.6492
  454MOL0     H61289   5.931   1.332  11.546  2.1822 -1.9805 -1.7384
  454MOL0     H61290   5.754   1.316  11.574 -0.2367  0.2366 -0.4313
  455MOL0     O61291   5.106   7.515   1.759  0.5689  0.2753 -0.2944
  455MOL0     C61292   5.019   7.603   1.767 -0.1841 -0.1889 -0.3026
  455MOL0     O61293   5.032   7.725   1.699 -0.9906 -0.3946  0.2149
  455MOL0     C61294   5.117   7.736   1.596 -0.4237  0.7614 -0.8796
  455MOL0     C61295   5.261   7.737   1.606  0.8787 -0.4761  0.3612
  455MOL0     C61296   5.349   7.761   1.497 -0.5893 -0.3748 -0.8279
  455MOL0     C61297   5.295   7.795   1.375 -0.7345  0.2660  0.9075
  455MOL0     O61298   5.381   7.823   1.275 -0.5219 -0.5372  0.2201
  455MOL0     C61299   5.342   7.852   1.144  0.3700 -0.7400  0.3585
  455MOL0     C61300   5.462   7.880   1.054  0.1339 -0.1654  0.6621
  455MOL0     C61301   5.575   7.964   1.115  0.1265  1.3025  0.5716
  455MOL0     C61302   5.677   8.004   1.014  0.6133 -0.5103 -0.2456
  455MOL0     C61303   5.809   8.078   1.073  0.5790 -0.0417  1.1320
  455MOL0     C61304   5.866   7.993   1.177  0.1591  0.4042 -0.3513
  455MOL0     C61305   6.020   8.017   1.210 -1.0191 -0.1182  0.1219
  455MOL0     C61306   6.038   8.169   1.248 -0.2962  0.4370 -0.0287
  455MOL0     N61307   5.943   8.221   1.342  0.2150 -0.1129  0.3323
  455MOL0     C61308   5.949   8.201   1.481  1.4454  0.1753 -0.3374
  455MOL0     C61309   5.848   8.287   1.518  0.6201 -1.1808 -0.4002
  455MOL0     C61310   5.786   8.292   1.661 -1.0135 -0.9809  0.3101
  455MOL0     C61311   5.642   8.269   1.655  0.9274  0.6164  0.5816
  455MOL0     C61312   5.609   8.127   1.655  0.3761  0.5689 -0.0841
  455MOL0     C61313   5.452   8.104   1.640 -0.4257 -0.0773 -0.3620
  455MOL0     O61314   5.384   8.207   1.709 -0.5477  0.2019 -0.4068
  455MOL0     C61315   5.350   8.180   1.839  0.0290  0.2527  0.3048
  455MOL0     C61316   5.329   8.055   1.893  0.2256 -0.2275  0.2435
  455MOL0     C61317   5.316   8.032   2.025  0.1994  1.0363 -0.5409
  455MOL0     C61318   5.317   8.144   2.108 -0.2520 -0.5277 -0.2628
  455MOL0     C61319   5.322   8.135   2.262  0.9846 -0.2112 -0.5495
  455MOL0     O61320   5.314   8.254   2.331  0.5165 -0.8783  0.6663
  455MOL0     C61321   5.286   8.253   2.461 -0.0796  0.3104 -0.7895
  455MOL0     C61322   5.373   8.187   2.550 -0.0072  0.3810 -0.2646
  455MOL0     C61323   5.354   8.191   2.686 -0.0383  0.4180 -0.7037
  455MOL0     C61324   5.243   8.258   2.735 -0.0166  0.9711 -0.8854
  455MOL0     O61325   5.215   8.270   2.867  0.7334 -0.1799  0.5019
  455MOL0     C61326   5.288   8.190   2.959  0.6595  0.6345  0.4225
  455MOL0     C61327   5.205   8.197   3.076 -0.0677 -0.2148 -0.2178
  455MOL0     C61328   5.226   8.337   3.144  0.7293  1.0390  0.8140
  455MOL0     C61329   5.128   8.450   3.110  0.6849 -0.6557  0.0451
  455MOL0     C61330   5.144   8.549   3.231 -0.1749 -0.0181  0.3069
  455MOL0     C61331   5.028   8.563   3.334 -0.7100  0.8288 -0.5466
  455MOL0     C61332   4.923   8.663   3.287 -0.2933 -0.0963  0.7085
  455MOL0     C61333   4.848   8.735   3.405  0.1526 -0.1273  0.6087
  455MOL0    Cl61334   4.735   8.848   3.332 -0.3577 -0.6197  0.4692
  455MOL0     C61335   5.153   8.323   2.650 -0.2689 -0.9870 -0.3085
  455MOL0     C61336   5.169   8.318   2.512 -0.1282 -0.5342  0.1186
  455MOL0     O61337   5.313   8.022   2.313  0.1963  0.1932 -0.4509
  455MOL0     C61338   5.347   8.275   2.068 -0.1003  0.2600  0.7172
  455MOL0     C61339   5.359   8.294   1.926 -0.1881  0.4530  0.4871
  455MOL0     N61340   5.807   8.369   1.415 -0.3081 -0.3680 -0.2856
  455MOL0     N61341   5.864   8.328   1.308  0.3599  0.6769  0.1816
  455MOL0     C61342   5.157   7.787   1.356  0.0740  0.4839  0.0854
  455MOL0     C61343   5.072   7.753   1.465  0.0630 -0.7433  0.4654
  455MOL0     C61344   4.902   7.591   1.866 -0.5562  0.2114  0.6423
  455MOL0     C61345   4.822   7.709   1.874  0.8285 -0.3632 -0.8923
  455MOL0     C61346   4.703   7.706   1.941  0.6270  0.0057 -1.4829
  455MOL0     C61347   4.652   7.588   1.996 -0.0746 -0.4626  0.3432
  455MOL0     O61348   4.536   7.575   2.064  0.8181  0.3744  0.6689
  455MOL0     C61349   4.448   7.678   2.069  0.2426  0.0407 -0.1787
  455MOL0     C61350   4.354   7.644   2.189 -0.3730  0.9842  0.6196
  455MOL0     C61351   4.437   7.676   2.323  0.1007  0.0140 -0.4714
  455MOL0     C61352   4.425   7.817   2.386  0.6521  0.2022  0.3718
  455MOL0     C61353   4.413   7.921   2.279  0.4216  1.0352  0.1462
  455MOL0     C61354   4.387   8.009   2.206  0.5784  0.4584  0.0001
  455MOL0     C61355   4.736   7.477   1.988 -0.7379 -0.1697  0.0912
  455MOL0     C61356   4.865   7.476   1.941 -0.4468 -0.5640  0.6011
  455MOL0     C61357   4.945   7.344   1.935  0.9855  0.2859  0.0851
  455MOL0     H61358   5.310   7.714   1.700  0.4935 -1.0394  0.4296
  455MOL0     H61359   5.457   7.757   1.503 -0.6128 -0.6194 -0.5262
  455MOL0     H61360   5.277   7.766   1.124  0.3817 -0.4131 -1.2435
  455MOL0     H61361   5.283   7.945   1.141 -0.1032 -0.9835  1.5201
  455MOL0     H61362   5.422   7.939   0.971  0.3606 -2.8956 -1.5234
  455MOL0     H61363   5.492   7.781   1.019 -0.4627  0.4082 -1.6552
  455MOL0     H61364   5.627   7.911   1.195  3.0389  1.4334 -1.0760
  455MOL0     H61365   5.525   8.053   1.154 -0.4107  1.0053  0.5614
  455MOL0     H61366   5.717   7.917   0.961  2.9580  1.0867 -1.3002
  455MOL0     H61367   5.627   8.071   0.944 -1.0124 -0.1692  1.1764
  455MOL0     H61368   5.890   8.095   1.001  1.4701  0.0239  2.1241
  455MOL0     H61369   5.786   8.178   1.111  1.6586  0.0599  1.5552
  455MOL0     H61370   5.796   8.007   1.261 -3.0838  1.0912 -2.9699
  455MOL0     H61371   5.874   7.890   1.140 -3.5968 -0.0524 -0.2897
  455MOL0     H61372   6.075   8.004   1.116 -2.1202 -1.1845 -0.4013
  455MOL0     H61373   6.060   7.946   1.283  2.6319 -1.1777 -2.6314
  455MOL0     H61374   6.138   8.190   1.289 -0.6366  1.0969  0.4870
  455MOL0     H61375   6.019   8.231   1.160 -1.2804 -0.5254 -0.5158
  455MOL0     H61376   6.001   8.128   1.543 -1.4955 -1.4443  0.4057
  455MOL0     H61377   5.839   8.221   1.725  1.2083 -0.0847 -0.4216
  455MOL0     H61378   5.803   8.387   1.712  0.1313 -1.6523  1.2354
  455MOL0     H61379   5.588   8.319   1.735  1.3791  1.7129  0.2311
  455MOL0     H61380   5.606   8.312   1.561  0.2409  0.2497  0.6739
  455MOL0     H61381   5.634   8.100   1.758 -2.7048 -1.9673  0.1571
  455MOL0     H61382   5.665   8.062   1.587  3.0887  0.6380  1.9347
  455MOL0     H61383   5.437   8.000   1.670 -2.1185 -0.0231 -0.9244
  455MOL0     H61384   5.423   8.117   1.536  0.1667  2.5015 -0.2709
  455MOL0     H61385   5.312   7.984   1.812 -1.1276  0.6246 -0.2576
  455MOL0     H61386   5.289   7.938   2.073 -1.3463  1.8248  0.2222
  455MOL0     H61387   5.467   8.151   2.509 -1.1138 -3.8526  0.4475
  455MOL0     H61388   5.425   8.155   2.760 -2.6150  1.3249  2.4333
  455MOL0     H61389   5.284   8.087   2.924 -1.3354  0.1185  2.0065
  455MOL0     H61390   5.395   8.210   2.969  0.8135  0.3983 -0.6156
  455MOL0     H61391   5.102   8.179   3.042 -0.6199  2.9560 -0.5895
  455MOL0     H61392   5.246   8.124   3.146  1.7036 -0.8226 -1.8296
  455MOL0     H61393   5.204   8.316   3.249 -4.6273  2.5890  0.3019
  455MOL0     H61394   5.328   8.374   3.144  1.6598 -1.3150  1.8456
  455MOL0     H61395   5.024   8.426   3.086 -1.1258  4.1197  1.8954
  455MOL0     H61396   5.162   8.495   3.017 -0.7891 -2.0798 -1.2408
  455MOL0     H61397   5.169   8.652   3.203  0.5051 -0.1402  0.4278
  455MOL0     H61398   5.233   8.521   3.289 -0.7034 -3.4029 -0.3248
  455MOL0     H61399   4.989   8.462   3.350  1.3371  0.3854  2.7626
  455MOL0     H61400   5.069   8.585   3.433  0.9681  1.8531 -1.4141
  455MOL0     H61401   4.851   8.612   3.223  0.7270 -1.5966  0.7030
  455MOL0     H61402   4.975   8.739   3.227 -1.4297  0.5287  0.4902
  455MOL0     H61403   4.794   8.656   3.458 -0.3026 -1.2792 -1.4848
  455MOL0     H61404   4.918   8.788   3.471 -1.3164  0.4714  1.7677
  455MOL0     H61405   5.065   8.382   2.677 -0.1698 -0.9030 -0.1638
  455MOL0     H61406   5.113   8.373   2.437 -0.8506 -3.3983 -1.5911
  455MOL0     H61407   5.370   8.360   2.130 -0.1811  0.4649  0.4693
  455MOL0     H61408   5.389   8.391   1.890  4.0939 -1.1322 -0.7875
  455MOL0     H61409   5.107   7.793   1.260 -0.6874 -2.4551  0.1990
  455MOL0     H61410   4.971   7.731   1.432  0.1543  0.3336 -0.5996
  455MOL0     H61411   4.844   7.802   1.821 -2.5034 -0.2721 -2.3744
  455MOL0     H61412   4.650   7.799   1.955  2.1172  1.0429 -2.4168
  455MOL0     H61413   4.396   7.683   1.973 -1.1569  0.4349  0.5715
  455MOL0     H61414   4.503   7.772   2.081 -0.9082  0.6198  0.7732
  455MOL0     H61415   4.333   7.537   2.180 -2.2467  1.5132 -2.9369
  455MOL0     H61416   4.259   7.698   2.180 -1.2082 -0.7150 -1.7630
  455MOL0     H61417   4.546   7.667   2.315  0.0747 -0.6038 -0.2026
  455MOL0     H61418   4.398   7.602   2.394 -0.4280  0.9668  0.2566
  455MOL0     H61419   4.351   7.830   2.466  1.0945 -1.3794  1.0796
  455MOL0     H61420   4.522   7.830   2.434  2.5958 -3.7143 -1.9872
  455MOL0     H61421   4.366   8.096   2.147  1.5061 -0.3688 -1.6323
  455MOL0     H61422   4.683   7.389   2.021 -0.4308 -1.1721 -1.9634
  455MOL0     H61423   4.878   7.261   1.961  2.2005 -0.7649  0.0026
  455MOL0     H61424   4.952   7.339   1.826 -0.5357  5.0413 -0.4544
  455MOL0     H61425   5.045   7.340   1.980  0.6588 -2.2345  0.7581
  456MOL0     O61426   2.799   8.493   5.740  0.5158  0.3710 -0.1260
  456MOL0     C61427   2.797   8.587   5.669  0.0795 -0.0548  0.3126
  456MOL0     O61428   2.696   8.681   5.666 -0.3323  0.0933 -0.3646
  456MOL0     C61429   2.588   8.643   5.738  0.8293 -0.4784  0.0316
  456MOL0     C61430   2.477   8.590   5.661  0.7273 -0.2387 -0.0265
  456MOL0     C61431   2.355   8.558   5.721 -0.7617  0.9631 -0.1973
  456MOL0     C61432   2.332   8.570   5.861 -0.2105 -0.5280 -0.7332
  456MOL0     O61433   2.231   8.517   5.944  0.3666 -0.2755  0.9377
  456MOL0     C61434   2.131   8.431   5.886  0.3266 -0.2812 -0.0411
  456MOL0     C61435   1.985   8.472   5.928 -0.4124  1.1232  1.1599
  456MOL0     C61436   1.878   8.429   5.829 -0.4499 -0.0717  0.3995
  456MOL0     C61437   1.747   8.475   5.880  0.0492  0.1618  0.1722
  456MOL0     C61438   1.642   8.418   5.793  0.7496 -0.0107 -0.2850
  456MOL0     C61439   1.509   8.491   5.822  0.2164  0.2596 -0.0003
  456MOL0     C61440   1.470   8.443   5.971 -0.4408  0.1290 -0.3353
  456MOL0     C61441   1.418   8.560   6.060 -0.9559  0.1422  0.8471
  456MOL0     N61442   1.300   8.639   6.003 -0.5418  0.0501 -0.5664
  456MOL0     C61443   1.173   8.606   5.991  0.2505 -0.1573  0.4934
  456MOL0     C61444   1.112   8.722   5.957 -0.5990  0.3207 -0.5244
  456MOL0     C61445   0.966   8.755   5.960  0.7002  0.4826 -0.5126
  456MOL0     C61446   0.931   8.861   6.069  0.3040  0.2392  1.3983
  456MOL0     C61447   0.960   8.825   6.214 -0.1423  0.5455 -0.5036
  456MOL0     C61448   0.940   8.947   6.299  0.0239 -0.6748  0.2471
  456MOL0     O61449   0.960   8.931   6.441 -0.6723  0.0981  0.0779
  456MOL0     C61450   0.861   8.884   6.520  0.0266 -0.4187 -0.5545
  456MOL0     C61451   0.746   8.822   6.473  0.1781  0.2179  0.5333
  456MOL0     C61452   0.666   8.750   6.565 -0.0140 -0.2014  0.7378
  456MOL0     C61453   0.686   8.763   6.705 -0.4763  0.1713  0.4132
  456MOL0     C61454   0.589   8.713   6.800 -0.1085  0.5780 -0.2250
  456MOL0     O61455   0.493   8.639   6.749 -0.6239  0.3252 -0.3699
  456MOL0     C61456   0.417   8.553   6.823  0.7137  0.1653  0.0848
  456MOL0     C61457   0.450   8.422   6.829  0.3844 -0.2688  0.5855
  456MOL0     C61458   0.376   8.338   6.909  0.9862 -0.1667 -0.3023
  456MOL0     C61459   0.275   8.383   7.007 -0.3859  1.1193  0.8031
  456MOL0     O61460   0.198   8.293   7.083 -0.1167  0.1898 -0.5839
  456MOL0     C61461   0.142   8.354   7.207  0.5836 -0.3699 -0.0541
  456MOL0     C61462   0.136   8.238   7.306 -0.0923  0.2390  0.0272
  456MOL0     C61463   0.033   8.130   7.275  0.0449 -0.4458 -0.0341
  456MOL0     C61464  -0.112   8.154   7.341 -0.7853  1.0201  0.3441
  456MOL0     C61465  -0.195   8.039   7.286 -0.1403 -0.1753 -0.1635
  456MOL0     C61466  -0.319   8.019   7.377 -1.0421  0.3739  0.0060
  456MOL0     C61467  -0.408   7.913   7.302 -0.2029 -0.6895 -0.4724
  456MOL0     C61468  -0.505   7.966   7.191 -0.1828 -0.5487  0.1247
  456MOL0    Cl61469  -0.632   8.053   7.285  0.1946 -0.3105  0.7761
  456MOL0     C61470   0.250   8.522   7.000  0.8551  0.0339  0.5835
  456MOL0     C61471   0.324   8.605   6.913  0.5979 -0.2371 -0.4535
  456MOL0     O61472   0.601   8.735   6.920 -0.2190 -0.3885 -0.7673
  456MOL0     C61473   0.797   8.844   6.745  0.4033 -0.1661 -0.2920
  456MOL0     C61474   0.883   8.906   6.658 -0.1282  0.6300 -0.5716
  456MOL0     N61475   1.206   8.820   5.943  0.6557 -0.1268  0.9823
  456MOL0     N61476   1.318   8.767   5.968  0.5224 -0.2555  0.3869
  456MOL0     C61477   2.431   8.636   5.936 -0.4721  0.0175 -0.8066
  456MOL0     C61478   2.563   8.662   5.881  0.8348  0.7868  0.4362
  456MOL0     C61479   2.909   8.621   5.581  0.2321 -0.6597 -0.1675
  456MOL0     C61480   2.953   8.755   5.573  0.7392 -0.2446  1.1649
  456MOL0     C61481   3.067   8.788   5.493 -0.2253  1.0540 -0.2063
  456MOL0     C61482   3.140   8.682   5.436 -0.2119  0.7174  0.4282
  456MOL0     O61483   3.259   8.705   5.361 -0.5134  0.0723  0.3574
  456MOL0     C61484   3.330   8.592   5.289  1.4360  0.0212 -0.9422
  456MOL0     C61485   3.296   8.597   5.147  0.2158 -0.0385 -1.0991
  456MOL0     C61486   3.335   8.716   5.067 -0.0652  0.2942 -1.4452
  456MOL0     C61487   3.302   8.714   4.914  0.0433 -0.2030 -0.1554
  456MOL0     C61488   3.322   8.855   4.884 -1.1484  0.8484 -0.0786
  456MOL0     C61489   3.364   8.971   4.873  0.1994  0.9012 -0.7156
  456MOL0     C61490   3.071   8.569   5.415 -0.5981 -0.1526  0.3693
  456MOL0     C61491   2.965   8.533   5.492  0.1498  0.7727 -0.3335
  456MOL0     C61492   2.913   8.391   5.474 -0.8965 -0.6634 -0.4724
  456MOL0     H61493   2.480   8.562   5.557  2.2781  0.9694 -0.3526
  456MOL0     H61494   2.279   8.519   5.653 -1.5966 -0.8329  1.6531
  456MOL0     H61495   2.143   8.420   5.777 -0.2107 -4.0380  0.1340
  456MOL0     H61496   2.134   8.325   5.913 -2.1852 -0.6018 -0.7411
  456MOL0     H61497   1.987   8.581   5.919  0.5271  1.0586  0.3707
  456MOL0     H61498   1.957   8.437   6.028 -5.4301  1.2894  0.0514
  456MOL0     H61499   1.866   8.322   5.810 -0.2227  0.5545 -4.4612
  456MOL0     H61500   1.896   8.471   5.730  0.2206  0.3471  0.6890
  456MOL0     H61501   1.738   8.445   5.985  1.8239  0.6184  0.4975
  456MOL0     H61502   1.752   8.584   5.885  2.8244  0.0922  1.1395
  456MOL0     H61503   1.680   8.433   5.692  2.9604  3.0974  0.8577
  456MOL0     H61504   1.639   8.310   5.812  0.5408 -0.0423 -0.4925
  456MOL0     H61505   1.513   8.600   5.807 -3.5257  0.8079  1.9345
  456MOL0     H61506   1.425   8.461   5.760 -0.0065 -0.5950  0.6996
  456MOL0     H61507   1.546   8.391   6.030 -1.3574  0.9524  1.6818
  456MOL0     H61508   1.384   8.377   5.975 -0.6674  0.4258 -0.2280
  456MOL0     H61509   1.384   8.525   6.158 -0.6252 -1.0640  0.5423
  456MOL0     H61510   1.504   8.624   6.085  0.4935 -1.2779 -0.2693
  456MOL0     H61511   1.119   8.515   6.014  0.1709 -0.0392  0.7910
  456MOL0     H61512   0.961   8.794   5.859  0.6393  1.4328 -0.1498
  456MOL0     H61513   0.909   8.661   5.960  1.2421  0.1449 -0.0664
  456MOL0     H61514   0.979   8.954   6.037 -2.9423  0.6973 -3.0265
  456MOL0     H61515   0.825   8.874   6.049  0.2961 -2.6012 -0.9185
  456MOL0     H61516   1.064   8.792   6.231 -0.4640 -0.2658 -0.0436
  456MOL0     H61517   0.899   8.742   6.250  1.4643 -0.6366 -0.3607
  456MOL0     H61518   0.842   8.992   6.281 -0.1368 -0.0891  2.2731
  456MOL0     H61519   1.018   9.014   6.261 -2.8430  1.4543 -2.3392
  456MOL0     H61520   0.720   8.790   6.373  1.3309 -0.8641  0.5520
  456MOL0     H61521   0.588   8.680   6.538  0.8378 -0.7746 -0.3260
  456MOL0     H61522   0.529   8.392   6.761  0.7095 -0.0675  0.8730
  456MOL0     H61523   0.407   8.234   6.905 -0.9890 -1.0783  3.3109
  456MOL0     H61524   0.209   8.431   7.246  0.4769  0.6131 -1.7038
  456MOL0     H61525   0.054   8.416   7.188  1.7984  0.1783 -5.2945
  456MOL0     H61526   0.234   8.191   7.297  2.0620  3.7912  2.2358
  456MOL0     H61527   0.121   8.268   7.410 -2.9806  1.0533 -0.5066
  456MOL0     H61528   0.037   8.122   7.166 -0.9736 -0.5383 -0.0712
  456MOL0     H61529   0.072   8.035   7.314 -0.8111 -0.0621  1.9031
  456MOL0     H61530  -0.143   8.253   7.308  0.0671  0.4877 -2.2601
  456MOL0     H61531  -0.093   8.134   7.447  1.4035  0.0464 -0.1758
  456MOL0     H61532  -0.138   7.946   7.289 -0.7294 -0.6200  3.8564
  456MOL0     H61533  -0.228   8.061   7.184  0.0306  3.6053  0.4500
  456MOL0     H61534  -0.287   7.972   7.470  1.8585  0.3952 -0.8909
  456MOL0     H61535  -0.375   8.106   7.413 -0.5386  0.1626  1.3577
  456MOL0     H61536  -0.478   7.885   7.381 -0.6496  1.0150 -0.2326
  456MOL0     H61537  -0.349   7.823   7.286  0.5602 -0.1225 -0.8760
  456MOL0     H61538  -0.452   8.033   7.123  0.2970 -0.1854  0.8466
  456MOL0     H61539  -0.555   7.884   7.138 -0.6414  0.6562 -1.3733
  456MOL0     H61540   0.171   8.569   7.058 -1.6838 -1.9813 -1.0326
  456MOL0     H61541   0.306   8.711   6.928 -1.6672 -0.2542 -2.4756
  456MOL0     H61542   0.808   8.856   6.852  2.4611  1.2064 -0.5960
  456MOL0     H61543   0.962   8.971   6.694  1.0979 -0.9387 -0.3254
  456MOL0     H61544   2.416   8.659   6.041 -0.5557  0.9614 -1.0145
  456MOL0     H61545   2.638   8.699   5.950  0.0984  1.9917  0.6162
  456MOL0     H61546   2.905   8.835   5.628 -0.9172  0.1513 -0.7346
  456MOL0     H61547   3.117   8.885   5.492 -1.6027  1.8282  1.1004
  456MOL0     H61548   3.303   8.493   5.327 -1.5540  0.9467 -0.3940
  456MOL0     H61549   3.436   8.595   5.315  1.4772  0.7443 -1.1515
  456MOL0     H61550   3.187   8.590   5.154  0.1430 -1.0566 -2.6638
  456MOL0     H61551   3.342   8.508   5.103  1.8470  0.2022  0.0511
  456MOL0     H61552   3.443   8.731   5.079 -0.3291 -0.2946  3.1412
  456MOL0     H61553   3.277   8.793   5.118  0.0273 -1.3766  1.3808
  456MOL0     H61554   3.375   8.652   4.861  2.8069  2.2711  0.4843
  456MOL0     H61555   3.200   8.690   4.884 -0.8012 -0.2178  2.5052
  456MOL0     H61556   3.415   9.063   4.857 -0.2698  1.0651 -1.2897
  456MOL0     H61557   3.101   8.498   5.338  0.1825  0.1273  0.4068
  456MOL0     H61558   2.962   8.327   5.548  0.8893  3.1748  1.9792
  456MOL0     H61559   2.804   8.379   5.480 -1.1332 -0.2145 -2.8873
  456MOL0     H61560   2.942   8.352   5.376 -0.5687  0.1038 -0.6877
  457MOL0     O61561   6.431   1.261  11.217  0.2243 -0.5927 -0.5552
  457MOL0     C61562   6.431   1.191  11.317 -0.6944 -0.0074  0.8281
  457MOL0     O61563   6.368   1.074  11.342  0.2145  0.0283 -0.5607
  457MOL0     C61564   6.342   1.001  11.234  0.2369  0.2292  0.8608
  457MOL0     C61565   6.388   0.867  11.238  0.7558 -0.3788 -0.6414
  457MOL0     C61566   6.400   0.789  11.125  0.1291 -0.1680  0.0372
  457MOL0     C61567   6.362   0.838  10.995 -0.1603  0.5200  0.5446
  457MOL0     O61568   6.368   0.757  10.875  0.1407  0.1926 -0.2667
  457MOL0     C61569   6.414   0.807  10.744  0.7198 -0.1485  0.1829
  457MOL0     C61570   6.544   0.733  10.727  0.1368  1.1742 -0.8578
  457MOL0     C61571   6.613   0.745  10.591 -0.7182  0.3165 -0.1542
  457MOL0     C61572   6.709   0.636  10.557 -0.5456  0.0178 -0.6270
  457MOL0     C61573   6.760   0.669  10.412  0.4495 -0.5033  0.2140
  457MOL0     C61574   6.813   0.554  10.329 -0.2982  0.4614  0.0958
  457MOL0     C61575   6.932   0.490  10.399  0.0737  0.9129  0.0510
  457MOL0     C61576   6.896   0.358  10.469  0.1599  0.1158 -0.2433
  457MOL0     N61577   6.900   0.236  10.382 -0.2598 -0.0657  0.4788
  457MOL0     C61578   6.799   0.187  10.295  0.4814 -1.6740 -0.0592
  457MOL0     C61579   6.851   0.075  10.242 -0.1212  0.1127  0.1585
  457MOL0     C61580   6.786  -0.002  10.124  0.1492  0.3566 -0.3199
  457MOL0     C61581   6.888  -0.024  10.012 -0.2032 -0.1075 -0.0527
  457MOL0     C61582   6.901   0.076   9.896 -0.6206  0.2405  0.3555
  457MOL0     C61583   6.798   0.117   9.796  0.4439  0.0792 -0.0495
  457MOL0     O61584   6.666   0.093   9.843 -0.3283  0.0355  0.4824
  457MOL0     C61585   6.596   0.187   9.921  0.0642  0.3347  0.3824
  457MOL0     C61586   6.458   0.169   9.947  0.2075 -0.0612  1.2516
  457MOL0     C61587   6.378   0.256  10.018 -0.4286  0.0109  0.2831
  457MOL0     C61588   6.436   0.365  10.088 -0.0079  1.0758 -0.8870
  457MOL0     C61589   6.363   0.459  10.167 -0.6732  0.5402  0.0159
  457MOL0     O61590   6.420   0.581  10.182  0.7429 -0.0549  0.0312
  457MOL0     C61591   6.367   0.680  10.263 -0.1163 -0.1117  0.2924
  457MOL0     C61592   6.263   0.666  10.360  0.2379  0.8407 -0.8102
  457MOL0     C61593   6.207   0.779  10.430 -0.8551 -0.1322  0.1198
  457MOL0     C61594   6.253   0.905  10.405  0.6792  0.2201  0.0004
  457MOL0     O61595   6.200   1.005  10.495 -0.0467 -0.2176  0.4317
  457MOL0     C61596   6.173   1.135  10.434  0.2322 -0.2958 -0.0904
  457MOL0     C61597   6.133   1.246  10.534  1.0379  0.4809  0.7939
  457MOL0     C61598   6.246   1.272  10.649 -0.1853 -0.6574 -0.1531
  457MOL0     C61599   6.371   1.330  10.575  0.4754 -1.2165  0.0323
  457MOL0     C61600   6.473   1.363  10.687  0.3995  0.1467 -0.1341
  457MOL0     C61601   6.531   1.247  10.773  0.3236 -0.7846 -0.0766
  457MOL0     C61602   6.647   1.291  10.863  0.1900  0.8268 -0.0711
  457MOL0     C61603   6.697   1.175  10.954  0.5073  0.0632  0.1468
  457MOL0    Cl61604   6.785   1.044  10.863 -0.1547  0.5085 -0.1502
  457MOL0     C61605   6.345   0.924  10.305  0.2012  0.2279 -1.4354
  457MOL0     C61606   6.396   0.814  10.237  0.0797 -0.3864 -0.9275
  457MOL0     O61607   6.273   0.411  10.224  0.4141  0.2552 -0.4722
  457MOL0     C61608   6.578   0.375  10.077  0.1331 -0.3349 -0.1220
  457MOL0     C61609   6.654   0.290  10.000 -1.3898  0.1157  0.1919
  457MOL0     N61610   6.981   0.066  10.289  0.2613 -0.1601 -0.5716
  457MOL0     N61611   7.013   0.163  10.366 -0.9199  0.3060 -0.1934
  457MOL0     C61612   6.307   0.967  10.990 -0.4768  1.2979 -0.7625
  457MOL0     C61613   6.293   1.039  11.108 -0.9510 -0.9442  0.4523
  457MOL0     C61614   6.502   1.238  11.444 -0.3074 -0.5551  0.8953
  457MOL0     C61615   6.562   1.152  11.531 -0.1126 -0.6364  0.2980
  457MOL0     C61616   6.624   1.185  11.652  0.1155 -0.4226  0.2920
  457MOL0     C61617   6.638   1.312  11.686 -0.1922 -0.0857  0.7937
  457MOL0     O61618   6.705   1.369  11.793  0.5932 -0.6599  0.6735
  457MOL0     C61619   6.811   1.306  11.867 -0.9856  0.2359 -0.3333
  457MOL0     C61620   6.939   1.276  11.790 -0.1410 -0.5430 -0.2847
  457MOL0     C61621   7.028   1.400  11.765 -0.1343  0.1583 -0.3031
  457MOL0     C61622   7.142   1.392  11.657  0.4010  0.0510  0.3565
  457MOL0     C61623   7.212   1.265  11.639 -0.3548 -0.6593 -0.2275
  457MOL0     C61624   7.260   1.155  11.643  0.0390  0.0897  0.2278
  457MOL0     C61625   6.581   1.398  11.597  0.4900 -0.3120 -0.0052
  457MOL0     C61626   6.516   1.369  11.480  0.3373  0.0007 -0.0403
  457MOL0     C61627   6.469   1.497  11.407  0.8989 -0.1194  0.0822
  457MOL0     H61628   6.410   0.805  11.324  0.7063 -1.1838 -1.1936
  457MOL0     H61629   6.438   0.689  11.145 -1.4397 -0.1799  3.9581
  457MOL0     H61630   6.344   0.774  10.667  1.0583  0.1259 -0.2508
  457MOL0     H61631   6.430   0.915  10.742 -0.1594 -0.0200 -0.1865
  457MOL0     H61632   6.523   0.627  10.746  0.7457  1.1980 -0.0300
  457MOL0     H61633   6.609   0.769  10.807 -0.5344  0.2354  0.1423
  457MOL0     H61634   6.663   0.842  10.582 -1.6636  0.8287 -0.0284
  457MOL0     H61635   6.525   0.740  10.527 -0.9928 -2.6749  0.3139
  457MOL0     H61636   6.784   0.640  10.637 -2.1117 -1.4680  1.0154
  457MOL0     H61637   6.650   0.545  10.567 -1.1103  0.4231 -0.1748
  457MOL0     H61638   6.693   0.713  10.338  0.8150 -1.1650 -0.5371
  457MOL0     H61639   6.843   0.736  10.436  0.1609 -0.6629  1.7839
  457MOL0     H61640   6.734   0.479  10.327 -1.2525  1.4010 -2.8981
  457MOL0     H61641   6.844   0.579  10.227 -1.4891 -0.4290 -0.5102
  457MOL0     H61642   6.966   0.560  10.475  0.3295  1.1126 -0.2468
  457MOL0     H61643   7.005   0.479  10.319 -1.6737  4.8379 -2.3810
  457MOL0     H61644   6.974   0.350  10.545  2.5426  2.0520 -2.3016
  457MOL0     H61645   6.800   0.363  10.520  1.3100 -0.3085  2.1242
  457MOL0     H61646   6.706   0.234  10.267  1.2337  0.0266  0.2017
  457MOL0     H61647   6.746  -0.095  10.166  1.6710  0.0038  0.4054
  457MOL0     H61648   6.691   0.044  10.092 -0.8127 -0.3196  1.4529
  457MOL0     H61649   6.992  -0.029  10.047  0.1733  0.2391 -1.0895
  457MOL0     H61650   6.872  -0.123   9.967  2.1678 -0.3918 -0.4350
  457MOL0     H61651   6.991   0.052   9.837 -0.4290  0.8935  0.3627
  457MOL0     H61652   6.927   0.174   9.938 -3.9988  2.1043 -1.4751
  457MOL0     H61653   6.796   0.046   9.713 -2.7588 -0.5782  0.4650
  457MOL0     H61654   6.821   0.218   9.760  1.1119 -0.0758 -0.0657
  457MOL0     H61655   6.415   0.082   9.899 -0.2624 -1.6923  4.3800
  457MOL0     H61656   6.271   0.254  10.034 -0.4589  2.8971  0.8821
  457MOL0     H61657   6.231   0.565  10.386  2.9835 -0.0503 -0.5950
  457MOL0     H61658   6.134   0.769  10.509 -0.6161 -1.8920  0.1557
  457MOL0     H61659   6.249   1.172  10.365 -1.4162 -0.4443 -2.0859
  457MOL0     H61660   6.088   1.121  10.366 -2.0640  0.4473  2.4621
  457MOL0     H61661   6.120   1.340  10.480  1.4669 -0.2221 -0.5810
  457MOL0     H61662   6.036   1.210  10.570  0.0205  0.0278 -2.1752
  457MOL0     H61663   6.214   1.347  10.722  0.2964 -1.4550  0.8989
  457MOL0     H61664   6.274   1.184  10.708  1.2722 -1.0692 -1.4052
  457MOL0     H61665   6.345   1.417  10.514  1.2205 -1.2822 -0.4018
  457MOL0     H61666   6.422   1.251  10.518 -1.9507 -2.8552 -0.0008
  457MOL0     H61667   6.416   1.433  10.749 -1.2697  0.4737 -1.9315
  457MOL0     H61668   6.558   1.418  10.645  1.0961 -1.5266 -0.9873
  457MOL0     H61669   6.448   1.212  10.834 -0.4568  0.3750 -0.4334
  457MOL0     H61670   6.556   1.158  10.715 -1.6290  0.0783 -2.4154
  457MOL0     H61671   6.623   1.367  10.938 -0.2406 -1.0760  1.8369
  457MOL0     H61672   6.725   1.321  10.793 -2.0391 -2.1003 -4.2356
  457MOL0     H61673   6.771   1.212  11.026  0.4907  0.0733  0.1589
  457MOL0     H61674   6.607   1.147  11.009 -2.3405  2.5730 -2.8016
  457MOL0     H61675   6.394   1.019  10.284  2.4020 -0.8528 -1.5420
  457MOL0     H61676   6.468   0.844  10.162  1.8437 -0.6951  0.5825
  457MOL0     H61677   6.626   0.450  10.139 -0.8468  0.3289 -0.1598
  457MOL0     H61678   6.762   0.300   9.991 -1.4308 -0.7458 -1.7503
  457MOL0     H61679   6.273   1.010  10.897  1.6508  1.0844 -1.7106
  457MOL0     H61680   6.261   1.139  11.082  1.4055 -0.3828 -0.5451
  457MOL0     H61681   6.545   1.047  11.513  4.9136 -1.5826 -0.4188
  457MOL0     H61682   6.674   1.121  11.724  0.7461  2.0846  2.1944
  457MOL0     H61683   6.783   1.209  11.910  1.9418 -0.1583  0.9305
  457MOL0     H61684   6.821   1.363  11.960  0.7111  3.5174 -2.3837
  457MOL0     H61685   6.912   1.230  11.695  1.7571 -0.4739 -0.8933
  457MOL0     H61686   7.006   1.205  11.840 -0.1956 -0.1177  0.4106
  457MOL0     H61687   7.083   1.429  11.855  0.9637 -0.3960 -0.7735
  457MOL0     H61688   6.958   1.476  11.729 -0.8349 -0.1912  0.2984
  457MOL0     H61689   7.098   1.420  11.561  0.4942 -1.3513 -0.1182
  457MOL0     H61690   7.207   1.479  11.674  2.4952 -0.7832 -2.6568
  457MOL0     H61691   7.301   1.062  11.677  2.3145  2.4742  4.8624
  457MOL0     H61692   6.602   1.502  11.622  3.1609 -1.4202  3.1536
  457MOL0     H61693   6.561   1.556  11.402 -0.9415  2.8838 -1.0799
  457MOL0     H61694   6.422   1.484  11.309  1.9825  1.1457 -0.6420
  457MOL0     H61695   6.392   1.545  11.467 -0.1083  1.5589 -2.4139
  458MOL0     O61696   6.411   5.168   5.445  0.1801 -0.9960  0.2712
  458MOL0     C61697   6.489   5.268   5.424  0.2227 -1.0028 -0.2417
  458MOL0     O61698   6.588   5.266   5.326  0.0663 -0.0764  0.5542
  458MOL0     C61699   6.615   5.150   5.265 -0.0348 -0.1598 -0.0332
  458MOL0     C61700   6.626   5.026   5.325  0.8095 -0.2843  0.0410
  458MOL0     C61701   6.690   4.916   5.267 -0.2967 -0.2107  0.0358
  458MOL0     C61702   6.747   4.931   5.140 -0.0354 -0.3045 -1.5948
  458MOL0     O61703   6.812   4.832   5.080 -0.2414 -0.0953  0.5241
  458MOL0     C61704   6.828   4.707   5.140  0.2619 -0.0509 -0.7407
  458MOL0     C61705   6.816   4.620   5.028  1.1318  0.1246 -0.2672
  458MOL0     C61706   6.874   4.473   5.068 -0.6844 -0.5570 -0.2489
  458MOL0     C61707   6.828   4.367   4.962 -0.1795  1.1694 -0.6414
  458MOL0     C61708   6.682   4.346   4.939  0.5259  0.3713  0.3641
  458MOL0     C61709   6.599   4.331   5.061 -0.1741  0.7604  0.3533
  458MOL0     C61710   6.452   4.312   5.017 -0.0042  0.8404 -0.3311
  458MOL0     C61711   6.376   4.279   5.146  0.0566 -0.4162 -1.4263
  458MOL0     N61712   6.232   4.265   5.125  0.1260  0.1051 -0.2042
  458MOL0     C61713   6.139   4.364   5.134 -0.1578  0.5417  1.3465
  458MOL0     C61714   6.026   4.318   5.082 -0.1622 -0.2552  0.4089
  458MOL0     C61715   5.904   4.399   5.047 -0.1229  0.3600 -1.4870
  458MOL0     C61716   5.774   4.353   5.127 -0.1040  0.2110  0.9821
  458MOL0     C61717   5.750   4.201   5.144  0.1454 -0.1201  0.4609
  458MOL0     C61718   5.741   4.114   5.016  0.2410 -0.2237  0.3253
  458MOL0     O61719   5.678   4.188   4.911 -0.1853  0.3635 -0.0812
  458MOL0     C61720   5.670   4.128   4.782  0.2529 -0.0088 -0.1500
  458MOL0     C61721   5.581   4.187   4.682 -1.3084 -0.8305  0.4149
  458MOL0     C61722   5.574   4.145   4.550 -0.3300  0.2059  1.0622
  458MOL0     C61723   5.667   4.047   4.508 -0.3291 -0.1805 -0.1100
  458MOL0     C61724   5.674   4.013   4.372  0.2122 -0.0234  0.8657
  458MOL0     O61725   5.599   4.087   4.291  0.4644 -0.7587 -1.1981
  458MOL0     C61726   5.586   4.060   4.157  0.0377  0.7216 -0.2015
  458MOL0     C61727   5.506   3.953   4.116  0.5933 -0.5161 -0.2624
  458MOL0     C61728   5.473   3.926   3.983 -0.1707 -0.7518 -1.0411
  458MOL0     C61729   5.504   4.016   3.891 -0.8620 -1.4999  0.5685
  458MOL0     O61730   5.453   4.011   3.766 -0.5825  0.1369  0.9319
  458MOL0     C61731   5.334   3.937   3.741 -0.7111 -0.3367 -0.6787
  458MOL0     C61732   5.262   3.990   3.618  0.2035  0.3201 -0.1499
  458MOL0     C61733   5.116   3.937   3.626 -0.0553 -0.6086  0.0282
  458MOL0     C61734   5.110   3.782   3.609  0.5253 -0.0842  0.9950
  458MOL0     C61735   4.960   3.753   3.565  0.1292  0.4006  0.1467
  458MOL0     C61736   4.939   3.604   3.570 -0.0375  0.1241  0.1794
  458MOL0     C61737   4.999   3.517   3.465 -0.3816  0.0834 -0.1521
  458MOL0     C61738   4.970   3.372   3.484 -0.8028  0.2358 -0.2187
  458MOL0    Cl61739   4.995   3.311   3.649 -0.0579  0.2011  0.0152
  458MOL0     C61740   5.599   4.115   3.922 -0.3489 -0.5635  0.2518
  458MOL0     C61741   5.633   4.134   4.054  0.1002  0.0247 -0.3308
  458MOL0     O61742   5.746   3.915   4.344  0.3688  0.4750  0.2196
  458MOL0     C61743   5.755   3.989   4.604  1.1811  0.7024  0.8420
  458MOL0     C61744   5.751   4.021   4.741  0.3068 -1.0898  0.6550
  458MOL0     N61745   6.058   4.193   5.033  0.5783 -0.0465  0.4074
  458MOL0     N61746   6.179   4.158   5.061  0.4376  0.1317  0.2661
  458MOL0     C61747   6.747   5.059   5.088  0.0776 -0.2512 -0.2321
  458MOL0     C61748   6.671   5.168   5.139  0.3956 -0.0594 -0.2480
  458MOL0     C61749   6.445   5.401   5.480 -0.4475 -0.1212 -0.1675
  458MOL0     C61750   6.557   5.479   5.540  0.1861  0.7425  0.4586
  458MOL0     C61751   6.540   5.598   5.609 -0.2432  0.5136  0.0880
  458MOL0     C61752   6.414   5.642   5.630  0.3692  0.1155  0.1929
  458MOL0     O61753   6.369   5.759   5.693 -0.5671 -0.4107 -0.0356
  458MOL0     C61754   6.468   5.821   5.785 -0.2651  0.5224  0.5896
  458MOL0     C61755   6.391   5.877   5.903 -0.0430  0.5266 -0.0333
  458MOL0     C61756   6.377   5.777   6.017  0.1705 -0.2648 -0.0700
  458MOL0     C61757   6.360   5.838   6.158  0.2165 -0.4153  1.1704
  458MOL0     C61758   6.240   5.930   6.140  0.3683 -0.0600 -0.1359
  458MOL0     C61759   6.147   6.001   6.116  0.9498  0.7538  0.0438
  458MOL0     C61760   6.302   5.573   5.573 -0.1246  0.2889 -0.2022
  458MOL0     C61761   6.315   5.447   5.503 -0.7701 -0.2564 -0.4828
  458MOL0     C61762   6.192   5.366   5.448 -0.0470  0.5421  0.3065
  458MOL0     H61763   6.588   4.998   5.423  2.6577 -2.0074  0.3454
  458MOL0     H61764   6.678   4.821   5.318  4.3057 -0.5609  0.8867
  458MOL0     H61765   6.931   4.699   5.176  0.4177  0.8258 -0.9624
  458MOL0     H61766   6.752   4.665   5.206  0.6013  0.5368  0.0329
  458MOL0     H61767   6.884   4.651   4.948  3.3548 -1.4213  0.9228
  458MOL0     H61768   6.711   4.612   4.998  1.8024 -1.8633 -2.4134
  458MOL0     H61769   6.821   4.436   5.156  0.9772 -1.6744  0.3253
  458MOL0     H61770   6.983   4.483   5.070 -0.6299 -1.0805 -0.5184
  458MOL0     H61771   6.883   4.395   4.870  1.3332  1.9024  0.4349
  458MOL0     H61772   6.863   4.272   5.003  1.0436  1.5571 -0.7479
  458MOL0     H61773   6.645   4.435   4.886 -0.9293 -0.6260 -0.3612
  458MOL0     H61774   6.671   4.270   4.862 -1.8201  1.6616 -0.6876
  458MOL0     H61775   6.636   4.246   5.118  2.3361  0.2410 -1.8931
  458MOL0     H61776   6.603   4.422   5.122  0.4192  1.2645 -0.4159
  458MOL0     H61777   6.434   4.228   4.949 -1.2679 -0.3029  1.3267
  458MOL0     H61778   6.418   4.401   4.963  1.6496  2.1661  0.7112
  458MOL0     H61779   6.399   4.183   5.192 -3.0663  0.2669  2.0613
  458MOL0     H61780   6.398   4.353   5.224 -2.6701 -1.9375  0.9858
  458MOL0     H61781   6.132   4.464   5.176 -3.8469  1.2509 -0.5710
  458MOL0     H61782   5.931   4.504   5.060  2.5650 -0.0058 -3.1921
  458MOL0     H61783   5.882   4.383   4.941  1.0159 -0.4334 -1.6297
  458MOL0     H61784   5.784   4.394   5.228 -3.5920  2.4555  0.6011
  458MOL0     H61785   5.687   4.395   5.074  0.9461  0.1759 -0.8603
  458MOL0     H61786   5.649   4.192   5.185 -0.5428 -2.8313 -1.5929
  458MOL0     H61787   5.822   4.159   5.214  0.3515  0.4022  0.5660
  458MOL0     H61788   5.674   4.036   5.054 -0.8660 -0.1472 -1.3926
  458MOL0     H61789   5.832   4.064   4.983 -0.4126 -4.0323  3.4668
  458MOL0     H61790   5.517   4.271   4.705  2.1594  1.5995  2.0620
  458MOL0     H61791   5.500   4.193   4.486 -1.0665 -0.5981  1.3004
  458MOL0     H61792   5.464   3.888   4.192  0.0762 -0.5870 -0.6062
  458MOL0     H61793   5.416   3.836   3.962 -1.1647 -0.1603 -0.9363
  458MOL0     H61794   5.361   3.832   3.727  2.1775  0.5818 -3.0381
  458MOL0     H61795   5.266   3.951   3.826 -0.3700  2.4774 -0.7697
  458MOL0     H61796   5.265   4.099   3.617  1.9929  0.6248 -6.5890
  458MOL0     H61797   5.299   3.947   3.525 -1.3696 -3.4047  0.7480
  458MOL0     H61798   5.075   3.963   3.724  1.6383 -0.7009  0.7942
  458MOL0     H61799   5.056   3.982   3.545 -0.0103  0.1324  0.3946
  458MOL0     H61800   5.130   3.726   3.701 -1.2376 -1.5434  0.5375
  458MOL0     H61801   5.179   3.747   3.531  1.5768 -1.5346  2.5101
  458MOL0     H61802   4.953   3.787   3.461  1.3894 -0.3863 -0.2112
  458MOL0     H61803   4.884   3.809   3.621  0.5890  2.6784 -1.3528
  458MOL0     H61804   4.957   3.576   3.675  3.5911 -0.7165 -0.5560
  458MOL0     H61805   4.830   3.589   3.572 -0.8310  4.3517 -1.0261
  458MOL0     H61806   5.107   3.531   3.475 -0.6688  1.3033  1.8352
  458MOL0     H61807   4.977   3.554   3.365  3.4917  3.2715 -0.0842
  458MOL0     H61808   4.866   3.347   3.461 -0.8236  1.9462 -2.3086
  458MOL0     H61809   5.030   3.316   3.411 -0.2318  1.5059 -0.7390
  458MOL0     H61810   5.616   4.184   3.840 -1.9917 -0.3375  0.0585
  458MOL0     H61811   5.703   4.217   4.061 -2.6102  2.5183 -1.1538
  458MOL0     H61812   5.823   3.916   4.563 -0.1226  0.4841 -1.0801
  458MOL0     H61813   5.830   3.986   4.806 -0.9774 -0.3561  2.7108
  458MOL0     H61814   6.805   5.072   4.998 -0.8612  0.3835 -0.7602
  458MOL0     H61815   6.659   5.256   5.077  1.6725  0.2732 -0.0501
  458MOL0     H61816   6.658   5.440   5.531  0.8953  1.7433  2.9508
  458MOL0     H61817   6.629   5.649   5.646 -0.6496  1.3390 -0.0414
  458MOL0     H61818   6.534   5.897   5.742  2.5091 -2.1432 -0.1157
  458MOL0     H61819   6.538   5.749   5.826  2.4209  3.4321  1.4940
  458MOL0     H61820   6.299   5.922   5.865  0.9649  1.1033 -1.9604
  458MOL0     H61821   6.455   5.948   5.957 -1.0653  1.4979 -0.0535
  458MOL0     H61822   6.463   5.709   6.018  0.2716 -0.1521 -0.8412
  458MOL0     H61823   6.293   5.711   5.992  1.6139 -1.9540 -0.6581
  458MOL0     H61824   6.346   5.760   6.232  1.0240 -0.3367  1.4221
  458MOL0     H61825   6.454   5.882   6.194  1.4558 -2.4275  0.5668
  458MOL0     H61826   6.068   6.073   6.108  0.4285  0.0864 -0.9979
  458MOL0     H61827   6.202   5.602   5.605 -0.7505 -0.5136 -1.3586
  458MOL0     H61828   6.097   5.413   5.475 -2.2379 -2.8615 -0.7285
  458MOL0     H61829   6.201   5.367   5.339  1.7064  1.5456  0.4289
  458MOL0     H61830   6.197   5.264   5.488 -0.2816 -1.2615 -3.7739
  459MOL0     O61831   1.532  10.368   0.908 -0.5407  0.4217 -0.6134
  459MOL0     C61832   1.456  10.308   0.982  0.0518 -0.5131 -0.5505
  459MOL0     O61833   1.365  10.224   0.943  0.3962 -0.6391  0.7883
  459MOL0     C61834   1.392  10.138   0.840 -0.1789  0.5622 -0.6805
  459MOL0     C61835   1.278  10.066   0.796  0.6545  0.6915  0.7762
  459MOL0     C61836   1.278   9.969   0.694  0.0304 -0.0274 -0.2711
  459MOL0     C61837   1.401   9.945   0.632 -0.0018  0.5048 -0.0688
  459MOL0     O61838   1.408   9.831   0.549 -0.2279 -0.9004 -0.8907
  459MOL0     C61839   1.513   9.827   0.447 -0.6104 -0.7613  0.0354
  459MOL0     C61840   1.466   9.764   0.323  0.1365 -0.6165  0.3502
  459MOL0     C61841   1.557   9.656   0.264 -0.8299 -0.4840  0.2440
  459MOL0     C61842   1.504   9.606   0.131  0.5617  0.3481  0.5639
  459MOL0     C61843   1.416   9.476   0.141  0.2591 -0.8129  0.6629
  459MOL0     C61844   1.507   9.352   0.174  0.2853  0.1050  0.3457
  459MOL0     C61845   1.433   9.224   0.124  0.2495  0.7605  0.4972
  459MOL0     C61846   1.551   9.121   0.097  0.3702 -0.9149 -0.6430
  459MOL0     N61847   1.510   8.978   0.070 -0.1898 -0.3078  0.1530
  459MOL0     C61848   1.426   8.900   0.150 -1.2667  0.1835 -0.6055
  459MOL0     C61849   1.427   8.784   0.090  0.2563 -0.2204  1.0674
  459MOL0     C61850   1.368   8.659   0.147  0.0969 -0.4032  0.1510
  459MOL0     C61851   1.321   8.555   0.049 -0.5313  0.3861  1.1221
  459MOL0     C61852   1.442   8.472  -0.009 -0.5304 -0.8861 -0.7495
  459MOL0     C61853   1.421   8.448  -0.159 -0.1919 -0.5206  0.3503
  459MOL0     O61854   1.314   8.358  -0.186 -0.4388  0.1729 -0.5984
  459MOL0     C61855   1.276   8.335  -0.318 -0.0641  0.8667 -0.9910
  459MOL0     C61856   1.198   8.227  -0.350  0.3331  0.3584 -0.5159
  459MOL0     C61857   1.136   8.211  -0.477 -1.1620 -0.3489  0.6609
  459MOL0     C61858   1.174   8.291  -0.582  0.9782  0.0478  0.3225
  459MOL0     C61859   1.115   8.273  -0.716  0.3763  0.6858 -0.1267
  459MOL0     O61860   1.074   8.133  -0.736  0.0435 -1.4060 -0.2376
  459MOL0     C61861   0.984   8.110  -0.841  0.1150 -0.0064 -0.0330
  459MOL0     C61862   0.981   8.185  -0.962  0.1779  1.0850 -0.2580
  459MOL0     C61863   0.897   8.145  -1.071 -0.9929 -0.0905 -0.4863
  459MOL0     C61864   0.818   8.033  -1.050  1.0397  0.2782  0.9610
  459MOL0     O61865   0.755   7.995  -1.166 -0.3499 -0.6209 -0.3327
  459MOL0     C61866   0.728   7.857  -1.201 -0.5684  1.1083  0.1910
  459MOL0     C61867   0.581   7.840  -1.152 -0.0107  1.1605  0.8560
  459MOL0     C61868   0.527   7.701  -1.110  0.1155 -0.9603  0.1555
  459MOL0     C61869   0.623   7.623  -1.028 -0.2481 -0.1812 -0.8674
  459MOL0     C61870   0.577   7.483  -0.994 -0.0421 -0.0296  0.5147
  459MOL0     C61871   0.608   7.426  -0.847  0.5203 -0.0193  0.3674
  459MOL0     C61872   0.502   7.446  -0.742  0.7888  0.4760  0.4469
  459MOL0     C61873   0.548   7.434  -0.594  0.5527  0.9151 -0.3466
  459MOL0    Cl61874   0.553   7.253  -0.562  0.6724  0.1360 -0.2307
  459MOL0     C61875   0.821   7.962  -0.933  0.0409  0.4919  0.1407
  459MOL0     C61876   0.900   7.996  -0.827  0.4422 -0.0044 -0.2118
  459MOL0     O61877   1.090   8.377  -0.786  0.2275  0.3435 -0.0767
  459MOL0     C61878   1.258   8.397  -0.546  0.5787 -0.0110 -0.1281
  459MOL0     C61879   1.316   8.415  -0.421 -0.2708 -0.5997  0.0106
  459MOL0     N61880   1.507   8.784  -0.019  0.0911  0.2426 -0.6666
  459MOL0     N61881   1.549   8.910  -0.039  0.4434 -0.4040  0.3867
  459MOL0     C61882   1.513  10.022   0.658 -0.9067  0.1829  0.7525
  459MOL0     C61883   1.507  10.119   0.760  0.3612 -0.3146 -0.7588
  459MOL0     C61884   1.463  10.324   1.128  0.9968  0.3665 -1.3517
  459MOL0     C61885   1.360  10.275   1.214 -0.3184  1.0450 -0.3713
  459MOL0     C61886   1.351  10.311   1.349  0.7228  0.8574 -0.3398
  459MOL0     C61887   1.452  10.379   1.413  0.2125 -0.0631 -0.4745
  459MOL0     O61888   1.426  10.410   1.543  0.4462 -0.1444 -0.7957
  459MOL0     C61889   1.528  10.464   1.616  0.3136 -0.1080  0.1824
  459MOL0     C61890   1.495  10.441   1.764 -0.1847  0.1495 -0.1942
  459MOL0     C61891   1.367  10.523   1.815 -0.5442  0.3104  0.3118
  459MOL0     C61892   1.378  10.676   1.806 -0.3680 -1.4024  0.4193
  459MOL0     C61893   1.482  10.725   1.887  0.4237  0.0527  0.3800
  459MOL0     C61894   1.551  10.782   1.969  0.4851  0.4338 -0.5734
  459MOL0     C61895   1.548  10.438   1.335 -0.6454 -0.9401 -0.5015
  459MOL0     C61896   1.564  10.412   1.192  0.4250  0.0625 -1.2021
  459MOL0     C61897   1.687  10.475   1.125  0.4723  0.3699 -0.1840
  459MOL0     H61898   1.183  10.078   0.847 -0.2725 -0.2443 -0.6516
  459MOL0     H61899   1.185   9.915   0.681  0.6078 -1.4409  1.1285
  459MOL0     H61900   1.555   9.921   0.410 -1.0352 -1.2250 -1.7247
  459MOL0     H61901   1.602   9.778   0.488  2.1425  2.5962 -1.3613
  459MOL0     H61902   1.461   9.838   0.243  0.7784 -0.7827  0.1508
  459MOL0     H61903   1.374   9.710   0.349  0.5092  0.1527  3.6629
  459MOL0     H61904   1.578   9.566   0.323  3.0834  0.2713  0.2880
  459MOL0     H61905   1.654   9.703   0.248 -0.3352 -1.4764  0.2161
  459MOL0     H61906   1.430   9.680   0.099 -0.7018  0.3577  3.2210
  459MOL0     H61907   1.581   9.595   0.055  4.1659  2.2363  3.5911
  459MOL0     H61908   1.347   9.494   0.224 -2.1743 -0.0739 -1.3624
  459MOL0     H61909   1.369   9.463   0.043  3.2149  2.7336 -1.4714
  459MOL0     H61910   1.590   9.384   0.109 -1.2683  2.1807 -0.7248
  459MOL0     H61911   1.535   9.356   0.280 -1.6704 -1.3685  0.9569
  459MOL0     H61912   1.371   9.247   0.037  0.2512 -1.7060 -0.2180
  459MOL0     H61913   1.384   9.188   0.215 -1.0343 -0.7765 -0.7423
  459MOL0     H61914   1.624   9.150   0.021 -0.4999  0.5339 -0.9773
  459MOL0     H61915   1.612   9.116   0.188  3.0690 -0.0615 -2.2953
  459MOL0     H61916   1.371   8.919   0.242 -0.5349  0.9814 -0.3245
  459MOL0     H61917   1.434   8.611   0.220  2.0987  1.6103 -0.2329
  459MOL0     H61918   1.276   8.685   0.200 -0.9433 -3.2074 -0.0906
  459MOL0     H61919   1.260   8.488   0.110  0.4922 -0.6209  1.0602
  459MOL0     H61920   1.253   8.599  -0.025 -1.4626 -2.4465  0.1524
  459MOL0     H61921   1.465   8.370   0.023  0.0766 -0.0503  1.7077
  459MOL0     H61922   1.534   8.530   0.008 -1.5879  0.2290  1.7304
  459MOL0     H61923   1.509   8.397  -0.200  0.6911  1.5982 -0.5686
  459MOL0     H61924   1.421   8.554  -0.188  0.5813  0.4193  3.4487
  459MOL0     H61925   1.174   8.167  -0.263 -0.1703 -2.0910 -2.2660
  459MOL0     H61926   1.077   8.122  -0.495 -0.9623  0.2306 -3.8019
  459MOL0     H61927   1.022   8.285  -0.979  1.3994  1.0857  2.2730
  459MOL0     H61928   0.885   8.210  -1.157  0.1761 -0.5240 -1.0068
  459MOL0     H61929   0.735   7.837  -1.308 -2.5072 -3.8849  0.7132
  459MOL0     H61930   0.809   7.805  -1.151 -1.0069 -0.5436 -0.7430
  459MOL0     H61931   0.579   7.902  -1.062  0.7777 -0.9383  2.3974
  459MOL0     H61932   0.523   7.888  -1.232  0.7375 -1.5089 -1.4258
  459MOL0     H61933   0.429   7.708  -1.063  0.1550 -1.3055  0.2933
  459MOL0     H61934   0.505   7.650  -1.205 -0.6056  0.4643 -0.4745
  459MOL0     H61935   0.654   7.677  -0.938  1.8430 -1.6131 -0.6735
  459MOL0     H61936   0.718   7.614  -1.082 -0.9995 -1.6182 -1.9973
  459MOL0     H61937   0.629   7.424  -1.071  1.0384  1.1482  0.3107
  459MOL0     H61938   0.471   7.473  -1.019 -0.0862  1.7910 -0.1656
  459MOL0     H61939   0.619   7.319  -0.867  2.2359 -0.1106  1.5560
  459MOL0     H61940   0.703   7.462  -0.806  2.0955 -1.1567 -2.0303
  459MOL0     H61941   0.420   7.376  -0.760  1.4188 -0.0660 -0.3858
  459MOL0     H61942   0.465   7.549  -0.746  0.5785  0.4064  0.5473
  459MOL0     H61943   0.651   7.471  -0.585  2.0031 -1.9099 -3.1936
  459MOL0     H61944   0.488   7.496  -0.528  1.0163 -0.3727  1.3709
  459MOL0     H61945   0.780   7.862  -0.925  1.9426 -0.4394 -0.9076
  459MOL0     H61946   0.895   7.924  -0.746 -1.4704 -3.4729 -3.1486
  459MOL0     H61947   1.297   8.455  -0.629  4.5396 -0.9537  0.8500
  459MOL0     H61948   1.383   8.497  -0.395  1.1911 -1.8569  0.3916
  459MOL0     H61949   1.608  10.002   0.611 -0.7802  3.4727 -0.6245
  459MOL0     H61950   1.598  10.178   0.765 -1.6598  2.9759 -0.0930
  459MOL0     H61951   1.275  10.216   1.181  0.0824  1.1691 -1.6862
  459MOL0     H61952   1.270  10.269   1.407  2.1530 -0.4599  0.8000
  459MOL0     H61953   1.537  10.571   1.599 -0.5821  0.0504  0.6303
  459MOL0     H61954   1.620  10.409   1.596 -0.8720 -1.7814 -0.9774
  459MOL0     H61955   1.576  10.476   1.829  0.9350  1.1872 -2.0541
  459MOL0     H61956   1.476  10.337   1.791 -1.2757  0.2241 -0.6095
  459MOL0     H61957   1.358  10.487   1.918 -0.2768 -0.7734 -0.0342
  459MOL0     H61958   1.275  10.495   1.764  0.0969 -1.4025  0.0316
  459MOL0     H61959   1.389  10.705   1.701 -0.1914  0.5409  0.9321
  459MOL0     H61960   1.284  10.712   1.849  0.2272 -3.6231  3.9286
  459MOL0     H61961   1.615  10.838   2.033 -0.3607  0.6603  0.0976
  459MOL0     H61962   1.624  10.490   1.392 -0.1886 -1.1099 -0.9525
  459MOL0     H61963   1.734  10.410   1.051 -0.9981  1.0685 -1.8000
  459MOL0     H61964   1.647  10.563   1.073 -0.9885  0.0700  0.3900
  459MOL0     H61965   1.762  10.497   1.201 -0.5568 -1.6017  1.4916
  460MOL0     O61966   0.351  11.156   9.906 -0.2786  0.5815  0.2534
  460MOL0     C61967   0.284  11.225   9.830 -0.4528 -1.1016  0.2832
  460MOL0     O61968   0.271  11.213   9.694 -0.8220 -0.4822 -0.7063
  460MOL0     C61969   0.337  11.116   9.629 -0.2234  0.9847  0.2090
  460MOL0     C61970   0.272  11.004   9.578 -0.3265 -1.1094 -1.1437
  460MOL0     C61971   0.353  10.907   9.516 -0.0413 -0.0272 -0.6713
  460MOL0     C61972   0.489  10.938   9.492  0.3617  0.5911 -0.3102
  460MOL0     O61973   0.560  10.852   9.414 -0.0591  0.2989  0.5969
  460MOL0     C61974   0.696  10.866   9.378 -0.9497 -0.3907  0.0515
  460MOL0     C61975   0.773  10.804   9.495  0.5183  0.3888  0.2570
  460MOL0     C61976   0.759  10.658   9.501  0.0973  1.1508 -0.8218
  460MOL0     C61977   0.816  10.600   9.632  0.6222  1.1327 -0.5249
  460MOL0     C61978   0.865  10.450   9.633  0.2248  0.0992  0.9363
  460MOL0     C61979   0.744  10.367   9.612 -0.8220  0.0107  0.3598
  460MOL0     C61980   0.773  10.215   9.662  0.1507 -0.0386  1.3583
  460MOL0     C61981   0.791  10.117   9.553 -0.8614  0.1543  0.6946
  460MOL0     N61982   0.893  10.159   9.451 -1.0394  1.0554  0.7115
  460MOL0     C61983   1.029  10.173   9.483 -0.4182 -1.2726 -0.7021
  460MOL0     C61984   1.090  10.184   9.359 -0.3757 -0.3311  0.9226
  460MOL0     C61985   1.234  10.198   9.337 -1.2438 -0.1878 -0.5421
  460MOL0     C61986   1.323  10.192   9.473 -0.5874  0.2586 -0.4259
  460MOL0     C61987   1.475  10.190   9.451 -0.0333 -0.7379  0.2032
  460MOL0     C61988   1.525  10.332   9.402 -0.1005 -0.2426  0.2752
  460MOL0     O61989   1.544  10.333   9.264  0.2367 -0.9453 -0.2712
  460MOL0     C61990   1.555  10.453   9.197 -0.0699 -0.3186 -0.9346
  460MOL0     C61991   1.574  10.443   9.055  0.7898 -0.1411 -0.8169
  460MOL0     C61992   1.613  10.559   8.986 -0.4961  0.5436  1.2303
  460MOL0     C61993   1.651  10.680   9.046  0.0454  0.9300  0.7518
  460MOL0     C61994   1.702  10.794   8.966 -1.1408 -0.1663 -0.8047
  460MOL0     O61995   1.759  10.896   9.042 -0.0760  0.2808 -0.0102
  460MOL0     C61996   1.828  11.005   8.995 -0.8128  0.1771 -0.0921
  460MOL0     C61997   1.775  11.074   8.885  0.0374 -1.4390 -0.8513
  460MOL0     C61998   1.836  11.190   8.831  0.0490  0.2344  0.3597
  460MOL0     C61999   1.939  11.240   8.900 -0.0192  0.0885  0.6219
  460MOL0     O62000   2.004  11.355   8.854 -0.4535  0.7933 -0.1746
  460MOL0     C62001   2.089  11.328   8.728  0.3205 -0.5334 -0.2412
  460MOL0     C62002   2.145  11.458   8.672  0.5266  0.0582  0.8847
  460MOL0     C62003   2.207  11.448   8.522 -0.1575  0.5680  1.2701
  460MOL0     C62004   2.215  11.593   8.456 -0.1527  1.2072  0.7737
  460MOL0     C62005   2.299  11.696   8.527 -0.6419  0.8000 -0.4467
  460MOL0     C62006   2.442  11.715   8.475  0.3817 -0.5330  0.4654
  460MOL0     C62007   2.452  11.797   8.353  0.2823 -0.2188  0.0542
  460MOL0     C62008   2.592  11.778   8.297  1.2457 -0.3171 -0.6124
  460MOL0    Cl62009   2.721  11.847   8.402  0.2155  0.1537  0.0716
  460MOL0     C62010   1.994  11.177   9.011 -0.7546  0.2449  0.2281
  460MOL0     C62011   1.938  11.058   9.064 -0.2317 -0.6694 -0.4924
  460MOL0     O62012   1.716  10.779   8.844  1.1918 -1.0968  0.0534
  460MOL0     C62013   1.622  10.690   9.187  0.2738  0.0861 -0.2545
  460MOL0     C62014   1.579  10.576   9.259 -0.0448  0.2383 -1.2900
  460MOL0     N62015   0.989  10.196   9.257  0.1293 -0.2794 -0.4711
  460MOL0     N62016   0.875  10.193   9.320  0.1066 -0.4344  0.7197
  460MOL0     C62017   0.558  11.045   9.546 -0.0849 -0.1111 -0.2819
  460MOL0     C62018   0.472  11.135   9.615 -0.2596 -0.1503  1.2898
  460MOL0     C62019   0.180  11.304   9.893  0.2865 -0.9163  0.0165
  460MOL0     C62020   0.065  11.346   9.816  0.5120  0.3200 -0.6889
  460MOL0     C62021  -0.031  11.424   9.864  0.0409 -0.4979 -1.0823
  460MOL0     C62022  -0.031  11.474  10.002  0.3946  0.5054  0.0871
  460MOL0     O62023  -0.127  11.566  10.043  0.0234 -0.1056 -0.7692
  460MOL0     C62024  -0.106  11.639  10.169  0.3080  0.0429  0.0476
  460MOL0     C62025  -0.018  11.760  10.153 -0.0827  0.4689  0.3031
  460MOL0     C62026  -0.064  11.841  10.036  0.5334 -1.4805  0.2101
  460MOL0     C62027  -0.201  11.904  10.051 -0.7863 -0.1910 -0.0205
  460MOL0     C62028  -0.213  11.977  10.180  0.3159  0.5185  0.2177
  460MOL0     C62029  -0.217  12.036  10.286 -0.6635 -0.1198 -0.4409
  460MOL0     C62030   0.085  11.443  10.075  0.3052  0.0242  0.5712
  460MOL0     C62031   0.190  11.362  10.025  0.3789  0.1333 -0.5637
  460MOL0     C62032   0.317  11.359  10.112  0.1803 -1.2761  0.5183
  460MOL0     H62033   0.165  11.018   9.583 -0.0725  0.6608  0.8467
  460MOL0     H62034   0.294  10.823   9.481 -3.4541  0.9090  2.1425
  460MOL0     H62035   0.715  10.808   9.287 -0.5445 -2.9225  1.6522
  460MOL0     H62036   0.741  10.965   9.375  1.5404 -1.4407 -0.5846
  460MOL0     H62037   0.731  10.848   9.586  2.1152  0.7854  0.8265
  460MOL0     H62038   0.880  10.826   9.506  1.1053 -1.5496 -0.9765
  460MOL0     H62039   0.813  10.610   9.419  1.2749 -2.5977  1.8258
  460MOL0     H62040   0.653  10.630   9.500  0.5677 -0.8512 -0.3358
  460MOL0     H62041   0.909  10.656   9.649  2.9149 -1.5173 -3.1469
  460MOL0     H62042   0.742  10.613   9.712  0.1108 -2.6909 -0.1856
  460MOL0     H62043   0.936  10.432   9.552  1.4654  0.3618  1.9303
  460MOL0     H62044   0.914  10.435   9.730  4.1012  3.4979 -0.2098
  460MOL0     H62045   0.666  10.394   9.684  0.0607  3.3490  0.2416
  460MOL0     H62046   0.692  10.369   9.517 -1.1204 -2.9544  0.3839
  460MOL0     H62047   0.692  10.171   9.720 -1.1720 -2.1898 -1.8249
  460MOL0     H62048   0.861  10.212   9.727  1.6389 -2.1941 -0.5820
  460MOL0     H62049   0.810  10.020   9.600  3.1459  0.0020 -0.8573
  460MOL0     H62050   0.690  10.112   9.509  0.5572 -1.7758 -2.7000
  460MOL0     H62051   1.081  10.149   9.575 -4.2425 -2.0271  1.5038
  460MOL0     H62052   1.257  10.116   9.268 -0.7209 -0.4119 -0.1141
  460MOL0     H62053   1.254  10.291   9.284  0.8871 -0.1812  0.1531
  460MOL0     H62054   1.286  10.277   9.530  2.5787  1.8569 -0.5139
  460MOL0     H62055   1.299  10.104   9.534 -1.1199 -0.0659 -1.0840
  460MOL0     H62056   1.507  10.108   9.385 -0.2345  2.5220 -4.4415
  460MOL0     H62057   1.527  10.169   9.545  1.5603 -1.9944 -0.8939
  460MOL0     H62058   1.623  10.357   9.442  0.2980  1.7310 -1.7586
  460MOL0     H62059   1.445  10.404   9.422 -1.2773 -1.6558  0.9347
  460MOL0     H62060   1.557  10.348   9.005 -0.4350  0.7871 -2.2235
  460MOL0     H62061   1.628  10.553   8.879 -3.0053  0.3124  0.8152
  460MOL0     H62062   1.689  11.029   8.837 -0.9717 -1.1189  0.6163
  460MOL0     H62063   1.783  11.251   8.760 -0.4907  3.1041  3.0058
  460MOL0     H62064   2.167  11.251   8.732 -0.0428 -0.8590  1.0513
  460MOL0     H62065   2.028  11.286   8.647  3.9780 -1.9884 -2.5089
  460MOL0     H62066   2.060  11.526   8.667  0.0952 -0.5539 -1.4047
  460MOL0     H62067   2.212  11.494   8.750  1.3634 -1.1033  0.7224
  460MOL0     H62068   2.305  11.399   8.531  0.3449  0.9127 -1.3903
  460MOL0     H62069   2.135  11.385   8.470  1.7495 -1.7794  1.3105
  460MOL0     H62070   2.114  11.633   8.443  0.0693  1.5007 -0.0629
  460MOL0     H62071   2.261  11.584   8.357  2.7135 -1.4025  2.1669
  460MOL0     H62072   2.304  11.677   8.635  0.3961  0.4112 -0.5492
  460MOL0     H62073   2.252  11.791   8.502  2.8182  2.4779 -1.1461
  460MOL0     H62074   2.498  11.753   8.561 -2.7892  1.9441  1.6415
  460MOL0     H62075   2.469  11.612   8.450 -1.5712 -0.8139 -0.6252
  460MOL0     H62076   2.439  11.901   8.385  0.9329 -0.2878  0.5761
  460MOL0     H62077   2.373  11.773   8.281  1.9301 -1.1285 -1.5245
  460MOL0     H62078   2.605  11.673   8.268 -2.1150 -0.7174 -1.0978
  460MOL0     H62079   2.601  11.839   8.206  0.4402 -0.7616 -1.0118
  460MOL0     H62080   2.074  11.220   9.071 -0.0869  1.2050 -1.3040
  460MOL0     H62081   1.982  11.018   9.155 -1.3668 -0.8682 -0.0047
  460MOL0     H62082   1.636  10.780   9.246  0.4602  0.0467 -0.2403
  460MOL0     H62083   1.566  10.586   9.366 -3.3218 -0.9278 -1.4456
  460MOL0     H62084   0.652  11.087   9.513  0.3336  0.5794  1.6520
  460MOL0     H62085   0.499  11.238   9.637 -2.5645  0.8059  0.0663
  460MOL0     H62086   0.053  11.312   9.714  0.9842  1.3362 -1.0971
  460MOL0     H62087  -0.111  11.462   9.800 -1.2294 -0.2441  0.6000
  460MOL0     H62088  -0.065  11.571  10.244  0.3482  1.0923  1.0080
  460MOL0     H62089  -0.205  11.669  10.203  0.0737 -1.6747  0.9867
  460MOL0     H62090   0.083  11.726  10.128  0.2732  0.5986  1.4767
  460MOL0     H62091  -0.003  11.816  10.247  0.7917  0.5070  0.1503
  460MOL0     H62092  -0.056  11.791   9.939  0.0379  2.0062 -1.8113
  460MOL0     H62093   0.000  11.929  10.027 -2.6970  1.1749  1.0487
  460MOL0     H62094  -0.207  11.981   9.973 -0.5003 -1.9460 -1.8535
  460MOL0     H62095  -0.273  11.821  10.054 -1.5966  0.4476 -0.9481
  460MOL0     H62096  -0.215  12.092  10.378 -1.8319 -1.7869  0.6535
  460MOL0     H62097   0.101  11.494  10.169  3.0977  1.1632 -0.4170
  460MOL0     H62098   0.309  11.428  10.197  1.0369 -1.0525  0.4304
  460MOL0     H62099   0.344  11.260  10.148 -0.0727 -1.4828  0.1432
  460MOL0     H62100   0.407  11.386  10.056 -1.3613 -1.2343 -2.1129
  461MOL0     O62101  10.018   9.818   8.499 -0.2558 -0.4120  0.8864
  461MOL0     C62102  10.016   9.744   8.595  0.4036  0.3781 -0.0686
  461MOL0     O62103   9.950   9.624   8.592 -0.1084 -0.1231 -0.3576
  461MOL0     C62104   9.896   9.575   8.477 -1.2695  0.3764  0.3227
  461MOL0     C62105   9.965   9.489   8.392 -0.1612 -0.9801  0.2200
  461MOL0     C62106   9.912   9.438   8.278  0.0670  0.3340 -0.0562
  461MOL0     C62107   9.773   9.448   8.259 -0.6981 -0.1146 -0.6672
  461MOL0     O62108   9.705   9.405   8.144  0.2276  0.0639  0.1415
  461MOL0     C62109   9.789   9.396   8.028  1.1255 -0.7058 -0.2669
  461MOL0     C62110   9.702   9.426   7.900  0.6099 -0.2965  0.7839
  461MOL0     C62111   9.768   9.365   7.772  0.1380  1.1486 -0.5749
  461MOL0     C62112   9.665   9.380   7.658  0.4060  0.3838  0.3654
  461MOL0     C62113   9.735   9.365   7.522  0.2840  0.5188  0.5066
  461MOL0     C62114   9.868   9.272   7.532 -0.2655 -0.3241 -0.4915
  461MOL0     C62115   9.934   9.261   7.393  0.3069  0.1953  0.3409
  461MOL0     C62116  10.045   9.150   7.398 -0.5075  1.0345  1.3764
  461MOL0     N62117  10.086   9.098   7.262 -0.3264  0.2538 -0.6075
  461MOL0     C62118  10.001   9.079   7.158 -0.3373  0.2653 -0.5703
  461MOL0     C62119  10.073   9.083   7.042  0.0060 -0.4598  0.0555
  461MOL0     C62120  10.042   9.082   6.896  0.2804 -0.6749  0.3973
  461MOL0     C62121  10.150   9.137   6.799 -0.3325 -0.5162  0.5414
  461MOL0     C62122  10.149   9.283   6.777 -0.2144 -0.0977  0.9219
  461MOL0     C62123  10.234   9.313   6.656  0.5933 -0.3744  0.3850
  461MOL0     O62124  10.213   9.455   6.646 -0.3704  0.4651 -0.2801
  461MOL0     C62125  10.255   9.523   6.539 -0.5655  0.3475 -0.6258
  461MOL0     C62126  10.230   9.662   6.552 -0.1990 -0.6124  0.0608
  461MOL0     C62127  10.279   9.751   6.453 -0.5593 -0.3358  0.2921
  461MOL0     C62128  10.350   9.703   6.341 -0.2460  0.7113  0.3069
  461MOL0     C62129  10.398   9.779   6.223  0.4167 -0.4973 -0.3591
  461MOL0     O62130  10.335   9.906   6.205 -0.5292  0.7538 -0.4308
  461MOL0     C62131  10.365   9.957   6.078 -0.0983 -0.4978  0.4703
  461MOL0     C62132  10.465  10.056   6.069 -0.3569  0.3618  0.0723
  461MOL0     C62133  10.518  10.090   5.946  0.2228  0.0493 -0.0668
  461MOL0     C62134  10.471  10.029   5.830  0.3844  0.1548 -0.2693
  461MOL0     O62135  10.506  10.079   5.709 -0.0055  0.0260 -0.7247
  461MOL0     C62136  10.599  10.193   5.699 -0.5422 -0.1939 -0.0143
  461MOL0     C62137  10.525  10.326   5.711  0.2358 -0.6919  0.2907
  461MOL0     C62138  10.529  10.424   5.600 -0.0195  0.1918  0.6214
  461MOL0     C62139  10.446  10.369   5.479  0.3904 -0.9434 -0.3460
  461MOL0     C62140  10.431  10.476   5.374 -0.0281  0.0763  1.1518
  461MOL0     C62141  10.382  10.429   5.245  1.3840  0.8564  0.4797
  461MOL0     C62142  10.357  10.542   5.150 -0.6495 -1.4508 -0.0125
  461MOL0     C62143  10.296  10.508   5.020 -0.1021 -1.4696 -0.0675
  461MOL0    Cl62144  10.283  10.661   4.928 -0.0964 -0.0680  0.0599
  461MOL0     C62145  10.364   9.934   5.830 -0.3655  0.1064 -0.4938
  461MOL0     C62146  10.316   9.900   5.958  0.1154 -1.0995  1.0477
  461MOL0     O62147  10.491   9.732   6.155  0.3592  0.4401 -0.4025
  461MOL0     C62148  10.349   9.561   6.324 -0.1491  0.1089 -0.2669
  461MOL0     C62149  10.308   9.475   6.421 -0.2387 -0.1116  0.4404
  461MOL0     N62150  10.200   9.114   7.089 -0.4447 -0.3692 -0.1998
  461MOL0     N62151  10.215   9.129   7.216  1.3944 -0.2652 -0.0951
  461MOL0     C62152   9.705   9.541   8.337  0.7085 -0.7309  0.0924
  461MOL0     C62153   9.765   9.591   8.453  0.1540  0.2296 -0.1154
  461MOL0     C62154  10.099   9.780   8.717  0.2537 -0.4502  0.6760
  461MOL0     C62155  10.109   9.676   8.807 -0.7643  0.1502 -0.0383
  461MOL0     C62156  10.189   9.693   8.922  0.9116  0.0375  0.1148
  461MOL0     C62157  10.263   9.802   8.949 -0.1559 -1.6486  0.1684
  461MOL0     O62158  10.340   9.809   9.058 -0.2529  0.2885 -0.1342
  461MOL0     C62159  10.317   9.914   9.157 -0.4748 -0.9543  0.4840
  461MOL0     C62160  10.424  10.028   9.149  0.0503 -0.2931 -0.7455
  461MOL0     C62161  10.558   9.987   9.200  0.4421 -0.3273 -0.1114
  461MOL0     C62162  10.579   9.963   9.356  0.1477  0.4537  0.2604
  461MOL0     C62163  10.556  10.089   9.420 -0.1990  0.2588 -1.2226
  461MOL0     C62164  10.553  10.192   9.484  0.6623 -0.1650  0.1434
  461MOL0     C62165  10.263   9.907   8.857 -0.2340 -0.0199  0.2648
  461MOL0     C62166  10.173   9.901   8.745  0.0711 -0.1722  0.0716
  461MOL0     C62167  10.134  10.034   8.683 -0.6117  0.7449 -0.1964
  461MOL0     H62168  10.071   9.473   8.407  0.4176  2.4856  0.8448
  461MOL0     H62169   9.987   9.398   8.211 -1.9829 -0.1882 -2.1615
  461MOL0     H62170   9.881   9.454   8.033  0.0968  0.8931  1.0549
  461MOL0     H62171   9.833   9.296   8.018  3.5621 -0.0227  2.3753
  461MOL0     H62172   9.683   9.533   7.885 -4.4780 -0.7577  1.9849
  461MOL0     H62173   9.600   9.388   7.913  1.3137 -2.7847 -0.2176
  461MOL0     H62174   9.789   9.258   7.777  0.0235  1.1077 -0.9614
  461MOL0     H62175   9.860   9.422   7.757  0.1228  1.3928  0.2103
  461MOL0     H62176   9.588   9.302   7.664  0.8782 -0.0643  0.6786
  461MOL0     H62177   9.612   9.476   7.659 -1.2764 -0.4285 -1.7517
  461MOL0     H62178   9.664   9.328   7.448  3.6048 -1.1657 -2.1476
  461MOL0     H62179   9.772   9.462   7.489 -0.0816 -0.3017 -2.5750
  461MOL0     H62180   9.942   9.319   7.597 -0.7419  1.8518 -1.4428
  461MOL0     H62181   9.852   9.166   7.557  1.4605 -0.6037 -0.4565
  461MOL0     H62182   9.989   9.352   7.369  3.2586 -1.3833  0.6979
  461MOL0     H62183   9.863   9.235   7.314  1.0000 -0.8437  0.0476
  461MOL0     H62184  10.140   9.188   7.436  0.7028 -0.3096 -0.1635
  461MOL0     H62185  10.020   9.059   7.454  1.4280  0.6737  1.7114
  461MOL0     H62186   9.894   9.089   7.166 -0.4386 -1.6722  1.3129
  461MOL0     H62187  10.045   8.976   6.870 -0.5014 -0.7943  0.7768
  461MOL0     H62188   9.942   9.120   6.877  0.0161 -1.2191  0.6908
  461MOL0     H62189  10.250   9.107   6.831  0.4594 -0.6768 -1.8883
  461MOL0     H62190  10.133   9.094   6.700 -0.1125 -0.3441  0.4301
  461MOL0     H62191  10.195   9.348   6.853 -0.9283 -0.9167  2.0919
  461MOL0     H62192  10.043   9.309   6.764 -0.4484 -1.9584 -1.4957
  461MOL0     H62193  10.204   9.261   6.564 -2.1154  1.4992  0.0845
  461MOL0     H62194  10.338   9.284   6.672  0.6967 -1.5493 -1.9652
  461MOL0     H62195  10.192   9.687   6.650  2.9593 -2.7263  2.0216
  461MOL0     H62196  10.260   9.853   6.484 -0.0386 -1.1181  3.5484
  461MOL0     H62197  10.506  10.092   6.162  0.0626  0.5655 -0.1917
  461MOL0     H62198  10.596  10.166   5.948  1.3296 -0.7711 -3.9787
  461MOL0     H62199  10.693  10.186   5.755  1.3374 -1.2439 -3.0158
  461MOL0     H62200  10.639  10.191   5.597  0.2807  1.6057  0.2373
  461MOL0     H62201  10.426  10.296   5.748  0.9498 -2.5118  0.8056
  461MOL0     H62202  10.573  10.384   5.791  2.4059 -1.5915 -0.2851
  461MOL0     H62203  10.488  10.522   5.628  3.3984  1.7121  0.8545
  461MOL0     H62204  10.633  10.448   5.573  0.0798  0.1556  0.9731
  461MOL0     H62205  10.350  10.328   5.513 -0.0591  0.4058  0.1020
  461MOL0     H62206  10.482  10.277   5.433 -0.4448 -0.1693 -2.7156
  461MOL0     H62207  10.518  10.543   5.372 -1.6204  2.2901  1.5697
  461MOL0     H62208  10.360  10.549   5.413  1.8536  2.1226  0.9740
  461MOL0     H62209  10.448  10.352   5.205  0.3352 -0.2295  0.7676
  461MOL0     H62210  10.285  10.385   5.271 -0.2218  3.1798 -1.2055
  461MOL0     H62211  10.448  10.602   5.151 -2.4348  1.3944  0.1301
  461MOL0     H62212  10.283  10.611   5.190  1.8986  0.2787  2.0068
  461MOL0     H62213  10.371  10.443   4.975  3.1389 -0.0909  2.9082
  461MOL0     H62214  10.198  10.460   5.032 -0.1001 -1.5507 -0.3718
  461MOL0     H62215  10.331   9.878   5.743 -0.5387  0.5108 -0.6907
  461MOL0     H62216  10.258   9.812   5.982 -1.4853  0.3429  2.8568
  461MOL0     H62217  10.385   9.528   6.227  0.7940 -0.8882  0.3897
  461MOL0     H62218  10.315   9.367   6.408 -4.4936 -0.5675  0.5231
  461MOL0     H62219   9.604   9.555   8.301  1.6680  0.1583 -2.4892
  461MOL0     H62220   9.702   9.651   8.519  3.3932  0.7413  2.8567
  461MOL0     H62221  10.065   9.577   8.793  1.9095 -0.8816 -1.9550
  461MOL0     H62222  10.176   9.622   9.003 -3.3266 -0.9303 -1.1583
  461MOL0     H62223  10.328   9.864   9.253 -2.2279  1.9364  2.3663
  461MOL0     H62224  10.219   9.963   9.147  0.1867  0.1969 -0.7286
  461MOL0     H62225  10.389  10.106   9.217  0.6178 -1.3716  0.8430
  461MOL0     H62226  10.440  10.084   9.056  4.7242 -1.7312 -1.0967
  461MOL0     H62227  10.630  10.061   9.163  1.3455 -1.9364 -1.6742
  461MOL0     H62228  10.586   9.893   9.152  1.5149  0.1103 -0.3657
  461MOL0     H62229  10.506   9.890   9.394  1.1143 -0.2385  0.8375
  461MOL0     H62230  10.682   9.926   9.365  0.6188  1.6779  0.0929
  461MOL0     H62231  10.567  10.288   9.530  5.9603  0.8292 -2.7134
  461MOL0     H62232  10.312  10.002   8.878 -2.9067  1.4058  0.5506
  461MOL0     H62233  10.027  10.044   8.663 -0.7453 -1.1286 -0.5641
  461MOL0     H62234  10.164  10.115   8.751 -0.1650 -0.3487  0.9565
  461MOL0     H62235  10.194  10.052   8.593  0.1926  0.4787  0.2786
  462MOL0     O62236  11.335   4.751   7.310 -0.0635  0.2253  0.3200
  462MOL0     C62237  11.280   4.853   7.271 -0.2511 -1.0179 -0.7813
  462MOL0     O62238  11.209   4.942   7.352 -0.5550  0.4674  0.4280
  462MOL0     C62239  11.188   4.903   7.483 -0.8603  0.6865 -0.3922
  462MOL0     C62240  11.284   4.936   7.580  0.3713  0.3025  1.1182
  462MOL0     C62241  11.270   4.885   7.711  0.1693  0.6378  0.0382
  462MOL0     C62242  11.162   4.802   7.748 -0.2782  0.1106  0.4356
  462MOL0     O62243  11.158   4.747   7.872  0.4160 -0.1585 -0.0312
  462MOL0     C62244  11.051   4.664   7.920 -0.2296 -0.0062  0.5299
  462MOL0     C62245  11.085   4.576   8.045 -0.8460  0.0535  0.2317
  462MOL0     C62246  11.091   4.657   8.168 -0.2214 -0.5265 -0.3554
  462MOL0     C62247  11.131   4.559   8.274  0.8933 -0.2883  0.1231
  462MOL0     C62248  11.111   4.615   8.417 -0.0340 -0.5416 -0.8552
  462MOL0     C62249  10.963   4.615   8.454  0.7259  0.2350 -0.0042
  462MOL0     C62250  10.937   4.697   8.575  0.0266 -0.0719  0.5115
  462MOL0     C62251  10.799   4.736   8.589  0.8755  0.6144  0.2060
  462MOL0     N62252  10.763   4.789   8.717 -0.7419 -0.4023 -0.1995
  462MOL0     C62253  10.849   4.877   8.775  0.2945  0.3430  0.6695
  462MOL0     C62254  10.778   4.921   8.886  0.5473 -0.1134  0.7845
  462MOL0     C62255  10.816   5.019   8.983  0.2876  0.3840 -0.6984
  462MOL0     C62256  10.939   4.989   9.068  0.0903 -0.2254  0.9609
  462MOL0     C62257  11.069   5.007   8.984  0.2720 -0.3669 -0.0174
  462MOL0     C62258  11.192   5.082   9.056 -0.8397  0.0097  0.7240
  462MOL0     O62259  11.190   5.085   9.199  0.2668 -0.1150 -0.1368
  462MOL0     C62260  11.136   5.186   9.276  0.1131 -0.1343 -0.3541
  462MOL0     C62261  11.073   5.153   9.390  0.3107  0.3338 -1.2279
  462MOL0     C62262  11.044   5.250   9.484  0.3487 -0.1315 -0.7823
  462MOL0     C62263  11.050   5.388   9.452  0.3251  0.6807  0.1982
  462MOL0     C62264  11.009   5.493   9.554 -0.4777 -0.3392  0.2692
  462MOL0     O62265  10.995   5.474   9.689  0.1651 -0.7953 -0.0900
  462MOL0     C62266  10.967   5.586   9.772  0.1578 -0.7864 -0.7088
  462MOL0     C62267  11.029   5.715   9.763 -0.1105  0.6364  0.3538
  462MOL0     C62268  11.001   5.813   9.857  0.6392  0.4456  0.4984
  462MOL0     C62269  10.914   5.785   9.966  0.4846  1.0160 -0.5812
  462MOL0     O62270  10.863   5.885  10.056 -0.9381  0.1204 -0.5133
  462MOL0     C62271  10.924   6.014  10.054  0.6343  0.3081  0.9579
  462MOL0     C62272  10.845   6.072   9.943  0.2769  0.2624  0.3005
  462MOL0     C62273  10.883   6.222   9.918  0.8027  0.1668 -0.6288
  462MOL0     C62274  10.849   6.320  10.037 -0.0229  0.8142  0.7478
  462MOL0     C62275  10.704   6.303  10.092  0.3923 -0.3575 -0.4788
  462MOL0     C62276  10.651   6.433  10.146 -0.8609  0.4546  0.4541
  462MOL0     C62277  10.732   6.486  10.258 -1.1407 -0.9180 -0.9294
  462MOL0     C62278  10.677   6.606  10.331 -0.9759 -0.6169  0.6043
  462MOL0    Cl62279  10.651   6.736  10.221  0.4172  0.0452  0.1170
  462MOL0     C62280  10.853   5.659   9.979  0.2478 -1.5815  0.5368
  462MOL0     C62281  10.886   5.563   9.883  0.0048 -0.2969 -0.2685
  462MOL0     O62282  10.992   5.600   9.497  1.2224  0.4376  0.5577
  462MOL0     C62283  11.097   5.425   9.326  0.3418 -0.8435 -0.7258
  462MOL0     C62284  11.149   5.326   9.248 -0.6120 -0.0316  0.5238
  462MOL0     N62285  10.668   4.832   8.897  0.4457  1.4960  0.2719
  462MOL0     N62286  10.659   4.754   8.792  0.3239 -0.6287  0.5251
  462MOL0     C62287  11.061   4.786   7.650 -1.3452  0.5183 -0.5097
  462MOL0     C62288  11.074   4.840   7.523  0.6708  0.3242 -0.5709
  462MOL0     C62289  11.293   4.882   7.127  0.5480  0.4890 -0.0364
  462MOL0     C62290  11.278   4.780   7.029  0.5444 -0.3049 -0.2886
  462MOL0     C62291  11.301   4.809   6.899 -0.0766  0.1145  0.1660
  462MOL0     C62292  11.351   4.937   6.850  0.6248 -0.0645 -0.4044
  462MOL0     O62293  11.362   4.963   6.710  0.2600 -0.2517 -0.1234
  462MOL0     C62294  11.358   4.857   6.618  0.7001 -0.2832  0.7191
  462MOL0     C62295  11.218   4.828   6.563 -0.6369 -0.6374 -0.5610
  462MOL0     C62296  11.188   4.917   6.446 -0.3107  0.1514  0.7324
  462MOL0     C62297  11.055   4.864   6.401  0.3928 -0.1506  0.2993
  462MOL0     C62298  11.024   4.914   6.265 -0.3997  1.1279  0.3668
  462MOL0     C62299  10.998   4.966   6.157 -0.5713 -0.2604  0.0903
  462MOL0     C62300  11.344   5.042   6.936  0.4450  0.3933  1.0937
  462MOL0     C62301  11.320   5.016   7.073  0.1527  0.4623  0.5258
  462MOL0     C62302  11.330   5.126   7.163 -0.2915  0.2317 -0.3494
  462MOL0     H62303  11.375   4.985   7.548 -1.3045  3.3839  0.7146
  462MOL0     H62304  11.349   4.902   7.784  2.6868 -2.5841 -1.6324
  462MOL0     H62305  10.958   4.720   7.933 -0.0367  0.0934  1.5868
  462MOL0     H62306  11.025   4.598   7.837 -1.9881  1.3487 -0.0480
  462MOL0     H62307  11.183   4.530   8.033 -0.1907  0.2400  3.7397
  462MOL0     H62308  11.004   4.503   8.050 -1.6998  1.0498  3.0319
  462MOL0     H62309  10.992   4.700   8.185 -0.1245 -1.1259  1.9683
  462MOL0     H62310  11.178   4.723   8.170  0.4138 -1.3591  0.4038
  462MOL0     H62311  11.085   4.460   8.259 -2.0435  1.2430 -1.9975
  462MOL0     H62312  11.239   4.545   8.264  0.4628 -2.7670 -2.7419
  462MOL0     H62313  11.169   4.558   8.491  1.9703  0.1717 -1.8107
  462MOL0     H62314  11.154   4.716   8.423  2.7275 -1.6279 -0.6373
  462MOL0     H62315  10.902   4.661   8.376  0.7495  0.5892  0.1861
  462MOL0     H62316  10.927   4.513   8.470  2.5640 -0.1102  2.7036
  462MOL0     H62317  11.006   4.782   8.570 -0.8022  0.5857 -0.0195
  462MOL0     H62318  10.963   4.629   8.656 -2.3672 -1.5187  0.1436
  462MOL0     H62319  10.759   4.804   8.513  1.5647  0.0958 -0.6384
  462MOL0     H62320  10.740   4.646   8.573  0.3165  1.2491 -1.4175
  462MOL0     H62321  10.947   4.903   8.735  0.0635 -2.3301 -1.9770
  462MOL0     H62322  10.831   5.124   8.955  0.7462 -0.2156 -2.9080
  462MOL0     H62323  10.732   5.006   9.051  2.1174 -2.0299  1.3006
  462MOL0     H62324  10.942   5.064   9.148 -0.8845 -1.6781  2.4312
  462MOL0     H62325  10.922   4.888   9.105 -0.3569 -0.9684 -1.1390
  462MOL0     H62326  11.052   5.060   8.890  0.9360  1.0819  0.6561
  462MOL0     H62327  11.108   4.909   8.954 -1.8619 -0.7261 -1.9156
  462MOL0     H62328  11.198   5.181   9.010 -1.1287 -0.5842 -0.6244
  462MOL0     H62329  11.287   5.043   9.018  0.7844  4.2554 -0.1426
  462MOL0     H62330  11.060   5.049   9.418 -0.4605 -0.2905 -3.6707
  462MOL0     H62331  11.007   5.221   9.582 -1.9367  1.6448 -1.0296
  462MOL0     H62332  11.095   5.739   9.681  2.1087 -2.2281  1.1234
  462MOL0     H62333  11.043   5.911   9.835  2.6301 -0.7215 -1.3162
  462MOL0     H62334  10.901   6.065  10.148 -1.6119  1.6455 -0.2351
  462MOL0     H62335  11.030   6.021  10.031  0.7434  0.3275  1.4500
  462MOL0     H62336  10.855   6.002   9.859 -0.7182 -1.5569  1.6181
  462MOL0     H62337  10.738   6.069   9.966  0.6944 -0.0774  2.3904
  462MOL0     H62338  10.990   6.233   9.898  0.9563  3.2981  1.2935
  462MOL0     H62339  10.810   6.261   9.847 -1.9517  0.2062  2.0236
  462MOL0     H62340  10.865   6.421  10.000 -5.3551  1.1949 -1.3844
  462MOL0     H62341  10.916   6.298  10.121  1.0339  1.0427 -0.0028
  462MOL0     H62342  10.699   6.226  10.170  0.4223 -0.0802 -0.2031
  462MOL0     H62343  10.635   6.260  10.018  2.2029 -1.7081 -1.4605
  462MOL0     H62344  10.638   6.509  10.069  4.0628  0.8112 -0.3011
  462MOL0     H62345  10.555   6.406  10.192 -1.0265 -1.1072 -0.7311
  462MOL0     H62346  10.836   6.506  10.231  0.3424 -2.0961  3.1041
  462MOL0     H62347  10.754   6.402  10.326  1.6982  1.6993  1.6998
  462MOL0     H62348  10.583   6.563  10.366 -1.8161 -2.0800 -3.0240
  462MOL0     H62349  10.743   6.644  10.410 -2.0638  0.9160  0.8233
  462MOL0     H62350  10.777   5.644  10.055 -0.0254  2.2937  1.2352
  462MOL0     H62351  10.837   5.466   9.890 -0.1837 -0.1384  0.7338
  462MOL0     H62352  11.114   5.529   9.299 -1.1594 -0.4280 -0.1988
  462MOL0     H62353  11.201   5.346   9.154  1.4613  4.0895  2.3025
  462MOL0     H62354  10.987   4.715   7.687  0.0115 -0.0529  1.2923
  462MOL0     H62355  11.002   4.821   7.444 -0.6471  2.9867 -0.1010
  462MOL0     H62356  11.242   4.682   7.059  0.1339  0.5955  2.4032
  462MOL0     H62357  11.292   4.724   6.832  3.0824 -0.0482 -0.2389
  462MOL0     H62358  11.405   4.771   6.667  1.6862  0.8668  1.8481
  462MOL0     H62359  11.415   4.898   6.534  1.1667 -1.4867  0.4318
  462MOL0     H62360  11.139   4.840   6.637 -1.8421  0.2801 -1.9468
  462MOL0     H62361  11.203   4.727   6.524 -2.0490 -0.4884 -0.4314
  462MOL0     H62362  11.266   4.896   6.372 -1.7002  0.9242 -1.0127
  462MOL0     H62363  11.167   5.020   6.476 -1.1692 -0.7373  3.4482
  462MOL0     H62364  11.053   4.755   6.401  5.3052 -0.4370  1.3165
  462MOL0     H62365  10.973   4.905   6.462 -0.3966 -0.1286 -0.7442
  462MOL0     H62366  10.993   5.016   6.062 -0.8891  2.9916  1.6709
  462MOL0     H62367  11.361   5.143   6.900 -0.6103  0.0738 -0.3593
  462MOL0     H62368  11.255   5.145   7.241  1.1968  2.3217  0.6815
  462MOL0     H62369  11.425   5.109   7.214 -1.4815 -1.9101  1.3297
  462MOL0     H62370  11.337   5.225   7.117 -1.6805 -0.5618 -2.4011
  463MOL0     O62371  10.728  11.410   6.788 -0.7824 -0.0256  0.7608
  463MOL0     C62372  10.802  11.324   6.839  0.0769 -0.6424 -0.1724
  463MOL0     O62373  10.765  11.189   6.866  0.4450 -0.1492 -0.2811
  463MOL0     C62374  10.637  11.155   6.811  0.1191 -1.3779 -0.1137
  463MOL0     C62375  10.515  11.223   6.840 -0.9008  0.0398 -0.0413
  463MOL0     C62376  10.398  11.196   6.774 -0.2647 -0.1846 -0.4887
  463MOL0     C62377  10.401  11.081   6.691  0.7514  0.0305  0.8823
  463MOL0     O62378  10.292  11.041   6.623  0.2399 -0.3394  0.2532
  463MOL0     C62379  10.262  11.118   6.509 -0.1806  0.0541 -1.0281
  463MOL0     C62380  10.246  11.016   6.401 -0.5853  0.1523  1.6547
  463MOL0     C62381  10.150  11.072   6.291  0.4442 -0.0575 -0.3754
  463MOL0     C62382  10.123  10.972   6.170  0.2225 -0.5747 -0.0059
  463MOL0     C62383  10.012  11.031   6.076  0.4767  0.3382  1.5194
  463MOL0     C62384  10.015  10.961   5.938 -0.2911 -0.1674 -0.5460
  463MOL0     C62385   9.867  10.930   5.887 -0.8017 -0.8707 -0.0895
  463MOL0     C62386   9.853  10.794   5.824  0.5821 -0.0183  0.4407
  463MOL0     N62387   9.762  10.700   5.895  0.2087 -0.1889  0.0059
  463MOL0     C62388   9.805  10.650   6.011  0.5024 -0.8434  0.3433
  463MOL0     C62389   9.771  10.521   6.017  0.1230 -0.0955  0.1241
  463MOL0     C62390   9.825  10.417   6.116  0.4743  0.4836  0.1642
  463MOL0     C62391   9.840  10.483   6.260  0.6770 -0.3701 -0.2258
  463MOL0     C62392   9.700  10.544   6.300 -0.2600 -0.1267 -0.8221
  463MOL0     C62393   9.713  10.590   6.449  0.6258 -0.4933 -1.0129
  463MOL0     O62394   9.589  10.653   6.491  0.2395  0.5674  0.1973
  463MOL0     C62395   9.571  10.688   6.620 -0.4728 -0.8687 -0.2716
  463MOL0     C62396   9.671  10.658   6.720 -0.2112  0.5115  1.0169
  463MOL0     C62397   9.664  10.713   6.841 -0.3450  0.0329 -0.5228
  463MOL0     C62398   9.548  10.770   6.891 -0.5039  0.0198  0.9229
  463MOL0     C62399   9.545  10.819   7.032 -0.0205  0.2881  0.7105
  463MOL0     O62400   9.425  10.871   7.083  0.0734 -0.4517  0.4097
  463MOL0     C62401   9.426  10.918   7.217 -0.5939 -0.3567  0.0871
  463MOL0     C62402   9.529  11.011   7.257  0.6246 -0.5944  0.2741
  463MOL0     C62403   9.530  11.039   7.406 -0.5801 -0.0955  0.8178
  463MOL0     C62404   9.429  10.980   7.488  0.0079 -0.3966 -0.9484
  463MOL0     O62405   9.445  11.021   7.625 -0.1570  0.4132 -0.2674
  463MOL0     C62406   9.359  11.126   7.664  0.4488 -0.1966  0.5407
  463MOL0     C62407   9.228  11.079   7.752  0.0715  0.1850  0.7898
  463MOL0     C62408   9.163  11.182   7.842 -0.5127 -0.5234  0.2651
  463MOL0     C62409   9.036  11.127   7.919 -0.7857 -0.2496 -0.3070
  463MOL0     C62410   8.931  11.060   7.837 -0.2053  0.2245  1.6775
  463MOL0     C62411   8.880  11.150   7.720  0.7463  0.5578  0.6218
  463MOL0     C62412   8.773  11.252   7.737  0.2363 -0.1768  0.1755
  463MOL0     C62413   8.671  11.241   7.622  0.2706  0.0805  0.7589
  463MOL0    Cl62414   8.564  11.374   7.652  0.2103  0.2952  0.2948
  463MOL0     C62415   9.311  10.923   7.437 -0.2829 -0.0232 -0.3276
  463MOL0     C62416   9.312  10.899   7.302  0.9377 -0.1578 -0.9562
  463MOL0     O62417   9.650  10.822   7.096  0.2146  0.1390  0.5587
  463MOL0     C62418   9.444  10.786   6.800 -0.6019 -1.0562  0.5782
  463MOL0     C62419   9.461  10.761   6.665  0.8012 -0.3311  0.2949
  463MOL0     N62420   9.692  10.500   5.906  0.6206  0.5275  0.0150
  463MOL0     N62421   9.696  10.603   5.823  0.0540 -0.0210  0.4860
  463MOL0     C62422  10.516  11.001   6.673 -0.4969  0.3731 -0.1256
  463MOL0     C62423  10.633  11.040   6.741  0.3129  0.7575 -0.2864
  463MOL0     C62424  10.948  11.342   6.868  0.4328  0.1430  0.6567
  463MOL0     C62425  11.031  11.230   6.864  0.8133  0.5174  0.0831
  463MOL0     C62426  11.167  11.234   6.875 -0.3542  1.2065  0.2679
  463MOL0     C62427  11.228  11.361   6.893 -0.5698  1.8823  0.3799
  463MOL0     O62428  11.357  11.366   6.923  0.8683 -0.1422 -0.1821
  463MOL0     C62429  11.462  11.311   6.837  0.0007  0.6361  0.1111
  463MOL0     C62430  11.533  11.201   6.907  0.0387 -0.2815  0.8230
  463MOL0     C62431  11.626  11.259   7.017  1.1748  0.4585 -0.5381
  463MOL0     C62432  11.767  11.284   6.974 -0.2142 -0.2506 -0.4458
  463MOL0     C62433  11.856  11.290   7.094 -0.6524  0.8742 -0.1393
  463MOL0     C62434  11.925  11.273   7.190 -0.6614 -0.2148 -0.0138
  463MOL0     C62435  11.148  11.477   6.896  0.8243  0.9597 -0.1685
  463MOL0     C62436  11.015  11.474   6.882 -0.6176  0.3995  0.8541
  463MOL0     C62437  10.946  11.602   6.894 -0.4044 -0.2903 -0.0165
  463MOL0     H62438  10.520  11.298   6.918 -1.4876 -1.2868  1.3231
  463MOL0     H62439  10.301  11.240   6.794  1.1672  2.0100  2.4604
  463MOL0     H62440  10.172  11.172   6.541  1.0809  0.6133  1.9780
  463MOL0     H62441  10.334  11.199   6.493  0.8464 -0.9470 -1.6639
  463MOL0     H62442  10.211  10.919   6.436 -0.4564 -1.1226 -1.5134
  463MOL0     H62443  10.344  11.004   6.353 -2.2325 -0.9763 -1.7040
  463MOL0     H62444  10.196  11.163   6.250  2.7788 -1.3074 -0.6729
  463MOL0     H62445  10.048  11.082   6.330  0.5290 -1.8304  0.3947
  463MOL0     H62446  10.217  10.947   6.122  1.3582  0.3715  1.6239
  463MOL0     H62447  10.081  10.885   6.220 -1.5095 -0.1449 -0.6409
  463MOL0     H62448   9.920  11.016   6.135  0.9147  1.4838  2.5410
  463MOL0     H62449  10.025  11.139   6.074 -1.2476  0.5735  0.5586
  463MOL0     H62450  10.080  11.021   5.873  0.2536  0.0727  0.2128
  463MOL0     H62451  10.067  10.864   5.944  1.2130  0.4570 -2.5789
  463MOL0     H62452   9.840  11.000   5.808 -2.8795  0.6675  1.8391
  463MOL0     H62453   9.792  10.946   5.966  0.6229  0.9252  0.9784
  463MOL0     H62454   9.810  10.806   5.724  0.5378 -0.2940  0.4249
  463MOL0     H62455   9.947  10.748   5.793 -0.0412 -1.6179  0.7935
  463MOL0     H62456   9.876  10.688   6.085  3.8471 -2.9334 -1.5355
  463MOL0     H62457   9.754  10.334   6.123  0.7625  0.2520  0.3519
  463MOL0     H62458   9.919  10.383   6.072 -1.5075 -1.3181 -3.0165
  463MOL0     H62459   9.859  10.400   6.329 -1.9554 -0.0231  1.0221
  463MOL0     H62460   9.928  10.546   6.276 -0.1172  1.0816 -1.3233
  463MOL0     H62461   9.628  10.462   6.289  3.0156 -3.2766 -0.8281
  463MOL0     H62462   9.670  10.623   6.231 -0.1641  0.5687 -0.0840
  463MOL0     H62463   9.791  10.665   6.470 -0.5587  1.2145 -2.3452
  463MOL0     H62464   9.740  10.499   6.502  2.1587 -0.1689 -1.1846
  463MOL0     H62465   9.759  10.597   6.704 -0.2702 -1.0691  5.4116
  463MOL0     H62466   9.748  10.697   6.908 -1.5125 -3.2979  0.3630
  463MOL0     H62467   9.595  11.048   7.180 -2.6302 -0.9099 -2.9516
  463MOL0     H62468   9.615  11.096   7.443 -0.7421  1.1731 -0.6126
  463MOL0     H62469   9.407  11.203   7.726  0.1504  1.1910 -0.8823
  463MOL0     H62470   9.332  11.179   7.572  0.3589 -3.6409 -1.5721
  463MOL0     H62471   9.160  11.038   7.677 -0.4591  2.5562 -0.0858
  463MOL0     H62472   9.260  10.996   7.816  2.3356  0.5006  0.1448
  463MOL0     H62473   9.237  11.224   7.910 -1.4718  0.0739  0.9671
  463MOL0     H62474   9.138  11.260   7.769  1.0690 -2.1768 -2.2261
  463MOL0     H62475   8.991  11.217   7.961  1.4745  1.2604 -0.9567
  463MOL0     H62476   9.074  11.058   7.995 -0.4403 -2.2426 -2.1859
  463MOL0     H62477   8.843  11.041   7.900 -1.3657  0.5907  0.2253
  463MOL0     H62478   8.963  10.962   7.799  0.0292  0.5498  1.0293
  463MOL0     H62479   8.968  11.199   7.678 -0.0345  1.0684 -0.4721
  463MOL0     H62480   8.827  11.090   7.646  0.8902  1.7051 -0.4512
  463MOL0     H62481   8.829  11.345   7.731  0.3857 -0.3198 -0.7881
  463MOL0     H62482   8.714  11.244   7.829  0.1173  0.4783  0.1627
  463MOL0     H62483   8.721  11.252   7.525  0.6214 -0.8137  0.8312
  463MOL0     H62484   8.605  11.155   7.630  0.4287 -0.0055  1.1985
  463MOL0     H62485   9.236  10.892   7.509  1.7070 -2.2457  0.9477
  463MOL0     H62486   9.225  10.853   7.258 -0.4344  1.5883 -0.1837
  463MOL0     H62487   9.357  10.836   6.841  0.3446  1.0450  0.1764
  463MOL0     H62488   9.387  10.789   6.590 -0.1352  0.1032  1.3536
  463MOL0     H62489  10.506  10.922   6.599 -0.8147  0.4978 -0.2147
  463MOL0     H62490  10.732  11.003   6.716 -0.1300  0.3509 -1.4877
  463MOL0     H62491  10.981  11.136   6.844  0.2084  1.1136 -1.3163
  463MOL0     H62492  11.234  11.149   6.876 -3.8426 -1.7821 -0.6401
  463MOL0     H62493  11.525  11.390   6.795 -1.2773  0.0255 -3.3640
  463MOL0     H62494  11.405  11.274   6.750 -2.3171  3.2678  0.3428
  463MOL0     H62495  11.594  11.145   6.836  0.7432  1.4917 -0.0449
  463MOL0     H62496  11.472  11.136   6.970 -0.1777  0.9180  1.9062
  463MOL0     H62497  11.628  11.192   7.104 -2.1030  1.4929  0.4736
  463MOL0     H62498  11.591  11.354   7.057  3.2010 -0.8622  5.3726
  463MOL0     H62499  11.797  11.213   6.897 -0.8632  1.2540 -2.1563
  463MOL0     H62500  11.764  11.381   6.923  0.7489 -0.9652 -1.9400
  463MOL0     H62501  11.974  11.263   7.284 -1.8748 -2.6386  0.4506
  463MOL0     H62502  11.208  11.566   6.916 -2.2359  3.2488 -0.5343
  463MOL0     H62503  10.951  11.667   6.806 -3.0637  0.0308  0.0099
  463MOL0     H62504  10.839  11.584   6.908 -0.6529  0.7356 -0.4885
  463MOL0     H62505  10.996  11.662   6.971  1.5591 -0.2579 -1.2366
  464MOL0     O62506   1.768   7.589   4.963  0.1667 -0.0348  0.1880
  464MOL0     C62507   1.679   7.504   4.975 -0.6032  0.6373 -0.4362
  464MOL0     O62508   1.664   7.425   5.091 -0.4094  0.4324 -0.5997
  464MOL0     C62509   1.772   7.432   5.183 -0.0260  0.0807 -0.7639
  464MOL0     C62510   1.794   7.555   5.247 -0.4265 -0.4987 -0.1939
  464MOL0     C62511   1.901   7.573   5.338 -0.8810  0.1084  0.7423
  464MOL0     C62512   1.980   7.467   5.364 -0.0200  1.0994 -0.0289
  464MOL0     O62513   2.077   7.479   5.455 -0.0427  0.1894  0.0147
  464MOL0     C62514   2.127   7.601   5.512 -0.4017  0.8169 -1.2664
  464MOL0     C62515   2.249   7.570   5.611  0.0536  0.3756 -0.3715
  464MOL0     C62516   2.204   7.524   5.751  0.2381  0.2534  0.1716
  464MOL0     C62517   2.313   7.449   5.825  0.2106  1.3961 -0.8536
  464MOL0     C62518   2.242   7.354   5.930  0.6010  0.3799  0.1501
  464MOL0     C62519   2.347   7.299   6.035 -0.1370 -0.8794  0.4428
  464MOL0     C62520   2.310   7.204   6.156  0.2724  0.3940  0.8014
  464MOL0     C62521   2.209   7.086   6.133 -0.2960  0.7277  0.3758
  464MOL0     N62522   2.271   6.999   6.028 -0.1333  1.0048 -1.1730
  464MOL0     C62523   2.240   6.999   5.896 -1.0782 -0.7454 -0.7057
  464MOL0     C62524   2.338   6.938   5.828 -0.8905 -1.6499  0.8660
  464MOL0     C62525   2.369   6.945   5.677  0.0468 -1.2206 -0.2318
  464MOL0     C62526   2.404   6.810   5.619  0.2586 -0.6095 -0.3185
  464MOL0     C62527   2.460   6.814   5.471  0.0012 -0.2193 -1.0845
  464MOL0     C62528   2.352   6.840   5.378 -0.3787  0.4563  0.8967
  464MOL0     O62529   2.415   6.876   5.253  0.0440  0.0370 -0.0222
  464MOL0     C62530   2.359   6.952   5.154  0.7246 -0.4911 -0.5658
  464MOL0     C62531   2.424   6.969   5.036 -0.1618 -0.1090 -0.2681
  464MOL0     C62532   2.374   7.043   4.931 -0.0024  0.2763 -0.0807
  464MOL0     C62533   2.243   7.088   4.939  0.4108 -0.4589  0.3483
  464MOL0     C62534   2.179   7.163   4.823 -0.1889 -0.9968 -1.0084
  464MOL0     O62535   2.260   7.180   4.715  0.1592 -0.0229  0.4943
  464MOL0     C62536   2.206   7.234   4.605 -0.7116 -0.2418  0.0169
  464MOL0     C62537   2.274   7.335   4.545 -0.9760 -0.3817 -0.5030
  464MOL0     C62538   2.235   7.389   4.430  0.8404 -0.1739  0.8562
  464MOL0     C62539   2.122   7.338   4.354  0.0725 -1.4105 -1.1713
  464MOL0     O62540   2.095   7.389   4.232 -0.1201  0.1503 -0.3924
  464MOL0     C62541   1.975   7.368   4.170  1.0985  0.3020 -1.1756
  464MOL0     C62542   1.848   7.430   4.245 -0.1923 -0.2103  0.8150
  464MOL0     C62543   1.719   7.359   4.192 -0.3356 -0.5901 -0.7784
  464MOL0     C62544   1.614   7.392   4.294  0.7128 -0.4241 -1.5979
  464MOL0     C62545   1.468   7.368   4.240 -0.1484 -0.3926 -0.6439
  464MOL0     C62546   1.399   7.479   4.160 -0.2490  0.2899  0.1016
  464MOL0     C62547   1.363   7.419   4.019 -0.4996 -0.1231 -1.2894
  464MOL0     C62548   1.468   7.372   3.929  0.6137 -0.0212 -0.4432
  464MOL0    Cl62549   1.402   7.326   3.757  0.6005  0.1478  0.5371
  464MOL0     C62550   2.067   7.220   4.407 -0.3840  0.2538  0.3561
  464MOL0     C62551   2.102   7.169   4.529 -1.1886 -0.4154 -1.4519
  464MOL0     O62552   2.067   7.209   4.837  0.2179  0.1616  0.0434
  464MOL0     C62553   2.187   7.093   5.059  0.1658  0.0065 -0.0827
  464MOL0     C62554   2.239   7.027   5.170  0.4359  0.2697 -0.3434
  464MOL0     N62555   2.434   6.895   5.916 -0.5490 -0.4724 -0.4879
  464MOL0     N62556   2.391   6.928   6.034  0.0347  0.3186  0.1129
  464MOL0     C62557   1.953   7.337   5.312  0.4372  0.4815  0.3752
  464MOL0     C62558   1.843   7.317   5.216  0.1135 -0.5646 -0.0532
  464MOL0     C62559   1.577   7.504   4.873  0.1917 -0.5885 -0.4926
  464MOL0     C62560   1.440   7.482   4.901 -0.1400 -0.2927 -0.1695
  464MOL0     C62561   1.342   7.465   4.804  0.2525 -0.5165 -0.2891
  464MOL0     C62562   1.371   7.468   4.672 -0.3723 -0.2583 -0.4477
  464MOL0     O62563   1.277   7.435   4.574 -0.2905 -0.3709  0.6997
  464MOL0     C62564   1.147   7.376   4.608  0.1742 -0.6548  0.3000
  464MOL0     C62565   1.044   7.348   4.491  0.2793 -0.6134 -0.7709
  464MOL0     C62566   1.001   7.475   4.423  0.0460  0.1712 -0.3631
  464MOL0     C62567   0.887   7.459   4.329  0.5328  0.2100 -0.1123
  464MOL0     C62568   0.804   7.581   4.305  0.7706 -0.8517  0.6705
  464MOL0     C62569   0.723   7.670   4.288 -0.0808 -0.5635 -0.2861
  464MOL0     C62570   1.502   7.505   4.635 -0.8377  0.2427  0.4962
  464MOL0     C62571   1.603   7.519   4.736 -0.3363  0.4351 -1.3953
  464MOL0     C62572   1.751   7.550   4.684 -0.5711  0.2454 -0.6076
  464MOL0     H62573   1.730   7.637   5.214 -0.2674  0.6681  2.2038
  464MOL0     H62574   1.910   7.672   5.383  3.9024  1.2396 -1.9500
  464MOL0     H62575   2.150   7.658   5.422  1.0297 -0.4994 -1.7749
  464MOL0     H62576   2.053   7.649   5.577 -2.4058 -1.1638 -1.9217
  464MOL0     H62577   2.291   7.671   5.619  1.6542 -0.4173  2.5927
  464MOL0     H62578   2.313   7.498   5.558 -0.3365 -1.1347  1.1247
  464MOL0     H62579   2.123   7.456   5.723  0.6876 -1.0984  1.9721
  464MOL0     H62580   2.158   7.604   5.810  0.8338  0.5728  0.2121
  464MOL0     H62581   2.376   7.389   5.759  1.3623  1.3278  0.2678
  464MOL0     H62582   2.375   7.523   5.877 -1.7868  0.0873  3.9328
  464MOL0     H62583   2.168   7.406   5.992 -2.4611 -1.0993 -1.9996
  464MOL0     H62584   2.197   7.278   5.865 -2.8407  3.3810 -1.3779
  464MOL0     H62585   2.402   7.231   5.968 -1.6112  1.9281 -4.0527
  464MOL0     H62586   2.405   7.379   6.082 -0.8781 -0.9929  1.5780
  464MOL0     H62587   2.260   7.273   6.225 -2.6579 -0.8005  0.0196
  464MOL0     H62588   2.394   7.155   6.207 -1.0380 -0.2805  2.4125
  464MOL0     H62589   2.188   7.035   6.228  2.3199  2.2494  1.9008
  464MOL0     H62590   2.117   7.129   6.092  0.6118  0.6561 -1.8468
  464MOL0     H62591   2.155   7.056   5.859  2.2836  4.1892 -1.8671
  464MOL0     H62592   2.291   6.995   5.619  0.8561 -0.4013 -0.6326
  464MOL0     H62593   2.456   7.010   5.673 -1.7606  1.4069  0.2939
  464MOL0     H62594   2.482   6.760   5.678 -1.8482 -1.5710  1.8066
  464MOL0     H62595   2.308   6.759   5.614 -0.8566  0.7825  3.4770
  464MOL0     H62596   2.488   6.712   5.445 -0.1151 -1.0822  1.7661
  464MOL0     H62597   2.549   6.878   5.462  0.0750 -0.2635 -0.6799
  464MOL0     H62598   2.293   6.929   5.401 -0.0192  1.2703 -1.1206
  464MOL0     H62599   2.287   6.755   5.356  2.2592 -1.1511 -1.3816
  464MOL0     H62600   2.514   6.908   5.026 -0.9506 -1.4597  0.5036
  464MOL0     H62601   2.437   7.044   4.843  1.0756 -0.2891  0.6626
  464MOL0     H62602   2.363   7.382   4.585 -3.2897  2.7928  1.4312
  464MOL0     H62603   2.267   7.483   4.384 -2.5115  1.6196  1.8486
  464MOL0     H62604   1.974   7.407   4.068  2.2940  0.2981 -1.2021
  464MOL0     H62605   1.966   7.259   4.170  1.5691  0.2320  0.4093
  464MOL0     H62606   1.847   7.424   4.354 -1.9994 -1.3427  0.7750
  464MOL0     H62607   1.839   7.536   4.218 -0.3764 -0.7463 -1.4242
  464MOL0     H62608   1.691   7.404   4.096 -0.7583  2.4440  0.6185
  464MOL0     H62609   1.734   7.253   4.175 -1.2476 -0.5214 -2.1931
  464MOL0     H62610   1.621   7.493   4.336  2.1022 -1.6745  1.5585
  464MOL0     H62611   1.631   7.331   4.384 -1.6580  2.8236  1.3843
  464MOL0     H62612   1.401   7.334   4.320  0.0861 -2.4120 -1.2439
  464MOL0     H62613   1.475   7.278   4.179  0.2663 -0.8865  0.1221
  464MOL0     H62614   1.308   7.518   4.207  0.6235  1.3911  0.9393
  464MOL0     H62615   1.467   7.565   4.161  0.5579 -0.2766  2.9678
  464MOL0     H62616   1.301   7.500   3.979 -1.6618 -0.0841  0.4403
  464MOL0     H62617   1.288   7.346   4.051  0.1463 -0.0402  0.5370
  464MOL0     H62618   1.538   7.455   3.914 -0.6294  1.4696  1.5380
  464MOL0     H62619   1.518   7.283   3.967 -0.1857 -0.8899 -1.3703
  464MOL0     H62620   1.995   7.160   4.352  1.2228 -1.3453 -0.1011
  464MOL0     H62621   2.053   7.077   4.560 -2.2677  1.5049  3.3328
  464MOL0     H62622   2.102   7.157   5.077 -1.1773 -1.9911  1.0462
  464MOL0     H62623   2.201   7.034   5.272  2.5987  3.0793  0.3900
  464MOL0     H62624   2.014   7.255   5.348  0.0048 -0.7285 -1.5122
  464MOL0     H62625   1.810   7.225   5.169 -2.0286  1.3195 -2.5555
  464MOL0     H62626   1.426   7.474   5.008 -0.5143 -3.4358 -0.3604
  464MOL0     H62627   1.241   7.449   4.842  0.8856  1.3255  2.4842
  464MOL0     H62628   1.104   7.433   4.691 -2.2087  0.1831 -1.3948
  464MOL0     H62629   1.170   7.282   4.660 -1.2416 -0.6239  1.0339
  464MOL0     H62630   0.956   7.298   4.534  0.8218  1.2084  2.8432
  464MOL0     H62631   1.092   7.283   4.417  1.5414  0.2481 -0.7477
  464MOL0     H62632   1.077   7.526   4.363 -0.3006  1.6145  0.3693
  464MOL0     H62633   0.970   7.548   4.498 -2.3291  0.2347 -1.3272
  464MOL0     H62634   0.926   7.429   4.232  2.4789  3.0375 -0.3144
  464MOL0     H62635   0.830   7.372   4.363  0.1481 -0.1687 -1.6701
  464MOL0     H62636   0.654   7.749   4.267 -0.5029 -0.3148  1.8425
  464MOL0     H62637   1.525   7.519   4.530 -1.9670 -2.8392 -0.2902
  464MOL0     H62638   1.757   7.554   4.575 -1.0514 -2.7701 -0.8323
  464MOL0     H62639   1.771   7.652   4.718 -0.1797  0.3899 -1.2571
  464MOL0     H62640   1.827   7.479   4.719 -1.6917 -0.2405  0.9726
  465MOL0     O62641   9.361   1.768   6.416  0.6269  0.4708 -0.1577
  465MOL0     C62642   9.309   1.655   6.426 -0.2305 -0.7988 -0.2623
  465MOL0     O62643   9.248   1.601   6.535 -1.0595  0.4737  0.4332
  465MOL0     C62644   9.239   1.679   6.647  0.7065 -0.0667 -0.0568
  465MOL0     C62645   9.330   1.723   6.735 -0.0256  0.2207 -1.6016
  465MOL0     C62646   9.296   1.820   6.840  0.2083  0.1897  0.2600
  465MOL0     C62647   9.173   1.876   6.844  0.6417  0.0593  0.4426
  465MOL0     O62648   9.153   1.984   6.930 -0.2341 -0.5462 -0.5269
  465MOL0     C62649   9.035   2.063   6.918 -0.0343 -0.4528  0.7944
  465MOL0     C62650   9.025   2.190   7.008  0.1200  0.1773  0.1513
  465MOL0     C62651   9.008   2.154   7.150 -0.1193 -0.0723  1.2374
  465MOL0     C62652   8.985   2.260   7.247  1.0014  0.2038 -0.7242
  465MOL0     C62653   8.854   2.342   7.210 -0.5882  0.1071 -0.7513
  465MOL0     C62654   8.821   2.446   7.325  0.1939 -0.9987  0.2531
  465MOL0     C62655   8.785   2.385   7.473  0.1207  0.1895  0.5677
  465MOL0     C62656   8.705   2.252   7.466 -0.6405  0.7021  1.3244
  465MOL0     N62657   8.633   2.230   7.596 -0.0839  0.7934  0.0103
  465MOL0     C62658   8.687   2.236   7.716  0.2947 -0.3036  0.2893
  465MOL0     C62659   8.592   2.201   7.807 -0.3841 -1.1172  0.2558
  465MOL0     C62660   8.604   2.148   7.940  0.3099  0.7613 -0.1025
  465MOL0     C62661   8.635   2.258   8.039 -0.4206  0.0575  1.4969
  465MOL0     C62662   8.558   2.386   8.035 -0.4118  0.5970  0.2344
  465MOL0     C62663   8.432   2.357   8.110  0.6156  0.2489 -0.1958
  465MOL0     O62664   8.332   2.441   8.045  0.0458  0.5159  0.2789
  465MOL0     C62665   8.304   2.561   8.116 -0.3314 -0.2825 -0.4536
  465MOL0     C62666   8.269   2.667   8.036 -0.5923  0.0269 -0.3204
  465MOL0     C62667   8.223   2.786   8.077  0.0013 -0.3761  0.1822
  465MOL0     C62668   8.220   2.814   8.217 -0.4311  0.6873  0.2696
  465MOL0     C62669   8.172   2.942   8.271 -0.8435 -0.5860 -0.7383
  465MOL0     O62670   8.164   2.946   8.408 -0.0280  0.5578 -0.4186
  465MOL0     C62671   8.141   3.067   8.480  0.2364  0.1773  0.0609
  465MOL0     C62672   8.168   3.200   8.429 -0.3389  1.0715 -0.0467
  465MOL0     C62673   8.123   3.311   8.497 -0.1365 -0.2157 -0.6927
  465MOL0     C62674   8.064   3.296   8.622  0.1756 -0.1039 -0.6181
  465MOL0     O62675   8.020   3.408   8.688  0.9645  0.3295  0.3175
  465MOL0     C62676   7.899   3.465   8.641 -0.3708  0.4059  0.9540
  465MOL0     C62677   7.801   3.473   8.757  0.0842  0.0379  1.4897
  465MOL0     C62678   7.664   3.542   8.724  0.0616 -0.3867 -0.1318
  465MOL0     C62679   7.664   3.672   8.643 -0.6762 -0.2334 -0.2800
  465MOL0     C62680   7.527   3.742   8.630  0.2671  0.7779 -0.6211
  465MOL0     C62681   7.452   3.695   8.504  0.9390 -0.1651 -0.6906
  465MOL0     C62682   7.531   3.715   8.376 -0.8479  0.0135  0.3785
  465MOL0     C62683   7.438   3.721   8.264 -0.4304 -0.2522 -0.2661
  465MOL0    Cl62684   7.322   3.595   8.267  0.0769  0.2387 -0.1124
  465MOL0     C62685   8.040   3.168   8.682 -0.5096 -0.4982  0.6493
  465MOL0     C62686   8.083   3.053   8.606 -0.0247 -0.1576 -0.0154
  465MOL0     O62687   8.134   3.028   8.194 -0.4215  0.3628 -0.2409
  465MOL0     C62688   8.277   2.715   8.306 -0.2676 -0.5346  1.3004
  465MOL0     C62689   8.327   2.594   8.252 -0.3147  0.3212 -0.5693
  465MOL0     N62690   8.472   2.210   7.740 -0.6627 -0.6112  0.5734
  465MOL0     N62691   8.498   2.216   7.615  0.2619 -0.2787 -0.1863
  465MOL0     C62692   9.074   1.817   6.760 -0.2316 -0.1354  0.2646
  465MOL0     C62693   9.104   1.713   6.670  1.1540 -1.1537 -0.2691
  465MOL0     C62694   9.301   1.579   6.290 -0.0867  0.2931  1.2491
  465MOL0     C62695   9.371   1.636   6.183  0.8288 -0.6227  0.1549
  465MOL0     C62696   9.376   1.577   6.055 -0.5606 -0.6170  0.8780
  465MOL0     C62697   9.302   1.458   6.028 -0.5010  0.6213  0.5151
  465MOL0     O62698   9.307   1.387   5.908  0.2678  0.4723  0.1782
  465MOL0     C62699   9.331   1.463   5.784 -0.1363  0.1088 -0.2233
  465MOL0     C62700   9.270   1.398   5.659  0.3244 -0.1695  0.2462
  465MOL0     C62701   9.297   1.487   5.540 -0.7958  0.2892 -0.1846
  465MOL0     C62702   9.435   1.473   5.474 -0.0470 -0.5468  0.2253
  465MOL0     C62703   9.428   1.566   5.355  0.4245  1.2952  0.0312
  465MOL0     C62704   9.422   1.643   5.263 -1.0653  0.8570  0.1853
  465MOL0     C62705   9.231   1.403   6.132  0.0036 -0.1135 -0.5575
  465MOL0     C62706   9.227   1.461   6.260  0.7163 -0.2609  0.8444
  465MOL0     C62707   9.140   1.398   6.368  1.2098  0.7063  0.5288
  465MOL0     H62708   9.431   1.682   6.736 -0.2756 -0.4106 -0.8299
  465MOL0     H62709   9.365   1.854   6.917 -0.6077  1.8357  0.3098
  465MOL0     H62710   9.029   2.089   6.812 -2.5752  1.5070  1.3255
  465MOL0     H62711   8.947   2.003   6.945  1.3085 -3.1119 -0.3619
  465MOL0     H62712   8.941   2.252   6.976 -0.5751 -1.0976 -0.5716
  465MOL0     H62713   9.123   2.240   7.003  0.1097  0.2539  0.6295
  465MOL0     H62714   9.092   2.103   7.198  1.4426  0.2660 -0.9425
  465MOL0     H62715   8.919   2.091   7.150 -0.0695 -0.3893 -2.4393
  465MOL0     H62716   8.972   2.202   7.338  1.2702 -1.6652 -1.8344
  465MOL0     H62717   9.075   2.315   7.274  2.4305 -2.0912 -0.5801
  465MOL0     H62718   8.871   2.385   7.111  0.6214 -2.1043 -1.5740
  465MOL0     H62719   8.763   2.282   7.205  0.3007 -1.8797  3.0807
  465MOL0     H62720   8.897   2.523   7.340 -2.2997  1.6955 -0.0727
  465MOL0     H62721   8.738   2.505   7.286 -0.1729 -3.9768 -4.2352
  465MOL0     H62722   8.725   2.451   7.537  0.6386 -0.9437  2.2492
  465MOL0     H62723   8.876   2.364   7.529 -1.5377 -0.2310  3.2615
  465MOL0     H62724   8.626   2.264   7.391 -0.0437  1.8999  0.8680
  465MOL0     H62725   8.762   2.161   7.450 -3.5306 -1.1137  0.4697
  465MOL0     H62726   8.793   2.242   7.741  0.4494 -0.3973 -0.3320
  465MOL0     H62727   8.510   2.105   7.976 -0.2339  1.2006 -0.9657
  465MOL0     H62728   8.678   2.069   7.933 -1.4287 -0.9689  0.1312
  465MOL0     H62729   8.633   2.216   8.140 -0.0778 -3.9580  0.0125
  465MOL0     H62730   8.739   2.288   8.018 -1.0356  0.7069 -0.9283
  465MOL0     H62731   8.560   2.425   7.932  1.2586 -1.9834 -0.8250
  465MOL0     H62732   8.611   2.464   8.091 -0.0681 -1.1233  2.4300
  465MOL0     H62733   8.455   2.371   8.216  2.4001  0.9700 -0.6377
  465MOL0     H62734   8.409   2.250   8.109  1.3049  0.0945 -1.3780
  465MOL0     H62735   8.276   2.652   7.929 -0.6860 -0.2108 -0.2929
  465MOL0     H62736   8.213   2.864   8.003 -2.0469 -1.2950 -0.5685
  465MOL0     H62737   8.204   3.210   8.327 -2.6975 -0.8368 -1.1814
  465MOL0     H62738   8.146   3.409   8.456  2.2073 -0.0142  0.8868
  465MOL0     H62739   7.917   3.567   8.608 -0.0573 -0.8803 -3.4872
  465MOL0     H62740   7.836   3.412   8.569 -2.9086  1.4397  2.2843
  465MOL0     H62741   7.778   3.371   8.790  1.4480 -0.2765  1.5622
  465MOL0     H62742   7.868   3.523   8.828 -1.2542 -0.5372  3.2268
  465MOL0     H62743   7.592   3.481   8.670  1.6883 -2.7928  0.2569
  465MOL0     H62744   7.621   3.550   8.824  1.9220  0.3689  0.6611
  465MOL0     H62745   7.705   3.642   8.546 -2.0049 -4.7855  0.3430
  465MOL0     H62746   7.723   3.743   8.703  0.6277 -2.3792  1.0897
  465MOL0     H62747   7.560   3.846   8.624  1.0407  0.5876  0.1685
  465MOL0     H62748   7.458   3.733   8.714 -1.3502  0.3267 -1.9278
  465MOL0     H62749   7.416   3.592   8.514  0.4050 -0.0124 -0.9991
  465MOL0     H62750   7.363   3.759   8.498  0.8300 -0.3514 -1.1819
  465MOL0     H62751   7.602   3.635   8.353 -1.6172 -0.2713 -1.1024
  465MOL0     H62752   7.586   3.810   8.374 -0.3872 -0.2584 -1.2726
  465MOL0     H62753   7.377   3.812   8.265  0.7662  0.5762  0.8842
  465MOL0     H62754   7.491   3.735   8.170  1.3324  1.6305  0.9063
  465MOL0     H62755   7.987   3.159   8.777  0.2633 -1.6188  0.9932
  465MOL0     H62756   8.057   2.953   8.638  1.4836  0.1443  2.4553
  465MOL0     H62757   8.293   2.746   8.409 -1.3223  0.2177  1.2601
  465MOL0     H62758   8.368   2.533   8.331 -0.2269  3.0338  1.6266
  465MOL0     H62759   8.971   1.853   6.758  0.1088  0.8427 -1.1164
  465MOL0     H62760   9.017   1.672   6.622  0.6740  0.8792 -1.2543
  465MOL0     H62761   9.428   1.725   6.207 -1.5696  0.2643  3.2014
  465MOL0     H62762   9.446   1.626   5.988 -0.4566  1.2995  2.3129
  465MOL0     H62763   9.439   1.472   5.770 -0.0647 -1.6865 -0.9876
  465MOL0     H62764   9.286   1.563   5.792 -1.7326 -0.6781  1.3026
  465MOL0     H62765   9.161   1.401   5.667  0.3244 -0.6546  0.4809
  465MOL0     H62766   9.305   1.297   5.635 -0.5848 -0.3071 -0.5243
  465MOL0     H62767   9.285   1.593   5.563 -0.4836  0.9207 -2.6825
  465MOL0     H62768   9.212   1.468   5.474 -1.7922  2.9380  0.2400
  465MOL0     H62769   9.501   1.519   5.548 -1.1742 -1.5353  1.9449
  465MOL0     H62770   9.481   1.377   5.448  0.3960 -0.1719 -0.3874
  465MOL0     H62771   9.431   1.729   5.200  1.5615  0.9743  0.6223
  465MOL0     H62772   9.187   1.306   6.115 -0.5612  0.2403 -1.1983
  465MOL0     H62773   9.072   1.322   6.328  2.6189 -0.3843  0.1195
  465MOL0     H62774   9.208   1.347   6.437  1.7007 -1.3190 -1.3330
  465MOL0     H62775   9.090   1.471   6.432 -0.3703  0.9023 -0.8395
  466MOL0     O62776   3.456   7.174  10.158 -0.1396  0.7335 -1.1425
  466MOL0     C62777   3.561   7.232  10.186 -0.3818 -0.9522 -0.1829
  466MOL0     O62778   3.595   7.360  10.141  0.0662  0.1933  0.5930
  466MOL0     C62779   3.561   7.407  10.017 -0.6212 -1.1626  0.5833
  466MOL0     C62780   3.496   7.533   9.994  0.1891  0.5524 -0.7083
  466MOL0     C62781   3.492   7.591   9.874  0.3700 -0.6950 -0.4932
  466MOL0     C62782   3.566   7.536   9.768 -0.0068  0.2534 -0.4654
  466MOL0     O62783   3.591   7.578   9.636  0.4225 -0.1574 -0.6539
  466MOL0     C62784   3.485   7.647   9.566  0.6415  1.2789  0.5014
  466MOL0     C62785   3.381   7.544   9.513  0.2919  0.7634 -0.2175
  466MOL0     C62786   3.295   7.593   9.394 -0.4815  0.6003 -0.0981
  466MOL0     C62787   3.347   7.563   9.249 -0.1647 -1.0517  0.5535
  466MOL0     C62788   3.291   7.663   9.142 -0.8756 -0.5430  0.4020
  466MOL0     C62789   3.329   7.612   9.000  0.0875 -0.3619  0.5343
  466MOL0     C62790   3.468   7.562   8.967 -0.2298  0.0086 -0.5724
  466MOL0     C62791   3.590   7.657   8.995 -0.2179 -0.2053  0.1143
  466MOL0     N62792   3.564   7.789   8.930  0.6133  0.9131 -0.1765
  466MOL0     C62793   3.544   7.810   8.794 -0.7586 -0.2963 -0.3912
  466MOL0     C62794   3.487   7.929   8.776 -0.1393 -0.5333 -1.0271
  466MOL0     C62795   3.447   7.996   8.645 -0.2687  0.4349 -0.0349
  466MOL0     C62796   3.414   8.142   8.675  0.4711  0.0240 -0.7744
  466MOL0     C62797   3.344   8.224   8.561 -0.4362  0.0392 -0.3348
  466MOL0     C62798   3.282   8.352   8.607 -0.4665 -0.1011 -1.0346
  466MOL0     O62799   3.199   8.415   8.515  0.4743 -0.5789  0.4850
  466MOL0     C62800   3.258   8.502   8.413  0.4023 -0.4949 -0.3545
  466MOL0     C62801   3.167   8.546   8.320  0.9439  0.2304  0.4854
  466MOL0     C62802   3.208   8.620   8.214  0.3058  0.5122  0.3762
  466MOL0     C62803   3.346   8.649   8.198 -1.0623  0.6757 -0.5551
  466MOL0     C62804   3.394   8.738   8.093 -0.3852  0.2711 -0.5147
  466MOL0     O62805   3.534   8.752   8.086  0.0128 -0.1087 -0.1089
  466MOL0     C62806   3.572   8.790   7.950 -0.8247 -0.4096 -0.3746
  466MOL0     C62807   3.511   8.752   7.829 -0.4542  0.0326  0.1558
  466MOL0     C62808   3.562   8.799   7.708 -0.2545 -0.1469 -0.0826
  466MOL0     C62809   3.675   8.882   7.705  0.8285 -0.4386  0.0601
  466MOL0     O62810   3.695   8.927   7.580  0.0305 -0.3373 -0.3802
  466MOL0     C62811   3.823   8.973   7.556  0.0752  0.5916  0.1561
  466MOL0     C62812   3.834   9.013   7.413  0.0793  1.1617 -0.4108
  466MOL0     C62813   3.984   9.039   7.385  0.0484  1.0546 -0.0408
  466MOL0     C62814   4.032   9.181   7.411 -0.2153 -0.4061 -0.4819
  466MOL0     C62815   4.185   9.186   7.384 -0.3535  1.2399 -0.5284
  466MOL0     C62816   4.234   9.331   7.387 -0.2165  0.8845  1.2652
  466MOL0     C62817   4.224   9.379   7.239  0.0207  0.2819  0.2228
  466MOL0     C62818   4.219   9.531   7.244  0.1624  0.3745  0.2899
  466MOL0    Cl62819   4.251   9.580   7.075 -0.0401 -0.2877 -0.2526
  466MOL0     C62820   3.744   8.916   7.824  0.0863  0.5981  0.6286
  466MOL0     C62821   3.693   8.868   7.944  0.2850  0.6493 -0.3016
  466MOL0     O62822   3.313   8.796   8.033  0.0560 -0.9053  0.6833
  466MOL0     C62823   3.441   8.614   8.299  0.5946 -0.1353  0.0940
  466MOL0     C62824   3.392   8.548   8.409 -0.9566 -0.2900  0.9148
  466MOL0     N62825   3.489   7.986   8.910 -0.1411 -0.6517  0.1659
  466MOL0     N62826   3.519   7.900   8.999  0.4052 -1.4121  0.8195
  466MOL0     C62827   3.628   7.411   9.786  0.7886 -0.0924  0.2754
  466MOL0     C62828   3.623   7.346   9.908 -0.4634  0.4197 -0.8029
  466MOL0     C62829   3.659   7.174  10.286  0.4661 -0.5751 -0.5712
  466MOL0     C62830   3.745   7.269  10.339 -0.3874 -0.0081  0.6133
  466MOL0     C62831   3.847   7.230  10.425 -1.2738  0.8884  0.7845
  466MOL0     C62832   3.863   7.093  10.455  0.8965 -0.5151  0.2944
  466MOL0     O62833   3.950   7.068  10.558  0.1926 -0.1593  0.2166
  466MOL0     C62834   3.993   6.934  10.583  0.3857 -0.0621 -0.2115
  466MOL0     C62835   4.135   6.917  10.640 -0.2665 -0.3444 -0.6441
  466MOL0     C62836   4.232   6.829  10.566 -0.9243 -0.5142 -0.3585
  466MOL0     C62837   4.253   6.878  10.420 -0.4873 -0.1257 -0.2494
  466MOL0     C62838   4.277   7.027  10.405  0.4618  0.0902  0.4728
  466MOL0     C62839   4.320   7.140  10.373  0.0170 -0.0453 -1.0504
  466MOL0     C62840   3.778   7.005  10.398 -0.9238  0.1961 -0.0747
  466MOL0     C62841   3.671   7.039  10.317  0.1267  0.7086 -0.1835
  466MOL0     C62842   3.576   6.931  10.273 -0.0357 -0.3703 -0.5628
  466MOL0     H62843   3.448   7.593  10.071 -0.5485 -0.4270 -0.3919
  466MOL0     H62844   3.447   7.688   9.860  0.6436 -0.1711  1.8087
  466MOL0     H62845   3.437   7.721   9.632 -0.6066  0.6028  0.3940
  466MOL0     H62846   3.536   7.700   9.486  3.0872 -2.2813 -0.5157
  466MOL0     H62847   3.317   7.537   9.602  1.5797  3.4599  1.0283
  466MOL0     H62848   3.437   7.455   9.483 -2.7512 -1.5048  0.2623
  466MOL0     H62849   3.286   7.702   9.406 -0.7206  0.9634 -2.7917
  466MOL0     H62850   3.199   7.542   9.394  0.1592 -0.6364 -0.6093
  466MOL0     H62851   3.456   7.572   9.251  0.0314 -2.2271 -1.5680
  466MOL0     H62852   3.329   7.463   9.208 -1.7488 -0.2350 -0.8567
  466MOL0     H62853   3.182   7.666   9.141 -0.9090 -1.4598 -0.8835
  466MOL0     H62854   3.338   7.761   9.155  0.4154 -0.8551 -1.4675
  466MOL0     H62855   3.266   7.525   8.981  1.0285 -0.4215 -2.9231
  466MOL0     H62856   3.292   7.693   8.936 -1.5084  0.1533  2.0207
  466MOL0     H62857   3.454   7.517   8.868 -0.9736 -3.5763  0.9803
  466MOL0     H62858   3.468   7.474   9.033  0.1398  0.1745 -0.3442
  466MOL0     H62859   3.574   7.669   9.103 -0.1867  2.8340 -0.1154
  466MOL0     H62860   3.690   7.619   8.972 -0.3646  0.6943 -2.3157
  466MOL0     H62861   3.559   7.732   8.719 -0.5286  0.6981 -1.4115
  466MOL0     H62862   3.534   7.991   8.578 -1.5146  0.7288 -1.7223
  466MOL0     H62863   3.364   7.940   8.602 -0.7820  1.6359 -0.6737
  466MOL0     H62864   3.347   8.150   8.761  0.7525 -0.8237 -0.4737
  466MOL0     H62865   3.504   8.193   8.711 -1.3989  2.1123  1.3141
  466MOL0     H62866   3.272   8.159   8.510 -0.9632  1.0317 -0.8837
  466MOL0     H62867   3.415   8.242   8.479  1.0285 -1.4383  0.5384
  466MOL0     H62868   3.353   8.427   8.643  1.0378 -2.1370  0.4204
  466MOL0     H62869   3.215   8.336   8.693  0.4243  1.8263  0.0943
  466MOL0     H62870   3.069   8.500   8.332  0.2031  0.8119 -2.5368
  466MOL0     H62871   3.141   8.630   8.129  0.0937 -3.0131 -0.0179
  466MOL0     H62872   3.422   8.690   7.821 -0.0192 -0.4256 -1.5914
  466MOL0     H62873   3.524   8.768   7.611  2.6155 -1.3462 -0.9308
  466MOL0     H62874   3.835   9.062   7.618  3.6582  0.5794 -0.2800
  466MOL0     H62875   3.898   8.899   7.589 -2.0564 -1.2708  1.1185
  466MOL0     H62876   3.812   8.927   7.349  1.0939  1.7102 -1.5497
  466MOL0     H62877   3.764   9.091   7.384 -1.6729  0.6002  2.0249
  466MOL0     H62878   4.048   8.976   7.447 -0.5272 -0.6802 -1.1331
  466MOL0     H62879   4.007   9.018   7.281  1.9436  3.3083 -0.1623
  466MOL0     H62880   4.003   9.206   7.513  1.0011 -1.7664  0.2187
  466MOL0     H62881   3.973   9.243   7.342 -0.9422 -0.5884 -0.0339
  466MOL0     H62882   4.208   9.128   7.294 -2.3229 -0.9461  0.2756
  466MOL0     H62883   4.234   9.120   7.456 -0.5021  0.4093 -1.1696
  466MOL0     H62884   4.169   9.393   7.450 -1.4247 -1.1171  2.1069
  466MOL0     H62885   4.338   9.325   7.418  0.5645  3.3846 -0.5964
  466MOL0     H62886   4.135   9.345   7.184 -0.5269  2.2020 -0.1529
  466MOL0     H62887   4.304   9.342   7.175  0.4221  1.0513  0.2775
  466MOL0     H62888   4.118   9.562   7.274  0.0874  1.7087 -1.2214
  466MOL0     H62889   4.295   9.566   7.315 -0.0031 -1.7606  1.6380
  466MOL0     H62890   3.834   8.977   7.819 -0.8962  2.2113  1.5060
  466MOL0     H62891   3.740   8.896   8.037  0.0558  1.0335 -0.2985
  466MOL0     H62892   3.545   8.641   8.284  0.7088 -0.8469 -0.4207
  466MOL0     H62893   3.467   8.509   8.477 -0.5780 -1.3091 -0.0398
  466MOL0     H62894   3.670   7.368   9.696 -3.0466  1.7955 -2.6647
  466MOL0     H62895   3.677   7.252   9.919 -0.1975  0.1724 -3.5108
  466MOL0     H62896   3.743   7.371  10.301  2.4694 -0.6760 -1.6572
  466MOL0     H62897   3.926   7.288  10.471  0.5198 -1.2082  0.5362
  466MOL0     H62898   3.990   6.889  10.483  2.3930 -0.6546 -0.0507
  466MOL0     H62899   3.922   6.890  10.653 -0.7028  2.4848  0.4288
  466MOL0     H62900   4.126   6.861  10.734  1.7507 -2.3663 -1.5565
  466MOL0     H62901   4.178   7.015  10.664  1.0822 -0.8251 -1.0156
  466MOL0     H62902   4.186   6.729  10.564  0.9803 -1.4151 -0.8617
  466MOL0     H62903   4.327   6.827  10.620 -1.0463  4.0834  0.3539
  466MOL0     H62904   4.343   6.827  10.381 -0.5808  0.1715 -0.8715
  466MOL0     H62905   4.173   6.851  10.351 -2.1376  0.9270  1.1878
  466MOL0     H62906   4.366   7.230  10.337  0.1522  0.3217  0.0053
  466MOL0     H62907   3.772   6.901  10.428 -2.4023  0.0840 -0.6714
  466MOL0     H62908   3.588   6.897  10.170  1.4718 -0.0644 -0.5107
  466MOL0     H62909   3.589   6.841  10.333  0.9805  0.1195 -0.0193
  466MOL0     H62910   3.472   6.963  10.280 -0.5151 -1.5488 -1.8809
  467MOL0     O62911   1.972   0.188   1.177 -0.2332  0.1201  0.1973
  467MOL0     C62912   1.989   0.260   1.087 -0.2345 -0.6732 -0.7232
  467MOL0     O62913   1.911   0.278   0.982 -0.5906 -0.0845  0.5547
  467MOL0     C62914   1.790   0.214   0.982 -0.2171 -1.5063 -0.2798
  467MOL0     C62915   1.790   0.085   0.937  0.8225 -0.0687 -0.4273
  467MOL0     C62916   1.668   0.017   0.910  1.0025 -0.0857  0.7824
  467MOL0     C62917   1.541   0.084   0.933  0.0499  0.2787 -0.7226
  467MOL0     O62918   1.418   0.031   0.914  0.3536  0.2383  0.6269
  467MOL0     C62919   1.398  -0.077   0.819 -1.4585 -0.6711  0.0445
  467MOL0     C62920   1.243  -0.093   0.834 -0.7132  0.3484  0.6212
  467MOL0     C62921   1.178  -0.171   0.717 -0.8949  0.0137 -0.0333
  467MOL0     C62922   1.187  -0.106   0.579  0.0847  0.0656  0.0809
  467MOL0     C62923   1.128  -0.201   0.462 -0.0012  0.2852 -1.1975
  467MOL0     C62924   0.969  -0.196   0.463  0.4940  0.4718 -0.1698
  467MOL0     C62925   0.902  -0.294   0.375 -0.5257  0.6470  0.0756
  467MOL0     C62926   0.954  -0.278   0.229  0.1685  0.1244 -1.0232
  467MOL0     N62927   0.849  -0.346   0.138 -0.3132  0.1090 -0.3444
  467MOL0     C62928   0.764  -0.448   0.167  0.5174 -0.3210  0.8380
  467MOL0     C62929   0.685  -0.465   0.051  0.1713 -1.3736 -0.2929
  467MOL0     C62930   0.570  -0.562   0.032 -1.1232 -1.6509 -0.5249
  467MOL0     C62931   0.567  -0.603  -0.116 -0.9826 -0.1468 -0.6182
  467MOL0     C62932   0.493  -0.732  -0.134  0.3622 -0.0747 -0.1636
  467MOL0     C62933   0.345  -0.714  -0.142  0.0938 -0.1492 -0.3830
  467MOL0     O62934   0.297  -0.798  -0.241 -0.3610  0.1436 -0.2334
  467MOL0     C62935   0.175  -0.781  -0.304  0.7678  0.1379 -0.1207
  467MOL0     C62936   0.077  -0.688  -0.271  0.8869  0.1793  0.2022
  467MOL0     C62937  -0.053  -0.691  -0.330  0.7409  0.2335 -0.2320
  467MOL0     C62938  -0.083  -0.780  -0.434 -0.9412  0.2434  0.9611
  467MOL0     C62939  -0.222  -0.791  -0.495 -0.0324  0.1741 -0.5405
  467MOL0     O62940  -0.320  -0.704  -0.449  0.2600 -0.3394 -0.3095
  467MOL0     C62941  -0.446  -0.704  -0.499 -0.3858  0.2315 -0.0548
  467MOL0     C62942  -0.475  -0.730  -0.632  1.5964 -0.9380  1.0671
  467MOL0     C62943  -0.607  -0.720  -0.684 -0.1105 -1.6489 -0.0685
  467MOL0     C62944  -0.710  -0.680  -0.596 -0.9618 -0.7858  0.9343
  467MOL0     O62945  -0.843  -0.689  -0.628 -0.3332  0.4502  0.6091
  467MOL0     C62946  -0.869  -0.811  -0.679  0.3543  0.6263  0.0479
  467MOL0     C62947  -0.863  -0.932  -0.584  0.9801 -1.0005 -0.0357
  467MOL0     C62948  -0.919  -1.067  -0.624  0.0909 -0.1671  0.2632
  467MOL0     C62949  -0.863  -1.177  -0.520  0.4723 -0.8706  0.6349
  467MOL0     C62950  -0.959  -1.297  -0.547  0.4095  0.3324  0.2780
  467MOL0     C62951  -0.922  -1.427  -0.465  0.3624  0.2877  0.8742
  467MOL0     C62952  -1.034  -1.532  -0.481  0.7037  0.3299  0.4561
  467MOL0     C62953  -0.979  -1.674  -0.427  0.1155 -0.3594 -0.0272
  467MOL0    Cl62954  -0.842  -1.725  -0.518 -0.2629  0.1790  0.6737
  467MOL0     C62955  -0.671  -0.630  -0.463 -1.1279  0.5258  0.5986
  467MOL0     C62956  -0.541  -0.654  -0.411  0.1101  1.2620 -0.7818
  467MOL0     O62957  -0.247  -0.894  -0.560 -0.4435  0.1007  0.6441
  467MOL0     C62958   0.014  -0.879  -0.464  0.3273  0.5514 -0.1668
  467MOL0     C62959   0.137  -0.871  -0.401 -0.2782  0.2297  0.2476
  467MOL0     N62960   0.732  -0.368  -0.040 -0.5413 -0.2375 -0.3546
  467MOL0     N62961   0.825  -0.305   0.017 -0.1906 -0.6156  0.3415
  467MOL0     C62962   1.546   0.224   0.974  1.3893  0.8625  0.6180
  467MOL0     C62963   1.667   0.285   0.996 -0.0795 -0.5635  0.0623
  467MOL0     C62964   2.110   0.346   1.088  0.0436  0.0636  0.2784
  467MOL0     C62965   2.153   0.391   0.966  0.8213 -0.1156 -0.1264
  467MOL0     C62966   2.269   0.473   0.968 -0.0654  0.1363  0.6498
  467MOL0     C62967   2.346   0.505   1.078  0.1044 -0.0136 -0.0517
  467MOL0     O62968   2.457   0.584   1.076 -0.7294 -0.9646 -0.5605
  467MOL0     C62969   2.440   0.722   1.067 -0.8601 -0.0151 -0.4617
  467MOL0     C62970   2.451   0.784   1.203 -0.3285  0.5961  0.1406
  467MOL0     C62971   2.599   0.796   1.242 -0.1304  0.0570 -0.3523
  467MOL0     C62972   2.628   0.856   1.386 -0.3355  0.3636  1.4418
  467MOL0     C62973   2.609   0.736   1.467  0.3585  0.1814 -0.4239
  467MOL0     C62974   2.595   0.654   1.553  0.1729 -0.8818 -0.0099
  467MOL0     C62975   2.303   0.453   1.197  0.6983  0.4478 -0.1931
  467MOL0     C62976   2.185   0.379   1.208  0.1297 -0.1138  0.8999
  467MOL0     C62977   2.156   0.326   1.343 -0.3198 -0.0770  1.3917
  467MOL0     H62978   1.888   0.038   0.928  0.5171 -0.4030 -2.5710
  467MOL0     H62979   1.673  -0.074   0.852  5.0357  0.9912 -0.9307
  467MOL0     H62980   1.420  -0.049   0.716 -3.2844 -1.8235 -0.7105
  467MOL0     H62981   1.448  -0.174   0.835 -1.3168 -0.8981 -1.6176
  467MOL0     H62982   1.200   0.008   0.832  0.0844  0.6712 -0.6231
  467MOL0     H62983   1.221  -0.135   0.933  0.9178 -0.6381  0.5958
  467MOL0     H62984   1.072  -0.190   0.735 -1.7728  0.8509 -3.5532
  467MOL0     H62985   1.229  -0.268   0.715 -0.8141  0.0670 -0.6414
  467MOL0     H62986   1.119  -0.021   0.570  1.0739  0.7607 -1.0453
  467MOL0     H62987   1.283  -0.062   0.552 -0.7797  0.9044 -1.8102
  467MOL0     H62988   1.172  -0.169   0.368  0.5662 -2.7636 -2.0693
  467MOL0     H62989   1.159  -0.305   0.475 -0.1740  0.3730  0.1407
  467MOL0     H62990   0.930  -0.230   0.560 -0.0091  2.5067  0.3742
  467MOL0     H62991   0.930  -0.096   0.445 -3.6077 -0.7152  1.0673
  467MOL0     H62992   0.796  -0.267   0.379 -0.6355  0.4000 -0.8901
  467MOL0     H62993   0.910  -0.400   0.401 -1.7428  0.6124  0.3761
  467MOL0     H62994   0.954  -0.169   0.218  0.9203  0.3812  1.0712
  467MOL0     H62995   1.056  -0.311   0.211 -0.4932 -2.9265  0.1104
  467MOL0     H62996   0.746  -0.508   0.256  0.0739 -2.7326 -0.7780
  467MOL0     H62997   0.585  -0.649   0.097 -1.4295 -0.4153  1.2684
  467MOL0     H62998   0.474  -0.511   0.047 -0.7775  0.3506 -3.8925
  467MOL0     H62999   0.513  -0.530  -0.178 -0.7734 -1.3833 -2.3285
  467MOL0     H63000   0.669  -0.598  -0.155 -2.3420 -1.8049 -5.0066
  467MOL0     H63001   0.526  -0.800  -0.055 -0.5625  2.0712  2.2013
  467MOL0     H63002   0.529  -0.761  -0.233  1.5453 -3.3324  1.0868
  467MOL0     H63003   0.322  -0.609  -0.163  1.4922 -0.0199 -1.3433
  467MOL0     H63004   0.298  -0.743  -0.047 -1.2583  1.8570 -0.3749
  467MOL0     H63005   0.098  -0.618  -0.190  4.2812  2.3094 -2.2012
  467MOL0     H63006  -0.123  -0.617  -0.294  1.8841  1.1926  0.0850
  467MOL0     H63007  -0.389  -0.748  -0.696 -1.1479  2.3344 -4.1730
  467MOL0     H63008  -0.616  -0.745  -0.789  0.2465  0.0651 -0.5440
  467MOL0     H63009  -0.969  -0.791  -0.719 -0.3723 -0.2750  1.3140
  467MOL0     H63010  -0.811  -0.841  -0.766 -3.2369 -0.3481 -2.2068
  467MOL0     H63011  -0.763  -0.947  -0.544  1.3975 -1.1031 -1.0705
  467MOL0     H63012  -0.919  -0.913  -0.492 -1.4839 -0.7623 -1.5071
  467MOL0     H63013  -1.027  -1.050  -0.627 -0.0831 -1.2681 -1.6353
  467MOL0     H63014  -0.892  -1.091  -0.727 -0.6132 -1.0014  0.2640
  467MOL0     H63015  -0.886  -1.134  -0.422 -0.8090  2.0097 -0.8061
  467MOL0     H63016  -0.759  -1.207  -0.536  0.5093 -0.4491  0.0361
  467MOL0     H63017  -0.954  -1.313  -0.656 -0.2285  1.7060  0.0339
  467MOL0     H63018  -1.061  -1.269  -0.521  0.9083  1.0682  1.5184
  467MOL0     H63019  -0.817  -1.448  -0.487  0.7902  2.7447  0.2290
  467MOL0     H63020  -0.924  -1.412  -0.356 -0.3579  2.4560  0.6032
  467MOL0     H63021  -1.057  -1.547  -0.586  1.1633 -1.8037  0.6096
  467MOL0     H63022  -1.129  -1.502  -0.436  1.7875  2.1017  1.7200
  467MOL0     H63023  -0.958  -1.671  -0.320  0.9669 -0.9894 -0.1654
  467MOL0     H63024  -1.053  -1.752  -0.445 -1.3566  0.6840  1.2720
  467MOL0     H63025  -0.746  -0.596  -0.392  3.2652  4.6515  3.9216
  467MOL0     H63026  -0.511  -0.627  -0.311 -0.6459  1.2483 -0.5394
  467MOL0     H63027  -0.006  -0.961  -0.533 -2.2861  1.1074 -0.1489
  467MOL0     H63028   0.204  -0.954  -0.422 -1.9907 -1.0385 -0.3565
  467MOL0     H63029   1.448   0.271   0.971  1.6908  1.4517 -0.7187
  467MOL0     H63030   1.662   0.388   1.031 -4.4202 -0.5902  0.1016
  467MOL0     H63031   2.104   0.367   0.873  0.2213  3.0477 -0.7649
  467MOL0     H63032   2.307   0.516   0.875  0.7050  3.5354  2.3856
  467MOL0     H63033   2.339   0.728   1.025  0.2757 -1.0846 -3.6983
  467MOL0     H63034   2.512   0.767   0.999 -0.5705  1.8926  1.0298
  467MOL0     H63035   2.387   0.722   1.266 -1.4235  1.3299 -0.2048
  467MOL0     H63036   2.397   0.879   1.192 -2.5257 -0.1646  3.1488
  467MOL0     H63037   2.664   0.865   1.186  3.4117 -2.1877  0.6788
  467MOL0     H63038   2.647   0.698   1.244 -4.2484 -2.1758 -0.8936
  467MOL0     H63039   2.726   0.904   1.393  1.7003 -3.2751  0.5509
  467MOL0     H63040   2.547   0.919   1.423 -1.0042  0.2730  0.1819
  467MOL0     H63041   2.577   0.578   1.626 -1.5279 -1.0839 -0.5938
  467MOL0     H63042   2.355   0.479   1.289 -2.0020  2.5846  0.8954
  467MOL0     H63043   2.057   0.345   1.384 -0.3639 -0.8132  1.6481
  467MOL0     H63044   2.159   0.218   1.327 -1.3363 -0.0146  0.6818
  467MOL0     H63045   2.233   0.346   1.418  2.2867 -1.3360 -0.7479
  468MOL0     O63046   6.070   4.969   1.227 -0.6893 -0.0009  0.3133
  468MOL0     C63047   6.093   5.064   1.309 -0.1922 -0.9309  0.0636
  468MOL0     O63048   6.084   5.062   1.450 -0.4930 -0.0880 -0.1393
  468MOL0     C63049   6.026   4.952   1.513 -1.1261 -0.2627  0.7526
  468MOL0     C63050   6.065   4.928   1.647  1.1474 -0.6888 -0.8132
  468MOL0     C63051   6.006   4.833   1.729 -1.2176  0.3806  0.0977
  468MOL0     C63052   5.895   4.757   1.684  0.3494 -0.1075 -0.7230
  468MOL0     O63053   5.813   4.676   1.766 -0.1791  0.5138  0.9164
  468MOL0     C63054   5.868   4.634   1.886  0.0981  0.8548 -0.1702
  468MOL0     C63055   5.785   4.531   1.951  0.6115 -0.3219 -0.4804
  468MOL0     C63056   5.852   4.494   2.085 -0.4010 -0.7109  0.0219
  468MOL0     C63057   5.782   4.370   2.137 -0.1090 -0.1948 -0.2763
  468MOL0     C63058   5.816   4.342   2.284  1.1366  0.0298 -0.0942
  468MOL0     C63059   5.763   4.190   2.317  0.4557 -0.3934 -1.5990
  468MOL0     C63060   5.726   4.140   2.459  0.4919 -0.0106 -0.1411
  468MOL0     C63061   5.846   4.126   2.549 -0.9521 -0.9150 -0.8038
  468MOL0     N63062   5.927   4.250   2.552  0.9118  0.3937  0.2069
  468MOL0     C63063   5.875   4.358   2.615  0.6757 -0.4969  0.1547
  468MOL0     C63064   5.981   4.442   2.624 -0.1140  0.0308 -0.8879
  468MOL0     C63065   5.974   4.571   2.696  0.5325 -0.1456  0.9373
  468MOL0     C63066   5.950   4.673   2.588  0.3588  0.0222  0.4501
  468MOL0     C63067   6.053   4.707   2.483 -0.4598  0.6299  0.3447
  468MOL0     C63068   5.984   4.803   2.395 -0.3089 -0.1430  0.1881
  468MOL0     O63069   6.075   4.836   2.300 -1.2116 -0.6438  0.4111
  468MOL0     C63070   6.051   4.918   2.198 -0.4826  0.8197  0.0620
  468MOL0     C63071   6.161   4.954   2.108 -0.1250  0.5266  0.8588
  468MOL0     C63072   6.139   5.033   1.993  0.2552  0.4724  0.1680
  468MOL0     C63073   6.014   5.102   1.977  0.8200  0.6362 -0.2981
  468MOL0     C63074   5.998   5.205   1.872 -0.2663  0.1858 -0.0198
  468MOL0     O63075   5.871   5.236   1.836 -0.1595  0.1376  0.2405
  468MOL0     C63076   5.860   5.327   1.736  0.3745 -0.6704  0.2026
  468MOL0     C63077   5.873   5.293   1.605  0.0742  0.6023 -0.5310
  468MOL0     C63078   5.855   5.380   1.492  0.5424  0.2502  0.4289
  468MOL0     C63079   5.812   5.512   1.518 -0.2195 -0.2998  0.1491
  468MOL0     O63080   5.790   5.614   1.430 -0.2731 -0.5387 -0.6095
  468MOL0     C63081   5.815   5.583   1.298 -0.6315  0.7434  0.0850
  468MOL0     C63082   5.775   5.684   1.187  0.6181  0.7785  0.4753
  468MOL0     C63083   5.624   5.681   1.170  0.6903 -0.2912 -0.9429
  468MOL0     C63084   5.599   5.793   1.068 -0.6532 -0.1391  0.1026
  468MOL0     C63085   5.450   5.820   1.063 -0.3672 -0.8727 -0.1054
  468MOL0     C63086   5.418   5.937   0.964 -0.2082  0.6625  0.4423
  468MOL0     C63087   5.389   5.877   0.827  0.4944  0.7563  0.3095
  468MOL0     C63088   5.353   5.986   0.720 -0.3454 -0.6183  0.2497
  468MOL0    Cl63089   5.338   5.921   0.564 -0.1025  0.0465 -0.1091
  468MOL0     C63090   5.790   5.540   1.654  0.5461 -0.5822  0.6339
  468MOL0     C63091   5.831   5.460   1.767 -0.6551 -0.4583  0.6877
  468MOL0     O63092   6.102   5.242   1.826  0.1148  0.7230  0.8199
  468MOL0     C63093   5.908   5.077   2.065  0.1589 -0.4595  0.3733
  468MOL0     C63094   5.927   4.970   2.165  0.3923  0.0663  0.1413
  468MOL0     N63095   6.097   4.372   2.582  0.5720  0.9023 -0.2724
  468MOL0     N63096   6.059   4.265   2.537  0.6183  0.3236  0.2887
  468MOL0     C63097   5.863   4.777   1.554 -0.0431 -0.8488  0.1991
  468MOL0     C63098   5.924   4.874   1.466  0.6015 -0.1116  0.1119
  468MOL0     C63099   6.129   5.196   1.246  0.5327  0.9258 -0.5858
  468MOL0     C63100   6.129   5.313   1.333  0.8727 -1.1387 -0.0063
  468MOL0     C63101   6.172   5.438   1.290 -0.5881 -0.3046 -0.7723
  468MOL0     C63102   6.211   5.457   1.161 -0.0265  0.2476 -0.6762
  468MOL0     O63103   6.256   5.578   1.121  0.0263  0.0720  0.3965
  468MOL0     C63104   6.218   5.610   0.985 -0.8396 -0.3600 -0.0562
  468MOL0     C63105   6.225   5.759   0.961  0.2018 -0.6879  0.1495
  468MOL0     C63106   6.101   5.821   1.018 -0.7372  0.3359  0.4818
  468MOL0     C63107   6.118   5.970   1.037 -0.1884 -1.4029 -0.6524
  468MOL0     C63108   6.167   6.054   0.921  0.6963  1.3165 -0.1544
  468MOL0     C63109   6.209   6.109   0.827 -0.8619 -0.8184 -0.2617
  468MOL0     C63110   6.219   5.341   1.079  0.2948  0.9871  0.1547
  468MOL0     C63111   6.185   5.209   1.117  0.5595  0.3306 -0.3699
  468MOL0     C63112   6.218   5.094   1.013  0.5030 -0.0522  0.7725
  468MOL0     H63113   6.148   4.987   1.685  2.2801 -0.9957 -2.6872
  468MOL0     H63114   6.042   4.826   1.831  0.7338  0.7383 -0.5293
  468MOL0     H63115   5.964   4.589   1.861 -2.5946 -3.6870 -3.8264
  468MOL0     H63116   5.872   4.719   1.955 -1.5756  0.4237  0.5115
  468MOL0     H63117   5.769   4.444   1.887  2.3286  0.1355 -1.5912
  468MOL0     H63118   5.681   4.558   1.974  0.4664 -3.0568  2.9888
  468MOL0     H63119   5.862   4.582   2.149 -0.4944 -1.9106  1.7565
  468MOL0     H63120   5.956   4.464   2.070  1.6510  4.2490  2.2656
  468MOL0     H63121   5.673   4.385   2.142 -0.4367 -2.2675 -0.4684
  468MOL0     H63122   5.796   4.281   2.076 -0.6702  0.6272 -1.6566
  468MOL0     H63123   5.923   4.339   2.307  0.8632  3.9807  2.8025
  468MOL0     H63124   5.769   4.414   2.351 -2.2716  0.3419 -2.5703
  468MOL0     H63125   5.674   4.171   2.257 -2.4729 -1.4828  2.6557
  468MOL0     H63126   5.845   4.128   2.278  0.5239 -1.0056 -0.5353
  468MOL0     H63127   5.688   4.039   2.444  1.5543 -1.1683  3.7630
  468MOL0     H63128   5.650   4.203   2.505 -0.1366 -1.1590  0.4528
  468MOL0     H63129   5.824   4.102   2.653  0.6349  1.4465  0.1605
  468MOL0     H63130   5.905   4.039   2.519  1.3506 -0.8334  2.8654
  468MOL0     H63131   5.774   4.368   2.655  1.2173 -1.5129  1.8678
  468MOL0     H63132   5.882   4.567   2.755 -1.3701 -2.6353 -1.9079
  468MOL0     H63133   6.061   4.584   2.761  0.4085  2.6683  0.6855
  468MOL0     H63134   5.863   4.633   2.536 -0.2598  0.2309  1.2851
  468MOL0     H63135   5.925   4.763   2.645 -2.3161 -0.2774 -0.1194
  468MOL0     H63136   6.073   4.610   2.436 -0.6162  0.3062  0.9278
  468MOL0     H63137   6.143   4.754   2.526 -2.2285  0.4826  4.7895
  468MOL0     H63138   5.946   4.888   2.453 -1.1359 -0.0276 -0.4960
  468MOL0     H63139   5.899   4.751   2.351 -0.2397 -2.9093  3.0264
  468MOL0     H63140   6.260   4.909   2.115  0.6878  1.1076 -3.7164
  468MOL0     H63141   6.219   5.048   1.921 -0.7996 -1.4750 -1.5198
  468MOL0     H63142   5.894   5.188   1.588  1.6030  0.9787 -1.1709
  468MOL0     H63143   5.885   5.345   1.394  1.7509 -0.5498  1.0586
  468MOL0     H63144   5.924   5.571   1.299 -0.6188  0.7760 -0.4266
  468MOL0     H63145   5.766   5.489   1.274 -2.3058  0.9372  2.5167
  468MOL0     H63146   5.799   5.784   1.222 -0.3552  1.8985 -1.8761
  468MOL0     H63147   5.825   5.656   1.094 -0.7001 -3.0510  0.7021
  468MOL0     H63148   5.598   5.578   1.145  0.8095 -0.8540  1.1080
  468MOL0     H63149   5.579   5.703   1.267  0.9598  1.2255 -1.1395
  468MOL0     H63150   5.628   5.754   0.970 -0.3190 -2.6643  1.1310
  468MOL0     H63151   5.662   5.881   1.081  0.5535 -0.7799 -1.1602
  468MOL0     H63152   5.412   5.842   1.163 -1.8129 -2.5831 -0.2290
  468MOL0     H63153   5.395   5.728   1.041 -0.1226 -0.5259 -2.3566
  468MOL0     H63154   5.340   6.000   1.009 -1.4105 -0.4322 -0.0465
  468MOL0     H63155   5.504   6.003   0.950 -2.0068  2.4867 -3.5498
  468MOL0     H63156   5.310   5.803   0.843 -0.3943  1.1203 -1.9995
  468MOL0     H63157   5.473   5.817   0.790 -0.4998  0.6321 -1.9403
  468MOL0     H63158   5.254   6.026   0.745  0.7601  1.6222  1.2684
  468MOL0     H63159   5.428   6.065   0.713  0.2817 -1.0714  1.4411
  468MOL0     H63160   5.744   5.638   1.662 -1.1798 -0.8872 -3.4359
  468MOL0     H63161   5.831   5.498   1.869  0.5716 -1.7253  1.1970
  468MOL0     H63162   5.809   5.121   2.054  0.7974  1.2165  1.0089
  468MOL0     H63163   5.841   4.943   2.226 -0.1908  1.8358  0.1694
  468MOL0     H63164   5.790   4.720   1.497  1.9740 -2.2325 -1.1561
  468MOL0     H63165   5.863   4.891   1.378 -2.7560 -2.0998  1.8713
  468MOL0     H63166   6.110   5.298   1.438  2.5145 -1.6543  0.2561
  468MOL0     H63167   6.174   5.519   1.363  1.5422 -2.3361  1.5957
  468MOL0     H63168   6.116   5.576   0.966 -1.1464  0.8171 -0.5849
  468MOL0     H63169   6.290   5.563   0.917 -3.4884 -0.1043 -3.2695
  468MOL0     H63170   6.237   5.776   0.854  1.3209  0.8366  0.4802
  468MOL0     H63171   6.315   5.793   1.014  1.9246 -4.6674  0.1344
  468MOL0     H63172   6.083   5.777   1.116  0.1067 -0.4932  0.2819
  468MOL0     H63173   6.011   5.811   0.956 -0.3647 -1.2974  0.1397
  468MOL0     H63174   6.021   6.008   1.069  0.1615 -2.0999  1.3970
  468MOL0     H63175   6.190   5.984   1.119  2.3346  1.3990 -3.1177
  468MOL0     H63176   6.262   6.160   0.748  2.0563 -1.4332  1.1511
  468MOL0     H63177   6.247   5.359   0.976 -0.3507 -2.6968 -0.8061
  468MOL0     H63178   6.251   4.997   1.051  1.3709 -0.2850 -0.5188
  468MOL0     H63179   6.133   5.093   0.945 -0.0847  3.1598  1.2876
  468MOL0     H63180   6.287   5.130   0.936  0.3199 -2.3917 -0.5790
  469MOL0     O63181   9.519   3.743   0.003 -0.4320  0.2711  0.2187
  469MOL0     C63182   9.607   3.661   0.009  0.2521 -0.3553  0.5587
  469MOL0     O63183   9.602   3.533  -0.034  0.1633  0.1351 -0.8428
  469MOL0     C63184   9.521   3.497  -0.139  0.1461 -0.7105  0.1912
  469MOL0     C63185   9.543   3.537  -0.273 -0.1690  0.3470 -0.5001
  469MOL0     C63186   9.450   3.501  -0.363 -0.0688 -0.9888  0.8275
  469MOL0     C63187   9.347   3.412  -0.343 -0.2486  0.2373 -0.1852
  469MOL0     O63188   9.263   3.373  -0.444 -0.3011  0.4085  0.0036
  469MOL0     C63189   9.322   3.335  -0.571 -0.0356  0.6864  0.2093
  469MOL0     C63190   9.235   3.252  -0.665 -0.0584  0.6240  0.0747
  469MOL0     C63191   9.330   3.185  -0.772  0.6535 -1.1486  0.1022
  469MOL0     C63192   9.390   3.051  -0.726 -0.3942 -0.2025 -1.3654
  469MOL0     C63193   9.461   2.969  -0.844  0.2705 -0.7679  0.1912
  469MOL0     C63194   9.548   2.854  -0.793 -0.0894 -0.2877  0.6414
  469MOL0     C63195   9.603   2.763  -0.906  0.1186  1.0531 -0.6627
  469MOL0     C63196   9.510   2.645  -0.958 -0.4073  0.7116 -0.5650
  469MOL0     N63197   9.385   2.689  -1.021 -0.4015  0.0674  0.1678
  469MOL0     C63198   9.385   2.766  -1.127 -0.3003 -0.8801  1.1523
  469MOL0     C63199   9.253   2.802  -1.120 -0.1799 -0.2129  0.2035
  469MOL0     C63200   9.183   2.891  -1.222 -0.5968  0.2845  0.0877
  469MOL0     C63201   9.167   3.027  -1.161  0.2253  0.7523  0.8784
  469MOL0     C63202   9.108   3.131  -1.262  0.7532 -0.6069 -0.5694
  469MOL0     C63203   9.084   3.269  -1.205  0.8895  0.1096  0.0412
  469MOL0     O63204   9.214   3.320  -1.182 -0.9108  0.5087 -0.0955
  469MOL0     C63205   9.234   3.429  -1.098  0.1332  0.7705  0.1044
  469MOL0     C63206   9.137   3.473  -1.003 -0.1840  0.1130 -0.1094
  469MOL0     C63207   9.177   3.577  -0.916  0.7219 -0.9753  0.2565
  469MOL0     C63208   9.313   3.622  -0.907 -0.0476 -0.2053  0.4667
  469MOL0     C63209   9.357   3.703  -0.792 -0.7918  0.4536  0.3739
  469MOL0     O63210   9.488   3.710  -0.769 -0.2191 -0.0369  0.0090
  469MOL0     C63211   9.551   3.778  -0.657 -0.5276  0.5623  0.5114
  469MOL0     C63212   9.488   3.782  -0.536  0.6892 -0.4185  0.2522
  469MOL0     C63213   9.549   3.828  -0.422  0.3072 -1.3982 -0.0620
  469MOL0     C63214   9.675   3.888  -0.426  0.5123  0.1050 -0.6068
  469MOL0     O63215   9.722   3.977  -0.322 -0.4730  0.5630  0.6494
  469MOL0     C63216   9.863   4.012  -0.309  0.5950 -0.1105  0.6803
  469MOL0     C63217   9.879   4.147  -0.247  0.4829 -0.0677 -0.2967
  469MOL0     C63218  10.006   4.192  -0.208 -1.0146  0.1008  0.1982
  469MOL0     C63219  10.034   4.336  -0.231 -0.6197  0.0394 -0.1367
  469MOL0     C63220  10.175   4.365  -0.193 -0.1945 -0.3503 -0.0728
  469MOL0     C63221  10.196   4.454  -0.072 -1.0322 -0.8492 -0.5387
  469MOL0     C63222  10.343   4.463  -0.026 -0.0214 -0.7081 -0.1924
  469MOL0     C63223  10.356   4.544   0.108 -0.0902  0.3386  0.4610
  469MOL0    Cl63224  10.528   4.543   0.159  0.3105 -0.1649  0.0711
  469MOL0     C63225   9.743   3.886  -0.549 -0.2331 -0.2405  0.2807
  469MOL0     C63226   9.684   3.825  -0.664  0.0331 -0.6116  0.7725
  469MOL0     O63227   9.269   3.755  -0.729 -0.4067  0.6002 -0.1707
  469MOL0     C63228   9.408   3.569  -0.998  0.0895  0.6740 -0.4133
  469MOL0     C63229   9.367   3.470  -1.091 -0.0953  0.2778  0.1948
  469MOL0     N63230   9.179   2.737  -1.024  0.5985 -0.0963  0.2608
  469MOL0     N63231   9.261   2.658  -0.973  0.9212  0.6653  0.0951
  469MOL0     C63232   9.332   3.362  -0.210 -0.0888 -0.1434 -0.3283
  469MOL0     C63233   9.422   3.400  -0.112 -0.2043  0.3351 -0.9250
  469MOL0     C63234   9.725   3.716   0.065  0.6411  0.6091  0.0050
  469MOL0     C63235   9.750   3.856   0.025  1.0523  0.1532 -0.1826
  469MOL0     C63236   9.869   3.919   0.066  0.4036  0.3404 -0.9010
  469MOL0     C63237   9.969   3.850   0.134  0.1023 -1.5339  0.2833
  469MOL0     O63238  10.095   3.898   0.141 -0.0271 -0.3750 -0.1258
  469MOL0     C63239  10.114   3.977   0.258  0.1571 -0.5297 -0.0593
  469MOL0     C63240  10.195   4.105   0.225  0.1969 -0.0122  0.1678
  469MOL0     C63241  10.341   4.088   0.229  0.1760  0.2312 -0.1062
  469MOL0     C63242  10.387   3.966   0.134  0.0333 -0.8852  0.2617
  469MOL0     C63243  10.343   3.968  -0.004 -0.0463 -0.0875  0.5634
  469MOL0     C63244  10.303   3.967  -0.112  0.2569 -1.2490  0.0785
  469MOL0     C63245   9.938   3.722   0.173 -0.0211 -0.0876 -0.1579
  469MOL0     C63246   9.821   3.648   0.147  1.3413 -0.2647  0.9145
  469MOL0     C63247   9.813   3.506   0.192 -0.0928  0.9381  0.1209
  469MOL0     H63248   9.629   3.596  -0.303  0.2352  0.3127  0.5773
  469MOL0     H63249   9.451   3.549  -0.460  0.7026  0.0419  1.3333
  469MOL0     H63250   9.353   3.426  -0.624 -1.5631  0.7283 -0.6760
  469MOL0     H63251   9.408   3.270  -0.551 -0.1746 -0.9507 -3.5946
  469MOL0     H63252   9.165   3.318  -0.719  0.3274 -0.3710 -1.7181
  469MOL0     H63253   9.183   3.175  -0.607  2.1319  1.0602  2.7597
  469MOL0     H63254   9.417   3.249  -0.786  1.1291 -2.1309 -1.7896
  469MOL0     H63255   9.282   3.177  -0.870 -1.7704  0.2450  1.0727
  469MOL0     H63256   9.458   3.056  -0.640 -0.2122 -1.4211 -1.4164
  469MOL0     H63257   9.300   2.992  -0.708  1.0924 -2.1882 -0.0378
  469MOL0     H63258   9.374   2.923  -0.891 -3.4334  0.6541  4.9465
  469MOL0     H63259   9.526   3.028  -0.910  0.2906 -2.2797 -1.2067
  469MOL0     H63260   9.633   2.896  -0.739 -0.3413 -0.6445  1.3294
  469MOL0     H63261   9.484   2.783  -0.740  1.6172 -2.7653 -0.4745
  469MOL0     H63262   9.694   2.708  -0.880  1.5506  2.9893 -1.3615
  469MOL0     H63263   9.625   2.829  -0.990  1.6055 -0.8324 -1.8291
  469MOL0     H63264   9.559   2.586  -1.037  0.9693  2.5013 -1.1289
  469MOL0     H63265   9.490   2.571  -0.880  2.6477 -1.7977 -1.9349
  469MOL0     H63266   9.459   2.793  -1.202  0.4903 -3.3089  0.9677
  469MOL0     H63267   9.241   2.893  -1.315 -0.9681  0.5156 -0.1434
  469MOL0     H63268   9.089   2.840  -1.244  1.4607 -3.7006 -0.4180
  469MOL0     H63269   9.091   3.022  -1.082 -1.3011  0.4225 -0.5478
  469MOL0     H63270   9.255   3.074  -1.116  1.4149 -0.2503 -0.3200
  469MOL0     H63271   9.015   3.092  -1.306  0.5488 -0.4747 -0.2592
  469MOL0     H63272   9.182   3.132  -1.342  0.8418  2.7161 -0.5856
  469MOL0     H63273   9.023   3.261  -1.114 -1.0161 -0.2642 -1.2106
  469MOL0     H63274   9.017   3.329  -1.267  0.8752 -1.4572 -1.5297
  469MOL0     H63275   9.031   3.448  -0.998  0.2442 -1.8452 -0.1781
  469MOL0     H63276   9.108   3.619  -0.844  1.5781 -2.9086  2.3005
  469MOL0     H63277   9.386   3.746  -0.535  0.6907 -0.4191  0.4023
  469MOL0     H63278   9.486   3.828  -0.334 -3.0245 -1.6634 -2.2768
  469MOL0     H63279   9.917   3.940  -0.247  1.8198 -1.5363 -1.8603
  469MOL0     H63280   9.923   4.022  -0.400 -0.9058 -0.8246 -0.4170
  469MOL0     H63281   9.837   4.217  -0.320 -0.5879  0.4440  0.7682
  469MOL0     H63282   9.802   4.157  -0.170  0.7786  1.7021 -0.1910
  469MOL0     H63283  10.005   4.172  -0.101 -3.6759 -3.5888 -0.3286
  469MOL0     H63284  10.079   4.130  -0.261 -1.6519 -3.0009  2.6876
  469MOL0     H63285   9.974   4.401  -0.166  0.2717  1.0453 -0.2735
  469MOL0     H63286  10.021   4.360  -0.337 -2.9177  0.0307  0.0972
  469MOL0     H63287  10.215   4.423  -0.276 -0.2372  0.4652  0.4628
  469MOL0     H63288  10.225   4.269  -0.176  1.8747  0.3553 -1.6640
  469MOL0     H63289  10.145   4.551  -0.073 -2.6360 -1.6356  0.8154
  469MOL0     H63290  10.145   4.414   0.016  2.3605 -0.2727  1.8772
  469MOL0     H63291  10.412   4.506  -0.100 -0.4912 -0.1030 -0.2860
  469MOL0     H63292  10.386   4.369   0.010 -1.1407 -0.1161  3.0250
  469MOL0     H63293  10.341   4.647   0.076  1.8397 -0.6254 -4.4109
  469MOL0     H63294  10.295   4.511   0.192  0.6445 -0.3030  0.7625
  469MOL0     H63295   9.842   3.929  -0.565  0.7830 -2.2197  0.9557
  469MOL0     H63296   9.726   3.820  -0.763 -2.0954 -1.1930 -0.1695
  469MOL0     H63297   9.511   3.598  -0.984 -0.1496  0.4009  2.4989
  469MOL0     H63298   9.428   3.408  -1.156 -0.9361 -1.0839  0.6572
  469MOL0     H63299   9.248   3.297  -0.189  0.7639 -0.6545  1.6453
  469MOL0     H63300   9.416   3.384  -0.005  0.2887  3.9844 -0.2149
  469MOL0     H63301   9.676   3.918  -0.024  0.6944  0.2589  0.4875
  469MOL0     H63302   9.894   4.020   0.036 -0.8804  1.2150  0.8204
  469MOL0     H63303  10.156   3.915   0.338 -0.1955  0.8963  1.2796
  469MOL0     H63304  10.017   4.008   0.299  0.9244  0.6583  0.9197
  469MOL0     H63305  10.161   4.185   0.292 -1.7588 -1.0748  0.5076
  469MOL0     H63306  10.183   4.142   0.123  2.2317 -0.0662 -0.1174
  469MOL0     H63307  10.370   4.089   0.334 -2.7473  4.3765  0.9228
  469MOL0     H63308  10.386   4.175   0.180  1.3718  0.0727  0.6911
  469MOL0     H63309  10.494   3.946   0.132  0.1633 -0.2377 -1.6163
  469MOL0     H63310  10.335   3.890   0.193  0.5968 -2.2080 -0.8708
  469MOL0     H63311  10.255   3.960  -0.207 -2.0156  2.4356  0.7612
  469MOL0     H63312  10.009   3.654   0.219  0.7504  0.3509 -0.6758
  469MOL0     H63313   9.914   3.469   0.174 -0.7896 -0.3238 -1.4050
  469MOL0     H63314   9.790   3.494   0.299  2.4395 -2.3583  0.4199
  469MOL0     H63315   9.736   3.453   0.136 -0.9272  1.2367  0.9479
  470MOL0     O63316  10.438   3.539   4.624  0.9794  0.5752 -0.4815
  470MOL0     C63317  10.436   3.508   4.745 -0.2418 -0.1704 -0.6883
  470MOL0     O63318  10.538   3.533   4.830  0.2255 -0.0555  0.2944
  470MOL0     C63319  10.645   3.608   4.773 -1.2002 -0.3267 -0.0375
  470MOL0     C63320  10.652   3.750   4.766 -0.5407  0.9661  0.8193
  470MOL0     C63321  10.755   3.810   4.697 -0.9657 -0.6051  0.7116
  470MOL0     C63322  10.862   3.741   4.658  0.8014  0.1784  0.7124
  470MOL0     O63323  10.967   3.807   4.610 -0.3842  0.0652  0.3375
  470MOL0     C63324  11.083   3.749   4.552 -0.3916  0.1239 -0.2454
  470MOL0     C63325  11.159   3.865   4.499 -0.0399 -0.5558 -0.2085
  470MOL0     C63326  11.254   3.809   4.391  0.4097  0.4086  0.3990
  470MOL0     C63327  11.345   3.905   4.324 -1.4175 -0.3582  0.8027
  470MOL0     C63328  11.473   3.945   4.406  0.1869 -1.1199  0.3366
  470MOL0     C63329  11.448   4.059   4.507  0.8476  0.3416  0.0548
  470MOL0     C63330  11.543   4.183   4.512  0.9571  0.9111  0.4882
  470MOL0     C63331  11.464   4.302   4.562 -0.0940 -0.0791 -0.0944
  470MOL0     N63332  11.564   4.405   4.606 -0.1512 -0.4582 -0.0597
  470MOL0     C63333  11.538   4.511   4.682 -0.4213 -0.6025  0.2846
  470MOL0     C63334  11.655   4.571   4.711 -0.1089 -0.1190  0.7069
  470MOL0     C63335  11.678   4.685   4.807 -0.3138 -0.8184  1.2414
  470MOL0     C63336  11.685   4.825   4.726 -0.8538 -0.5915 -0.7025
  470MOL0     C63337  11.540   4.858   4.680 -0.5305  0.5126 -0.7942
  470MOL0     C63338  11.542   5.008   4.671  0.4250 -0.8261  0.5265
  470MOL0     O63339  11.431   5.038   4.582 -0.0076  0.0266  0.6317
  470MOL0     C63340  11.367   5.154   4.598  0.9927  0.0116  0.6586
  470MOL0     C63341  11.440   5.271   4.619  0.6506  0.4600  0.0521
  470MOL0     C63342  11.373   5.390   4.632 -0.2742  0.2049 -0.1215
  470MOL0     C63343  11.235   5.398   4.631  0.9703 -0.4084  1.1409
  470MOL0     C63344  11.162   5.527   4.651  0.6226 -0.1117  0.3112
  470MOL0     O63345  11.022   5.530   4.644  1.0205  0.0391 -0.2600
  470MOL0     C63346  10.961   5.657   4.637  0.2004  0.5971 -0.4046
  470MOL0     C63347  10.843   5.686   4.698  0.6801 -0.9608  0.0929
  470MOL0     C63348  10.778   5.813   4.686  0.0621 -0.4728  0.3389
  470MOL0     C63349  10.843   5.909   4.596  0.0211 -0.1051 -0.0454
  470MOL0     O63350  10.785   6.037   4.588  0.5854 -0.3165  0.0040
  470MOL0     C63351  10.793   6.114   4.473 -0.7835 -0.0304  0.8942
  470MOL0     C63352  10.703   6.245   4.488  0.7997  0.1322 -0.2638
  470MOL0     C63353  10.695   6.350   4.372 -0.0926 -0.5995  0.4749
  470MOL0     C63354  10.823   6.399   4.321 -1.2367 -0.5148  0.2511
  470MOL0     C63355  10.852   6.342   4.176  0.0630 -0.0329  0.5641
  470MOL0     C63356  10.956   6.417   4.097 -0.0953 -0.7274 -0.3632
  470MOL0     C63357  10.938   6.393   3.949  0.2440 -0.9371 -0.2528
  470MOL0     C63358  11.022   6.505   3.878  0.1345  0.2372 -0.5294
  470MOL0    Cl63359  10.939   6.673   3.864  0.0738 -0.2964 -0.3115
  470MOL0     C63360  10.949   5.874   4.513  0.4719 -0.9326 -0.2611
  470MOL0     C63361  11.015   5.755   4.536 -0.1400 -0.2134 -0.7457
  470MOL0     O63362  11.229   5.635   4.653 -0.1388  0.0938 -0.4188
  470MOL0     C63363  11.166   5.280   4.600 -0.2387 -0.4714 -1.2126
  470MOL0     C63364  11.228   5.163   4.596  1.1126  0.3005 -0.7216
  470MOL0     N63365  11.746   4.508   4.624  0.6986 -0.3784  1.2689
  470MOL0     N63366  11.697   4.415   4.563 -0.4188 -0.3221  0.2439
  470MOL0     C63367  10.865   3.595   4.661 -0.6394  0.1869  0.7275
  470MOL0     C63368  10.757   3.538   4.726  0.7869  0.1256 -0.0524
  470MOL0     C63369  10.307   3.447   4.809 -0.1640 -0.8787  0.3449
  470MOL0     C63370  10.294   3.422   4.946 -0.4044  0.4678  0.1408
  470MOL0     C63371  10.171   3.382   5.000  1.1208 -0.1141  0.0299
  470MOL0     C63372  10.068   3.348   4.922 -0.5594 -0.6119  0.1484
  470MOL0     O63373   9.949   3.321   4.968 -0.4576  0.2708 -0.1069
  470MOL0     C63374   9.930   3.180   4.996 -0.5032 -0.1268 -0.5020
  470MOL0     C63375   9.792   3.161   5.053  0.4835  1.0980 -0.5662
  470MOL0     C63376   9.734   3.266   5.149 -0.5614 -0.0529  0.1142
  470MOL0     C63377   9.814   3.293   5.283  0.6596  0.0907  0.2577
  470MOL0     C63378   9.793   3.191   5.385  0.5828  0.4407  0.1822
  470MOL0     C63379   9.774   3.095   5.449 -0.2527 -0.1428 -0.2470
  470MOL0     C63380  10.070   3.387   4.796  0.0079 -0.4923  0.0606
  470MOL0     C63381  10.189   3.425   4.737  0.3996 -0.0746 -0.1500
  470MOL0     C63382  10.183   3.425   4.574  0.0467 -0.7717 -0.3535
  470MOL0     H63383  10.576   3.817   4.805  0.9668  2.3954  1.4557
  470MOL0     H63384  10.749   3.917   4.682 -0.6322 -0.9122 -1.9835
  470MOL0     H63385  11.136   3.692   4.629 -1.2313  1.2687  1.2284
  470MOL0     H63386  11.059   3.682   4.469 -0.7376  1.2521 -1.0835
  470MOL0     H63387  11.227   3.904   4.575 -2.5653  1.7179  1.0516
  470MOL0     H63388  11.108   3.951   4.455  0.0941 -0.2340  0.2488
  470MOL0     H63389  11.183   3.769   4.319 -0.4351  1.7982  0.4278
  470MOL0     H63390  11.304   3.722   4.435 -1.2928 -0.7129  0.2268
  470MOL0     H63391  11.385   3.848   4.239  0.3730 -2.2149  2.7839
  470MOL0     H63392  11.297   3.997   4.288 -0.3350  0.8247  2.2417
  470MOL0     H63393  11.520   3.856   4.448  1.4811 -1.0305 -0.8310
  470MOL0     H63394  11.551   3.986   4.341 -0.3985  0.0431  0.3331
  470MOL0     H63395  11.351   4.099   4.475  0.8643 -0.9048 -1.6759
  470MOL0     H63396  11.446   4.018   4.609 -2.1227 -3.8493 -1.4033
  470MOL0     H63397  11.568   4.200   4.406 -2.9352 -2.5682 -1.2632
  470MOL0     H63398  11.635   4.161   4.567  0.5157 -1.5877  0.3187
  470MOL0     H63399  11.397   4.344   4.487 -2.7509 -1.9641  1.0459
  470MOL0     H63400  11.397   4.267   4.641  0.0474 -3.1949 -1.2050
  470MOL0     H63401  11.449   4.549   4.731 -2.0155 -3.3662 -0.2506
  470MOL0     H63402  11.606   4.687   4.889  1.2890  2.2912  2.7664
  470MOL0     H63403  11.779   4.688   4.848  0.3754 -0.3717 -0.3828
  470MOL0     H63404  11.733   4.902   4.788  0.1526 -1.6976 -0.0529
  470MOL0     H63405  11.758   4.814   4.645 -1.3653  2.5394 -1.7226
  470MOL0     H63406  11.465   4.833   4.756  1.1428 -0.7630  0.5340
  470MOL0     H63407  11.511   4.805   4.589 -1.2544 -1.2619  0.4107
  470MOL0     H63408  11.635   5.040   4.624 -0.7558 -0.7379 -1.8966
  470MOL0     H63409  11.528   5.045   4.773 -2.8364  0.1958 -0.1653
  470MOL0     H63410  11.548   5.277   4.617  0.5687  3.3767 -1.9283
  470MOL0     H63411  11.437   5.477   4.638 -1.9180  1.8671 -3.5304
  470MOL0     H63412  10.795   5.613   4.762 -2.4727  1.6278  0.9698
  470MOL0     H63413  10.686   5.833   4.740  0.5027 -2.3623  1.9011
  470MOL0     H63414  10.898   6.147   4.475 -1.6507  3.0756  0.2157
  470MOL0     H63415  10.766   6.056   4.384 -0.0840  0.6476  0.2152
  470MOL0     H63416  10.607   6.196   4.506  1.7282 -1.3736  0.8464
  470MOL0     H63417  10.729   6.292   4.583 -0.0978 -1.6658  0.9231
  470MOL0     H63418  10.651   6.297   4.287  4.9835 -3.6447 -0.7109
  470MOL0     H63419  10.629   6.433   4.398  0.8868  0.7730 -1.1736
  470MOL0     H63420  10.902   6.355   4.382 -0.6202 -0.8442 -0.7701
  470MOL0     H63421  10.820   6.509   4.320 -2.6152 -0.4960  1.4856
  470MOL0     H63422  10.760   6.359   4.119  0.2662 -0.8722 -0.0395
  470MOL0     H63423  10.869   6.234   4.170  1.0040  0.1177  0.2815
  470MOL0     H63424  10.937   6.525   4.101 -2.5105 -1.0795 -0.7991
  470MOL0     H63425  11.057   6.396   4.134 -0.9602 -2.3425  1.2007
  470MOL0     H63426  10.832   6.392   3.922 -0.3160  2.4463  1.3072
  470MOL0     H63427  10.981   6.297   3.920  0.8429 -1.2027  1.4211
  470MOL0     H63428  11.112   6.509   3.939  0.9983 -4.9603 -1.0730
  470MOL0     H63429  11.047   6.468   3.779  0.2267 -2.1374  0.3263
  470MOL0     H63430  10.971   5.942   4.432  0.0350 -0.1684  0.2522
  470MOL0     H63431  11.107   5.736   4.481  0.5430 -2.2181  0.9648
  470MOL0     H63432  11.059   5.294   4.590 -0.8447  0.9362  4.0561
  470MOL0     H63433  11.164   5.079   4.569  1.7542 -0.5483  0.3473
  470MOL0     H63434  10.948   3.531   4.633 -1.5138 -0.4547 -0.4734
  470MOL0     H63435  10.770   3.439   4.769  1.4827 -1.9440 -4.4623
  470MOL0     H63436  10.387   3.437   5.000  1.2491  1.6912 -2.8303
  470MOL0     H63437  10.161   3.362   5.106 -1.5025  0.3208 -0.0638
  470MOL0     H63438  10.011   3.150   5.063  0.6639  0.1798 -1.7302
  470MOL0     H63439   9.917   3.109   4.914  1.6554 -1.4865  0.2675
  470MOL0     H63440   9.782   3.063   5.099 -1.2651  0.1775 -2.7219
  470MOL0     H63441   9.723   3.160   4.968 -0.1199  1.3194 -0.0884
  470MOL0     H63442   9.631   3.240   5.173 -0.3761 -1.9860 -0.9743
  470MOL0     H63443   9.725   3.364   5.100  3.0350 -1.5875 -4.3436
  470MOL0     H63444   9.918   3.285   5.251  1.1517 -0.5128  1.9456
  470MOL0     H63445   9.787   3.390   5.324 -1.6933 -0.3139 -0.1515
  470MOL0     H63446   9.757   3.020   5.523 -3.1506 -0.5629 -1.2221
  470MOL0     H63447   9.978   3.368   4.741 -2.5745  1.4853  3.3401
  470MOL0     H63448  10.091   3.371   4.549  0.1943 -2.5434  2.4776
  470MOL0     H63449  10.196   3.526   4.534  0.2853 -1.1777 -1.3252
  470MOL0     H63450  10.269   3.363   4.546  0.7636 -0.5909  1.3419
  471MOL0     O63451   8.709   9.717   6.234  0.0934 -0.1411  0.3096
  471MOL0     C63452   8.693   9.697   6.354  0.3184  0.5513 -0.2683
  471MOL0     O63453   8.589   9.755   6.428  0.4704 -0.0258 -1.1018
  471MOL0     C63454   8.535   9.874   6.378 -1.1211 -0.1482 -0.3262
  471MOL0     C63455   8.611   9.982   6.359  0.0835 -0.0141  0.3114
  471MOL0     C63456   8.563  10.102   6.306  0.3320 -0.3195 -0.0790
  471MOL0     C63457   8.426  10.114   6.278  0.2613 -0.3334  0.8945
  471MOL0     O63458   8.366  10.230   6.236 -0.2592  0.0464 -0.2327
  471MOL0     C63459   8.410  10.350   6.302 -1.2950  0.3155 -0.4128
  471MOL0     C63460   8.492  10.441   6.217 -1.0954 -0.6657  1.0044
  471MOL0     C63461   8.533  10.571   6.285  0.2707 -0.2122 -0.2248
  471MOL0     C63462   8.587  10.682   6.190  0.2870  0.8285  0.2987
  471MOL0     C63463   8.484  10.785   6.182 -0.0871 -0.0116  0.3248
  471MOL0     C63464   8.534  10.927   6.131 -0.3135 -0.6213  0.3645
  471MOL0     C63465   8.414  11.035   6.135  1.1755 -0.2686 -0.1913
  471MOL0     C63466   8.472  11.172   6.114  0.6104 -0.0755 -0.4691
  471MOL0     N63467   8.363  11.257   6.083 -0.5069 -0.5124  0.2939
  471MOL0     C63468   8.319  11.293   5.955  0.6388  0.1767 -0.0545
  471MOL0     C63469   8.213  11.375   5.981 -1.1148 -0.3732  0.2441
  471MOL0     C63470   8.133  11.440   5.872  0.1456 -0.5595 -0.3139
  471MOL0     C63471   8.196  11.567   5.808 -0.2511  0.1781  0.2465
  471MOL0     C63472   8.092  11.654   5.728 -0.7579 -0.4313 -0.2074
  471MOL0     C63473   8.144  11.785   5.709 -0.5930 -0.8498  1.1846
  471MOL0     O63474   8.036  11.871   5.652  0.6088  0.3721  1.3527
  471MOL0     C63475   8.083  11.970   5.565 -0.0344  0.5244 -0.8798
  471MOL0     C63476   7.995  12.004   5.459 -1.1346  1.0601  0.5931
  471MOL0     C63477   8.022  12.109   5.370  0.4517  0.2792 -0.0639
  471MOL0     C63478   8.141  12.178   5.379  0.1562 -0.4024 -0.0352
  471MOL0     C63479   8.160  12.296   5.293 -0.2932 -1.4917 -0.0065
  471MOL0     O63480   8.294  12.307   5.275 -0.7415  0.4122 -0.5632
  471MOL0     C63481   8.336  12.420   5.206  0.0749 -0.3416  0.1900
  471MOL0     C63482   8.362  12.531   5.288 -0.2463 -0.0350 -0.4279
  471MOL0     C63483   8.406  12.651   5.236  0.7427  0.5716 -0.1965
  471MOL0     C63484   8.402  12.665   5.093 -1.0933  0.5756 -0.5276
  471MOL0     O63485   8.446  12.776   5.025  0.2173 -0.4098 -0.2870
  471MOL0     C63486   8.500  12.886   5.101 -0.2133 -0.4242  1.2529
  471MOL0     C63487   8.411  13.007   5.091  0.5113 -0.8204  0.5588
  471MOL0     C63488   8.445  13.099   4.976  0.6568  0.2756 -0.0149
  471MOL0     C63489   8.406  13.036   4.844  0.3344  0.9983  0.3810
  471MOL0     C63490   8.404  13.129   4.731  0.7763  1.0350 -0.3128
  471MOL0     C63491   8.340  13.079   4.595 -0.1969 -0.6945  0.1823
  471MOL0     C63492   8.362  13.158   4.468 -1.2745 -1.0329  0.1700
  471MOL0     C63493   8.486  13.238   4.456 -0.4043 -0.8563  0.5537
  471MOL0    Cl63494   8.608  13.127   4.417 -0.1279  0.2549  0.0769
  471MOL0     C63495   8.365  12.557   5.014  0.8564 -0.3720 -1.5043
  471MOL0     C63496   8.335  12.429   5.070 -0.6655 -0.1011  0.2444
  471MOL0     O63497   8.075  12.371   5.247 -1.2717 -0.0895 -0.4107
  471MOL0     C63498   8.230  12.142   5.479  0.3874 -0.1085  0.3401
  471MOL0     C63499   8.208  12.032   5.561 -0.3658  0.7521 -0.8062
  471MOL0     N63500   8.201  11.402   6.118  0.0549  0.5806  1.0125
  471MOL0     N63501   8.292  11.324   6.174  0.0143 -0.2007  0.3405
  471MOL0     C63502   8.340  10.004   6.303  0.0254 -0.2056  0.0914
  471MOL0     C63503   8.400   9.880   6.347  0.4350 -0.6015 -0.5677
  471MOL0     C63504   8.787   9.615   6.430 -0.2258  0.4365  0.2474
  471MOL0     C63505   8.765   9.615   6.569 -0.4117  0.4257  0.2425
  471MOL0     C63506   8.858   9.560   6.664 -0.0649  0.1243  0.7838
  471MOL0     C63507   8.974   9.502   6.615 -1.1094  0.1243 -1.2503
  471MOL0     O63508   9.081   9.452   6.694  0.3546  0.6862 -0.4396
  471MOL0     C63509   9.072   9.458   6.838 -0.3350  0.0464  0.5686
  471MOL0     C63510   9.154   9.579   6.872  1.0405 -0.9763 -0.6370
  471MOL0     C63511   9.171   9.599   7.024 -0.3819 -0.7892  0.5799
  471MOL0     C63512   9.052   9.645   7.087  0.2356 -0.1782 -0.3460
  471MOL0     C63513   9.063   9.627   7.234  0.2966 -0.0074 -0.8344
  471MOL0     C63514   9.070   9.610   7.354 -0.1342 -0.2387 -0.1616
  471MOL0     C63515   8.987   9.495   6.478 -0.5360  0.8990 -0.1049
  471MOL0     C63516   8.896   9.548   6.387 -0.8338 -0.0690  0.3128
  471MOL0     C63517   8.928   9.517   6.248 -0.0727 -0.9780  0.4857
  471MOL0     H63518   8.715   9.964   6.386  0.0395 -1.6501 -0.5147
  471MOL0     H63519   8.635  10.183   6.308  0.5406 -0.5113  0.3662
  471MOL0     H63520   8.318  10.391   6.344 -2.5977 -0.4958 -2.3494
  471MOL0     H63521   8.480  10.332   6.385 -0.4443  0.8326 -0.9995
  471MOL0     H63522   8.423  10.465   6.135  1.4662  4.3599 -0.0863
  471MOL0     H63523   8.580  10.389   6.180 -0.4542 -0.6134  2.3998
  471MOL0     H63524   8.619  10.546   6.348  0.6859  1.7599  0.0637
  471MOL0     H63525   8.455  10.605   6.354  0.3952  1.8934 -1.0354
  471MOL0     H63526   8.689  10.707   6.221  0.2179 -0.3706  1.6399
  471MOL0     H63527   8.600  10.627   6.096 -1.5580  0.1248  0.4122
  471MOL0     H63528   8.400  10.755   6.118 -1.8594  0.6553  2.2021
  471MOL0     H63529   8.438  10.798   6.281  1.4300 -0.7941  1.1630
  471MOL0     H63530   8.617  10.960   6.194 -0.1868  0.9972 -0.5983
  471MOL0     H63531   8.574  10.938   6.029  0.6206  2.8747  0.9701
  471MOL0     H63532   8.350  11.021   6.222  1.9294 -2.4306  0.0798
  471MOL0     H63533   8.345  11.021   6.051  2.6633  2.0972 -1.9100
  471MOL0     H63534   8.520  11.203   6.208  1.1480  0.7660 -1.0108
  471MOL0     H63535   8.544  11.173   6.032 -0.2303 -0.7442 -1.2271
  471MOL0     H63536   8.350  11.255   5.859 -0.7590 -1.4964  0.0941
  471MOL0     H63537   8.121  11.363   5.795 -3.1117  0.2901 -0.7896
  471MOL0     H63538   8.037  11.467   5.916  1.6391  1.4175  2.1056
  471MOL0     H63539   8.235  11.623   5.894 -2.3932  0.2300  1.2489
  471MOL0     H63540   8.283  11.543   5.747 -0.7011  2.1325 -1.2696
  471MOL0     H63541   8.001  11.656   5.789 -0.7600 -0.5443 -0.2054
  471MOL0     H63542   8.059  11.608   5.635  0.2569  2.2913 -2.0084
  471MOL0     H63543   8.231  11.780   5.643 -1.2051  2.9963 -0.1965
  471MOL0     H63544   8.182  11.828   5.802  1.3575  3.9964 -1.4914
  471MOL0     H63545   7.903  11.947   5.464 -2.7357  2.5021 -5.1891
  471MOL0     H63546   7.955  12.117   5.285  0.0215  1.0350  0.3392
  471MOL0     H63547   8.368  12.506   5.393 -0.5782 -0.9047 -0.6065
  471MOL0     H63548   8.433  12.722   5.314  0.0038 -0.7161  1.2871
  471MOL0     H63549   8.521  12.865   5.207 -2.9382 -1.8676  1.6056
  471MOL0     H63550   8.598  12.903   5.057 -0.6600 -0.1695  0.3309
  471MOL0     H63551   8.304  12.987   5.078  0.5672  0.0768 -1.6973
  471MOL0     H63552   8.425  13.073   5.178 -0.5859  1.6811 -1.0460
  471MOL0     H63553   8.388  13.191   4.984  0.4075 -0.0550  3.7820
  471MOL0     H63554   8.551  13.125   4.982  0.7439 -0.1471  0.3313
  471MOL0     H63555   8.313  12.979   4.855  0.9544 -1.5290 -4.4935
  471MOL0     H63556   8.467  12.949   4.819 -0.7709 -0.1471  1.4896
  471MOL0     H63557   8.511  13.149   4.717  1.0213 -0.3872 -0.6257
  471MOL0     H63558   8.353  13.222   4.760  1.9338  1.0310  1.9031
  471MOL0     H63559   8.390  12.984   4.575 -1.2681 -0.9837 -1.2311
  471MOL0     H63560   8.234  13.062   4.613 -0.4890  1.6733  1.0947
  471MOL0     H63561   8.275  13.223   4.482 -1.7199 -1.7620  0.8427
  471MOL0     H63562   8.342  13.100   4.378 -0.3394  2.4311 -2.4766
  471MOL0     H63563   8.470  13.296   4.365 -1.9487 -1.9888  0.0515
  471MOL0     H63564   8.515  13.301   4.540  0.0217 -1.8394  1.1678
  471MOL0     H63565   8.355  12.578   4.908 -1.4193  0.6541 -1.1436
  471MOL0     H63566   8.310  12.350   5.001  2.3259 -0.7642 -0.2223
  471MOL0     H63567   8.315  12.206   5.499  2.3969 -1.7050 -2.5044
  471MOL0     H63568   8.278  12.006   5.640 -1.0781 -1.0154 -0.7097
  471MOL0     H63569   8.240  10.023   6.266  1.2158  0.0547 -3.4433
  471MOL0     H63570   8.350   9.785   6.358  1.0583 -0.7959  0.7941
  471MOL0     H63571   8.680   9.669   6.609 -0.8623 -0.7586  0.9637
  471MOL0     H63572   8.831   9.582   6.767  3.3475  1.4152  1.5274
  471MOL0     H63573   9.121   9.369   6.878  1.0742  0.1804 -0.7912
  471MOL0     H63574   8.967   9.476   6.862 -0.7856  1.6100 -2.2115
  471MOL0     H63575   9.095   9.660   6.828 -1.1810 -1.1701  1.7463
  471MOL0     H63576   9.257   9.573   6.836  1.9423 -2.1923  1.9059
  471MOL0     H63577   9.257   9.664   7.043 -2.3522  2.1448  0.0079
  471MOL0     H63578   9.196   9.503   7.070 -1.5960 -0.9879  0.8654
  471MOL0     H63579   9.039   9.748   7.056  1.1050 -0.6384 -2.3693
  471MOL0     H63580   8.959   9.592   7.062  0.9719 -1.9920  0.5041
  471MOL0     H63581   9.084   9.568   7.452 -1.7773  2.2553  1.2267
  471MOL0     H63582   9.079   9.453   6.439 -0.0542  2.1085 -0.3484
  471MOL0     H63583   8.971   9.418   6.238 -1.7416 -1.4816 -4.4029
  471MOL0     H63584   8.836   9.506   6.189  1.4885  0.3587 -2.3699
  471MOL0     H63585   8.986   9.598   6.203 -0.4155  0.8958  3.1881
  472MOL0     O63586   1.328   6.817   9.496  0.0754 -0.7210  0.2521
  472MOL0     C63587   1.350   6.869   9.606 -0.2910  0.2883 -0.4213
  472MOL0     O63588   1.320   6.808   9.729  0.7646 -0.3733 -0.1415
  472MOL0     C63589   1.236   6.697   9.747  0.2283 -0.0996 -0.6205
  472MOL0     C63590   1.219   6.680   9.887 -0.3010 -0.5006  0.0065
  472MOL0     C63591   1.131   6.588   9.938 -0.4323  0.3200  1.0658
  472MOL0     C63592   1.065   6.493   9.857  0.0125  0.0624  0.6440
  472MOL0     O63593   0.980   6.400   9.919 -0.4823 -0.6269 -0.5383
  472MOL0     C63594   0.919   6.299   9.847 -0.1506  0.0559  1.1843
  472MOL0     C63595   1.016   6.210   9.766 -0.2091 -0.1461  0.3466
  472MOL0     C63596   0.951   6.091   9.688 -0.3722  0.0903 -0.6682
  472MOL0     C63597   0.899   6.140   9.549  0.0714  0.3591  0.6029
  472MOL0     C63598   0.817   6.032   9.481  0.5095 -0.1657 -0.4788
  472MOL0     C63599   0.664   6.026   9.507  0.0803  0.3616  0.6002
  472MOL0     C63600   0.575   5.941   9.404  0.0227  0.6055  0.3714
  472MOL0     C63601   0.429   5.910   9.458  0.3459 -0.7932  1.2735
  472MOL0     N63602   0.375   5.786   9.396  0.6257  0.1495 -0.5073
  472MOL0     C63603   0.401   5.749   9.265  0.3709  0.6811 -1.0301
  472MOL0     C63604   0.355   5.612   9.254 -0.1653  0.1718 -0.0060
  472MOL0     C63605   0.371   5.537   9.124  0.8283  0.3763 -0.5930
  472MOL0     C63606   0.504   5.448   9.130  0.5386  0.8957  0.9900
  472MOL0     C63607   0.507   5.334   9.027 -0.2697 -0.1612 -0.8462
  472MOL0     C63608   0.489   5.381   8.883 -0.3797  0.0595  1.2071
  472MOL0     O63609   0.475   5.260   8.804 -0.1016 -0.2846  0.0678
  472MOL0     C63610   0.586   5.246   8.725  0.3141 -0.0748 -0.2619
  472MOL0     C63611   0.693   5.169   8.774  1.1727  0.5315  0.3450
  472MOL0     C63612   0.806   5.149   8.694 -0.7843 -0.2431  0.0304
  472MOL0     C63613   0.813   5.196   8.562 -0.5449 -0.6578  0.8368
  472MOL0     C63614   0.930   5.161   8.473 -0.8794  0.3669 -0.8013
  472MOL0     O63615   1.020   5.058   8.517 -0.2085 -0.6812  0.0626
  472MOL0     C63616   1.140   5.021   8.454 -0.5485 -0.6149  0.6389
  472MOL0     C63617   1.201   5.094   8.353 -0.5222 -1.0810  0.1549
  472MOL0     C63618   1.320   5.052   8.291 -0.5636  1.0841  0.0404
  472MOL0     C63619   1.383   4.929   8.337 -0.5394  0.3868 -0.8868
  472MOL0     O63620   1.476   4.883   8.246 -0.0811 -1.0347  0.2059
  472MOL0     C63621   1.545   4.762   8.264 -0.5842  0.9474  0.2393
  472MOL0     C63622   1.658   4.737   8.175  0.1072  0.7104  0.1648
  472MOL0     C63623   1.766   4.842   8.169  0.4690  0.4069  0.6393
  472MOL0     C63624   1.730   4.963   8.079  0.0081 -0.3399  0.1830
  472MOL0     C63625   1.846   5.059   8.060  0.0141 -0.3334 -0.1820
  472MOL0     C63626   1.970   5.007   7.985  0.3030 -0.3896 -0.6161
  472MOL0     C63627   1.934   4.938   7.856  0.7798  0.1797  0.9257
  472MOL0     C63628   2.052   4.885   7.768 -0.2682  0.6167  0.0458
  472MOL0    Cl63629   2.137   4.743   7.837 -0.3665  0.1426  0.4049
  472MOL0     C63630   1.322   4.859   8.443  0.4417  0.2664  0.1765
  472MOL0     C63631   1.203   4.910   8.498  0.0971  0.2946 -0.2524
  472MOL0     O63632   0.939   5.210   8.362  0.9751  0.6278  0.3547
  472MOL0     C63633   0.703   5.272   8.512  0.9317  0.9440  0.1899
  472MOL0     C63634   0.602   5.303   8.600 -0.7126  0.3878  0.2882
  472MOL0     N63635   0.307   5.577   9.376 -0.2947  0.4702  0.1684
  472MOL0     N63636   0.317   5.675   9.457 -0.0204 -1.5334 -0.8112
  472MOL0     C63637   1.069   6.515   9.715  0.4759  0.8672 -0.1574
  472MOL0     C63638   1.160   6.618   9.663 -1.0000 -0.5104 -0.4627
  472MOL0     C63639   1.420   6.996   9.623 -0.3846  0.8201  0.4575
  472MOL0     C63640   1.339   7.109   9.631 -0.0631 -0.3540 -0.4713
  472MOL0     C63641   1.394   7.231   9.624  0.0932  0.1295  0.1640
  472MOL0     C63642   1.536   7.243   9.613  1.2740 -0.0448  0.1841
  472MOL0     O63643   1.566   7.376   9.593  0.3837 -0.3803 -0.4462
  472MOL0     C63644   1.703   7.400   9.534  0.3932  0.0687  0.3264
  472MOL0     C63645   1.698   7.340   9.386  0.4309 -0.0040  0.2822
  472MOL0     C63646   1.832   7.360   9.315 -0.5101 -0.5557 -0.1856
  472MOL0     C63647   1.842   7.351   9.165 -1.0027 -0.7155 -0.0231
  472MOL0     C63648   1.969   7.403   9.115 -0.2049  0.6729 -0.4072
  472MOL0     C63649   2.070   7.450   9.068  0.0268  0.4230  0.9429
  472MOL0     C63650   1.617   7.129   9.598  0.2071 -0.5080 -0.6752
  472MOL0     C63651   1.558   7.001   9.597 -0.0930  0.4055  0.1759
  472MOL0     C63652   1.633   6.868   9.547  0.0362 -0.0233  0.6027
  472MOL0     H63653   1.283   6.723   9.963  1.6104 -3.3739  0.1725
  472MOL0     H63654   1.105   6.566  10.041 -0.9443 -0.0950  0.8560
  472MOL0     H63655   0.855   6.243   9.916  3.1052 -3.4732  1.7025
  472MOL0     H63656   0.845   6.330   9.772 -1.0575 -3.5503  0.4102
  472MOL0     H63657   1.068   6.151   9.842  1.6529  3.0653  1.7810
  472MOL0     H63658   1.091   6.263   9.705  0.9963 -2.5096 -0.3533
  472MOL0     H63659   0.866   6.052   9.744  1.4835  2.9412  4.9937
  472MOL0     H63660   1.028   6.017   9.665 -0.5293  0.2937 -1.9390
  472MOL0     H63661   0.838   6.232   9.544  1.1304  1.0157 -2.3224
  472MOL0     H63662   0.990   6.165   9.493 -0.2947  1.5821  0.5069
  472MOL0     H63663   0.829   6.074   9.381 -1.0686  3.7346  0.7738
  472MOL0     H63664   0.862   5.933   9.470 -3.1851 -1.6909 -5.2905
  472MOL0     H63665   0.642   5.990   9.608 -3.7135  1.6062  0.3773
  472MOL0     H63666   0.621   6.126   9.511  0.4324  0.6564 -1.6129
  472MOL0     H63667   0.616   5.840   9.390  1.3381  1.0939  0.4960
  472MOL0     H63668   0.571   5.994   9.308  0.6385 -0.7429 -0.4339
  472MOL0     H63669   0.429   5.906   9.567 -0.3466  2.7505  1.5309
  472MOL0     H63670   0.356   5.990   9.446 -0.0101 -0.8446  2.8769
  472MOL0     H63671   0.426   5.817   9.184 -2.7330  0.6231 -2.1638
  472MOL0     H63672   0.294   5.459   9.118  2.2852 -1.3256  1.2076
  472MOL0     H63673   0.360   5.603   9.038 -0.8259  0.6267 -0.2294
  472MOL0     H63674   0.592   5.511   9.123 -0.6313  2.4389 -0.6190
  472MOL0     H63675   0.501   5.395   9.226 -1.1356  0.7136  0.8785
  472MOL0     H63676   0.426   5.265   9.048 -1.1875  0.3150 -2.5874
  472MOL0     H63677   0.606   5.287   9.034 -0.7128 -1.0962 -0.8317
  472MOL0     H63678   0.571   5.443   8.845 -0.0008 -1.9180 -1.4730
  472MOL0     H63679   0.392   5.428   8.865  0.8138  1.9176 -0.8604
  472MOL0     H63680   0.692   5.126   8.873  3.9409  2.5326  1.3601
  472MOL0     H63681   0.894   5.092   8.722 -0.7577  0.1013  0.6658
  472MOL0     H63682   1.171   5.192   8.317  3.2626  1.2109  2.5844
  472MOL0     H63683   1.370   5.111   8.215 -2.8963  1.8260 -1.0266
  472MOL0     H63684   1.589   4.736   8.361  2.6960  1.3536 -1.0098
  472MOL0     H63685   1.467   4.686   8.248 -0.6971  1.2005 -0.4596
  472MOL0     H63686   1.690   4.634   8.194 -3.4319 -0.0361  3.1671
  472MOL0     H63687   1.610   4.722   8.078 -2.0865  0.2425  1.2456
  472MOL0     H63688   1.784   4.878   8.271 -0.4350 -1.0916  1.3760
  472MOL0     H63689   1.862   4.814   8.124  1.0149  3.4698 -0.3088
  472MOL0     H63690   1.650   5.017   8.130  0.8166  3.2633 -1.9756
  472MOL0     H63691   1.696   4.948   7.976  0.3772  0.8334 -0.1236
  472MOL0     H63692   1.884   5.082   8.160 -0.1910  0.5693 -0.3094
  472MOL0     H63693   1.807   5.149   8.012 -0.1338  1.1380  2.4686
  472MOL0     H63694   2.039   5.090   7.966  1.4330 -1.3208 -0.6976
  472MOL0     H63695   2.008   4.932   8.055 -0.5450 -1.0970 -0.8974
  472MOL0     H63696   1.870   5.010   7.803 -0.4829 -0.8155  1.0349
  472MOL0     H63697   1.872   4.850   7.876  1.0673 -0.2519 -0.0385
  472MOL0     H63698   2.021   4.877   7.663  0.4614  3.0233 -0.4290
  472MOL0     H63699   2.119   4.971   7.770  0.9174 -0.2602 -0.8638
  472MOL0     H63700   1.363   4.767   8.482  3.5651  2.4797  2.5719
  472MOL0     H63701   1.145   4.850   8.569 -2.4119 -1.2622 -3.3774
  472MOL0     H63702   0.704   5.302   8.408 -2.1299 -0.5468 -0.3749
  472MOL0     H63703   0.518   5.366   8.571 -1.1217  0.2507  1.1131
  472MOL0     H63704   1.000   6.463   9.649 -0.8736  0.6802  1.3347
  472MOL0     H63705   1.158   6.637   9.556 -0.2573  1.4340 -0.1699
  472MOL0     H63706   1.231   7.096   9.626 -0.0756 -0.0069 -1.1668
  472MOL0     H63707   1.331   7.319   9.614 -3.3521 -2.3252 -2.3724
  472MOL0     H63708   1.777   7.357   9.603  3.0479  2.0580 -1.0664
  472MOL0     H63709   1.733   7.505   9.528  1.3941 -0.2516 -0.7002
  472MOL0     H63710   1.627   7.400   9.328 -1.1589 -3.4118 -1.5957
  472MOL0     H63711   1.666   7.236   9.379  0.6384  0.0381 -1.8656
  472MOL0     H63712   1.897   7.284   9.360 -1.5548 -1.0418  0.5464
  472MOL0     H63713   1.862   7.458   9.353 -2.0919 -1.0669  2.7480
  472MOL0     H63714   1.830   7.244   9.148 -1.4183 -0.7161  0.2464
  472MOL0     H63715   1.756   7.412   9.136 -0.3626  1.5045  2.2914
  472MOL0     H63716   2.152   7.470   9.003 -1.3949 -0.6022 -1.2986
  472MOL0     H63717   1.719   7.146   9.562 -0.0596 -1.1895 -1.8239
  472MOL0     H63718   1.723   6.873   9.609  1.3956 -1.7211 -1.1072
  472MOL0     H63719   1.592   6.773   9.582 -0.4628  0.9885  2.9565
  472MOL0     H63720   1.658   6.858   9.441 -0.7179 -0.9657  0.5040
  473MOL0     O63721   1.825   1.860   1.999  1.0246  1.3052  0.3116
  473MOL0     C63722   1.859   1.875   2.114 -0.1108  0.1769 -0.0022
  473MOL0     O63723   1.971   1.823   2.177  0.1251  0.6386  0.5858
  473MOL0     C63724   2.057   1.729   2.111  0.3116 -0.4725  0.2490
  473MOL0     C63725   2.050   1.681   1.978  0.0087  0.0379 -0.6364
  473MOL0     C63726   2.148   1.586   1.935 -0.2266 -0.0558  0.6659
  473MOL0     C63727   2.253   1.542   2.012 -1.1044  0.4105  0.5289
  473MOL0     O63728   2.340   1.456   1.956  0.6120  0.7267  0.5306
  473MOL0     C63729   2.479   1.452   1.995 -0.7214  0.4959  0.1543
  473MOL0     C63730   2.489   1.344   2.090 -0.5908  0.3608 -0.4877
  473MOL0     C63731   2.499   1.199   2.034 -0.9180 -0.7031 -0.1897
  473MOL0     C63732   2.572   1.104   2.136  0.3068 -0.9188 -0.5564
  473MOL0     C63733   2.475   1.059   2.250 -0.0371  0.1531 -0.1986
  473MOL0     C63734   2.527   0.956   2.342  0.0646  1.1979  0.5507
  473MOL0     C63735   2.520   0.811   2.288  0.3735 -0.2801 -0.3012
  473MOL0     C63736   2.530   0.718   2.412 -0.5513 -0.1795 -0.1697
  473MOL0     N63737   2.456   0.591   2.389 -0.0866  0.7889  1.2418
  473MOL0     C63738   2.500   0.464   2.403 -0.7670 -0.6237 -0.2272
  473MOL0     C63739   2.393   0.391   2.374 -0.4143 -0.5414 -0.9689
  473MOL0     C63740   2.371   0.242   2.361 -0.1781 -0.0863 -0.6102
  473MOL0     C63741   2.470   0.202   2.259 -0.0584 -0.6417  0.3608
  473MOL0     C63742   2.449   0.061   2.206 -0.4879  0.8720  0.8157
  473MOL0     C63743   2.552   0.020   2.091 -0.9115  0.3584 -0.7097
  473MOL0     O63744   2.692   0.031   2.120 -0.8772  0.0867 -0.0769
  473MOL0     C63745   2.763  -0.054   2.201  0.6035 -0.0905 -0.3058
  473MOL0     C63746   2.899  -0.032   2.222 -0.4319 -0.1581  0.3727
  473MOL0     C63747   2.978  -0.119   2.292 -0.4434  0.0399 -0.5354
  473MOL0     C63748   2.913  -0.229   2.363 -0.3457  0.0227  0.1458
  473MOL0     C63749   2.982  -0.325   2.435  0.4389  0.9408  0.1671
  473MOL0     O63750   2.928  -0.373   2.554 -0.0886 -0.0262  0.3528
  473MOL0     C63751   2.993  -0.458   2.642 -0.1878 -0.5411  0.1342
  473MOL0     C63752   2.910  -0.502   2.744 -0.1550 -0.9817  0.3893
  473MOL0     C63753   2.951  -0.563   2.859  0.4481  0.0023  0.8943
  473MOL0     C63754   3.084  -0.601   2.869 -0.3402 -0.0401  0.3957
  473MOL0     O63755   3.129  -0.678   2.972  0.9537  0.4127  0.2334
  473MOL0     C63756   3.164  -0.593   3.085 -0.3313 -0.7119  0.5426
  473MOL0     C63757   3.224  -0.689   3.188 -1.2311  0.5042 -0.3164
  473MOL0     C63758   3.096  -0.766   3.254 -0.2077 -0.2846 -0.3344
  473MOL0     C63759   3.111  -0.925   3.246 -0.4120  0.5686  0.0145
  473MOL0     C63760   3.227  -0.982   3.329 -1.0865 -0.0318 -0.0761
  473MOL0     C63761   3.274  -1.128   3.298  0.6668 -0.5899  0.5121
  473MOL0     C63762   3.394  -1.184   3.378 -0.5165  0.2534  0.8349
  473MOL0     C63763   3.353  -1.245   3.504  0.3306 -0.5397 -0.2129
  473MOL0    Cl63764   3.253  -1.389   3.493  0.0889  0.1701 -0.0620
  473MOL0     C63765   3.176  -0.566   2.756 -0.2758 -0.3211 -0.8776
  473MOL0     C63766   3.128  -0.486   2.650 -0.7504 -1.2201 -0.8635
  473MOL0     O63767   3.093  -0.360   2.392 -0.2459 -0.3988 -0.7811
  473MOL0     C63768   2.776  -0.250   2.343 -0.5485 -0.0781  0.3241
  473MOL0     C63769   2.702  -0.160   2.257 -0.9694 -0.3116 -0.0943
  473MOL0     N63770   2.281   0.470   2.347 -0.4444  0.5060  0.9999
  473MOL0     N63771   2.322   0.592   2.366 -0.4030 -0.6972 -0.8709
  473MOL0     C63772   2.253   1.588   2.141  0.6574 -0.6579 -0.9916
  473MOL0     C63773   2.156   1.683   2.193  0.0728  0.6072  0.2443
  473MOL0     C63774   1.797   1.978   2.199 -0.1593  0.3786  0.8738
  473MOL0     C63775   1.857   2.002   2.324 -0.7278 -0.3850 -0.3445
  473MOL0     C63776   1.797   2.103   2.399  0.1751 -0.7460  0.2723
  473MOL0     C63777   1.705   2.188   2.352 -0.6311 -0.1638 -0.0148
  473MOL0     O63778   1.652   2.274   2.450  0.1241  0.3451 -0.2996
  473MOL0     C63779   1.639   2.412   2.431 -0.2088 -0.0753  0.4021
  473MOL0     C63780   1.776   2.469   2.412 -0.6840 -0.0081  0.5803
  473MOL0     C63781   1.785   2.622   2.436  0.4639 -0.2224  0.3453
  473MOL0     C63782   1.925   2.674   2.410 -0.5624 -0.0419 -0.7507
  473MOL0     C63783   2.028   2.669   2.520  0.5936 -0.1878 -0.4250
  473MOL0     C63784   2.115   2.672   2.613 -0.6627 -0.2159  1.0841
  473MOL0     C63785   1.658   2.173   2.227 -0.4778 -0.5320 -0.3275
  473MOL0     C63786   1.695   2.065   2.148  0.2449 -1.0060  0.3954
  473MOL0     C63787   1.612   2.052   2.014  0.3841  0.2508  0.1748
  473MOL0     H63788   1.980   1.709   1.900  0.2344 -3.1929 -2.1543
  473MOL0     H63789   2.146   1.547   1.833  3.0229 -0.8492  0.7853
  473MOL0     H63790   2.548   1.428   1.914 -0.4856 -2.2415  1.0800
  473MOL0     H63791   2.513   1.549   2.033 -2.7276  0.9769  0.8568
  473MOL0     H63792   2.415   1.340   2.169  3.0923  0.9915  3.3845
  473MOL0     H63793   2.587   1.368   2.134  0.4171  1.5843 -3.1081
  473MOL0     H63794   2.560   1.192   1.944 -1.1308 -2.3393 -0.2443
  473MOL0     H63795   2.399   1.163   2.005 -0.2417 -2.1302 -0.8542
  473MOL0     H63796   2.616   1.018   2.086  2.2862 -2.3427  3.1974
  473MOL0     H63797   2.656   1.158   2.182 -0.3069  0.1094 -0.6152
  473MOL0     H63798   2.453   1.145   2.314  1.6632 -0.1680  0.8802
  473MOL0     H63799   2.387   1.022   2.196  0.1729 -1.3970  0.4710
  473MOL0     H63800   2.634   0.960   2.364  0.3155 -1.6261  0.2352
  473MOL0     H63801   2.475   0.972   2.437  0.0688 -0.3350  0.8459
  473MOL0     H63802   2.605   0.794   2.220 -1.1313  0.0871 -2.3752
  473MOL0     H63803   2.428   0.795   2.231  0.5861 -0.7627 -0.5146
  473MOL0     H63804   2.637   0.709   2.432 -0.4494  4.1448  2.2091
  473MOL0     H63805   2.489   0.767   2.500  1.0108  1.7204 -0.4247
  473MOL0     H63806   2.595   0.427   2.440 -1.1431 -1.9774 -0.5498
  473MOL0     H63807   2.387   0.189   2.455 -1.6281  0.6177  0.0597
  473MOL0     H63808   2.272   0.221   2.320 -0.4289  0.1483 -0.1307
  473MOL0     H63809   2.466   0.275   2.177 -2.6867 -2.0754 -0.8968
  473MOL0     H63810   2.575   0.200   2.290  0.7115 -3.6204 -1.9662
  473MOL0     H63811   2.346   0.057   2.168  0.1474  2.5581 -1.2424
  473MOL0     H63812   2.453  -0.004   2.294 -0.0009  1.3187  1.1290
  473MOL0     H63813   2.535   0.099   2.017  1.4398  1.0146 -0.6215
  473MOL0     H63814   2.533  -0.081   2.055  2.9310 -0.1697 -1.7115
  473MOL0     H63815   2.939   0.057   2.174 -0.7001 -0.0692  0.3115
  473MOL0     H63816   3.081  -0.096   2.316  1.2259 -1.9357 -4.9181
  473MOL0     H63817   2.806  -0.474   2.734 -0.2094 -0.8458  1.2420
  473MOL0     H63818   2.871  -0.595   2.926  2.8174 -4.3679  2.0774
  473MOL0     H63819   3.232  -0.513   3.057 -2.3518  0.7554 -0.4709
  473MOL0     H63820   3.072  -0.544   3.120  1.0301  1.4723  1.2763
  473MOL0     H63821   3.298  -0.756   3.142 -1.6436  0.0113 -0.2791
  473MOL0     H63822   3.274  -0.627   3.263 -0.4670 -0.3761 -0.0672
  473MOL0     H63823   3.083  -0.729   3.356 -0.4260 -1.5486  0.1199
  473MOL0     H63824   3.005  -0.748   3.195  0.4091 -1.4707 -1.7087
  473MOL0     H63825   3.121  -0.951   3.141 -4.8256 -0.6435 -0.3197
  473MOL0     H63826   3.027  -0.981   3.290 -1.5599  2.4440  0.3254
  473MOL0     H63827   3.204  -0.967   3.435  3.8765  1.3227  1.0419
  473MOL0     H63828   3.310  -0.917   3.303 -1.6909  0.9229  0.3280
  473MOL0     H63829   3.191  -1.192   3.331 -0.8321  1.5987  1.2235
  473MOL0     H63830   3.281  -1.137   3.190 -3.2829 -1.1424  0.1507
  473MOL0     H63831   3.456  -1.107   3.423  0.5655  1.7970 -2.9064
  473MOL0     H63832   3.456  -1.258   3.326 -1.0348  1.5520 -1.8028
  473MOL0     H63833   3.443  -1.268   3.561  0.5851 -3.4392 -1.6137
  473MOL0     H63834   3.292  -1.175   3.561 -0.9207 -1.8651  0.1412
  473MOL0     H63835   3.278  -0.597   2.774 -0.9553 -2.2686 -0.1159
  473MOL0     H63836   3.207  -0.447   2.587  2.8376 -3.4873  1.8383
  473MOL0     H63837   2.727  -0.340   2.378  2.0447 -1.8798 -0.3933
  473MOL0     H63838   2.598  -0.188   2.246 -1.3511 -0.3324  2.8161
  473MOL0     H63839   2.335   1.557   2.206 -1.7959 -0.9807  2.1741
  473MOL0     H63840   2.164   1.720   2.295 -2.6779 -1.3455  1.2996
  473MOL0     H63841   1.934   1.939   2.367  0.1554 -0.0201 -1.3552
  473MOL0     H63842   1.839   2.115   2.499 -1.3868  0.7857  0.7792
  473MOL0     H63843   1.585   2.461   2.512  0.2855 -0.2342  0.8320
  473MOL0     H63844   1.581   2.427   2.339 -1.1616 -0.9759  0.8390
  473MOL0     H63845   1.819   2.438   2.316 -0.7446  1.1034  0.1702
  473MOL0     H63846   1.835   2.425   2.492  0.0595  1.2525  0.7638
  473MOL0     H63847   1.750   2.641   2.538  1.4604 -1.9576  1.0498
  473MOL0     H63848   1.720   2.666   2.360  1.4537 -1.2779 -1.1751
  473MOL0     H63849   1.974   2.620   2.328  0.8893 -3.8660  2.3025
  473MOL0     H63850   1.915   2.781   2.389  1.1479  0.2579 -0.1956
  473MOL0     H63851   2.197   2.699   2.676 -0.8897 -0.0875  1.3270
  473MOL0     H63852   1.580   2.244   2.201  2.0837  2.4611 -0.4677
  473MOL0     H63853   1.529   2.123   2.010 -3.0480 -3.3466  0.7693
  473MOL0     H63854   1.665   2.058   1.919 -2.2021 -0.7955 -1.4325
  473MOL0     H63855   1.546   1.965   2.013 -0.5760  0.9518  0.7961
  474MOL0     O63856   4.674   1.661   8.259 -0.2249  0.3062  0.2134
  474MOL0     C63857   4.561   1.610   8.244  0.0551  0.2237 -0.4301
  474MOL0     O63858   4.530   1.480   8.290  0.3234  0.0092  0.6206
  474MOL0     C63859   4.614   1.426   8.379  0.2334  0.1266 -0.9341
  474MOL0     C63860   4.560   1.369   8.495  0.4637 -0.2005  0.3786
  474MOL0     C63861   4.630   1.287   8.577 -0.4134  0.2031  0.0708
  474MOL0     C63862   4.770   1.274   8.560  0.0210  0.3739  0.5586
  474MOL0     O63863   4.846   1.177   8.630 -0.0250  0.4213  0.0313
  474MOL0     C63864   4.951   1.092   8.569 -0.4263  0.3703 -1.0433
  474MOL0     C63865   4.912   0.967   8.498 -0.1281 -0.6337 -0.3961
  474MOL0     C63866   4.892   0.854   8.599 -0.5074  1.0348  0.1409
  474MOL0     C63867   4.794   0.874   8.709 -0.3462 -0.1734  0.8015
  474MOL0     C63868   4.746   0.733   8.751  0.2110  0.0561  0.0869
  474MOL0     C63869   4.661   0.733   8.880  0.3680  0.2580 -0.6234
  474MOL0     C63870   4.516   0.780   8.856  1.2756 -0.1247 -0.2804
  474MOL0     C63871   4.480   0.885   8.957 -0.3371  0.7696 -0.1192
  474MOL0     N63872   4.450   0.831   9.093 -0.5424 -0.6032 -0.1463
  474MOL0     C63873   4.544   0.791   9.187 -1.2093  0.2241 -1.2823
  474MOL0     C63874   4.488   0.793   9.308 -0.3579 -1.1071  0.3740
  474MOL0     C63875   4.545   0.770   9.444 -1.2351  0.2181 -0.1560
  474MOL0     C63876   4.665   0.861   9.450  0.8455  0.9787  0.5511
  474MOL0     C63877   4.763   0.821   9.557  0.0092 -0.1030  0.2540
  474MOL0     C63878   4.876   0.919   9.569 -1.0899 -0.0434 -0.2196
  474MOL0     O63879   4.967   0.915   9.682 -0.6123  0.1727  0.0199
  474MOL0     C63880   5.026   0.794   9.720  0.1716 -0.4056 -0.3795
  474MOL0     C63881   5.047   0.679   9.643  0.0318  1.0744 -0.3283
  474MOL0     C63882   5.105   0.562   9.697 -0.0031 -0.1714 -1.3728
  474MOL0     C63883   5.164   0.562   9.832  0.7855 -0.6914 -0.4591
  474MOL0     C63884   5.248   0.442   9.885 -0.6005  0.5722  0.2057
  474MOL0     O63885   5.270   0.335   9.800  0.0143 -0.1947 -0.2216
  474MOL0     C63886   5.286   0.213   9.855 -0.2028  0.6331  0.3314
  474MOL0     C63887   5.367   0.115   9.793  0.4249  0.5044 -0.4247
  474MOL0     C63888   5.383  -0.006   9.846 -0.3454  1.0933  0.2501
  474MOL0     C63889   5.312  -0.049   9.962 -0.4598 -0.0933  0.0464
  474MOL0     O63890   5.316  -0.169  10.025 -0.2297 -0.6588  0.2355
  474MOL0     C63891   5.443  -0.241  10.032  0.1865  0.1548  0.4690
  474MOL0     C63892   5.466  -0.255  10.177  0.2444  0.2460  0.1690
  474MOL0     C63893   5.593  -0.347  10.198  0.3954 -0.1937 -0.7681
  474MOL0     C63894   5.575  -0.406  10.335  0.6564  0.2008 -0.4109
  474MOL0     C63895   5.700  -0.457  10.405  0.0963 -0.5970  0.7927
  474MOL0     C63896   5.678  -0.542  10.529 -0.3564  0.2436 -0.3075
  474MOL0     C63897   5.610  -0.677  10.518  0.3493 -0.1843 -0.3220
  474MOL0     C63898   5.535  -0.723  10.642 -0.1343 -0.3922 -0.0893
  474MOL0    Cl63899   5.398  -0.602  10.675 -0.0146 -0.0881 -0.2588
  474MOL0     C63900   5.226   0.041  10.011  0.0322 -0.4921  0.1164
  474MOL0     C63901   5.205   0.167   9.961  0.3631 -0.4529 -0.3708
  474MOL0     O63902   5.287   0.449  10.001 -0.6547 -0.3351 -0.4549
  474MOL0     C63903   5.140   0.687   9.906  0.1761  0.2378 -0.4946
  474MOL0     C63904   5.066   0.794   9.855  0.3627  0.0156 -0.8436
  474MOL0     N63905   4.363   0.851   9.286 -1.1674  0.4372  0.2980
  474MOL0     N63906   4.336   0.863   9.154  0.1760 -0.0268 -1.0571
  474MOL0     C63907   4.822   1.338   8.448  0.0649 -0.4468  0.3157
  474MOL0     C63908   4.748   1.406   8.350 -0.1786  0.8181 -0.0045
  474MOL0     C63909   4.445   1.690   8.190  0.3130 -0.5422 -0.2185
  474MOL0     C63910   4.316   1.638   8.210 -0.1696 -0.0116 -0.2238
  474MOL0     C63911   4.202   1.701   8.162  0.0497 -0.1697  0.1845
  474MOL0     C63912   4.212   1.827   8.096 -0.0566 -0.1415  0.4490
  474MOL0     O63913   4.101   1.891   8.051  0.1711 -0.1215  0.1714
  474MOL0     C63914   3.973   1.833   8.027 -0.2875  0.2091  0.0616
  474MOL0     C63915   3.872   1.925   7.957  0.1660 -0.0871  0.7223
  474MOL0     C63916   3.878   1.925   7.803 -0.1107  0.6503  0.6738
  474MOL0     C63917   3.907   1.782   7.729  0.3217  0.3781 -0.3542
  474MOL0     C63918   3.851   1.780   7.597  0.0900 -0.8912 -0.3201
  474MOL0     C63919   3.787   1.779   7.496  0.2550  0.8325  0.3889
  474MOL0     C63920   4.334   1.886   8.098 -0.1381  0.3883 -1.0841
  474MOL0     C63921   4.447   1.823   8.137 -0.3572 -0.1003 -0.0811
  474MOL0     C63922   4.571   1.899   8.105 -0.9008  0.2469  0.0168
  474MOL0     H63923   4.453   1.388   8.503  0.5910 -0.0914  1.9776
  474MOL0     H63924   4.591   1.243   8.668  1.3332 -1.5997  0.0084
  474MOL0     H63925   5.013   1.158   8.506  1.0342 -0.4286 -0.4963
  474MOL0     H63926   5.025   1.056   8.641  0.4856  3.2560 -0.4037
  474MOL0     H63927   4.995   0.938   8.433 -0.3432 -0.8396 -0.5857
  474MOL0     H63928   4.831   0.995   8.429  1.0627  1.2362 -1.1068
  474MOL0     H63929   4.983   0.819   8.647 -1.4439  1.6535  2.4951
  474MOL0     H63930   4.866   0.762   8.546  3.3096 -2.1071  3.1124
  474MOL0     H63931   4.840   0.924   8.794  0.9715  1.0602 -0.5884
  474MOL0     H63932   4.716   0.936   8.664 -0.3948  0.7702  2.1280
  474MOL0     H63933   4.689   0.688   8.670 -0.6978  0.6926  0.3562
  474MOL0     H63934   4.840   0.678   8.759  1.4127  1.5559 -2.3581
  474MOL0     H63935   4.654   0.634   8.926  0.9626  1.2275  1.6911
  474MOL0     H63936   4.704   0.803   8.953 -0.6709  0.8968 -0.6140
  474MOL0     H63937   4.450   0.693   8.854 -3.3267  2.8262 -5.1454
  474MOL0     H63938   4.498   0.817   8.755 -1.6155 -0.9281 -0.1682
  474MOL0     H63939   4.557   0.962   8.950 -0.5180  0.8030 -2.8905
  474MOL0     H63940   4.390   0.935   8.918  0.1652  2.2816  0.5927
  474MOL0     H63941   4.647   0.761   9.168 -0.9118  1.4800 -1.7181
  474MOL0     H63942   4.496   0.798   9.537  2.6499  1.5457  1.6993
  474MOL0     H63943   4.575   0.665   9.458 -2.7268 -0.1167  0.6662
  474MOL0     H63944   4.717   0.840   9.356 -1.2457 -1.8357 -0.1293
  474MOL0     H63945   4.635   0.965   9.462 -3.8950  0.0526 -1.1985
  474MOL0     H63946   4.798   0.721   9.532  3.6096  0.8515  0.9560
  474MOL0     H63947   4.714   0.827   9.654  0.7386  2.8579  0.5533
  474MOL0     H63948   4.828   1.016   9.553 -3.0019 -1.1398 -1.5990
  474MOL0     H63949   4.945   0.913   9.485  2.4425  2.9012  2.1664
  474MOL0     H63950   5.029   0.662   9.537  1.8044  0.5369 -0.5790
  474MOL0     H63951   5.111   0.473   9.636 -1.3497 -0.0758 -1.6792
  474MOL0     H63952   5.427   0.138   9.706  4.7229 -1.3649  1.6990
  474MOL0     H63953   5.453  -0.072   9.796  1.9923 -0.0522  4.5346
  474MOL0     H63954   5.429  -0.342   9.992 -0.2102  1.0286 -1.7372
  474MOL0     H63955   5.531  -0.205   9.978 -1.0067 -3.0670 -4.2110
  474MOL0     H63956   5.462  -0.160  10.231  1.5155  0.6738 -0.4457
  474MOL0     H63957   5.378  -0.315  10.200 -1.3368  1.9198 -1.2496
  474MOL0     H63958   5.614  -0.420  10.119 -0.0401 -3.3094  1.7844
  474MOL0     H63959   5.684  -0.287  10.210  0.2069 -0.3541  2.3541
  474MOL0     H63960   5.498  -0.483  10.327  2.1992 -1.8545  2.5933
  474MOL0     H63961   5.523  -0.330  10.393 -0.0148  1.9897 -3.1623
  474MOL0     H63962   5.760  -0.372  10.437 -0.0307 -1.0624  2.3763
  474MOL0     H63963   5.759  -0.518  10.336  0.6084  2.6211 -1.8709
  474MOL0     H63964   5.776  -0.558  10.574 -0.1412  0.1366 -0.7997
  474MOL0     H63965   5.613  -0.482  10.594  0.6839 -0.1192  1.0953
  474MOL0     H63966   5.678  -0.759  10.493 -1.6370 -2.8132  2.1116
  474MOL0     H63967   5.536  -0.670  10.438  2.8545  2.3165 -2.6357
  474MOL0     H63968   5.488  -0.818  10.614 -1.1138  0.3916 -1.1466
  474MOL0     H63969   5.606  -0.738  10.725 -1.2272 -1.8041  0.6369
  474MOL0     H63970   5.175  -0.004  10.096  1.1382 -1.0502  0.5037
  474MOL0     H63971   5.132   0.225  10.016  0.4534 -0.2388 -0.4747
  474MOL0     H63972   5.168   0.683  10.010 -2.2104 -0.5058  0.1862
  474MOL0     H63973   5.025   0.879   9.910  1.2446  1.5612 -2.4437
  474MOL0     H63974   4.927   1.331   8.423 -0.0583  0.4109 -0.4935
  474MOL0     H63975   4.798   1.436   8.258  2.3776 -2.1284  0.2296
  474MOL0     H63976   4.307   1.537   8.247  0.2481  0.9558  2.7640
  474MOL0     H63977   4.108   1.647   8.167  0.1478 -0.3697 -0.1413
  474MOL0     H63978   3.943   1.809   8.129  0.0954 -2.5271 -0.3880
  474MOL0     H63979   3.990   1.737   7.978  1.7961  0.0275  1.0325
  474MOL0     H63980   3.895   2.025   7.995  2.2162  0.0915 -0.7714
  474MOL0     H63981   3.771   1.893   7.982 -0.7987 -2.1269 -4.6357
  474MOL0     H63982   3.949   1.996   7.760  2.2110 -2.9349 -2.1195
  474MOL0     H63983   3.777   1.956   7.776 -0.4512  1.1846  2.4883
  474MOL0     H63984   4.014   1.762   7.743  0.3888  0.0175 -1.3423
  474MOL0     H63985   3.863   1.697   7.781  2.0830 -0.7144 -0.5605
  474MOL0     H63986   3.736   1.774   7.402  3.2176 -3.6354 -1.2939
  474MOL0     H63987   4.346   1.986   8.056 -2.0501  1.1243 -0.0212
  474MOL0     H63988   4.648   1.823   8.086 -0.0482  0.5868  1.8843
  474MOL0     H63989   4.561   1.966   8.020  2.6681  2.1106  0.8287
  474MOL0     H63990   4.596   1.960   8.192  1.9691 -1.8976  0.8610
  475MOL0     O63991  10.449  11.307   8.994 -0.2047 -0.5964  0.1708
  475MOL0     C63992  10.461  11.409   9.057 -0.4390 -1.0696 -0.3481
  475MOL0     O63993  10.473  11.540   9.006  0.3420  0.1112 -0.0265
  475MOL0     C63994  10.416  11.586   8.890 -0.5751  1.0160  0.0988
  475MOL0     C63995  10.458  11.710   8.849  0.2096 -0.5076 -0.1388
  475MOL0     C63996  10.403  11.768   8.734  0.1649 -0.2702  0.5334
  475MOL0     C63997  10.285  11.704   8.672 -0.5341  0.0602  0.6411
  475MOL0     O63998  10.237  11.748   8.556 -0.0780  0.2732  0.6046
  475MOL0     C63999  10.181  11.885   8.560  0.1077  0.1001  0.5742
  475MOL0     C64000  10.180  11.950   8.416  0.3447 -0.4462 -0.1113
  475MOL0     C64001  10.318  11.956   8.356 -0.0654  0.5437  0.1430
  475MOL0     C64002  10.346  12.074   8.264 -0.4616  0.4348 -0.0577
  475MOL0     C64003  10.226  12.115   8.185  0.5290 -0.7976  0.3589
  475MOL0     C64004  10.268  12.242   8.104  0.1902  0.4602  0.1443
  475MOL0     C64005  10.149  12.271   8.000  0.0811 -0.4007 -0.0164
  475MOL0     C64006  10.164  12.400   7.934 -0.6349  0.5115  0.7107
  475MOL0     N64007  10.031  12.464   7.903  0.6414  0.4012  0.2112
  475MOL0     C64008   9.950  12.448   7.789  0.7648  0.4720  0.4332
  475MOL0     C64009   9.861  12.558   7.800 -1.2958  0.3278  1.1694
  475MOL0     C64010   9.758  12.612   7.701  0.0117 -0.0573 -0.0031
  475MOL0     C64011   9.768  12.761   7.686 -0.1884 -0.7525 -0.0161
  475MOL0     C64012   9.662  12.811   7.589 -0.0392 -0.2228 -0.3481
  475MOL0     C64013   9.679  12.961   7.577 -0.4294 -0.3781 -0.1170
  475MOL0     O64014   9.585  13.005   7.480  0.1554  0.0955 -0.1956
  475MOL0     C64015   9.622  13.094   7.384  0.8720 -0.3804 -0.1349
  475MOL0     C64016   9.611  13.066   7.241  0.9845  0.4049 -0.9607
  475MOL0     C64017   9.649  13.164   7.145 -0.7107 -0.8917  1.0332
  475MOL0     C64018   9.693  13.293   7.189 -0.4754 -0.0845  0.5408
  475MOL0     C64019   9.749  13.385   7.095  0.3935  0.4138  0.5077
  475MOL0     O64020   9.826  13.480   7.153  0.4311 -0.2288 -0.4875
  475MOL0     C64021   9.913  13.558   7.071  0.4568 -0.3273 -0.0753
  475MOL0     C64022   9.998  13.506   6.963 -0.4101 -0.1700 -0.0025
  475MOL0     C64023  10.082  13.591   6.896  0.5444  0.5719 -0.4371
  475MOL0     C64024  10.084  13.730   6.921 -0.3843  0.3265 -0.2623
  475MOL0     O64025  10.171  13.823   6.872  0.0014  0.4262 -0.6297
  475MOL0     C64026  10.250  13.795   6.761 -0.3249  0.3923  0.3723
  475MOL0     C64027  10.309  13.914   6.704  0.6627  0.2577  0.1742
  475MOL0     C64028  10.396  14.002   6.786 -0.8364  0.0963  0.4178
  475MOL0     C64029  10.523  13.934   6.820 -0.7941  0.4979 -0.2943
  475MOL0     C64030  10.625  13.918   6.703 -0.9518 -0.2975  0.6387
  475MOL0     C64031  10.761  13.890   6.771 -0.7689  0.1691 -0.3170
  475MOL0     C64032  10.862  13.859   6.662  0.3040  0.5330 -0.8616
  475MOL0     C64033  10.998  13.850   6.716 -0.0482  0.1346 -0.3640
  475MOL0    Cl64034  11.094  13.801   6.574 -0.1658 -0.5637 -0.0309
  475MOL0     C64035  10.008  13.777   7.027  0.3334 -0.2153 -0.1005
  475MOL0     C64036   9.921  13.703   7.102 -0.0682 -0.5321  0.0235
  475MOL0     O64037   9.728  13.367   6.975 -0.0080  0.0128  0.0027
  475MOL0     C64038   9.703  13.320   7.322 -0.1639  0.4212 -0.0142
  475MOL0     C64039   9.658  13.219   7.422  0.4701 -1.8581  0.8268
  475MOL0     N64040   9.882  12.618   7.919 -0.4482  0.3397  0.1740
  475MOL0     N64041   9.965  12.554   7.984 -0.5192 -0.2171  0.1501
  475MOL0     C64042  10.248  11.573   8.713  0.6784  0.0680 -0.4531
  475MOL0     C64043  10.313  11.510   8.816  0.4028 -0.7707  0.8643
  475MOL0     C64044  10.475  11.394   9.202  0.3412 -0.9416  0.0317
  475MOL0     C64045  10.584  11.467   9.262 -0.2232  0.9709 -0.9522
  475MOL0     C64046  10.602  11.447   9.398 -0.1413 -0.2327 -0.5424
  475MOL0     C64047  10.540  11.351   9.473  0.1463 -0.1391  0.9099
  475MOL0     O64048  10.574  11.322   9.603  0.1891  0.5162  0.4736
  475MOL0     C64049  10.614  11.433   9.680 -0.1597 -0.4590  1.0760
  475MOL0     C64050  10.637  11.389   9.820 -1.4898 -0.2106  0.9471
  475MOL0     C64051  10.516  11.317   9.882 -0.5079 -0.4477  0.3193
  475MOL0     C64052  10.556  11.280  10.023 -0.0937 -1.0265  1.3772
  475MOL0     C64053  10.572  11.395  10.119 -0.1030  0.4219 -0.7317
  475MOL0     C64054  10.579  11.474  10.219 -0.3352  0.0758 -0.0226
  475MOL0     C64055  10.447  11.267   9.400 -0.0493 -0.1544  0.1454
  475MOL0     C64056  10.412  11.292   9.273  0.4128  0.1362  1.2693
  475MOL0     C64057  10.288  11.217   9.224 -0.6524  0.3525  0.8616
  475MOL0     H64058  10.535  11.753   8.912 -0.6553  0.2982  0.3801
  475MOL0     H64059  10.443  11.863   8.698 -2.1393  0.6512  0.2273
  475MOL0     H64060  10.077  11.875   8.595 -0.3062  1.4642 -0.2087
  475MOL0     H64061  10.223  11.961   8.627 -0.9730  0.5717  0.7517
  475MOL0     H64062  10.155  12.053   8.440  1.2172 -0.0375 -0.9064
  475MOL0     H64063  10.096  11.917   8.353  0.8811  0.2542 -1.2125
  475MOL0     H64064  10.342  11.861   8.307  0.0426 -0.8911  2.7988
  475MOL0     H64065  10.393  11.968   8.434 -1.0345  2.5476  0.8366
  475MOL0     H64066  10.377  12.151   8.336 -0.6330  0.8961 -0.4702
  475MOL0     H64067  10.427  12.053   8.195 -2.0250 -3.1959 -1.0143
  475MOL0     H64068  10.196  12.037   8.115  1.9185 -0.1464 -1.0100
  475MOL0     H64069  10.135  12.136   8.243  0.1414  2.5202 -1.2295
  475MOL0     H64070  10.283  12.331   8.165 -1.8687 -0.3962  2.0382
  475MOL0     H64071  10.355  12.214   8.043  0.2162  1.3010 -0.2102
  475MOL0     H64072  10.064  12.290   8.067  0.9369 -0.9421  1.2722
  475MOL0     H64073  10.122  12.188   7.933  2.1530  1.3086 -3.1935
  475MOL0     H64074  10.204  12.472   8.006 -3.0252  0.6387  2.0342
  475MOL0     H64075  10.226  12.392   7.845 -2.8985 -1.9176 -0.7991
  475MOL0     H64076   9.958  12.379   7.706 -2.7448  0.2404  0.1234
  475MOL0     H64077   9.774  12.566   7.603 -0.6329  1.2978 -0.7855
  475MOL0     H64078   9.658  12.580   7.733 -0.2193  1.7854  1.2553
  475MOL0     H64079   9.767  12.803   7.786  3.6067  0.3066 -0.2960
  475MOL0     H64080   9.866  12.778   7.640 -1.3950  0.6724 -2.2532
  475MOL0     H64081   9.563  12.799   7.633 -0.3904 -0.8999 -1.2778
  475MOL0     H64082   9.666  12.750   7.497 -0.8761 -2.3847  0.9616
  475MOL0     H64083   9.776  12.995   7.537 -0.1490 -1.1344 -0.0998
  475MOL0     H64084   9.660  12.994   7.679 -1.6311 -1.2825 -0.0330
  475MOL0     H64085   9.580  12.971   7.200  3.7714 -0.1416 -2.0884
  475MOL0     H64086   9.631  13.132   7.043 -1.5092 -3.3142  1.8717
  475MOL0     H64087  10.003  13.400   6.944 -0.0538 -0.1411 -0.0725
  475MOL0     H64088  10.146  13.540   6.825  2.4482 -0.2936  1.7840
  475MOL0     H64089  10.327  13.724   6.794  0.0487  1.3815  1.7249
  475MOL0     H64090  10.188  13.744   6.687 -1.4683  1.0797  0.8386
  475MOL0     H64091  10.356  13.871   6.615 -0.9300  1.7360 -1.5005
  475MOL0     H64092  10.227  13.976   6.665  3.6247  4.6802  0.2399
  475MOL0     H64093  10.420  14.090   6.726  1.4715  0.9801  2.4683
  475MOL0     H64094  10.349  14.037   6.879  0.2103  0.4604  0.8228
  475MOL0     H64095  10.503  13.840   6.872  2.4812 -1.8873 -2.8677
  475MOL0     H64096  10.564  13.994   6.902 -1.1874  0.4337 -0.0475
  475MOL0     H64097  10.616  14.014   6.651 -2.2940 -1.4450 -1.4139
  475MOL0     H64098  10.606  13.831   6.639  0.9759 -0.7208  0.5660
  475MOL0     H64099  10.791  13.980   6.827 -2.1225  0.4668 -0.0118
  475MOL0     H64100  10.749  13.801   6.834  2.8948 -0.5675 -0.4897
  475MOL0     H64101  10.853  13.948   6.598 -1.5959  3.6224  3.2618
  475MOL0     H64102  10.846  13.771   6.599 -0.9111  0.7672 -0.9077
  475MOL0     H64103  11.034  13.944   6.758 -0.8511 -0.6544  2.2846
  475MOL0     H64104  11.001  13.776   6.796 -0.3387  0.3593 -0.1478
  475MOL0     H64105  10.031  13.878   7.061 -1.5997 -0.0572  0.8831
  475MOL0     H64106   9.870  13.755   7.183 -2.6813 -0.3415 -1.6084
  475MOL0     H64107   9.754  13.404   7.367  1.3666  0.1816 -1.2035
  475MOL0     H64108   9.671  13.248   7.526 -2.3319  0.9650  0.5432
  475MOL0     H64109  10.172  11.519   8.657 -0.9685  1.5451  0.2389
  475MOL0     H64110  10.281  11.413   8.852 -3.3778 -0.5912 -1.4199
  475MOL0     H64111  10.645  11.548   9.223  3.1125  0.6908  2.9966
  475MOL0     H64112  10.685  11.509   9.431  1.7439 -1.5549 -2.5180
  475MOL0     H64113  10.532  11.505   9.680 -1.1409 -1.4247 -1.7085
  475MOL0     H64114  10.706  11.481   9.646 -1.2753 -0.3489 -2.2007
  475MOL0     H64115  10.663  11.479   9.876  3.0905 -1.4090  1.1705
  475MOL0     H64116  10.724  11.322   9.823  0.5350  2.1963 -0.8369
  475MOL0     H64117  10.479  11.231   9.825  1.8346 -0.5097 -1.2823
  475MOL0     H64118  10.426  11.377   9.893 -0.9484  0.1650 -4.5159
  475MOL0     H64119  10.482  11.209  10.060 -0.2262 -1.6792 -0.0490
  475MOL0     H64120  10.654  11.230  10.027  1.5182  2.0038  3.6587
  475MOL0     H64121  10.572  11.540  10.303  0.5463  0.3654 -0.1593
  475MOL0     H64122  10.394  11.197   9.465 -2.3488  2.8311  1.7332
  475MOL0     H64123  10.315  11.111   9.233 -0.3553  0.4225  0.8036
  475MOL0     H64124  10.198  11.239   9.282 -0.3420 -0.7135  1.8027
  475MOL0     H64125  10.271  11.221   9.116  0.1516 -1.8447  0.5949
  476MOL0     O64126   9.415   3.185   2.172  0.2518  0.1230  0.2270
  476MOL0     C64127   9.487   3.090   2.191 -0.2546  0.1515  0.1949
  476MOL0     O64128   9.621   3.093   2.198  0.5642 -0.0764 -0.3497
  476MOL0     C64129   9.686   3.217   2.204 -0.3120  0.0286 -0.1468
  476MOL0     C64130   9.684   3.305   2.096 -1.0431 -0.2516 -0.4576
  476MOL0     C64131   9.765   3.421   2.107  0.1499 -0.4626  0.1314
  476MOL0     C64132   9.837   3.456   2.218  0.0402 -0.2028  0.7174
  476MOL0     O64133   9.925   3.566   2.200  0.1124 -0.5591 -0.4597
  476MOL0     C64134  10.028   3.575   2.295 -1.1746 -2.0532 -0.2591
  476MOL0     C64135  10.113   3.686   2.251  0.1072 -0.2411  0.0756
  476MOL0     C64136  10.250   3.663   2.318  0.9302  0.1372  0.2228
  476MOL0     C64137  10.289   3.770   2.408 -0.0577  0.1917  0.1170
  476MOL0     C64138  10.429   3.760   2.470 -0.0997  0.3262  0.6617
  476MOL0     C64139  10.467   3.875   2.562  0.3184  0.8886 -0.0613
  476MOL0     C64140  10.514   3.995   2.471  0.1304  0.4569 -1.0118
  476MOL0     C64141  10.538   4.113   2.571 -0.1427  0.1293  0.1606
  476MOL0     N64142  10.655   4.080   2.661  0.2424 -0.0475 -0.3747
  476MOL0     C64143  10.781   4.039   2.632  0.1009  0.5024  0.4761
  476MOL0     C64144  10.847   4.047   2.746 -0.6518 -0.2672 -0.0752
  476MOL0     C64145  10.996   4.018   2.741  0.7056  0.4915  0.0331
  476MOL0     C64146  11.027   3.881   2.790  0.6170  0.8890 -0.0247
  476MOL0     C64147  11.013   3.784   2.666  0.3932 -0.1599  0.4884
  476MOL0     C64148  11.063   3.641   2.704 -0.2455 -0.0176 -0.0734
  476MOL0     O64149  11.029   3.601   2.832  0.8961  0.2190  0.1592
  476MOL0     C64150  10.942   3.500   2.832 -0.0646  0.1458  0.6009
  476MOL0     C64151  10.984   3.374   2.810  0.0200 -0.3869  1.6273
  476MOL0     C64152  10.895   3.268   2.826 -0.0005  0.2980  0.6939
  476MOL0     C64153  10.760   3.296   2.853  0.4529  1.2327 -0.4037
  476MOL0     C64154  10.661   3.185   2.883  0.9295  0.2041  0.2948
  476MOL0     O64155  10.691   3.061   2.826  0.4306  0.0611  0.1337
  476MOL0     C64156  10.589   2.975   2.811  0.3446  0.5063 -0.1818
  476MOL0     C64157  10.566   2.886   2.918  0.3162  0.1049 -0.6150
  476MOL0     C64158  10.463   2.789   2.912 -0.7039  0.3257 -0.1950
  476MOL0     C64159  10.383   2.777   2.803  0.9563  0.1012  0.5482
  476MOL0     O64160  10.296   2.668   2.800 -0.5102  0.3246 -0.1695
  476MOL0     C64161  10.242   2.623   2.668  0.5763 -0.0119 -0.0604
  476MOL0     C64162  10.175   2.485   2.686  0.6368  0.3708 -0.9184
  476MOL0     C64163  10.040   2.495   2.760 -0.4981 -1.3210 -0.0572
  476MOL0     C64164   9.962   2.361   2.761  0.2174  0.1403  0.0875
  476MOL0     C64165  10.026   2.255   2.842 -0.0909  0.5190 -0.3156
  476MOL0     C64166   9.947   2.130   2.860  0.2181 -0.0856 -0.5686
  476MOL0     C64167  10.011   2.041   2.961 -0.1377 -0.4511  1.1880
  476MOL0     C64168   9.922   1.924   2.986  0.7268  0.3510  0.1968
  476MOL0    Cl64169   9.927   1.818   2.837 -0.1456 -0.1252 -0.0221
  476MOL0     C64170  10.408   2.866   2.692 -0.0725 -0.7827 -1.2358
  476MOL0     C64171  10.509   2.963   2.701  0.9293  0.0023 -0.0589
  476MOL0     O64172  10.557   3.222   2.942 -0.2368 -0.0202  0.0760
  476MOL0     C64173  10.709   3.429   2.859  0.0876  2.0002 -1.4715
  476MOL0     C64174  10.805   3.527   2.861  0.7122  0.2504 -0.2276
  476MOL0     N64175  10.775   4.097   2.847  0.4785  0.1906  0.4429
  476MOL0     N64176  10.658   4.128   2.792  0.6698 -0.5774  0.0326
  476MOL0     C64177   9.830   3.375   2.331 -1.1665  0.2066 -0.0701
  476MOL0     C64178   9.763   3.253   2.325  0.4423  0.6692  0.8817
  476MOL0     C64179   9.409   2.964   2.217 -0.6060  0.0641  0.2473
  476MOL0     C64180   9.270   2.968   2.174  0.5985  0.4965  0.6538
  476MOL0     C64181   9.188   2.850   2.177 -0.3592  0.0789  0.1550
  476MOL0     C64182   9.234   2.734   2.222 -0.4227 -0.0735 -0.6224
  476MOL0     O64183   9.148   2.632   2.232 -0.1502 -0.1338 -0.1073
  476MOL0     C64184   9.151   2.526   2.130  0.3648  0.8484 -0.6343
  476MOL0     C64185   9.061   2.407   2.167  0.2808  0.4186  0.1326
  476MOL0     C64186   8.909   2.444   2.174 -0.2379 -1.1103  0.1702
  476MOL0     C64187   8.812   2.325   2.179 -0.5705  0.7642 -0.3496
  476MOL0     C64188   8.679   2.366   2.155  0.0751  0.5345  0.3162
  476MOL0     C64189   8.565   2.404   2.159  0.7275  0.1376  0.5369
  476MOL0     C64190   9.380   2.720   2.249 -0.0528 -0.4593  0.5455
  476MOL0     C64191   9.462   2.838   2.254 -0.1035  0.2578 -0.2544
  476MOL0     C64192   9.609   2.820   2.309  0.3616  0.9062 -0.0555
  476MOL0     H64193   9.627   3.275   2.009 -1.2872 -2.3050  0.3533
  476MOL0     H64194   9.767   3.487   2.021  0.6995 -1.3795 -0.5841
  476MOL0     H64195   9.988   3.592   2.395 -1.4493  2.5036 -0.9086
  476MOL0     H64196  10.085   3.482   2.299 -0.5635 -1.7163 -0.9067
  476MOL0     H64197  10.075   3.788   2.265 -0.0201 -0.0854 -1.2484
  476MOL0     H64198  10.121   3.673   2.143  1.3945 -2.5910  0.3771
  476MOL0     H64199  10.325   3.655   2.239  1.8641  1.5759  0.9126
  476MOL0     H64200  10.245   3.573   2.380 -2.0034 -0.5844 -0.9272
  476MOL0     H64201  10.290   3.856   2.340  2.7525  0.0060 -0.1689
  476MOL0     H64202  10.214   3.785   2.486  0.5125  0.2425  0.6648
  476MOL0     H64203  10.436   3.664   2.522 -4.1120  0.9211  2.7150
  476MOL0     H64204  10.511   3.767   2.398  0.5386 -1.6259  1.1386
  476MOL0     H64205  10.378   3.899   2.621 -2.7715 -2.7247 -2.7411
  476MOL0     H64206  10.541   3.835   2.632  0.2651  1.4139  0.3033
  476MOL0     H64207  10.434   4.021   2.401 -1.3205 -4.6221 -1.6496
  476MOL0     H64208  10.611   3.987   2.421  1.5594  0.3142  1.6129
  476MOL0     H64209  10.548   4.210   2.523 -0.4279  0.0591 -0.0413
  476MOL0     H64210  10.452   4.127   2.637 -3.2591 -1.3517 -3.2393
  476MOL0     H64211  10.809   4.007   2.532 -2.7940  0.1523 -0.3214
  476MOL0     H64212  11.039   4.031   2.641 -0.4824 -2.8593 -1.0781
  476MOL0     H64213  11.045   4.085   2.811  3.2361  0.1662 -1.3010
  476MOL0     H64214  11.131   3.877   2.823  0.5089  2.2149  0.5380
  476MOL0     H64215  10.955   3.851   2.867 -0.6128  0.8151 -1.1662
  476MOL0     H64216  11.064   3.829   2.580 -2.0737  0.7620 -0.5893
  476MOL0     H64217  10.909   3.782   2.632 -0.3702 -0.9816  2.6835
  476MOL0     H64218  11.170   3.656   2.720 -0.2556 -0.2158  0.1779
  476MOL0     H64219  11.044   3.578   2.617 -0.5906  1.4627 -1.1158
  476MOL0     H64220  11.091   3.374   2.788 -0.5304  0.1811 -1.6257
  476MOL0     H64221  10.926   3.167   2.799 -2.4218 -0.0598 -1.0493
  476MOL0     H64222  10.632   2.890   3.004  2.1727 -1.2539 -1.8917
  476MOL0     H64223  10.446   2.717   2.992 -0.1959 -1.9555 -1.9990
  476MOL0     H64224  10.168   2.693   2.627 -0.8635 -1.6421 -0.3304
  476MOL0     H64225  10.321   2.609   2.593 -1.2814 -0.9832 -1.9055
  476MOL0     H64226  10.164   2.450   2.583  1.2242 -1.5010 -0.3742
  476MOL0     H64227  10.239   2.414   2.740  1.5511  1.0530 -1.0860
  476MOL0     H64228  10.060   2.517   2.866  1.1362  0.4513 -0.6861
  476MOL0     H64229   9.981   2.581   2.729  1.4912  1.2860  2.7312
  476MOL0     H64230   9.957   2.338   2.654 -3.7907 -2.6000  0.6591
  476MOL0     H64231   9.866   2.393   2.802 -0.1204 -1.4531  0.6164
  476MOL0     H64232  10.064   2.306   2.931 -2.0137 -0.5370  1.2010
  476MOL0     H64233  10.107   2.224   2.776  0.6769  1.8527 -0.0363
  476MOL0     H64234   9.858   2.152   2.920 -0.5937 -1.3879 -1.2569
  476MOL0     H64235   9.914   2.083   2.767  0.1967 -0.5521 -0.3284
  476MOL0     H64236  10.044   2.095   3.049 -0.2232 -1.5835  1.9328
  476MOL0     H64237  10.101   1.997   2.917  0.5511  0.7638  1.3561
  476MOL0     H64238   9.960   1.864   3.069 -0.0806 -2.3327 -1.2584
  476MOL0     H64239   9.819   1.947   3.014  0.9346 -0.0607  1.3518
  476MOL0     H64240  10.359   2.850   2.596  0.3386 -3.9876 -1.0043
  476MOL0     H64241  10.524   3.024   2.612 -3.8171 -0.6841 -1.6169
  476MOL0     H64242  10.606   3.454   2.881 -0.7188 -3.0448  2.2339
  476MOL0     H64243  10.771   3.628   2.878 -1.0019 -0.3390  0.0507
  476MOL0     H64244   9.880   3.389   2.426 -1.4605  4.4216 -0.3510
  476MOL0     H64245   9.777   3.189   2.411  3.4488 -2.6901 -1.7570
  476MOL0     H64246   9.218   3.059   2.147 -2.2014 -0.7155  1.6268
  476MOL0     H64247   9.085   2.859   2.144  0.7113  0.1984 -3.6686
  476MOL0     H64248   9.251   2.488   2.109 -0.7706 -3.7027  1.1084
  476MOL0     H64249   9.113   2.579   2.042 -0.6442  1.5895  0.2114
  476MOL0     H64250   9.102   2.362   2.258 -0.3821 -0.5085 -0.0075
  476MOL0     H64251   9.073   2.329   2.091 -0.6727 -0.3146  0.7124
  476MOL0     H64252   8.881   2.508   2.090  1.1877  0.5971  0.9364
  476MOL0     H64253   8.887   2.507   2.261  0.5582 -3.8434  2.5004
  476MOL0     H64254   8.844   2.250   2.107 -0.7112  0.2407  0.1285
  476MOL0     H64255   8.815   2.263   2.269  0.7643 -1.6742 -1.9564
  476MOL0     H64256   8.462   2.432   2.150  0.2336 -0.8880  2.5975
  476MOL0     H64257   9.417   2.625   2.285 -2.3802 -2.0584 -1.0139
  476MOL0     H64258   9.651   2.905   2.363  5.5437  0.0060 -2.0523
  476MOL0     H64259   9.625   2.739   2.380  2.8667  1.6817  0.3750
  476MOL0     H64260   9.681   2.815   2.226  5.4025 -3.3952  3.8520
  477MOL0     O64261   6.365   8.981   4.916  0.3062 -0.6039  0.5136
  477MOL0     C64262   6.452   9.024   4.988 -0.0699 -0.0779  0.1810
  477MOL0     O64263   6.449   9.135   5.066  0.5506  0.1081 -0.1794
  477MOL0     C64264   6.380   9.248   5.028 -0.5041 -1.1129  0.0493
  477MOL0     C64265   6.353   9.283   4.892  0.4785 -0.5504  0.9381
  477MOL0     C64266   6.280   9.393   4.864 -0.2247 -1.3173  0.0063
  477MOL0     C64267   6.230   9.473   4.963 -0.1219 -0.3942  0.1859
  477MOL0     O64268   6.150   9.583   4.925  0.0739  0.4410  0.2610
  477MOL0     C64269   6.063   9.648   5.022 -0.5171  0.1557  0.9712
  477MOL0     C64270   5.946   9.739   4.961 -0.1695  0.6454  1.0216
  477MOL0     C64271   5.953   9.882   4.981  0.3901  0.1093  0.2857
  477MOL0     C64272   5.853   9.938   4.871 -0.3785  0.7098  0.5978
  477MOL0     C64273   5.768  10.059   4.890  0.7496 -0.2650  0.0190
  477MOL0     C64274   5.700  10.064   5.032  0.1962  0.7549 -0.0792
  477MOL0     C64275   5.559  10.138   5.038 -0.5545 -0.6401  0.4402
  477MOL0     C64276   5.578  10.282   5.082 -0.6263 -0.6131 -0.5485
  477MOL0     N64277   5.568  10.291   5.228 -0.3646 -0.1866  0.5938
  477MOL0     C64278   5.680  10.270   5.311  1.0296 -0.2530  0.0321
  477MOL0     C64279   5.627  10.286   5.440  0.6236 -0.4543  0.2313
  477MOL0     C64280   5.705  10.319   5.562  0.3723  1.7623  0.6751
  477MOL0     C64281   5.693  10.217   5.659  0.2860  0.0682  0.6508
  477MOL0     C64282   5.789  10.101   5.624 -0.4727 -0.9397  0.9820
  477MOL0     C64283   5.934  10.131   5.677  0.0515 -0.9449  0.5248
  477MOL0     O64284   6.014  10.018   5.688  0.1936 -0.1342 -0.0810
  477MOL0     C64285   6.150  10.035   5.708 -0.4208 -0.1996  0.0530
  477MOL0     C64286   6.213  10.169   5.713  0.5859 -0.0139  1.2411
  477MOL0     C64287   6.355  10.182   5.707 -0.0251  0.4045 -0.5425
  477MOL0     C64288   6.435  10.066   5.725 -0.2163  1.2379 -0.1499
  477MOL0     C64289   6.585  10.069   5.754 -0.4410  0.6341  0.1374
  477MOL0     O64290   6.658   9.954   5.756  0.6578  0.6227 -0.7756
  477MOL0     C64291   6.781   9.958   5.811  0.7123  0.1610 -0.7516
  477MOL0     C64292   6.874   9.867   5.766 -0.3168 -0.0314  0.9093
  477MOL0     C64293   7.003   9.866   5.811 -0.0415  0.6636  1.0090
  477MOL0     C64294   7.047   9.940   5.925  0.2190 -0.1705  0.1953
  477MOL0     O64295   7.163   9.925   5.996 -0.3431 -0.6181  0.1706
  477MOL0     C64296   7.249   9.834   5.944 -0.6040  0.9718 -0.4456
  477MOL0     C64297   7.383   9.855   6.017  0.1670  0.5525 -0.1438
  477MOL0     C64298   7.485   9.789   5.935 -0.0694 -0.1630  0.3303
  477MOL0     C64299   7.630   9.835   5.984 -0.7094  0.5502  0.1290
  477MOL0     C64300   7.741   9.756   5.912 -0.2026  0.4952 -1.1936
  477MOL0     C64301   7.765   9.808   5.763 -0.3211  0.5983  0.3426
  477MOL0     C64302   7.875   9.727   5.695 -0.3204  0.5505  0.0644
  477MOL0     C64303   7.891   9.757   5.551 -0.0078  0.1015  0.0981
  477MOL0    Cl64304   8.042   9.697   5.471 -0.0612  0.0700  0.3821
  477MOL0     C64305   6.950  10.032   5.973  0.2621  0.6138 -0.1364
  477MOL0     C64306   6.822  10.045   5.912  0.6939 -0.8367  0.4727
  477MOL0     O64307   6.628  10.182   5.752 -0.1978  0.4042  0.0177
  477MOL0     C64308   6.368   9.934   5.730  0.7194  0.1558 -0.3854
  477MOL0     C64309   6.232   9.918   5.710  0.1844  0.4088  0.2539
  477MOL0     N64310   5.497  10.296   5.431  1.0833  0.5017 -0.1219
  477MOL0     N64311   5.457  10.287   5.308 -0.4661 -0.2558 -0.0166
  477MOL0     C64312   6.252   9.436   5.099 -1.2285 -0.4816 -0.8168
  477MOL0     C64313   6.332   9.325   5.137  1.4444 -0.9780 -0.8548
  477MOL0     C64314   6.574   8.943   4.984 -0.3818 -0.0627  0.7145
  477MOL0     C64315   6.647   8.946   5.104  0.2801  0.0387 -0.3939
  477MOL0     C64316   6.752   8.860   5.126 -0.4544  1.0231 -0.4596
  477MOL0     C64317   6.786   8.759   5.040  0.9688  0.1614 -0.7691
  477MOL0     O64318   6.883   8.668   5.061 -0.3444 -0.7121 -0.1865
  477MOL0     C64319   6.902   8.644   5.206 -0.2966  0.2607 -0.1145
  477MOL0     C64320   6.939   8.492   5.208  0.9013  0.9623  0.0388
  477MOL0     C64321   6.823   8.406   5.176  0.1921  0.9931  0.5716
  477MOL0     C64322   6.861   8.255   5.140  0.3609  0.5544 -0.2577
  477MOL0     C64323   6.925   8.185   5.250  0.3664 -0.2387 -0.6421
  477MOL0     C64324   6.966   8.125   5.348  0.2140 -1.0984 -0.7990
  477MOL0     C64325   6.715   8.748   4.925  0.1223 -0.6027 -0.1704
  477MOL0     C64326   6.606   8.840   4.892  0.2848  0.7231 -0.0468
  477MOL0     C64327   6.546   8.822   4.757 -0.3447 -0.2579  0.1537
  477MOL0     H64328   6.394   9.232   4.806  0.4910  2.0017 -0.6781
  477MOL0     H64329   6.266   9.435   4.765  4.8126  2.0755  0.3654
  477MOL0     H64330   6.021   9.577   5.093  1.0300 -1.3393  0.4613
  477MOL0     H64331   6.123   9.721   5.077  2.0419 -0.7284 -0.4865
  477MOL0     H64332   5.846   9.702   4.988 -0.5874  1.2472  0.3310
  477MOL0     H64333   5.966   9.735   4.854  2.4739 -0.2359  1.4776
  477MOL0     H64334   6.053   9.912   4.949  1.5996 -2.9076  0.8999
  477MOL0     H64335   5.932   9.915   5.083 -0.1558  1.4304 -0.2313
  477MOL0     H64336   5.912   9.950   4.779  3.1822  2.7747  2.9425
  477MOL0     H64337   5.778   9.863   4.845 -0.5052  0.1135  2.5774
  477MOL0     H64338   5.833  10.144   4.866 -0.9921  0.7649 -1.2821
  477MOL0     H64339   5.690  10.050   4.813 -1.3715 -2.2548  2.2375
  477MOL0     H64340   5.688   9.962   5.068 -0.6551 -0.4540 -3.4555
  477MOL0     H64341   5.764  10.116   5.104 -1.1953 -0.4284  2.1258
  477MOL0     H64342   5.495  10.091   5.113  0.0739  0.7417  1.9188
  477MOL0     H64343   5.503  10.145   4.945 -0.9013  2.0564  0.7742
  477MOL0     H64344   5.678  10.320   5.059 -2.4390  5.0092 -0.5944
  477MOL0     H64345   5.510  10.348   5.027  0.9335 -0.0373 -1.8943
  477MOL0     H64346   5.787  10.262   5.292  1.1945  0.4901  0.5650
  477MOL0     H64347   5.811  10.323   5.534  0.9732 -0.8676  2.1846
  477MOL0     H64348   5.659  10.411   5.597  0.4831  1.8575  0.5732
  477MOL0     H64349   5.712  10.261   5.757  0.1552 -0.7795  1.0638
  477MOL0     H64350   5.600  10.161   5.669  0.9293 -0.9152  1.2264
  477MOL0     H64351   5.796  10.097   5.515 -0.8460  0.3398  0.9035
  477MOL0     H64352   5.768  10.000   5.660 -0.9597 -0.6985  1.3831
  477MOL0     H64353   5.904  10.175   5.773  0.1779 -2.2255  1.1709
  477MOL0     H64354   5.984  10.194   5.603 -0.0071  0.0063  1.2621
  477MOL0     H64355   6.159  10.261   5.696  0.9237 -0.1614 -0.9746
  477MOL0     H64356   6.403  10.279   5.708 -2.7728  2.2491 -6.0113
  477MOL0     H64357   6.859   9.801   5.681  2.8891  1.2990 -0.8724
  477MOL0     H64358   7.066   9.784   5.779 -3.7088 -1.3333 -1.9007
  477MOL0     H64359   7.213   9.733   5.966 -0.1966  0.9623  0.1962
  477MOL0     H64360   7.258   9.842   5.835 -0.9332  2.3532 -0.3938
  477MOL0     H64361   7.416   9.959   6.022  0.4150  0.4276  0.9223
  477MOL0     H64362   7.362   9.808   6.114 -4.1900 -0.7098 -1.4529
  477MOL0     H64363   7.481   9.681   5.948  3.6609 -0.4737 -0.1098
  477MOL0     H64364   7.473   9.813   5.828 -0.9951 -0.6352  0.3192
  477MOL0     H64365   7.640   9.810   6.090 -1.7208 -0.6537 -0.0375
  477MOL0     H64366   7.633   9.938   5.950 -0.1041  0.3481 -0.4586
  477MOL0     H64367   7.714   9.651   5.898 -0.2726  0.7526 -3.3646
  477MOL0     H64368   7.837   9.753   5.965 -0.1194 -0.7008 -1.3897
  477MOL0     H64369   7.668   9.812   5.712 -0.0884  1.1059 -0.0739
  477MOL0     H64370   7.806   9.908   5.778  0.3868  0.0480  2.3064
  477MOL0     H64371   7.844   9.622   5.698  1.0060  0.1352 -0.4058
  477MOL0     H64372   7.968   9.749   5.748 -0.0399 -1.5151  0.5507
  477MOL0     H64373   7.807   9.719   5.493 -0.5937  2.6143 -0.8086
  477MOL0     H64374   7.879   9.865   5.543  1.5661  0.3391  0.5478
  477MOL0     H64375   6.963  10.088   6.065 -2.1251  0.6633  0.2375
  477MOL0     H64376   6.751  10.115   5.954  0.3277  2.1317 -4.3440
  477MOL0     H64377   6.420   9.846   5.765 -0.2061 -0.2313  0.0507
  477MOL0     H64378   6.195   9.816   5.702  1.4561  0.0812 -2.5362
  477MOL0     H64379   6.214   9.495   5.182  1.1803 -2.8556  2.2555
  477MOL0     H64380   6.348   9.298   5.241 -0.8428  0.0276 -0.1843
  477MOL0     H64381   6.633   9.016   5.186  0.2774  0.7425 -0.9793
  477MOL0     H64382   6.812   8.883   5.213 -0.2900  1.3357 -0.6560
  477MOL0     H64383   6.812   8.657   5.266  0.1279 -2.5174  1.2851
  477MOL0     H64384   6.978   8.711   5.248  0.0894 -0.9723  1.2474
  477MOL0     H64385   6.987   8.467   5.304 -0.6595  3.1811  1.4887
  477MOL0     H64386   7.015   8.480   5.130  0.9595 -4.6061  0.5252
  477MOL0     H64387   6.753   8.450   5.104 -0.9009  0.4970  1.3074
  477MOL0     H64388   6.760   8.399   5.266  1.3335 -0.5127  1.2879
  477MOL0     H64389   6.767   8.200   5.125  1.8558 -2.6718  1.2151
  477MOL0     H64390   6.926   8.254   5.052 -0.2120 -1.3657 -0.7093
  477MOL0     H64391   6.981   8.062   5.434 -0.8875 -0.8445 -0.4011
  477MOL0     H64392   6.762   8.675   4.860  1.3801 -0.4267  0.4995
  477MOL0     H64393   6.574   8.893   4.679  1.3484 -1.8275 -0.7140
  477MOL0     H64394   6.578   8.728   4.711 -1.6741 -1.0782  0.8175
  477MOL0     H64395   6.438   8.834   4.771  0.1501  5.9867  1.8671
  478MOL0     O64396   6.482   1.345   6.849  0.0826  1.0447  0.0758
  478MOL0     C64397   6.573   1.273   6.893  0.3116  0.0910  0.1655
  478MOL0     O64398   6.617   1.154   6.840 -0.6647  0.5721 -0.4456
  478MOL0     C64399   6.552   1.102   6.739 -0.8595  0.7890  0.4712
  478MOL0     C64400   6.474   0.991   6.766 -0.3669  0.4954 -0.0298
  478MOL0     C64401   6.414   0.916   6.664 -0.2287 -0.0950  0.0197
  478MOL0     C64402   6.441   0.939   6.532  0.5745 -0.6541  0.3343
  478MOL0     O64403   6.392   0.864   6.423 -0.0807  0.0857 -0.1550
  478MOL0     C64404   6.302   0.752   6.454  0.7572 -0.0027 -0.8962
  478MOL0     C64405   6.257   0.691   6.315 -1.0183  0.3357 -0.0254
  478MOL0     C64406   6.143   0.583   6.341  0.1971 -0.2708  0.0412
  478MOL0     C64407   6.179   0.470   6.436  0.7362  0.2410  0.5005
  478MOL0     C64408   6.084   0.344   6.426  0.2504  1.1926  0.2659
  478MOL0     C64409   6.110   0.258   6.294 -0.5536 -1.3207  0.9433
  478MOL0     C64410   5.973   0.212   6.242  0.9086 -0.6986  0.9663
  478MOL0     C64411   5.910   0.318   6.139  0.7120 -0.0860  0.1559
  478MOL0     N64412   5.786   0.251   6.086  0.4411  0.2871 -0.7409
  478MOL0     C64413   5.676   0.235   6.174 -0.1172 -0.5100  0.4085
  478MOL0     C64414   5.609   0.124   6.124 -0.6774  0.0648  0.5524
  478MOL0     C64415   5.473   0.069   6.160  0.0556  0.2074 -0.3243
  478MOL0     C64416   5.454  -0.077   6.118  0.4711  0.6255  0.8854
  478MOL0     C64417   5.344  -0.157   6.189  0.5392  0.5523 -0.1502
  478MOL0     C64418   5.403  -0.230   6.304 -0.2785  0.5533  0.0164
  478MOL0     O64419   5.298  -0.228   6.409  0.0427 -0.1674 -0.0940
  478MOL0     C64420   5.317  -0.196   6.537  0.2344 -0.7129  0.7640
  478MOL0     C64421   5.445  -0.183   6.590 -0.2965  1.4114  0.3566
  478MOL0     C64422   5.455  -0.181   6.724  0.5065  0.6179 -0.0506
  478MOL0     C64423   5.342  -0.176   6.812  0.5320 -0.7278  0.8793
  478MOL0     C64424   5.341  -0.185   6.957 -0.9809  0.5324  0.3460
  478MOL0     O64425   5.471  -0.201   7.014  0.6749 -0.5523 -0.0726
  478MOL0     C64426   5.485  -0.231   7.143 -0.4897 -0.8943 -1.1268
  478MOL0     C64427   5.537  -0.361   7.174  1.0634 -0.4678 -0.0010
  478MOL0     C64428   5.550  -0.404   7.310 -0.7054  1.2478  0.2299
  478MOL0     C64429   5.512  -0.320   7.412 -0.3613  0.3390 -0.4773
  478MOL0     O64430   5.518  -0.357   7.546  0.3056 -0.0078  0.1045
  478MOL0     C64431   5.512  -0.494   7.588 -0.5338 -0.4323  0.4545
  478MOL0     C64432   5.381  -0.557   7.525  0.4407  0.3346  0.4149
  478MOL0     C64433   5.257  -0.529   7.608 -0.8179 -0.0762  0.2379
  478MOL0     C64434   5.136  -0.603   7.551 -0.1427  0.3427  1.0720
  478MOL0     C64435   5.019  -0.571   7.637 -0.2704  0.3531 -0.4466
  478MOL0     C64436   4.893  -0.655   7.606 -0.4118  0.0794 -0.5470
  478MOL0     C64437   4.787  -0.619   7.708 -0.8298 -0.8660  0.1322
  478MOL0     C64438   4.661  -0.689   7.656  0.4369 -0.0571  0.2484
  478MOL0    Cl64439   4.528  -0.651   7.765  0.5797  0.1659 -0.4129
  478MOL0     C64440   5.449  -0.196   7.383 -0.2676  0.2468 -0.8868
  478MOL0     C64441   5.438  -0.157   7.254 -0.6879 -0.4854 -0.0397
  478MOL0     O64442   5.235  -0.175   7.020 -0.6142 -0.2642  0.1599
  478MOL0     C64443   5.210  -0.168   6.750  0.1278 -0.8239 -0.4811
  478MOL0     C64444   5.204  -0.179   6.617  0.1663  0.7755  0.2604
  478MOL0     N64445   5.670   0.095   6.003  0.0960 -0.4095 -0.3386
  478MOL0     N64446   5.780   0.158   5.988  0.5464  0.8297  0.8183
  478MOL0     C64447   6.522   1.048   6.502 -0.4374  0.0424  0.6614
  478MOL0     C64448   6.575   1.133   6.608 -0.0093 -0.0626 -0.3652
  478MOL0     C64449   6.648   1.329   7.021 -0.4389  0.4026  0.4775
  478MOL0     C64450   6.577   1.408   7.106 -0.8879 -0.0624 -0.6245
  478MOL0     C64451   6.642   1.455   7.221 -0.7148  0.1621 -0.1404
  478MOL0     C64452   6.767   1.412   7.269 -0.6478 -0.4756 -0.4276
  478MOL0     O64453   6.824   1.457   7.386  0.6923  0.5456 -0.0016
  478MOL0     C64454   6.815   1.596   7.422 -0.7478  0.7326 -0.1934
  478MOL0     C64455   6.892   1.607   7.554 -0.1979 -0.6133  0.0425
  478MOL0     C64456   6.917   1.754   7.587 -0.0317  0.8504  0.4832
  478MOL0     C64457   6.790   1.826   7.631 -0.2468  0.3246 -0.1380
  478MOL0     C64458   6.691   1.858   7.527 -0.2577  0.7597  0.5911
  478MOL0     C64459   6.600   1.879   7.448  0.2402  0.8498  0.5836
  478MOL0     C64460   6.831   1.327   7.182 -0.4245 -0.2040  0.3658
  478MOL0     C64461   6.777   1.286   7.059  0.1310 -0.2103  0.5893
  478MOL0     C64462   6.867   1.204   6.968  0.1106 -0.0205  0.0306
  478MOL0     H64463   6.426   0.968   6.861  2.7246 -2.8600  0.9584
  478MOL0     H64464   6.357   0.831   6.700  0.6351 -0.6187  0.1660
  478MOL0     H64465   6.349   0.669   6.508 -2.0130 -0.8088  0.5085
  478MOL0     H64466   6.220   0.785   6.518  2.0788 -3.0827  2.7661
  478MOL0     H64467   6.344   0.641   6.271 -1.0844 -1.0402  1.3412
  478MOL0     H64468   6.218   0.770   6.250 -0.4937  0.8702  0.3026
  478MOL0     H64469   6.119   0.547   6.241 -2.3891 -3.3141  1.5527
  478MOL0     H64470   6.048   0.628   6.374  0.1703 -0.2861 -0.0148
  478MOL0     H64471   6.277   0.427   6.412 -0.4579 -3.1765  1.1776
  478MOL0     H64472   6.168   0.518   6.534 -0.0840  1.0020  0.0556
  478MOL0     H64473   6.112   0.280   6.510 -0.5641  0.6199  0.1215
  478MOL0     H64474   5.980   0.373   6.447 -0.1782 -0.6399  0.8570
  478MOL0     H64475   6.158   0.316   6.215 -3.5928  0.3740  0.2145
  478MOL0     H64476   6.175   0.172   6.314  2.5031  0.5602 -0.1485
  478MOL0     H64477   5.905   0.169   6.315  0.4833 -2.4699 -0.4027
  478MOL0     H64478   6.003   0.126   6.182  1.1696  0.8461 -1.2673
  478MOL0     H64479   5.887   0.406   6.200  1.1783  0.6540 -0.7076
  478MOL0     H64480   5.985   0.344   6.064 -0.1375 -1.4940 -1.2565
  478MOL0     H64481   5.660   0.295   6.263 -2.0742 -0.1039 -0.1545
  478MOL0     H64482   5.452   0.071   6.268 -0.2469 -2.1620 -0.2851
  478MOL0     H64483   5.404   0.140   6.113  0.5001  1.3093  0.6344
  478MOL0     H64484   5.406  -0.083   6.020  0.9234 -2.1616  0.7373
  478MOL0     H64485   5.555  -0.119   6.123 -0.3248 -1.3243  1.8921
  478MOL0     H64486   5.285  -0.231   6.135 -1.4841 -0.4794  3.1837
  478MOL0     H64487   5.267  -0.090   6.229 -0.5344  0.8711 -2.6095
  478MOL0     H64488   5.502  -0.194   6.334 -0.2398  0.9903 -0.6230
  478MOL0     H64489   5.424  -0.335   6.283  2.7706  0.7609  1.5304
  478MOL0     H64490   5.539  -0.197   6.538 -0.0727  3.3715  0.1857
  478MOL0     H64491   5.551  -0.206   6.769 -0.1622 -2.3392 -0.0530
  478MOL0     H64492   5.573  -0.427   7.096 -0.0067 -0.3282 -0.6143
  478MOL0     H64493   5.604  -0.496   7.333 -0.5901  1.3306  0.2914
  478MOL0     H64494   5.598  -0.542   7.542 -1.2522 -1.4895  0.1538
  478MOL0     H64495   5.526  -0.513   7.695  0.5233 -1.9822  0.0731
  478MOL0     H64496   5.365  -0.513   7.426 -0.0111 -0.7334 -0.0069
  478MOL0     H64497   5.392  -0.665   7.513 -3.3552 -0.2261  0.9443
  478MOL0     H64498   5.273  -0.574   7.706  0.8764 -3.4500 -1.4099
  478MOL0     H64499   5.239  -0.421   7.607  0.6321  0.1902  0.7069
  478MOL0     H64500   5.150  -0.712   7.548 -0.7999  0.2611 -0.9610
  478MOL0     H64501   5.129  -0.570   7.447  1.8101  0.8857  1.0881
  478MOL0     H64502   5.000  -0.463   7.634  1.3907  0.7935  2.0695
  478MOL0     H64503   5.053  -0.595   7.738 -3.0461 -1.1552  0.2301
  478MOL0     H64504   4.841  -0.643   7.511 -3.7091 -3.6556  0.5350
  478MOL0     H64505   4.914  -0.762   7.614 -1.0916  0.0598  1.7087
  478MOL0     H64506   4.780  -0.510   7.713  1.4122 -0.5863 -1.1184
  478MOL0     H64507   4.820  -0.663   7.803 -1.0909 -3.2318 -0.7894
  478MOL0     H64508   4.632  -0.654   7.556 -1.2001  0.8297  0.9837
  478MOL0     H64509   4.689  -0.795   7.659  1.0699 -0.0088 -2.2602
  478MOL0     H64510   5.422  -0.124   7.460  2.1285 -0.9338  1.2272
  478MOL0     H64511   5.387  -0.063   7.237  2.3313  0.7311 -3.4928
  478MOL0     H64512   5.119  -0.167   6.809  1.0134  1.1974  0.9471
  478MOL0     H64513   5.104  -0.196   6.579 -0.0848  2.4452  0.1044
  478MOL0     H64514   6.551   1.069   6.399 -0.6938  2.8828  1.0914
  478MOL0     H64515   6.653   1.205   6.586 -0.0807 -0.0052 -0.4317
  478MOL0     H64516   6.476   1.443   7.091 -1.6799 -1.8394  0.3104
  478MOL0     H64517   6.587   1.519   7.290 -2.5561 -1.0818 -0.3686
  478MOL0     H64518   6.711   1.625   7.441 -0.9086  0.4074 -0.5615
  478MOL0     H64519   6.849   1.658   7.340 -4.1328  3.6881  0.3563
  478MOL0     H64520   6.982   1.545   7.545 -0.4643 -0.8327 -1.3527
  478MOL0     H64521   6.829   1.562   7.631 -1.4966  2.0355  0.6310
  478MOL0     H64522   6.958   1.799   7.496  2.4738 -2.2036 -0.0689
  478MOL0     H64523   6.985   1.761   7.672  0.7898  0.4256 -0.1315
  478MOL0     H64524   6.727   1.760   7.692  0.0273 -0.7528 -0.9729
  478MOL0     H64525   6.823   1.918   7.679  0.6883 -0.2020  0.2452
  478MOL0     H64526   6.516   1.873   7.382  0.6712 -1.8120  0.1679
  478MOL0     H64527   6.930   1.298   7.216 -1.5314 -1.2452  2.9907
  478MOL0     H64528   6.867   1.237   6.864 -0.5051 -3.3298 -1.1712
  478MOL0     H64529   6.967   1.202   7.013  0.7970  2.4296 -1.2061
  478MOL0     H64530   6.824   1.103   6.973  1.5808 -0.6243  1.3212
  479MOL0     O64531   6.261   0.148   3.223  0.5824 -0.3543  0.6841
  479MOL0     C64532   6.206   0.134   3.330 -0.1493 -0.3205 -0.2833
  479MOL0     O64533   6.105   0.200   3.376 -0.4078 -1.0098  0.1125
  479MOL0     C64534   6.016   0.240   3.281 -0.4593 -0.7613 -0.3750
  479MOL0     C64535   5.913   0.162   3.217 -0.2551  0.0973 -0.3901
  479MOL0     C64536   5.827   0.222   3.121  0.0147 -0.5863  0.0099
  479MOL0     C64537   5.840   0.361   3.091  0.2609 -0.7242  0.3429
  479MOL0     O64538   5.771   0.422   2.986  0.0602  0.5988 -0.3978
  479MOL0     C64539   5.639   0.376   2.954 -0.8146  0.2596  0.7727
  479MOL0     C64540   5.570   0.469   2.855 -0.9562  0.2803  0.1285
  479MOL0     C64541   5.499   0.387   2.747  0.0742 -0.7572 -0.4988
  479MOL0     C64542   5.596   0.330   2.642  1.0043  0.1002  0.1217
  479MOL0     C64543   5.525   0.274   2.513 -0.1596  0.9190 -0.3498
  479MOL0     C64544   5.476   0.395   2.422  0.0004  0.2884  0.3775
  479MOL0     C64545   5.455   0.360   2.279 -0.1974  0.9262  0.8306
  479MOL0     C64546   5.419   0.473   2.199  0.6937 -0.2823  0.1368
  479MOL0     N64547   5.393   0.436   2.055 -0.5576  0.3416 -0.6556
  479MOL0     C64548   5.282   0.405   1.984  0.2925 -0.3251 -0.5561
  479MOL0     C64549   5.314   0.422   1.852 -0.3260  0.0171  0.7324
  479MOL0     C64550   5.222   0.384   1.734 -0.9142  0.2329 -0.2140
  479MOL0     C64551   5.264   0.262   1.664  0.3790  0.7494  0.4763
  479MOL0     C64552   5.177   0.213   1.550 -0.2404 -0.6524  0.4899
  479MOL0     C64553   5.039   0.258   1.557  0.3635 -0.6696 -0.4562
  479MOL0     O64554   4.983   0.221   1.677 -0.4324 -0.5606 -0.2696
  479MOL0     C64555   4.851   0.225   1.710 -0.3093 -0.3057  0.1981
  479MOL0     C64556   4.813   0.178   1.840  0.3121  0.9104 -0.4472
  479MOL0     C64557   4.679   0.148   1.869  0.5558  0.0588  0.8178
  479MOL0     C64558   4.579   0.185   1.770 -0.0631  0.1491 -0.7227
  479MOL0     C64559   4.436   0.149   1.794 -0.0750 -0.2108  0.7080
  479MOL0     O64560   4.340   0.193   1.704 -0.8671 -0.0319 -0.4249
  479MOL0     C64561   4.207   0.166   1.702  0.3651  0.4436  0.2272
  479MOL0     C64562   4.139   0.179   1.576  0.8392 -0.6127  0.1960
  479MOL0     C64563   4.001   0.171   1.560  0.8949 -0.2597 -0.3741
  479MOL0     C64564   3.920   0.135   1.679 -0.0915 -0.2773 -0.2105
  479MOL0     O64565   3.783   0.113   1.651 -0.5937  0.5693  0.2100
  479MOL0     C64566   3.707   0.020   1.731 -0.7484  0.3746  0.2530
  479MOL0     C64567   3.559   0.002   1.698 -0.2680  0.4575 -0.6812
  479MOL0     C64568   3.484  -0.093   1.791  0.0022 -0.0552 -0.1516
  479MOL0     C64569   3.327  -0.089   1.776 -0.2229  0.7538  0.0666
  479MOL0     C64570   3.250  -0.151   1.897  0.6404  0.0892 -1.0155
  479MOL0     C64571   3.274  -0.297   1.913  1.0519 -0.3193  0.0769
  479MOL0     C64572   3.194  -0.366   2.034 -0.4994  0.9388  0.0012
  479MOL0     C64573   3.044  -0.365   2.025  0.0592 -1.2753 -0.6476
  479MOL0    Cl64574   2.982  -0.484   2.141  0.0930 -0.0702  0.2955
  479MOL0     C64575   3.991   0.127   1.803 -0.0244  0.9033 -0.4558
  479MOL0     C64576   4.127   0.137   1.810 -0.9649 -0.0776  0.5227
  479MOL0     O64577   4.418   0.076   1.895  0.1404  0.3289  0.2470
  479MOL0     C64578   4.612   0.262   1.660  0.1648 -0.1159 -0.3069
  479MOL0     C64579   4.752   0.270   1.622  0.4165 -0.2204  0.8774
  479MOL0     N64580   5.445   0.454   1.844  0.5762 -0.4049 -0.3588
  479MOL0     N64581   5.492   0.448   1.962  0.8300 -0.4679 -0.6990
  479MOL0     C64582   5.938   0.440   3.164 -0.5833 -0.2671 -0.3999
  479MOL0     C64583   6.020   0.377   3.257 -0.0732  0.5649  0.5242
  479MOL0     C64584   6.278   0.054   3.422 -0.2736  0.3147 -0.4154
  479MOL0     C64585   6.416   0.039   3.420 -0.3780  0.1531 -0.1246
  479MOL0     C64586   6.487  -0.038   3.508  0.2447 -0.9274 -0.4095
  479MOL0     C64587   6.425  -0.123   3.604 -0.5248 -0.2545 -0.0853
  479MOL0     O64588   6.509  -0.203   3.681 -0.7013 -0.1402 -1.0301
  479MOL0     C64589   6.443  -0.267   3.793  0.2253 -0.1391  0.8715
  479MOL0     C64590   6.537  -0.360   3.872 -0.9295 -0.6521  0.6645
  479MOL0     C64591   6.636  -0.461   3.790 -0.8374 -0.8643  0.4440
  479MOL0     C64592   6.575  -0.573   3.700 -0.0440  2.0171 -0.7441
  479MOL0     C64593   6.462  -0.637   3.772  0.4189 -0.5492 -0.1852
  479MOL0     C64594   6.377  -0.712   3.826 -0.2299 -0.2197 -0.1985
  479MOL0     C64595   6.285  -0.103   3.616  0.5764 -0.3220  0.2521
  479MOL0     C64596   6.208  -0.019   3.531 -0.6137 -0.2763  0.5677
  479MOL0     C64597   6.055  -0.000   3.554  0.1894 -1.2404 -0.5021
  479MOL0     H64598   5.909   0.059   3.248  2.2265  1.1382  4.2712
  479MOL0     H64599   5.754   0.163   3.068 -1.1311  1.4281 -0.7746
  479MOL0     H64600   5.657   0.279   2.907  2.6795  0.5085  1.3547
  479MOL0     H64601   5.585   0.380   3.049 -0.0140  3.2457  1.2123
  479MOL0     H64602   5.655   0.522   2.812  1.8362 -3.2614  0.8669
  479MOL0     H64603   5.504   0.534   2.913 -0.4898  1.8541 -1.0436
  479MOL0     H64604   5.430   0.452   2.693 -0.1935 -2.1552 -1.9193
  479MOL0     H64605   5.445   0.301   2.786  1.2257 -3.6457 -4.6628
  479MOL0     H64606   5.663   0.409   2.607 -2.1340  2.9721  0.1058
  479MOL0     H64607   5.666   0.258   2.684  2.8956  1.0344 -1.3040
  479MOL0     H64608   5.587   0.208   2.452  1.3851  0.7097  1.3634
  479MOL0     H64609   5.433   0.223   2.540  0.1813 -0.2168 -1.2438
  479MOL0     H64610   5.381   0.434   2.460 -1.5239  1.3677 -3.9815
  479MOL0     H64611   5.551   0.474   2.418  0.4611 -0.1990 -1.6376
  479MOL0     H64612   5.378   0.282   2.269 -2.1667  2.9324 -0.5899
  479MOL0     H64613   5.555   0.334   2.244 -0.6301 -0.1413  0.3309
  479MOL0     H64614   5.332   0.526   2.238  0.7364 -0.9049  1.1375
  479MOL0     H64615   5.503   0.543   2.200 -0.5774  1.3283 -0.9040
  479MOL0     H64616   5.185   0.385   2.029  0.7029  1.4206  1.2497
  479MOL0     H64617   5.122   0.368   1.774 -0.9189 -3.6795 -1.3772
  479MOL0     H64618   5.213   0.471   1.669  3.9827  0.9104 -0.3860
  479MOL0     H64619   5.368   0.277   1.634  0.7633 -2.6707 -0.4045
  479MOL0     H64620   5.276   0.171   1.725  2.3055 -0.6885 -1.8707
  479MOL0     H64621   5.185   0.104   1.554 -0.7101 -0.6447  2.1570
  479MOL0     H64622   5.219   0.226   1.449 -1.0825 -0.1775  0.1889
  479MOL0     H64623   4.985   0.218   1.470 -2.6063 -2.0280  1.8334
  479MOL0     H64624   5.030   0.367   1.556 -1.4120 -0.7171  1.5421
  479MOL0     H64625   4.886   0.146   1.914  2.0369  0.8148 -2.1073
  479MOL0     H64626   4.651   0.104   1.964 -1.6539 -1.8247 -0.5973
  479MOL0     H64627   4.195   0.173   1.484  0.2874 -1.7403 -0.0843
  479MOL0     H64628   3.946   0.190   1.468 -1.1179 -0.1997  0.7703
  479MOL0     H64629   3.766  -0.071   1.728 -1.8375 -0.3264 -1.4937
  479MOL0     H64630   3.703   0.061   1.832  0.6877 -0.9518  0.8690
  479MOL0     H64631   3.525   0.104   1.712  1.8656  0.7802  4.8818
  479MOL0     H64632   3.547  -0.034   1.595 -0.4511 -0.4466 -0.3609
  479MOL0     H64633   3.525  -0.192   1.767 -1.7119 -1.0210  0.6687
  479MOL0     H64634   3.507  -0.083   1.898 -0.0981  0.1334 -0.1475
  479MOL0     H64635   3.296  -0.147   1.689 -0.9274 -0.0674  0.8496
  479MOL0     H64636   3.287   0.013   1.762 -2.0043  0.1093  0.1626
  479MOL0     H64637   3.146  -0.141   1.867  0.0736 -1.1242  0.4010
  479MOL0     H64638   3.271  -0.096   1.989  1.1461  0.0999 -1.1328
  479MOL0     H64639   3.249  -0.351   1.821  1.2684 -0.2866 -0.0013
  479MOL0     H64640   3.381  -0.306   1.931  1.1614 -0.5770 -0.6556
  479MOL0     H64641   3.234  -0.326   2.127 -1.5928 -1.3814  1.5565
  479MOL0     H64642   3.229  -0.469   2.035 -2.5057  0.2090  1.2214
  479MOL0     H64643   3.011  -0.268   2.061 -0.8993 -2.0603  0.6864
  479MOL0     H64644   3.005  -0.397   1.929 -1.0529  0.6783 -0.8917
  479MOL0     H64645   3.933   0.091   1.888 -0.5228 -2.3574 -2.0081
  479MOL0     H64646   4.175   0.112   1.904 -0.6087 -1.5318 -0.0197
  479MOL0     H64647   4.528   0.305   1.607  0.4629 -1.7905 -2.3039
  479MOL0     H64648   4.777   0.330   1.535 -2.7781 -3.4199 -2.6188
  479MOL0     H64649   5.949   0.546   3.142  0.2019 -0.2481  0.0224
  479MOL0     H64650   6.100   0.437   3.299  0.3358  0.2160  0.2402
  479MOL0     H64651   6.481   0.085   3.346  1.5948  0.6757  1.8315
  479MOL0     H64652   6.594  -0.047   3.494  0.8669  2.2723  1.2173
  479MOL0     H64653   6.363  -0.329   3.752 -1.0354  0.8272  1.7811
  479MOL0     H64654   6.394  -0.192   3.855 -1.4906 -1.8498  1.6889
  479MOL0     H64655   6.468  -0.417   3.933 -1.7044 -1.0516 -0.5483
  479MOL0     H64656   6.603  -0.297   3.933  1.9325 -0.7551 -2.0631
  479MOL0     H64657   6.710  -0.509   3.855 -0.1425  0.1625  0.4375
  479MOL0     H64658   6.697  -0.405   3.718  1.2105  0.0038  2.7179
  479MOL0     H64659   6.546  -0.543   3.599  2.2403 -1.0156 -2.4775
  479MOL0     H64660   6.654  -0.645   3.679 -1.0161  0.9305 -0.7958
  479MOL0     H64661   6.300  -0.766   3.878  1.8740 -3.2976  0.0245
  479MOL0     H64662   6.231  -0.153   3.695  0.2842 -0.2777  0.0806
  479MOL0     H64663   6.004   0.010   3.458  0.8492  0.5292 -0.7019
  479MOL0     H64664   6.025  -0.087   3.614  2.6819 -1.5097  0.4630
  479MOL0     H64665   6.030   0.092   3.607 -0.0995 -0.8622 -1.2801
  480MOL0     O64666   1.760   5.380   2.296  0.0470  0.2316  1.1178
  480MOL0     C64667   1.670   5.399   2.378 -0.0459  0.4370 -0.1569
  480MOL0     O64668   1.676   5.386   2.514 -0.3160 -0.6141 -0.3235
  480MOL0     C64669   1.788   5.356   2.569 -0.2501 -1.4087 -0.1760
  480MOL0     C64670   1.830   5.225   2.587  0.2989  0.4417 -0.3490
  480MOL0     C64671   1.933   5.187   2.666  0.4516 -0.9266  0.0497
  480MOL0     C64672   2.015   5.290   2.723  0.0413 -0.4393 -0.5334
  480MOL0     O64673   2.125   5.271   2.809 -0.2943 -0.7725  0.7298
  480MOL0     C64674   2.193   5.152   2.804 -0.3143  0.2376  0.3916
  480MOL0     C64675   2.325   5.163   2.879  0.6012  0.7194 -0.1723
  480MOL0     C64676   2.307   5.147   3.030  0.4897  0.2831 -1.2856
  480MOL0     C64677   2.439   5.169   3.092  0.1232 -0.3206  0.4224
  480MOL0     C64678   2.446   5.095   3.221  0.2070  0.1507 -0.9595
  480MOL0     C64679   2.564   5.120   3.317  0.0600 -0.9418 -0.0289
  480MOL0     C64680   2.527   5.115   3.470 -0.0373  0.8456  0.4568
  480MOL0     C64681   2.490   4.970   3.509  0.0784 -0.3229  0.9573
  480MOL0     N64682   2.609   4.881   3.486  0.2751  0.4166 -0.1630
  480MOL0     C64683   2.722   4.875   3.560  0.0186 -0.2717 -0.3389
  480MOL0     C64684   2.799   4.776   3.503  0.2076 -0.4992 -0.1415
  480MOL0     C64685   2.942   4.742   3.547  0.0729  0.2017  0.1971
  480MOL0     C64686   3.052   4.778   3.450 -0.3291 -0.2091  0.3631
  480MOL0     C64687   3.081   4.927   3.447  0.0948  0.1225 -0.3996
  480MOL0     C64688   3.174   4.959   3.563  0.1868 -0.4920 -0.0079
  480MOL0     O64689   3.306   4.912   3.526  0.3721  0.0033 -0.6687
  480MOL0     C64690   3.392   4.911   3.632 -0.4017  0.4001  0.0877
  480MOL0     C64691   3.479   4.800   3.636  0.4041  1.0213  0.5230
  480MOL0     C64692   3.556   4.778   3.748  0.7633  0.5452  0.3041
  480MOL0     C64693   3.552   4.871   3.856 -0.3921  0.3567  0.1718
  480MOL0     C64694   3.629   4.864   3.971  0.2837  0.6434  0.5124
  480MOL0     O64695   3.579   4.932   4.065  0.9735 -0.8898  0.0184
  480MOL0     C64696   3.633   4.943   4.186  1.8346  0.0445 -0.4587
  480MOL0     C64697   3.761   4.971   4.217 -0.8622  0.4145  0.4217
  480MOL0     C64698   3.804   5.001   4.352  0.3619  0.0911 -0.0763
  480MOL0     C64699   3.710   4.989   4.462  0.6182  0.0744  0.1410
  480MOL0     O64700   3.733   5.014   4.595  0.1165  0.1213  0.9515
  480MOL0     C64701   3.870   5.054   4.627 -0.0271  0.7302 -0.5326
  480MOL0     C64702   3.846   5.086   4.780 -0.1841  0.5229  0.2063
  480MOL0     C64703   3.973   5.151   4.849  0.3645 -0.2767 -0.3474
  480MOL0     C64704   4.093   5.057   4.855  0.6478 -0.1157 -0.4627
  480MOL0     C64705   4.233   5.115   4.903  0.0152 -0.2164 -0.3617
  480MOL0     C64706   4.217   5.167   5.045 -0.8906  0.5979 -0.1541
  480MOL0     C64707   4.342   5.233   5.113 -0.1275 -0.3962 -0.2089
  480MOL0     C64708   4.467   5.152   5.111  1.1716  0.1357  0.5478
  480MOL0    Cl64709   4.448   5.008   5.199 -0.0648  0.7087  0.0533
  480MOL0     C64710   3.578   4.951   4.431 -1.0309  0.7846  0.0439
  480MOL0     C64711   3.538   4.940   4.300 -0.2879 -0.8049  0.4691
  480MOL0     O64712   3.718   4.784   3.973 -0.5057 -0.0816 -0.3488
  480MOL0     C64713   3.476   4.982   3.844 -0.3296  0.1869  0.7638
  480MOL0     C64714   3.389   5.002   3.740 -1.2214 -0.3699  0.3379
  480MOL0     N64715   2.733   4.733   3.395 -0.6828  0.7925 -0.2768
  480MOL0     N64716   2.618   4.798   3.375  1.5157  0.1378 -0.3220
  480MOL0     C64717   1.968   5.416   2.704 -0.2446  0.9939 -0.5156
  480MOL0     C64718   1.858   5.451   2.629 -0.4268 -0.4765  0.1878
  480MOL0     C64719   1.549   5.470   2.330  0.0982 -0.0364  0.6126
  480MOL0     C64720   1.538   5.611   2.315  0.4010 -1.6658  0.0679
  480MOL0     C64721   1.410   5.667   2.281 -0.0112  0.2554 -1.1853
  480MOL0     C64722   1.292   5.581   2.261  0.3296  0.3187  0.9802
  480MOL0     O64723   1.170   5.622   2.216 -0.3421  0.0562  0.4792
  480MOL0     C64724   1.152   5.759   2.177 -0.2598 -0.1316  0.8818
  480MOL0     C64725   1.187   5.781   2.023  0.1961 -0.7110  0.1066
  480MOL0     C64726   1.118   5.677   1.936 -0.0153  0.0127 -0.0650
  480MOL0     C64727   1.125   5.690   1.788  0.1171 -0.9229  0.4761
  480MOL0     C64728   1.045   5.815   1.751 -0.0607  0.2912  0.3033
  480MOL0     C64729   0.990   5.913   1.706  0.1758  0.8188  0.3030
  480MOL0     C64730   1.307   5.440   2.277  0.3159 -0.8773 -0.9151
  480MOL0     C64731   1.430   5.387   2.313 -1.6184 -0.6629 -0.2923
  480MOL0     C64732   1.424   5.238   2.326  0.2036  0.9519  0.3780
  480MOL0     H64733   1.777   5.140   2.547  0.3239  0.3341 -0.1569
  480MOL0     H64734   1.949   5.080   2.671  2.1120 -0.6863  0.5010
  480MOL0     H64735   2.148   5.063   2.850  2.3331 -0.9590  0.8159
  480MOL0     H64736   2.199   5.118   2.700 -0.3393  1.1422  0.0821
  480MOL0     H64737   2.357   5.262   2.846 -0.3713  0.1573 -3.0957
  480MOL0     H64738   2.404   5.101   2.834  3.0015  2.0537  1.9423
  480MOL0     H64739   2.264   5.051   3.059 -1.1065  1.6324  1.1405
  480MOL0     H64740   2.237   5.215   3.080  0.7229 -2.0161  2.6103
  480MOL0     H64741   2.513   5.122   3.027 -1.6315 -1.4586 -0.8387
  480MOL0     H64742   2.453   5.276   3.105 -2.1917 -0.0667  1.2380
  480MOL0     H64743   2.353   5.116   3.274  0.0987  1.9318 -1.7964
  480MOL0     H64744   2.446   4.988   3.196 -3.5486 -0.2053 -0.0636
  480MOL0     H64745   2.654   5.068   3.282  0.2316  0.5096 -1.9479
  480MOL0     H64746   2.593   5.224   3.298 -0.0135 -0.3839  2.5889
  480MOL0     H64747   2.441   5.183   3.473  0.3078  1.2686  1.0542
  480MOL0     H64748   2.605   5.150   3.539  0.9511 -1.5512  0.6554
  480MOL0     H64749   2.467   4.967   3.615  0.4261 -0.5205  1.0296
  480MOL0     H64750   2.404   4.933   3.451 -0.8433  2.3685  0.4466
  480MOL0     H64751   2.738   4.937   3.647  0.3007 -0.4849 -0.2377
  480MOL0     H64752   2.950   4.802   3.639 -2.7336  1.3733 -0.2126
  480MOL0     H64753   2.949   4.634   3.564 -1.3117 -0.2312 -1.6812
  480MOL0     H64754   3.143   4.721   3.468 -0.8890 -0.2222  3.7829
  480MOL0     H64755   3.015   4.749   3.351  0.5781 -0.4248  0.0766
  480MOL0     H64756   2.989   4.984   3.455  2.5009  4.6523 -1.7331
  480MOL0     H64757   3.138   4.958   3.359  0.9797  1.5499  0.6399
  480MOL0     H64758   3.130   4.917   3.654  0.7951 -0.6104  0.2369
  480MOL0     H64759   3.175   5.068   3.574  1.4982 -0.4125 -0.6283
  480MOL0     H64760   3.487   4.729   3.554  0.5310  0.3302  1.1245
  480MOL0     H64761   3.599   4.680   3.766 -2.6346 -1.1068  0.0732
  480MOL0     H64762   3.845   4.984   4.149 -0.0729  0.7329  1.4179
  480MOL0     H64763   3.906   5.033   4.371 -1.0655  4.0487  1.9670
  480MOL0     H64764   3.942   4.972   4.623  0.5753  1.2110  0.2454
  480MOL0     H64765   3.904   5.142   4.571 -2.3085  1.8295 -0.3098
  480MOL0     H64766   3.768   5.160   4.799 -0.6268 -0.3430  1.9412
  480MOL0     H64767   3.819   4.994   4.834  2.5852 -2.5136 -3.0148
  480MOL0     H64768   4.014   5.243   4.807 -0.0570  1.3676  2.5183
  480MOL0     H64769   3.939   5.190   4.946  1.3465  1.2474 -0.5860
  480MOL0     H64770   4.129   5.026   4.756  0.6008 -0.6773 -0.3104
  480MOL0     H64771   4.066   4.969   4.915 -0.7274 -0.3588 -1.3779
  480MOL0     H64772   4.266   5.197   4.839 -4.0527  0.8439 -1.4037
  480MOL0     H64773   4.305   5.034   4.896  1.9149  1.4071 -0.5509
  480MOL0     H64774   4.137   5.242   5.043 -0.7373  0.7591 -0.2738
  480MOL0     H64775   4.188   5.073   5.093  3.7409 -0.5708  0.9090
  480MOL0     H64776   4.314   5.255   5.217  0.5557 -1.5696  0.2336
  480MOL0     H64777   4.367   5.333   5.075 -2.5140 -0.0071 -0.9060
  480MOL0     H64778   4.482   5.131   5.004 -2.0856  1.4708 -0.3157
  480MOL0     H64779   4.556   5.207   5.141 -0.4378  2.8552  0.7324
  480MOL0     H64780   3.510   4.946   4.516 -0.6724  0.1303  0.3026
  480MOL0     H64781   3.434   4.925   4.272  0.2964 -1.3888 -1.5505
  480MOL0     H64782   3.485   5.058   3.921 -0.1124  1.3805 -0.4114
  480MOL0     H64783   3.314   5.080   3.738  1.0664  1.9735  0.6659
  480MOL0     H64784   2.019   5.506   2.735 -1.4678  0.8683  2.1783
  480MOL0     H64785   1.835   5.555   2.610  0.2603 -0.2006  0.8322
  480MOL0     H64786   1.619   5.682   2.318 -0.0741 -0.8959 -2.6254
  480MOL0     H64787   1.399   5.775   2.269  1.1650  0.3839 -1.2119
  480MOL0     H64788   1.203   5.829   2.244  0.4033 -1.4919  1.8284
  480MOL0     H64789   1.046   5.785   2.183  0.1655  1.3988  2.7243
  480MOL0     H64790   1.296   5.778   2.014  0.3402  0.2181  1.2174
  480MOL0     H64791   1.157   5.879   1.983  0.6151 -1.4717 -2.2151
  480MOL0     H64792   1.014   5.682   1.969 -0.7739  2.0298 -2.4507
  480MOL0     H64793   1.161   5.581   1.966  0.6170  0.0407 -0.8524
  480MOL0     H64794   1.230   5.698   1.760 -0.4941  4.1290 -1.4224
  480MOL0     H64795   1.074   5.604   1.745 -1.5683  0.3798 -0.2714
  480MOL0     H64796   0.947   5.995   1.652  1.6838 -0.2785 -2.8551
  480MOL0     H64797   1.220   5.376   2.267  1.3387 -2.1020 -2.4727
  480MOL0     H64798   1.510   5.192   2.277 -1.0452  1.0193 -2.0431
  480MOL0     H64799   1.409   5.214   2.431  1.0629 -0.8992  0.1279
  480MOL0     H64800   1.341   5.191   2.271 -1.6527  3.1682  1.1374
  481MOL0     O64801   8.080   6.295   9.818 -0.4014 -0.6982 -0.9948
  481MOL0     C64802   8.035   6.296   9.706 -0.1223 -0.7724  0.2786
  481MOL0     O64803   7.951   6.195   9.653 -0.0672  0.6532  0.5734
  481MOL0     C64804   7.914   6.095   9.734  0.1139 -0.0960 -0.6144
  481MOL0     C64805   7.820   6.113   9.839 -0.0301 -0.1060  0.4964
  481MOL0     C64806   7.784   6.016   9.925  0.1726 -0.6205  0.4845
  481MOL0     C64807   7.824   5.885   9.912 -0.5673 -0.3834 -0.0646
  481MOL0     O64808   7.781   5.776   9.994 -0.3916 -0.0114  0.1259
  481MOL0     C64809   7.676   5.782  10.093  1.2607  0.0217  0.3233
  481MOL0     C64810   7.717   5.821  10.229 -0.4146  0.1589 -0.2165
  481MOL0     C64811   7.612   5.831  10.344 -0.4707  0.7450  0.1898
  481MOL0     C64812   7.522   5.950  10.314  0.6004  0.0248  0.2850
  481MOL0     C64813   7.427   5.960  10.431  0.3684 -0.0245  0.6546
  481MOL0     C64814   7.296   6.042  10.388  0.4100  0.0296 -0.0068
  481MOL0     C64815   7.334   6.191  10.347  0.8628 -0.2492 -0.3359
  481MOL0     C64816   7.210   6.270  10.302  0.3393  0.7154 -0.2515
  481MOL0     N64817   7.110   6.284  10.416  0.1426 -0.0112  0.9368
  481MOL0     C64818   6.981   6.286  10.391 -0.1872 -1.1361 -0.6085
  481MOL0     C64819   6.917   6.282  10.511  0.2264 -0.2018 -0.0609
  481MOL0     C64820   6.770   6.294  10.536 -0.4031  0.7202  0.9413
  481MOL0     C64821   6.699   6.401  10.459  0.8313 -0.3226  0.2923
  481MOL0     C64822   6.760   6.539  10.495 -1.0103  0.2042 -0.0775
  481MOL0     C64823   6.683   6.650  10.422  0.8426 -0.5980 -0.1640
  481MOL0     O64824   6.553   6.667  10.486 -0.9397  0.7634  0.2369
  481MOL0     C64825   6.476   6.776  10.473 -0.2732  0.5120  0.2992
  481MOL0     C64826   6.380   6.796  10.575  0.1213 -0.2860  0.4528
  481MOL0     C64827   6.294   6.911  10.573  0.8796 -0.1612 -0.4892
  481MOL0     C64828   6.309   7.012  10.479  0.1182 -0.5280  0.6297
  481MOL0     C64829   6.225   7.138  10.488  0.3822 -0.4981 -0.5311
  481MOL0     O64830   6.221   7.213  10.377 -0.0498 -0.5619  0.0428
  481MOL0     C64831   6.117   7.294  10.365 -1.1649  0.8980  0.0024
  481MOL0     C64832   5.997   7.230  10.332 -1.0779 -0.5692 -0.0190
  481MOL0     C64833   5.887   7.319  10.319 -0.3607 -0.0994  1.2421
  481MOL0     C64834   5.901   7.460  10.342  0.4179  1.4170 -0.4709
  481MOL0     O64835   5.798   7.544  10.317 -0.2424  0.2746  0.4644
  481MOL0     C64836   5.671   7.523  10.383  0.2706  0.3003  0.3464
  481MOL0     C64837   5.669   7.584  10.515 -0.4304  0.3381  0.3324
  481MOL0     C64838   5.535   7.591  10.593 -0.5792  0.6140  0.5285
  481MOL0     C64839   5.567   7.655  10.725  0.7018 -0.9788 -0.2862
  481MOL0     C64840   5.457   7.680  10.827  0.5163  0.3409 -0.3825
  481MOL0     C64841   5.381   7.547  10.868 -0.0322  0.6519 -0.2355
  481MOL0     C64842   5.297   7.569  10.993  0.6019 -0.5233 -0.6501
  481MOL0     C64843   5.206   7.450  11.009 -0.1058 -0.6306  0.4866
  481MOL0    Cl64844   5.276   7.342  11.117  0.4555 -0.0920  0.4372
  481MOL0     C64845   6.021   7.509  10.366 -0.9762 -0.7767  0.0561
  481MOL0     C64846   6.135   7.429  10.366  1.1974  0.5539 -0.1501
  481MOL0     O64847   6.177   7.166  10.594 -0.7666 -0.1718 -0.0482
  481MOL0     C64848   6.412   6.993  10.383 -0.0257 -0.8513  0.8573
  481MOL0     C64849   6.501   6.881  10.378 -0.8748 -0.6430  0.0476
  481MOL0     N64850   7.013   6.295  10.603  0.2690  0.9981 -0.3061
  481MOL0     N64851   7.133   6.287  10.548  0.5163 -0.5675 -1.1699
  481MOL0     C64852   7.901   5.852   9.792 -0.3272 -0.8555 -0.0173
  481MOL0     C64853   7.946   5.961   9.717 -0.3991  0.0675  0.0965
  481MOL0     C64854   8.099   6.401   9.624  0.5084 -0.6483 -0.0597
  481MOL0     C64855   8.098   6.374   9.488 -0.2791 -0.0352 -0.1075
  481MOL0     C64856   8.176   6.439   9.394  0.9876  0.3642  0.7412
  481MOL0     C64857   8.250   6.552   9.426  0.4544  0.3503 -0.1506
  481MOL0     O64858   8.317   6.613   9.328  0.4958  0.9060  0.3391
  481MOL0     C64859   8.277   6.744   9.284  0.5020 -0.2421  1.0883
  481MOL0     C64860   8.391   6.819   9.213  0.0229 -0.3114 -0.9539
  481MOL0     C64861   8.419   6.776   9.067 -0.0336 -0.1158  0.1730
  481MOL0     C64862   8.538   6.839   9.013  1.1300 -0.3079 -0.0427
  481MOL0     C64863   8.564   6.773   8.880 -0.8281  0.1541 -0.4933
  481MOL0     C64864   8.590   6.720   8.771 -0.6133 -0.0516 -0.1668
  481MOL0     C64865   8.233   6.598   9.560 -0.2363  0.0196  0.6817
  481MOL0     C64866   8.158   6.529   9.658 -0.2446 -0.2389  0.1134
  481MOL0     C64867   8.173   6.588   9.793  0.4693  0.4785 -0.2628
  481MOL0     H64868   7.767   6.207   9.850  0.1137  0.2691 -1.6602
  481MOL0     H64869   7.717   6.047  10.005  0.7733 -1.3728  1.3128
  481MOL0     H64870   7.585   5.832  10.059  0.6356  0.5195  2.5536
  481MOL0     H64871   7.643   5.677  10.089 -0.5658  0.5955 -1.0440
  481MOL0     H64872   7.777   5.913  10.230 -0.7262  0.3697 -0.4796
  481MOL0     H64873   7.778   5.735  10.258 -2.5421 -1.9809 -1.7963
  481MOL0     H64874   7.669   5.833  10.437 -0.7537  0.9583  0.3600
  481MOL0     H64875   7.548   5.742  10.347  0.1203  0.0456 -3.3086
  481MOL0     H64876   7.581   6.041  10.300  0.9349 -0.2972 -0.4692
  481MOL0     H64877   7.466   5.929  10.223  3.5372 -1.7074 -1.2935
  481MOL0     H64878   7.400   5.857  10.458 -0.0290 -1.5306 -4.4619
  481MOL0     H64879   7.477   6.003  10.518  0.2234 -4.8577  3.4845
  481MOL0     H64880   7.228   5.992  10.319  3.1118 -0.3075 -2.5988
  481MOL0     H64881   7.240   6.056  10.481  0.9806  0.8595  0.2223
  481MOL0     H64882   7.402   6.173  10.262 -0.1900 -2.9808 -0.6956
  481MOL0     H64883   7.395   6.245  10.420 -0.6508  0.9056  0.1346
  481MOL0     H64884   7.243   6.368  10.266 -3.2647  1.4286 -2.0594
  481MOL0     H64885   7.172   6.220  10.212 -0.6476 -1.9471  1.5326
  481MOL0     H64886   6.930   6.297  10.296 -0.3287 -1.7166 -0.6011
  481MOL0     H64887   6.723   6.199  10.509 -1.1328  0.9530  1.3870
  481MOL0     H64888   6.751   6.324  10.640  3.0452 -1.2929  2.3347
  481MOL0     H64889   6.721   6.381  10.354  4.1434  0.8160  0.6536
  481MOL0     H64890   6.592   6.409  10.477  0.0863  1.4154 -3.8756
  481MOL0     H64891   6.864   6.528  10.465 -0.0100  1.2745  2.7096
  481MOL0     H64892   6.745   6.552  10.603 -1.0880  3.0178 -0.3435
  481MOL0     H64893   6.680   6.631  10.314 -1.5078  0.6049 -0.3737
  481MOL0     H64894   6.737   6.742  10.444 -0.3847 -0.5722  3.2287
  481MOL0     H64895   6.385   6.734  10.664  2.0635  0.5098  0.9521
  481MOL0     H64896   6.222   6.924  10.652  1.0777  2.3723 -0.6348
  481MOL0     H64897   5.993   7.122  10.319  0.2286 -0.5630 -0.5849
  481MOL0     H64898   5.797   7.266  10.289 -0.2483  0.8996 -0.9866
  481MOL0     H64899   5.601   7.585  10.326 -0.4205 -0.9638 -0.2114
  481MOL0     H64900   5.636   7.420  10.394  2.9585 -0.4929  2.7833
  481MOL0     H64901   5.744   7.534  10.576 -0.6764 -1.7961 -1.0330
  481MOL0     H64902   5.703   7.687  10.496  1.4472 -0.6214 -1.9169
  481MOL0     H64903   5.484   7.668  10.534 -0.2300  0.8868  0.5798
  481MOL0     H64904   5.489   7.493  10.607  0.5720 -0.4864 -2.3858
  481MOL0     H64905   5.615   7.752  10.712  1.4058 -1.3082 -0.2076
  481MOL0     H64906   5.639   7.594  10.781  2.2960  0.9739 -0.0862
  481MOL0     H64907   5.385   7.757  10.798  0.7189 -0.0172 -1.9569
  481MOL0     H64908   5.517   7.716  10.911  2.4764 -0.8178 -1.1980
  481MOL0     H64909   5.310   7.524  10.787 -0.7018 -1.4227  0.8674
  481MOL0     H64910   5.455   7.469  10.888  2.4634  2.3849 -2.1730
  481MOL0     H64911   5.236   7.659  10.980 -2.2937 -2.6351 -2.7875
  481MOL0     H64912   5.362   7.583  11.081 -1.6093  1.1072  0.8243
  481MOL0     H64913   5.111   7.489  11.046 -0.5351 -2.1424  1.0529
  481MOL0     H64914   5.178   7.412  10.910  0.7235  1.5824 -0.6748
  481MOL0     H64915   6.033   7.616  10.380  2.1578 -1.3215  2.7672
  481MOL0     H64916   6.234   7.470  10.383  0.9846  0.4196  1.5880
  481MOL0     H64917   6.420   7.073  10.311 -2.4065  0.1567  1.6035
  481MOL0     H64918   6.588   6.881  10.314 -1.2817 -4.2904 -0.6904
  481MOL0     H64919   7.920   5.748   9.766 -0.1832 -1.5219  2.5692
  481MOL0     H64920   7.993   5.930   9.624 -0.6616  1.2998 -0.4658
  481MOL0     H64921   8.064   6.277   9.455  0.2780 -1.1083  2.2292
  481MOL0     H64922   8.180   6.405   9.291 -1.2253 -2.0150  1.3372
  481MOL0     H64923   8.238   6.808   9.363 -0.7265 -0.1268  0.4115
  481MOL0     H64924   8.195   6.739   9.211  0.9125 -1.6646  0.6764
  481MOL0     H64925   8.484   6.821   9.270  0.7010 -4.6864 -1.5020
  481MOL0     H64926   8.365   6.924   9.201  1.2649 -0.0597 -1.7098
  481MOL0     H64927   8.336   6.802   9.000 -0.2451 -2.9900 -0.8099
  481MOL0     H64928   8.418   6.667   9.057 -0.2736 -0.0508 -0.5773
  481MOL0     H64929   8.512   6.945   9.006 -0.1089 -0.4099  2.1235
  481MOL0     H64930   8.628   6.820   9.072  0.9581  1.3393  0.8036
  481MOL0     H64931   8.594   6.693   8.667 -2.4214 -0.2058 -0.2352
  481MOL0     H64932   8.295   6.684   9.585  3.4183 -0.6317 -4.4358
  481MOL0     H64933   8.079   6.574   9.847  0.3000 -0.8148 -0.8530
  481MOL0     H64934   8.250   6.525   9.838 -0.5211 -1.4890 -1.1882
  481MOL0     H64935   8.209   6.691   9.793  1.7730  0.1394 -3.3240
  482MOL0     O64936   6.827   1.728  10.061  0.0355 -0.5901 -0.1765
  482MOL0     C64937   6.796   1.682   9.955 -0.1605  0.0237 -0.1463
  482MOL0     O64938   6.849   1.567   9.904 -0.0286  0.6374 -0.2914
  482MOL0     C64939   6.976   1.520   9.952  0.4900  0.0340 -0.3123
  482MOL0     C64940   7.077   1.608  10.019  0.1531 -0.1607 -0.0682
  482MOL0     C64941   7.194   1.555  10.076  0.5720 -0.4699  0.7382
  482MOL0     C64942   7.210   1.417  10.063  0.6946 -0.2685 -0.0212
  482MOL0     O64943   7.321   1.363  10.112  0.2539 -0.0087  0.0226
  482MOL0     C64944   7.310   1.223  10.155  0.1936 -0.2802  0.3251
  482MOL0     C64945   7.435   1.184  10.229  0.2125 -0.0948  0.6782
  482MOL0     C64946   7.572   1.172  10.149  0.1759  1.2868  0.6170
  482MOL0     C64947   7.673   1.088  10.235  0.3249  0.7217 -0.1755
  482MOL0     C64948   7.698   1.169  10.365 -0.9656 -0.5214 -0.4569
  482MOL0     C64949   7.833   1.131  10.432 -0.3004  0.0391  0.2541
  482MOL0     C64950   7.837   0.988  10.491  0.8117 -0.3988 -0.2945
  482MOL0     C64951   7.958   0.960  10.573 -0.7780  0.2554 -0.0226
  482MOL0     N64952   8.094   0.988  10.518 -0.9712 -0.5447  0.2519
  482MOL0     C64953   8.179   0.892  10.464  0.0904  0.5600 -0.3321
  482MOL0     C64954   8.284   0.963  10.418  0.4793 -0.9437 -0.2313
  482MOL0     C64955   8.403   0.896  10.369 -0.5694  0.5075 -0.1142
  482MOL0     C64956   8.538   0.969  10.361 -0.2559 -0.1841 -0.0899
  482MOL0     C64957   8.549   1.089  10.271 -0.4242  0.1464 -0.0505
  482MOL0     C64958   8.483   1.080  10.135  0.0158  0.5340 -0.5128
  482MOL0     O64959   8.534   0.980  10.057  0.2245  1.3196 -0.3000
  482MOL0     C64960   8.466   0.932   9.944 -0.1835 -0.3928 -1.0641
  482MOL0     C64961   8.524   0.817   9.893  0.3779  0.5247  0.2531
  482MOL0     C64962   8.475   0.749   9.776  0.6247  0.1329 -0.2066
  482MOL0     C64963   8.354   0.802   9.719 -0.0729  0.9202 -0.1823
  482MOL0     C64964   8.294   0.725   9.608  1.1189  0.2345  0.3300
  482MOL0     O64965   8.365   0.619   9.556 -0.0054 -0.2566  0.1404
  482MOL0     C64966   8.298   0.543   9.460  0.3941  0.8299 -0.2777
  482MOL0     C64967   8.359   0.541   9.341  0.3045  0.6281  0.5677
  482MOL0     C64968   8.301   0.471   9.236  0.4725 -1.0999  1.1115
  482MOL0     C64969   8.185   0.402   9.255  0.1551  0.8041  0.1903
  482MOL0     O64970   8.122   0.335   9.154  0.3036 -0.2942  0.0957
  482MOL0     C64971   8.150   0.195   9.145  0.9933 -0.4839 -0.4541
  482MOL0     C64972   8.066   0.133   9.038  0.6059  0.1601 -0.0668
  482MOL0     C64973   7.997  -0.006   9.062  1.2763  0.5182 -0.5221
  482MOL0     C64974   7.957  -0.076   8.936  0.6150 -0.0862 -0.3223
  482MOL0     C64975   7.917  -0.213   8.978  0.2375  0.1973  0.2141
  482MOL0     C64976   7.845  -0.273   8.858 -0.3914  0.0544 -0.0217
  482MOL0     C64977   7.855  -0.425   8.860  0.4573  0.7466  0.3587
  482MOL0     C64978   7.952  -0.486   8.752 -0.1660 -0.6087 -0.1724
  482MOL0    Cl64979   8.117  -0.438   8.774 -0.0194 -0.0480 -0.3806
  482MOL0     C64980   8.124   0.395   9.382  0.2140 -1.4433 -0.5074
  482MOL0     C64981   8.191   0.462   9.490 -0.8524  0.6857  0.6438
  482MOL0     O64982   8.187   0.762   9.561 -0.4234 -0.1234 -0.2806
  482MOL0     C64983   8.292   0.918   9.774 -0.2746  0.3371  1.0714
  482MOL0     C64984   8.345   0.978   9.887  0.3038 -0.5594 -0.9251
  482MOL0     N64985   8.258   1.101  10.440  0.0964  0.3462 -0.2031
  482MOL0     N64986   8.147   1.117  10.491 -0.2222  0.5672  0.4938
  482MOL0     C64987   7.114   1.335   9.984 -1.0802  0.0544 -0.4827
  482MOL0     C64988   6.998   1.389   9.935 -0.8128 -0.1266 -0.3704
  482MOL0     C64989   6.691   1.749   9.880  0.0690  0.0135  0.7304
  482MOL0     C64990   6.625   1.685   9.776  0.5868  0.5389  0.3247
  482MOL0     C64991   6.518   1.747   9.705  0.7585 -0.4211 -0.9881
  482MOL0     C64992   6.463   1.872   9.754 -0.2697  0.7225  0.1449
  482MOL0     O64993   6.350   1.902   9.691  0.7135 -0.0402  0.4261
  482MOL0     C64994   6.267   1.999   9.747 -0.0432  0.5200  0.6775
  482MOL0     C64995   6.183   2.045   9.636 -0.1532 -0.2233 -0.1540
  482MOL0     C64996   6.048   1.987   9.639  0.6866  0.2679  0.2489
  482MOL0     C64997   5.979   2.006   9.503 -0.8730 -0.1899 -0.1652
  482MOL0     C64998   5.845   1.955   9.500  0.0394  0.5553  0.1820
  482MOL0     C64999   5.735   1.911   9.477  0.5678 -0.0563 -0.8658
  482MOL0     C65000   6.522   1.941   9.858 -0.2248 -0.7748 -0.1458
  482MOL0     C65001   6.634   1.881   9.920 -0.0197  0.1676 -0.0061
  482MOL0     C65002   6.690   1.963  10.026  0.8032 -0.2410  0.4096
  482MOL0     H65003   7.069   1.716  10.018  0.1847 -0.0841 -3.0123
  482MOL0     H65004   7.269   1.614  10.127 -0.3361 -0.0872  1.6715
  482MOL0     H65005   7.218   1.200  10.209 -0.8975  1.2883 -0.8021
  482MOL0     H65006   7.322   1.154  10.070 -0.1722 -0.3177  0.3024
  482MOL0     H65007   7.411   1.092  10.284 -0.5657 -0.1750  0.2167
  482MOL0     H65008   7.443   1.267  10.300 -2.5568  0.3559  0.5635
  482MOL0     H65009   7.610   1.272  10.129  0.6899  1.0727  0.5023
  482MOL0     H65010   7.555   1.116  10.057 -0.5405  0.1836  1.3908
  482MOL0     H65011   7.627   0.989  10.241  5.0990 -1.7393  0.5715
  482MOL0     H65012   7.767   1.072  10.182  0.4234  1.1534 -0.1356
  482MOL0     H65013   7.705   1.277  10.354 -0.8868  0.0728  3.6296
  482MOL0     H65014   7.620   1.157  10.441  0.2764 -4.6804  0.4431
  482MOL0     H65015   7.917   1.141  10.362 -0.1423 -2.2142  0.0588
  482MOL0     H65016   7.857   1.208  10.506 -0.9476  2.2318 -1.7071
  482MOL0     H65017   7.813   0.913  10.415 -1.7045 -0.9761  0.9746
  482MOL0     H65018   7.752   0.979  10.559  0.8243  4.7671  0.7945
  482MOL0     H65019   7.946   0.997  10.675  0.5088 -1.1330  0.6836
  482MOL0     H65020   7.961   0.852  10.587  1.1693  0.4481  1.4353
  482MOL0     H65021   8.177   0.784  10.461  1.2235  0.5467 -1.9099
  482MOL0     H65022   8.432   0.810  10.431  0.7900  1.1290  0.1348
  482MOL0     H65023   8.378   0.856  10.270 -0.8271  2.9966 -1.1240
  482MOL0     H65024   8.535   1.012  10.461 -1.7583 -2.1622  0.7722
  482MOL0     H65025   8.625   0.903  10.348  1.0246  1.1447  1.3527
  482MOL0     H65026   8.656   1.108  10.259 -0.5586  1.1451  0.2364
  482MOL0     H65027   8.500   1.177  10.314 -1.8316 -0.7846  0.3027
  482MOL0     H65028   8.487   1.179  10.089 -1.2758  0.6150 -0.4865
  482MOL0     H65029   8.377   1.062  10.155  0.5828 -0.3094  2.2128
  482MOL0     H65030   8.610   0.774   9.942  2.0329 -1.8400 -4.1144
  482MOL0     H65031   8.542   0.665   9.762  2.1329  0.3648  4.1390
  482MOL0     H65032   8.443   0.608   9.330  2.3463 -1.2147  3.5552
  482MOL0     H65033   8.346   0.466   9.137 -2.5667 -1.3596 -0.3632
  482MOL0     H65034   8.257   0.175   9.131  0.5399 -2.1213 -2.0047
  482MOL0     H65035   8.125   0.152   9.242 -3.0150  0.1350 -1.0571
  482MOL0     H65036   7.981   0.200   9.022  0.5755  0.0896 -0.2002
  482MOL0     H65037   8.119   0.138   8.943 -1.0314  1.3843 -0.9824
  482MOL0     H65038   8.084  -0.060   9.101  0.1616 -1.2013 -0.2909
  482MOL0     H65039   7.909  -0.010   9.127  1.7757 -1.2072  0.1044
  482MOL0     H65040   8.041  -0.080   8.866  3.0300  1.8897  2.2580
  482MOL0     H65041   7.868  -0.030   8.892  1.6494  0.0600 -2.3728
  482MOL0     H65042   7.861  -0.225   9.071 -0.6771 -2.7852 -0.6050
  482MOL0     H65043   8.015  -0.260   8.993  1.2520  1.5267 -1.8532
  482MOL0     H65044   7.737  -0.262   8.877 -0.3033 -0.6678  0.9650
  482MOL0     H65045   7.873  -0.236   8.759  1.6903  1.8392  1.1390
  482MOL0     H65046   7.760  -0.479   8.860  1.8896 -2.0142  2.2282
  482MOL0     H65047   7.883  -0.467   8.957  0.1139  0.6326  0.4134
  482MOL0     H65048   7.954  -0.594   8.773  0.8927 -0.5985 -0.1865
  482MOL0     H65049   7.924  -0.465   8.649  0.0503  1.2731  0.1239
  482MOL0     H65050   8.036   0.332   9.389  1.9466 -4.1849 -1.3171
  482MOL0     H65051   8.162   0.475   9.594  2.7642 -1.0404  2.0234
  482MOL0     H65052   8.191   0.934   9.739  0.7235  1.1867 -1.7102
  482MOL0     H65053   8.297   1.051   9.951  1.6393 -2.5783  2.6377
  482MOL0     H65054   7.147   1.237   9.950 -1.5741 -0.3165  0.0798
  482MOL0     H65055   6.929   1.322   9.884  1.7856 -3.0339 -0.3289
  482MOL0     H65056   6.658   1.587   9.742 -2.7313 -0.4447 -0.3937
  482MOL0     H65057   6.474   1.693   9.622  1.4315 -1.2741 -0.8035
  482MOL0     H65058   6.329   2.084   9.779  2.6000 -0.2731 -1.9261
  482MOL0     H65059   6.211   1.946   9.825 -0.3229 -0.7036 -0.3182
  482MOL0     H65060   6.226   2.015   9.540 -0.5166 -1.7069  0.1240
  482MOL0     H65061   6.178   2.155   9.632  1.2631 -0.0594  1.2346
  482MOL0     H65062   5.986   2.033   9.716 -1.0370 -0.3202 -0.7210
  482MOL0     H65063   6.052   1.881   9.666  0.9524  0.4642  0.9978
  482MOL0     H65064   5.988   2.113   9.482  1.8429  0.3828  2.9586
  482MOL0     H65065   6.039   1.967   9.420  1.7725  2.3876  0.3851
  482MOL0     H65066   5.632   1.898   9.449  0.0260  1.0319  0.4981
  482MOL0     H65067   6.482   2.033   9.900  0.7822  0.5229 -1.9376
  482MOL0     H65068   6.798   1.955  10.015  0.9018 -1.0814  1.7296
  482MOL0     H65069   6.671   2.070  10.010 -3.5511 -0.2909  3.5128
  482MOL0     H65070   6.660   1.932  10.126  0.9665 -0.5439  0.3650
  483MOL0     O65071   5.653   9.945  11.326  1.0661  0.1333 -0.1075
  483MOL0     C65072   5.588   9.847  11.344  0.8063  0.3696  0.3439
  483MOL0     O65073   5.609   9.721  11.288  0.2360 -0.2879  0.6766
  483MOL0     C65074   5.726   9.698  11.218  0.7350  0.1620  0.1282
  483MOL0     C65075   5.714   9.641  11.090 -0.0592  0.7362 -1.2999
  483MOL0     C65076   5.834   9.599  11.025  0.6616 -1.3608  0.5578
  483MOL0     C65077   5.961   9.613  11.088 -1.4123 -1.1944  0.4049
  483MOL0     O65078   6.072   9.582  11.008  0.1662 -0.5803 -0.1312
  483MOL0     C65079   6.206   9.624  11.044  1.0453 -0.2326 -0.5635
  483MOL0     C65080   6.288   9.536  10.953 -0.8531 -0.4362 -0.4755
  483MOL0     C65081   6.435   9.543  10.996  0.3725  0.4188  0.2796
  483MOL0     C65082   6.506   9.423  10.940  0.2297  0.1841 -0.1416
  483MOL0     C65083   6.641   9.388  10.993  0.0306  0.1599 -0.0084
  483MOL0     C65084   6.736   9.499  10.946  0.2366  0.3502  0.6808
  483MOL0     C65085   6.754   9.518  10.789  0.0077 -0.9864 -0.8364
  483MOL0     C65086   6.858   9.616  10.770  0.8322  0.6817 -0.0057
  483MOL0     N65087   6.924   9.578  10.650 -0.0139 -0.0781  0.1879
  483MOL0     C65088   7.008   9.472  10.641 -0.0157 -1.4445  0.0360
  483MOL0     C65089   7.039   9.464  10.514 -0.7616 -0.4866  0.1010
  483MOL0     C65090   7.149   9.385  10.452 -0.2122 -0.1222  0.4419
  483MOL0     C65091   7.116   9.338  10.305  0.6329  0.6960  1.2901
  483MOL0     C65092   7.241   9.284  10.224  0.3479 -0.2968 -0.7722
  483MOL0     C65093   7.380   9.348  10.264  0.1520  0.3276 -0.4778
  483MOL0     O65094   7.475   9.325  10.158 -0.1641 -0.2646 -0.2416
  483MOL0     C65095   7.578   9.244  10.198 -0.3684  0.8224  0.2576
  483MOL0     C65096   7.582   9.110  10.145  1.1354  0.5526 -0.3311
  483MOL0     C65097   7.686   9.024  10.177 -0.2394 -0.3022  0.2671
  483MOL0     C65098   7.786   9.069  10.262  0.3765 -0.3880 -0.6434
  483MOL0     C65099   7.897   8.979  10.282 -0.1681  0.4628  0.3966
  483MOL0     O65100   7.970   8.998  10.401  0.2373 -0.1344  0.2967
  483MOL0     C65101   8.062   8.912  10.452  0.3074 -0.4040  0.0484
  483MOL0     C65102   8.020   8.817  10.539  0.0933  0.0612 -0.7938
  483MOL0     C65103   8.112   8.718  10.591  1.0951 -0.6149  0.5610
  483MOL0     C65104   8.236   8.701  10.545 -0.0820 -1.1378  0.7466
  483MOL0     O65105   8.313   8.601  10.589 -0.2994 -0.0273  0.2047
  483MOL0     C65106   8.374   8.524  10.477 -0.1699 -0.8166 -0.0178
  483MOL0     C65107   8.437   8.400  10.536 -0.1025 -0.0399  0.0984
  483MOL0     C65108   8.566   8.435  10.611 -1.0514  0.3057  0.1998
  483MOL0     C65109   8.599   8.328  10.720 -0.6444  0.5625 -0.2753
  483MOL0     C65110   8.500   8.343  10.832  1.4753 -1.1690 -0.6139
  483MOL0     C65111   8.507   8.238  10.946 -0.4543 -0.5743  0.7414
  483MOL0     C65112   8.417   8.276  11.059  0.8847 -0.4187  0.8016
  483MOL0     C65113   8.424   8.187  11.187 -0.2379  0.4741  0.4335
  483MOL0    Cl65114   8.346   8.041  11.150 -0.3986  0.3296  0.0116
  483MOL0     C65115   8.278   8.800  10.447 -0.7535  0.3028 -0.1348
  483MOL0     C65116   8.191   8.902  10.403 -0.0455 -0.3888  0.0831
  483MOL0     O65117   7.918   8.892  10.200 -0.2779 -0.2613 -0.3841
  483MOL0     C65118   7.789   9.199  10.321  1.3492 -0.8320 -0.2537
  483MOL0     C65119   7.680   9.281  10.285 -0.4844 -0.2588 -0.0268
  483MOL0     N65120   6.974   9.571  10.446  0.6825 -0.2398 -0.5586
  483MOL0     N65121   6.904   9.641  10.535 -0.6562 -0.4667  0.0713
  483MOL0     C65122   5.962   9.669  11.222  0.4519  0.4076 -1.3193
  483MOL0     C65123   5.851   9.704  11.286  0.0135 -0.4440 -0.8104
  483MOL0     C65124   5.483   9.862  11.451  0.2042  0.1994 -0.0701
  483MOL0     C65125   5.364   9.771  11.439 -1.1763 -0.3850 -0.5841
  483MOL0     C65126   5.264   9.766  11.532 -0.6015  0.1167  0.7480
  483MOL0     C65127   5.265   9.862  11.632  0.3625  0.3809 -0.4276
  483MOL0     O65128   5.154   9.858  11.717  0.9156  0.1263  0.2964
  483MOL0     C65129   5.116   9.965  11.810 -0.3682  0.2994 -0.5287
  483MOL0     C65130   4.972   9.933  11.859 -1.0289 -0.0533  0.2596
  483MOL0     C65131   4.937  10.051  11.954  0.3113 -0.4023  0.3705
  483MOL0     C65132   4.791  10.042  11.995 -0.5652 -0.0052 -0.8572
  483MOL0     C65133   4.766  10.141  12.105  1.0728  0.1687  0.8593
  483MOL0     C65134   4.739  10.246  12.163  0.5949  1.2441  0.1606
  483MOL0     C65135   5.365   9.959  11.641  0.0117 -0.0298 -0.0874
  483MOL0     C65136   5.475   9.958  11.555 -0.2190  0.3069  0.8320
  483MOL0     C65137   5.588  10.065  11.564 -0.3078 -0.2201  0.5816
  483MOL0     H65138   5.611   9.638  11.056 -0.3204  0.8562 -0.5211
  483MOL0     H65139   5.824   9.548  10.930 -3.9625  0.4141 -0.1523
  483MOL0     H65140   6.217   9.731  11.028  0.9561 -0.0050  0.8330
  483MOL0     H65141   6.223   9.586  11.145  0.2548 -1.0036 -0.7033
  483MOL0     H65142   6.272   9.549  10.846 -0.7940  0.5657 -0.3670
  483MOL0     H65143   6.255   9.432  10.949  1.2814 -1.3640  2.3476
  483MOL0     H65144   6.430   9.540  11.105  1.7212  2.5828  0.4703
  483MOL0     H65145   6.481   9.639  10.971  1.1952  0.2434  1.0574
  483MOL0     H65146   6.444   9.333  10.951 -2.0852  1.8075  0.9260
  483MOL0     H65147   6.524   9.427  10.832 -0.6590 -2.0560 -0.4474
  483MOL0     H65148   6.634   9.374  11.101  2.0962 -3.3121 -0.1617
  483MOL0     H65149   6.684   9.294  10.957  3.4776  0.6874  2.2422
  483MOL0     H65150   6.694   9.594  10.979 -0.9993  0.7361 -1.8381
  483MOL0     H65151   6.828   9.496  11.006  0.5161  1.4065  0.3228
  483MOL0     H65152   6.669   9.564  10.738 -0.0384 -0.1161 -0.0159
  483MOL0     H65153   6.771   9.420  10.745  0.2458 -3.4305  3.9789
  483MOL0     H65154   6.809   9.713  10.750  0.9771  0.9532  0.9305
  483MOL0     H65155   6.929   9.632  10.851  0.2410 -0.3475  0.7278
  483MOL0     H65156   7.046   9.414  10.725  0.6505 -0.0048  0.7730
  483MOL0     H65157   7.238   9.448  10.448  0.2168 -0.7025 -4.0672
  483MOL0     H65158   7.173   9.297  10.512  0.9590  0.1552  0.3936
  483MOL0     H65159   7.042   9.259  10.291  2.2767 -0.3808 -2.6018
  483MOL0     H65160   7.076   9.423  10.250  2.3087  0.8098  0.1894
  483MOL0     H65161   7.226   9.285  10.116  1.8895 -2.8234 -1.1016
  483MOL0     H65162   7.249   9.178  10.252  0.0214 -0.0325  0.4100
  483MOL0     H65163   7.413   9.314  10.363 -0.4585  2.2481  0.4293
  483MOL0     H65164   7.357   9.454  10.274 -1.9580 -0.2508  1.7429
  483MOL0     H65165   7.505   9.061  10.087  2.4901 -3.4592  0.9425
  483MOL0     H65166   7.685   8.922  10.139 -0.6686 -0.5812  1.0073
  483MOL0     H65167   7.923   8.837  10.583 -0.2746 -1.7046 -0.7487
  483MOL0     H65168   8.083   8.660  10.678 -1.5346  0.3925  0.4654
  483MOL0     H65169   8.288   8.493  10.416 -1.0506 -3.0806  2.1992
  483MOL0     H65170   8.443   8.570  10.405  2.4095 -0.9257  2.2597
  483MOL0     H65171   8.357   8.344  10.585 -0.1472  0.6134  0.7730
  483MOL0     H65172   8.465   8.332  10.455 -0.2833 -1.0914  0.8972
  483MOL0     H65173   8.644   8.435  10.534  0.6925 -0.8670  1.8281
  483MOL0     H65174   8.555   8.531  10.661  0.2427 -0.1877  1.5084
  483MOL0     H65175   8.702   8.344  10.751 -0.5871  1.1693 -0.7715
  483MOL0     H65176   8.602   8.225  10.684 -1.3634  0.7932 -1.0269
  483MOL0     H65177   8.394   8.332  10.808  0.3218 -0.9527  3.5402
  483MOL0     H65178   8.511   8.444  10.872 -1.0947 -1.0243 -0.0797
  483MOL0     H65179   8.469   8.143  10.910 -1.3297  0.2431 -0.5609
  483MOL0     H65180   8.607   8.236  10.992  0.3712 -2.3259 -0.9904
  483MOL0     H65181   8.316   8.289  11.019  1.7593 -2.0843 -2.3287
  483MOL0     H65182   8.454   8.375  11.085 -0.6309  0.6255 -0.7825
  483MOL0     H65183   8.522   8.149  11.219 -1.1283  0.1218  2.9670
  483MOL0     H65184   8.366   8.237  11.265 -0.1112  3.9035 -1.4876
  483MOL0     H65185   8.375   8.777  10.406  0.2891 -0.7680  2.7191
  483MOL0     H65186   8.208   8.974  10.323  1.4831 -0.4032  0.3756
  483MOL0     H65187   7.867   9.247  10.379 -1.3327  2.4113  1.0126
  483MOL0     H65188   7.672   9.383  10.324  0.4093 -0.1329 -0.1583
  483MOL0     H65189   6.047   9.687  11.287 -2.0331  2.3837  1.6890
  483MOL0     H65190   5.851   9.720  11.394 -2.0207 -0.5076 -0.7593
  483MOL0     H65191   5.375   9.701  11.357  0.8361  1.0071 -1.6021
  483MOL0     H65192   5.188   9.688  11.531 -0.4980 -0.0039 -0.5581
  483MOL0     H65193   5.135  10.057  11.755  0.9955 -0.5799 -1.5950
  483MOL0     H65194   5.184   9.963  11.896 -2.2303 -1.6666  1.0239
  483MOL0     H65195   4.964   9.836  11.909 -1.0300 -0.1156  0.1370
  483MOL0     H65196   4.908   9.922  11.771  2.2245 -2.6626 -2.0288
  483MOL0     H65197   4.959  10.147  11.906 -1.1703 -0.4347 -0.4487
  483MOL0     H65198   5.008  10.031  12.035 -1.7847  0.7623  2.6619
  483MOL0     H65199   4.726  10.070  11.911  1.9552 -0.5003 -3.1105
  483MOL0     H65200   4.764   9.937  12.008  2.1795 -0.8115 -1.1276
  483MOL0     H65201   4.721  10.334  12.220 -0.3136  0.3331  1.3201
  483MOL0     H65202   5.360  10.032  11.721  2.4505  0.7678 -0.5800
  483MOL0     H65203   5.570  10.130  11.650 -4.2408  0.7321 -0.7707
  483MOL0     H65204   5.683  10.012  11.573 -0.2857 -0.2112  0.4076
  483MOL0     H65205   5.601  10.137  11.482  1.2365  0.5328  1.4455
  484MOL0     O65206   7.978   2.003   4.809  0.1449 -0.1337 -1.4808
  484MOL0     C65207   8.027   2.113   4.794  0.5665  1.4784 -0.2918
  484MOL0     O65208   8.057   2.194   4.901  0.4013  0.3130 -0.9565
  484MOL0     C65209   7.967   2.216   5.001  0.2110 -0.6210 -0.8169
  484MOL0     C65210   7.831   2.204   4.984  0.1556  0.6843  0.9101
  484MOL0     C65211   7.734   2.258   5.078 -0.7818  0.4316 -0.3490
  484MOL0     C65212   7.784   2.315   5.196 -0.6497 -1.1256  0.0019
  484MOL0     O65213   7.715   2.358   5.300  0.2202  0.0928 -0.1651
  484MOL0     C65214   7.589   2.418   5.269 -0.5114 -0.0414  0.7214
  484MOL0     C65215   7.541   2.493   5.398 -0.3873 -0.7149 -0.5962
  484MOL0     C65216   7.392   2.489   5.407 -0.5685 -0.9995  0.2010
  484MOL0     C65217   7.345   2.545   5.547  0.3449  0.5553 -0.6632
  484MOL0     C65218   7.199   2.528   5.552  0.5300 -0.8497 -0.8926
  484MOL0     C65219   7.137   2.595   5.675  1.1838 -0.4481 -0.1109
  484MOL0     C65220   6.983   2.585   5.667 -0.2235  0.5994 -0.7002
  484MOL0     C65221   6.910   2.640   5.791  0.6769  0.7455 -0.9321
  484MOL0     N65222   6.903   2.786   5.785 -0.3134  0.1569  0.3784
  484MOL0     C65223   6.972   2.881   5.858 -0.1630 -0.9507  0.3379
  484MOL0     C65224   6.933   3.006   5.804  0.6658  0.6813 -0.2875
  484MOL0     C65225   6.990   3.140   5.847 -0.1665  0.5289 -0.6550
  484MOL0     C65226   6.921   3.209   5.958 -0.3287 -0.2004 -0.5028
  484MOL0     C65227   6.799   3.294   5.928  0.0650  0.5631  1.3920
  484MOL0     C65228   6.690   3.278   6.031  0.3008  0.3512  1.0518
  484MOL0     O65229   6.600   3.398   6.031  1.5538  0.3322  0.9035
  484MOL0     C65230   6.463   3.382   6.054 -0.5556  0.2222  0.0162
  484MOL0     C65231   6.389   3.481   5.993  0.7330 -0.1469  0.0454
  484MOL0     C65232   6.246   3.485   6.016 -0.0320 -0.1135 -0.0079
  484MOL0     C65233   6.185   3.401   6.109 -0.0024 -0.5200  0.2950
  484MOL0     C65234   6.053   3.441   6.163 -0.3263 -0.8765  0.0983
  484MOL0     O65235   6.003   3.567   6.147 -0.0728  0.2213 -0.0386
  484MOL0     C65236   5.868   3.571   6.180  0.3802 -0.5231 -0.1790
  484MOL0     C65237   5.768   3.536   6.089 -0.1724  0.4850  0.0924
  484MOL0     C65238   5.635   3.527   6.129  0.0800 -0.5197 -0.6299
  484MOL0     C65239   5.591   3.561   6.259 -1.2885 -0.4101 -0.2360
  484MOL0     O65240   5.457   3.540   6.280  0.5795  0.0324 -0.0928
  484MOL0     C65241   5.421   3.535   6.412  0.7488 -0.0636  0.1593
  484MOL0     C65242   5.277   3.485   6.423 -0.3995 -1.1282 -0.3509
  484MOL0     C65243   5.211   3.457   6.559 -0.0886  0.1544  0.2543
  484MOL0     C65244   5.211   3.569   6.659  0.1089  0.2259  0.1682
  484MOL0     C65245   5.103   3.540   6.768  0.3142  0.1078  0.4455
  484MOL0     C65246   5.122   3.610   6.909  0.0402  0.1008  0.3832
  484MOL0     C65247   5.029   3.572   7.027 -0.9423 -0.8511  0.1546
  484MOL0     C65248   4.884   3.617   7.001  0.4368  0.4072  0.5308
  484MOL0    Cl65249   4.791   3.645   7.148  0.0335  0.4469 -0.0268
  484MOL0     C65250   5.689   3.596   6.358  0.5646 -0.4944  0.9258
  484MOL0     C65251   5.827   3.605   6.313 -0.1094 -0.1224 -0.6231
  484MOL0     O65252   6.000   3.354   6.227 -0.0548  0.4061 -0.7916
  484MOL0     C65253   6.267   3.298   6.167  0.1800  0.8583  0.6598
  484MOL0     C65254   6.403   3.287   6.136 -0.4136  0.5904  0.3012
  484MOL0     N65255   6.828   2.992   5.715  0.7420  0.4159  0.0039
  484MOL0     N65256   6.813   2.857   5.712 -0.1004 -0.1158  0.1731
  484MOL0     C65257   7.921   2.332   5.209  0.6464  0.2645  0.3233
  484MOL0     C65258   8.011   2.278   5.119  0.5315 -0.0103  0.5495
  484MOL0     C65259   8.081   2.156   4.658  0.0161  0.2423 -0.2725
  484MOL0     C65260   8.141   2.282   4.642  0.5290 -1.4624 -0.0429
  484MOL0     C65261   8.201   2.320   4.526  0.9084  0.3621 -0.0067
  484MOL0     C65262   8.224   2.231   4.419 -0.8174 -0.1867 -0.2437
  484MOL0     O65263   8.310   2.284   4.321  0.5031  0.0840  0.7666
  484MOL0     C65264   8.340   2.212   4.199  0.9330 -0.2696  0.4084
  484MOL0     C65265   8.470   2.132   4.227 -0.3989  0.9949  0.6812
  484MOL0     C65266   8.501   2.047   4.108  0.5169 -0.2766  0.0346
  484MOL0     C65267   8.635   1.979   4.125 -0.0082  0.1782 -0.0790
  484MOL0     C65268   8.746   2.071   4.166 -0.2488  0.5698  0.2736
  484MOL0     C65269   8.845   2.134   4.184  0.6313 -0.3220 -0.4998
  484MOL0     C65270   8.171   2.101   4.435  0.3128 -0.4415 -0.0229
  484MOL0     C65271   8.096   2.066   4.548 -0.2225 -0.6228  0.4032
  484MOL0     C65272   8.027   1.922   4.533  0.6616 -1.0261 -0.0833
  484MOL0     H65273   7.791   2.167   4.891 -0.1821 -0.4818  1.4982
  484MOL0     H65274   7.628   2.267   5.058 -0.1130  0.8612 -4.6948
  484MOL0     H65275   7.612   2.484   5.184  0.2107  1.7644  2.2384
  484MOL0     H65276   7.523   2.334   5.246  4.1661 -3.5099 -1.8123
  484MOL0     H65277   7.569   2.598   5.391  1.3422 -0.8907  1.8718
  484MOL0     H65278   7.593   2.447   5.483  2.6360 -3.4969 -3.6285
  484MOL0     H65279   7.355   2.386   5.397 -2.2286 -0.2936 -1.5074
  484MOL0     H65280   7.355   2.545   5.320 -0.2675 -1.8853 -0.5146
  484MOL0     H65281   7.394   2.499   5.634 -2.5512  0.0931  0.8311
  484MOL0     H65282   7.367   2.652   5.541  2.8533  0.1783  0.2306
  484MOL0     H65283   7.160   2.593   5.473  0.4310  2.1417  1.4243
  484MOL0     H65284   7.172   2.423   5.540  1.3212 -1.2832  0.7544
  484MOL0     H65285   7.171   2.533   5.759  0.6978 -2.5442 -1.3949
  484MOL0     H65286   7.164   2.701   5.679 -0.8712  0.1083  0.2330
  484MOL0     H65287   6.955   2.482   5.644  2.3328 -1.4708  3.8945
  484MOL0     H65288   6.952   2.648   5.583  0.2576  1.0941 -0.5150
  484MOL0     H65289   6.808   2.600   5.786  0.1390  1.8804  0.1351
  484MOL0     H65290   6.949   2.603   5.886  0.0751 -5.5786 -2.6765
  484MOL0     H65291   7.051   2.875   5.932 -1.1788 -0.8980  1.4470
  484MOL0     H65292   7.093   3.110   5.871  0.5962  1.8802 -2.0906
  484MOL0     H65293   7.005   3.217   5.772  0.3261 -0.2883 -1.4206
  484MOL0     H65294   6.870   3.127   6.008  2.4495 -0.8856  1.4134
  484MOL0     H65295   6.986   3.255   6.033 -0.8135  0.0145 -0.2071
  484MOL0     H65296   6.758   3.270   5.829  2.9387 -0.6482  0.3946
  484MOL0     H65297   6.843   3.394   5.920 -1.3533  1.3458  2.8767
  484MOL0     H65298   6.732   3.273   6.131  1.6179  3.6199  0.8008
  484MOL0     H65299   6.630   3.192   6.000  1.8223 -0.1671 -0.5727
  484MOL0     H65300   6.438   3.552   5.927  3.3835  0.0547  2.0504
  484MOL0     H65301   6.193   3.565   5.965  0.1095  0.2218  0.3661
  484MOL0     H65302   5.793   3.516   5.985 -0.8494 -0.3986  0.0829
  484MOL0     H65303   5.556   3.496   6.062 -2.1995  0.0697  1.6221
  484MOL0     H65304   5.491   3.466   6.460 -0.0266 -0.3790  0.8425
  484MOL0     H65305   5.419   3.632   6.462 -0.3540 -1.7245  3.6823
  484MOL0     H65306   5.217   3.550   6.358 -1.4436 -1.4522  0.2547
  484MOL0     H65307   5.285   3.391   6.368 -2.2642 -0.2277 -2.3267
  484MOL0     H65308   5.106   3.433   6.542  0.2980  0.5145 -3.6839
  484MOL0     H65309   5.247   3.361   6.596  2.1767  1.2484  1.0807
  484MOL0     H65310   5.184   3.659   6.604  1.6618 -1.4141 -3.5672
  484MOL0     H65311   5.307   3.576   6.710 -1.2863  0.0456  3.0728
  484MOL0     H65312   5.098   3.433   6.787 -0.6725 -0.3328 -1.8989
  484MOL0     H65313   5.008   3.567   6.721 -1.5728 -0.1419  3.8026
  484MOL0     H65314   5.223   3.583   6.939  0.1412  0.7779  0.6578
  484MOL0     H65315   5.117   3.718   6.891 -0.4271  0.2475  1.3557
  484MOL0     H65316   5.059   3.630   7.114  2.8647  0.6897 -1.9458
  484MOL0     H65317   5.037   3.464   7.046  0.1547 -0.9736 -0.8867
  484MOL0     H65318   4.883   3.713   6.949  3.6171  0.6665  0.7627
  484MOL0     H65319   4.835   3.544   6.936  3.6331  0.6315 -2.3720
  484MOL0     H65320   5.650   3.625   6.455 -3.7925 -2.4917 -0.0030
  484MOL0     H65321   5.889   3.652   6.389 -3.0296  2.0926  0.5449
  484MOL0     H65322   6.227   3.228   6.240 -1.3404  1.3355  0.3238
  484MOL0     H65323   6.457   3.200   6.169  0.7172  0.0860 -2.5841
  484MOL0     H65324   7.957   2.392   5.293  2.0431  2.7583 -1.9096
  484MOL0     H65325   8.119   2.289   5.125  0.6123 -0.8718  0.8961
  484MOL0     H65326   8.119   2.352   4.722  2.7559  1.5321 -1.8395
  484MOL0     H65327   8.245   2.418   4.511  0.9492  0.2780 -0.4367
  484MOL0     H65328   8.347   2.280   4.113 -0.3714 -2.3394 -1.4423
  484MOL0     H65329   8.254   2.151   4.171 -0.0801  0.7281  1.2343
  484MOL0     H65330   8.469   2.069   4.316  3.0342  1.4979  1.1924
  484MOL0     H65331   8.551   2.201   4.248  2.1259 -1.7295  0.4920
  484MOL0     H65332   8.483   2.105   4.017 -0.3709  0.6113  0.7458
  484MOL0     H65333   8.427   1.966   4.104 -0.8506  0.9281 -0.1177
  484MOL0     H65334   8.632   1.889   4.186  2.5362 -1.8504 -2.6807
  484MOL0     H65335   8.653   1.928   4.030  1.7997 -2.1008  1.3810
  484MOL0     H65336   8.934   2.195   4.189  2.0741 -1.8307 -4.2547
  484MOL0     H65337   8.179   2.031   4.353 -2.7671  1.3768 -2.0533
  484MOL0     H65338   8.040   1.883   4.432 -1.8158 -2.1609 -0.0278
  484MOL0     H65339   8.079   1.853   4.601  2.1552  1.8030  1.8603
  484MOL0     H65340   7.925   1.936   4.571  0.5357  0.9062 -0.9832
  485MOL0     O65341   0.508  10.249  11.192  0.2628  0.2332  0.2626
  485MOL0     C65342   0.600  10.249  11.268 -0.9187 -0.2285  0.2211
  485MOL0     O65343   0.725  10.198  11.249  0.1598 -0.2232 -0.6586
  485MOL0     C65344   0.751  10.128  11.136 -0.0049 -0.1833  1.4017
  485MOL0     C65345   0.694  10.002  11.120  0.1081  1.5753  0.0600
  485MOL0     C65346   0.735   9.918  11.012  0.9995  0.7494 -0.4622
  485MOL0     C65347   0.820   9.966  10.918  0.9040  0.3729 -0.0267
  485MOL0     O65348   0.833   9.899  10.794 -0.5316 -0.0936  1.3311
  485MOL0     C65349   0.883   9.957  10.669  0.6970  0.1086  0.0078
  485MOL0     C65350   0.860   9.854  10.566 -0.4240  0.6672 -0.0289
  485MOL0     C65351   0.902   9.899  10.418  0.1348 -0.4002  0.3974
  485MOL0     C65352   0.910   9.763  10.335  0.4002  0.6169 -0.5075
  485MOL0     C65353   0.936   9.757  10.183  0.8331 -0.0654 -0.7260
  485MOL0     C65354   1.051   9.859  10.143 -0.6364 -0.0673  0.3248
  485MOL0     C65355   1.087   9.847  10.000 -0.4363  0.2378 -0.7896
  485MOL0     C65356   1.036   9.950   9.904 -0.4023  0.2031 -0.1848
  485MOL0     N65357   1.144  10.048   9.871  0.5641  0.1682  0.3751
  485MOL0     C65358   1.283  10.026   9.848 -0.0326 -0.0284 -0.3282
  485MOL0     C65359   1.333  10.149   9.834  0.4589  0.2198 -0.4826
  485MOL0     C65360   1.471  10.194   9.794 -0.1610 -0.6713  0.3995
  485MOL0     C65361   1.558  10.267   9.907  0.3540  0.6975 -0.5620
  485MOL0     C65362   1.588  10.192  10.034 -1.2618 -0.1640 -0.3348
  485MOL0     C65363   1.678  10.279  10.140 -0.7860  0.8087  0.9724
  485MOL0     O65364   1.713  10.203  10.259 -0.7246  0.2976  1.1819
  485MOL0     C65365   1.809  10.102  10.245 -0.5535 -0.5034 -0.7259
  485MOL0     C65366   1.887  10.071  10.136  0.4117 -0.1078  0.0971
  485MOL0     C65367   1.972   9.958  10.151 -0.0122  0.2466 -0.1557
  485MOL0     C65368   1.983   9.887  10.269 -0.4828  0.3220 -0.3151
  485MOL0     C65369   2.081   9.774  10.284 -0.4458  0.1381  0.8858
  485MOL0     O65370   2.088   9.713  10.416 -0.4034  0.0939 -0.1125
  485MOL0     C65371   2.190   9.628  10.456  0.6196 -0.4105 -0.1154
  485MOL0     C65372   2.316   9.614  10.394 -1.0459  1.3056 -0.3418
  485MOL0     C65373   2.417   9.524  10.440 -0.4456 -0.2436 -0.5149
  485MOL0     C65374   2.386   9.450  10.552 -0.9879  1.6272 -0.3879
  485MOL0     O65375   2.487   9.366  10.617 -0.3194  0.8132 -0.1785
  485MOL0     C65376   2.584   9.314  10.530 -0.6960 -0.7326  0.5864
  485MOL0     C65377   2.663   9.198  10.588  0.2099  0.8388  0.6240
  485MOL0     C65378   2.750   9.238  10.714  0.0645  1.8755  0.3781
  485MOL0     C65379   2.830   9.113  10.757 -0.3002 -0.0688  0.2315
  485MOL0     C65380   2.903   9.135  10.892  0.4598 -0.0257  0.4967
  485MOL0     C65381   2.958   9.003  10.943  0.4495 -0.5569  0.7327
  485MOL0     C65382   3.009   9.004  11.085 -0.1619 -0.5626 -0.5394
  485MOL0     C65383   2.999   8.847  11.131 -0.3637  0.5945  0.5233
  485MOL0    Cl65384   3.083   8.829  11.287 -0.0947 -0.3243  0.2032
  485MOL0     C65385   2.263   9.455  10.610 -0.1806 -0.0549 -0.5753
  485MOL0     C65386   2.165   9.536  10.559 -0.3955 -0.2924 -0.3106
  485MOL0     O65387   2.142   9.739  10.181  0.2700  0.2572  0.1724
  485MOL0     C65388   1.897   9.915  10.373  0.4448 -0.6953 -0.1196
  485MOL0     C65389   1.812  10.031  10.366  0.3362  0.8204 -0.3928
  485MOL0     N65390   1.233  10.242   9.851  0.0142 -0.1359  0.3510
  485MOL0     N65391   1.125  10.178   9.881 -0.0182 -1.1983 -0.6233
  485MOL0     C65392   0.882  10.082  10.935 -0.7665 -0.3580 -0.9454
  485MOL0     C65393   0.842  10.167  11.033  0.2260 -0.3764 -0.1263
  485MOL0     C65394   0.566  10.315  11.401 -0.8390 -0.9242  0.7485
  485MOL0     C65395   0.451  10.392  11.402 -0.3765 -1.0192 -0.1661
  485MOL0     C65396   0.403  10.459  11.521 -0.4626 -0.1924 -0.2012
  485MOL0     C65397   0.485  10.455  11.640  0.6334  0.4403 -0.4357
  485MOL0     O65398   0.459  10.528  11.754 -0.6627  1.2831  0.1156
  485MOL0     C65399   0.323  10.544  11.778  0.8598 -0.6856  0.4424
  485MOL0     C65400   0.315  10.622  11.906  0.0658 -0.2140  0.3633
  485MOL0     C65401   0.379  10.762  11.888  0.3987  0.6984 -0.7301
  485MOL0     C65402   0.361  10.827  12.034 -0.1268  0.7605  1.0980
  485MOL0     C65403   0.471  10.926  12.052  0.5749  0.5427 -0.7005
  485MOL0     C65404   0.556  11.004  12.073 -0.7827 -0.4329  0.4859
  485MOL0     C65405   0.604  10.382  11.636 -0.2914 -0.3402 -0.0325
  485MOL0     C65406   0.648  10.325  11.512  0.0789 -0.0443  0.0435
  485MOL0     C65407   0.787  10.268  11.525 -0.3062  0.3319  0.5833
  485MOL0     H65408   0.614   9.973  11.188 -0.9375  2.5578 -0.7286
  485MOL0     H65409   0.669   9.834  10.997 -0.9755  1.8894  1.2876
  485MOL0     H65410   0.833  10.049  10.638  2.5848  0.1560 -3.3770
  485MOL0     H65411   0.988   9.988  10.669  0.4939  0.9721 -1.9977
  485MOL0     H65412   0.758   9.815  10.563  0.5733 -2.2421  0.0854
  485MOL0     H65413   0.925   9.767  10.583  1.1501  1.4885 -1.5210
  485MOL0     H65414   1.002   9.942  10.424  0.8341 -2.0083  0.8332
  485MOL0     H65415   0.836   9.975  10.375  1.4427  0.6597  0.1682
  485MOL0     H65416   0.981   9.694  10.381 -2.4047 -3.1804 -1.3330
  485MOL0     H65417   0.810   9.721  10.347  0.4382  0.5919 -0.2793
  485MOL0     H65418   0.944   9.650  10.159 -2.9849 -0.3447 -1.4693
  485MOL0     H65419   0.842   9.783  10.132 -0.7335  1.5755  2.6693
  485MOL0     H65420   1.028   9.963  10.169 -0.8688  0.5970 -2.2695
  485MOL0     H65421   1.141   9.827  10.197 -0.9831  0.4645  1.2377
  485MOL0     H65422   1.030   9.761   9.963 -0.1813  0.5905 -2.0435
  485MOL0     H65423   1.185   9.801   9.991 -1.9430 -3.2407 -1.0652
  485MOL0     H65424   1.010   9.916   9.803  1.3519 -1.3390 -0.1673
  485MOL0     H65425   0.952  10.004   9.950  0.1303  0.9374 -0.0558
  485MOL0     H65426   1.332   9.930   9.838 -0.7072 -0.1786 -2.6827
  485MOL0     H65427   1.520  10.099   9.771 -1.8216 -1.8265  1.4731
  485MOL0     H65428   1.458  10.261   9.708 -1.8850 -2.7302 -1.0588
  485MOL0     H65429   1.655  10.285   9.860 -0.3681 -2.7413 -3.9119
  485MOL0     H65430   1.507  10.361   9.930 -2.1281 -0.7438  0.2911
  485MOL0     H65431   1.640  10.097  10.016 -0.0190  0.2008  1.0893
  485MOL0     H65432   1.489  10.178  10.078 -1.5539 -0.7550 -1.1680
  485MOL0     H65433   1.623  10.363  10.182 -0.2812  0.8250  1.6224
  485MOL0     H65434   1.761  10.313  10.077  1.8191 -2.3082  2.4499
  485MOL0     H65435   1.876  10.128  10.044  0.6255  2.2087  1.4246
  485MOL0     H65436   2.034   9.925  10.069  0.8819  2.0595 -0.2645
  485MOL0     H65437   2.342   9.684  10.315  0.5539  1.5229  0.3363
  485MOL0     H65438   2.507   9.509  10.382 -0.7291 -0.7239 -0.8424
  485MOL0     H65439   2.535   9.273  10.441  0.9106 -0.6539 -0.3857
  485MOL0     H65440   2.660   9.387  10.502  1.4334 -1.9038  2.9245
  485MOL0     H65441   2.588   9.123  10.614  0.8287  0.3580  1.0801
  485MOL0     H65442   2.724   9.155  10.508 -2.4041 -0.8517 -0.5802
  485MOL0     H65443   2.822   9.319  10.696  2.2789 -0.4444 -2.1162
  485MOL0     H65444   2.681   9.265  10.795 -0.5204  0.3419  0.4263
  485MOL0     H65445   2.902   9.107  10.675 -2.0500  1.8175 -1.5779
  485MOL0     H65446   2.757   9.032  10.767 -3.1418  1.6424 -3.8213
  485MOL0     H65447   2.832   9.162  10.971 -0.5647 -0.3373 -0.2971
  485MOL0     H65448   2.972   9.219  10.892 -0.6305  0.8970  0.8340
  485MOL0     H65449   2.871   8.937  10.940 -0.5969  0.8097 -0.2359
  485MOL0     H65450   3.036   8.972  10.873 -1.2803  0.4048 -1.7506
  485MOL0     H65451   2.946   9.065  11.151  0.8210 -1.5164  1.3651
  485MOL0     H65452   3.110   9.042  11.100 -0.1905 -0.9033  0.6430
  485MOL0     H65453   2.896   8.814  11.146 -0.8088  2.0203  0.7217
  485MOL0     H65454   3.058   8.782  11.066  0.6790  2.2638 -0.2694
  485MOL0     H65455   2.249   9.384  10.690 -1.4269  2.1930  1.3108
  485MOL0     H65456   2.070   9.521  10.609 -1.8974 -3.0219 -3.5602
  485MOL0     H65457   1.894   9.845  10.456  1.8977 -1.9096 -1.0236
  485MOL0     H65458   1.731  10.036  10.439 -2.1758 -1.1981 -2.8401
  485MOL0     H65459   0.956  10.114  10.861  0.2368 -0.2661  0.0691
  485MOL0     H65460   0.896  10.261  11.035  1.8113 -1.2641  2.0352
  485MOL0     H65461   0.385  10.399  11.317  0.4756  2.1264 -0.6833
  485MOL0     H65462   0.303  10.501  11.515  0.7061  3.3319  1.9545
  485MOL0     H65463   0.270  10.449  11.788  0.4480 -0.4407  0.6298
  485MOL0     H65464   0.278  10.598  11.694  0.5007 -3.4046 -1.2341
  485MOL0     H65465   0.376  10.568  11.978  0.0903  1.2900  1.5165
  485MOL0     H65466   0.210  10.633  11.936 -0.7230 -0.5820 -2.0227
  485MOL0     H65467   0.327  10.826  11.816  2.2441  1.0664 -1.8053
  485MOL0     H65468   0.480  10.764  11.847  0.8315  1.4293  0.3155
  485MOL0     H65469   0.264  10.877  12.041 -0.1125  1.1469 -0.9262
  485MOL0     H65470   0.357  10.745  12.106 -2.2501 -0.9017 -0.7970
  485MOL0     H65471   0.635  11.075  12.088  0.3740 -1.7955  1.0144
  485MOL0     H65472   0.673  10.380  11.720  1.0138 -1.0586 -1.0778
  485MOL0     H65473   0.768  10.161  11.541 -0.9412  0.3159 -0.2106
  485MOL0     H65474   0.852  10.290  11.439  2.1464 -1.7820  1.7270
  485MOL0     H65475   0.837  10.298  11.617 -0.3596  3.1270 -0.2141
  486MOL0     O65476   4.602   7.940   5.173  1.0104 -0.2054  0.2663
  486MOL0     C65477   4.662   8.052   5.177 -0.7312 -0.3716 -0.6556
  486MOL0     O65478   4.668   8.137   5.070 -0.3297 -0.1534 -0.2552
  486MOL0     C65479   4.573   8.115   4.984  1.1702 -0.5683 -0.1563
  486MOL0     C65480   4.456   8.195   4.992 -0.2970 -1.5346  1.0388
  486MOL0     C65481   4.349   8.193   4.902 -0.1186 -0.1010  0.3149
  486MOL0     C65482   4.350   8.094   4.803  0.7201 -0.6282 -0.2196
  486MOL0     O65483   4.236   8.082   4.734  0.1417 -0.0066 -0.0900
  486MOL0     C65484   4.213   7.963   4.663 -0.1446 -0.3135  0.3033
  486MOL0     C65485   4.080   7.973   4.585  0.4452 -0.9368  0.6775
  486MOL0     C65486   4.069   7.838   4.508  0.9832 -0.1298 -0.0316
  486MOL0     C65487   3.933   7.806   4.437 -0.5097  0.2949 -1.4909
  486MOL0     C65488   3.932   7.651   4.413 -0.5725 -0.1244 -1.8464
  486MOL0     C65489   4.053   7.604   4.330 -0.3680  0.4425  0.2763
  486MOL0     C65490   4.017   7.483   4.238  0.4169 -0.6587 -0.5262
  486MOL0     C65491   3.970   7.366   4.318  0.5604  0.4598 -0.4259
  486MOL0     N65492   3.972   7.233   4.245  1.4403 -0.6071  0.3318
  486MOL0     C65493   3.996   7.125   4.315 -0.9169 -0.3418 -0.0980
  486MOL0     C65494   3.947   7.022   4.250  0.0306  1.0128  0.4486
  486MOL0     C65495   3.954   6.883   4.299  0.0705  0.2073 -0.2596
  486MOL0     C65496   3.813   6.821   4.326  0.2530  0.2347 -0.6778
  486MOL0     C65497   3.813   6.731   4.451 -1.2164 -1.0157 -0.4163
  486MOL0     C65498   3.817   6.796   4.592 -0.1357 -0.3699 -0.8387
  486MOL0     O65499   3.770   6.928   4.589  0.8313 -0.7615  0.7280
  486MOL0     C65500   3.635   6.952   4.555 -0.2779 -0.5373  0.1381
  486MOL0     C65501   3.524   6.860   4.563 -0.7085 -0.2668 -0.7429
  486MOL0     C65502   3.403   6.905   4.515 -0.1840  0.4215 -1.0966
  486MOL0     C65503   3.385   7.049   4.470  0.1512  1.1377 -0.4109
  486MOL0     C65504   3.250   7.099   4.414  0.7251  0.0824 -1.3105
  486MOL0     O65505   3.153   7.003   4.395 -0.5833 -0.3329  0.2179
  486MOL0     C65506   3.055   7.048   4.319  0.1548 -0.9154  0.1470
  486MOL0     C65507   3.056   7.094   4.191  0.3739 -0.4493 -0.2456
  486MOL0     C65508   2.938   7.125   4.119  0.9211  0.1010 -0.1328
  486MOL0     C65509   2.810   7.110   4.173  0.2824 -0.8698  0.0218
  486MOL0     O65510   2.706   7.132   4.082 -0.5282  0.4379 -0.4397
  486MOL0     C65511   2.585   7.059   4.097 -0.2604  0.2108  0.8630
  486MOL0     C65512   2.461   7.139   4.057  1.0402 -0.3132 -0.0594
  486MOL0     C65513   2.331   7.068   4.106 -0.3389 -0.3421 -0.1093
  486MOL0     C65514   2.298   6.939   4.022  1.1686  0.0325  0.3939
  486MOL0     C65515   2.293   6.954   3.869 -0.4355  0.2058  1.2929
  486MOL0     C65516   2.215   7.076   3.809  0.5297 -0.3582 -0.2878
  486MOL0     C65517   2.210   7.071   3.653 -0.6407  0.6676 -0.1116
  486MOL0     C65518   2.075   7.015   3.587 -0.2900 -0.7599 -1.3308
  486MOL0    Cl65519   2.106   6.947   3.427  0.1923 -0.2034  0.4105
  486MOL0     C65520   2.806   7.053   4.306  0.7221 -0.9399 -0.4194
  486MOL0     C65521   2.928   7.025   4.374 -0.4403  0.4308  0.2821
  486MOL0     O65522   3.226   7.221   4.402  0.1902 -0.0069 -0.2986
  486MOL0     C65523   3.491   7.140   4.482 -0.1496 -0.1748  0.7070
  486MOL0     C65524   3.618   7.091   4.522  0.5423 -0.0144 -1.0687
  486MOL0     N65525   3.911   7.069   4.122  0.3935 -0.3817  0.7581
  486MOL0     N65526   3.915   7.195   4.128  0.0864 -0.3408  0.1246
  486MOL0     C65527   4.469   8.028   4.786  0.9133  0.7670  0.5640
  486MOL0     C65528   4.578   8.030   4.868 -0.8599 -0.3132 -1.1158
  486MOL0     C65529   4.739   8.081   5.303  1.3882 -0.3221 -0.4512
  486MOL0     C65530   4.811   8.199   5.307 -0.2945  1.0260  0.1162
  486MOL0     C65531   4.887   8.227   5.416 -0.0399  1.0301 -0.6819
  486MOL0     C65532   4.891   8.148   5.528  0.4441 -0.2146 -0.0820
  486MOL0     O65533   4.972   8.184   5.633  0.2006 -0.2528  0.2019
  486MOL0     C65534   4.994   8.092   5.732 -0.4263  0.8924 -0.4881
  486MOL0     C65535   5.079   8.152   5.842 -0.0098 -0.8345  0.0498
  486MOL0     C65536   5.083   8.089   5.973 -0.2905  0.0131 -0.3839
  486MOL0     C65537   5.217   8.091   6.040 -0.4098 -0.6536  0.1174
  486MOL0     C65538   5.200   8.066   6.180  0.5087 -0.4799 -0.5659
  486MOL0     C65539   5.193   8.048   6.299  0.2684 -0.2382  0.6862
  486MOL0     C65540   4.831   8.022   5.520  0.2907 -0.1860 -0.5029
  486MOL0     C65541   4.758   7.989   5.412  0.0286 -0.2188 -0.1106
  486MOL0     C65542   4.694   7.843   5.414 -0.0522  0.5251  0.1471
  486MOL0     H65543   4.464   8.271   5.069 -0.9197  0.3796 -0.6798
  486MOL0     H65544   4.258   8.243   4.931  0.1492 -0.6696  2.2964
  486MOL0     H65545   4.296   7.949   4.593  0.6511 -0.0077  1.1677
  486MOL0     H65546   4.199   7.879   4.732 -3.3812  0.6057  0.9314
  486MOL0     H65547   4.083   8.061   4.520  3.1546 -1.1163  0.4197
  486MOL0     H65548   4.009   7.995   4.665  3.1269  3.9241  2.1530
  486MOL0     H65549   4.101   7.760   4.578  0.7075  0.1331  0.3880
  486MOL0     H65550   4.144   7.834   4.428  0.8610 -1.0254 -0.1098
  486MOL0     H65551   3.857   7.854   4.498 -1.0818  0.6072 -2.4246
  486MOL0     H65552   3.923   7.849   4.337 -0.0061 -4.0534 -3.6414
  486MOL0     H65553   3.951   7.607   4.511  1.1732 -0.3770 -2.2510
  486MOL0     H65554   3.846   7.602   4.368  0.4730 -0.9461 -3.0386
  486MOL0     H65555   4.076   7.677   4.251  0.6316  1.5178  1.5174
  486MOL0     H65556   4.141   7.580   4.389  0.2331  1.0565 -0.3572
  486MOL0     H65557   4.105   7.453   4.181 -1.1998  1.5507 -4.6064
  486MOL0     H65558   3.934   7.505   4.170 -2.2869 -1.8168  2.1454
  486MOL0     H65559   4.034   7.352   4.406  0.4262  2.5610  0.0564
  486MOL0     H65560   3.878   7.389   4.372  0.3905  2.9075 -1.6360
  486MOL0     H65561   4.043   7.119   4.413  0.9441 -1.4029 -1.0050
  486MOL0     H65562   4.001   6.831   4.214  0.9007  0.3876  0.0805
  486MOL0     H65563   4.023   6.881   4.383  1.0414  0.9268 -1.0129
  486MOL0     H65564   3.743   6.903   4.340  1.2586  1.3918 -2.1490
  486MOL0     H65565   3.783   6.759   4.241  3.0291 -1.3637 -0.6471
  486MOL0     H65566   3.902   6.668   4.456  0.0193  0.7413  1.1198
  486MOL0     H65567   3.729   6.661   4.453 -0.5641 -1.7828  0.5298
  486MOL0     H65568   3.920   6.804   4.629 -0.9201 -4.2512  3.0075
  486MOL0     H65569   3.772   6.724   4.661  0.1740  0.6059  0.4321
  486MOL0     H65570   3.543   6.763   4.607 -2.2181  0.6919  2.3010
  486MOL0     H65571   3.321   6.835   4.504  1.3627 -1.1701 -3.3483
  486MOL0     H65572   3.145   7.120   4.135  0.5486 -3.2774 -1.4420
  486MOL0     H65573   2.936   7.151   4.014  1.3379 -0.4507 -0.2762
  486MOL0     H65574   2.581   6.976   4.026  0.5667 -0.6440  1.7926
  486MOL0     H65575   2.564   7.008   4.192 -0.4930  2.0805  1.8613
  486MOL0     H65576   2.472   7.230   4.116  0.5824  0.9852 -1.9198
  486MOL0     H65577   2.468   7.153   3.949  0.0303  0.4623 -0.0311
  486MOL0     H65578   2.348   7.041   4.211 -0.0075 -0.5607 -0.2163
  486MOL0     H65579   2.252   7.143   4.116 -1.5817 -1.7769  1.4985
  486MOL0     H65580   2.201   6.898   4.052  0.3554  0.8274 -1.0151
  486MOL0     H65581   2.369   6.867   4.063  0.5802 -0.1400  1.1340
  486MOL0     H65582   2.236   6.872   3.827  1.8132  0.0084 -1.6624
  486MOL0     H65583   2.393   6.951   3.826 -0.4867  2.7585  0.7866
  486MOL0     H65584   2.112   7.069   3.846  0.2174  0.3203 -1.0035
  486MOL0     H65585   2.267   7.163   3.851 -0.8357  0.2344  0.2359
  486MOL0     H65586   2.303   7.019   3.630 -2.0016 -1.0488 -2.0461
  486MOL0     H65587   2.224   7.165   3.599  1.5049  0.0274 -0.7623
  486MOL0     H65588   2.040   6.930   3.647  2.6950 -2.0605 -1.2450
  486MOL0     H65589   2.010   7.103   3.579  1.0384  0.1884 -1.9655
  486MOL0     H65590   2.711   7.033   4.354 -0.5855  1.1910 -1.9315
  486MOL0     H65591   2.923   6.991   4.477 -4.1632 -1.7746 -0.4358
  486MOL0     H65592   3.481   7.245   4.457 -2.8674 -0.2626  1.1082
  486MOL0     H65593   3.699   7.164   4.528 -1.4700  2.2267  3.5692
  486MOL0     H65594   4.477   7.972   4.693  3.6914  2.8250 -0.5838
  486MOL0     H65595   4.669   7.983   4.833 -1.1465 -0.1432 -2.1246
  486MOL0     H65596   4.825   8.266   5.222  0.1673 -1.4642 -1.8994
  486MOL0     H65597   4.955   8.312   5.408 -0.4926  1.8060  2.5163
  486MOL0     H65598   5.047   8.009   5.684 -1.7550  0.2990 -0.9806
  486MOL0     H65599   4.901   8.050   5.772  0.1610 -3.0092 -2.7042
  486MOL0     H65600   5.058   8.259   5.849 -0.2106 -0.9774  2.8640
  486MOL0     H65601   5.184   8.149   5.812  0.7602  2.3350  1.9502
  486MOL0     H65602   5.043   7.987   5.967 -1.2608  0.2199  1.5967
  486MOL0     H65603   5.010   8.136   6.040 -3.0805 -3.7660 -0.4128
  486MOL0     H65604   5.262   8.004   5.992 -2.0747 -1.0277 -0.8239
  486MOL0     H65605   5.287   8.169   6.011 -3.3749  1.6810 -1.3892
  486MOL0     H65606   5.224   8.019   6.397  2.4338  2.1805  0.8082
  486MOL0     H65607   4.847   7.952   5.601  1.2648 -1.3777 -1.6773
  486MOL0     H65608   4.586   7.842   5.398 -0.0391 -0.1447  0.0958
  486MOL0     H65609   4.741   7.779   5.339  2.4869 -0.9085  2.7212
  486MOL0     H65610   4.709   7.778   5.501  0.6646 -0.4542 -0.6889
  487MOL0     O65611   3.783  11.058   9.393  0.3649  0.4312  0.7114
  487MOL0     C65612   3.858  10.991   9.458  0.3365  0.0714 -0.3898
  487MOL0     O65613   3.886  10.859   9.439 -0.1467  0.0302 -0.9070
  487MOL0     C65614   3.861  10.800   9.311 -0.7663  0.8933  0.3760
  487MOL0     C65615   3.825  10.668   9.325 -0.4069  0.5269  0.2961
  487MOL0     C65616   3.790  10.590   9.207  0.9216 -0.8819 -1.0197
  487MOL0     C65617   3.790  10.652   9.075  0.4726  0.7269  0.1857
  487MOL0     O65618   3.759  10.588   8.960  0.0168  0.7045  0.6712
  487MOL0     C65619   3.689  10.467   8.956  0.6788  0.1548  0.4824
  487MOL0     C65620   3.542  10.495   8.969  0.9967 -0.1850 -0.8452
  487MOL0     C65621   3.460  10.376   8.954 -0.8545  0.5239 -0.0823
  487MOL0     C65622   3.507  10.250   9.038  0.9296  0.5176 -0.3208
  487MOL0     C65623   3.397  10.141   9.020 -0.3748  1.4803 -0.0404
  487MOL0     C65624   3.461   9.999   9.027 -0.1403  0.0930  0.5929
  487MOL0     C65625   3.370   9.908   8.943 -0.5077  0.0175 -0.8789
  487MOL0     C65626   3.411   9.766   8.944 -0.4897  0.1776 -0.1227
  487MOL0     N65627   3.540   9.745   8.867  0.6887  0.3774 -0.2978
  487MOL0     C65628   3.565   9.782   8.737  0.0345  0.6126 -0.0134
  487MOL0     C65629   3.693   9.751   8.725  0.5292  0.1973  0.5907
  487MOL0     C65630   3.771   9.797   8.598  0.2385 -0.3059 -1.5808
  487MOL0     C65631   3.865   9.921   8.639 -0.0622 -0.2731  0.1246
  487MOL0     C65632   3.803  10.051   8.684  0.3005 -0.4709 -0.0462
  487MOL0     C65633   3.894  10.147   8.760  0.0529  0.7481  0.1214
  487MOL0     O65634   3.888  10.103   8.899 -0.2772 -0.2435 -0.4335
  487MOL0     C65635   3.954  10.182   8.988 -0.3523 -0.4493  1.0204
  487MOL0     C65636   3.980  10.133   9.112  0.4716 -0.1964 -0.7941
  487MOL0     C65637   4.045  10.210   9.213  0.6009  0.2146  0.2390
  487MOL0     C65638   4.076  10.348   9.193 -0.0280 -0.0422  0.2173
  487MOL0     C65639   4.123  10.418   9.310  0.4686 -0.8828 -0.2670
  487MOL0     O65640   4.059  10.395   9.433 -0.2682 -0.3718  0.3273
  487MOL0     C65641   4.105  10.450   9.549  0.7644  1.0216 -0.4445
  487MOL0     C65642   4.156  10.357   9.649  0.1988 -0.8522  0.3244
  487MOL0     C65643   4.202  10.421   9.773  1.4669  0.1864  0.4799
  487MOL0     C65644   4.181  10.554   9.798  0.2549 -0.0646 -0.5816
  487MOL0     O65645   4.221  10.621   9.915 -0.1987  0.2648  0.6724
  487MOL0     C65646   4.138  10.730   9.972  0.8031  0.2723  0.2816
  487MOL0     C65647   4.150  10.742  10.127 -0.3070  0.2466 -0.0800
  487MOL0     C65648   4.066  10.864  10.174  0.3645  1.0457 -0.7807
  487MOL0     C65649   4.094  10.904  10.315 -0.4256 -0.3710 -1.2384
  487MOL0     C65650   4.023  11.033  10.358  0.6059  0.4659 -0.2216
  487MOL0     C65651   4.086  11.109  10.473 -0.1185  0.7508 -0.5196
  487MOL0     C65652   4.127  11.018  10.589  0.5028  0.0529  0.6255
  487MOL0     C65653   4.150  11.101  10.723  0.2811  0.1509  0.8416
  487MOL0    Cl65654   3.993  11.170  10.767 -0.6157 -0.0701 -0.1677
  487MOL0     C65655   4.132  10.638   9.703 -0.5002 -0.7007  0.4372
  487MOL0     C65656   4.091  10.583   9.576  0.4478  0.1901 -0.7494
  487MOL0     O65657   4.217  10.499   9.294 -0.5803 -0.5419  0.6736
  487MOL0     C65658   4.033  10.406   9.064 -0.4105  0.2069 -0.3255
  487MOL0     C65659   3.977  10.314   8.973 -0.0691  0.1524  0.9197
  487MOL0     N65660   3.737   9.689   8.839 -0.3280  0.5443  0.0443
  487MOL0     N65661   3.645   9.682   8.920 -0.0909  0.3448  0.0731
  487MOL0     C65662   3.835  10.786   9.066  0.2415  0.1057  0.0780
  487MOL0     C65663   3.875  10.862   9.185  0.8847  0.1626  1.2003
  487MOL0     C65664   3.909  11.046   9.583 -0.6355  0.5454 -0.3285
  487MOL0     C65665   3.888  10.973   9.697 -0.3457  1.0333 -0.3950
  487MOL0     C65666   3.899  11.023   9.832 -0.2748 -0.0700  1.8420
  487MOL0     C65667   3.950  11.149   9.848  0.5396  0.2314  0.3481
  487MOL0     O65668   3.961  11.192   9.974 -0.1933 -0.4641  0.4776
  487MOL0     C65669   3.843  11.270  10.005  0.1040 -0.1911  0.4369
  487MOL0     C65670   3.821  11.259  10.153 -0.1396 -0.2392 -0.8320
  487MOL0     C65671   3.699  11.330  10.205  0.3176  1.0126  0.1106
  487MOL0     C65672   3.709  11.382  10.347  0.6488  0.8373 -1.1051
  487MOL0     C65673   3.747  11.293  10.461  0.0835 -0.5255  1.0460
  487MOL0     C65674   3.766  11.196  10.534  1.1566  0.0959 -1.3197
  487MOL0     C65675   3.975  11.227   9.733  0.5669 -0.0081 -0.6864
  487MOL0     C65676   3.938  11.178   9.603 -0.4892  0.6333  0.3010
  487MOL0     C65677   3.957  11.275   9.492 -1.2849 -0.7483  0.2010
  487MOL0     H65678   3.856  10.622   9.418 -0.7173 -0.1210  0.0813
  487MOL0     H65679   3.770  10.483   9.215 -0.3125 -0.5313  2.5538
  487MOL0     H65680   3.693  10.418   8.859  0.9756  1.0819  0.0170
  487MOL0     H65681   3.739  10.398   9.025  0.1180  1.6722  2.5288
  487MOL0     H65682   3.525  10.576   8.898  0.9041  0.5517  0.0016
  487MOL0     H65683   3.522  10.524   9.072 -2.0099 -1.2208 -1.0496
  487MOL0     H65684   3.450  10.348   8.848 -0.4705 -0.6729  0.1787
  487MOL0     H65685   3.355  10.397   8.978 -0.9471  3.3866 -2.4291
  487MOL0     H65686   3.605  10.216   9.003 -0.0730 -2.4056 -0.5252
  487MOL0     H65687   3.519  10.260   9.146 -0.2354 -3.2406  0.3032
  487MOL0     H65688   3.313  10.166   9.085  1.7851  2.9333  2.4091
  487MOL0     H65689   3.358  10.153   8.919 -0.3123  0.6874 -0.1669
  487MOL0     H65690   3.557   9.999   8.975 -1.5236 -0.3410 -2.1814
  487MOL0     H65691   3.481   9.976   9.132  0.7728  2.2041  0.9238
  487MOL0     H65692   3.360   9.948   8.842 -0.2942  3.0428  0.1933
  487MOL0     H65693   3.269   9.908   8.984 -0.4707  0.7959 -0.7639
  487MOL0     H65694   3.421   9.722   9.044 -5.7256 -2.1518 -0.3305
  487MOL0     H65695   3.328   9.714   8.896 -0.1139 -0.6733  0.1262
  487MOL0     H65696   3.498   9.833   8.669  1.1971  2.4529  0.1373
  487MOL0     H65697   3.834   9.711   8.573  3.3657  1.0257  0.8707
  487MOL0     H65698   3.705   9.825   8.516  0.4657  1.2644 -1.2506
  487MOL0     H65699   3.927   9.883   8.721  0.2911 -1.3647 -0.6218
  487MOL0     H65700   3.935   9.949   8.561 -0.2129  1.7541  0.6731
  487MOL0     H65701   3.704  10.044   8.729 -0.2011 -3.7254 -1.3220
  487MOL0     H65702   3.794  10.107   8.590  0.6531  1.3990  0.9976
  487MOL0     H65703   3.858  10.248   8.741 -2.7805 -0.1495  0.3130
  487MOL0     H65704   3.998  10.143   8.726  0.1262  3.9968 -0.3021
  487MOL0     H65705   3.956  10.029   9.132  1.9404  0.0133  3.0365
  487MOL0     H65706   4.063  10.155   9.305 -2.9419 -0.3154  0.7615
  487MOL0     H65707   4.174  10.255   9.618  4.5153 -0.0586 -0.4940
  487MOL0     H65708   4.239  10.357   9.853  1.3698  1.2765  1.4293
  487MOL0     H65709   4.166  10.820   9.918 -0.6528  0.8405  0.4248
  487MOL0     H65710   4.032  10.713   9.948  0.1706  2.1863  1.4584
  487MOL0     H65711   4.113  10.657  10.186  0.8973 -0.1780  0.0891
  487MOL0     H65712   4.255  10.755  10.156 -0.3503  0.1401  0.1285
  487MOL0     H65713   4.077  10.945  10.102 -2.2496  0.2674 -2.1865
  487MOL0     H65714   3.963  10.834  10.154  0.8560 -0.1492 -1.6634
  487MOL0     H65715   4.203  10.912  10.313 -0.0934 -0.8787  3.4732
  487MOL0     H65716   4.078  10.825  10.390  1.5894  1.8873  1.8252
  487MOL0     H65717   3.924  11.004  10.395  1.8398 -3.1211  0.7158
  487MOL0     H65718   4.004  11.097  10.272 -0.4079 -1.5434 -1.5637
  487MOL0     H65719   4.177  11.157  10.437 -0.4037  0.7062 -1.3178
  487MOL0     H65720   4.018  11.188  10.506 -1.2865  0.8709 -2.9796
  487MOL0     H65721   4.224  10.971  10.571  1.4767  1.4103  2.0072
  487MOL0     H65722   4.047  10.944  10.596  0.3811 -0.0950 -1.7893
  487MOL0     H65723   4.185  11.027  10.796  1.2902 -2.5882 -2.2053
  487MOL0     H65724   4.222  11.180  10.702 -0.3755  0.7552  0.8361
  487MOL0     H65725   4.129  10.745   9.720 -3.4422 -0.6860  0.3304
  487MOL0     H65726   4.048  10.645   9.498 -1.7124 -0.0952  0.1592
  487MOL0     H65727   4.034  10.512   9.041 -1.3492 -0.1491 -2.2445
  487MOL0     H65728   3.927  10.367   8.892  0.8648 -0.1629  0.1208
  487MOL0     H65729   3.821  10.834   8.970 -1.0781 -0.1457  0.1168
  487MOL0     H65730   3.903  10.967   9.184 -2.5784  1.2085  1.3902
  487MOL0     H65731   3.842  10.875   9.687  1.6565 -0.2836  1.8541
  487MOL0     H65732   3.867  10.951   9.907 -0.4449 -0.2035  1.6402
  487MOL0     H65733   3.763  11.232   9.941  0.9737  0.4924 -1.1031
  487MOL0     H65734   3.856  11.375   9.977 -0.4242 -0.0498  0.7096
  487MOL0     H65735   3.908  11.309  10.195 -1.1635  0.9412 -0.0499
  487MOL0     H65736   3.819  11.154  10.185  2.7110 -0.6567 -1.7267
  487MOL0     H65737   3.616  11.259  10.199 -0.5675  1.9638  0.7437
  487MOL0     H65738   3.668  11.416  10.144  0.8422  0.4922 -0.9152
  487MOL0     H65739   3.790  11.455  10.345  1.1757  0.2534 -2.1054
  487MOL0     H65740   3.622  11.441  10.376  1.1690 -0.4729  4.2976
  487MOL0     H65741   3.786  11.113  10.598 -0.4847  1.5663  1.2637
  487MOL0     H65742   4.011  11.329   9.740  0.5475  0.0159 -0.9492
  487MOL0     H65743   3.872  11.340   9.472 -1.0876 -0.8425 -1.0206
  487MOL0     H65744   4.048  11.333   9.512 -1.3608 -0.9508  1.2105
  487MOL0     H65745   3.980  11.217   9.402  2.6276  0.6725  0.0933
  488MOL0     O65746   1.439   0.714   9.318 -0.0072  0.3299  0.6813
  488MOL0     C65747   1.539   0.715   9.384 -0.2468  0.6956 -0.0839
  488MOL0     O65748   1.667   0.739   9.340 -0.3948 -0.0247  0.8340
  488MOL0     C65749   1.686   0.781   9.207 -0.1500 -1.1430 -0.1957
  488MOL0     C65750   1.787   0.708   9.131  1.0215  0.0994  0.2123
  488MOL0     C65751   1.820   0.739   8.998  0.5176  0.0569 -0.5963
  488MOL0     C65752   1.758   0.851   8.941  1.0583  0.9162 -0.3206
  488MOL0     O65753   1.782   0.897   8.817 -0.2626 -0.1455  0.3350
  488MOL0     C65754   1.888   0.844   8.742 -0.3614 -0.9664 -0.5878
  488MOL0     C65755   1.919   0.943   8.633 -0.1059 -0.6895 -0.3123
  488MOL0     C65756   1.826   0.946   8.522 -0.2216  0.8375  0.7352
  488MOL0     C65757   1.841   1.065   8.420 -0.0898  0.1699  0.6836
  488MOL0     C65758   1.761   1.051   8.286  0.0097  0.5437 -0.1085
  488MOL0     C65759   1.614   1.055   8.322 -0.4068  0.3192 -0.3642
  488MOL0     C65760   1.535   1.051   8.186  0.8669 -0.2423  0.2851
  488MOL0     C65761   1.393   1.071   8.225  1.0773 -0.1551 -0.3810
  488MOL0     N65762   1.326   1.059   8.089  0.7081 -1.3135 -0.2111
  488MOL0     C65763   1.253   1.157   8.021 -0.0827  0.2799  0.0583
  488MOL0     C65764   1.205   1.099   7.907  0.6432 -0.6204 -0.3887
  488MOL0     C65765   1.131   1.151   7.784  0.2717  0.1631  0.1404
  488MOL0     C65766   1.212   1.237   7.678  0.3471 -0.2871 -0.7076
  488MOL0     C65767   1.122   1.321   7.581  0.6003  0.5620 -0.8184
  488MOL0     C65768   1.077   1.231   7.466 -0.8282 -0.3598 -0.5638
  488MOL0     O65769   0.971   1.292   7.394 -0.5241 -0.0170 -0.1693
  488MOL0     C65770   0.841   1.263   7.428 -0.0606 -0.3100 -0.2625
  488MOL0     C65771   0.746   1.326   7.344 -0.5794  1.0190 -1.0906
  488MOL0     C65772   0.607   1.310   7.366  0.0379  1.0733 -0.3307
  488MOL0     C65773   0.557   1.233   7.477 -0.3003  0.4751 -1.0277
  488MOL0     C65774   0.413   1.217   7.505  1.3178 -1.2845  1.1207
  488MOL0     O65775   0.400   1.162   7.629  0.6517  0.6916  0.3602
  488MOL0     C65776   0.279   1.137   7.692  0.3926  1.2931  0.0336
  488MOL0     C65777   0.302   1.078   7.819  0.2736  0.8238 -0.2480
  488MOL0     C65778   0.194   1.053   7.906 -0.3827  0.7384 -0.6172
  488MOL0     C65779   0.066   1.084   7.860  0.5404 -1.1329 -0.5915
  488MOL0     O65780  -0.044   1.075   7.946  0.4634 -0.3654  0.0787
  488MOL0     C65781  -0.082   0.937   7.985  0.2316 -0.6551  0.1744
  488MOL0     C65782  -0.040   0.890   8.122  0.8267  1.1139 -0.0846
  488MOL0     C65783  -0.108   0.972   8.238  0.2034 -0.1541  0.6853
  488MOL0     C65784  -0.041   0.979   8.380  0.3951  0.6897  1.6064
  488MOL0     C65785  -0.114   1.074   8.464 -0.1111 -0.0569  0.2979
  488MOL0     C65786  -0.057   1.066   8.599 -0.6509 -0.1244  0.6173
  488MOL0     C65787   0.062   1.161   8.616 -0.7164  0.9768 -0.3170
  488MOL0     C65788   0.023   1.309   8.607 -0.8797 -0.1010  0.1329
  488MOL0    Cl65789   0.159   1.425   8.553  0.2341 -0.0377  0.1956
  488MOL0     C65790   0.045   1.137   7.730  0.2345  0.3676  0.1911
  488MOL0     C65791   0.154   1.171   7.653  0.0405  0.2093 -0.1828
  488MOL0     O65792   0.326   1.237   7.417 -0.3678 -0.2628  1.3296
  488MOL0     C65793   0.652   1.175   7.557  0.4109 -0.1749 -1.3067
  488MOL0     C65794   0.791   1.180   7.534 -0.3612  1.1065 -0.0794
  488MOL0     N65795   1.234   0.966   7.922  0.1316  0.6697  0.3895
  488MOL0     N65796   1.311   0.944   8.017 -0.5461 -0.5835 -0.7452
  488MOL0     C65797   1.653   0.915   9.015 -0.4223 -0.0193 -0.4934
  488MOL0     C65798   1.623   0.889   9.147  0.5185 -0.0640 -0.4236
  488MOL0     C65799   1.508   0.682   9.523 -0.2190 -0.8387  1.1723
  488MOL0     C65800   1.473   0.548   9.569  0.0700 -0.2816 -0.2199
  488MOL0     C65801   1.441   0.522   9.696 -0.2725 -0.4436 -0.4126
  488MOL0     C65802   1.456   0.625   9.789 -0.1605  0.5389 -0.7459
  488MOL0     O65803   1.426   0.606   9.922  0.0170  0.0541  0.9689
  488MOL0     C65804   1.438   0.474   9.987  0.0984 -0.9916 -0.0514
  488MOL0     C65805   1.427   0.478  10.140  1.0387  0.6511  0.3101
  488MOL0     C65806   1.286   0.485  10.186 -0.0904  0.2230  0.6040
  488MOL0     C65807   1.274   0.487  10.332  0.5021 -0.2819  0.8371
  488MOL0     C65808   1.334   0.371  10.395 -0.2832 -0.1020 -0.0233
  488MOL0     C65809   1.395   0.287  10.457 -0.3029 -0.3126  1.0220
  488MOL0     C65810   1.504   0.744   9.750 -0.2493 -0.2001 -0.4208
  488MOL0     C65811   1.533   0.778   9.615  0.3569  0.5749  0.3312
  488MOL0     C65812   1.595   0.909   9.578 -0.3460  0.0565  0.4229
  488MOL0     H65813   1.817   0.621   9.189 -0.8965 -0.2940  0.6808
  488MOL0     H65814   1.894   0.682   8.943  0.8796  2.6630 -3.0717
  488MOL0     H65815   1.985   0.842   8.793  1.0051 -0.8776 -3.0311
  488MOL0     H65816   1.854   0.745   8.707 -1.9901 -0.6950  0.1092
  488MOL0     H65817   2.016   0.918   8.589 -0.0431  0.5466 -0.9316
  488MOL0     H65818   1.932   1.044   8.675  0.7958 -0.4333 -1.1535
  488MOL0     H65819   1.724   0.947   8.561 -0.2496  1.0587  0.6605
  488MOL0     H65820   1.837   0.853   8.466 -2.1355 -0.3532  2.2187
  488MOL0     H65821   1.812   1.161   8.464 -0.8018  1.4559 -2.3529
  488MOL0     H65822   1.945   1.080   8.389 -0.1104 -2.0411 -0.7097
  488MOL0     H65823   1.797   1.137   8.228  3.1050  0.4710  1.5058
  488MOL0     H65824   1.795   0.962   8.231 -2.0535 -0.2960 -0.0932
  488MOL0     H65825   1.586   0.968   8.383 -0.0186 -0.7655 -1.6926
  488MOL0     H65826   1.589   1.144   8.381  1.3136  0.1434  0.7142
  488MOL0     H65827   1.556   0.954   8.141 -2.0883 -1.2265  0.7905
  488MOL0     H65828   1.569   1.138   8.130  2.3941 -0.1130  1.3452
  488MOL0     H65829   1.356   0.995   8.295  5.0697 -1.9769  0.0354
  488MOL0     H65830   1.384   1.173   8.264  0.4141  0.2605 -1.5688
  488MOL0     H65831   1.246   1.262   8.047  1.8414  0.5054 -0.2045
  488MOL0     H65832   1.084   1.066   7.734 -1.1162 -0.0614  1.7356
  488MOL0     H65833   1.053   1.219   7.820  1.0864  1.4924 -0.5358
  488MOL0     H65834   1.272   1.307   7.737 -0.1759  0.4203 -0.9977
  488MOL0     H65835   1.284   1.179   7.618 -2.2462 -1.8159 -2.5653
  488MOL0     H65836   1.176   1.407   7.541 -0.0882 -0.6473 -4.8243
  488MOL0     H65837   1.038   1.363   7.638 -1.1538  0.7229 -3.3345
  488MOL0     H65838   1.046   1.134   7.506  2.9757 -1.5808 -0.1789
  488MOL0     H65839   1.165   1.226   7.401 -0.0128  3.4821 -0.0032
  488MOL0     H65840   0.787   1.383   7.261  4.9877  0.8209  1.0834
  488MOL0     H65841   0.544   1.348   7.286  0.6263 -0.6031 -1.6536
  488MOL0     H65842   0.403   1.049   7.847  1.3316  1.8965 -2.6518
  488MOL0     H65843   0.211   1.017   8.007 -0.8128  1.8748 -0.1154
  488MOL0     H65844  -0.189   0.923   7.970  0.3964 -2.7564  0.5817
  488MOL0     H65845  -0.029   0.872   7.914  4.2691  4.0132 -1.6018
  488MOL0     H65846  -0.066   0.785   8.140  0.8787  1.2339  0.7698
  488MOL0     H65847   0.069   0.882   8.128  0.7613  0.9978  1.5834
  488MOL0     H65848  -0.118   1.072   8.196  4.5272 -0.4286 -1.5610
  488MOL0     H65849  -0.205   0.935   8.274  0.5525 -2.9656 -1.0263
  488MOL0     H65850   0.065   1.007   8.377  0.5134  0.2054 -1.1569
  488MOL0     H65851  -0.044   0.877   8.421  0.2376 -0.8722 -1.9242
  488MOL0     H65852  -0.220   1.047   8.469 -0.0158 -1.1158 -1.9121
  488MOL0     H65853  -0.109   1.174   8.421 -1.2786  0.1528  0.6228
  488MOL0     H65854  -0.145   1.083   8.662 -0.9696 -0.8982  0.3934
  488MOL0     H65855  -0.015   0.969   8.625  1.2286  0.1121 -1.2611
  488MOL0     H65856   0.146   1.119   8.559 -1.2243 -2.0670  0.9965
  488MOL0     H65857   0.095   1.144   8.719  2.7174  0.6554 -1.3341
  488MOL0     H65858  -0.064   1.334   8.545  1.0505  0.6892 -2.4465
  488MOL0     H65859  -0.005   1.343   8.707  3.2542  0.0703  1.3817
  488MOL0     H65860  -0.052   1.166   7.692  0.5791  1.8091  0.3510
  488MOL0     H65861   0.128   1.223   7.562 -1.5021  1.0099  0.6682
  488MOL0     H65862   0.626   1.102   7.632 -3.2365  0.0602 -2.1561
  488MOL0     H65863   0.859   1.123   7.596 -0.3053  2.3068  1.0010
  488MOL0     H65864   1.599   0.995   8.967 -1.1446  1.7457  2.9232
  488MOL0     H65865   1.559   0.950   9.210  2.3585  0.5624  0.9001
  488MOL0     H65866   1.466   0.479   9.485  2.9959 -1.1096  0.0986
  488MOL0     H65867   1.406   0.421   9.715  0.9405 -1.3228 -2.5306
  488MOL0     H65868   1.542   0.443   9.973 -0.5174 -2.6846 -1.2640
  488MOL0     H65869   1.366   0.406   9.941 -1.6658  1.6000 -1.3260
  488MOL0     H65870   1.475   0.566  10.184  0.1234  1.1438  0.3679
  488MOL0     H65871   1.475   0.392  10.186  2.1292  1.8743  1.5641
  488MOL0     H65872   1.233   0.405  10.135  1.0127 -0.2094  0.0886
  488MOL0     H65873   1.254   0.583  10.149 -0.6632  0.3095  1.3158
  488MOL0     H65874   1.323   0.578  10.368  0.4379  0.2653 -0.4199
  488MOL0     H65875   1.168   0.501  10.355 -0.1297 -0.0323 -1.8843
  488MOL0     H65876   1.442   0.202  10.503 -2.4796 -0.8104  2.5168
  488MOL0     H65877   1.547   0.802   9.831 -0.7562  0.1775 -0.4218
  488MOL0     H65878   1.534   0.981   9.523  2.3698  0.6649 -2.0518
  488MOL0     H65879   1.632   0.952   9.672 -0.5785 -1.9671  1.4968
  488MOL0     H65880   1.680   0.893   9.512  3.5794 -2.5655  5.3851
  489MOL0     O65881   0.962   3.829   5.052  1.1258 -0.4051  0.1361
  489MOL0     C65882   0.947   3.743   4.962  0.5960 -0.1893  0.3663
  489MOL0     O65883   0.919   3.604   4.982  0.3516  0.2826  0.1121
  489MOL0     C65884   0.942   3.552   5.109 -0.3252  0.2755  0.6816
  489MOL0     C65885   0.878   3.437   5.130 -0.7546 -0.1614 -1.1391
  489MOL0     C65886   0.891   3.370   5.252 -0.4744 -0.2113 -0.6702
  489MOL0     C65887   0.981   3.412   5.351  0.3331  0.9620  0.3966
  489MOL0     O65888   1.011   3.322   5.446 -0.7106 -0.2861  0.4599
  489MOL0     C65889   1.117   3.368   5.532  0.5947  0.1871 -0.0049
  489MOL0     C65890   1.138   3.272   5.638 -0.3851  0.0445  1.2145
  489MOL0     C65891   1.247   3.180   5.596 -0.4357 -0.5951 -0.2164
  489MOL0     C65892   1.268   3.075   5.706 -0.0828 -0.0934  0.0502
  489MOL0     C65893   1.355   2.962   5.662 -1.1229 -0.3135  0.1909
  489MOL0     C65894   1.403   2.883   5.788  0.8597 -0.6585  0.4390
  489MOL0     C65895   1.292   2.792   5.842  0.0043 -0.3039 -0.0852
  489MOL0     C65896   1.247   2.665   5.785  0.0799  0.3754 -0.2127
  489MOL0     N65897   1.130   2.601   5.862 -0.2561 -0.0082 -0.5132
  489MOL0     C65898   1.009   2.670   5.872 -0.1252 -0.6919 -0.5086
  489MOL0     C65899   0.935   2.605   5.967 -0.3900  0.3327 -0.2248
  489MOL0     C65900   0.800   2.664   6.016  0.2376  0.5072 -0.3777
  489MOL0     C65901   0.824   2.775   6.124 -0.1391 -1.0311  0.7605
  489MOL0     C65902   0.704   2.866   6.141  0.3292  0.9382  0.1895
  489MOL0     C65903   0.587   2.790   6.209 -0.7354 -0.2079  0.8439
  489MOL0     O65904   0.486   2.884   6.221  0.0994 -0.3607 -0.1211
  489MOL0     C65905   0.385   2.843   6.311 -0.9438  0.0709  0.4473
  489MOL0     C65906   0.365   2.707   6.357 -0.1312  0.3183  0.3737
  489MOL0     C65907   0.267   2.666   6.452  1.1428  0.1199 -0.3896
  489MOL0     C65908   0.184   2.771   6.501 -0.4864  0.1336 -0.7319
  489MOL0     C65909   0.084   2.732   6.601 -0.2932  0.2892  0.1712
  489MOL0     O65910  -0.001   2.823   6.650  0.1912  0.1885 -0.3214
  489MOL0     C65911  -0.115   2.777   6.716 -0.1714 -0.8929  0.3628
  489MOL0     C65912  -0.206   2.680   6.673 -0.4169  0.4715 -0.1494
  489MOL0     C65913  -0.319   2.651   6.759  0.5053 -0.0059  0.3099
  489MOL0     C65914  -0.341   2.705   6.878  0.0665  0.4394  0.0117
  489MOL0     O65915  -0.459   2.671   6.948 -0.2641 -0.1036 -0.0521
  489MOL0     C65916  -0.580   2.699   6.877 -0.4351  0.3680  0.1225
  489MOL0     C65917  -0.612   2.847   6.901  0.2302 -0.1365  0.2042
  489MOL0     C65918  -0.759   2.885   6.850 -0.5326  0.1025 -0.0760
  489MOL0     C65919  -0.764   2.881   6.697 -0.8636  0.5001 -0.3557
  489MOL0     C65920  -0.885   2.955   6.631  0.2556  0.5269  0.6373
  489MOL0     C65921  -1.032   2.900   6.646  0.5011 -0.3809 -0.1180
  489MOL0     C65922  -1.138   2.993   6.561 -0.0851  0.5984  0.3837
  489MOL0     C65923  -1.262   2.899   6.544 -0.5753 -0.5088  0.0250
  489MOL0    Cl65924  -1.356   2.911   6.696  0.3264 -0.2146  0.0321
  489MOL0     C65925  -0.247   2.802   6.918  0.9267 -0.7258 -0.9272
  489MOL0     C65926  -0.140   2.834   6.841 -0.2894  0.6131 -0.5344
  489MOL0     O65927   0.098   2.614   6.634  0.0816 -0.1822 -0.2262
  489MOL0     C65928   0.194   2.904   6.457 -1.0525 -0.7399 -0.4868
  489MOL0     C65929   0.292   2.938   6.363  0.5717 -0.2080 -0.1088
  489MOL0     N65930   1.023   2.509   6.016 -0.0958  0.9393  0.0661
  489MOL0     N65931   1.140   2.505   5.956  0.4324 -0.0986 -0.1040
  489MOL0     C65932   1.039   3.536   5.319 -0.2559  0.3517 -1.0240
  489MOL0     C65933   1.032   3.604   5.208  0.0646  0.0194  0.3294
  489MOL0     C65934   0.957   3.774   4.819 -0.0617  0.4831  0.3561
  489MOL0     C65935   0.884   3.691   4.727 -0.3339 -0.0634 -0.0406
  489MOL0     C65936   0.896   3.714   4.587  0.0764 -0.1760  0.5815
  489MOL0     C65937   0.972   3.817   4.537  0.2818  0.3435 -1.1341
  489MOL0     O65938   0.967   3.828   4.401  0.4996  0.1631  0.4400
  489MOL0     C65939   1.041   3.927   4.331  0.5311  0.2275 -0.1718
  489MOL0     C65940   1.195   3.921   4.341 -0.4115  0.1374 -0.4491
  489MOL0     C65941   1.254   3.780   4.312  0.7134 -0.6541  0.2512
  489MOL0     C65942   1.409   3.770   4.279  0.6278  0.4593 -0.2626
  489MOL0     C65943   1.472   3.662   4.356  0.0606  0.3627  1.0690
  489MOL0     C65944   1.550   3.586   4.394 -0.4469  0.5263 -0.5642
  489MOL0     C65945   1.031   3.901   4.624  0.3429 -0.2034 -0.2551
  489MOL0     C65946   1.040   3.878   4.767  0.1508 -1.2628  0.0914
  489MOL0     C65947   1.127   3.977   4.845  0.2623  0.4032  0.3536
  489MOL0     H65948   0.811   3.391   5.058  2.1937 -6.2823 -0.6576
  489MOL0     H65949   0.834   3.278   5.254 -1.0764  0.1594 -0.5412
  489MOL0     H65950   1.207   3.375   5.470  2.7688 -2.9326  2.5048
  489MOL0     H65951   1.090   3.467   5.572  1.0161 -0.2830  1.5052
  489MOL0     H65952   1.038   3.234   5.664 -1.3158  2.0411  0.7402
  489MOL0     H65953   1.166   3.322   5.731 -2.2647  2.1269  0.7521
  489MOL0     H65954   1.337   3.243   5.593 -1.6077  1.1051 -1.1907
  489MOL0     H65955   1.222   3.136   5.500 -0.3642 -0.7969 -0.1428
  489MOL0     H65956   1.314   3.119   5.795 -0.3136 -0.2502  0.2505
  489MOL0     H65957   1.172   3.035   5.739 -0.1621  0.1469  0.1090
  489MOL0     H65958   1.295   2.889   5.607 -1.1470 -1.0153  1.1463
  489MOL0     H65959   1.438   3.008   5.607 -0.4674  0.9342  2.1158
  489MOL0     H65960   1.488   2.820   5.760 -1.8396 -3.7254 -1.6241
  489MOL0     H65961   1.425   2.956   5.866 -1.9468 -0.1724  0.8975
  489MOL0     H65962   1.199   2.849   5.855  0.0805 -0.2431  0.2108
  489MOL0     H65963   1.333   2.771   5.941  1.2711  1.2757 -0.2342
  489MOL0     H65964   1.209   2.685   5.685 -1.2675  0.7558  0.3518
  489MOL0     H65965   1.323   2.587   5.776 -3.9559 -4.5978  2.7867
  489MOL0     H65966   0.977   2.761   5.822 -0.6967  0.0608  1.1550
  489MOL0     H65967   0.759   2.716   5.929  2.5422  0.8271 -1.3559
  489MOL0     H65968   0.731   2.583   6.044 -1.6843  1.3997 -2.2226
  489MOL0     H65969   0.866   2.742   6.219  2.8220 -0.0884 -0.1194
  489MOL0     H65970   0.912   2.827   6.084  0.2876 -1.4937  1.0915
  489MOL0     H65971   0.688   2.894   6.036  0.5360  0.0586 -0.0862
  489MOL0     H65972   0.733   2.956   6.195  3.4278  1.6452 -2.3248
  489MOL0     H65973   0.620   2.766   6.310  0.4906  1.8576  0.9931
  489MOL0     H65974   0.559   2.698   6.157 -1.3936 -0.6071  1.8910
  489MOL0     H65975   0.444   2.637   6.333 -0.0927  0.8014 -1.0037
  489MOL0     H65976   0.267   2.565   6.492  0.2849  0.6857  1.1200
  489MOL0     H65977  -0.189   2.636   6.575 -0.6742  1.7508 -0.7802
  489MOL0     H65978  -0.391   2.578   6.723  0.0631  0.1395  0.8796
  489MOL0     H65979  -0.552   2.694   6.771  2.9814  3.1116  0.6961
  489MOL0     H65980  -0.654   2.627   6.912  0.2312 -0.2782  0.2156
  489MOL0     H65981  -0.620   2.862   7.009  2.1979  0.6164  0.2787
  489MOL0     H65982  -0.537   2.916   6.863  0.1940 -0.4622 -0.4827
  489MOL0     H65983  -0.837   2.827   6.900  0.5956 -0.7951  0.7163
  489MOL0     H65984  -0.777   2.986   6.885  1.9821  0.6845 -0.2393
  489MOL0     H65985  -0.758   2.778   6.661  0.9418  0.1950  0.7324
  489MOL0     H65986  -0.672   2.925   6.658 -0.8873 -0.0414 -1.0237
  489MOL0     H65987  -0.857   2.978   6.528  3.7376 -0.8594  1.1292
  489MOL0     H65988  -0.891   3.053   6.680 -0.3847  0.8387 -0.0487
  489MOL0     H65989  -1.042   2.803   6.596  0.0489  0.8928 -2.6921
  489MOL0     H65990  -1.049   2.890   6.754 -0.3091 -0.4719 -0.2505
  489MOL0     H65991  -1.097   3.002   6.460  0.4866 -7.3843 -0.7384
  489MOL0     H65992  -1.164   3.092   6.600 -0.2626  0.7225 -0.0483
  489MOL0     H65993  -1.320   2.928   6.456  0.9663 -1.0190 -1.1945
  489MOL0     H65994  -1.234   2.794   6.527  0.3050 -0.0890 -1.2691
  489MOL0     H65995  -0.279   2.855   7.008  0.2580 -2.4325 -0.1130
  489MOL0     H65996  -0.070   2.912   6.869 -0.6927  0.5788  0.6270
  489MOL0     H65997   0.131   2.983   6.498 -0.5252  0.1205 -1.2809
  489MOL0     H65998   0.311   3.040   6.332 -3.3306  0.4990 -0.6841
  489MOL0     H65999   1.106   3.579   5.393 -2.3361 -0.4039  1.4690
  489MOL0     H66000   1.098   3.690   5.199 -0.0969  0.4855  2.8700
  489MOL0     H66001   0.839   3.600   4.765  0.6406 -0.8230 -0.6521
  489MOL0     H66002   0.836   3.653   4.521 -0.4982  0.2153  0.7348
  489MOL0     H66003   1.017   4.029   4.363 -0.7771 -1.1527  3.9477
  489MOL0     H66004   1.017   3.925   4.225  1.8337  0.9062 -0.4987
  489MOL0     H66005   1.205   3.947   4.447 -2.8685  0.0828 -0.1359
  489MOL0     H66006   1.237   3.987   4.264 -3.4435 -0.6098 -2.9254
  489MOL0     H66007   1.201   3.751   4.221  0.7827  1.3889 -0.4842
  489MOL0     H66008   1.232   3.719   4.400 -1.0825  0.6942  0.8151
  489MOL0     H66009   1.418   3.733   4.176  2.7348  1.0391 -0.3328
  489MOL0     H66010   1.465   3.862   4.292  1.7140 -0.2247 -0.0127
  489MOL0     H66011   1.633   3.531   4.435  0.6880  1.0792 -2.0360
  489MOL0     H66012   1.071   3.996   4.591  0.2242 -0.0238  0.1158
  489MOL0     H66013   1.057   4.049   4.888 -0.0261 -0.6194  1.6553
  489MOL0     H66014   1.184   3.935   4.928 -0.3460 -0.7927  0.1795
  489MOL0     H66015   1.198   4.031   4.782  0.2953  0.8235  0.7466
  490MOL0     O66016   2.008   3.336   7.341 -0.9625  0.3201  0.1358
  490MOL0     C66017   1.927   3.397   7.410 -0.1021 -0.3391 -0.7358
  490MOL0     O66018   1.827   3.489   7.358 -0.8267 -0.3923 -0.8591
  490MOL0     C66019   1.828   3.540   7.226 -0.3764 -0.3932 -1.4833
  490MOL0     C66020   1.927   3.515   7.122  0.3262  0.2352 -0.2685
  490MOL0     C66021   1.920   3.581   7.007 -0.2205  1.6004  0.0568
  490MOL0     C66022   1.808   3.655   6.973  1.1566  0.6558 -0.0224
  490MOL0     O66023   1.798   3.731   6.860 -0.6895  0.4693  1.3248
  490MOL0     C66024   1.848   3.679   6.728 -1.0255 -0.1641  0.0738
  490MOL0     C66025   1.847   3.793   6.631  0.0023  0.3170  0.0442
  490MOL0     C66026   1.711   3.826   6.575 -0.0351 -0.3945 -0.0688
  490MOL0     C66027   1.701   3.935   6.465 -1.2409 -0.1592  0.3792
  490MOL0     C66028   1.552   3.967   6.444 -0.0763 -0.4625  0.4333
  490MOL0     C66029   1.540   4.086   6.352  0.2675  0.2768 -0.2284
  490MOL0     C66030   1.405   4.087   6.283 -0.1012 -0.4195 -0.6004
  490MOL0     C66031   1.285   4.106   6.382 -0.7438 -1.0092  0.4234
  490MOL0     N66032   1.169   4.143   6.304  0.2134  0.4128 -0.3038
  490MOL0     C66033   1.088   4.052   6.228 -1.2660 -0.9733 -0.0575
  490MOL0     C66034   0.968   4.103   6.206 -1.2108  0.4195  0.5916
  490MOL0     C66035   0.855   4.046   6.127  0.6062 -0.8953 -0.5753
  490MOL0     C66036   0.822   4.157   6.028 -0.2105  0.2898  0.3492
  490MOL0     C66037   0.762   4.095   5.905 -0.1836  0.3875  0.3119
  490MOL0     C66038   0.612   4.080   5.919 -0.8640  0.2689 -0.5983
  490MOL0     O66039   0.587   3.951   5.969 -0.0599  0.5056 -0.3004
  490MOL0     C66040   0.463   3.944   6.031  0.6728 -0.6879 -0.7828
  490MOL0     C66041   0.427   4.016   6.154 -1.1299 -0.1411  1.1619
  490MOL0     C66042   0.305   4.003   6.211  1.0532 -0.1627  0.5876
  490MOL0     C66043   0.212   3.912   6.156  1.3040 -0.0623 -0.8045
  490MOL0     C66044   0.070   3.899   6.219  0.4536  0.8319 -0.0142
  490MOL0     O66045   0.058   3.918   6.355  0.6675 -0.9423  0.4914
  490MOL0     C66046  -0.067   3.945   6.406 -0.9581  0.4096 -0.3448
  490MOL0     C66047  -0.163   4.025   6.355  0.1030 -0.6888  0.8864
  490MOL0     C66048  -0.282   4.045   6.418  0.2978 -1.2659  0.3685
  490MOL0     C66049  -0.307   3.985   6.546 -0.1188 -0.3631 -0.2824
  490MOL0     O66050  -0.426   4.017   6.597 -0.6767  0.2007 -1.4360
  490MOL0     C66051  -0.421   4.088   6.725  0.8267  0.8409 -0.0069
  490MOL0     C66052  -0.565   4.075   6.785 -0.7018 -0.1843  0.2932
  490MOL0     C66053  -0.616   3.930   6.813 -0.3364  0.0588  0.1463
  490MOL0     C66054  -0.694   3.917   6.949 -1.0254 -0.1155  1.0389
  490MOL0     C66055  -0.762   3.787   6.961 -0.0448  0.0682  0.2906
  490MOL0     C66056  -0.874   3.755   6.861  0.5875 -0.4272  0.7497
  490MOL0     C66057  -0.983   3.862   6.835 -0.6578 -0.1261  0.8551
  490MOL0     C66058  -1.125   3.801   6.845  1.0736 -0.7185  0.0720
  490MOL0    Cl66059  -1.150   3.720   7.002 -0.0906 -0.5245  0.2717
  490MOL0     C66060  -0.208   3.911   6.603 -1.0841 -0.0488  0.0857
  490MOL0     C66061  -0.089   3.883   6.527  0.1561  0.0232  0.4684
  490MOL0     O66062  -0.015   3.860   6.143  0.3509 -0.4663  0.6501
  490MOL0     C66063   0.244   3.842   6.043  0.3164  0.2249 -0.0086
  490MOL0     C66064   0.360   3.863   5.979 -0.5757  0.7791 -0.0732
  490MOL0     N66065   0.982   4.234   6.256 -0.3634 -0.4645  0.2979
  490MOL0     N66066   1.094   4.250   6.327 -0.6940  0.6434  0.0354
  490MOL0     C66067   1.705   3.675   7.067 -0.7467  0.4396  1.0077
  490MOL0     C66068   1.717   3.626   7.188 -0.3061  0.4097  0.0783
  490MOL0     C66069   1.932   3.365   7.556  0.0577  0.2906 -0.0281
  490MOL0     C66070   1.854   3.451   7.635  0.4060  1.2015 -1.7407
  490MOL0     C66071   1.842   3.429   7.775 -0.5459  0.5614  0.6896
  490MOL0     C66072   1.925   3.333   7.835  0.1326  0.5391  0.2506
  490MOL0     O66073   1.943   3.326   7.967 -0.2854  0.1322 -0.8319
  490MOL0     C66074   1.851   3.376   8.065 -0.5657  0.1836 -0.1064
  490MOL0     C66075   1.890   3.521   8.097 -0.0673 -0.5746 -0.6667
  490MOL0     C66076   1.787   3.582   8.187  0.0696 -0.0884  0.6575
  490MOL0     C66077   1.796   3.738   8.203 -0.5080 -0.6095 -0.0012
  490MOL0     C66078   1.925   3.767   8.272  1.2159  0.8025  0.4840
  490MOL0     C66079   2.032   3.774   8.326 -0.0712  0.3101  0.2060
  490MOL0     C66080   1.998   3.250   7.757 -0.8607  0.5440  0.9808
  490MOL0     C66081   2.016   3.274   7.621 -0.6579 -0.0690 -0.2450
  490MOL0     C66082   2.124   3.178   7.555  0.0552 -0.2206 -0.2907
  490MOL0     H66083   2.013   3.449   7.133  0.2762 -0.2883 -2.5243
  490MOL0     H66084   1.997   3.545   6.939 -1.9540 -2.5119 -0.0135
  490MOL0     H66085   1.943   3.625   6.731 -1.1966 -0.5229 -0.6513
  490MOL0     H66086   1.764   3.611   6.707 -0.3481 -1.5535  1.5968
  490MOL0     H66087   1.913   3.776   6.545 -0.2932  1.7134 -0.4871
  490MOL0     H66088   1.889   3.881   6.679  1.4781  0.6192 -1.7059
  490MOL0     H66089   1.641   3.855   6.655 -2.1390 -0.1581 -1.8866
  490MOL0     H66090   1.657   3.734   6.549  0.9514 -1.3853  1.2223
  490MOL0     H66091   1.747   4.029   6.498  0.6689  0.1149 -2.7048
  490MOL0     H66092   1.764   3.907   6.380 -0.0706  0.0378  1.1468
  490MOL0     H66093   1.497   3.879   6.408  0.9230 -0.2990 -1.6187
  490MOL0     H66094   1.507   3.989   6.542 -0.7947 -0.1271  0.0357
  490MOL0     H66095   1.547   4.176   6.414  0.4532  0.1247 -0.0253
  490MOL0     H66096   1.626   4.097   6.285  0.1921  2.4054 -0.0328
  490MOL0     H66097   1.389   4.013   6.204 -0.5178  1.3093 -2.1983
  490MOL0     H66098   1.415   4.182   6.230 -0.4496 -0.9329 -1.6177
  490MOL0     H66099   1.264   4.011   6.432  2.9483 -1.7542  0.8310
  490MOL0     H66100   1.316   4.178   6.458 -0.1061 -0.3443 -0.4356
  490MOL0     H66101   1.125   3.951   6.215 -1.8739 -1.5640  2.2897
  490MOL0     H66102   0.888   3.949   6.090  0.1306 -1.7491  1.1605
  490MOL0     H66103   0.770   4.020   6.190  0.4720 -2.2808 -1.2866
  490MOL0     H66104   0.750   4.227   6.071  2.1029  0.9673  3.4892
  490MOL0     H66105   0.912   4.212   6.000 -0.9390  0.9741 -0.7484
  490MOL0     H66106   0.813   4.002   5.880 -0.5340 -0.8759  3.6935
  490MOL0     H66107   0.773   4.157   5.816 -0.7609  0.1637  0.0817
  490MOL0     H66108   0.575   4.093   5.817  1.8563  0.9855 -1.5757
  490MOL0     H66109   0.574   4.157   5.987  0.7596  0.1373  0.5128
  490MOL0     H66110   0.489   4.097   6.192  0.7511 -0.1138 -1.6457
  490MOL0     H66111   0.289   4.068   6.297  0.4856 -0.4510  0.7087
  490MOL0     H66112  -0.134   4.085   6.269  0.0187  0.0065  1.3332
  490MOL0     H66113  -0.346   4.112   6.362  0.7149 -1.1912 -0.0286
  490MOL0     H66114  -0.340   4.051   6.789 -1.2323 -1.0602  1.6564
  490MOL0     H66115  -0.397   4.191   6.697 -0.4890  0.4803 -2.7860
  490MOL0     H66116  -0.563   4.127   6.882 -0.5344  1.1339 -0.4035
  490MOL0     H66117  -0.640   4.119   6.719 -0.4510  0.3936  0.3950
  490MOL0     H66118  -0.684   3.911   6.730 -0.3158 -1.4908  0.4625
  490MOL0     H66119  -0.543   3.849   6.806 -1.9632 -1.5249  0.9087
  490MOL0     H66120  -0.765   3.999   6.967  1.5555  2.7009 -0.5928
  490MOL0     H66121  -0.619   3.923   7.029  0.7225  0.7042 -0.5884
  490MOL0     H66122  -0.824   3.791   7.051 -1.2228 -0.7955 -0.4628
  490MOL0     H66123  -0.687   3.708   6.961  0.7300  0.7904  0.1729
  490MOL0     H66124  -0.835   3.725   6.763 -0.9178  1.9674 -0.6757
  490MOL0     H66125  -0.917   3.658   6.890 -1.9005  0.4696  0.3076
  490MOL0     H66126  -0.968   3.912   6.739 -1.8146  1.1829  1.3048
  490MOL0     H66127  -0.980   3.944   6.907 -2.7142  2.6920 -1.9730
  490MOL0     H66128  -1.203   3.878   6.839  2.1670  0.5247  1.3451
  490MOL0     H66129  -1.140   3.731   6.762 -0.8593 -0.8232  0.4656
  490MOL0     H66130  -0.224   3.864   6.699 -1.5797 -0.0287  0.0170
  490MOL0     H66131  -0.018   3.816   6.575  0.3825  0.0698  0.2045
  490MOL0     H66132   0.177   3.777   5.987  1.5890  0.3795 -1.7927
  490MOL0     H66133   0.392   3.807   5.892  3.9259 -0.7445  2.2463
  490MOL0     H66134   1.624   3.742   7.038  0.1105  1.5735  1.1734
  490MOL0     H66135   1.640   3.655   7.258  0.1303 -3.7228  2.5785
  490MOL0     H66136   1.791   3.527   7.590 -2.1229 -0.3311 -1.0220
  490MOL0     H66137   1.768   3.494   7.819 -1.2463  0.0194  0.3392
  490MOL0     H66138   1.832   3.309   8.149 -1.5880  2.3212  1.4845
  490MOL0     H66139   1.757   3.362   8.010  0.0199 -2.3324 -0.5942
  490MOL0     H66140   1.903   3.579   8.006  1.5050 -0.3482 -0.3261
  490MOL0     H66141   1.984   3.515   8.153 -1.2234 -0.3459  1.3912
  490MOL0     H66142   1.812   3.533   8.281  3.4319  0.7530  0.3468
  490MOL0     H66143   1.690   3.543   8.153 -1.0116  1.0613  2.3069
  490MOL0     H66144   1.790   3.788   8.106  0.8355  3.4176  1.7834
  490MOL0     H66145   1.713   3.766   8.268 -2.1637 -1.2034 -1.7861
  490MOL0     H66146   2.129   3.774   8.370  0.4689  0.3566 -0.9444
  490MOL0     H66147   2.049   3.167   7.805 -1.1315  0.5051  1.2030
  490MOL0     H66148   2.207   3.172   7.626  0.5750 -0.7303 -0.9378
  490MOL0     H66149   2.089   3.075   7.548 -2.2242  0.5350 -0.9292
  490MOL0     H66150   2.172   3.212   7.463 -0.6473  1.8343  0.0522
  491MOL0     O66151   5.727   0.690  11.283 -0.3535  1.3231 -0.3390
  491MOL0     C66152   5.816   0.779  11.307  0.3080 -0.0320 -0.2470
  491MOL0     O66153   5.896   0.839  11.215 -0.0406  0.0432  0.3625
  491MOL0     C66154   5.889   0.811  11.082  0.4242 -0.7580 -0.0253
  491MOL0     C66155   5.767   0.790  11.013  0.2161  0.0062 -0.2640
  491MOL0     C66156   5.759   0.751  10.881  0.4518 -0.0053  0.1164
  491MOL0     C66157   5.865   0.712  10.806 -0.4100  0.1942 -0.0186
  491MOL0     O66158   5.867   0.682  10.672  0.4656  0.8847 -0.1261
  491MOL0     C66159   5.775   0.734  10.566  0.0998 -0.4887  0.3532
  491MOL0     C66160   5.794   0.678  10.429 -0.4755  0.4790  0.4772
  491MOL0     C66161   5.794   0.522  10.423  0.0997 -0.1201 -0.6191
  491MOL0     C66162   5.937   0.470  10.443  0.6868 -0.1879 -0.1790
  491MOL0     C66163   5.945   0.315  10.415 -0.4580 -1.5820 -1.0023
  491MOL0     C66164   5.868   0.219  10.516 -0.3619  1.6240 -0.1929
  491MOL0     C66165   5.900   0.072  10.491  0.1353  0.0142  0.8117
  491MOL0     C66166   6.034   0.033  10.533  0.3316 -1.4369  0.1703
  491MOL0     N66167   6.060  -0.108  10.511 -0.4462 -0.5093 -0.2838
  491MOL0     C66168   6.134  -0.176  10.418 -0.0154  0.3337  0.9600
  491MOL0     C66169   6.093  -0.303  10.426  0.0196  0.6528  0.0055
  491MOL0     C66170   6.131  -0.430  10.351 -0.8821 -0.4046  0.8806
  491MOL0     C66171   6.055  -0.446  10.221 -0.4335 -1.1052 -0.2817
  491MOL0     C66172   6.073  -0.591  10.178  0.8274 -0.1022  0.0728
  491MOL0     C66173   6.023  -0.610  10.035  0.1128 -0.2689  0.2717
  491MOL0     O66174   5.883  -0.557  10.038 -0.7886  0.2217  0.7567
  491MOL0     C66175   5.812  -0.542   9.917 -0.2182  0.5950  0.5888
  491MOL0     C66176   5.843  -0.454   9.818  1.0161  0.4778  1.4672
  491MOL0     C66177   5.783  -0.470   9.689 -0.1556 -0.2572 -0.7683
  491MOL0     C66178   5.685  -0.565   9.660 -0.1119 -0.1006  0.1785
  491MOL0     C66179   5.620  -0.580   9.519  0.9128 -0.2517  0.6468
  491MOL0     O66180   5.654  -0.478   9.430 -0.0634  0.1775  0.1702
  491MOL0     C66181   5.596  -0.481   9.311 -0.6120  1.6910  0.3740
  491MOL0     C66182   5.529  -0.370   9.263  0.2477 -0.3586  0.3740
  491MOL0     C66183   5.476  -0.364   9.129  0.8395  0.9008 -0.3086
  491MOL0     C66184   5.486  -0.486   9.047 -0.4523 -0.5702  0.6405
  491MOL0     O66185   5.439  -0.473   8.920 -0.2064  0.8548  0.6388
  491MOL0     C66186   5.425  -0.585   8.830 -0.4722  1.2045 -0.2192
  491MOL0     C66187   5.284  -0.645   8.818 -0.5930 -0.0795  0.6979
  491MOL0     C66188   5.301  -0.806   8.819 -0.7003  0.0357  0.6034
  491MOL0     C66189   5.158  -0.863   8.796 -0.9363  0.3795 -0.4314
  491MOL0     C66190   5.173  -1.010   8.757  0.2778 -0.5061 -0.3453
  491MOL0     C66191   5.033  -1.081   8.745 -0.4010  0.3552 -0.4261
  491MOL0     C66192   5.021  -1.168   8.631  0.3450 -0.7365  0.4953
  491MOL0     C66193   4.895  -1.260   8.619  0.0498 -0.8226  0.3318
  491MOL0    Cl66194   4.935  -1.421   8.552 -0.2524  0.6509 -0.7229
  491MOL0     C66195   5.554  -0.598   9.099  0.3604  0.8039 -0.5038
  491MOL0     C66196   5.602  -0.600   9.231  0.4917 -0.2822 -0.4799
  491MOL0     O66197   5.530  -0.666   9.493  0.2089 -0.7303 -0.1210
  491MOL0     C66198   5.640  -0.641   9.769 -0.7537  0.7635 -0.0861
  491MOL0     C66199   5.709  -0.632   9.892 -0.4291 -0.2477 -0.3288
  491MOL0     N66200   5.999  -0.311  10.523 -0.3818 -0.5619 -0.5294
  491MOL0     N66201   5.984  -0.200  10.577  0.0265 -0.4315 -0.3839
  491MOL0     C66202   5.990   0.720  10.876 -0.4127  0.0924  0.9546
  491MOL0     C66203   5.997   0.775  11.005 -0.5709 -0.4441 -0.1125
  491MOL0     C66204   5.859   0.818  11.453  0.0213  0.6103  0.2689
  491MOL0     C66205   5.971   0.898  11.470  0.5754 -0.0356 -0.2896
  491MOL0     C66206   6.032   0.918  11.590  0.5569  1.5696  0.0991
  491MOL0     C66207   5.966   0.869  11.711  0.1807  0.1202 -0.2638
  491MOL0     O66208   6.039   0.887  11.821 -0.2834 -0.3192 -0.2176
  491MOL0     C66209   6.060   0.773  11.909  0.4700  0.7329 -0.4327
  491MOL0     C66210   6.053   0.813  12.059  0.0665  0.4681  0.0211
  491MOL0     C66211   6.167   0.910  12.098 -0.4779 -0.1507  0.7892
  491MOL0     C66212   6.179   0.941  12.250 -0.2028 -0.0804 -0.3285
  491MOL0     C66213   6.049   0.996  12.289 -0.9963 -0.7142 -0.1054
  491MOL0     C66214   5.945   1.045  12.311  1.3008 -0.9082  0.3510
  491MOL0     C66215   5.854   0.788  11.699 -0.8122 -1.0548 -0.8295
  491MOL0     C66216   5.802   0.771  11.576  0.0711  1.0446 -0.2618
  491MOL0     C66217   5.675   0.681  11.586 -0.9770  0.4494 -0.1756
  491MOL0     H66218   5.684   0.824  11.074  0.2550 -0.2298 -0.0749
  491MOL0     H66219   5.665   0.730  10.830 -0.7061  2.6637  0.9964
  491MOL0     H66220   5.675   0.701  10.594  0.2517 -2.5843 -1.2981
  491MOL0     H66221   5.781   0.843  10.554 -4.0143 -0.0344  0.9408
  491MOL0     H66222   5.889   0.713  10.388  0.6823 -1.8575  1.0132
  491MOL0     H66223   5.714   0.715  10.364  0.1698 -0.7226 -1.0863
  491MOL0     H66224   5.754   0.485  10.328  1.8647 -3.2349 -0.2631
  491MOL0     H66225   5.734   0.468  10.497 -1.8117  1.9429 -0.5470
  491MOL0     H66226   5.988   0.530  10.367  1.6891 -0.1228  0.5168
  491MOL0     H66227   5.970   0.500  10.543  0.6478 -0.8150  0.0312
  491MOL0     H66228   5.907   0.291  10.315  3.4850 -3.8833 -2.1768
  491MOL0     H66229   6.051   0.292  10.422 -0.4525 -0.9974  1.4076
  491MOL0     H66230   5.894   0.236  10.621  5.2765  1.6393 -1.2867
  491MOL0     H66231   5.762   0.234  10.494 -0.9164 -0.8593  0.4452
  491MOL0     H66232   5.889   0.039  10.387 -1.0958  0.1370  0.8954
  491MOL0     H66233   5.815   0.023  10.540  0.5792  0.0666  1.6450
  491MOL0     H66234   6.115   0.084  10.481  0.0790 -1.2224 -0.0157
  491MOL0     H66235   6.037   0.064  10.639  3.5128 -2.0192  0.3478
  491MOL0     H66236   6.200  -0.129  10.346  1.9497  0.6894  2.9224
  491MOL0     H66237   6.239  -0.439  10.336 -0.2938  3.2265  2.0225
  491MOL0     H66238   6.106  -0.508  10.422 -0.4152  1.7183  3.5517
  491MOL0     H66239   5.947  -0.428  10.230 -0.3462 -0.9256  0.5424
  491MOL0     H66240   6.100  -0.382  10.145 -1.9738 -1.6506 -1.7265
  491MOL0     H66241   6.010  -0.646  10.249  1.2507  1.6247  1.8770
  491MOL0     H66242   6.178  -0.618  10.192  0.8453 -0.5484 -0.8497
  491MOL0     H66243   6.025  -0.714  10.001  2.7478 -0.3088  0.3819
  491MOL0     H66244   6.095  -0.557   9.972  1.2714 -0.5496  1.3357
  491MOL0     H66245   5.925  -0.384   9.817  1.4570  0.0544  3.3228
  491MOL0     H66246   5.817  -0.410   9.605  0.8333 -0.2419 -0.3721
  491MOL0     H66247   5.519  -0.291   9.337  2.5280  0.0469  0.3272
  491MOL0     H66248   5.429  -0.278   9.083 -0.9861  1.1906  1.9017
  491MOL0     H66249   5.444  -0.559   8.726  2.2874  2.7517  0.5613
  491MOL0     H66250   5.499  -0.661   8.860  0.0301  1.8834  0.2922
  491MOL0     H66251   5.204  -0.616   8.886 -2.4369 -0.9549 -0.9783
  491MOL0     H66252   5.247  -0.630   8.716  3.3733 -1.7277 -1.1738
  491MOL0     H66253   5.380  -0.837   8.750 -0.9744  0.3298  0.1486
  491MOL0     H66254   5.337  -0.822   8.921 -2.0028  1.0278  1.2416
  491MOL0     H66255   5.101  -0.810   8.719  1.8869  1.3875 -1.9771
  491MOL0     H66256   5.099  -0.860   8.888 -2.9439 -1.4067 -1.5729
  491MOL0     H66257   5.236  -1.064   8.828 -1.6476 -1.3261  0.8047
  491MOL0     H66258   5.220  -1.013   8.658  0.0797 -1.3430 -0.4261
  491MOL0     H66259   5.008  -1.139   8.834 -0.4471  0.8026 -0.1478
  491MOL0     H66260   4.957  -1.005   8.727 -0.3970  0.8874  1.5518
  491MOL0     H66261   5.106  -1.236   8.641 -0.8038 -2.4111 -0.6663
  491MOL0     H66262   5.046  -1.110   8.541  1.0356 -3.0534 -0.8747
  491MOL0     H66263   4.849  -1.260   8.719 -3.5270  3.3396 -1.0011
  491MOL0     H66264   4.819  -1.212   8.556  0.9317  1.2953  0.7995
  491MOL0     H66265   5.568  -0.690   9.043 -1.0006 -0.4773  1.1276
  491MOL0     H66266   5.643  -0.687   9.281  1.3481  1.1919  1.5001
  491MOL0     H66267   5.569  -0.722   9.767  0.0780 -0.1063  2.2081
  491MOL0     H66268   5.684  -0.702   9.971  1.1909  1.9521  2.3262
  491MOL0     H66269   6.075   0.680  10.821 -1.5406 -1.7046  0.4301
  491MOL0     H66270   6.095   0.762  11.048 -0.1836 -1.8816 -1.3489
  491MOL0     H66271   6.030   0.918  11.382  1.6850  1.5444  0.7740
  491MOL0     H66272   6.126   0.973  11.595 -0.0129  2.7026 -0.9507
  491MOL0     H66273   6.160   0.738  11.881  0.8434 -0.0465  1.7208
  491MOL0     H66274   5.989   0.691  11.892  1.6582  0.0327 -2.4157
  491MOL0     H66275   6.074   0.725  12.120 -1.4277 -0.8637 -1.2877
  491MOL0     H66276   5.958   0.861  12.083 -0.2322 -0.8872  1.7265
  491MOL0     H66277   6.153   1.003  12.044  1.2793 -0.1170  0.3307
  491MOL0     H66278   6.262   0.865  12.068 -0.8071 -1.5427  1.7071
  491MOL0     H66279   6.199   0.849  12.305 -0.5519 -0.9454 -1.5763
  491MOL0     H66280   6.256   1.011  12.281  0.7515 -0.6987 -1.2269
  491MOL0     H66281   5.844   1.075  12.329  2.2005  1.5803  1.6203
  491MOL0     H66282   5.798   0.746  11.782 -0.8209  1.0447  0.2931
  491MOL0     H66283   5.701   0.612  11.667  0.7387  1.0437 -0.1747
  491MOL0     H66284   5.576   0.720  11.613 -0.5880  2.5312 -1.5615
  491MOL0     H66285   5.671   0.616  11.498  2.7311 -1.6837  0.9950
  492MOL0     O66286  10.878  10.301   3.991  0.8044  0.1371 -0.4989
  492MOL0     C66287  10.974  10.326   4.058  0.1432 -0.2123 -1.2952
  492MOL0     O66288  11.101  10.349   4.013  0.2431  0.2333 -0.1146
  492MOL0     C66289  11.126  10.344   3.878 -0.0114  1.0394  0.4835
  492MOL0     C66290  11.135  10.468   3.801 -0.4468  0.8105 -1.2131
  492MOL0     C66291  11.137  10.458   3.664 -0.1971  0.5753  1.0373
  492MOL0     C66292  11.174  10.337   3.604  0.7856 -0.9260  0.6027
  492MOL0     O66293  11.198  10.332   3.470  0.2812  0.0950 -0.1286
  492MOL0     C66294  11.135  10.232   3.384 -0.3629 -0.4881  0.0328
  492MOL0     C66295  11.125  10.275   3.234 -0.4688 -0.1049  0.9057
  492MOL0     C66296  11.048  10.408   3.218  0.0696  0.1221 -0.2478
  492MOL0     C66297  11.048  10.466   3.070  0.6108  0.4399 -0.1007
  492MOL0     C66298  11.180  10.493   2.998 -0.9144 -0.1598 -0.0156
  492MOL0     C66299  11.174  10.589   2.878  0.2363 -0.5426  0.2275
  492MOL0     C66300  11.179  10.738   2.913  0.1309  0.7307 -0.5130
  492MOL0     C66301  11.150  10.822   2.785  0.4891 -0.0224  1.4980
  492MOL0     N66302  11.007  10.854   2.768  0.3814  0.8062  0.7561
  492MOL0     C66303  10.907  10.760   2.752 -0.6719  0.6308 -0.5961
  492MOL0     C66304  10.790  10.827   2.790 -0.2197 -0.0079  0.3950
  492MOL0     C66305  10.646  10.791   2.812 -0.2293  1.1511 -1.1449
  492MOL0     C66306  10.562  10.781   2.678 -0.1100  0.8934  0.3726
  492MOL0     C66307  10.422  10.729   2.713 -0.2794  0.8518 -0.3050
  492MOL0     C66308  10.330  10.844   2.741  0.2197  0.5160  0.0203
  492MOL0     O66309  10.344  10.879   2.874 -0.0336 -0.0711  0.0989
  492MOL0     C66310  10.247  10.958   2.918  1.5904 -0.9704  0.3545
  492MOL0     C66311  10.155  11.039   2.838 -0.3719  0.8485  0.5196
  492MOL0     C66312  10.055  11.106   2.900  0.0830  0.0488 -0.4694
  492MOL0     C66313  10.043  11.107   3.041 -0.3226 -1.2951  0.1866
  492MOL0     C66314   9.959  11.203   3.112  0.2732 -0.0169 -0.1000
  492MOL0     O66315   9.977  11.227   3.246 -0.0815  1.2909 -0.3433
  492MOL0     C66316   9.877  11.283   3.323 -0.5683  0.0842 -0.2153
  492MOL0     C66317   9.916  11.383   3.416 -0.1925  0.3784  0.4398
  492MOL0     C66318   9.825  11.443   3.504 -0.9087  0.6637 -0.1829
  492MOL0     C66319   9.693  11.403   3.509 -0.3682  0.8840 -0.3223
  492MOL0     O66320   9.620  11.473   3.596  1.1379 -0.4594  0.2638
  492MOL0     C66321   9.478  11.444   3.608 -0.1285  0.1688 -0.3335
  492MOL0     C66322   9.427  11.533   3.724 -1.1526 -0.3008 -0.0256
  492MOL0     C66323   9.415  11.684   3.675 -0.3015  1.3541 -0.0844
  492MOL0     C66324   9.265  11.703   3.644  0.2900 -0.6297  1.1271
  492MOL0     C66325   9.190  11.708   3.767  0.6778 -0.4072  0.6276
  492MOL0     C66326   9.202  11.851   3.824 -0.0630  0.4888 -0.3853
  492MOL0     C66327   9.131  11.865   3.961 -0.6031  1.0058 -0.6280
  492MOL0     C66328   8.983  11.847   3.931 -0.0001 -0.2463  0.4476
  492MOL0    Cl66329   8.886  11.914   4.059  0.4049 -0.3359 -0.0584
  492MOL0     C66330   9.657  11.294   3.420  0.5235 -0.7293 -0.1432
  492MOL0     C66331   9.741  11.231   3.328 -0.3117 -0.6400  0.0466
  492MOL0     O66332   9.881  11.263   3.040  0.8458  0.6117  0.2304
  492MOL0     C66333  10.122  11.018   3.114 -0.4420 -0.1421 -0.7766
  492MOL0     C66334  10.220  10.942   3.054 -0.0742 -0.1830  0.5486
  492MOL0     N66335  10.824  10.961   2.808  0.1621 -0.0419  0.2056
  492MOL0     N66336  10.954  10.975   2.795  0.2155 -0.5119 -0.3824
  492MOL0     C66337  11.186  10.221   3.678  0.0103  0.1838 -0.5737
  492MOL0     C66338  11.155  10.224   3.815  0.6456  0.7010 -0.2572
  492MOL0     C66339  10.952  10.337   4.205 -0.0753  0.1302 -0.4486
  492MOL0     C66340  10.919  10.218   4.281  0.6361  0.0891  0.3345
  492MOL0     C66341  10.882  10.236   4.417  0.4966 -0.3157  0.3689
  492MOL0     C66342  10.894  10.355   4.483  0.0736 -1.0280 -0.0236
  492MOL0     O66343  10.858  10.364   4.622  0.3976  0.8405  0.2213
  492MOL0     C66344  10.820  10.493   4.673 -0.1288 -0.6228 -0.6783
  492MOL0     C66345  10.884  10.506   4.816  0.3453  0.3273 -0.2710
  492MOL0     C66346  10.845  10.402   4.918 -0.6831  0.3756  0.6096
  492MOL0     C66347  10.717  10.423   4.986 -0.5890  0.5959 -0.2412
  492MOL0     C66348  10.709  10.335   5.099  0.7183  1.5608 -0.7191
  492MOL0     C66349  10.691  10.250   5.186  0.7199 -0.2532 -0.7725
  492MOL0     C66350  10.933  10.470   4.408  0.5437  0.5777 -0.5936
  492MOL0     C66351  10.949  10.466   4.264  0.4232 -0.3032 -0.0756
  492MOL0     C66352  10.967  10.607   4.201 -0.1535  0.4710 -0.1567
  492MOL0     H66353  11.115  10.563   3.849 -1.5518 -1.0228  2.2850
  492MOL0     H66354  11.132  10.550   3.607 -0.0490 -1.3506 -2.3239
  492MOL0     H66355  11.202  10.146   3.389 -0.2307 -0.3432  1.0093
  492MOL0     H66356  11.042  10.193   3.427 -1.8355 -1.0564 -3.3246
  492MOL0     H66357  11.076  10.191   3.183  1.8579 -0.4325 -0.9415
  492MOL0     H66358  11.227  10.280   3.196 -1.0465 -2.5118 -1.3316
  492MOL0     H66359  11.092  10.487   3.280 -0.9572 -1.6896  3.0231
  492MOL0     H66360  10.948  10.397   3.260 -0.2543  0.0072 -1.0238
  492MOL0     H66361  10.998  10.391   3.008 -1.5288  1.2020  0.6044
  492MOL0     H66362  10.979  10.550   3.061 -1.5919 -1.5213 -5.6434
  492MOL0     H66363  11.255  10.523   3.071 -1.2879  4.1792 -1.1386
  492MOL0     H66364  11.215  10.398   2.955 -2.0387 -0.2464 -0.8074
  492MOL0     H66365  11.265  10.553   2.827 -0.2858  0.1492 -1.2631
  492MOL0     H66366  11.101  10.563   2.801 -0.7405  1.5574  0.3832
  492MOL0     H66367  11.276  10.769   2.953  0.2693 -0.6971  0.3074
  492MOL0     H66368  11.103  10.753   2.991 -0.8481  0.0914 -1.3179
  492MOL0     H66369  11.201  10.917   2.805  1.6205  0.1282 -1.6379
  492MOL0     H66370  11.193  10.786   2.692  0.8435  1.5979  0.9878
  492MOL0     H66371  10.917  10.653   2.742  0.7247  0.6438  0.2897
  492MOL0     H66372  10.640  10.692   2.859 -0.7942  1.8216  0.2332
  492MOL0     H66373  10.603  10.862   2.883  3.2310  0.2634  2.1839
  492MOL0     H66374  10.568  10.869   2.613 -1.6825 -0.6136 -1.9581
  492MOL0     H66375  10.615  10.701   2.625 -2.7799 -0.7596  0.0209
  492MOL0     H66376  10.409  10.641   2.776 -2.6999 -0.5432 -2.5084
  492MOL0     H66377  10.386  10.692   2.616  1.1630 -1.0798 -0.1663
  492MOL0     H66378  10.227  10.815   2.717  0.4988 -0.3898 -0.0976
  492MOL0     H66379  10.357  10.926   2.674  2.2174 -2.7854 -3.6031
  492MOL0     H66380  10.144  11.036   2.730  1.5315  0.9655  0.2909
  492MOL0     H66381   9.988  11.164   2.838 -1.3895 -0.6895  0.3738
  492MOL0     H66382  10.022  11.404   3.405  0.7923 -4.4902 -2.7873
  492MOL0     H66383   9.859  11.526   3.565  4.4767 -1.0522 -0.3259
  492MOL0     H66384   9.416  11.476   3.523 -2.7469  2.3812  2.2210
  492MOL0     H66385   9.455  11.339   3.625  3.3621 -0.3080  2.5660
  492MOL0     H66386   9.333  11.482   3.748 -1.6508  1.3355  1.7105
  492MOL0     H66387   9.492  11.527   3.812  0.4980  1.5831 -1.0413
  492MOL0     H66388   9.453  11.757   3.748 -2.6577  2.5373  0.0417
  492MOL0     H66389   9.475  11.702   3.585 -0.7173  0.8830 -0.4621
  492MOL0     H66390   9.226  11.639   3.564  1.4580  0.6606 -0.5415
  492MOL0     H66391   9.259  11.801   3.597  0.6603 -1.6956 -1.2571
  492MOL0     H66392   9.221  11.639   3.846  1.4522 -2.1945 -1.1365
  492MOL0     H66393   9.084  11.686   3.752  0.3902  0.4695  1.2538
  492MOL0     H66394   9.304  11.883   3.846 -0.0773 -0.2657  0.9079
  492MOL0     H66395   9.157  11.918   3.750 -0.6870 -0.2410 -0.6866
  492MOL0     H66396   9.149  11.963   4.006  0.4050  0.6694 -0.2844
  492MOL0     H66397   9.169  11.785   4.025  0.3283  0.5231 -1.7437
  492MOL0     H66398   8.960  11.895   3.835 -0.0491 -1.5029 -0.2011
  492MOL0     H66399   8.947  11.746   3.909 -0.9562  0.0655  0.5624
  492MOL0     H66400   9.559  11.250   3.429  0.0238 -0.0172 -1.8146
  492MOL0     H66401   9.688  11.151   3.277 -4.4657 -0.4954  3.4920
  492MOL0     H66402  10.117  11.020   3.223  2.0963  0.8855 -0.5967
  492MOL0     H66403  10.282  10.876   3.114  0.6772  1.6985  1.9416
  492MOL0     H66404  11.238  10.134   3.639  1.5822 -0.4322  2.5917
  492MOL0     H66405  11.155  10.136   3.880 -1.3479  1.3333  0.6902
  492MOL0     H66406  10.930  10.114   4.252 -0.1836 -0.2155  1.0701
  492MOL0     H66407  10.839  10.148   4.463  2.8272 -1.7337  0.0135
  492MOL0     H66408  10.710  10.498   4.673 -0.1314  1.1575  1.4012
  492MOL0     H66409  10.861  10.587   4.633  1.6244 -0.4322  1.3737
  492MOL0     H66410  10.857  10.601   4.863 -2.2185 -1.3927  2.0778
  492MOL0     H66411  10.992  10.487   4.807 -0.1164 -3.2292 -0.0253
  492MOL0     H66412  10.921  10.418   4.995 -0.2642  0.5354  0.1704
  492MOL0     H66413  10.855  10.304   4.871  0.3039  0.9457 -0.4371
  492MOL0     H66414  10.706  10.528   5.016 -1.5276  0.3145  0.4517
  492MOL0     H66415  10.640  10.393   4.914 -0.2972  1.3881 -0.9047
  492MOL0     H66416  10.679  10.177   5.264 -1.5534  0.8133 -0.0312
  492MOL0     H66417  10.943  10.572   4.443  2.1305  1.1366 -2.4567
  492MOL0     H66418  10.866  10.635   4.170 -1.0669 -0.9080  1.4265
  492MOL0     H66419  11.005  10.678   4.275  2.5308 -2.8329  1.9916
  492MOL0     H66420  11.040  10.599   4.119  0.9133 -1.9270  0.9218
  493MOL0     O66421   4.710   8.881   0.931 -0.0493 -0.8151 -0.1755
  493MOL0     C66422   4.780   8.776   0.927 -0.2982 -0.2670 -0.7363
  493MOL0     O66423   4.780   8.673   0.835  0.3247 -0.1939  0.1333
  493MOL0     C66424   4.676   8.638   0.753  0.2756 -0.1472 -0.3543
  493MOL0     C66425   4.563   8.714   0.736  0.7611  0.8005  0.3793
  493MOL0     C66426   4.449   8.657   0.670  0.2493 -0.0858  0.1817
  493MOL0     C66427   4.447   8.534   0.606  0.1571  0.0194 -1.2324
  493MOL0     O66428   4.326   8.503   0.554  0.5942  0.4441  0.2899
  493MOL0     C66429   4.308   8.374   0.478 -0.2507 -0.4644 -1.4372
  493MOL0     C66430   4.174   8.394   0.393  1.5946  0.5966  0.5499
  493MOL0     C66431   4.061   8.399   0.490  0.5167 -0.0020  0.2067
  493MOL0     C66432   3.936   8.462   0.425  0.8270 -0.8792 -0.0109
  493MOL0     C66433   3.827   8.491   0.528 -0.6420 -0.9856 -0.8818
  493MOL0     C66434   3.692   8.536   0.483 -0.9053 -0.3138  0.1485
  493MOL0     C66435   3.599   8.547   0.603 -0.1775  0.3868 -0.7969
  493MOL0     C66436   3.616   8.676   0.678 -0.9570 -0.4944 -0.1104
  493MOL0     N66437   3.551   8.683   0.813  0.1593  0.9881  0.2383
  493MOL0     C66438   3.421   8.704   0.849  0.3054 -0.2539 -0.5377
  493MOL0     C66439   3.418   8.705   0.978 -0.6690  0.9514  0.0869
  493MOL0     C66440   3.297   8.693   1.063  1.0267 -0.3379 -0.1699
  493MOL0     C66441   3.233   8.830   1.084 -0.4715 -0.0088  0.9153
  493MOL0     C66442   3.093   8.814   1.132  1.0734 -0.0003 -0.4282
  493MOL0     C66443   3.005   8.937   1.137 -0.2615  0.0224 -0.2385
  493MOL0     O66444   2.954   8.988   1.009  0.5160 -0.2879  0.1333
  493MOL0     C66445   2.827   8.941   0.967 -0.0162  0.1707  0.5088
  493MOL0     C66446   2.791   9.000   0.845 -0.4275  0.3292 -0.2360
  493MOL0     C66447   2.663   8.961   0.789 -0.5060 -0.5808 -0.0775
  493MOL0     C66448   2.574   8.871   0.862 -1.2881 -0.6526  0.3128
  493MOL0     C66449   2.447   8.828   0.798 -0.2174 -0.5101 -0.5709
  493MOL0     O66450   2.351   8.776   0.882 -0.4645 -0.0866  0.3895
  493MOL0     C66451   2.222   8.758   0.837  0.4611 -0.7998  0.6256
  493MOL0     C66452   2.155   8.803   0.709 -0.7663  0.1790 -0.2400
  493MOL0     C66453   2.020   8.769   0.680  0.3597 -0.5129 -0.3877
  493MOL0     C66454   1.946   8.703   0.778  0.8055 -0.4569 -0.0991
  493MOL0     O66455   1.818   8.650   0.761  0.0374 -0.4019 -0.5164
  493MOL0     C66456   1.752   8.681   0.644 -0.2820  0.3987  0.1594
  493MOL0     C66457   1.599   8.684   0.665 -0.5573  0.6672  0.2634
  493MOL0     C66458   1.540   8.543   0.720  0.9923  0.3856 -1.0119
  493MOL0     C66459   1.385   8.554   0.745 -0.4085  0.6318 -0.3018
  493MOL0     C66460   1.283   8.553   0.633 -0.0410 -0.6486  0.9561
  493MOL0     C66461   1.283   8.422   0.565 -0.2390 -0.0167 -0.4515
  493MOL0     C66462   1.183   8.415   0.443  0.5622  1.0255 -1.1848
  493MOL0     C66463   1.174   8.262   0.382 -0.1422 -0.5904  1.0075
  493MOL0    Cl66464   1.324   8.186   0.329 -0.6497 -0.2957 -0.3090
  493MOL0     C66465   1.995   8.685   0.903  0.2680 -0.3968  0.0427
  493MOL0     C66466   2.133   8.712   0.930 -0.1209  0.4527  0.5180
  493MOL0     O66467   2.432   8.859   0.681 -0.1221 -0.9439 -0.7121
  493MOL0     C66468   2.612   8.818   0.989  0.6482 -0.3022 -0.4808
  493MOL0     C66469   2.741   8.858   1.042  1.3288  1.1046  0.2964
  493MOL0     N66470   3.536   8.671   1.027  0.0661 -0.3190  0.3961
  493MOL0     N66471   3.619   8.663   0.928  0.3600 -0.1339 -0.3257
  493MOL0     C66472   4.564   8.465   0.620 -0.5999  0.4537  0.8940
  493MOL0     C66473   4.673   8.514   0.687 -0.2055 -0.5341 -0.6162
  493MOL0     C66474   4.884   8.786   1.019  0.3384  0.0489 -0.1750
  493MOL0     C66475   5.008   8.739   0.989  1.1181 -0.0338 -0.5635
  493MOL0     C66476   5.117   8.741   1.077 -0.8662  0.1779  0.4801
  493MOL0     C66477   5.112   8.781   1.205  0.6360  0.0457 -0.2930
  493MOL0     O66478   5.225   8.755   1.275 -0.3418  0.5358 -0.1151
  493MOL0     C66479   5.238   8.798   1.418 -0.3845 -0.6984 -0.5113
  493MOL0     C66480   5.383   8.761   1.457 -0.3106 -0.4287 -0.1979
  493MOL0     C66481   5.414   8.616   1.492  0.2197 -0.7218  0.0302
  493MOL0     C66482   5.325   8.559   1.599  0.8204  0.1653  0.4898
  493MOL0     C66483   5.347   8.629   1.725  0.6726 -0.1314 -0.1709
  493MOL0     C66484   5.366   8.672   1.837 -0.2511 -0.0543  0.3278
  493MOL0     C66485   4.988   8.835   1.243 -0.5495 -1.1438 -0.4482
  493MOL0     C66486   4.871   8.834   1.159 -0.7313 -0.3678  0.1192
  493MOL0     C66487   4.731   8.856   1.226  0.7067 -0.8023  0.3229
  493MOL0     H66488   4.547   8.814   0.775  0.9355  0.4478  1.3946
  493MOL0     H66489   4.359   8.713   0.648  0.7829  1.4377  1.6509
  493MOL0     H66490   4.393   8.355   0.413  1.9677  1.1625  0.7602
  493MOL0     H66491   4.289   8.296   0.553 -2.9315 -0.1829 -1.7049
  493MOL0     H66492   4.173   8.313   0.320  1.6256 -1.4077  2.6478
  493MOL0     H66493   4.179   8.481   0.327  3.7530 -0.9878 -1.5234
  493MOL0     H66494   4.090   8.458   0.578 -0.1324  5.5870 -2.8514
  493MOL0     H66495   4.033   8.300   0.528  1.6589  0.3590  2.1372
  493MOL0     H66496   3.963   8.550   0.367 -0.5728 -1.7012 -2.0469
  493MOL0     H66497   3.892   8.392   0.352  0.8827 -0.0265 -0.8812
  493MOL0     H66498   3.804   8.402   0.588 -2.7371  1.3562  2.0929
  493MOL0     H66499   3.860   8.566   0.601 -3.7268 -3.1075  3.1422
  493MOL0     H66500   3.694   8.626   0.420  1.1560  2.1922  3.4521
  493MOL0     H66501   3.643   8.454   0.431 -1.3600 -1.0561  1.6852
  493MOL0     H66502   3.614   8.464   0.674 -0.4570  1.3952  0.4672
  493MOL0     H66503   3.494   8.558   0.575 -1.0448  0.6428  2.2077
  493MOL0     H66504   3.721   8.694   0.701 -1.7808  1.8211  2.3662
  493MOL0     H66505   3.587   8.763   0.618 -0.1853 -1.0613 -1.3456
  493MOL0     H66506   3.338   8.719   0.781  0.3301 -0.5045 -0.6251
  493MOL0     H66507   3.220   8.625   1.026  0.0527  0.4378  0.4060
  493MOL0     H66508   3.317   8.640   1.157 -0.9326  0.9902  1.0584
  493MOL0     H66509   3.296   8.880   1.158  1.0529  0.1330 -0.4429
  493MOL0     H66510   3.227   8.882   0.988  1.2052 -2.7231 -0.7747
  493MOL0     H66511   3.081   8.774   1.233  1.1507  1.1751  0.0630
  493MOL0     H66512   3.045   8.739   1.070  2.7257 -1.3961 -0.0937
  493MOL0     H66513   3.064   9.021   1.174 -0.6579 -0.1766  0.8641
  493MOL0     H66514   2.929   8.912   1.211  0.3263 -1.3055 -0.0614
  493MOL0     H66515   2.864   9.063   0.794  2.7137 -0.5788  2.7584
  493MOL0     H66516   2.642   9.011   0.695  2.9520  2.0233  0.3312
  493MOL0     H66517   2.204   8.843   0.621 -1.6401 -0.3089 -0.9733
  493MOL0     H66518   1.989   8.780   0.577 -0.5183 -4.8638 -0.7804
  493MOL0     H66519   1.790   8.773   0.599  2.2356 -1.0888 -0.9375
  493MOL0     H66520   1.774   8.611   0.564  0.4720 -0.5233  1.1485
  493MOL0     H66521   1.582   8.763   0.738  0.4607  0.2054  1.0350
  493MOL0     H66522   1.557   8.730   0.576  0.3824  1.6536  0.3144
  493MOL0     H66523   1.561   8.449   0.668  1.9388 -1.8723  3.0044
  493MOL0     H66524   1.585   8.529   0.819 -0.0075  5.8987  0.5521
  493MOL0     H66525   1.379   8.638   0.815  7.1046  1.2374  0.3944
  493MOL0     H66526   1.347   8.472   0.807  3.0148  0.8139  2.3291
  493MOL0     H66527   1.311   8.638   0.570  4.1260 -2.8982 -0.5977
  493MOL0     H66528   1.184   8.567   0.677 -0.4769  2.7855 -0.8170
  493MOL0     H66529   1.383   8.404   0.525 -0.6313 -1.1817 -0.9640
  493MOL0     H66530   1.259   8.340   0.633  2.0877 -0.0319  0.4254
  493MOL0     H66531   1.222   8.480   0.365  3.7376 -2.3229 -2.6871
  493MOL0     H66532   1.078   8.437   0.466 -1.2854 -4.5080 -2.5301
  493MOL0     H66533   1.138   8.212   0.472 -0.6874  1.0093  1.7216
  493MOL0     H66534   1.100   8.258   0.301 -1.1083 -2.7770  1.9274
  493MOL0     H66535   1.926   8.654   0.981  0.6762  1.8502  1.3729
  493MOL0     H66536   2.177   8.687   1.026 -2.3288  1.0240  1.7353
  493MOL0     H66537   2.546   8.755   1.047  0.8987 -0.9310 -0.8623
  493MOL0     H66538   2.778   8.835   1.141  4.8902  0.4245 -1.0338
  493MOL0     H66539   4.570   8.367   0.574 -2.4870  0.1354  1.2623
  493MOL0     H66540   4.761   8.455   0.709 -0.6570 -0.8886  0.2613
  493MOL0     H66541   5.011   8.685   0.894 -2.3492  2.2597 -2.1642
  493MOL0     H66542   5.209   8.685   1.061 -3.0930 -3.6973  0.1115
  493MOL0     H66543   5.168   8.737   1.477 -0.6507 -1.2877 -1.4173
  493MOL0     H66544   5.207   8.900   1.442  1.0668 -0.5455  0.8712
  493MOL0     H66545   5.416   8.819   1.544 -0.5289 -2.4833  1.3127
  493MOL0     H66546   5.453   8.791   1.378 -0.3475  2.5776  0.7553
  493MOL0     H66547   5.516   8.608   1.531  0.5585 -0.8373 -0.8562
  493MOL0     H66548   5.408   8.545   1.409  0.0622 -1.9466  1.0628
  493MOL0     H66549   5.219   8.568   1.575  0.6735 -1.9846  0.1124
  493MOL0     H66550   5.354   8.453   1.606 -0.1975 -0.0892  1.1138
  493MOL0     H66551   5.370   8.720   1.932 -4.1991 -1.2265  1.2419
  493MOL0     H66552   4.983   8.859   1.349  0.5683  3.8649 -1.2778
  493MOL0     H66553   4.690   8.957   1.217  1.2906 -0.5274  0.6438
  493MOL0     H66554   4.660   8.793   1.173  0.3342  1.7989 -2.5572
  493MOL0     H66555   4.724   8.830   1.332  0.4288  3.3115  1.4804
  494MOL0     O66556   1.634   2.741   7.113 -0.8255  0.0841  0.1270
  494MOL0     C66557   1.542   2.656   7.094 -0.1800 -0.5541 -0.1119
  494MOL0     O66558   1.514   2.549   7.171  0.2764 -0.6114 -0.3776
  494MOL0     C66559   1.613   2.517   7.264 -0.3823  0.0958  0.0502
  494MOL0     C66560   1.694   2.403   7.244 -0.1169 -0.8735  0.0470
  494MOL0     C66561   1.797   2.380   7.339  0.2805  0.0597 -0.2990
  494MOL0     C66562   1.790   2.431   7.464  0.0694 -0.3319 -0.5754
  494MOL0     O66563   1.875   2.394   7.558  0.2225 -0.0023 -0.1636
  494MOL0     C66564   1.809   2.299   7.653 -0.0642 -0.6064 -0.4689
  494MOL0     C66565   1.901   2.267   7.769  0.0216 -0.2496 -0.4541
  494MOL0     C66566   1.881   2.372   7.874  0.2479 -0.7040 -0.5817
  494MOL0     C66567   1.935   2.320   8.010 -0.4769 -0.6517 -0.2098
  494MOL0     C66568   1.883   2.409   8.123  0.5092  0.0630 -0.2905
  494MOL0     C66569   1.974   2.373   8.242  0.2496 -0.4625 -0.9121
  494MOL0     C66570   1.904   2.420   8.378 -0.6000  0.6394 -0.6274
  494MOL0     C66571   1.999   2.419   8.499  0.4944  0.1061  0.3713
  494MOL0     N66572   2.087   2.543   8.500  0.0943  0.1108 -0.8118
  494MOL0     C66573   2.075   2.659   8.576  0.2166  0.4400 -0.6952
  494MOL0     C66574   2.192   2.721   8.580 -0.5021  1.1564 -0.0708
  494MOL0     C66575   2.233   2.837   8.669  0.3916  0.5183  0.3897
  494MOL0     C66576   2.245   2.777   8.813  0.5927  0.7906  0.3030
  494MOL0     C66577   2.297   2.865   8.921 -0.4772 -1.1138 -1.6579
  494MOL0     C66578   2.214   2.989   8.919  0.6731 -0.1626 -0.6273
  494MOL0     O66579   2.245   3.053   9.048  0.1911  0.3174 -0.0352
  494MOL0     C66580   2.159   3.148   9.086 -0.6192  0.2817  0.1898
  494MOL0     C66581   2.055   3.199   9.009  0.5905 -1.0967 -0.4180
  494MOL0     C66582   1.960   3.287   9.072  0.0241 -0.6247 -0.1290
  494MOL0     C66583   1.984   3.334   9.205 -0.2006  0.7221 -0.3365
  494MOL0     C66584   1.894   3.429   9.271 -0.5875 -0.4072 -0.0157
  494MOL0     O66585   1.916   3.473   9.397 -1.2824 -0.0579 -0.3703
  494MOL0     C66586   1.816   3.531   9.468  0.0759 -0.7699  0.2233
  494MOL0     C66587   1.751   3.467   9.577 -0.7947 -0.9538 -0.2143
  494MOL0     C66588   1.655   3.528   9.645  0.0103  0.6974  0.1603
  494MOL0     C66589   1.606   3.653   9.607 -1.3530 -0.3338 -0.1287
  494MOL0     O66590   1.525   3.718   9.700 -0.5863  0.3207 -0.1764
  494MOL0     C66591   1.408   3.782   9.628  0.1832  1.0786  0.0375
  494MOL0     C66592   1.315   3.826   9.741 -0.8396  1.1841  0.3425
  494MOL0     C66593   1.218   3.933   9.702  1.0317 -0.4273 -0.5779
  494MOL0     C66594   1.104   3.931   9.811  0.1536 -0.5085 -0.1177
  494MOL0     C66595   0.969   3.866   9.754 -0.4889  0.5933 -1.2460
  494MOL0     C66596   0.967   3.715   9.721  1.5977 -0.6296 -0.0382
  494MOL0     C66597   0.970   3.627   9.856  0.7120  0.8208  0.3406
  494MOL0     C66598   0.947   3.479   9.809  0.1313  0.9848 -1.1103
  494MOL0    Cl66599   0.970   3.370   9.957  0.2661  0.1051 -0.3644
  494MOL0     C66600   1.651   3.709   9.496  1.0829 -0.0350  1.1131
  494MOL0     C66601   1.754   3.650   9.430 -0.0525 -0.2922  0.9159
  494MOL0     O66602   1.786   3.444   9.214  0.2077 -0.4656 -0.0533
  494MOL0     C66603   2.093   3.277   9.276 -0.1647 -0.0068  0.5624
  494MOL0     C66604   2.174   3.185   9.219  0.2804  0.0488  0.3384
  494MOL0     N66605   2.274   2.643   8.503 -0.9494 -0.0162 -0.0602
  494MOL0     N66606   2.216   2.536   8.465  0.1413  0.7019  0.5895
  494MOL0     C66607   1.687   2.525   7.499 -0.5830  1.0970  0.5339
  494MOL0     C66608   1.607   2.571   7.396 -0.0386  0.0659  1.1344
  494MOL0     C66609   1.456   2.646   6.973  0.5529 -0.7751 -0.3238
  494MOL0     C66610   1.352   2.725   6.961  0.7487 -0.3398  0.7058
  494MOL0     C66611   1.279   2.734   6.833  0.4789 -0.5313 -0.7752
  494MOL0     C66612   1.315   2.658   6.723  0.6463 -0.0925 -0.9965
  494MOL0     O66613   1.242   2.676   6.612  0.3570  0.3266  0.6001
  494MOL0     C66614   1.236   2.580   6.496 -0.2000  0.4002  0.8992
  494MOL0     C66615   1.175   2.635   6.366  0.8721  0.1440 -0.0704
  494MOL0     C66616   1.250   2.758   6.316  0.3598 -0.7038 -0.2064
  494MOL0     C66617   1.165   2.831   6.211  0.0505  0.5081 -0.4385
  494MOL0     C66618   1.224   2.961   6.164  0.5361  0.2505  0.2159
  494MOL0     C66619   1.280   3.066   6.123 -1.0087  0.2959 -0.7412
  494MOL0     C66620   1.426   2.570   6.742 -0.1094 -0.1702  0.6509
  494MOL0     C66621   1.496   2.567   6.862 -0.5100 -1.6028 -0.7752
  494MOL0     C66622   1.615   2.484   6.870  0.0169 -0.2384  0.0393
  494MOL0     H66623   1.694   2.358   7.145 -1.8372  0.4416 -0.6042
  494MOL0     H66624   1.884   2.317   7.323 -0.0326 -0.3040 -0.5847
  494MOL0     H66625   1.725   2.341   7.710  1.6770 -0.5128  2.2111
  494MOL0     H66626   1.766   2.211   7.605  0.2473 -0.7178 -0.5411
  494MOL0     H66627   2.000   2.273   7.723 -0.0595  0.5822 -0.5313
  494MOL0     H66628   1.887   2.166   7.810  0.0677  0.0638  0.3655
  494MOL0     H66629   1.779   2.409   7.889  1.6943  3.6710 -0.1208
  494MOL0     H66630   1.942   2.454   7.835  3.1608 -2.4737 -0.0301
  494MOL0     H66631   1.888   2.222   8.024 -0.7494 -0.2493  2.0968
  494MOL0     H66632   2.044   2.310   8.005 -0.0578  2.6068  0.0674
  494MOL0     H66633   1.882   2.517   8.114 -1.1464  0.1216  0.2504
  494MOL0     H66634   1.779   2.377   8.136  0.6130 -0.3492 -0.4412
  494MOL0     H66635   1.973   2.264   8.250 -3.0853 -0.4017  1.5766
  494MOL0     H66636   2.076   2.413   8.234  0.5199 -0.5957  1.2032
  494MOL0     H66637   1.822   2.352   8.401 -2.0971  2.7061  0.4095
  494MOL0     H66638   1.859   2.519   8.370  0.5996  1.2632 -0.0378
  494MOL0     H66639   1.933   2.429   8.585 -0.8725 -1.7606 -0.3847
  494MOL0     H66640   2.052   2.324   8.506 -1.4783 -1.4788 -3.0871
  494MOL0     H66641   1.988   2.690   8.632 -0.5646  1.9596 -2.6570
  494MOL0     H66642   2.314   2.902   8.635 -0.1034  2.0459  1.9603
  494MOL0     H66643   2.145   2.902   8.660  0.3268  0.8161  2.6046
  494MOL0     H66644   2.151   2.729   8.840  0.6983 -0.5647 -1.5907
  494MOL0     H66645   2.311   2.689   8.812 -1.5028 -0.8940  1.6596
  494MOL0     H66646   2.405   2.884   8.919 -0.6940  0.4509 -0.4427
  494MOL0     H66647   2.286   2.812   9.016  1.5565  3.4648  1.4472
  494MOL0     H66648   2.109   2.958   8.914  0.2019  1.4247 -1.0228
  494MOL0     H66649   2.229   3.050   8.829 -2.3733 -0.8671 -1.7332
  494MOL0     H66650   2.037   3.174   8.905 -1.0509 -1.8748  0.0156
  494MOL0     H66651   1.876   3.333   9.021  0.9798 -1.4431 -2.5369
  494MOL0     H66652   1.795   3.372   9.606  0.8921 -0.3768 -0.7302
  494MOL0     H66653   1.609   3.482   9.732  1.7907  1.4494  1.5385
  494MOL0     H66654   1.443   3.869   9.571  0.9688  1.1045  0.5544
  494MOL0     H66655   1.357   3.706   9.568  0.4209  1.1911 -0.3061
  494MOL0     H66656   1.265   3.732   9.763 -1.3473  1.3217 -0.1905
  494MOL0     H66657   1.363   3.866   9.831 -2.0331  3.7892 -0.0730
  494MOL0     H66658   1.261   4.033   9.695 -2.4840  1.2171 -0.8139
  494MOL0     H66659   1.169   3.912   9.607 -0.5827  2.2466 -0.4553
  494MOL0     H66660   1.082   4.033   9.841 -0.6925 -1.1387  1.5083
  494MOL0     H66661   1.133   3.882   9.904  0.2805 -1.0420 -0.4297
  494MOL0     H66662   0.952   3.915   9.658  0.5872  0.7071 -1.3887
  494MOL0     H66663   0.885   3.886   9.822 -0.0431 -1.7429  0.0954
  494MOL0     H66664   0.875   3.701   9.665  0.9282  0.5615  0.7104
  494MOL0     H66665   1.052   3.670   9.669  0.9850 -1.3132 -0.4688
  494MOL0     H66666   0.902   3.655   9.936 -0.0425 -0.2494  0.0914
  494MOL0     H66667   1.070   3.634   9.901  1.6783  2.2499 -1.8385
  494MOL0     H66668   0.855   3.452   9.757  0.0684 -2.2560  0.4099
  494MOL0     H66669   1.022   3.454   9.734 -0.0584 -0.5165 -0.8202
  494MOL0     H66670   1.605   3.797   9.453 -0.5323 -1.5792 -0.4806
  494MOL0     H66671   1.790   3.695   9.338 -1.0143  3.3216  2.1563
  494MOL0     H66672   2.128   3.325   9.367  2.1454 -0.0127 -0.2470
  494MOL0     H66673   2.269   3.159   9.264  0.0617 -1.1306  0.1455
  494MOL0     H66674   1.669   2.569   7.596 -1.6281  0.5461  0.6010
  494MOL0     H66675   1.540   2.653   7.418  1.5997  1.3359  1.5846
  494MOL0     H66676   1.322   2.776   7.052  1.4466  0.2976  0.5894
  494MOL0     H66677   1.186   2.791   6.839  0.5848 -0.3133 -1.1314
  494MOL0     H66678   1.173   2.504   6.543 -0.7909  2.0067  2.8675
  494MOL0     H66679   1.337   2.543   6.473 -0.7582 -0.5472 -0.1210
  494MOL0     H66680   1.067   2.644   6.381  0.6299 -3.0598  1.0510
  494MOL0     H66681   1.192   2.550   6.299 -0.2552  2.1491 -3.0716
  494MOL0     H66682   1.346   2.725   6.276 -1.4795 -5.4373 -1.4154
  494MOL0     H66683   1.257   2.826   6.401 -1.2240 -1.8853  0.9352
  494MOL0     H66684   1.167   2.761   6.127  4.0348  0.3246 -0.4246
  494MOL0     H66685   1.063   2.858   6.238 -0.4496  0.6773 -2.3384
  494MOL0     H66686   1.336   3.154   6.100 -0.3222  1.1822  3.5369
  494MOL0     H66687   1.450   2.506   6.658  1.6137  2.0282 -0.6563
  494MOL0     H66688   1.620   2.413   6.787  1.7794 -0.0823 -0.0219
  494MOL0     H66689   1.705   2.546   6.869  0.7308 -0.5867  6.0822
  494MOL0     H66690   1.611   2.412   6.951  2.5585  0.3198  0.7471
  495MOL0     O66691  10.803   4.526  11.074 -0.0393 -0.5019 -0.4764
  495MOL0     C66692  10.682   4.540  11.061  0.6123 -0.2104 -0.3798
  495MOL0     O66693  10.587   4.440  11.042  0.1518  0.0413 -0.6409
  495MOL0     C66694  10.642   4.310  11.038  0.6518  0.0647  1.0849
  495MOL0     C66695  10.631   4.222  11.149  0.3601 -0.6614 -0.2480
  495MOL0     C66696  10.682   4.094  11.136 -0.1637  0.6286  1.0091
  495MOL0     C66697  10.748   4.049  11.019  0.1065 -1.0505  0.2938
  495MOL0     O66698  10.788   3.918  11.012  0.8692 -0.5812 -0.1043
  495MOL0     C66699  10.754   3.836  10.900 -0.4090 -0.4380  0.4603
  495MOL0     C66700  10.771   3.687  10.931  1.0189  0.9115  0.6038
  495MOL0     C66701  10.659   3.631  11.025 -0.3603 -0.8843 -1.1481
  495MOL0     C66702  10.688   3.482  11.067 -0.1180 -0.8382 -0.6722
  495MOL0     C66703  10.596   3.423  11.178 -0.2885  0.2509 -0.4448
  495MOL0     C66704  10.651   3.296  11.242  0.2853 -0.1100  0.5464
  495MOL0     C66705  10.571   3.257  11.366  0.5917  0.1931  0.7308
  495MOL0     C66706  10.627   3.131  11.446  0.3694 -0.2918  0.6838
  495MOL0     N66707  10.750   3.168  11.515  0.3036  1.0390  0.6218
  495MOL0     C66708  10.778   3.267  11.608  0.4726  0.6044  0.1425
  495MOL0     C66709  10.917   3.269  11.629 -0.0972 -0.4243  0.0504
  495MOL0     C66710  10.984   3.366  11.722  0.2680  0.7865  1.0263
  495MOL0     C66711  11.129   3.332  11.759 -0.5344  0.1708 -0.6702
  495MOL0     C66712  11.233   3.356  11.655 -0.2978  0.6183  1.0696
  495MOL0     C66713  11.219   3.491  11.574 -0.0179 -0.0115  0.9362
  495MOL0     O66714  11.317   3.506  11.469 -0.4072 -0.1981  0.2239
  495MOL0     C66715  11.323   3.624  11.389  1.0576 -0.6458 -0.4981
  495MOL0     C66716  11.439   3.657  11.316 -0.7808  0.2723 -0.0444
  495MOL0     C66717  11.445   3.758  11.225  0.2512  0.8490 -0.6047
  495MOL0     C66718  11.335   3.831  11.186  0.4276  0.2048  0.2764
  495MOL0     C66719  11.343   3.944  11.091 -0.8498  0.0641  0.7373
  495MOL0     O66720  11.231   3.998  11.064  0.0538  0.7326  0.0158
  495MOL0     C66721  11.233   4.119  10.990  0.0344  0.9646 -0.1619
  495MOL0     C66722  11.276   4.124  10.860  0.4307  0.1123  0.3317
  495MOL0     C66723  11.273   4.246  10.792  0.2192  0.0646 -0.9729
  495MOL0     C66724  11.221   4.361  10.849 -0.0055  0.5823 -1.0131
  495MOL0     O66725  11.203   4.461  10.761  0.3324  0.3610  0.4142
  495MOL0     C66726  11.118   4.566  10.798  0.1832  0.3100  0.4242
  495MOL0     C66727  10.973   4.519  10.766 -0.2265 -0.5538  0.6644
  495MOL0     C66728  10.871   4.635  10.724  0.2317  0.6347  0.2391
  495MOL0     C66729  10.917   4.707  10.595  0.2924 -0.4503 -0.2765
  495MOL0     C66730  10.845   4.843  10.575 -0.2796 -0.2710 -0.4820
  495MOL0     C66731  10.866   4.952  10.681 -0.5643 -1.0224 -0.0412
  495MOL0     C66732  10.802   5.087  10.634  0.2377 -0.3249 -1.0947
  495MOL0     C66733  10.800   5.187  10.761  0.7822 -0.3580 -0.1265
  495MOL0    Cl66734  10.792   5.360  10.710 -0.1647  0.2142 -0.5178
  495MOL0     C66735  11.168   4.350  10.978 -0.3144 -0.2945 -0.0330
  495MOL0     C66736  11.179   4.231  11.051 -1.0024  0.5764 -0.4632
  495MOL0     O66737  11.450   3.966  11.038 -0.0747 -1.2727 -1.1398
  495MOL0     C66738  11.209   3.809  11.257 -0.3107 -0.5281 -0.8112
  495MOL0     C66739  11.206   3.702  11.352 -0.6171 -0.2004  0.1232
  495MOL0     N66740  10.971   3.173  11.550 -0.1373 -0.3470  0.7557
  495MOL0     N66741  10.880   3.113  11.487 -0.1685  1.4226  0.6882
  495MOL0     C66742  10.765   4.142  10.910 -0.4769 -0.0858 -0.0140
  495MOL0     C66743  10.714   4.269  10.926 -0.0903 -0.1588  0.5044
  495MOL0     C66744  10.632   4.679  11.049  0.0255 -0.3538  0.4983
  495MOL0     C66745  10.567   4.712  10.927  1.2475 -0.2579 -0.0081
  495MOL0     C66746  10.537   4.846  10.903 -0.3348 -0.2498 -0.1613
  495MOL0     C66747  10.550   4.946  10.995  0.8144 -0.1898 -0.3707
  495MOL0     O66748  10.503   5.069  10.960 -0.2299  0.3912  0.0438
  495MOL0     C66749  10.541   5.182  11.029 -0.1133  1.0443 -0.0330
  495MOL0     C66750  10.425   5.217  11.117 -0.5901  0.9480 -0.2988
  495MOL0     C66751  10.313   5.299  11.044 -0.9496 -0.0689 -0.2523
  495MOL0     C66752  10.160   5.264  11.095  0.3014 -0.3342 -0.0967
  495MOL0     C66753  10.112   5.321  11.223  1.5783  0.2612  0.3033
  495MOL0     C66754  10.068   5.378  11.319 -0.2879  1.0343 -1.2037
  495MOL0     C66755  10.613   4.913  11.112 -1.0945  0.0480  0.1102
  495MOL0     C66756  10.665   4.781  11.141 -0.3907 -0.6966  0.0259
  495MOL0     C66757  10.729   4.757  11.275  0.5927  0.7232  0.2352
  495MOL0     H66758  10.576   4.260  11.234  1.7702 -1.0088  0.8661
  495MOL0     H66759  10.665   4.015  11.208  1.0121 -1.3242 -0.7378
  495MOL0     H66760  10.659   3.863  10.854 -0.0395 -2.8185 -1.9768
  495MOL0     H66761  10.840   3.864  10.839 -0.0863  1.5264  1.7245
  495MOL0     H66762  10.869   3.655  10.966  0.3687 -1.4824  0.3819
  495MOL0     H66763  10.751   3.648  10.831 -1.3488  4.1004 -0.3626
  495MOL0     H66764  10.559   3.636  10.981 -1.4462  1.4854  1.2617
  495MOL0     H66765  10.654   3.685  11.120  3.7021  3.4731 -3.0086
  495MOL0     H66766  10.683   3.419  10.977  0.7176 -0.7220 -0.8094
  495MOL0     H66767  10.790   3.470  11.105  2.2001  2.4595 -4.9640
  495MOL0     H66768  10.578   3.486  11.265  1.7019  0.1860  0.0522
  495MOL0     H66769  10.500   3.395  11.133  1.8681 -3.2654 -3.4084
  495MOL0     H66770  10.621   3.208  11.185 -1.2795  0.1184  0.9485
  495MOL0     H66771  10.759   3.295  11.252  0.8435 -1.8915 -3.4989
  495MOL0     H66772  10.475   3.231  11.321 -0.4080  2.2368  1.5596
  495MOL0     H66773  10.542   3.337  11.435 -0.7452  0.1642  0.2385
  495MOL0     H66774  10.547   3.102  11.516 -0.9834  0.1529 -0.6256
  495MOL0     H66775  10.646   3.045  11.383 -1.8354  0.3342 -0.9625
  495MOL0     H66776  10.705   3.344  11.632 -1.2894 -1.0045  0.1173
  495MOL0     H66777  10.966   3.468  11.685  0.5655  1.0160  1.4957
  495MOL0     H66778  10.926   3.350  11.813 -2.0465  0.2069 -0.4729
  495MOL0     H66779  11.153   3.382  11.853 -4.1151  2.5853 -0.8228
  495MOL0     H66780  11.129   3.227  11.789  0.7374  0.7704  1.6622
  495MOL0     H66781  11.229   3.266  11.594 -2.9852 -0.8253  3.1589
  495MOL0     H66782  11.332   3.346  11.701  0.0400 -3.3399 -0.1634
  495MOL0     H66783  11.234   3.567  11.651  2.2360 -1.5049  2.0904
  495MOL0     H66784  11.115   3.486  11.541  0.5437 -1.1040 -0.8328
  495MOL0     H66785  11.536   3.614  11.336  0.0249  1.6486 -0.8195
  495MOL0     H66786  11.539   3.761  11.172  0.2045  2.6013 -0.6415
  495MOL0     H66787  11.315   4.035  10.810 -0.1461 -0.3037  0.6138
  495MOL0     H66788  11.286   4.243  10.684  2.8301 -0.4205 -0.7127
  495MOL0     H66789  11.133   4.585  10.905  3.5744 -1.7556  0.4800
  495MOL0     H66790  11.151   4.647  10.732 -1.1450  1.7327  1.4446
  495MOL0     H66791  10.970   4.458  10.675  1.6066  0.3052 -0.0232
  495MOL0     H66792  10.948   4.457  10.852 -0.2252  1.6464  2.3415
  495MOL0     H66793  10.771   4.596  10.706 -0.7925  2.3273  1.9149
  495MOL0     H66794  10.851   4.689  10.817 -1.5714 -0.8356  0.7668
  495MOL0     H66795  10.907   4.645  10.505 -1.8549  1.3865 -1.4096
  495MOL0     H66796  11.022   4.737  10.604 -0.3472  1.9881 -0.1839
  495MOL0     H66797  10.737   4.845  10.555 -0.7452  1.5380  1.7863
  495MOL0     H66798  10.882   4.895  10.485 -3.8269  2.5378 -0.5787
  495MOL0     H66799  10.820   4.909  10.771  0.3798  1.2607  1.6531
  495MOL0     H66800  10.969   4.979  10.704 -1.0280 -0.1248  1.1207
  495MOL0     H66801  10.696   5.068  10.616 -0.7767  1.4991  2.1395
  495MOL0     H66802  10.855   5.129  10.548 -1.2275  1.7598 -1.0741
  495MOL0     H66803  10.715   5.147  10.817  1.5949 -4.3334 -1.3544
  495MOL0     H66804  10.886   5.162  10.825  0.7762 -2.3005 -0.7925
  495MOL0     H66805  11.129   4.439  11.025  0.5917  0.3674 -0.4944
  495MOL0     H66806  11.165   4.236  11.158 -0.2881  0.7832 -0.3722
  495MOL0     H66807  11.118   3.867  11.242 -2.0431 -3.1709 -1.3065
  495MOL0     H66808  11.114   3.673  11.402  0.3102  0.0319  2.0864
  495MOL0     H66809  10.811   4.097  10.822  1.2190  1.4514  0.0335
  495MOL0     H66810  10.754   4.341  10.856  0.4465 -0.2178  0.7462
  495MOL0     H66811  10.537   4.639  10.853 -0.5927  1.1695 -0.7649
  495MOL0     H66812  10.489   4.867  10.808 -1.2344  2.5461  0.8343
  495MOL0     H66813  10.558   5.268  10.963  1.9811  0.3414 -0.4738
  495MOL0     H66814  10.626   5.158  11.092  0.3072  0.1247 -0.9342
  495MOL0     H66815  10.471   5.269  11.202  1.5978  0.2215 -0.9676
  495MOL0     H66816  10.374   5.127  11.151 -0.6227 -1.0659 -5.0214
  495MOL0     H66817  10.322   5.272  10.938 -0.0862 -0.0148 -0.2007
  495MOL0     H66818  10.335   5.404  11.062 -1.3770  0.4919 -2.6335
  495MOL0     H66819  10.086   5.305  11.025 -1.3733 -0.4690  1.5315
  495MOL0     H66820  10.148   5.156  11.091  1.8387 -0.6443  1.9262
  495MOL0     H66821  10.003   5.436  11.382  0.0141 -0.8112  0.9249
  495MOL0     H66822  10.628   4.981  11.195  1.1796 -0.6516  0.3580
  495MOL0     H66823  10.641   4.726  11.331 -1.9817  1.5115 -3.0451
  495MOL0     H66824  10.785   4.664  11.284 -0.2588  0.4316  5.8070
  495MOL0     H66825  10.791   4.840  11.311  1.0920  0.5524 -0.2050
  496MOL0     O66826  10.619   6.490   4.762 -0.8733  0.8743  0.7630
  496MOL0     C66827  10.649   6.576   4.684 -0.1549 -0.1140  0.3355
  496MOL0     O66828  10.559   6.654   4.621 -0.8532 -0.3929 -0.0690
  496MOL0     C66829  10.427   6.637   4.613 -0.0210 -0.3547  0.4578
  496MOL0     C66830  10.368   6.527   4.545  0.7811 -0.4466  0.8536
  496MOL0     C66831  10.225   6.523   4.536  0.4834  0.8277  0.0325
  496MOL0     C66832  10.139   6.621   4.582  0.6295  0.5623 -0.1243
  496MOL0     O66833  10.000   6.623   4.569  0.1517 -0.2973 -0.8500
  496MOL0     C66834   9.932   6.536   4.476  0.7233 -0.2493  1.2671
  496MOL0     C66835   9.785   6.534   4.500  0.2305 -0.0941 -0.5342
  496MOL0     C66836   9.685   6.635   4.441  0.2418 -0.1095 -0.6890
  496MOL0     C66837   9.590   6.685   4.548 -0.5915  0.0952  0.4389
  496MOL0     C66838   9.522   6.820   4.520  0.4037  0.2679  0.3611
  496MOL0     C66839   9.460   6.871   4.658  0.6067  1.2843  0.0845
  496MOL0     C66840   9.406   7.013   4.655 -0.6440  0.4523 -0.3040
  496MOL0     C66841   9.509   7.119   4.650  0.4403  0.1659  0.2753
  496MOL0     N66842   9.607   7.131   4.759 -0.3149 -0.2737  0.7888
  496MOL0     C66843   9.593   7.185   4.886  0.1566  0.4651  1.0756
  496MOL0     C66844   9.714   7.165   4.940  0.3988 -0.1773 -0.1249
  496MOL0     C66845   9.769   7.222   5.070  0.2124  0.5096  0.3419
  496MOL0     C66846   9.887   7.138   5.121 -0.1117  0.1545  0.7358
  496MOL0     C66847   9.889   7.146   5.269 -0.2935 -0.1818 -0.2189
  496MOL0     C66848  10.029   7.122   5.320 -0.0885  0.8594 -0.8684
  496MOL0     O66849  10.057   6.990   5.273  0.3321 -0.2954 -0.2095
  496MOL0     C66850  10.169   6.986   5.202  0.0155  1.5556  0.1410
  496MOL0     C66851  10.168   6.970   5.067  0.0557 -0.9246  0.2528
  496MOL0     C66852  10.287   6.994   4.988 -0.1197 -0.0456 -0.1205
  496MOL0     C66853  10.414   7.015   5.050  0.1997 -0.8100 -0.2903
  496MOL0     C66854  10.545   7.049   4.977  0.2550 -0.2796  0.3750
  496MOL0     O66855  10.533   7.027   4.841 -0.4862  0.0908 -0.8777
  496MOL0     C66856  10.638   7.029   4.750 -0.3374 -0.2752  0.1519
  496MOL0     C66857  10.771   6.989   4.776  0.7733 -0.2384  0.2175
  496MOL0     C66858  10.867   6.988   4.666 -0.3077 -0.2475  0.8735
  496MOL0     C66859  10.835   7.042   4.538 -0.2986  0.1371  0.4502
  496MOL0     O66860  10.937   7.062   4.447 -0.4595  0.2761  0.9617
  496MOL0     C66861  11.081   7.043   4.484 -0.6651  0.6715 -1.0138
  496MOL0     C66862  11.165   7.066   4.363  0.4494 -0.5096 -0.3974
  496MOL0     C66863  11.146   6.969   4.246  0.4450  0.1273 -0.2697
  496MOL0     C66864  11.271   6.966   4.159 -0.5383  0.7484  0.3205
  496MOL0     C66865  11.243   6.861   4.043  0.1576 -0.9956 -0.4779
  496MOL0     C66866  11.197   6.937   3.917  0.4139  0.5911  0.2428
  496MOL0     C66867  11.286   7.032   3.825 -0.0002  1.4010 -0.6270
  496MOL0     C66868  11.228   7.046   3.672 -0.3253  0.1063  0.1579
  496MOL0    Cl66869  11.349   7.129   3.571 -0.2213 -0.2644  0.3414
  496MOL0     C66870  10.703   7.075   4.516 -0.9216 -0.6732  0.9046
  496MOL0     C66871  10.611   7.067   4.616 -0.0539 -0.3067 -0.2996
  496MOL0     O66872  10.643   7.091   5.035  0.3550 -0.3110 -0.6954
  496MOL0     C66873  10.415   7.021   5.193  0.0134 -0.3656 -0.3109
  496MOL0     C66874  10.297   7.003   5.262  0.4656 -0.4730  0.2732
  496MOL0     N66875   9.800   7.107   4.846  0.4821  0.5344  0.2393
  496MOL0     N66876   9.736   7.103   4.736 -0.0572 -0.2569 -0.8643
  496MOL0     C66877  10.203   6.729   4.647 -0.2883  0.2235 -0.4532
  496MOL0     C66878  10.342   6.746   4.645 -0.3463  0.3930  0.8506
  496MOL0     C66879  10.795   6.605   4.668  0.4271 -1.8001  0.6807
  496MOL0     C66880  10.838   6.665   4.544 -0.1088 -0.4301 -0.6929
  496MOL0     C66881  10.976   6.680   4.525 -0.3120 -0.0903 -0.0098
  496MOL0     C66882  11.072   6.633   4.618 -0.0406  0.1734 -0.0843
  496MOL0     O66883  11.208   6.652   4.602 -0.3519  0.0001  0.0610
  496MOL0     C66884  11.261   6.677   4.476  0.2494  1.4116  0.2619
  496MOL0     C66885  11.414   6.652   4.498  0.6793  0.1679 -0.2179
  496MOL0     C66886  11.496   6.670   4.372  0.6492 -0.1696 -0.9662
  496MOL0     C66887  11.454   6.578   4.264  0.5396 -0.2638 -0.1443
  496MOL0     C66888  11.540   6.598   4.143  0.2655  0.1431 -0.7310
  496MOL0     C66889  11.600   6.593   4.042  0.6428 -0.1640  0.1141
  496MOL0     C66890  11.026   6.567   4.731  0.5475  1.2050  1.5414
  496MOL0     C66891  10.893   6.546   4.753  0.1346  0.5282  0.1143
  496MOL0     C66892  10.858   6.479   4.886  0.1760 -0.2030  0.1118
  496MOL0     H66893  10.431   6.442   4.518  0.8291 -1.1310  2.9240
  496MOL0     H66894  10.180   6.432   4.498  0.1299  0.6837  0.7850
  496MOL0     H66895   9.956   6.572   4.376 -1.1601 -1.8325  0.1803
  496MOL0     H66896   9.963   6.431   4.469 -0.7241 -0.6173 -0.3603
  496MOL0     H66897   9.768   6.539   4.608 -2.7405 -1.2992 -0.8606
  496MOL0     H66898   9.752   6.434   4.470 -1.4305  0.8708 -2.1181
  496MOL0     H66899   9.635   6.604   4.349  1.1972  0.4894 -1.4295
  496MOL0     H66900   9.751   6.717   4.411 -2.0609  0.9480 -3.3272
  496MOL0     H66901   9.515   6.610   4.572 -0.8490  0.6080  1.2873
  496MOL0     H66902   9.653   6.704   4.635  1.6281  0.8505 -1.2228
  496MOL0     H66903   9.602   6.884   4.481 -0.8899  0.3291 -2.3997
  496MOL0     H66904   9.458   6.815   4.431  3.1053  0.1128 -1.7111
  496MOL0     H66905   9.371   6.814   4.684 -0.1046  1.4054 -1.9825
  496MOL0     H66906   9.539   6.857   4.733  1.5748  0.4891 -1.0464
  496MOL0     H66907   9.343   7.014   4.744 -1.0073 -1.1141 -0.5032
  496MOL0     H66908   9.331   7.019   4.576 -2.6968 -0.9543  1.4203
  496MOL0     H66909   9.562   7.101   4.557  2.3248 -1.3097  1.5731
  496MOL0     H66910   9.452   7.213   4.648 -1.0199 -0.6963 -0.6414
  496MOL0     H66911   9.508   7.230   4.937 -0.2793 -1.4197  2.1103
  496MOL0     H66912   9.797   7.327   5.061  1.8227  0.0149 -0.7208
  496MOL0     H66913   9.691   7.218   5.147 -2.0704 -2.0525 -1.8622
  496MOL0     H66914   9.865   7.031   5.108 -0.4432 -0.0939  2.9581
  496MOL0     H66915   9.986   7.168   5.086 -0.9804  1.5525 -0.6669
  496MOL0     H66916   9.832   7.064   5.313  1.4305 -1.0178  0.5318
  496MOL0     H66917   9.844   7.237   5.312  0.2855 -0.4233  0.9267
  496MOL0     H66918  10.037   7.120   5.429  2.6755 -2.0046 -0.9839
  496MOL0     H66919  10.106   7.194   5.290 -0.1747  0.6106 -1.7316
  496MOL0     H66920  10.077   6.961   5.008  0.4173  0.1964 -0.5164
  496MOL0     H66921  10.273   6.991   4.881 -3.5399  0.7578  0.2093
  496MOL0     H66922  10.802   6.979   4.880 -0.6840  1.5655  0.8920
  496MOL0     H66923  10.970   6.957   4.686  0.2667  0.5968 -0.6507
  496MOL0     H66924  11.113   7.116   4.559 -1.7742  0.6943 -0.5333
  496MOL0     H66925  11.082   6.945   4.532  1.5697  1.1811  0.0872
  496MOL0     H66926  11.160   7.173   4.342 -0.7652  0.7025  4.6703
  496MOL0     H66927  11.267   7.067   4.403  0.2715  2.4672  0.2430
  496MOL0     H66928  11.130   6.867   4.284 -1.3100 -0.0296 -1.3517
  496MOL0     H66929  11.058   6.992   4.186  0.0606 -2.1053 -0.6438
  496MOL0     H66930  11.354   6.943   4.227 -0.3361 -3.6971 -1.1508
  496MOL0     H66931  11.296   7.067   4.126 -3.4414  3.4028  4.9861
  496MOL0     H66932  11.167   6.789   4.074 -0.1820  0.3576  2.0862
  496MOL0     H66933  11.335   6.806   4.022 -1.0610 -4.0045  1.5144
  496MOL0     H66934  11.173   6.854   3.849 -0.3962  2.1017 -1.3901
  496MOL0     H66935  11.096   6.979   3.928  0.3608  0.6933 -0.5923
  496MOL0     H66936  11.384   6.985   3.815 -0.9667 -1.1817  0.8986
  496MOL0     H66937  11.284   7.132   3.867 -0.1548  1.7225 -1.3849
  496MOL0     H66938  11.201   6.944   3.644  1.8521 -1.1920  2.4022
  496MOL0     H66939  11.127   7.089   3.663 -1.8042 -3.3348 -1.4812
  496MOL0     H66940  10.680   7.120   4.419  1.6791  0.6391  0.7944
  496MOL0     H66941  10.510   7.095   4.586 -1.1033 -0.4461  2.7102
  496MOL0     H66942  10.509   7.039   5.244 -0.3273 -1.1887  0.6446
  496MOL0     H66943  10.301   7.024   5.369  0.1740  0.6220  0.0825
  496MOL0     H66944  10.145   6.819   4.667 -3.1876 -1.6577  0.2002
  496MOL0     H66945  10.391   6.828   4.696  0.9758 -0.1167  0.4556
  496MOL0     H66946  10.758   6.710   4.487 -1.2448  2.7920  3.0313
  496MOL0     H66947  10.996   6.728   4.430 -1.7374  1.5824  0.4712
  496MOL0     H66948  11.240   6.779   4.443  2.6291  1.4883 -1.2327
  496MOL0     H66949  11.217   6.596   4.418 -0.7173  0.5272  2.1305
  496MOL0     H66950  11.416   6.553   4.544  1.6065 -0.0375 -0.6748
  496MOL0     H66951  11.445   6.721   4.578 -2.9421  2.1581 -0.2736
  496MOL0     H66952  11.598   6.643   4.402  0.1324 -1.1586 -0.0580
  496MOL0     H66953  11.489   6.773   4.336  2.1590 -0.1967 -1.4203
  496MOL0     H66954  11.475   6.479   4.306  0.1124 -0.2415  0.1286
  496MOL0     H66955  11.356   6.608   4.228  1.9437  2.5979 -1.9760
  496MOL0     H66956  11.648   6.600   3.947 -2.1721 -1.0221 -1.4975
  496MOL0     H66957  11.094   6.538   4.810  2.6902  2.1009  0.1154
  496MOL0     H66958  10.942   6.461   4.954  3.3885  0.3171 -3.4224
  496MOL0     H66959  10.781   6.542   4.931 -1.0072  0.1869 -2.2874
  496MOL0     H66960  10.804   6.385   4.874  0.2886 -0.1101 -1.2229
  497MOL0     O66961   1.001   8.365   5.275  0.1635  0.0637  0.0137
  497MOL0     C66962   1.067   8.383   5.174 -1.1274 -0.3509 -0.6278
  497MOL0     O66963   1.194   8.335   5.157 -0.1482 -0.3149  0.1084
  497MOL0     C66964   1.268   8.283   5.258  0.2123 -0.7554  0.2282
  497MOL0     C66965   1.234   8.155   5.308  0.2361 -1.4011  0.8188
  497MOL0     C66966   1.306   8.116   5.425  0.6033  0.2884  0.5419
  497MOL0     C66967   1.410   8.186   5.487 -0.5223  0.3825 -0.1185
  497MOL0     O66968   1.483   8.140   5.588 -1.6257 -0.8995  0.6168
  497MOL0     C66969   1.427   8.044   5.675 -0.4644 -0.2911 -0.5437
  497MOL0     C66970   1.514   8.049   5.795 -0.3000  0.0011  0.2987
  497MOL0     C66971   1.494   7.935   5.895  0.6297  0.0281  0.3578
  497MOL0     C66972   1.519   7.960   6.041  0.1301  0.0502  0.5129
  497MOL0     C66973   1.660   8.019   6.064 -0.0682 -0.5136 -0.3240
  497MOL0     C66974   1.691   8.020   6.218  0.0846 -0.1143  0.9963
  497MOL0     C66975   1.835   8.085   6.238  0.0891 -0.2795  0.9521
  497MOL0     C66976   1.827   8.234   6.226 -0.7498  0.6159  1.0381
  497MOL0     N66977   1.732   8.298   6.321 -0.0199 -0.7572  0.1450
  497MOL0     C66978   1.757   8.317   6.450  0.3908  0.8626 -0.1798
  497MOL0     C66979   1.649   8.380   6.496 -1.2762  0.0868 -0.3583
  497MOL0     C66980   1.651   8.402   6.645  0.0862 -0.2493  0.3157
  497MOL0     C66981   1.747   8.516   6.681  0.3469 -0.9814  0.9432
  497MOL0     C66982   1.738   8.557   6.824  0.2680  0.6916 -0.8194
  497MOL0     C66983   1.731   8.434   6.926  0.6109 -0.1224  0.6594
  497MOL0     O66984   1.863   8.383   6.931 -0.8006  0.6003  0.4371
  497MOL0     C66985   1.905   8.265   6.993  0.9690 -0.0304  0.0823
  497MOL0     C66986   2.038   8.238   7.019  0.6617 -0.2814 -0.4158
  497MOL0     C66987   2.078   8.131   7.090  0.8808 -0.3845  0.2110
  497MOL0     C66988   1.995   8.059   7.166  0.3038  0.0775  1.0763
  497MOL0     C66989   2.041   7.954   7.257 -0.8124 -1.2457  0.4019
  497MOL0     O66990   1.954   7.905   7.344 -0.4485  0.3245  0.4372
  497MOL0     C66991   2.009   7.819   7.436  0.8068  0.1893 -0.7363
  497MOL0     C66992   1.990   7.681   7.439 -0.2663  0.0797  0.0701
  497MOL0     C66993   2.039   7.611   7.549  0.3272  0.0605 -0.2370
  497MOL0     C66994   2.092   7.677   7.662 -0.3078  0.1586 -1.2860
  497MOL0     O66995   2.150   7.614   7.766  0.8459  0.9639  0.1984
  497MOL0     C66996   2.049   7.578   7.862 -0.5070 -0.1863 -0.6481
  497MOL0     C66997   1.928   7.475   7.830  0.1437 -0.8308 -0.4890
  497MOL0     C66998   1.966   7.336   7.765  0.0219 -0.2056  0.3108
  497MOL0     C66999   1.834   7.263   7.742 -0.2635  0.2400 -0.3116
  497MOL0     C67000   1.854   7.127   7.674 -0.2505  0.2221  0.3928
  497MOL0     C67001   1.766   7.093   7.545  0.3067 -0.9269 -0.1506
  497MOL0     C67002   1.621   7.071   7.589  0.1935 -0.1483 -0.8017
  497MOL0     C67003   1.584   6.930   7.644  0.3588  0.3792 -0.8193
  497MOL0    Cl67004   1.404   6.929   7.680  0.0529 -0.2779 -0.0012
  497MOL0     C67005   2.111   7.808   7.662  0.4114  0.8102  0.3214
  497MOL0     C67006   2.065   7.881   7.555  1.1135 -0.0390 -0.1053
  497MOL0     O67007   2.159   7.924   7.261 -0.7472 -0.2277 -0.2694
  497MOL0     C67008   1.860   8.085   7.151 -0.4881  0.3577  0.6196
  497MOL0     C67009   1.813   8.181   7.059  0.8582  0.1850 -1.2890
  497MOL0     N67010   1.554   8.399   6.398 -0.1327  0.6736 -1.2487
  497MOL0     N67011   1.605   8.344   6.295 -0.2704  0.5453 -0.2554
  497MOL0     C67012   1.452   8.298   5.413 -0.2294  0.6219  0.4208
  497MOL0     C67013   1.381   8.352   5.310 -0.2646 -0.6235  0.0976
  497MOL0     C67014   1.012   8.473   5.072 -0.7927 -0.7669 -0.0447
  497MOL0     C67015   1.107   8.521   4.974 -0.0190  0.5249  0.4384
  497MOL0     C67016   1.061   8.585   4.864  0.0055 -0.2557  0.8187
  497MOL0     C67017   0.925   8.617   4.841 -0.6558  0.1990  0.1414
  497MOL0     O67018   0.882   8.680   4.727  0.2878  0.1961  0.2676
  497MOL0     C67019   0.755   8.730   4.709  1.1503 -0.3517 -0.2745
  497MOL0     C67020   0.777   8.829   4.591 -0.1330 -0.9899  0.4173
  497MOL0     C67021   0.795   8.974   4.646 -0.6671  0.8155  0.0726
  497MOL0     C67022   0.831   9.074   4.535  0.1301  0.9018  0.2750
  497MOL0     C67023   0.719   9.078   4.437 -0.1717 -0.2543 -0.2817
  497MOL0     C67024   0.626   9.107   4.372  0.3269  0.3310 -0.0337
  497MOL0     C67025   0.843   8.592   4.948  0.7381  0.4091  0.8789
  497MOL0     C67026   0.880   8.516   5.054 -0.3800 -0.5308  0.2655
  497MOL0     C67027   0.772   8.494   5.164  0.3162 -0.5154 -1.1425
  497MOL0     H67028   1.164   8.098   5.250 -2.4579  0.5024  1.9810
  497MOL0     H67029   1.280   8.020   5.467  3.0145 -0.3047  0.8172
  497MOL0     H67030   1.322   8.063   5.702  0.1858  0.3645  1.7374
  497MOL0     H67031   1.435   7.942   5.635  2.6064 -0.1162 -0.5624
  497MOL0     H67032   1.493   8.140   5.852 -1.6831  0.5473 -1.0353
  497MOL0     H67033   1.616   8.029   5.763 -0.6967 -1.3144 -0.2182
  497MOL0     H67034   1.549   7.846   5.862  1.3530  0.1692  1.1615
  497MOL0     H67035   1.389   7.913   5.874 -0.2176  3.3758  0.5407
  497MOL0     H67036   1.445   8.028   6.085 -3.0140 -1.0297 -2.6203
  497MOL0     H67037   1.500   7.869   6.099 -3.2268 -1.5804 -2.7249
  497MOL0     H67038   1.742   7.972   6.009  0.4209 -0.5801  0.4531
  497MOL0     H67039   1.661   8.122   6.029  0.4373 -0.0598  0.9480
  497MOL0     H67040   1.614   8.076   6.272 -3.6151 -2.7191 -1.1743
  497MOL0     H67041   1.687   7.917   6.256  0.4045  0.0254  1.4219
  497MOL0     H67042   1.911   8.046   6.171 -0.3716 -2.6097  1.7030
  497MOL0     H67043   1.878   8.059   6.335  1.7076  1.1936  0.6604
  497MOL0     H67044   1.930   8.269   6.232 -0.2531 -0.7666  0.9137
  497MOL0     H67045   1.793   8.262   6.126 -0.9926 -2.0138  0.3126
  497MOL0     H67046   1.844   8.279   6.503 -1.8228 -0.4809  2.7562
  497MOL0     H67047   1.547   8.427   6.669  1.1854  1.4779  3.9947
  497MOL0     H67048   1.693   8.311   6.689  1.6233 -1.0828 -2.6424
  497MOL0     H67049   1.851   8.485   6.671 -0.0562 -2.3289  0.7785
  497MOL0     H67050   1.726   8.606   6.623 -1.6130 -1.6413  0.5581
  497MOL0     H67051   1.647   8.618   6.830 -0.0081  0.1713  1.1510
  497MOL0     H67052   1.821   8.623   6.848  2.4936 -2.6185  1.6257
  497MOL0     H67053   1.647   8.364   6.915  0.8329 -0.3829  0.6069
  497MOL0     H67054   1.690   8.478   7.018 -1.5950 -2.2616  0.8124
  497MOL0     H67055   2.108   8.308   6.976  2.7127 -1.3945  0.9375
  497MOL0     H67056   2.185   8.113   7.101  0.5276 -0.7891  4.5167
  497MOL0     H67057   1.957   7.619   7.356  0.2380 -0.5213  0.3185
  497MOL0     H67058   2.025   7.504   7.547 -0.3735  0.1358  0.2654
  497MOL0     H67059   2.105   7.547   7.951 -1.2133  4.3116  1.6347
  497MOL0     H67060   2.000   7.672   7.887  3.3393  1.0816  3.5825
  497MOL0     H67061   1.874   7.460   7.924  1.8654  0.3510  0.7444
  497MOL0     H67062   1.868   7.529   7.756 -2.2826 -2.8446 -0.1187
  497MOL0     H67063   2.026   7.354   7.675 -1.2581 -0.6859 -0.6638
  497MOL0     H67064   2.028   7.277   7.833 -2.0088  0.3335  2.7887
  497MOL0     H67065   1.765   7.319   7.678 -2.5146 -1.8881  0.1130
  497MOL0     H67066   1.779   7.256   7.836  0.6548  1.2158  0.3263
  497MOL0     H67067   1.834   7.044   7.743  0.1479 -1.5683 -1.5314
  497MOL0     H67068   1.952   7.110   7.628 -0.7843  1.6723 -1.3699
  497MOL0     H67069   1.773   7.170   7.468  2.0319 -0.3180  0.5820
  497MOL0     H67070   1.798   6.998   7.500 -0.8955  0.0349 -3.2801
  497MOL0     H67071   1.578   7.081   7.489  1.5304  3.3270 -1.1941
  497MOL0     H67072   1.584   7.150   7.655  3.5888 -0.7199  2.1098
  497MOL0     H67073   1.603   6.851   7.571  0.8345  0.0359 -0.3308
  497MOL0     H67074   1.636   6.908   7.738  1.4651 -0.8609 -1.6913
  497MOL0     H67075   2.172   7.849   7.742 -0.5451  0.3676  1.2910
  497MOL0     H67076   2.069   7.988   7.571  0.2061 -0.3302  2.5421
  497MOL0     H67077   1.775   8.038   7.200 -2.5345  2.1844 -0.9748
  497MOL0     H67078   1.708   8.201   7.038  0.7791 -0.7569 -1.8426
  497MOL0     H67079   1.529   8.358   5.459  3.4836 -1.6434 -2.2876
  497MOL0     H67080   1.422   8.438   5.258  0.6272 -0.9895  0.1734
  497MOL0     H67081   1.214   8.505   4.967  0.3380  3.1599 -1.9284
  497MOL0     H67082   1.127   8.608   4.781 -1.2450 -2.8640 -1.0377
  497MOL0     H67083   0.712   8.791   4.788  0.9609  0.7742 -1.2222
  497MOL0     H67084   0.678   8.658   4.678 -1.2201  0.7248  2.7082
  497MOL0     H67085   0.683   8.826   4.535  0.5107 -0.1621 -0.7675
  497MOL0     H67086   0.858   8.802   4.522  0.9076  1.9866  0.3287
  497MOL0     H67087   0.885   8.960   4.707 -0.5989 -2.9449 -0.6752
  497MOL0     H67088   0.709   9.012   4.701 -0.9468 -1.0862  1.0306
  497MOL0     H67089   0.848   9.171   4.584 -0.0658 -0.0667  2.3499
  497MOL0     H67090   0.922   9.042   4.483 -1.8558 -2.2706 -1.5741
  497MOL0     H67091   0.554   9.142   4.301 -2.5862 -0.7340  2.2152
  497MOL0     H67092   0.741   8.629   4.947  0.7737  0.5018  0.3946
  497MOL0     H67093   0.694   8.570   5.155 -0.2531 -0.8204  0.8375
  497MOL0     H67094   0.724   8.396   5.165 -0.5634 -0.2070  2.7875
  497MOL0     H67095   0.812   8.515   5.264  1.2825  0.0110 -1.6219
  498MOL0     O67096   3.612   3.064   7.356 -0.1476 -0.1167  0.4858
  498MOL0     C67097   3.684   3.109   7.268 -0.1900  1.2058 -0.2122
  498MOL0     O67098   3.822   3.138   7.280  0.4995  0.1978 -0.2646
  498MOL0     C67099   3.901   3.120   7.392 -0.7475  0.0427  0.3273
  498MOL0     C67100   4.018   3.197   7.398 -0.3224 -0.5367 -0.0821
  498MOL0     C67101   4.096   3.198   7.515 -0.5432 -0.5602  0.7927
  498MOL0     C67102   4.065   3.105   7.614  0.2898 -0.6635  0.2552
  498MOL0     O67103   4.134   3.094   7.734  0.1042  0.5118 -0.1149
  498MOL0     C67104   4.277   3.072   7.724  0.3562  0.2614 -0.0276
  498MOL0     C67105   4.349   3.080   7.856 -0.0301 -0.0229  0.0080
  498MOL0     C67106   4.501   3.073   7.853  0.1804  0.5255 -0.2228
  498MOL0     C67107   4.561   3.110   7.994 -0.4821  1.2116  0.5847
  498MOL0     C67108   4.708   3.143   8.002 -0.4474 -0.4182  0.1903
  498MOL0     C67109   4.803   3.063   7.908 -1.0810  0.4289 -0.0803
  498MOL0     C67110   4.948   3.109   7.945 -0.4557 -0.1578  0.4554
  498MOL0     C67111   5.061   3.044   7.858 -0.6856 -0.2157 -0.8491
  498MOL0     N67112   5.063   3.075   7.719 -0.6684  0.6368  0.2664
  498MOL0     C67113   5.023   3.198   7.665 -0.2323 -0.3856  0.0560
  498MOL0     C67114   5.050   3.178   7.533 -0.8063 -0.8176 -0.2156
  498MOL0     C67115   5.045   3.292   7.432 -0.4721  0.5399 -0.3050
  498MOL0     C67116   4.991   3.256   7.289 -0.7198 -0.0155  0.1236
  498MOL0     C67117   5.071   3.145   7.220 -0.5246 -0.6643 -0.5094
  498MOL0     C67118   5.032   3.131   7.070 -0.1406 -0.2307  0.0995
  498MOL0     O67119   4.909   3.069   7.059  0.2533 -0.6412 -0.5604
  498MOL0     C67120   4.881   2.942   7.109 -0.1308  0.2721  0.2345
  498MOL0     C67121   4.755   2.918   7.162  0.6271 -0.3667  0.9217
  498MOL0     C67122   4.696   2.790   7.185  0.6802  0.1940  0.1904
  498MOL0     C67123   4.776   2.680   7.166 -0.2935  0.2246 -0.2088
  498MOL0     C67124   4.735   2.544   7.194 -0.7091 -0.7137  0.4760
  498MOL0     O67125   4.814   2.439   7.145 -0.1238 -0.0731  1.3092
  498MOL0     C67126   4.796   2.312   7.181 -0.4867 -1.7027 -0.8027
  498MOL0     C67127   4.801   2.213   7.084  0.0822 -0.0728 -0.8500
  498MOL0     C67128   4.799   2.082   7.119  1.0324  0.3824  0.8177
  498MOL0     C67129   4.794   2.042   7.249 -0.0848 -0.4077 -0.4273
  498MOL0     O67130   4.810   1.908   7.275  0.1168 -0.1491 -0.3152
  498MOL0     C67131   4.811   1.849   7.407  0.4786 -0.1198 -0.0330
  498MOL0     C67132   4.897   1.726   7.406 -0.4733  0.3662  1.0027
  498MOL0     C67133   4.936   1.685   7.551  0.2054 -0.2789 -0.0651
  498MOL0     C67134   5.045   1.583   7.553  0.3209  0.2712  0.7245
  498MOL0     C67135   5.121   1.581   7.686 -0.0056 -0.0599 -0.4109
  498MOL0     C67136   5.247   1.495   7.701  0.5563 -0.3922  0.8857
  498MOL0     C67137   5.373   1.572   7.744  0.8503 -0.0831  1.1320
  498MOL0     C67138   5.376   1.624   7.886  0.5234 -0.0217  0.1716
  498MOL0    Cl67139   5.513   1.745   7.901 -0.0727 -0.1234 -0.6382
  498MOL0     C67140   4.801   2.147   7.348 -0.9870  0.8877  0.6759
  498MOL0     C67141   4.792   2.278   7.317  0.3861 -0.4805 -1.1448
  498MOL0     O67142   4.643   2.530   7.268 -0.1793 -0.5013 -0.7634
  498MOL0     C67143   4.902   2.709   7.111 -0.8635  0.9585 -0.7244
  498MOL0     C67144   4.961   2.830   7.078 -0.2076 -0.4060 -0.0533
  498MOL0     N67145   5.106   3.053   7.516 -0.3850 -0.4608  0.3724
  498MOL0     N67146   5.118   3.002   7.626 -0.3735 -1.1601 -0.5616
  498MOL0     C67147   3.956   3.023   7.608  1.1066 -0.0102  0.1998
  498MOL0     C67148   3.879   3.023   7.497  0.0560 -0.3410  1.4155
  498MOL0     C67149   3.628   3.136   7.129  0.3490  1.5347  0.0410
  498MOL0     C67150   3.694   3.226   7.045 -0.2272  0.3467 -0.2774
  498MOL0     C67151   3.644   3.253   6.921  0.2868  0.3478  0.3112
  498MOL0     C67152   3.541   3.174   6.864 -0.0346 -0.0716 -0.2633
  498MOL0     O67153   3.509   3.210   6.738 -0.3004  0.1677 -0.2699
  498MOL0     C67154   3.433   3.117   6.659  0.7942 -0.5550 -0.5204
  498MOL0     C67155   3.424   3.153   6.504  0.2519  0.4280 -0.6596
  498MOL0     C67156   3.369   3.300   6.475  0.1148 -0.0503  0.8503
  498MOL0     C67157   3.421   3.362   6.338  0.1141 -0.5193 -1.0868
  498MOL0     C67158   3.389   3.268   6.228  0.1125 -0.1803  0.3829
  498MOL0     C67159   3.363   3.197   6.129  0.3655  0.2020  0.4624
  498MOL0     C67160   3.474   3.072   6.936 -1.3892  0.5868 -0.3004
  498MOL0     C67161   3.514   3.060   7.072  0.0997  0.5090  0.0931
  498MOL0     C67162   3.429   2.973   7.173  0.7652 -1.1073  0.5341
  498MOL0     H67163   4.054   3.268   7.325  3.3383  0.7086  2.6299
  498MOL0     H67164   4.179   3.261   7.544  0.1157 -1.5888  1.1953
  498MOL0     H67165   4.295   2.978   7.671 -2.0894  1.7104 -3.8484
  498MOL0     H67166   4.317   3.150   7.659  0.8998 -0.0280 -0.0497
  498MOL0     H67167   4.314   3.001   7.923 -1.5187 -0.7083 -1.5200
  498MOL0     H67168   4.323   3.178   7.898  1.2228  0.1190  0.5048
  498MOL0     H67169   4.545   3.153   7.794  1.2309  0.4454  0.4328
  498MOL0     H67170   4.534   2.973   7.821 -0.0636  0.4619 -0.2773
  498MOL0     H67171   4.511   3.201   8.027  0.2552  1.3108  1.4748
  498MOL0     H67172   4.529   3.029   8.060  1.2361 -0.6717 -0.7425
  498MOL0     H67173   4.723   3.250   7.988  3.1443 -1.0941 -2.3138
  498MOL0     H67174   4.736   3.118   8.105  1.7930 -0.5066 -0.3898
  498MOL0     H67175   4.803   2.954   7.910 -4.0512  0.1075 -4.2657
  498MOL0     H67176   4.768   3.097   7.810 -0.2952  0.9757 -0.1857
  498MOL0     H67177   4.965   3.080   8.049 -1.4785  4.2725  2.0575
  498MOL0     H67178   4.956   3.218   7.942 -2.7496  0.0229 -0.8363
  498MOL0     H67179   5.155   3.062   7.911 -2.3527  1.1581  1.8803
  498MOL0     H67180   5.051   2.935   7.858  3.0970 -0.6785 -0.5610
  498MOL0     H67181   4.968   3.271   7.722  0.4734 -2.2272  3.3549
  498MOL0     H67182   4.987   3.377   7.470 -1.3691 -0.1582 -0.0634
  498MOL0     H67183   5.145   3.336   7.431 -1.8567  4.0427 -0.0481
  498MOL0     H67184   4.884   3.232   7.297 -1.1778  2.0699  1.0006
  498MOL0     H67185   4.998   3.350   7.235  1.2318  1.0390  2.0842
  498MOL0     H67186   5.077   3.052   7.278  1.8270 -0.4785 -0.3594
  498MOL0     H67187   5.175   3.178   7.219 -0.3794 -1.0650 -2.1938
  498MOL0     H67188   5.102   3.066   7.018 -1.0272 -0.2743 -1.0695
  498MOL0     H67189   5.040   3.229   7.023 -0.6614 -0.2685 -0.0734
  498MOL0     H67190   4.697   3.008   7.179  0.7035 -0.3806  1.2658
  498MOL0     H67191   4.598   2.774   7.230  1.6502 -3.5575  1.3659
  498MOL0     H67192   4.779   2.234   6.979 -0.5613  0.2522 -0.6579
  498MOL0     H67193   4.797   2.007   7.041  0.2761 -1.3333  2.4237
  498MOL0     H67194   4.858   1.905   7.488  2.7246 -1.2437 -0.4701
  498MOL0     H67195   4.709   1.828   7.439  0.1696  0.8516 -0.3690
  498MOL0     H67196   4.848   1.643   7.353 -1.3751  0.7465  1.2200
  498MOL0     H67197   4.978   1.758   7.340 -0.0234 -0.7766  0.9718
  498MOL0     H67198   4.963   1.771   7.613 -1.0375  0.1859 -0.1217
  498MOL0     H67199   4.845   1.651   7.602  1.5995 -0.8282  2.1535
  498MOL0     H67200   5.107   1.590   7.463 -1.1937 -5.1789 -1.0875
  498MOL0     H67201   5.005   1.483   7.538  1.5786  0.0601 -1.7754
  498MOL0     H67202   5.048   1.552   7.763  0.8842 -1.0557  0.0720
  498MOL0     H67203   5.147   1.684   7.712 -0.4154 -0.3358  1.2218
  498MOL0     H67204   5.215   1.418   7.772 -1.0085  0.6641  1.3785
  498MOL0     H67205   5.276   1.447   7.607 -1.5825 -2.9523  1.4245
  498MOL0     H67206   5.394   1.649   7.670 -1.2382 -0.1616  0.3928
  498MOL0     H67207   5.453   1.498   7.731  0.0506 -0.5926 -1.5149
  498MOL0     H67208   5.289   1.680   7.922  1.0361 -1.0650  3.3423
  498MOL0     H67209   5.390   1.539   7.953 -1.8943  1.2842  2.5548
  498MOL0     H67210   4.805   2.111   7.451  1.0743 -1.1769 -0.0423
  498MOL0     H67211   4.786   2.340   7.406 -2.6033 -4.2401  1.6421
  498MOL0     H67212   4.972   2.633   7.079 -0.6536  0.2721  1.2409
  498MOL0     H67213   5.056   2.831   7.027  0.2350 -1.7228  0.7016
  498MOL0     H67214   3.946   2.949   7.686  3.4936 -3.6172 -2.5727
  498MOL0     H67215   3.803   2.947   7.478  1.8036 -1.6686 -0.6656
  498MOL0     H67216   3.786   3.274   7.077  0.1816  0.5737 -1.7354
  498MOL0     H67217   3.687   3.328   6.856 -2.4585 -0.7393 -3.0482
  498MOL0     H67218   3.333   3.093   6.695  0.0426  0.6296 -1.7333
  498MOL0     H67219   3.488   3.022   6.661  1.8656  0.0436 -0.5041
  498MOL0     H67220   3.362   3.079   6.451 -1.5511  0.2635  1.5262
  498MOL0     H67221   3.521   3.142   6.453  0.1075 -0.0233 -0.8478
  498MOL0     H67222   3.377   3.367   6.561  0.0553  0.4402  0.4806
  498MOL0     H67223   3.260   3.292   6.475  0.1618 -1.3301  2.2535
  498MOL0     H67224   3.372   3.458   6.320  0.6354  0.1908  0.9887
  498MOL0     H67225   3.529   3.380   6.332  0.7646 -3.4867 -0.0318
  498MOL0     H67226   3.355   3.148   6.034 -0.0110  0.6159  0.2764
  498MOL0     H67227   3.402   3.006   6.889  0.6373 -0.3798 -2.2627
  498MOL0     H67228   3.371   3.039   7.238 -1.6519 -2.3196 -0.2297
  498MOL0     H67229   3.339   2.919   7.142 -1.4611 -1.4806  6.3849
  498MOL0     H67230   3.492   2.906   7.232  1.3019 -2.4996 -1.4998
  499MOL0     O67231   6.309   8.960   7.144  0.0616 -0.2171 -0.0545
  499MOL0     C67232   6.365   8.881   7.065  0.6193 -0.0334  0.1450
  499MOL0     O67233   6.418   8.763   7.101 -0.0885  0.4244  0.1564
  499MOL0     C67234   6.471   8.679   7.010  0.4186 -0.2851  1.6387
  499MOL0     C67235   6.608   8.670   6.999 -0.3608 -0.1532  0.3012
  499MOL0     C67236   6.670   8.601   6.895  0.2461 -0.4857  0.5837
  499MOL0     C67237   6.595   8.524   6.799  0.4473 -0.0573  0.4047
  499MOL0     O67238   6.654   8.464   6.691  0.6111  0.5895 -0.6941
  499MOL0     C67239   6.715   8.339   6.732  0.1064 -0.4845 -0.8451
  499MOL0     C67240   6.812   8.284   6.629 -0.6544  0.5022 -0.6452
  499MOL0     C67241   6.747   8.253   6.494  0.8996  0.4862  0.5804
  499MOL0     C67242   6.852   8.200   6.393 -0.6368 -0.6753 -0.5735
  499MOL0     C67243   6.786   8.142   6.271 -1.4220  0.0592  0.1175
  499MOL0     C67244   6.689   8.028   6.295 -0.4566  0.7258  0.0445
  499MOL0     C67245   6.668   7.955   6.165  0.0503  0.5259 -0.2578
  499MOL0     C67246   6.584   7.820   6.177 -0.1927  0.1334  0.8288
  499MOL0     N67247   6.441   7.844   6.180  0.3702 -0.1309  0.0508
  499MOL0     C67248   6.358   7.788   6.085 -0.2817 -0.3534  0.5074
  499MOL0     C67249   6.232   7.823   6.121 -0.7551  1.1812  0.3849
  499MOL0     C67250   6.108   7.753   6.052  0.4260  0.1140  0.0111
  499MOL0     C67251   6.027   7.834   5.953  1.0966 -0.0734  0.0933
  499MOL0     C67252   6.115   7.920   5.848  0.6231  0.0529 -0.5240
  499MOL0     C67253   6.037   8.000   5.750  0.2446  0.5879 -0.1981
  499MOL0     O67254   6.011   8.123   5.817  0.6929  0.4382 -0.1427
  499MOL0     C67255   5.955   8.225   5.740 -0.0169  0.4506 -0.6901
  499MOL0     C67256   5.859   8.215   5.640 -0.4351 -0.0319  0.0030
  499MOL0     C67257   5.796   8.324   5.583  0.2243  0.9238 -0.6820
  499MOL0     C67258   5.823   8.450   5.643 -0.8246  0.0918  0.1296
  499MOL0     C67259   5.773   8.572   5.585 -0.0723 -0.2344  0.0036
  499MOL0     O67260   5.780   8.687   5.662  0.3559 -0.3118  0.9625
  499MOL0     C67261   5.789   8.813   5.598  0.1755  0.5413 -0.0820
  499MOL0     C67262   5.739   8.916   5.673 -0.0539  0.2797 -0.6823
  499MOL0     C67263   5.760   9.050   5.640 -0.5820  0.0988  0.7438
  499MOL0     C67264   5.809   9.082   5.508  0.8545 -0.5036  0.3413
  499MOL0     O67265   5.784   9.216   5.468 -0.3679 -0.0903  0.0545
  499MOL0     C67266   5.803   9.247   5.325  0.0708  0.3522  0.2477
  499MOL0     C67267   5.768   9.393   5.303 -0.0869  0.0060  0.2966
  499MOL0     C67268   5.857   9.499   5.353  0.0174 -0.5916  0.2954
  499MOL0     C67269   5.806   9.641   5.314 -0.7551  0.3081 -0.4316
  499MOL0     C67270   5.699   9.706   5.392 -0.6749 -0.1904 -0.3193
  499MOL0     C67271   5.670   9.851   5.372 -0.4792 -0.6776  0.4549
  499MOL0     C67272   5.554   9.903   5.457  0.0207  0.5994  0.4341
  499MOL0     C67273   5.424   9.919   5.375 -0.3567 -0.4198  0.7234
  499MOL0    Cl67274   5.308   9.956   5.506  0.0553  0.0686 -0.0813
  499MOL0     C67275   5.860   8.978   5.424  0.3446  0.2192  1.0361
  499MOL0     C67276   5.844   8.844   5.472 -0.7014  1.4280 -0.5271
  499MOL0     O67277   5.736   8.561   5.466 -0.2560  0.0775 -1.1558
  499MOL0     C67278   5.921   8.458   5.741 -0.4035 -0.6826  1.0100
  499MOL0     C67279   5.984   8.351   5.792 -0.5158  0.1250  0.4519
  499MOL0     N67280   6.243   7.898   6.235 -0.2750  0.3116 -0.5790
  499MOL0     N67281   6.372   7.927   6.264 -0.5812 -0.2952 -0.0728
  499MOL0     C67282   6.459   8.518   6.828 -0.0656  0.0410  0.3185
  499MOL0     C67283   6.395   8.587   6.927 -0.0728 -0.0395 -0.3540
  499MOL0     C67284   6.400   8.953   6.936  0.6724  0.3386 -0.0051
  499MOL0     C67285   6.529   9.003   6.911 -0.2244 -0.4326  0.0049
  499MOL0     C67286   6.564   9.075   6.796 -0.1224 -0.5044 -0.9993
  499MOL0     C67287   6.456   9.109   6.716 -0.1183 -0.1744  0.3625
  499MOL0     O67288   6.485   9.183   6.602  0.6636  0.6046 -0.5031
  499MOL0     C67289   6.386   9.231   6.508  0.0550 -0.2904  0.2958
  499MOL0     C67290   6.353   9.377   6.528 -0.4350 -0.7122  0.1762
  499MOL0     C67291   6.475   9.462   6.573 -0.1508  0.0744  0.3792
  499MOL0     C67292   6.451   9.621   6.553 -0.1196 -0.2878 -0.0963
  499MOL0     C67293   6.334   9.676   6.615 -0.8671  1.2717 -0.5702
  499MOL0     C67294   6.244   9.707   6.692 -0.6354 -0.3911 -0.7114
  499MOL0     C67295   6.336   9.065   6.738 -0.1058  0.7795  0.1662
  499MOL0     C67296   6.306   8.980   6.850  0.2891 -0.3397  0.7403
  499MOL0     C67297   6.162   8.945   6.866  0.5849  0.2616  0.1473
  499MOL0     H67298   6.679   8.724   7.061  0.4622  0.5222 -1.1685
  499MOL0     H67299   6.778   8.593   6.885  0.0111 -2.5136 -1.3588
  499MOL0     H67300   6.765   8.347   6.829 -2.0805  1.8711  0.2099
  499MOL0     H67301   6.643   8.256   6.738  1.3550 -1.5190  0.4546
  499MOL0     H67302   6.860   8.196   6.671  0.5349  1.0731 -0.7799
  499MOL0     H67303   6.885   8.364   6.613  0.9990 -0.8718 -0.2806
  499MOL0     H67304   6.696   8.344   6.460  1.8574  0.5948 -0.6087
  499MOL0     H67305   6.673   8.177   6.522  0.7220  1.3697  2.7937
  499MOL0     H67306   6.928   8.268   6.355 -1.0238 -0.8159 -1.6479
  499MOL0     H67307   6.900   8.117   6.446  0.8695  0.7411  0.3754
  499MOL0     H67308   6.738   8.220   6.211  0.9396  0.7363 -1.0503
  499MOL0     H67309   6.877   8.117   6.215 -1.3166  1.6682 -0.4631
  499MOL0     H67310   6.730   7.963   6.373 -2.2867 -0.8401 -0.2303
  499MOL0     H67311   6.598   8.065   6.341 -1.0630  1.0602 -1.3597
  499MOL0     H67312   6.759   7.916   6.120 -0.0364 -1.1736  0.9228
  499MOL0     H67313   6.617   8.020   6.093 -0.8186  1.6247  1.2797
  499MOL0     H67314   6.603   7.751   6.094  2.5612  1.3142  0.3766
  499MOL0     H67315   6.619   7.776   6.271  0.1685  1.7005  1.4574
  499MOL0     H67316   6.363   7.734   5.991 -1.5305 -0.3012  0.3878
  499MOL0     H67317   6.135   7.656   6.009  0.2136  1.0576 -2.4038
  499MOL0     H67318   6.033   7.726   6.128  0.2776 -2.6017 -0.9602
  499MOL0     H67319   5.970   7.762   5.895 -2.5716  1.3568  1.6082
  499MOL0     H67320   5.962   7.897   6.015  1.0267  0.5555 -0.6014
  499MOL0     H67321   6.182   7.860   5.787 -0.4938 -0.6542 -1.0905
  499MOL0     H67322   6.175   7.986   5.912  0.3615 -1.0932  0.9703
  499MOL0     H67323   5.953   7.947   5.704  2.0072 -1.8360 -0.8406
  499MOL0     H67324   6.102   8.036   5.670 -1.8726  1.0169 -1.8127
  499MOL0     H67325   5.843   8.117   5.595 -1.3888 -0.1982  0.6753
  499MOL0     H67326   5.740   8.310   5.491  3.8501  2.4704 -3.4037
  499MOL0     H67327   5.682   8.886   5.761  1.5946 -2.5755 -0.4375
  499MOL0     H67328   5.724   9.127   5.708 -1.5071 -1.1498  1.7263
  499MOL0     H67329   5.908   9.230   5.299 -0.1416  0.5451 -0.7700
  499MOL0     H67330   5.740   9.181   5.266  1.2988 -0.2495 -0.4436
  499MOL0     H67331   5.759   9.415   5.196 -2.1209  3.8977  1.0634
  499MOL0     H67332   5.676   9.413   5.359 -1.0825  0.8812 -1.5271
  499MOL0     H67333   5.873   9.484   5.461  1.9887 -0.4015  0.0773
  499MOL0     H67334   5.956   9.476   5.312  0.2721 -1.8532  1.5169
  499MOL0     H67335   5.773   9.626   5.210  0.6907 -0.3673 -0.8143
  499MOL0     H67336   5.898   9.699   5.322  0.6198 -1.8869  0.6242
  499MOL0     H67337   5.714   9.687   5.499 -1.7925 -1.1092 -0.3026
  499MOL0     H67338   5.600   9.664   5.375 -1.5253  1.5086  0.2076
  499MOL0     H67339   5.751   9.924   5.377 -2.0301  1.2010 -0.5407
  499MOL0     H67340   5.641   9.849   5.266 -2.7427 -1.8770  1.0232
  499MOL0     H67341   5.582  10.001   5.495  0.0883 -0.3648  3.0818
  499MOL0     H67342   5.535   9.829   5.536  0.8339 -0.4109 -0.2868
  499MOL0     H67343   5.419   9.995   5.297 -1.3167 -1.1044  0.0985
  499MOL0     H67344   5.392   9.826   5.327 -0.5126  0.3759 -0.7582
  499MOL0     H67345   5.904   8.987   5.325 -1.2004 -2.6449 -0.0406
  499MOL0     H67346   5.886   8.761   5.416 -0.4769  0.6044  0.8110
  499MOL0     H67347   5.930   8.547   5.802  2.7223 -1.1629  1.4299
  499MOL0     H67348   6.058   8.359   5.871 -2.2700  3.5051  1.9734
  499MOL0     H67349   6.394   8.449   6.776  1.3675 -0.6728 -0.5639
  499MOL0     H67350   6.288   8.597   6.944  0.0137 -1.4493  1.2440
  499MOL0     H67351   6.603   8.991   6.990 -0.7579  0.5429  0.6809
  499MOL0     H67352   6.660   9.122   6.777 -1.0785  2.0824  0.0612
  499MOL0     H67353   6.290   9.179   6.511 -0.5124  0.7894  2.3918
  499MOL0     H67354   6.418   9.216   6.404 -1.9709 -0.0402 -0.4174
  499MOL0     H67355   6.268   9.392   6.595 -1.1404 -1.6293 -0.4902
  499MOL0     H67356   6.313   9.423   6.437  2.3880  0.9326 -0.3914
  499MOL0     H67357   6.567   9.427   6.526 -0.0778 -0.9216  1.2331
  499MOL0     H67358   6.500   9.447   6.678 -0.7242  0.3181  0.5575
  499MOL0     H67359   6.533   9.679   6.596 -0.6595  0.1631  0.3470
  499MOL0     H67360   6.434   9.635   6.446  1.2809  0.4568 -0.2477
  499MOL0     H67361   6.172   9.737   6.767 -0.8944 -0.9289 -0.7402
  499MOL0     H67362   6.251   9.095   6.678  1.4563  2.7640 -1.1714
  499MOL0     H67363   6.144   8.837   6.863 -3.1266  0.7188  0.8833
  499MOL0     H67364   6.113   8.981   6.957  1.7697  2.9338 -0.1672
  499MOL0     H67365   6.108   8.999   6.788  3.7774  1.9557 -1.0920
  500MOL0     O67366   1.499   3.571   1.626 -0.3481 -0.7440  0.1998
  500MOL0     C67367   1.539   3.515   1.519  0.8274 -0.0010  0.4743
  500MOL0     O67368   1.664   3.453   1.499  0.3597 -0.5935 -0.3900
  500MOL0     C67369   1.771   3.478   1.581 -0.0086 -0.0142 -0.4353
  500MOL0     C67370   1.894   3.491   1.511  0.4023 -0.4906 -0.0012
  500MOL0     C67371   2.011   3.502   1.578  0.1132  0.2807  0.4356
  500MOL0     C67372   2.012   3.511   1.715 -0.5509 -0.7798  0.1905
  500MOL0     O67373   2.132   3.530   1.782 -0.0407 -0.3928  0.9401
  500MOL0     C67374   2.215   3.638   1.730  0.6382 -0.4681  0.4093
  500MOL0     C67375   2.169   3.781   1.773 -0.1711 -0.8711  1.1280
  500MOL0     C67376   2.150   3.779   1.931  0.2750  0.4649 -0.2773
  500MOL0     C67377   2.104   3.925   1.969 -0.5383  0.5782  0.5460
  500MOL0     C67378   2.117   3.953   2.117  0.3779 -0.6385  0.1583
  500MOL0     C67379   2.024   3.872   2.207 -0.2199  0.6935  1.4376
  500MOL0     C67380   2.004   3.934   2.333  0.8054  0.2340 -0.1411
  500MOL0     C67381   1.939   3.827   2.430 -0.2452 -0.3341 -0.6645
  500MOL0     N67382   1.831   3.739   2.386 -0.1319 -0.3244 -0.6300
  500MOL0     C67383   1.730   3.771   2.298 -0.3056  0.6032  0.1242
  500MOL0     C67384   1.676   3.660   2.253  0.2631  0.0983 -0.0667
  500MOL0     C67385   1.574   3.667   2.137 -0.6254 -0.0745  0.6718
  500MOL0     C67386   1.653   3.684   2.006  0.6622 -0.5984  0.2477
  500MOL0     C67387   1.652   3.837   1.962 -0.3380  0.2770 -0.3004
  500MOL0     C67388   1.702   3.841   1.821 -0.1189 -0.2805 -0.1000
  500MOL0     O67389   1.700   3.975   1.773  0.3774  0.1541  1.0204
  500MOL0     C67390   1.734   4.013   1.641  0.2821 -0.3479  0.0519
  500MOL0     C67391   1.758   4.151   1.620  0.4538  0.8730 -0.2609
  500MOL0     C67392   1.804   4.187   1.491  1.0999  0.0597 -1.0672
  500MOL0     C67393   1.816   4.096   1.382 -0.2749  0.9749 -1.1806
  500MOL0     C67394   1.846   4.145   1.245  0.2552 -0.7059 -0.4832
  500MOL0     O67395   1.798   4.068   1.142  0.6333 -0.3718 -1.4028
  500MOL0     C67396   1.804   4.116   1.015  0.1471 -0.8752  0.4384
  500MOL0     C67397   1.700   4.094   0.928  0.1764  0.3392 -1.8631
  500MOL0     C67398   1.711   4.118   0.791  0.4335 -0.7486 -0.3851
  500MOL0     C67399   1.830   4.158   0.732  0.5263  0.6123 -0.2835
  500MOL0     O67400   1.834   4.181   0.601  0.1008 -0.2364  0.0565
  500MOL0     C67401   1.886   4.305   0.564 -0.6837 -0.0338  0.7144
  500MOL0     C67402   1.862   4.322   0.409 -0.0721  0.2916  0.1845
  500MOL0     C67403   1.983   4.267   0.335  0.6520 -0.2326 -0.0084
  500MOL0     C67404   1.930   4.267   0.190  0.4339 -0.6361 -0.0935
  500MOL0     C67405   2.016   4.177   0.104 -0.4627  0.6361  0.3940
  500MOL0     C67406   1.946   4.168  -0.031 -0.0226 -1.0751 -0.1984
  500MOL0     C67407   2.017   4.077  -0.128  0.1931 -0.6611  1.0924
  500MOL0     C67408   2.088   4.153  -0.244 -0.3743 -0.6876 -0.4935
  500MOL0    Cl67409   2.138   4.049  -0.370 -0.7023 -0.0619  0.7256
  500MOL0     C67410   1.941   4.185   0.814  0.3514 -0.6880 -0.1053
  500MOL0     C67411   1.926   4.154   0.955 -0.6702 -0.3800 -0.1119
  500MOL0     O67412   1.903   4.251   1.226  0.0280  0.2113  0.0123
  500MOL0     C67413   1.779   3.964   1.411  0.3348  1.1282  1.2308
  500MOL0     C67414   1.742   3.922   1.537  0.0918 -0.4269  0.1785
  500MOL0     N67415   1.726   3.557   2.335 -0.6871 -0.6645 -0.0021
  500MOL0     N67416   1.827   3.603   2.411 -0.9145  0.4922  0.5140
  500MOL0     C67417   1.892   3.494   1.787  0.0495 -0.1002 -0.8103
  500MOL0     C67418   1.775   3.478   1.715  0.6318 -0.2604 -0.8057
  500MOL0     C67419   1.442   3.528   1.405 -0.7246  0.8327 -0.6338
  500MOL0     C67420   1.322   3.610   1.407  1.5876  0.0124 -0.1403
  500MOL0     C67421   1.243   3.622   1.303  0.7324 -1.0282  0.4571
  500MOL0     C67422   1.264   3.557   1.184 -0.2655  0.8919  0.3101
  500MOL0     O67423   1.185   3.610   1.085 -1.4571 -1.0687 -0.9184
  500MOL0     C67424   1.201   3.556   0.952 -0.2223 -0.2817  1.7937
  500MOL0     C67425   1.147   3.410   0.909  0.4680 -0.7762  0.1715
  500MOL0     C67426   1.007   3.388   0.957 -0.4766 -0.3241 -0.4101
  500MOL0     C67427   0.963   3.255   0.911 -0.2527 -0.0429 -0.1788
  500MOL0     C67428   0.854   3.190   0.986  0.2933  0.2351 -0.1055
  500MOL0     C67429   0.761   3.132   1.035  0.1622  0.6559  0.7711
  500MOL0     C67430   1.376   3.467   1.184  0.0580  0.8471  1.0770
  500MOL0     C67431   1.468   3.454   1.288 -0.2401 -0.5278  0.2714
  500MOL0     C67432   1.562   3.336   1.268 -0.2000  1.2948 -0.0074
  500MOL0     H67433   1.893   3.496   1.402 -3.0265  2.0598 -0.0205
  500MOL0     H67434   2.108   3.506   1.530 -0.2296 -0.5135 -0.3576
  500MOL0     H67435   2.312   3.615   1.773  1.1509 -1.6773 -1.2965
  500MOL0     H67436   2.235   3.644   1.623 -0.3267  0.6467  0.2657
  500MOL0     H67437   2.072   3.803   1.726  1.1897 -1.8834 -2.4534
  500MOL0     H67438   2.241   3.851   1.732 -3.2131  0.6950 -2.1002
  500MOL0     H67439   2.236   3.763   1.996  1.3408  0.5648 -1.6202
  500MOL0     H67440   2.069   3.717   1.971 -0.7303  3.0064  1.9171
  500MOL0     H67441   2.173   3.986   1.909 -2.3312  1.5986 -0.5692
  500MOL0     H67442   2.010   3.952   1.919 -0.5116 -0.1588  0.0669
  500MOL0     H67443   2.217   3.936   2.158 -0.4424  0.1836  2.5974
  500MOL0     H67444   2.097   4.060   2.127 -0.2792 -0.7333 -0.0832
  500MOL0     H67445   1.929   3.856   2.155 -0.2952  2.6874  0.8675
  500MOL0     H67446   2.072   3.775   2.225 -1.1319 -0.9327 -3.2712
  500MOL0     H67447   1.929   4.013   2.323  1.5411  0.9351 -0.2193
  500MOL0     H67448   2.096   3.979   2.372  0.8538  0.0942 -0.0925
  500MOL0     H67449   2.021   3.763   2.463  0.4540  0.7081 -0.3020
  500MOL0     H67450   1.908   3.882   2.520 -0.1057 -2.9048  1.0598
  500MOL0     H67451   1.700   3.869   2.260 -2.1283 -0.3693 -1.1196
  500MOL0     H67452   1.517   3.573   2.136 -0.5293 -0.1381 -0.3597
  500MOL0     H67453   1.501   3.747   2.153  0.3465  1.4027 -1.7398
  500MOL0     H67454   1.753   3.641   2.011  1.2126  0.6301  0.1974
  500MOL0     H67455   1.602   3.624   1.930 -0.6267  1.7984 -0.9162
  500MOL0     H67456   1.721   3.898   2.021  1.2567 -2.6525  1.1157
  500MOL0     H67457   1.548   3.869   1.956 -0.6609 -0.8663 -1.1509
  500MOL0     H67458   1.638   3.778   1.758 -0.2680 -0.5908  0.3553
  500MOL0     H67459   1.808   3.813   1.818  0.6383  2.3654  0.2967
  500MOL0     H67460   1.746   4.207   1.712 -1.7448 -0.7924  0.5402
  500MOL0     H67461   1.810   4.294   1.471 -0.6082  0.1762 -1.1713
  500MOL0     H67462   1.601   4.059   0.955  1.4458 -1.9351  0.2126
  500MOL0     H67463   1.626   4.102   0.725 -0.3415  0.0795  0.3801
  500MOL0     H67464   1.839   4.377   0.632 -0.7145 -2.1885  3.1080
  500MOL0     H67465   1.994   4.318   0.578 -0.9769  3.0412  0.8612
  500MOL0     H67466   1.769   4.267   0.390  0.4911 -0.7433  0.3704
  500MOL0     H67467   1.851   4.427   0.379  0.0599  0.2398 -0.0518
  500MOL0     H67468   2.054   4.350   0.347  1.9196 -1.5071  2.0685
  500MOL0     H67469   2.012   4.169   0.374 -1.9764 -0.3273  1.9957
  500MOL0     H67470   1.923   4.364   0.140  2.8483 -2.5999 -4.8798
  500MOL0     H67471   1.832   4.219   0.196 -0.6001  1.0409 -2.0670
  500MOL0     H67472   2.036   4.081   0.152 -1.9868 -0.1566 -0.4741
  500MOL0     H67473   2.111   4.228   0.085  0.3692 -0.7463  0.6737
  500MOL0     H67474   1.845   4.127  -0.023  0.1344 -1.5822 -0.7273
  500MOL0     H67475   1.937   4.267  -0.076  1.2643 -1.3595 -1.1203
  500MOL0     H67476   1.943   4.013  -0.177  0.3673 -1.7420  2.1884
  500MOL0     H67477   2.097   4.026  -0.074  3.9439  1.6779 -1.7801
  500MOL0     H67478   2.012   4.225  -0.276  1.2001  0.3099 -2.1682
  500MOL0     H67479   2.175   4.194  -0.192 -1.0336 -0.7598  0.6976
  500MOL0     H67480   2.028   4.224   0.763 -1.0976  0.0099 -2.1727
  500MOL0     H67481   2.019   4.169   1.007 -0.5978  3.7257 -1.0693
  500MOL0     H67482   1.788   3.890   1.333 -0.8702  1.4270  0.7938
  500MOL0     H67483   1.715   3.819   1.559  2.3119 -1.3579 -1.0890
  500MOL0     H67484   1.879   3.493   1.894 -0.8220 -3.4020 -0.8200
  500MOL0     H67485   1.684   3.476   1.774  1.4429  2.9429  0.7316
  500MOL0     H67486   1.297   3.660   1.500  1.3535 -0.1701 -0.1044
  500MOL0     H67487   1.174   3.706   1.300  1.1288 -0.6713 -3.7773
  500MOL0     H67488   1.307   3.555   0.924 -0.9920  0.5189 -1.7007
  500MOL0     H67489   1.154   3.624   0.879  2.6340 -1.9327 -1.9073
  500MOL0     H67490   1.214   3.343   0.964 -0.0532  0.0488  1.8825
  500MOL0     H67491   1.159   3.394   0.801  1.5950  1.3379 -0.0586
  500MOL0     H67492   0.948   3.476   0.932 -0.2485  0.2441  0.9561
  500MOL0     H67493   1.021   3.389   1.066  0.2429  2.9484 -0.4259
  500MOL0     H67494   0.927   3.265   0.808 -1.5819  2.2207  0.4342
  500MOL0     H67495   1.041   3.179   0.917  0.7424  1.0383  1.0717
  500MOL0     H67496   0.677   3.072   1.062 -1.6413  0.8739 -3.4455
  500MOL0     H67497   1.402   3.401   1.101 -0.6552 -2.3620  3.2180
  500MOL0     H67498   1.646   3.375   1.210 -0.1368 -3.0289 -3.2467
  500MOL0     H67499   1.577   3.274   1.356 -0.4832 -1.3132 -1.6871
  500MOL0     H67500   1.508   3.264   1.207 -0.0993  0.3735  0.9713
  501MOL0     O67501   6.235   1.078   1.186  0.8963 -0.5159 -0.0470
  501MOL0     C67502   6.190   1.089   1.298  0.8981  0.1328 -0.6114
  501MOL0     O67503   6.093   1.174   1.346 -0.0166  0.2018  0.2273
  501MOL0     C67504   6.005   1.217   1.250 -0.2796 -0.1061 -0.1743
  501MOL0     C67505   5.895   1.148   1.211  0.8925  0.0082  0.2828
  501MOL0     C67506   5.808   1.204   1.118 -0.8360  0.4389 -0.0310
  501MOL0     C67507   5.836   1.329   1.061 -1.4210  0.2167 -0.4004
  501MOL0     O67508   5.753   1.392   0.966  0.2030  0.5361 -0.2556
  501MOL0     C67509   5.616   1.355   0.979  0.7935  0.6054  0.5935
  501MOL0     C67510   5.543   1.457   0.904  1.0230 -0.9655  0.1475
  501MOL0     C67511   5.386   1.440   0.917 -0.9524  0.3200  0.3534
  501MOL0     C67512   5.320   1.567   0.856 -0.4001  0.7148  0.2911
  501MOL0     C67513   5.164   1.557   0.852 -0.1755 -0.2870  0.2638
  501MOL0     C67514   5.106   1.651   0.754 -0.3039  0.2551  0.4531
  501MOL0     C67515   4.951   1.661   0.729  0.1689  0.7689  0.3810
  501MOL0     C67516   4.865   1.653   0.847 -0.4351 -0.0195 -0.6014
  501MOL0     N67517   4.720   1.653   0.814  0.2795  0.7425  1.0854
  501MOL0     C67518   4.651   1.768   0.771  0.3894 -0.2034  0.7064
  501MOL0     C67519   4.520   1.735   0.796  0.6176  0.2078 -0.3853
  501MOL0     C67520   4.408   1.826   0.768  0.0400 -0.4698  0.4755
  501MOL0     C67521   4.400   1.969   0.818 -0.6659  0.6672  0.4825
  501MOL0     C67522   4.403   1.960   0.966  0.5815 -0.0814 -0.4497
  501MOL0     C67523   4.426   2.094   1.048 -0.2602  0.5612  0.3991
  501MOL0     O67524   4.554   2.150   1.042 -0.9543  0.5353 -0.7190
  501MOL0     C67525   4.658   2.066   1.090  0.6233  0.5396  0.2215
  501MOL0     C67526   4.634   1.964   1.183  0.1954 -0.3036 -0.8315
  501MOL0     C67527   4.726   1.873   1.227 -0.7211  0.3253  0.1584
  501MOL0     C67528   4.849   1.872   1.149  0.3233  0.4840 -1.0501
  501MOL0     C67529   4.951   1.767   1.169 -0.8095 -0.2250 -0.4923
  501MOL0     O67530   4.919   1.645   1.220 -0.1615  0.1910  0.2829
  501MOL0     C67531   5.009   1.546   1.250  0.8692 -0.1400  0.0698
  501MOL0     C67532   4.983   1.434   1.183 -0.0478  0.3077  0.2518
  501MOL0     C67533   5.082   1.332   1.184 -0.0776 -0.4972  0.4913
  501MOL0     C67534   5.205   1.347   1.254 -1.2114  0.3668  1.2686
  501MOL0     O67535   5.315   1.263   1.254 -0.4000 -0.4768  0.7721
  501MOL0     C67536   5.300   1.134   1.192 -0.2291 -1.3419  0.3521
  501MOL0     C67537   5.445   1.083   1.192 -0.4641 -0.2878  0.0343
  501MOL0     C67538   5.437   0.942   1.124  0.2958  0.2479 -0.4691
  501MOL0     C67539   5.566   0.872   1.151 -0.9720 -0.4435  0.8155
  501MOL0     C67540   5.585   0.770   1.043  0.0483  1.1532  0.8683
  501MOL0     C67541   5.709   0.679   1.072  0.1574 -0.3066  0.4119
  501MOL0     C67542   5.843   0.743   1.040 -0.4846 -0.4442  0.1691
  501MOL0     C67543   5.941   0.692   1.145 -0.6295  0.2534 -0.2256
  501MOL0    Cl67544   6.094   0.755   1.094  0.5943  0.6543  0.2172
  501MOL0     C67545   5.223   1.466   1.334  0.5744 -0.4375 -0.2691
  501MOL0     C67546   5.120   1.564   1.332  0.3775 -0.4471  0.1086
  501MOL0     O67547   5.068   1.793   1.132  0.6002  0.0113 -0.5252
  501MOL0     C67548   4.877   1.968   1.053  0.8221  0.8041  0.5968
  501MOL0     C67549   4.777   2.067   1.030 -0.3477 -0.5861  0.4288
  501MOL0     N67550   4.515   1.608   0.850 -0.4329 -0.1133 -0.5428
  501MOL0     N67551   4.639   1.562   0.859  0.8947  0.4257 -0.3305
  501MOL0     C67552   5.953   1.397   1.099  0.2617 -0.3870  0.3562
  501MOL0     C67553   6.029   1.345   1.194  0.4466  0.0208  0.9361
  501MOL0     C67554   6.252   0.994   1.396  0.2174 -0.7716 -0.3670
  501MOL0     C67555   6.376   0.933   1.365 -0.5677  0.0321 -0.4518
  501MOL0     C67556   6.439   0.860   1.462  0.1868  0.4846  0.0268
  501MOL0     C67557   6.380   0.825   1.588  0.1303  0.2038  0.2524
  501MOL0     O67558   6.430   0.732   1.681 -0.1395 -0.2538 -0.3074
  501MOL0     C67559   6.503   0.624   1.635 -0.4337  0.0649 -0.1273
  501MOL0     C67560   6.656   0.637   1.661 -0.9346 -1.0549  0.4511
  501MOL0     C67561   6.747   0.538   1.577 -0.2412 -1.0738 -0.3776
  501MOL0     C67562   6.776   0.599   1.438  0.6580  0.6845 -0.0432
  501MOL0     C67563   6.898   0.549   1.379 -0.6239 -0.2604  0.2862
  501MOL0     C67564   7.001   0.499   1.339  0.8328  0.8135 -0.6191
  501MOL0     C67565   6.258   0.877   1.614 -0.8091  0.5131 -0.2469
  501MOL0     C67566   6.195   0.955   1.514 -0.2450 -1.1505  0.1143
  501MOL0     C67567   6.050   0.993   1.554 -0.7105  0.0472  0.2339
  501MOL0     H67568   5.889   1.045   1.245  0.3469 -0.5549 -1.4411
  501MOL0     H67569   5.714   1.156   1.092 -0.3444  0.9703 -3.2004
  501MOL0     H67570   5.590   1.259   0.933  2.0161  0.9225 -0.8489
  501MOL0     H67571   5.582   1.350   1.083 -3.0209 -0.8288 -0.5442
  501MOL0     H67572   5.573   1.449   0.800  0.7573  0.2155 -0.0402
  501MOL0     H67573   5.573   1.559   0.932 -1.7011  0.3597 -1.4311
  501MOL0     H67574   5.357   1.405   1.017 -2.7176  0.4438 -0.0817
  501MOL0     H67575   5.354   1.359   0.852 -0.7334  3.5725 -4.3179
  501MOL0     H67576   5.338   1.653   0.922 -4.6141 -0.0324  2.7259
  501MOL0     H67577   5.365   1.584   0.758 -0.0673  3.8447  0.8663
  501MOL0     H67578   5.120   1.460   0.829 -0.1438 -0.8596  2.3541
  501MOL0     H67579   5.123   1.582   0.951 -1.1620 -0.1754 -0.1606
  501MOL0     H67580   5.150   1.748   0.780  1.2586 -0.3384  0.1404
  501MOL0     H67581   5.146   1.632   0.654 -1.3827  0.5717 -0.0505
  501MOL0     H67582   4.915   1.584   0.660 -0.6788  0.1359  1.4945
  501MOL0     H67583   4.926   1.760   0.689 -6.2399  0.7855  3.1369
  501MOL0     H67584   4.887   1.570   0.914 -0.7365  0.9202  0.7082
  501MOL0     H67585   4.898   1.740   0.905  1.6881 -1.4527  0.4610
  501MOL0     H67586   4.703   1.855   0.733 -0.4598 -0.6023 -1.5117
  501MOL0     H67587   4.407   1.833   0.658 -2.0669 -0.1997  0.4718
  501MOL0     H67588   4.315   1.781   0.805  0.4113 -0.3390  1.5831
  501MOL0     H67589   4.484   2.020   0.771 -1.0633 -0.1048 -1.1061
  501MOL0     H67590   4.308   2.014   0.781 -0.9786 -1.5685 -1.7235
  501MOL0     H67591   4.479   1.889   1.000  2.1217  2.0595  0.8072
  501MOL0     H67592   4.307   1.921   1.002  0.8146  0.0128  0.3068
  501MOL0     H67593   4.392   2.092   1.152 -1.2837  1.0972  0.0954
  501MOL0     H67594   4.356   2.168   1.009  2.4202  3.9792  1.5935
  501MOL0     H67595   4.537   1.962   1.232  0.0465 -1.1332 -1.1506
  501MOL0     H67596   4.710   1.795   1.301 -4.7902  0.8130  0.0184
  501MOL0     H67597   4.900   1.415   1.116  0.4294 -1.9610  0.2196
  501MOL0     H67598   5.074   1.255   1.107 -0.4065  1.6992 -1.7970
  501MOL0     H67599   5.239   1.067   1.253 -4.4366 -0.2644 -2.2383
  501MOL0     H67600   5.269   1.135   1.086  0.8473 -0.9011  0.0311
  501MOL0     H67601   5.513   1.153   1.143 -1.1857  1.4672  1.4403
  501MOL0     H67602   5.480   1.070   1.295  0.4070  1.3630 -0.0140
  501MOL0     H67603   5.358   0.882   1.170  0.6345 -0.1576 -0.4200
  501MOL0     H67604   5.423   0.957   1.017  0.3303  3.7105 -0.1057
  501MOL0     H67605   5.576   0.822   1.248  0.2425  0.3958  1.1490
  501MOL0     H67606   5.647   0.945   1.148 -1.2935 -0.0821  0.9294
  501MOL0     H67607   5.593   0.817   0.944  1.7140 -1.7840 -0.5320
  501MOL0     H67608   5.492   0.713   1.032  1.0710 -0.3635 -0.6442
  501MOL0     H67609   5.706   0.634   1.172 -3.7632 -0.1276  0.5087
  501MOL0     H67610   5.716   0.587   1.013 -0.4415 -2.2260  3.1472
  501MOL0     H67611   5.842   0.852   1.046  2.7207 -0.2160 -1.2677
  501MOL0     H67612   5.868   0.728   0.934 -0.5522  4.1541 -0.7111
  501MOL0     H67613   5.910   0.726   1.244 -1.5740  2.1196 -1.1159
  501MOL0     H67614   5.945   0.582   1.144  2.2245  0.2474 -2.5887
  501MOL0     H67615   5.308   1.475   1.400 -0.6758 -0.9363  1.4679
  501MOL0     H67616   5.136   1.656   1.387 -2.1095  0.3345 -0.3515
  501MOL0     H67617   4.970   1.968   0.998 -0.4612 -1.0660 -1.7888
  501MOL0     H67618   4.785   2.130   0.942 -0.8458 -1.0360  0.0532
  501MOL0     H67619   5.963   1.498   1.061  0.0901 -0.9272 -1.1875
  501MOL0     H67620   6.115   1.394   1.237  1.5368 -0.3589 -0.7231
  501MOL0     H67621   6.420   0.941   1.266  0.6554 -1.9062 -0.1420
  501MOL0     H67622   6.539   0.823   1.444  1.2433  3.4952 -0.8535
  501MOL0     H67623   6.487   0.608   1.528  0.9418  0.2616 -0.3727
  501MOL0     H67624   6.475   0.535   1.691 -4.4086  1.8041  1.0708
  501MOL0     H67625   6.675   0.613   1.766 -1.0041  1.8768  1.2076
  501MOL0     H67626   6.683   0.742   1.649  0.7301 -1.1762  2.4387
  501MOL0     H67627   6.689   0.446   1.563  0.7248 -1.8463  0.4909
  501MOL0     H67628   6.841   0.526   1.632 -0.6086 -0.6811  0.3436
  501MOL0     H67629   6.691   0.570   1.375  0.2263 -2.9765  1.9607
  501MOL0     H67630   6.778   0.708   1.443 -2.2170  0.8074  0.2895
  501MOL0     H67631   7.073   0.429   1.303 -1.1357 -1.6995  0.0109
  501MOL0     H67632   6.211   0.844   1.706  1.4159 -1.8025  0.1745
  501MOL0     H67633   6.051   1.096   1.591  0.2360  0.9243 -2.0017
  501MOL0     H67634   5.976   0.986   1.473 -0.5198 -2.5309  0.2242
  501MOL0     H67635   6.020   0.925   1.633 -1.4250 -2.5320 -2.1100
  502MOL0     O67636   1.057   3.606  11.255  0.0711 -0.2166  0.7326
  502MOL0     C67637   0.948   3.588  11.208  0.5693 -0.8795 -0.3563
  502MOL0     O67638   0.827   3.600  11.272 -0.9575 -0.5081  0.3240
  502MOL0     C67639   0.826   3.609  11.408 -1.1087 -1.3705  1.2917
  502MOL0     C67640   0.816   3.741  11.460 -0.7122  0.0788  0.5681
  502MOL0     C67641   0.804   3.751  11.599  0.2834  0.8259  0.2609
  502MOL0     C67642   0.796   3.642  11.687  0.1649 -1.0640  0.0997
  502MOL0     O67643   0.776   3.644  11.823  0.1185 -0.1019 -0.0714
  502MOL0     C67644   0.795   3.771  11.897  0.8563 -0.5837 -0.3947
  502MOL0     C67645   0.665   3.850  11.901 -0.6145 -0.0095  0.4087
  502MOL0     C67646   0.679   3.980  11.971 -0.6821 -0.1605  0.6958
  502MOL0     C67647   0.712   4.092  11.873 -1.2194 -0.3505  0.2045
  502MOL0     C67648   0.722   4.234  11.946  0.4463  0.5953  0.7130
  502MOL0     C67649   0.800   4.348  11.876  0.4516  0.7039  0.8156
  502MOL0     C67650   0.778   4.362  11.722  0.0679  0.2063  0.1415
  502MOL0     C67651   0.880   4.452  11.653 -0.0946 -0.3575  1.0177
  502MOL0     N67652   0.901   4.585  11.713 -0.5061  0.0806  0.9115
  502MOL0     C67653   0.977   4.628  11.813  0.0785  0.2794 -0.0849
  502MOL0     C67654   0.943   4.762  11.834 -0.0420  0.2293  1.1307
  502MOL0     C67655   1.007   4.858  11.931 -1.0802  0.4731 -0.2232
  502MOL0     C67656   0.914   4.891  12.050 -0.0237  0.0495  0.8986
  502MOL0     C67657   0.816   4.993  12.021  0.2918 -0.0320  0.6912
  502MOL0     C67658   0.771   5.054  12.152  0.6364  0.1939 -0.1752
  502MOL0     O67659   0.692   5.160  12.106  0.1509 -0.0589  0.5430
  502MOL0     C67660   0.671   5.263  12.188 -0.1439  0.2467 -0.0201
  502MOL0     C67661   0.701   5.386  12.136  0.6069  0.8224 -0.1352
  502MOL0     C67662   0.705   5.506  12.209  0.1532 -0.3044 -0.4058
  502MOL0     C67663   0.704   5.489  12.347 -0.2646 -0.4973 -0.6655
  502MOL0     C67664   0.729   5.607  12.433  0.9026 -0.9086 -0.2163
  502MOL0     O67665   0.758   5.582  12.564  0.2070  0.5526  0.0193
  502MOL0     C67666   0.799   5.687  12.637  0.5684  0.0023 -0.1083
  502MOL0     C67667   0.918   5.742  12.618 -0.0235  0.0427  0.5986
  502MOL0     C67668   0.970   5.830  12.705  0.3724 -0.4834  0.2690
  502MOL0     C67669   0.900   5.875  12.817  1.7665  0.5872  0.4815
  502MOL0     O67670   0.940   5.953  12.923  1.1197 -0.3814 -0.1703
  502MOL0     C67671   1.063   6.026  12.900  0.2331 -0.2199  0.5605
  502MOL0     C67672   1.085   6.145  13.000  1.0678 -0.7800  0.3646
  502MOL0     C67673   1.145   6.261  12.923  0.9727 -0.5427  0.9214
  502MOL0     C67674   1.210   6.366  13.022 -0.1083  0.2494  0.5710
  502MOL0     C67675   1.358   6.407  12.976  1.0305 -0.8740 -0.7464
  502MOL0     C67676   1.422   6.531  13.051  0.7057  0.5007 -0.3990
  502MOL0     C67677   1.386   6.667  12.990  0.6505 -0.6488 -0.7995
  502MOL0     C67678   1.440   6.786  13.085  0.2857  0.1550  0.0090
  502MOL0    Cl67679   1.452   6.927  12.980  0.2900 -0.2969 -0.0166
  502MOL0     C67680   0.775   5.804  12.840 -0.8610  0.3870  0.5704
  502MOL0     C67681   0.723   5.712  12.754 -1.7042  0.0140 -0.0970
  502MOL0     O67682   0.726   5.719  12.378 -0.2742 -0.1405 -0.1320
  502MOL0     C67683   0.676   5.361  12.402  0.8053  0.5864  0.3108
  502MOL0     C67684   0.654   5.248  12.327  0.3201 -0.0860 -0.1371
  502MOL0     N67685   0.834   4.787  11.750 -0.4088  0.6737  1.0682
  502MOL0     N67686   0.818   4.683  11.679 -0.7218  0.1395 -0.9847
  502MOL0     C67687   0.796   3.509  11.635  0.2166 -0.4477 -0.6992
  502MOL0     C67688   0.818   3.497  11.495  0.3915  0.2191  0.4810
  502MOL0     C67689   0.949   3.547  11.067 -0.3749 -0.0908 -0.7541
  502MOL0     C67690   0.825   3.569  11.003 -0.3166 -0.1635 -0.1351
  502MOL0     C67691   0.798   3.549  10.871  0.0581  0.7678  0.7427
  502MOL0     C67692   0.892   3.477  10.799 -0.5428 -0.0420  0.1483
  502MOL0     O67693   0.858   3.465  10.671 -0.2364  0.0981 -0.2969
  502MOL0     C67694   0.938   3.404  10.576  0.2093 -0.4105 -0.5055
  502MOL0     C67695   0.885   3.433  10.434 -0.7856  0.4661 -0.1345
  502MOL0     C67696   0.965   3.352  10.331  0.1048 -0.1350  0.2028
  502MOL0     C67697   1.111   3.419  10.317  0.1971  0.5345 -0.4410
  502MOL0     C67698   1.201   3.325  10.251 -0.0482  0.4920  0.6560
  502MOL0     C67699   1.270   3.242  10.206  0.3041 -0.7131  0.3761
  502MOL0     C67700   1.021   3.456  10.850  0.3682 -0.3623  0.2582
  502MOL0     C67701   1.045   3.483  10.993  0.1963  0.2635  0.8458
  502MOL0     C67702   1.175   3.431  11.041  0.2660 -0.6095  0.2400
  502MOL0     H67703   0.835   3.834  11.406 -0.3693 -0.4839 -0.3060
  502MOL0     H67704   0.802   3.852  11.636  0.2729  1.0340 -0.2892
  502MOL0     H67705   0.832   3.753  11.999  0.5493 -1.4576 -0.4284
  502MOL0     H67706   0.879   3.831  11.859 -0.7447  1.2634 -1.1856
  502MOL0     H67707   0.598   3.777  11.948  1.3650 -1.6604  0.8396
  502MOL0     H67708   0.639   3.856  11.795  0.0665 -1.4510  0.1307
  502MOL0     H67709   0.763   3.955  12.038 -0.2709 -0.1307  0.1968
  502MOL0     H67710   0.588   4.017  12.020 -0.9109  1.0366 -0.5884
  502MOL0     H67711   0.805   4.066  11.822  0.6887 -0.0630  3.2933
  502MOL0     H67712   0.627   4.092  11.803 -0.7677  3.5112 -0.5997
  502MOL0     H67713   0.620   4.273  11.952  0.5856  0.9783  0.6678
  502MOL0     H67714   0.761   4.239  12.048  1.4704  0.5278  0.3327
  502MOL0     H67715   0.780   4.441  11.930  0.8801  1.0151  0.4460
  502MOL0     H67716   0.905   4.324  11.891  0.0026 -0.7451  1.9101
  502MOL0     H67717   0.685   4.415  11.701  1.0082  0.9710 -2.5567
  502MOL0     H67718   0.788   4.260  11.684  2.6686  1.0615 -1.7848
  502MOL0     H67719   0.973   4.394  11.654 -0.9584 -1.8174  0.2059
  502MOL0     H67720   0.858   4.474  11.549  4.3428 -0.7099 -0.1817
  502MOL0     H67721   1.035   4.564  11.879 -1.3732  0.3045  1.2877
  502MOL0     H67722   1.087   4.802  11.981 -1.7785 -0.3673 -0.0282
  502MOL0     H67723   1.059   4.942  11.883  1.7854 -0.9422  0.1901
  502MOL0     H67724   0.873   4.798  12.091 -0.7007 -0.4184 -0.7651
  502MOL0     H67725   0.980   4.933  12.126  0.9689  0.3237 -0.0834
  502MOL0     H67726   0.725   4.960  11.972  0.2279  1.0127  0.0738
  502MOL0     H67727   0.852   5.077  11.962 -1.4337  0.6614  0.5979
  502MOL0     H67728   0.861   5.087  12.205  1.8444  0.8489 -2.4746
  502MOL0     H67729   0.720   4.978  12.212  1.6051 -0.9458 -0.7559
  502MOL0     H67730   0.711   5.401  12.029 -0.3745  3.7760  0.1092
  502MOL0     H67731   0.725   5.604  12.168  2.2523  1.0769  3.3867
  502MOL0     H67732   0.992   5.714  12.544  0.9793 -0.5475  1.7755
  502MOL0     H67733   1.061   5.885  12.684  2.1962 -3.5992 -0.6230
  502MOL0     H67734   1.148   5.958  12.900 -0.0619 -0.5949 -0.1580
  502MOL0     H67735   1.056   6.070  12.800 -4.6344 -2.4254 -0.3990
  502MOL0     H67736   0.988   6.169  13.045  0.7373  0.6775 -1.0189
  502MOL0     H67737   1.156   6.107  13.074  0.4252 -1.3280  0.7100
  502MOL0     H67738   1.232   6.221  12.870  1.2655 -0.7949  1.5668
  502MOL0     H67739   1.074   6.314  12.860  1.2008 -1.0561  0.2210
  502MOL0     H67740   1.218   6.321  13.121  1.6979 -1.4264 -0.2908
  502MOL0     H67741   1.147   6.456  13.017  3.6162  3.0280 -1.2169
  502MOL0     H67742   1.358   6.435  12.870  3.7848  4.3159  0.2689
  502MOL0     H67743   1.437   6.335  12.999 -0.5086 -3.1683 -2.2165
  502MOL0     H67744   1.379   6.546  13.150 -2.2856  0.0702 -1.5549
  502MOL0     H67745   1.532   6.529  13.046  0.7874  1.1868  0.6834
  502MOL0     H67746   1.278   6.688  12.988  0.8301  1.7595  3.1910
  502MOL0     H67747   1.440   6.683  12.897  2.0272  1.8575  0.3503
  502MOL0     H67748   1.367   6.806  13.164  1.3844 -0.1060  1.1169
  502MOL0     H67749   1.541   6.763  13.119  0.4952  2.2912  1.0008
  502MOL0     H67750   0.725   5.838  12.930  1.3804 -1.9526  2.8370
  502MOL0     H67751   0.628   5.660  12.761 -0.2481 -3.0305 -1.1564
  502MOL0     H67752   0.690   5.349  12.510  3.0233  0.3738  0.0580
  502MOL0     H67753   0.622   5.159  12.380  0.2847 -1.4931 -2.3919
  502MOL0     H67754   0.767   3.423  11.695 -2.6552  1.9059  1.5594
  502MOL0     H67755   0.834   3.401  11.447 -0.7661 -0.7529  1.9289
  502MOL0     H67756   0.746   3.602  11.070 -0.0123 -2.6160  1.5547
  502MOL0     H67757   0.697   3.575  10.841  0.6791  1.6821 -0.6309
  502MOL0     H67758   0.943   3.297  10.597  0.2527 -0.4284 -0.6029
  502MOL0     H67759   1.038   3.449  10.584 -0.8833  1.8531  1.3565
  502MOL0     H67760   0.892   3.540  10.412 -0.2066  0.7956  1.4931
  502MOL0     H67761   0.778   3.417  10.424 -0.7631  1.5031 -2.8897
  502MOL0     H67762   0.912   3.360  10.235 -0.6720  2.4349  0.7654
  502MOL0     H67763   0.962   3.246  10.359 -4.0091 -0.4022 -0.5376
  502MOL0     H67764   1.108   3.512  10.259  3.3126  0.6945 -0.5559
  502MOL0     H67765   1.154   3.442  10.415  0.2806  2.2650 -0.8603
  502MOL0     H67766   1.310   3.153  10.162  2.0447  0.5895 -0.8217
  502MOL0     H67767   1.092   3.416  10.779  0.9614 -0.0801  0.6851
  502MOL0     H67768   1.237   3.499  11.100  1.0569 -1.1126  0.0019
  502MOL0     H67769   1.155   3.344  11.104  0.1341 -0.2872  0.6501
  502MOL0     H67770   1.245   3.410  10.959  1.2243  0.8807  0.6350
  503MOL0     O67771   7.458  10.466   7.645 -0.0565 -1.1685 -0.4253
  503MOL0     C67772   7.515  10.575   7.671  1.0446  0.6500 -0.9776
  503MOL0     O67773   7.523  10.625   7.799  0.0584  0.4326  0.3016
  503MOL0     C67774   7.521  10.522   7.894 -0.1514  0.3338 -0.4450
  503MOL0     C67775   7.408  10.508   7.974 -0.9087 -0.8199  0.2658
  503MOL0     C67776   7.415  10.407   8.072  0.5119  0.4315 -0.2494
  503MOL0     C67777   7.526  10.311   8.080  1.2200  1.1677 -0.5087
  503MOL0     O67778   7.525  10.205   8.172  0.6115 -0.7463  0.0201
  503MOL0     C67779   7.458  10.230   8.294  1.4640 -0.2925  0.0790
  503MOL0     C67780   7.522  10.331   8.388  0.1443 -0.0736 -0.0483
  503MOL0     C67781   7.407  10.405   8.456  0.3853  0.4990 -0.0956
  503MOL0     C67782   7.474  10.509   8.545  0.3661  1.1431  0.4078
  503MOL0     C67783   7.365  10.572   8.630  0.5442  0.0091  0.1578
  503MOL0     C67784   7.433  10.678   8.716 -0.0785 -1.3016 -0.1617
  503MOL0     C67785   7.454  10.814   8.661 -0.1541 -0.4015  0.1254
  503MOL0     C67786   7.523  10.914   8.757 -0.2661  0.2454 -0.2291
  503MOL0     N67787   7.497  11.051   8.730 -0.8920 -0.3352 -0.7440
  503MOL0     C67788   7.559  11.132   8.642 -0.1272  0.0433  0.2661
  503MOL0     C67789   7.488  11.250   8.645 -0.5193 -0.2446  0.1420
  503MOL0     C67790   7.524  11.375   8.558 -0.0411  0.5874  0.2636
  503MOL0     C67791   7.662  11.425   8.611  0.6080 -0.8642  0.8297
  503MOL0     C67792   7.714  11.544   8.528  0.4385  0.3937 -0.2398
  503MOL0     C67793   7.836  11.604   8.599  0.2750 -1.0789  0.4635
  503MOL0     O67794   7.872  11.734   8.543 -0.1844 -0.1078  0.2560
  503MOL0     C67795   7.806  11.842   8.589 -0.4428 -0.1235 -0.0264
  503MOL0     C67796   7.868  11.969   8.575 -0.3094  0.5138 -0.2765
  503MOL0     C67797   7.807  12.087   8.622  0.6655 -0.2750  0.7220
  503MOL0     C67798   7.685  12.085   8.689  1.5020  0.5445  0.6040
  503MOL0     C67799   7.615  12.203   8.745  0.1507 -0.2519  0.8249
  503MOL0     O67800   7.637  12.325   8.680 -0.1590 -0.5741  0.4491
  503MOL0     C67801   7.590  12.447   8.722  0.8060  0.0109 -1.0668
  503MOL0     C67802   7.673  12.558   8.694  0.1456 -0.6429  0.0139
  503MOL0     C67803   7.633  12.681   8.738 -0.2289  0.1402 -0.5932
  503MOL0     C67804   7.511  12.710   8.789  0.3541 -0.1477 -0.3785
  503MOL0     O67805   7.476  12.840   8.819  0.0429 -0.0647  0.5283
  503MOL0     C67806   7.363  12.871   8.739 -0.1748 -1.1790  0.3373
  503MOL0     C67807   7.315  13.015   8.727 -1.0488  0.1490 -0.2921
  503MOL0     C67808   7.424  13.117   8.731  0.4947  0.1001  0.4821
  503MOL0     C67809   7.543  13.084   8.636  0.2013  0.5834  0.8291
  503MOL0     C67810   7.671  13.155   8.684  0.6581  0.6141  0.2483
  503MOL0     C67811   7.786  13.115   8.598 -0.4730 -0.5153  0.4624
  503MOL0     C67812   7.920  13.163   8.648 -1.0007  1.3887 -0.1431
  503MOL0     C67813   7.923  13.310   8.664  0.0392  0.4159  0.6143
  503MOL0    Cl67814   8.076  13.381   8.658 -0.0831  0.0899 -0.4089
  503MOL0     C67815   7.423  12.602   8.815  0.9703  0.6775 -0.1056
  503MOL0     C67816   7.469  12.469   8.786  0.3634 -0.6515 -0.2400
  503MOL0     O67817   7.562  12.192   8.852  0.0832 -0.0862 -0.9034
  503MOL0     C67818   7.618  11.965   8.703  0.0864  2.2046 -0.2632
  503MOL0     C67819   7.676  11.845   8.649  0.3662 -0.1805  0.5297
  503MOL0     N67820   7.397  11.245   8.743 -0.1672 -0.3647 -0.0481
  503MOL0     N67821   7.395  11.123   8.794 -1.1517 -0.0991  0.3275
  503MOL0     C67822   7.623  10.318   7.990  0.6425  0.5730  0.3724
  503MOL0     C67823   7.626  10.427   7.902 -0.1841 -1.1912 -0.4572
  503MOL0     C67824   7.580  10.648   7.555 -0.5918 -0.0048 -0.6883
  503MOL0     C67825   7.627  10.778   7.587 -0.0664 -0.2778  0.2740
  503MOL0     C67826   7.699  10.850   7.495 -0.3028  0.9581  0.7706
  503MOL0     C67827   7.718  10.805   7.363  0.5983  0.0333  0.7141
  503MOL0     O67828   7.792  10.879   7.273  0.4924  0.1227 -0.4616
  503MOL0     C67829   7.810  10.827   7.139  0.4510  0.1810 -1.1937
  503MOL0     C67830   7.865  10.936   7.041 -0.4325  0.6760 -0.8547
  503MOL0     C67831   8.007  10.978   7.076 -0.4559  0.0396  0.2476
  503MOL0     C67832   8.014  11.097   7.177  0.4858  0.5028 -0.0949
  503MOL0     C67833   8.028  11.223   7.102 -0.2638  0.5646 -0.4474
  503MOL0     C67834   8.044  11.320   7.043 -1.0071 -0.1877  0.0424
  503MOL0     C67835   7.658  10.679   7.330 -0.3382 -0.0579  0.1368
  503MOL0     C67836   7.585  10.604   7.415  0.4450 -0.4418 -0.6170
  503MOL0     C67837   7.517  10.486   7.360 -0.5580  0.0378 -0.4750
  503MOL0     H67838   7.313  10.557   7.961 -0.6265 -0.4489 -0.4845
  503MOL0     H67839   7.328  10.385   8.134  2.9318 -2.9457  2.3613
  503MOL0     H67840   7.354  10.261   8.283  2.6072  4.1923 -0.0231
  503MOL0     H67841   7.454  10.137   8.351  1.5467 -0.1450  0.3254
  503MOL0     H67842   7.567  10.399   8.314 -0.2574 -1.2785 -1.4346
  503MOL0     H67843   7.580  10.283   8.467  0.4703  3.2818  1.9390
  503MOL0     H67844   7.336  10.342   8.510  0.1650 -1.1771 -2.2129
  503MOL0     H67845   7.356  10.459   8.376  1.1976  1.1120 -0.2091
  503MOL0     H67846   7.535  10.444   8.607  2.2469  1.6245 -0.8530
  503MOL0     H67847   7.540  10.579   8.493  4.2342 -1.9747  0.7201
  503MOL0     H67848   7.278  10.599   8.569  0.7559 -0.2671 -0.2724
  503MOL0     H67849   7.333  10.491   8.696 -0.1097  0.4195  0.3515
  503MOL0     H67850   7.364  10.701   8.798 -1.9253  1.7994 -2.3745
  503MOL0     H67851   7.525  10.634   8.754  0.3308  0.0568  0.4829
  503MOL0     H67852   7.354  10.853   8.639 -0.7087 -0.2725  2.6280
  503MOL0     H67853   7.510  10.809   8.567  1.3762 -1.4592  1.0507
  503MOL0     H67854   7.490  10.901   8.860  1.1090  0.3127  0.2392
  503MOL0     H67855   7.630  10.897   8.743 -0.2876  1.1295 -1.7233
  503MOL0     H67856   7.642  11.103   8.578  0.6911  2.1359  0.3072
  503MOL0     H67857   7.540  11.328   8.461  2.5338 -2.4955  1.9835
  503MOL0     H67858   7.451  11.455   8.548 -1.5019 -0.7318 -0.0395
  503MOL0     H67859   7.660  11.454   8.717 -1.3923  0.5288  0.4514
  503MOL0     H67860   7.729  11.338   8.602 -1.9526 -2.7322 -2.4793
  503MOL0     H67861   7.640  11.623   8.512  0.5066  0.2579 -1.3728
  503MOL0     H67862   7.741  11.497   8.432 -0.8834  0.1142 -0.4942
  503MOL0     H67863   7.923  11.542   8.576 -0.4360 -2.2683  0.9338
  503MOL0     H67864   7.822  11.609   8.707  2.0965 -1.8059  0.7726
  503MOL0     H67865   7.969  11.974   8.534 -0.3700  0.1436 -0.4781
  503MOL0     H67866   7.862  12.180   8.614  3.7241 -1.9450  0.8930
  503MOL0     H67867   7.761  12.548   8.631  0.0452 -0.7710 -0.1040
  503MOL0     H67868   7.700  12.764   8.721 -0.2774 -0.1379 -2.3257
  503MOL0     H67869   7.377  12.836   8.637 -2.7797  1.2087 -0.9831
  503MOL0     H67870   7.274  12.828   8.787 -0.8974  0.1244  0.2159
  503MOL0     H67871   7.264  13.026   8.632  0.1762 -1.5175 -1.1918
  503MOL0     H67872   7.245  13.035   8.809 -4.1677  1.5069 -3.0985
  503MOL0     H67873   7.388  13.219   8.712  0.5753  0.4697  2.1495
  503MOL0     H67874   7.456  13.126   8.835  1.3276 -0.4932  0.2860
  503MOL0     H67875   7.516  13.123   8.537  0.5417 -2.0897 -0.3955
  503MOL0     H67876   7.559  12.978   8.615  0.9080  1.2456 -2.6343
  503MOL0     H67877   7.686  13.111   8.783 -3.8094 -0.6920  0.5662
  503MOL0     H67878   7.644  13.260   8.689  1.1592  0.9018 -1.9755
  503MOL0     H67879   7.791  13.006   8.592 -0.8491 -0.4601 -1.4441
  503MOL0     H67880   7.766  13.137   8.493 -1.5880 -2.0698  0.3067
  503MOL0     H67881   7.985  13.136   8.564  0.3693  1.9409  0.6935
  503MOL0     H67882   7.948  13.109   8.739 -1.6288 -1.1054 -1.3307
  503MOL0     H67883   7.866  13.356   8.583 -0.7853 -1.1537  0.2543
  503MOL0     H67884   7.875  13.336   8.759 -0.6006 -0.6409  0.6092
  503MOL0     H67885   7.338  12.609   8.882  1.7909 -1.5443  1.2870
  503MOL0     H67886   7.407  12.382   8.804  1.7236 -1.4481  0.7278
  503MOL0     H67887   7.518  11.956   8.743 -0.5980 -2.0625 -2.2616
  503MOL0     H67888   7.613  11.760   8.675 -0.1882  0.4352  1.2681
  503MOL0     H67889   7.701  10.243   7.984  0.0104 -0.0233 -0.8335
  503MOL0     H67890   7.706  10.437   7.830  0.8118  1.6482  0.8868
  503MOL0     H67891   7.621  10.811   7.690  0.8550  0.7665  0.0125
  503MOL0     H67892   7.736  10.950   7.518  0.9447  1.5440 -3.0324
  503MOL0     H67893   7.711  10.797   7.101  0.4111 -0.3634 -0.6732
  503MOL0     H67894   7.868  10.735   7.147 -3.0526 -2.0472  3.5348
  503MOL0     H67895   7.791  11.017   7.044  0.2512  1.3325  1.9104
  503MOL0     H67896   7.862  10.894   6.940  0.8540  2.7402 -1.8280
  503MOL0     H67897   8.066  10.997   6.986  1.7915  0.6758  1.7966
  503MOL0     H67898   8.060  10.893   7.121 -3.8866 -0.2922  4.2447
  503MOL0     H67899   7.914  11.103   7.221  0.0480 -1.4557 -0.7122
  503MOL0     H67900   8.095  11.093   7.251 -0.1205  1.8424  0.6847
  503MOL0     H67901   8.063  11.405   6.981 -3.2248  1.0822  0.9589
  503MOL0     H67902   7.669  10.648   7.226  1.2668 -2.3187  0.9075
  503MOL0     H67903   7.543  10.471   7.255  1.7424  0.5653 -0.0370
  503MOL0     H67904   7.553  10.401   7.418 -3.2695 -1.1954 -0.4972
  503MOL0     H67905   7.410  10.502   7.374 -0.6391  1.0539 -2.0072
  504MOL0     O67906   2.092  10.020   1.675  0.0320  0.2576  0.0393
  504MOL0     C67907   2.093   9.919   1.611  0.1096 -0.3993 -0.7285
  504MOL0     O67908   2.150   9.800   1.650 -0.1498 -0.1734  0.5937
  504MOL0     C67909   2.223   9.786   1.765  0.4382 -0.1371  0.2441
  504MOL0     C67910   2.355   9.755   1.761  0.1938 -0.1923 -0.6318
  504MOL0     C67911   2.422   9.755   1.883  0.3100 -0.5164  0.6447
  504MOL0     C67912   2.354   9.786   2.002 -1.7137 -0.3617  0.3276
  504MOL0     O67913   2.426   9.798   2.116 -0.2477  0.0927 -0.5197
  504MOL0     C67914   2.380   9.861   2.239 -0.2304  0.2515 -0.5702
  504MOL0     C67915   2.506   9.897   2.329  0.0807  0.8676  0.4501
  504MOL0     C67916   2.596  10.008   2.273 -0.2639 -0.4703 -0.1718
  504MOL0     C67917   2.730   9.986   2.342 -1.2211 -0.5441 -0.0229
  504MOL0     C67918   2.841  10.075   2.278  0.9019 -0.7080  0.7639
  504MOL0     C67919   2.972  10.027   2.344  0.0959  0.1012  0.5415
  504MOL0     C67920   3.078  10.133   2.327 -0.2798 -0.5703 -0.3221
  504MOL0     C67921   3.200  10.099   2.422  0.4207 -0.9098 -0.1528
  504MOL0     N67922   3.317  10.044   2.359 -0.5081  0.0897  0.2876
  504MOL0     C67923   3.439  10.029   2.424 -0.0102  0.1475  0.4523
  504MOL0     C67924   3.504   9.940   2.344  0.2911 -0.8194 -1.4203
  504MOL0     C67925   3.633   9.852   2.370 -0.1334 -0.2264 -0.0776
  504MOL0     C67926   3.750   9.885   2.279 -0.3107 -0.8705  0.0763
  504MOL0     C67927   3.874   9.808   2.322 -0.4161  0.1125 -0.5958
  504MOL0     C67928   3.992   9.828   2.228 -1.4632  0.1482  1.0631
  504MOL0     O67929   4.040   9.963   2.264  0.5316  0.5402  0.3473
  504MOL0     C67930   4.151  10.012   2.193  0.4113 -0.2214 -0.2566
  504MOL0     C67931   4.174  10.146   2.194  1.6072  0.3239 -0.2438
  504MOL0     C67932   4.280  10.198   2.118  0.7572  0.1148  0.2245
  504MOL0     C67933   4.363  10.117   2.037 -0.4565  0.6492 -0.5959
  504MOL0     C67934   4.477  10.176   1.959  0.4659  0.1260  0.2936
  504MOL0     O67935   4.513  10.105   1.844  0.4325 -0.1396 -0.6814
  504MOL0     C67936   4.578  10.180   1.753  0.2256  0.3016  0.7266
  504MOL0     C67937   4.518  10.197   1.626  1.0132  0.6109 -0.3115
  504MOL0     C67938   4.592  10.270   1.533  0.1206  0.5497  0.8320
  504MOL0     C67939   4.727  10.305   1.548 -1.2380  0.1193  0.1650
  504MOL0     O67940   4.796  10.358   1.439 -0.3174 -0.0745 -0.0694
  504MOL0     C67941   4.942  10.387   1.443  0.1589  0.5860 -0.5705
  504MOL0     C67942   4.985  10.455   1.312  0.5234  0.0104  0.1875
  504MOL0     C67943   4.979  10.369   1.189 -0.1915  1.1322 -0.1635
  504MOL0     C67944   4.982  10.446   1.058 -0.0382  0.2671 -0.6628
  504MOL0     C67945   5.082  10.566   1.061 -0.2926  0.8950 -0.2311
  504MOL0     C67946   5.227  10.527   1.062  0.8619  0.8937  0.0542
  504MOL0     C67947   5.332  10.619   1.004 -0.4827 -0.7464 -0.2776
  504MOL0     C67948   5.468  10.553   0.984  0.6525 -0.5880  0.4085
  504MOL0    Cl67949   5.453  10.432   0.858  0.4938  1.0303 -1.0951
  504MOL0     C67950   4.790  10.277   1.668  0.0209  0.6793  0.4709
  504MOL0     C67951   4.712  10.211   1.780  0.0754  0.5475  1.4669
  504MOL0     O67952   4.508  10.292   1.993 -0.1165  0.5240  0.4910
  504MOL0     C67953   4.342   9.979   2.036 -0.5112 -0.5719 -0.5675
  504MOL0     C67954   4.233   9.935   2.110 -1.1295 -0.0739 -0.2245
  504MOL0     N67955   3.416   9.907   2.247 -0.5177  0.4823  0.2180
  504MOL0     N67956   3.315   9.977   2.239  0.1371 -0.0466 -0.3057
  504MOL0     C67957   2.223   9.814   1.999  0.1004 -0.1429  0.3221
  504MOL0     C67958   2.155   9.813   1.883 -0.3476 -0.3298 -0.3117
  504MOL0     C67959   2.013   9.897   1.489  0.5168  0.2874  0.9605
  504MOL0     C67960   1.990   9.759   1.450 -0.0302  0.1549  0.4557
  504MOL0     C67961   1.914   9.732   1.339  0.3584 -0.8264 -0.4734
  504MOL0     C67962   1.858   9.832   1.259 -0.4120 -0.6241 -0.3943
  504MOL0     O67963   1.773   9.793   1.154  0.4175 -0.0824  0.8341
  504MOL0     C67964   1.765   9.881   1.042 -0.1941  0.4888 -0.2927
  504MOL0     C67965   1.683   9.816   0.932 -0.0397  0.6348  0.2132
  504MOL0     C67966   1.752   9.691   0.864 -0.3554 -1.0685 -0.3621
  504MOL0     C67967   1.665   9.638   0.748 -0.4403  0.0567  0.6321
  504MOL0     C67968   1.725   9.582   0.627 -0.1932  0.7502  0.7572
  504MOL0     C67969   1.759   9.531   0.524  0.2030 -0.3582 -0.5937
  504MOL0     C67970   1.881   9.966   1.300 -0.1192  0.0933  0.1736
  504MOL0     C67971   1.965   9.999   1.406 -0.1968  0.3374 -1.0103
  504MOL0     C67972   2.007  10.144   1.427  0.1338  0.9304 -0.0857
  504MOL0     H67973   2.401   9.725   1.667 -0.8465 -3.7199 -0.1525
  504MOL0     H67974   2.527   9.731   1.898 -0.1119 -1.5722  2.1247
  504MOL0     H67975   2.316   9.947   2.219 -0.2022  0.8097  1.5024
  504MOL0     H67976   2.316   9.786   2.287  0.9524  1.1184  2.6086
  504MOL0     H67977   2.556   9.800   2.323 -0.0597  0.8041 -4.8701
  504MOL0     H67978   2.473   9.921   2.430  0.8736 -1.2763  1.2772
  504MOL0     H67979   2.550  10.101   2.311  0.3893  0.3127 -1.2454
  504MOL0     H67980   2.606   9.997   2.165 -1.2065 -1.4636 -0.1635
  504MOL0     H67981   2.727  10.018   2.446 -2.4809 -0.4281 -0.0847
  504MOL0     H67982   2.770   9.884   2.346  1.4512  0.4016 -0.4134
  504MOL0     H67983   2.849  10.056   2.171  3.1564 -0.3347  0.8269
  504MOL0     H67984   2.828  10.182   2.294  1.0237 -0.7853  1.3904
  504MOL0     H67985   2.952  10.002   2.448  1.9375  0.5476  1.0527
  504MOL0     H67986   2.997   9.935   2.290  3.5711  1.8029 -1.1074
  504MOL0     H67987   3.049  10.238   2.342 -0.0309  0.1214 -3.8351
  504MOL0     H67988   3.110  10.130   2.223  4.1824 -2.4979  0.8877
  504MOL0     H67989   3.230  10.196   2.463 -0.7415 -0.9040  0.7270
  504MOL0     H67990   3.166  10.036   2.504  0.4201  0.6753  1.1296
  504MOL0     H67991   3.479  10.075   2.514  1.4781 -2.1468  1.0649
  504MOL0     H67992   3.661   9.875   2.473  2.5528 -0.6972 -0.6301
  504MOL0     H67993   3.609   9.745   2.368  1.1163 -0.5248 -0.0167
  504MOL0     H67994   3.715   9.873   2.176 -2.1400  2.3418  0.2017
  504MOL0     H67995   3.776   9.991   2.281 -0.5222 -0.7883 -1.0847
  504MOL0     H67996   3.854   9.701   2.323 -2.9705  0.5366 -1.1498
  504MOL0     H67997   3.902   9.832   2.425 -2.6605 -1.1194  0.3561
  504MOL0     H67998   3.952   9.811   2.128 -1.1903  1.1682  0.7619
  504MOL0     H67999   4.071   9.759   2.260 -1.8814  1.5430  6.0513
  504MOL0     H68000   4.111  10.216   2.248  2.0391 -0.8121  1.8210
  504MOL0     H68001   4.297  10.306   2.122  1.4270 -0.0144  1.2142
  504MOL0     H68002   4.423  10.148   1.606  0.7137  0.4330  1.3782
  504MOL0     H68003   4.550  10.289   1.435  0.4932 -0.1444  0.5226
  504MOL0     H68004   4.959  10.458   1.523  1.1981  1.3520 -1.4554
  504MOL0     H68005   5.004  10.298   1.455 -0.1244  0.1026 -2.3085
  504MOL0     H68006   4.916  10.537   1.292  0.2245 -0.9222 -3.2393
  504MOL0     H68007   5.087  10.488   1.330 -0.3691  1.1792  4.3986
  504MOL0     H68008   5.068  10.306   1.196 -0.0793  1.4552  2.4373
  504MOL0     H68009   4.906  10.288   1.198  4.2709 -3.1751  2.3768
  504MOL0     H68010   4.881  10.487   1.043  0.3339  1.1753 -0.7481
  504MOL0     H68011   5.010  10.373   0.983  0.7293 -1.8275  1.5285
  504MOL0     H68012   5.079  10.639   1.142 -0.7475 -1.1663  1.7073
  504MOL0     H68013   5.052  10.630   0.977  0.6688  0.0940 -1.2209
  504MOL0     H68014   5.259  10.496   1.162 -2.0772  1.4858  1.2901
  504MOL0     H68015   5.234  10.431   1.008 -3.1681  0.2360  0.3780
  504MOL0     H68016   5.346  10.705   1.070  0.3943 -2.8788  2.5439
  504MOL0     H68017   5.289  10.642   0.906 -0.8841  0.5753  0.1964
  504MOL0     H68018   5.550  10.615   0.947 -1.5653  1.2946 -1.6707
  504MOL0     H68019   5.500  10.513   1.081 -2.1867 -3.8626  0.1902
  504MOL0     H68020   4.894  10.298   1.690  0.6019 -0.5392 -0.9676
  504MOL0     H68021   4.768  10.187   1.869 -0.7585  0.6681  2.0309
  504MOL0     H68022   4.406   9.909   1.983  0.2324 -2.1621  2.1844
  504MOL0     H68023   4.199   9.836   2.082  1.6025 -0.9042 -0.9736
  504MOL0     H68024   2.174   9.855   2.086 -0.4459  3.0566 -1.3382
  504MOL0     H68025   2.053   9.842   1.860 -0.4223  0.6483  1.0995
  504MOL0     H68026   2.022   9.677   1.513 -3.3447 -0.7742  1.1487
  504MOL0     H68027   1.899   9.630   1.303  0.4732 -0.2286 -2.3354
  504MOL0     H68028   1.866   9.904   1.006 -0.3460  1.1896 -0.2943
  504MOL0     H68029   1.724   9.980   1.064  2.5208  1.8724 -0.9932
  504MOL0     H68030   1.668   9.886   0.849 -3.3201  0.2259  0.3417
  504MOL0     H68031   1.581   9.800   0.965 -0.1862 -1.2905 -1.0465
  504MOL0     H68032   1.761   9.615   0.942  0.1884 -0.6442 -0.0010
  504MOL0     H68033   1.857   9.710   0.840 -0.2533  1.6148  1.6540
  504MOL0     H68034   1.602   9.555   0.782  2.1349 -2.1851  0.2941
  504MOL0     H68035   1.602   9.725   0.727  1.3070  1.3223  0.3894
  504MOL0     H68036   1.783   9.480   0.433  1.5213 -2.1192  0.6861
  504MOL0     H68037   1.841  10.052   1.248  2.4817  0.8349 -0.7980
  504MOL0     H68038   2.037  10.168   1.324 -1.7034 -1.6607 -1.3499
  504MOL0     H68039   1.928  10.202   1.475 -0.8381  0.6423 -1.2834
  504MOL0     H68040   2.106  10.159   1.471  0.4103  1.2338 -0.7941
  505MOL0     O68041   4.549   2.192   1.399 -0.0372 -0.4318  0.2062
  505MOL0     C68042   4.555   2.316   1.420 -0.1509  0.5150 -0.4791
  505MOL0     O68043   4.664   2.390   1.474 -0.1296  0.5595 -0.1959
  505MOL0     C68044   4.785   2.337   1.467  0.2691 -0.7819 -0.2873
  505MOL0     C68045   4.852   2.318   1.584 -0.1285  0.1670 -0.1728
  505MOL0     C68046   4.972   2.241   1.596  0.3994  0.8642 -0.1571
  505MOL0     C68047   5.034   2.195   1.479 -0.4558 -0.3847  1.3489
  505MOL0     O68048   5.146   2.119   1.491 -0.0591 -0.3960  0.1068
  505MOL0     C68049   5.156   2.018   1.391  0.4071 -0.2524 -0.5317
  505MOL0     C68050   5.252   1.916   1.441 -0.4312  0.2351  0.2903
  505MOL0     C68051   5.207   1.853   1.579  0.4241 -0.0348 -0.2030
  505MOL0     C68052   5.304   1.765   1.639 -0.1809  0.8842 -0.9942
  505MOL0     C68053   5.268   1.729   1.787 -0.0198 -0.2713  0.4517
  505MOL0     C68054   5.380   1.632   1.844  0.6991 -0.5023 -0.5849
  505MOL0     C68055   5.360   1.601   1.998 -0.0977  0.6930 -0.0245
  505MOL0     C68056   5.380   1.722   2.086  0.1510 -0.4466 -0.4282
  505MOL0     N68057   5.515   1.741   2.139  0.2803  0.1434  0.0830
  505MOL0     C68058   5.561   1.853   2.202  0.3475  0.1948  0.4619
  505MOL0     C68059   5.680   1.818   2.249  0.1170 -0.6695 -0.2002
  505MOL0     C68060   5.775   1.923   2.307  1.0234  1.0577 -0.1610
  505MOL0     C68061   5.824   1.888   2.451 -0.2150 -0.0561 -0.6229
  505MOL0     C68062   5.900   2.007   2.504  0.5100 -0.9007  0.3350
  505MOL0     C68063   6.039   2.003   2.452  0.1919 -0.1314  0.5994
  505MOL0     O68064   6.058   2.043   2.313 -0.6559 -0.5059  0.5579
  505MOL0     C68065   6.177   2.016   2.250 -0.0402 -1.1287  0.2937
  505MOL0     C68066   6.175   2.051   2.120 -0.4272  0.6617  0.5380
  505MOL0     C68067   6.297   2.052   2.040 -0.7482  0.2692  0.7479
  505MOL0     C68068   6.416   2.009   2.103  0.3109 -0.8223 -0.4399
  505MOL0     C68069   6.541   2.000   2.022  0.4954 -0.4855  0.0064
  505MOL0     O68070   6.633   1.898   2.056  0.1513 -0.3157 -0.5475
  505MOL0     C68071   6.717   1.840   1.971  0.7182  0.2606 -0.5331
  505MOL0     C68072   6.853   1.851   1.981  0.1429 -1.2911 -0.7826
  505MOL0     C68073   6.936   1.780   1.903  0.1740  0.5761  0.5998
  505MOL0     C68074   6.881   1.699   1.800 -0.2427  0.1053  1.5837
  505MOL0     O68075   6.963   1.641   1.694 -0.3940  0.0454 -0.9175
  505MOL0     C68076   7.104   1.638   1.710 -1.0824 -0.5172  0.6452
  505MOL0     C68077   7.158   1.580   1.581  0.0748  0.4431  0.5867
  505MOL0     C68078   7.140   1.432   1.577 -0.3604  0.0534 -0.3231
  505MOL0     C68079   7.195   1.364   1.449  0.1645 -0.7574  1.0115
  505MOL0     C68080   7.344   1.401   1.416 -0.5325  0.5937 -0.8534
  505MOL0     C68081   7.403   1.328   1.289  0.4161  0.5773  0.3612
  505MOL0     C68082   7.548   1.359   1.262 -0.5700  0.0031  0.2141
  505MOL0     C68083   7.604   1.278   1.138 -0.3273  0.9153 -0.0511
  505MOL0    Cl68084   7.515   1.300   0.991 -0.2255 -0.6131 -0.4759
  505MOL0     C68085   6.743   1.693   1.789  0.2161  0.7706  0.1404
  505MOL0     C68086   6.661   1.756   1.877 -0.9603 -0.9463 -0.3846
  505MOL0     O68087   6.549   2.068   1.922  0.4399  0.2554  0.2131
  505MOL0     C68088   6.410   1.956   2.237 -0.9816 -0.7419  0.2200
  505MOL0     C68089   6.291   1.962   2.309  0.1013 -0.7080  0.4172
  505MOL0     N68090   5.708   1.685   2.223  0.4820  0.5213 -0.1680
  505MOL0     N68091   5.609   1.643   2.144 -0.4203 -0.2666 -0.5808
  505MOL0     C68092   4.969   2.224   1.357 -0.1340 -0.7868 -0.0955
  505MOL0     C68093   4.852   2.300   1.357 -0.3771 -0.0157  0.8588
  505MOL0     C68094   4.432   2.391   1.370  0.8837  0.2376 -0.0090
  505MOL0     C68095   4.303   2.332   1.378 -0.0433  0.9720  0.9410
  505MOL0     C68096   4.185   2.398   1.350 -0.0108  0.3522  0.7162
  505MOL0     C68097   4.188   2.517   1.283  0.0404  0.3730 -0.3605
  505MOL0     O68098   4.072   2.587   1.243  0.1047  0.5257  0.7355
  505MOL0     C68099   3.941   2.532   1.239  0.5884 -0.0949 -0.1254
  505MOL0     C68100   3.890   2.438   1.126 -0.4742 -0.0142  0.8533
  505MOL0     C68101   3.871   2.496   0.982 -0.3917  1.2240 -0.4964
  505MOL0     C68102   3.762   2.595   0.980  0.0048 -0.5116 -0.6694
  505MOL0     C68103   3.709   2.613   0.839  0.7080 -0.0631  0.3652
  505MOL0     C68104   3.695   2.635   0.722  0.8105  0.1716  0.0804
  505MOL0     C68105   4.311   2.573   1.262 -0.3510  0.9047 -1.2749
  505MOL0     C68106   4.429   2.518   1.305 -0.3303 -0.1823  0.5081
  505MOL0     C68107   4.557   2.589   1.273 -0.2121  0.2855  0.0370
  505MOL0     H68108   4.821   2.360   1.679  3.1785 -0.3928  1.2937
  505MOL0     H68109   5.030   2.222   1.685 -2.0147 -4.8702  0.6518
  505MOL0     H68110   5.068   1.967   1.350  2.3349 -1.8705 -2.9425
  505MOL0     H68111   5.210   2.047   1.300  1.8124 -1.6560 -0.1875
  505MOL0     H68112   5.351   1.962   1.447  0.7681 -2.1146 -0.4227
  505MOL0     H68113   5.263   1.839   1.364  4.1447  2.2002 -1.4162
  505MOL0     H68114   5.119   1.790   1.565  1.9886 -2.2952 -0.5588
  505MOL0     H68115   5.173   1.930   1.648  0.6323  0.0803 -0.2269
  505MOL0     H68116   5.344   1.682   1.579  0.0565 -1.6826  2.3833
  505MOL0     H68117   5.389   1.834   1.643  0.1089  0.4958  1.9875
  505MOL0     H68118   5.261   1.820   1.847  0.1409 -0.3138  0.5339
  505MOL0     H68119   5.173   1.675   1.782  0.1480 -1.0151  3.4463
  505MOL0     H68120   5.378   1.543   1.781 -0.4674  0.0474 -1.3759
  505MOL0     H68121   5.472   1.688   1.823  1.2368 -1.1978 -0.1072
  505MOL0     H68122   5.431   1.524   2.032 -0.3230  0.9711  1.1314
  505MOL0     H68123   5.263   1.555   2.020  1.0263 -2.3555 -0.8822
  505MOL0     H68124   5.357   1.812   2.028 -2.4057 -0.7976 -0.0712
  505MOL0     H68125   5.308   1.710   2.168  0.2793 -0.2127 -0.2794
  505MOL0     H68126   5.521   1.953   2.218  1.1776  0.3445  1.7450
  505MOL0     H68127   5.853   1.939   2.232 -1.8395 -0.6700 -3.8440
  505MOL0     H68128   5.715   2.013   2.322  1.0934  1.1228 -0.2769
  505MOL0     H68129   5.733   1.872   2.509 -0.1498  0.7741 -0.2742
  505MOL0     H68130   5.878   1.797   2.479  0.1953  0.8051  1.5519
  505MOL0     H68131   5.899   1.985   2.611 -0.6874  0.2904  0.5885
  505MOL0     H68132   5.861   2.106   2.477  1.7116 -0.4646  0.1327
  505MOL0     H68133   6.083   1.903   2.458 -3.2966 -1.9313 -0.7085
  505MOL0     H68134   6.095   2.074   2.514 -0.9216 -1.1642  2.8798
  505MOL0     H68135   6.083   2.092   2.080  0.5934  3.4157  0.8358
  505MOL0     H68136   6.286   2.087   1.937  0.2557  0.2650  0.6354
  505MOL0     H68137   6.886   1.920   2.058 -0.1637 -0.9146 -0.9826
  505MOL0     H68138   7.041   1.801   1.921 -0.2819  1.0588  3.0336
  505MOL0     H68139   7.132   1.742   1.728 -0.5368 -0.8278  1.6529
  505MOL0     H68140   7.148   1.585   1.795  0.6854 -0.3172 -0.0922
  505MOL0     H68141   7.108   1.615   1.490  4.5636 -3.5371 -4.0504
  505MOL0     H68142   7.259   1.618   1.564 -0.3138  2.0126  1.5196
  505MOL0     H68143   7.188   1.392   1.667 -2.9854  0.8959  1.6094
  505MOL0     H68144   7.033   1.412   1.595  0.2319 -1.2586  2.3480
  505MOL0     H68145   7.138   1.391   1.359 -2.2074  1.2268  2.9552
  505MOL0     H68146   7.182   1.257   1.468  3.4302 -1.1631  1.6114
  505MOL0     H68147   7.407   1.359   1.496 -2.5401 -0.5714  0.2157
  505MOL0     H68148   7.367   1.508   1.415 -1.7970  0.9330  1.0607
  505MOL0     H68149   7.384   1.221   1.303  1.1945 -0.2541 -3.5689
  505MOL0     H68150   7.351   1.356   1.197  0.1347  2.2680  1.0005
  505MOL0     H68151   7.605   1.334   1.353 -1.7398 -0.1461  0.9262
  505MOL0     H68152   7.575   1.464   1.243 -0.0102 -0.3442 -0.9647
  505MOL0     H68153   7.700   1.324   1.112  0.0635 -0.1332 -0.4927
  505MOL0     H68154   7.607   1.170   1.149  0.4828  0.9555  0.2203
  505MOL0     H68155   6.706   1.639   1.702  1.0308 -3.2434  2.0279
  505MOL0     H68156   6.553   1.750   1.874 -0.9566 -1.9025  0.8109
  505MOL0     H68157   6.503   1.925   2.283  0.0202  1.3893 -0.2214
  505MOL0     H68158   6.285   1.928   2.412  2.2897  3.5550  2.1902
  505MOL0     H68159   5.004   2.195   1.258 -1.0916 -1.5090 -0.2336
  505MOL0     H68160   4.796   2.307   1.264 -0.7481 -0.0758  1.0759
  505MOL0     H68161   4.289   2.227   1.402 -2.1674  0.5797 -1.6227
  505MOL0     H68162   4.097   2.341   1.375 -2.0927  0.4653 -4.8938
  505MOL0     H68163   3.871   2.615   1.232 -3.3849 -3.1987 -0.7800
  505MOL0     H68164   3.921   2.486   1.337  0.8325 -3.6104 -1.5725
  505MOL0     H68165   3.794   2.393   1.153 -1.8151  0.9791 -1.8422
  505MOL0     H68166   3.967   2.361   1.113  1.3516  1.7727  0.4608
  505MOL0     H68167   3.847   2.417   0.911 -2.4013 -0.6625  2.0944
  505MOL0     H68168   3.959   2.552   0.949  0.8570 -0.7827 -0.7464
  505MOL0     H68169   3.680   2.564   1.046  0.0213 -0.5039 -0.6456
  505MOL0     H68170   3.797   2.687   1.027  1.1097 -1.2228 -0.0561
  505MOL0     H68171   3.687   2.664   0.619 -0.3024  1.4745  0.4948
  505MOL0     H68172   4.310   2.674   1.221  2.6455  0.1163 -3.6323
  505MOL0     H68173   4.611   2.594   1.368 -2.4449  0.2779  1.3570
  505MOL0     H68174   4.621   2.556   1.190 -0.2277  4.0003 -1.6372
  505MOL0     H68175   4.546   2.696   1.255  4.8185  1.0678  0.2421
  506MOL0     O68176   8.063   1.931   0.179 -0.1660  0.6069  0.3839
  506MOL0     C68177   8.031   1.841   0.100 -0.0982  0.0430 -0.5300
  506MOL0     O68178   7.980   1.857  -0.026 -0.8612 -0.7842  1.4259
  506MOL0     C68179   7.987   1.978  -0.090 -0.5615 -0.1380  0.4032
  506MOL0     C68180   7.941   2.105  -0.046  0.0689 -0.9841 -0.5752
  506MOL0     C68181   7.963   2.213  -0.124 -0.7487  0.1913 -0.1787
  506MOL0     C68182   8.011   2.204  -0.258  0.2040  0.1390  0.7484
  506MOL0     O68183   8.049   2.311  -0.343 -0.2083 -0.3173 -0.7533
  506MOL0     C68184   8.011   2.438  -0.304  0.5751  0.1600  0.1258
  506MOL0     C68185   7.994   2.541  -0.423  0.0340 -0.2958 -1.0535
  506MOL0     C68186   7.895   2.488  -0.532  0.8534 -0.3092 -0.1120
  506MOL0     C68187   7.883   2.597  -0.649 -0.0772  0.5107  1.0488
  506MOL0     C68188   7.842   2.531  -0.777 -0.0589  0.5497  0.1693
  506MOL0     C68189   7.825   2.628  -0.898  0.2566  0.2043 -0.2443
  506MOL0     C68190   7.748   2.754  -0.872 -0.0958 -1.0278  0.1849
  506MOL0     C68191   7.718   2.826  -1.010  0.5838 -0.5226  0.0232
  506MOL0     N68192   7.631   2.954  -1.004 -0.6506  1.1157 -0.0959
  506MOL0     C68193   7.491   2.959  -0.981 -1.0757 -0.7919 -0.7634
  506MOL0     C68194   7.473   3.096  -0.958  1.0064 -0.1619  0.1716
  506MOL0     C68195   7.342   3.157  -0.932 -0.3739 -0.5430 -0.2898
  506MOL0     C68196   7.334   3.320  -0.943 -0.5703 -0.1781  1.3782
  506MOL0     C68197   7.436   3.408  -0.865  1.3834  0.5964 -0.2829
  506MOL0     C68198   7.461   3.368  -0.718 -0.5400  0.3886 -0.6379
  506MOL0     O68199   7.344   3.411  -0.652 -0.1627 -0.5340  0.1868
  506MOL0     C68200   7.346   3.390  -0.515  0.4655 -0.5855  0.2994
  506MOL0     C68201   7.430   3.303  -0.438  0.8549 -0.8077 -0.6356
  506MOL0     C68202   7.403   3.275  -0.307  0.1279 -1.2707  0.6532
  506MOL0     C68203   7.300   3.348  -0.235  0.1033  0.3557  0.7167
  506MOL0     C68204   7.300   3.355  -0.089 -0.0535 -0.7351  0.0277
  506MOL0     O68205   7.181   3.385  -0.031  0.4450  0.6067  0.0951
  506MOL0     C68206   7.163   3.425   0.095  0.8448  0.3925 -0.5390
  506MOL0     C68207   7.123   3.560   0.119  0.3006  0.3097 -0.1909
  506MOL0     C68208   7.119   3.614   0.250  0.9701  0.2092  0.4772
  506MOL0     C68209   7.159   3.541   0.358  0.7397  0.6429  0.0573
  506MOL0     O68210   7.153   3.582   0.489  1.0314 -0.9676  0.7365
  506MOL0     C68211   7.189   3.717   0.525  0.7754  1.0213 -0.2333
  506MOL0     C68212   7.336   3.751   0.513  0.6111 -0.7344  0.3444
  506MOL0     C68213   7.402   3.831   0.633  0.2165  0.7840  0.7422
  506MOL0     C68214   7.325   3.958   0.661  0.1371 -0.1086  0.0341
  506MOL0     C68215   7.391   4.017   0.783  0.5791  0.2207  0.0937
  506MOL0     C68216   7.310   4.130   0.846 -0.3547  0.0651 -0.7482
  506MOL0     C68217   7.313   4.251   0.759 -0.2691  0.5425 -0.2477
  506MOL0     C68218   7.271   4.379   0.836  0.9735  0.1654 -0.6142
  506MOL0    Cl68219   7.252   4.514   0.729  0.5501 -0.4421  0.5381
  506MOL0     C68220   7.189   3.402   0.341 -0.6106  0.0618  0.2430
  506MOL0     C68221   7.205   3.344   0.210  0.3514 -0.6535  0.0601
  506MOL0     O68222   7.407   3.332  -0.024  0.2236 -0.2952 -0.0037
  506MOL0     C68223   7.207   3.423  -0.310 -0.3400 -0.6163 -0.0350
  506MOL0     C68224   7.239   3.446  -0.444  0.4548 -0.1230  0.2345
  506MOL0     N68225   7.589   3.168  -0.976  0.0223 -0.0887  0.4343
  506MOL0     N68226   7.676   3.081  -1.009 -0.6756  0.1764  0.8357
  506MOL0     C68227   8.037   2.081  -0.304 -0.3305 -0.0467 -0.3867
  506MOL0     C68228   8.030   1.968  -0.219  0.4928 -0.2633  0.1350
  506MOL0     C68229   8.046   1.705   0.147  0.2957 -0.1233  0.0611
  506MOL0     C68230   8.086   1.615   0.045 -0.2460  0.0459 -1.4812
  506MOL0     C68231   8.130   1.479   0.072 -0.8129  0.2687 -0.1075
  506MOL0     C68232   8.135   1.435   0.203 -0.1736  0.9405  1.1680
  506MOL0     O68233   8.193   1.309   0.212 -0.3472  0.4354  0.5983
  506MOL0     C68234   8.201   1.243   0.337  0.1043  0.2175  0.3913
  506MOL0     C68235   8.285   1.114   0.314  0.2021 -0.2758  0.1885
  506MOL0     C68236   8.438   1.140   0.296  0.5168 -1.0470 -0.2700
  506MOL0     C68237   8.520   1.016   0.326 -0.1477 -0.6357  0.6064
  506MOL0     C68238   8.468   0.900   0.245 -0.2637 -1.4230 -0.0717
  506MOL0     C68239   8.413   0.800   0.211 -0.2086  0.5699  1.0871
  506MOL0     C68240   8.104   1.524   0.309 -0.4769 -0.1930 -0.6045
  506MOL0     C68241   8.055   1.656   0.279  0.8621  0.0652  0.1722
  506MOL0     C68242   8.027   1.740   0.404 -0.0285  0.4013 -0.7982
  506MOL0     H68243   7.901   2.105   0.055 -1.9788 -3.7403 -1.2594
  506MOL0     H68244   7.934   2.310  -0.085  0.7915  1.2464 -1.5006
  506MOL0     H68245   7.913   2.422  -0.258  1.3171 -2.3025  1.0185
  506MOL0     H68246   8.076   2.493  -0.236  2.1051 -0.0207 -1.1207
  506MOL0     H68247   8.089   2.548  -0.477  1.1797 -2.6759  0.4237
  506MOL0     H68248   7.954   2.628  -0.371  4.4510  1.1032  0.4911
  506MOL0     H68249   7.794   2.472  -0.494  1.2320 -3.7055 -0.3098
  506MOL0     H68250   7.921   2.387  -0.565 -0.0564 -1.2188  1.8013
  506MOL0     H68251   7.809   2.674  -0.625  0.8230  0.7889  3.1894
  506MOL0     H68252   7.972   2.660  -0.660 -1.0271  1.6255 -0.6760
  506MOL0     H68253   7.916   2.453  -0.798  0.6512  1.7251 -1.9872
  506MOL0     H68254   7.742   2.487  -0.766 -0.9489  2.5154  0.2366
  506MOL0     H68255   7.929   2.643  -0.931 -0.1302 -0.1571 -1.6892
  506MOL0     H68256   7.776   2.571  -0.977 -0.7633  0.5071  0.1545
  506MOL0     H68257   7.817   2.814  -0.812 -1.2788  0.7170 -0.1145
  506MOL0     H68258   7.653   2.725  -0.825 -2.2018 -0.1946 -3.2305
  506MOL0     H68259   7.812   2.853  -1.058  0.5224 -1.7674 -0.8420
  506MOL0     H68260   7.672   2.756  -1.080 -1.8703 -1.7587  2.6708
  506MOL0     H68261   7.411   2.888  -0.967 -2.8356  0.9888 -1.4007
  506MOL0     H68262   7.271   3.105  -0.997 -1.8359  0.0436  0.7729
  506MOL0     H68263   7.305   3.131  -0.833 -3.4417 -2.8593 -1.8604
  506MOL0     H68264   7.326   3.348  -1.049  3.6796  4.0878  1.8499
  506MOL0     H68265   7.238   3.348  -0.898 -1.1889  0.6539 -0.3693
  506MOL0     H68266   7.406   3.513  -0.860 -1.3221 -0.0918 -0.5290
  506MOL0     H68267   7.530   3.409  -0.921  2.1388  2.1086  0.9448
  506MOL0     H68268   7.548   3.425  -0.686  0.5302  0.2100 -3.0342
  506MOL0     H68269   7.479   3.261  -0.706  1.1809  0.2514 -3.6593
  506MOL0     H68270   7.514   3.258  -0.490 -0.5055 -2.4380 -1.5517
  506MOL0     H68271   7.488   3.225  -0.262  0.2194 -2.0789 -0.3813
  506MOL0     H68272   7.097   3.631   0.041  2.2554  2.9783  1.4136
  506MOL0     H68273   7.077   3.714   0.255  0.1838 -0.0596 -0.4781
  506MOL0     H68274   7.127   3.785   0.466  1.4957  0.6497 -1.4510
  506MOL0     H68275   7.155   3.724   0.629 -1.3426 -1.3909 -0.6787
  506MOL0     H68276   7.393   3.659   0.507  1.9443  0.1550 -1.6261
  506MOL0     H68277   7.340   3.798   0.414  0.2531 -1.0515  0.1753
  506MOL0     H68278   7.412   3.763   0.718  5.4368  0.5667  0.2700
  506MOL0     H68279   7.501   3.860   0.597  0.7685  0.8217  2.2212
  506MOL0     H68280   7.222   3.929   0.682 -1.1197  3.3642 -0.5574
  506MOL0     H68281   7.308   4.029   0.578 -3.5383  1.8321  2.1610
  506MOL0     H68282   7.492   4.047   0.754  1.4191 -0.8091  1.7801
  506MOL0     H68283   7.400   3.927   0.844 -0.3249 -1.1041 -1.6374
  506MOL0     H68284   7.209   4.103   0.879  0.6467 -1.5275  1.2111
  506MOL0     H68285   7.359   4.160   0.939 -3.1375 -3.2277  2.0740
  506MOL0     H68286   7.230   4.237   0.688  0.8035  0.1538 -1.4564
  506MOL0     H68287   7.412   4.265   0.715  0.6512 -3.1268  0.3277
  506MOL0     H68288   7.175   4.367   0.887  1.4614  1.4205  0.6888
  506MOL0     H68289   7.345   4.403   0.913  1.8456 -4.4196  0.2695
  506MOL0     H68290   7.217   3.339   0.425 -1.3773 -1.2572 -0.4556
  506MOL0     H68291   7.245   3.244   0.197  1.6022 -0.3410  1.2381
  506MOL0     H68292   7.120   3.468  -0.264 -1.0556 -2.9228  1.0077
  506MOL0     H68293   7.180   3.516  -0.502  2.7839  1.5973 -0.1654
  506MOL0     H68294   8.053   2.069  -0.410 -2.7361 -1.0750 -0.6960
  506MOL0     H68295   8.061   1.873  -0.262 -1.4132 -0.2172 -1.4818
  506MOL0     H68296   8.098   1.647  -0.058  4.8346  4.1254 -0.0826
  506MOL0     H68297   8.160   1.420  -0.014  1.4585  0.1340  0.7249
  506MOL0     H68298   8.110   1.214   0.390 -1.1940 -1.0641 -2.2927
  506MOL0     H68299   8.257   1.288   0.418 -0.1816 -2.6406  2.3250
  506MOL0     H68300   8.249   1.081   0.216  6.0583  0.4803 -2.6861
  506MOL0     H68301   8.258   1.052   0.400 -3.7266  2.1360  0.9459
  506MOL0     H68302   8.475   1.212   0.370  0.1721 -0.0626 -1.0482
  506MOL0     H68303   8.456   1.170   0.192 -3.6283  0.2331 -0.7948
  506MOL0     H68304   8.627   1.037   0.316 -0.0991 -0.7161  0.9369
  506MOL0     H68305   8.507   1.001   0.434 -0.0403 -1.3486  0.5256
  506MOL0     H68306   8.366   0.713   0.168  1.9831 -1.2542  2.1381
  506MOL0     H68307   8.124   1.485   0.408  3.4513 -6.3619 -3.2385
  506MOL0     H68308   7.920   1.725   0.421 -0.4548  0.3341 -3.2465
  506MOL0     H68309   8.081   1.701   0.491  1.5619 -0.5481 -2.1380
  506MOL0     H68310   8.063   1.843   0.406 -1.5521  1.0297  2.8285
  507MOL0     O68311   1.361   8.376   3.134 -0.8438 -0.0719  0.4049
  507MOL0     C68312   1.448   8.296   3.102  0.5628  0.5538  0.1090
  507MOL0     O68313   1.424   8.174   3.049 -0.3459  0.2977  0.3975
  507MOL0     C68314   1.298   8.135   3.014  0.5054  0.4016  0.3676
  507MOL0     C68315   1.175   8.167   3.075 -0.2547 -0.2496 -1.2213
  507MOL0     C68316   1.054   8.115   3.033 -0.6113 -0.8276  0.2616
  507MOL0     C68317   1.028   8.054   2.906  0.0158 -0.0660 -0.3847
  507MOL0     O68318   0.907   8.021   2.856  0.4584 -0.0332  0.2056
  507MOL0     C68319   0.792   8.073   2.921 -0.9247  0.9498  0.1360
  507MOL0     C68320   0.671   8.073   2.822  0.5094  0.8722  0.4081
  507MOL0     C68321   0.706   8.106   2.674 -0.1460 -0.1195  0.2722
  507MOL0     C68322   0.579   8.119   2.597 -0.3820 -0.9161  0.4912
  507MOL0     C68323   0.496   7.992   2.590  0.1954 -0.2993  0.1644
  507MOL0     C68324   0.367   8.012   2.522  0.4417  0.1613 -0.1859
  507MOL0     C68325   0.262   8.094   2.591  0.2012  0.9643 -0.5141
  507MOL0     C68326   0.127   8.023   2.618 -0.1724 -0.6444  0.8211
  507MOL0     N68327   0.134   7.927   2.727  0.2097  0.0919  0.3183
  507MOL0     C68328   0.226   7.930   2.824  0.6388  0.3529 -0.3417
  507MOL0     C68329   0.211   7.814   2.891  0.3481 -0.0085  0.5060
  507MOL0     C68330   0.286   7.753   3.000 -0.2884 -0.4636 -0.5138
  507MOL0     C68331   0.442   7.797   3.003  0.6060  0.3391  0.7677
  507MOL0     C68332   0.520   7.712   3.097 -0.1282 -0.0003 -0.2974
  507MOL0     C68333   0.664   7.760   3.111  0.8062  0.3693  0.2249
  507MOL0     O68334   0.736   7.697   3.220  0.1132  0.1102 -0.2370
  507MOL0     C68335   0.861   7.742   3.243 -0.4494  0.3020 -0.0097
  507MOL0     C68336   0.911   7.710   3.371 -1.3157 -0.0028 -0.3651
  507MOL0     C68337   1.044   7.731   3.405 -0.1046  0.8029  1.1060
  507MOL0     C68338   1.137   7.768   3.301 -1.3190  0.1906 -0.1730
  507MOL0     C68339   1.279   7.773   3.346  0.1765  0.2767 -0.5106
  507MOL0     O68340   1.360   7.798   3.244  0.0609  0.7308 -0.6689
  507MOL0     C68341   1.499   7.787   3.234  0.0557 -0.1623 -0.2448
  507MOL0     C68342   1.580   7.760   3.344  0.5177 -0.3551  0.7199
  507MOL0     C68343   1.725   7.770   3.339  0.3919 -0.7478 -0.6085
  507MOL0     C68344   1.789   7.813   3.225  0.3897 -0.4389  1.0067
  507MOL0     O68345   1.927   7.836   3.214  0.1111  0.1596 -0.3793
  507MOL0     C68346   1.984   7.872   3.347 -0.9649  0.0418  1.1394
  507MOL0     C68347   2.135   7.925   3.350 -0.1306  0.0357  0.1359
  507MOL0     C68348   2.167   8.058   3.275  1.2822 -0.1468  0.4192
  507MOL0     C68349   2.188   8.024   3.127 -0.1939 -0.5780  0.6351
  507MOL0     C68350   2.192   8.139   3.031  0.6656 -1.3517 -0.5494
  507MOL0     C68351   2.246   8.093   2.892 -0.3038 -0.9561 -0.0102
  507MOL0     C68352   2.397   8.122   2.885 -0.8909 -0.5743 -0.8516
  507MOL0     C68353   2.468   8.054   2.770  0.0243  1.0252  0.9726
  507MOL0    Cl68354   2.635   8.087   2.772 -0.0182  0.1273 -0.4132
  507MOL0     C68355   1.707   7.847   3.119 -0.0227  0.2014 -0.7738
  507MOL0     C68356   1.566   7.831   3.125 -0.5766  0.0098  0.3336
  507MOL0     O68357   1.316   7.755   3.462  0.6403 -0.4125  0.0173
  507MOL0     C68358   1.091   7.826   3.177 -0.1629  0.2928  0.0795
  507MOL0     C68359   0.946   7.806   3.157 -1.0694 -0.5966 -0.1376
  507MOL0     N68360   0.102   7.746   2.831 -0.1790 -0.1493  0.8448
  507MOL0     N68361   0.054   7.821   2.740  0.4731 -0.2263  0.0347
  507MOL0     C68362   1.154   8.025   2.838  0.6488 -0.0652 -0.3862
  507MOL0     C68363   1.274   8.057   2.895 -0.6437 -0.8088 -0.5315
  507MOL0     C68364   1.587   8.330   3.152  0.3394 -0.4989  0.1677
  507MOL0     C68365   1.683   8.234   3.177  0.3961 -0.0602  0.6716
  507MOL0     C68366   1.815   8.264   3.218  0.3803  0.1663  0.2016
  507MOL0     C68367   1.859   8.392   3.212 -0.1501  0.8088 -0.3930
  507MOL0     O68368   1.990   8.424   3.226  0.3959 -0.7124 -0.4356
  507MOL0     C68369   2.039   8.559   3.224 -0.5022  0.0282 -0.5126
  507MOL0     C68370   2.187   8.576   3.268  0.0234 -0.0160  0.8969
  507MOL0     C68371   2.276   8.517   3.157  0.5407 -0.2395 -0.3035
  507MOL0     C68372   2.415   8.542   3.206  0.2110  0.5549  0.0516
  507MOL0     C68373   2.512   8.501   3.100 -0.0656  0.4430  0.5973
  507MOL0     C68374   2.604   8.454   3.025  0.5662 -0.3752 -0.3015
  507MOL0     C68375   1.763   8.496   3.207  0.6696  0.0160 -0.9007
  507MOL0     C68376   1.628   8.462   3.172  0.2590  0.9207 -0.1236
  507MOL0     C68377   1.547   8.586   3.157  0.3153 -0.2824 -0.3821
  507MOL0     H68378   1.192   8.228   3.164 -0.6158  0.9224 -1.9304
  507MOL0     H68379   0.963   8.142   3.086 -2.2807 -2.6345 -1.4983
  507MOL0     H68380   0.769   8.020   3.014 -0.0369  1.5924  0.7386
  507MOL0     H68381   0.814   8.177   2.945  0.2343  0.8805 -0.5793
  507MOL0     H68382   0.594   8.131   2.873 -0.0855 -0.2615  0.8295
  507MOL0     H68383   0.638   7.969   2.811  0.3378  1.1191 -1.8699
  507MOL0     H68384   0.770   8.028   2.632  3.2892  1.7965  1.5206
  507MOL0     H68385   0.772   8.193   2.669  0.6766 -0.7136  0.5048
  507MOL0     H68386   0.516   8.195   2.645 -3.1619  0.5712 -4.7402
  507MOL0     H68387   0.595   8.143   2.492 -3.5265  1.4266  0.4072
  507MOL0     H68388   0.546   7.919   2.525 -0.1661  1.0573 -1.7172
  507MOL0     H68389   0.480   7.945   2.688 -0.6248  0.6541  0.4965
  507MOL0     H68390   0.393   8.073   2.436  2.3703  0.5192  0.5908
  507MOL0     H68391   0.330   7.913   2.492  0.8637  0.3896 -1.5179
  507MOL0     H68392   0.238   8.184   2.534 -1.4512  1.6069  1.0819
  507MOL0     H68393   0.305   8.149   2.676  0.3858 -0.4655  0.3424
  507MOL0     H68394   0.066   8.109   2.647 -0.7485  1.2571 -4.8165
  507MOL0     H68395   0.095   7.982   2.522 -0.2673  0.6318  0.2887
  507MOL0     H68396   0.302   8.005   2.845  1.8613 -1.2722  1.3675
  507MOL0     H68397   0.232   7.775   3.093  1.1321 -1.4624  0.5804
  507MOL0     H68398   0.276   7.644   2.997 -2.6695 -0.3195  0.0950
  507MOL0     H68399   0.470   7.764   2.902  2.0488 -1.7793  1.7845
  507MOL0     H68400   0.466   7.900   3.029  0.5643  0.3201  0.8798
  507MOL0     H68401   0.531   7.605   3.079 -1.5648  0.0029 -1.2895
  507MOL0     H68402   0.477   7.732   3.196  1.9093 -1.1016  0.8874
  507MOL0     H68403   0.665   7.866   3.138 -0.2518  0.1767  1.1176
  507MOL0     H68404   0.715   7.749   3.015  1.1081 -1.6687  0.5551
  507MOL0     H68405   0.848   7.652   3.438  1.5288 -0.5465  2.0049
  507MOL0     H68406   1.093   7.694   3.494 -0.7658 -3.6930 -0.1690
  507MOL0     H68407   1.547   7.711   3.436  1.5248  2.3133  2.6399
  507MOL0     H68408   1.787   7.739   3.422 -0.6357  1.1299  0.9382
  507MOL0     H68409   1.922   7.942   3.402 -1.1095 -2.0312  3.7968
  507MOL0     H68410   1.992   7.783   3.410  0.8756 -1.2886 -0.7986
  507MOL0     H68411   2.133   7.963   3.453 -0.6617  0.5499 -0.0590
  507MOL0     H68412   2.219   7.856   3.336 -2.4188 -3.2945  1.6945
  507MOL0     H68413   2.088   8.132   3.286  0.4068 -1.3425  2.6990
  507MOL0     H68414   2.257   8.092   3.328  0.5217  0.0726  1.5870
  507MOL0     H68415   2.105   7.968   3.083 -0.9111  1.1262 -0.2639
  507MOL0     H68416   2.271   7.955   3.110  1.5067  2.0193 -2.5516
  507MOL0     H68417   2.254   8.213   3.082 -1.4608 -0.8490  1.5261
  507MOL0     H68418   2.096   8.189   3.015 -0.3970 -2.1113  2.5379
  507MOL0     H68419   2.229   7.986   2.875 -1.0160 -1.1432  1.6334
  507MOL0     H68420   2.192   8.140   2.810 -1.0821  0.9683  1.5375
  507MOL0     H68421   2.435   8.082   2.979  1.6934 -3.0990 -2.8151
  507MOL0     H68422   2.417   8.229   2.875 -0.3465 -0.6252 -0.3666
  507MOL0     H68423   2.460   7.946   2.781 -2.1885  0.9548 -0.6095
  507MOL0     H68424   2.427   8.078   2.671 -0.8412  1.9168  1.5236
  507MOL0     H68425   1.765   7.899   3.043  0.3038 -0.6358 -1.1125
  507MOL0     H68426   1.501   7.867   3.045 -1.4922 -0.3198  0.9164
  507MOL0     H68427   1.162   7.875   3.111  1.4728 -0.3946  1.2436
  507MOL0     H68428   0.917   7.843   3.059  2.9914 -1.4881 -1.9245
  507MOL0     H68429   1.144   7.957   2.754 -1.1732  1.0163 -1.0901
  507MOL0     H68430   1.360   8.009   2.849 -0.1912 -0.2492 -0.2889
  507MOL0     H68431   1.658   8.136   3.137  0.8184  0.4911 -0.9762
  507MOL0     H68432   1.886   8.185   3.241  2.5314  1.3092 -1.9893
  507MOL0     H68433   1.984   8.619   3.297 -0.0130 -2.2352  1.8528
  507MOL0     H68434   2.025   8.594   3.121  1.5890 -1.1590 -1.2431
  507MOL0     H68435   2.211   8.522   3.359  0.5884 -2.0533 -0.3939
  507MOL0     H68436   2.193   8.685   3.277 -2.1147  0.2565 -0.2999
  507MOL0     H68437   2.258   8.582   3.071  0.4302 -1.3719 -1.1700
  507MOL0     H68438   2.262   8.409   3.145  0.2298 -0.3525  0.9568
  507MOL0     H68439   2.445   8.647   3.214 -0.4936  0.6497  2.4764
  507MOL0     H68440   2.434   8.481   3.295  1.0037 -0.5843 -0.8831
  507MOL0     H68441   2.673   8.416   2.953  0.9379 -0.3002  0.0111
  507MOL0     H68442   1.799   8.598   3.219 -1.4947  0.8009 -0.5927
  507MOL0     H68443   1.473   8.584   3.237  0.4600  2.8594 -0.0662
  507MOL0     H68444   1.608   8.674   3.136 -0.2299  0.1234 -0.2678
  507MOL0     H68445   1.498   8.579   3.059  1.7108  1.0889 -1.2153
  508MOL0     O68446   0.387   5.488   1.052 -0.3497 -0.0118 -0.7090
  508MOL0     C68447   0.269   5.490   1.080 -0.1031 -0.4379  0.1915
  508MOL0     O68448   0.223   5.525   1.209  0.2562 -0.2685  0.5590
  508MOL0     C68449   0.290   5.617   1.279  0.6769 -1.0386 -0.8169
  508MOL0     C68450   0.305   5.600   1.417 -0.2468 -0.1585 -0.4208
  508MOL0     C68451   0.359   5.701   1.501 -0.4919  0.6468  0.2500
  508MOL0     C68452   0.396   5.827   1.446 -0.8262 -0.0960 -0.8888
  508MOL0     O68453   0.453   5.922   1.540 -0.2631  0.2904 -0.3182
  508MOL0     C68454   0.527   6.034   1.477  0.5483  0.6587  0.2406
  508MOL0     C68455   0.578   6.137   1.588  0.1700 -0.1376 -0.4089
  508MOL0     C68456   0.471   6.221   1.659 -0.2067  0.5764  0.5759
  508MOL0     C68457   0.526   6.248   1.802 -0.0841 -1.0423 -0.7666
  508MOL0     C68458   0.446   6.361   1.876  0.3589 -0.5826  0.3541
  508MOL0     C68459   0.527   6.386   2.005  0.5921  0.4139  0.1923
  508MOL0     C68460   0.458   6.490   2.093 -0.4049  0.7009  1.3143
  508MOL0     C68461   0.408   6.426   2.213 -0.6743  0.5433  0.3854
  508MOL0     N68462   0.340   6.520   2.292 -0.5714 -0.0558 -0.2877
  508MOL0     C68463   0.210   6.550   2.270 -0.3337  0.1950 -0.7085
  508MOL0     C68464   0.171   6.637   2.374 -0.2629  0.2213  1.0681
  508MOL0     C68465   0.029   6.693   2.395 -0.8117 -0.1669  0.5757
  508MOL0     C68466  -0.016   6.685   2.544 -1.5789  0.5927 -0.8929
  508MOL0     C68467  -0.028   6.533   2.566 -0.5007 -0.9316  0.1911
  508MOL0     C68468  -0.091   6.523   2.713 -0.3070  0.0094 -0.4982
  508MOL0     O68469  -0.139   6.392   2.731  1.2271  0.9421  0.6043
  508MOL0     C68470  -0.218   6.379   2.846 -0.6944  0.4293 -0.4503
  508MOL0     C68471  -0.278   6.255   2.856  0.3992  0.2352 -0.3208
  508MOL0     C68472  -0.369   6.220   2.956 -0.1630  0.8777  0.4445
  508MOL0     C68473  -0.389   6.310   3.064  0.0711  0.1656  0.4006
  508MOL0     C68474  -0.485   6.274   3.168  1.0381  0.3785 -0.9464
  508MOL0     O68475  -0.465   6.338   3.286  0.1653 -0.7876 -0.0535
  508MOL0     C68476  -0.538   6.324   3.398 -0.0674 -0.1020  0.2607
  508MOL0     C68477  -0.566   6.442   3.465  0.2574  0.1022  0.9768
  508MOL0     C68478  -0.663   6.441   3.567 -0.0595 -0.2092 -0.6418
  508MOL0     C68479  -0.724   6.318   3.602  0.2794 -0.4586 -0.0856
  508MOL0     O68480  -0.838   6.296   3.673 -0.5838  0.6498  0.3140
  508MOL0     C68481  -0.940   6.387   3.636  0.5553 -0.3642  0.2526
  508MOL0     C68482  -0.986   6.473   3.760  0.3315 -0.4691  0.8705
  508MOL0     C68483  -1.095   6.590   3.721 -0.4269 -0.2777  0.1133
  508MOL0     C68484  -1.056   6.720   3.786  1.0261 -0.1208 -0.8422
  508MOL0     C68485  -1.166   6.828   3.783 -0.4094 -0.4328 -0.1265
  508MOL0     C68486  -1.110   6.958   3.857 -0.3580 -0.1951  0.1829
  508MOL0     C68487  -1.198   7.089   3.852  0.0874 -0.7894  1.0506
  508MOL0     C68488  -1.141   7.217   3.903 -0.0902 -0.1961  0.5250
  508MOL0    Cl68489  -1.166   7.211   4.083 -0.0716 -0.1024 -0.0431
  508MOL0     C68490  -0.685   6.202   3.542 -1.6500  0.6512 -0.6661
  508MOL0     C68491  -0.579   6.201   3.443  0.3577  0.6404  0.3129
  508MOL0     O68492  -0.565   6.175   3.151  0.1708  0.2954  0.2230
  508MOL0     C68493  -0.329   6.439   3.055 -1.0207  0.6823  0.3326
  508MOL0     C68494  -0.241   6.474   2.944 -0.6043 -0.6748 -0.3246
  508MOL0     N68495   0.276   6.663   2.452 -0.5947  0.3918  0.0059
  508MOL0     N68496   0.376   6.591   2.405 -0.6100 -0.1332  0.3293
  508MOL0     C68497   0.375   5.841   1.310 -0.4068  0.8209 -0.2834
  508MOL0     C68498   0.332   5.735   1.222  0.4665  0.3878 -0.0152
  508MOL0     C68499   0.173   5.441   0.977 -0.1720  0.0425 -0.5984
  508MOL0     C68500   0.039   5.474   1.004  0.8661 -0.3206  0.0611
  508MOL0     C68501  -0.066   5.431   0.917 -0.6658 -0.0410  0.5441
  508MOL0     C68502  -0.033   5.341   0.816  0.0363 -0.0292  1.3310
  508MOL0     O68503  -0.140   5.299   0.741  1.0037 -0.3970 -0.3710
  508MOL0     C68504  -0.106   5.251   0.604  0.5474 -0.1542  0.0596
  508MOL0     C68505  -0.217   5.235   0.506  0.3871  0.0307  0.5459
  508MOL0     C68506  -0.298   5.360   0.471  0.0248  0.4842  0.5100
  508MOL0     C68507  -0.389   5.341   0.347 -0.4331  0.4824 -0.8032
  508MOL0     C68508  -0.327   5.305   0.223 -0.4376 -0.0145  0.1943
  508MOL0     C68509  -0.276   5.294   0.119 -0.0608  1.2805 -0.2054
  508MOL0     C68510   0.105   5.306   0.786  0.1143 -0.0442  0.3220
  508MOL0     C68511   0.206   5.357   0.869  0.8700  0.1487 -0.2621
  508MOL0     C68512   0.352   5.305   0.846 -0.3776  0.0591 -0.6045
  508MOL0     H68513   0.270   5.511   1.468 -3.6702  1.8847  1.0974
  508MOL0     H68514   0.374   5.679   1.606  2.9068  3.4019  0.5373
  508MOL0     H68515   0.604   6.005   1.405  0.8121 -0.5687  0.9837
  508MOL0     H68516   0.453   6.081   1.412 -0.1003 -0.4637  0.1430
  508MOL0     H68517   0.645   6.209   1.541 -1.0962  1.4909  0.1999
  508MOL0     H68518   0.634   6.066   1.650 -1.1122 -3.3918 -2.6648
  508MOL0     H68519   0.379   6.161   1.669  1.3985 -1.8232  2.0040
  508MOL0     H68520   0.445   6.313   1.606  0.5071 -0.2447 -1.2916
  508MOL0     H68521   0.524   6.156   1.861  0.2004 -0.9272 -0.5766
  508MOL0     H68522   0.631   6.276   1.790 -0.3745  0.3153 -0.3884
  508MOL0     H68523   0.431   6.452   1.817 -2.2008 -1.7258 -0.9157
  508MOL0     H68524   0.347   6.327   1.907  0.2515 -0.6872 -0.0972
  508MOL0     H68525   0.530   6.289   2.055 -0.4669  0.0139 -0.4927
  508MOL0     H68526   0.634   6.407   1.996  0.6214  0.7609  1.1793
  508MOL0     H68527   0.383   6.547   2.038  1.3869 -0.4061 -2.6387
  508MOL0     H68528   0.539   6.561   2.115 -0.8165  0.7519  2.7602
  508MOL0     H68529   0.340   6.348   2.178  1.6477 -0.1931 -2.9751
  508MOL0     H68530   0.490   6.374   2.263 -3.7322 -0.3216  5.1830
  508MOL0     H68531   0.152   6.510   2.188 -1.5797  2.5903 -1.1074
  508MOL0     H68532   0.046   6.799   2.377  1.2321 -0.5582 -0.0959
  508MOL0     H68533  -0.038   6.660   2.315 -1.8412 -2.4078  2.2576
  508MOL0     H68534   0.064   6.733   2.601 -0.3057 -2.0386 -0.2918
  508MOL0     H68535  -0.104   6.742   2.574 -0.1900  0.9924  2.9676
  508MOL0     H68536   0.068   6.483   2.549  1.1126  2.4555 -1.7135
  508MOL0     H68537  -0.090   6.493   2.485 -1.9896 -1.1407  1.3932
  508MOL0     H68538  -0.180   6.585   2.718  0.4435  1.0130  1.9731
  508MOL0     H68539  -0.021   6.543   2.795 -0.7838 -3.6144  0.9777
  508MOL0     H68540  -0.258   6.181   2.778  1.3010  2.0531 -1.9020
  508MOL0     H68541  -0.423   6.126   2.954 -1.1093  1.3517 -2.7408
  508MOL0     H68542  -0.522   6.535   3.428  0.5607 -1.2595 -2.5254
  508MOL0     H68543  -0.692   6.538   3.606 -0.4683  0.0395 -1.5343
  508MOL0     H68544  -0.916   6.452   3.552 -1.2593 -0.8330 -0.6817
  508MOL0     H68545  -1.030   6.338   3.599  0.7455 -2.0191  1.8126
  508MOL0     H68546  -1.017   6.411   3.845  0.2495 -0.3671  0.9147
  508MOL0     H68547  -0.895   6.525   3.790 -0.2658 -0.0323  2.0088
  508MOL0     H68548  -1.094   6.604   3.612  1.2749  1.1230  0.2725
  508MOL0     H68549  -1.190   6.550   3.758  0.2284 -1.8627  0.1671
  508MOL0     H68550  -0.957   6.753   3.753 -0.2218  1.7850 -2.9953
  508MOL0     H68551  -1.032   6.681   3.885  0.6392  1.1111 -0.2466
  508MOL0     H68552  -1.258   6.793   3.832 -0.4223  0.0458  0.2030
  508MOL0     H68553  -1.189   6.859   3.681 -0.1622 -0.0038 -0.0519
  508MOL0     H68554  -1.105   6.922   3.960 -1.3334 -1.8931 -0.3289
  508MOL0     H68555  -1.007   6.980   3.826 -0.8117  0.0499 -1.2350
  508MOL0     H68556  -1.296   7.075   3.898  0.4311  1.5772  2.7098
  508MOL0     H68557  -1.222   7.112   3.748  0.7223  1.6317  1.3753
  508MOL0     H68558  -1.033   7.224   3.891  0.1423 -0.4563  2.1533
  508MOL0     H68559  -1.192   7.303   3.858  1.1270  0.5510  0.5302
  508MOL0     H68560  -0.746   6.116   3.569 -0.7665 -1.3967 -4.5396
  508MOL0     H68561  -0.549   6.110   3.393 -0.3903  0.7621 -0.3827
  508MOL0     H68562  -0.318   6.493   3.149 -1.7848 -0.2973  1.0039
  508MOL0     H68563  -0.201   6.575   2.951  1.5135 -1.5631  1.4823
  508MOL0     H68564   0.392   5.939   1.267  2.1347  0.7472  0.4318
  508MOL0     H68565   0.333   5.739   1.113 -0.2827 -3.0709 -0.2753
  508MOL0     H68566   0.006   5.538   1.085  0.7897  2.3713 -1.9150
  508MOL0     H68567  -0.168   5.466   0.916 -1.9603 -3.2902 -2.1168
  508MOL0     H68568  -0.066   5.150   0.613 -0.8856 -0.8564 -0.9722
  508MOL0     H68569  -0.028   5.306   0.551 -0.9109  0.7748 -1.2339
  508MOL0     H68570  -0.294   5.173   0.553 -0.8834  0.1305 -1.3368
  508MOL0     H68571  -0.179   5.187   0.415 -2.1151 -2.0404  0.4963
  508MOL0     H68572  -0.239   5.451   0.461 -3.9820  3.0770 -2.3599
  508MOL0     H68573  -0.356   5.377   0.562 -0.1966  0.0008  0.4605
  508MOL0     H68574  -0.466   5.265   0.369 -1.7573  1.6790 -1.1357
  508MOL0     H68575  -0.455   5.426   0.327  1.5477  2.5015  0.7542
  508MOL0     H68576  -0.222   5.283   0.027  1.9459  2.3014  0.7817
  508MOL0     H68577   0.121   5.233   0.707 -0.7638  0.5605 -0.4446
  508MOL0     H68578   0.356   5.217   0.781 -0.5580 -2.2353  2.2780
  508MOL0     H68579   0.416   5.379   0.798  1.4503 -1.7514 -1.0936
  508MOL0     H68580   0.396   5.271   0.940 -1.6613 -1.4236 -0.5030
  509MOL0     O68581   4.923   1.980   3.825 -0.3981  0.6132 -0.5718
  509MOL0     C68582   4.851   2.040   3.755  0.5317  0.2003  0.9870
  509MOL0     O68583   4.899   2.097   3.641 -0.3946  0.0156 -0.4591
  509MOL0     C68584   5.009   2.182   3.650 -0.6429  0.0305  0.2012
  509MOL0     C68585   5.014   2.266   3.763 -0.1134  0.0938 -1.1148
  509MOL0     C68586   5.105   2.368   3.774 -0.3199 -0.3042  0.2111
  509MOL0     C68587   5.192   2.387   3.674  0.9192  0.0048 -0.9418
  509MOL0     O68588   5.272   2.498   3.685  0.1850 -0.4377 -0.6790
  509MOL0     C68589   5.410   2.491   3.633 -0.7672 -0.6244 -0.0156
  509MOL0     C68590   5.488   2.615   3.690 -0.1117 -0.1099 -0.3439
  509MOL0     C68591   5.467   2.620   3.845 -0.1888 -0.2801 -1.1439
  509MOL0     C68592   5.521   2.754   3.918 -0.2679  0.0450 -0.0094
  509MOL0     C68593   5.475   2.878   3.846 -0.3885 -0.1605 -0.4517
  509MOL0     C68594   5.450   2.988   3.952  0.4047 -0.1332  1.4262
  509MOL0     C68595   5.448   3.126   3.879  0.7973 -0.1226  0.6254
  509MOL0     C68596   5.441   3.246   3.972  0.3356 -0.4499  0.0564
  509MOL0     N68597   5.345   3.345   3.911 -0.1198  0.7210 -1.3207
  509MOL0     C68598   5.219   3.352   3.964  0.7162  0.5960  0.5487
  509MOL0     C68599   5.187   3.474   3.923  0.2014  0.1117  0.1540
  509MOL0     C68600   5.056   3.536   3.966  0.4937  0.8109  0.1798
  509MOL0     C68601   5.025   3.571   4.114 -0.9508  1.3669  0.2452
  509MOL0     C68602   5.136   3.651   4.174 -0.5625  0.7729 -0.1677
  509MOL0     C68603   5.087   3.714   4.308 -1.1231  0.4300  0.4200
  509MOL0     O68604   5.179   3.804   4.362 -0.9548 -1.3448  0.5380
  509MOL0     C68605   5.147   3.880   4.465  0.3260  0.9524  0.7300
  509MOL0     C68606   5.230   3.994   4.492  0.5492 -0.0263  0.5542
  509MOL0     C68607   5.203   4.065   4.608 -0.3218 -0.4554 -0.1369
  509MOL0     C68608   5.091   4.021   4.695  0.9326  0.2786 -0.8862
  509MOL0     C68609   5.073   4.100   4.820 -0.9977  0.6501  0.5049
  509MOL0     O68610   5.097   4.237   4.821 -0.3244  0.3769 -0.4484
  509MOL0     C68611   5.146   4.315   4.923 -0.2045 -0.6376 -0.1487
  509MOL0     C68612   5.213   4.262   5.036  0.2306  0.2749 -0.0336
  509MOL0     C68613   5.271   4.346   5.126 -0.3452 -0.1523  0.3192
  509MOL0     C68614   5.258   4.485   5.117 -0.3064  0.3060 -0.0120
  509MOL0     O68615   5.329   4.576   5.193  0.0336  0.7997 -0.0415
  509MOL0     C68616   5.439   4.538   5.275  0.6945  0.1953  0.0866
  509MOL0     C68617   5.497   4.656   5.348  0.1933 -0.8607  0.2252
  509MOL0     C68618   5.638   4.635   5.383  0.1806 -0.2438  0.4491
  509MOL0     C68619   5.672   4.714   5.507  0.2582  0.3072 -0.0138
  509MOL0     C68620   5.819   4.736   5.526 -1.2468 -0.0011  0.8832
  509MOL0     C68621   5.874   4.878   5.505 -0.3352 -0.8030 -0.3183
  509MOL0     C68622   5.843   4.979   5.620 -0.3811 -0.7675  0.2169
  509MOL0     C68623   5.926   4.955   5.750  0.0917 -0.4345  1.1098
  509MOL0    Cl68624   5.858   4.827   5.859 -0.1254  0.2834  0.4115
  509MOL0     C68625   5.178   4.539   5.014 -0.6407  0.2918  0.0472
  509MOL0     C68626   5.119   4.452   4.917 -0.5379  0.4166 -0.0658
  509MOL0     O68627   5.040   4.027   4.916 -0.1999  0.1824 -0.2570
  509MOL0     C68628   5.001   3.917   4.665  0.0795 -0.1529 -0.5889
  509MOL0     C68629   5.030   3.859   4.547 -0.2969  0.7798  0.5362
  509MOL0     N68630   5.278   3.532   3.843 -0.1311  0.4890  0.5601
  509MOL0     N68631   5.375   3.448   3.826  0.1314 -0.6505 -0.7508
  509MOL0     C68632   5.192   2.309   3.556 -0.4907 -0.3429 -0.6964
  509MOL0     C68633   5.102   2.204   3.540 -0.0417 -0.1229 -0.3070
  509MOL0     C68634   4.709   2.007   3.750 -1.0913 -0.4385 -0.5961
  509MOL0     C68635   4.647   1.985   3.625 -0.8055  0.1765 -0.7874
  509MOL0     C68636   4.507   1.967   3.634 -0.4047 -1.0579  0.0850
  509MOL0     C68637   4.434   1.967   3.755 -0.2152  0.6481  0.4915
  509MOL0     O68638   4.293   1.956   3.771  0.1536  1.0712  0.1115
  509MOL0     C68639   4.209   1.944   3.654  1.7952 -0.0392  0.2652
  509MOL0     C68640   4.066   1.904   3.693  0.1183  0.1642 -0.6250
  509MOL0     C68641   3.985   1.928   3.575 -0.5173 -0.3052  1.0761
  509MOL0     C68642   3.871   1.830   3.583 -0.5940  1.2302 -0.2212
  509MOL0     C68643   3.824   1.810   3.445 -0.4843  0.4631 -0.1749
  509MOL0     C68644   3.790   1.786   3.332  0.1261  0.9823  0.4685
  509MOL0     C68645   4.499   1.969   3.870 -0.0839 -0.4990 -0.8521
  509MOL0     C68646   4.638   1.993   3.869 -0.0485 -0.1860  0.0042
  509MOL0     C68647   4.693   2.027   4.002  0.2177  0.0302 -0.4684
  509MOL0     H68648   4.950   2.257   3.851  4.7682 -0.3911  2.8205
  509MOL0     H68649   5.084   2.434   3.858 -0.3373  0.8680 -0.6871
  509MOL0     H68650   5.460   2.403   3.675  0.7067  0.1354 -0.1065
  509MOL0     H68651   5.409   2.481   3.524 -0.4214  1.4121 -0.2369
  509MOL0     H68652   5.466   2.711   3.642 -0.9286  0.4437  1.0608
  509MOL0     H68653   5.591   2.590   3.664 -0.9400 -2.6371 -1.4233
  509MOL0     H68654   5.528   2.543   3.895  1.9108  1.4495 -0.8965
  509MOL0     H68655   5.362   2.619   3.874  0.2232  1.7103  0.6440
  509MOL0     H68656   5.488   2.757   4.023  0.5739 -0.3998  0.2724
  509MOL0     H68657   5.630   2.746   3.922 -0.4287 -2.1442  1.3021
  509MOL0     H68658   5.556   2.912   3.781 -1.4375 -0.1217 -1.7753
  509MOL0     H68659   5.385   2.862   3.786 -0.6463 -2.7413  0.4955
  509MOL0     H68660   5.353   2.988   4.002  0.3330 -0.2366  1.2880
  509MOL0     H68661   5.520   2.991   4.036 -2.9702  0.5958  4.4331
  509MOL0     H68662   5.360   3.132   3.814  3.1265 -1.8828 -3.0794
  509MOL0     H68663   5.542   3.136   3.824  1.1706  3.2958  1.6980
  509MOL0     H68664   5.414   3.219   4.075  1.3135 -2.2572 -0.1168
  509MOL0     H68665   5.535   3.303   3.977  0.5432 -0.5332 -2.0555
  509MOL0     H68666   5.150   3.292   4.022  1.6894  0.0797  1.2086
  509MOL0     H68667   5.035   3.629   3.912 -2.9785  0.4251  0.6179
  509MOL0     H68668   4.985   3.469   3.917  1.6702  0.1155 -0.6306
  509MOL0     H68669   4.933   3.628   4.128 -0.8674  2.0320 -1.5578
  509MOL0     H68670   5.027   3.482   4.177  2.5355  2.3006  1.6906
  509MOL0     H68671   5.156   3.729   4.100  0.0806  0.1189 -0.6979
  509MOL0     H68672   5.229   3.599   4.200 -1.6943 -0.7276  1.1082
  509MOL0     H68673   5.061   3.633   4.377 -1.7976  0.3376  0.0694
  509MOL0     H68674   4.988   3.759   4.292  0.3248  3.3631 -1.0704
  509MOL0     H68675   5.315   4.014   4.427 -0.5449 -4.4791 -2.7256
  509MOL0     H68676   5.264   4.150   4.636 -0.9653  0.1951 -0.6494
  509MOL0     H68677   5.229   4.155   5.031  1.0616  0.4570 -3.6848
  509MOL0     H68678   5.322   4.306   5.213 -1.3033  1.2191  1.5635
  509MOL0     H68679   5.407   4.466   5.351 -1.8208 -0.4407 -1.4209
  509MOL0     H68680   5.513   4.495   5.208  0.8796  2.4805 -1.2778
  509MOL0     H68681   5.501   4.746   5.286 -1.0170 -1.3627 -0.6283
  509MOL0     H68682   5.435   4.674   5.436  0.1396 -0.6609  0.1466
  509MOL0     H68683   5.649   4.528   5.404 -1.2802 -1.1013 -2.5744
  509MOL0     H68684   5.698   4.665   5.297 -1.1471  1.2669  0.0006
  509MOL0     H68685   5.629   4.673   5.599 -3.0110  2.6083 -0.3351
  509MOL0     H68686   5.615   4.807   5.498  1.4537  1.0121 -0.5195
  509MOL0     H68687   5.870   4.676   5.450  0.6179  4.9460 -2.2705
  509MOL0     H68688   5.840   4.698   5.627 -0.6553  1.6192  1.4003
  509MOL0     H68689   5.981   4.866   5.484 -0.5683 -2.5299 -0.6455
  509MOL0     H68690   5.834   4.919   5.411  0.8232  1.7249  0.2276
  509MOL0     H68691   5.735   4.978   5.638 -0.3147  1.8156  1.2630
  509MOL0     H68692   5.869   5.082   5.594  1.1527 -1.1529  0.1408
  509MOL0     H68693   6.027   4.937   5.712 -0.1017 -0.0923  0.4051
  509MOL0     H68694   5.923   5.042   5.816 -3.0501 -0.0228  0.5897
  509MOL0     H68695   5.180   4.647   5.007 -0.8707  0.2405 -1.0057
  509MOL0     H68696   5.054   4.489   4.837 -0.9662  0.1562  0.1588
  509MOL0     H68697   4.911   3.897   4.723 -0.5837  0.0047 -1.5449
  509MOL0     H68698   4.957   3.786   4.514  1.0701 -0.2604 -0.3430
  509MOL0     H68699   5.260   2.326   3.473 -1.6134 -1.4079 -1.8821
  509MOL0     H68700   5.079   2.150   3.449 -2.9205 -1.7873  1.2587
  509MOL0     H68701   4.703   1.997   3.533  0.2877  0.6044 -0.0811
  509MOL0     H68702   4.432   1.959   3.556 -2.1328 -2.7390  1.8014
  509MOL0     H68703   4.238   1.869   3.580  0.8974 -0.8139  0.6720
  509MOL0     H68704   4.207   2.044   3.610 -1.7320 -0.3273 -0.5179
  509MOL0     H68705   4.031   1.967   3.775 -1.2145 -1.4701  0.1173
  509MOL0     H68706   4.080   1.803   3.732  1.7717  0.2908 -0.8300
  509MOL0     H68707   4.034   1.913   3.479 -2.7926 -0.7287 -0.0982
  509MOL0     H68708   3.950   2.030   3.561  1.0223  0.1856  0.6675
  509MOL0     H68709   3.907   1.734   3.621 -3.0351 -0.8267 -2.6688
  509MOL0     H68710   3.797   1.868   3.653 -0.3793  1.2545 -0.0049
  509MOL0     H68711   3.770   1.756   3.231 -2.5874 -1.2104  1.5275
  509MOL0     H68712   4.442   1.957   3.962 -1.4743  1.0675 -1.4579
  509MOL0     H68713   4.731   1.935   4.048  0.3297  0.1326 -0.3566
  509MOL0     H68714   4.779   2.092   3.981  1.5224 -0.5783  2.5100
  509MOL0     H68715   4.630   2.084   4.070  0.7774  0.5626 -0.3903
  510MOL0     O68716   8.926   5.172   8.321  1.0001  0.5523 -0.0784
  510MOL0     C68717   8.863   5.258   8.261 -0.0375  0.4086 -0.0962
  510MOL0     O68718   8.894   5.390   8.258 -0.0664 -0.0621 -0.0720
  510MOL0     C68719   8.916   5.451   8.380 -0.5206 -0.1911 -0.3589
  510MOL0     C68720   9.000   5.558   8.374 -0.3221  0.4042  0.1197
  510MOL0     C68721   9.023   5.642   8.490  0.5260  0.8847  0.3746
  510MOL0     C68722   8.952   5.615   8.615  0.2429 -0.4738  1.0789
  510MOL0     O68723   8.959   5.707   8.724 -0.0669 -0.2419 -0.3323
  510MOL0     C68724   8.875   5.697   8.835  0.3650 -0.2753  0.2194
  510MOL0     C68725   8.905   5.813   8.931  0.8530 -0.4506 -0.3152
  510MOL0     C68726   9.045   5.882   8.920 -0.4325  0.0617  0.0141
  510MOL0     C68727   9.075   6.004   9.005 -0.6919  0.8952 -0.0907
  510MOL0     C68728   9.032   5.994   9.154  0.3860  0.6107  0.5204
  510MOL0     C68729   9.120   5.895   9.235 -1.1548  0.5319 -0.1900
  510MOL0     C68730   9.220   5.963   9.330  0.4735  1.0800  0.0597
  510MOL0     C68731   9.336   6.047   9.283 -0.0304 -1.0071  0.5203
  510MOL0     N68732   9.415   6.076   9.401 -0.1748  0.7030  0.0767
  510MOL0     C68733   9.414   6.193   9.452 -0.2683 -0.4615 -0.6225
  510MOL0     C68734   9.540   6.193   9.514  1.1141  0.6290  0.4124
  510MOL0     C68735   9.589   6.311   9.598 -0.3129  0.0953  0.1629
  510MOL0     C68736   9.678   6.394   9.503 -0.2691 -0.2687 -1.6014
  510MOL0     C68737   9.607   6.488   9.406 -0.1262 -0.6771 -0.3798
  510MOL0     C68738   9.705   6.580   9.334  0.0076 -1.2768  0.4185
  510MOL0     O68739   9.760   6.529   9.216 -0.5975  0.7107  0.7634
  510MOL0     C68740   9.688   6.460   9.123  0.3197 -0.0633 -0.0137
  510MOL0     C68741   9.647   6.509   9.003  0.6584 -0.0050 -1.6439
  510MOL0     C68742   9.596   6.431   8.906 -0.8021  0.2459  0.6250
  510MOL0     C68743   9.582   6.292   8.923  0.1367 -0.2256 -0.3108
  510MOL0     C68744   9.529   6.211   8.813 -0.4098 -0.4054 -0.4350
  510MOL0     O68745   9.532   6.077   8.837  0.4225 -0.1604  0.2756
  510MOL0     C68746   9.498   5.997   8.743  0.7001  0.9966  0.6270
  510MOL0     C68747   9.371   5.949   8.726  0.5226  0.0714  0.0719
  510MOL0     C68748   9.336   5.850   8.624  0.2967 -1.0557 -0.5835
  510MOL0     C68749   9.434   5.810   8.535 -0.8526 -0.0501  0.1814
  510MOL0     O68750   9.405   5.719   8.433 -0.2517  0.5904  0.3870
  510MOL0     C68751   9.504   5.679   8.333  0.4295  0.0566  0.7514
  510MOL0     C68752   9.426   5.595   8.214  0.1961 -0.5672  0.1258
  510MOL0     C68753   9.393   5.456   8.271 -0.6299 -0.2256  0.3393
  510MOL0     C68754   9.323   5.358   8.177  0.0015 -0.5778  0.1250
  510MOL0     C68755   9.322   5.213   8.230  0.1530  0.4953 -0.4271
  510MOL0     C68756   9.263   5.125   8.117 -0.6672  0.5708  0.2912
  510MOL0     C68757   9.304   4.980   8.128 -0.5304 -0.6756 -0.0318
  510MOL0     C68758   9.202   4.888   8.060  0.0111 -0.4975 -1.2371
  510MOL0    Cl68759   9.222   4.893   7.880 -0.6567 -0.6738  0.4993
  510MOL0     C68760   9.561   5.872   8.535 -0.3409 -0.0371 -0.6676
  510MOL0     C68761   9.592   5.954   8.646 -0.6319  0.3719  0.2600
  510MOL0     O68762   9.490   6.265   8.710  0.1562  0.5357  0.4337
  510MOL0     C68763   9.614   6.244   9.051  0.3001 -0.3517 -0.5234
  510MOL0     C68764   9.664   6.324   9.144 -0.5739 -0.1982 -0.6803
  510MOL0     N68765   9.594   6.068   9.510 -0.7907 -0.3665  0.7955
  510MOL0     N68766   9.518   6.000   9.436 -0.6828  0.0218  0.6626
  510MOL0     C68767   8.866   5.502   8.622 -0.4627 -0.5457  0.3791
  510MOL0     C68768   8.858   5.417   8.505  0.8106  0.4395 -0.4823
  510MOL0     C68769   8.740   5.225   8.182  0.6991 -0.0893 -0.4913
  510MOL0     C68770   8.717   5.307   8.064 -0.0286 -0.4708  0.4017
  510MOL0     C68771   8.619   5.269   7.967 -0.5492 -0.5729  0.2149
  510MOL0     C68772   8.539   5.155   7.992 -0.7984  0.1401 -0.0505
  510MOL0     O68773   8.447   5.111   7.898  0.7040  0.5719 -0.0512
  510MOL0     C68774   8.454   5.164   7.765 -0.1709 -0.4934  0.1513
  510MOL0     C68775   8.356   5.092   7.674 -0.0104 -0.2135  0.3244
  510MOL0     C68776   8.326   5.147   7.535 -0.5048  0.2311  0.1506
  510MOL0     C68777   8.445   5.206   7.462 -0.1710 -0.6830  0.6695
  510MOL0     C68778   8.554   5.108   7.447 -0.1637  1.0669  0.3756
  510MOL0     C68779   8.629   5.017   7.420  0.1780 -0.0493 -0.0105
  510MOL0     C68780   8.559   5.079   8.103  0.2110  1.1713 -1.1841
  510MOL0     C68781   8.658   5.115   8.201  0.4508  0.5759 -1.5540
  510MOL0     C68782   8.668   5.030   8.327  0.8439  0.1667 -1.0386
  510MOL0     H68783   9.034   5.578   8.273 -1.3664  0.3554 -0.2529
  510MOL0     H68784   9.086   5.731   8.491  0.5399  0.9013  2.4332
  510MOL0     H68785   8.771   5.716   8.807 -0.1872 -0.2471  2.1383
  510MOL0     H68786   8.896   5.596   8.871  1.1788 -0.7517 -1.4610
  510MOL0     H68787   8.885   5.767   9.028 -1.3087  1.1313  0.0569
  510MOL0     H68788   8.835   5.898   8.925 -0.8520 -1.8589 -1.2320
  510MOL0     H68789   9.061   5.900   8.813 -3.0934 -1.4049 -0.7254
  510MOL0     H68790   9.112   5.803   8.952 -1.0116 -0.6667 -0.5477
  510MOL0     H68791   9.184   6.009   9.004  0.1347 -6.3680 -1.0467
  510MOL0     H68792   9.027   6.087   8.953  2.5665  1.9725 -1.6415
  510MOL0     H68793   9.022   6.092   9.201 -1.9001  0.9899 -0.6302
  510MOL0     H68794   8.929   5.958   9.161  0.6508 -0.1209  0.8925
  510MOL0     H68795   9.044   5.850   9.300 -3.2906  2.1341 -1.4334
  510MOL0     H68796   9.155   5.810   9.176  0.9666  0.3444  1.2392
  510MOL0     H68797   9.270   5.882   9.383  1.8802  2.5394  1.0701
  510MOL0     H68798   9.165   6.022   9.404 -1.1594  2.4019 -2.0598
  510MOL0     H68799   9.406   5.990   9.222 -1.3031 -1.9067 -0.1431
  510MOL0     H68800   9.306   6.138   9.229 -1.9154 -0.8396  1.7554
  510MOL0     H68801   9.358   6.285   9.438  1.4799  0.3785 -2.8135
  510MOL0     H68802   9.498   6.363   9.630 -0.7091 -0.5475  0.1072
  510MOL0     H68803   9.650   6.273   9.680  2.1050  0.0734 -1.5282
  510MOL0     H68804   9.736   6.462   9.566  1.1048 -1.6197 -1.3502
  510MOL0     H68805   9.755   6.333   9.455  0.0677  1.8999 -4.0542
  510MOL0     H68806   9.542   6.555   9.463  1.7557  2.9702 -2.1940
  510MOL0     H68807   9.533   6.428   9.351 -0.8645  1.7731 -2.2064
  510MOL0     H68808   9.782   6.602   9.409 -0.1358 -2.3878  0.9281
  510MOL0     H68809   9.653   6.672   9.307  0.5116 -1.7759 -2.5213
  510MOL0     H68810   9.660   6.615   8.986  2.1455  0.4948  1.6727
  510MOL0     H68811   9.569   6.473   8.809  3.4616 -1.6358 -1.6572
  510MOL0     H68812   9.287   5.986   8.784 -2.8353 -2.3097 -2.8569
  510MOL0     H68813   9.235   5.812   8.617 -0.7329  1.7604 -4.2744
  510MOL0     H68814   9.537   5.773   8.288 -0.0179  0.9214  2.1423
  510MOL0     H68815   9.591   5.634   8.382  0.9546 -1.6573 -1.5725
  510MOL0     H68816   9.334   5.643   8.180  1.1539  1.5953  0.4046
  510MOL0     H68817   9.493   5.590   8.127  0.1187 -1.9159  0.1273
  510MOL0     H68818   9.486   5.423   8.316 -0.3721 -0.5371 -0.3961
  510MOL0     H68819   9.322   5.484   8.350 -2.7818 -1.6390 -0.9608
  510MOL0     H68820   9.389   5.363   8.090  2.6676  0.5075  2.0605
  510MOL0     H68821   9.223   5.394   8.151  1.1553  2.2180 -0.8573
  510MOL0     H68822   9.261   5.195   8.320  1.1595 -1.6016 -0.1171
  510MOL0     H68823   9.422   5.186   8.263 -0.0987 -0.5820 -0.5218
  510MOL0     H68824   9.156   5.143   8.101 -0.4701  0.7150 -0.9575
  510MOL0     H68825   9.311   5.149   8.022  2.7100 -1.4083  1.3332
  510MOL0     H68826   9.313   4.950   8.232 -1.9007  0.4049  0.4170
  510MOL0     H68827   9.401   4.966   8.078 -1.1657 -1.4333 -1.1166
  510MOL0     H68828   9.224   4.790   8.104  0.5508  0.5121  0.8502
  510MOL0     H68829   9.101   4.916   8.090  0.4218  3.2337 -2.8098
  510MOL0     H68830   9.639   5.870   8.459  0.0274  1.7345 -0.3751
  510MOL0     H68831   9.682   6.015   8.657 -1.7693  2.4377 -1.1930
  510MOL0     H68832   9.618   6.137   9.073 -1.6895 -0.3243  0.2362
  510MOL0     H68833   9.702   6.282   9.237 -4.3620  1.9909  2.1255
  510MOL0     H68834   8.813   5.468   8.710  0.7056 -0.4475  1.1488
  510MOL0     H68835   8.796   5.328   8.511  3.3802 -1.6767 -2.6612
  510MOL0     H68836   8.761   5.403   8.041 -1.7588  0.0781 -0.7366
  510MOL0     H68837   8.611   5.336   7.882  2.0535  0.9045  1.0236
  510MOL0     H68838   8.560   5.155   7.737 -0.2182 -2.0307  0.3620
  510MOL0     H68839   8.423   5.269   7.766  1.8311  0.2190 -1.9170
  510MOL0     H68840   8.254   5.080   7.712 -2.0530  0.6254 -4.2291
  510MOL0     H68841   8.400   4.993   7.658 -1.6440 -0.7078 -1.4900
  510MOL0     H68842   8.252   5.228   7.533  0.1691  0.8536 -1.3483
  510MOL0     H68843   8.296   5.067   7.467  0.4843  0.8080 -1.0173
  510MOL0     H68844   8.418   5.241   7.361  0.1859  2.4982  1.5636
  510MOL0     H68845   8.476   5.296   7.516 -1.0364 -0.6645  1.1483
  510MOL0     H68846   8.701   4.947   7.385  1.8806  2.3181 -1.5335
  510MOL0     H68847   8.503   4.989   8.125  1.9659 -0.1435 -1.8655
  510MOL0     H68848   8.765   5.003   8.370 -0.1315 -0.3811  0.8999
  510MOL0     H68849   8.613   5.086   8.403  0.8567 -1.5092  0.2581
  510MOL0     H68850   8.619   4.935   8.304 -0.0673  0.0646  1.1681
  511MOL0     O68851   1.484   0.556  11.230  1.0988  0.1293 -0.2098
  511MOL0     C68852   1.438   0.507  11.329 -0.0119  0.4191  1.1718
  511MOL0     O68853   1.358   0.391  11.334 -0.2524 -0.1683  0.9726
  511MOL0     C68854   1.293   0.352  11.222 -0.4934  0.3510  0.4235
  511MOL0     C68855   1.174   0.295  11.250 -0.0206  0.2016  0.4412
  511MOL0     C68856   1.082   0.260  11.153  0.3940  0.2031 -0.3375
  511MOL0     C68857   1.118   0.255  11.021 -0.3690  0.4006  0.0926
  511MOL0     O68858   1.047   0.206  10.918 -0.2028  0.2580 -0.7904
  511MOL0     C68859   0.909   0.233  10.924 -0.1621  0.8856  1.2943
  511MOL0     C68860   0.862   0.192  10.784  0.2289  0.1916  0.3525
  511MOL0     C68861   0.712   0.226  10.767 -0.2244 -0.7574 -0.3468
  511MOL0     C68862   0.615   0.144  10.858 -0.1702  0.2443 -0.1267
  511MOL0     C68863   0.574   0.220  10.989 -0.6371  0.0917 -0.6963
  511MOL0     C68864   0.482   0.130  11.082  0.0618  0.7291  0.2788
  511MOL0     C68865   0.328   0.135  11.038  0.1732  0.5960  0.1608
  511MOL0     C68866   0.238   0.072  11.142  0.3517 -0.0065  0.2579
  511MOL0     N68867   0.098   0.117  11.118  0.0386  0.1479  0.5809
  511MOL0     C68868   0.032   0.138  10.993  0.1569  0.7900  0.1980
  511MOL0     C68869  -0.096   0.157  11.028 -0.7867 -0.1119  0.7054
  511MOL0     C68870  -0.209   0.163  10.930 -0.1536 -0.4011  0.0156
  511MOL0     C68871  -0.191   0.295  10.841 -0.0417  0.4155 -0.9732
  511MOL0     C68872  -0.233   0.428  10.914 -0.1533  0.0321 -0.1002
  511MOL0     C68873  -0.167   0.564  10.858  0.2138 -0.6338  0.3761
  511MOL0     O68874  -0.211   0.681  10.922  0.1118  0.4068 -0.5448
  511MOL0     C68875  -0.116   0.775  10.939  0.3481 -0.1479  0.2717
  511MOL0     C68876  -0.066   0.813  11.058 -0.7316  1.4655  0.4231
  511MOL0     C68877   0.034   0.903  11.097 -0.5404  0.2216 -0.7695
  511MOL0     C68878   0.098   0.962  10.980 -0.1506  0.3641  0.1860
  511MOL0     C68879   0.211   1.055  10.996 -0.0887 -0.0732  0.4297
  511MOL0     O68880   0.227   1.109  11.118 -0.0597 -0.2471  0.6168
  511MOL0     C68881   0.327   1.202  11.139  0.4234 -0.0364 -0.7630
  511MOL0     C68882   0.288   1.336  11.164  0.1307  0.0322 -0.1479
  511MOL0     C68883   0.374   1.439  11.164  0.6833  1.0473 -0.0973
  511MOL0     C68884   0.509   1.418  11.141 -0.0383 -0.6706 -0.0054
  511MOL0     O68885   0.606   1.518  11.138 -0.5298 -0.0880 -0.4530
  511MOL0     C68886   0.595   1.617  11.242  0.0062  0.5577  0.6118
  511MOL0     C68887   0.706   1.713  11.244 -0.4139  0.2061  0.2100
  511MOL0     C68888   0.839   1.659  11.194  1.3618  0.3109  0.2866
  511MOL0     C68889   0.929   1.788  11.174  0.4520  1.1364 -0.8394
  511MOL0     C68890   1.081   1.780  11.132  0.1531  0.2362  0.3215
  511MOL0     C68891   1.119   1.641  11.071  0.3542  0.2450 -0.2413
  511MOL0     C68892   1.269   1.631  11.068 -0.0889  0.2298 -0.2633
  511MOL0     C68893   1.328   1.724  10.961 -0.0340  0.7254 -0.2788
  511MOL0    Cl68894   1.254   1.646  10.807  0.3987  0.0681  0.6311
  511MOL0     C68895   0.552   1.282  11.120  0.3931 -0.6130 -0.2857
  511MOL0     C68896   0.460   1.183  11.114 -0.6586 -0.1051  0.6436
  511MOL0     O68897   0.273   1.075  10.892  0.5808  0.3801 -0.0508
  511MOL0     C68898   0.054   0.924  10.850  0.1121 -0.3096 -0.0255
  511MOL0     C68899  -0.052   0.833  10.825 -0.2012 -0.9185 -0.9303
  511MOL0     N68900  -0.116   0.153  11.167 -0.2962  0.7168  0.7667
  511MOL0     N68901   0.003   0.125  11.222  0.6593 -0.1705  0.3305
  511MOL0     C68902   1.245   0.297  10.993  0.1130 -0.3400  0.0196
  511MOL0     C68903   1.336   0.341  11.087 -0.6053  0.8539 -0.3718
  511MOL0     C68904   1.491   0.568  11.452 -0.7089 -0.1367 -0.4778
  511MOL0     C68905   1.606   0.651  11.453  0.5387  0.3115  0.9924
  511MOL0     C68906   1.651   0.707  11.568  0.0353 -0.8733 -0.5779
  511MOL0     C68907   1.585   0.683  11.695  0.1244  0.5491  0.5266
  511MOL0     O68908   1.617   0.759  11.809 -0.4452  0.2721 -0.1980
  511MOL0     C68909   1.754   0.772  11.847  0.5753  0.2385  0.3128
  511MOL0     C68910   1.788   0.838  11.982 -0.1254 -0.5007  1.1388
  511MOL0     C68911   1.716   0.965  12.026 -0.4636 -0.4008 -0.3465
  511MOL0     C68912   1.797   1.013  12.142  0.0465 -0.5477 -1.4805
  511MOL0     C68913   1.735   1.141  12.178 -0.8465 -0.1284  0.9066
  511MOL0     C68914   1.705   1.258  12.199  0.0696  0.3854 -0.3104
  511MOL0     C68915   1.491   0.589  11.694  0.4735 -0.9538 -0.5274
  511MOL0     C68916   1.439   0.531  11.575 -0.6248 -0.4314 -0.1295
  511MOL0     C68917   1.302   0.458  11.590 -0.1305 -0.3467  1.0126
  511MOL0     H68918   1.144   0.306  11.353  0.1652  0.6652  0.4495
  511MOL0     H68919   0.978   0.236  11.171  0.8731 -2.7593 -1.0410
  511MOL0     H68920   0.850   0.166  10.987 -3.7276  2.2873 -0.2846
  511MOL0     H68921   0.890   0.334  10.959  3.8467  1.8505  1.2143
  511MOL0     H68922   0.873   0.083  10.779 -1.3513 -0.2372  3.5525
  511MOL0     H68923   0.916   0.240  10.702 -0.0891 -0.9870 -0.5738
  511MOL0     H68924   0.702   0.194  10.663  3.4005 -1.1866 -0.7042
  511MOL0     H68925   0.691   0.333  10.776 -2.6749 -0.8057 -3.6201
  511MOL0     H68926   0.519   0.121  10.810 -0.9131  1.0994  0.9100
  511MOL0     H68927   0.659   0.045  10.876 -2.9204 -0.7786  1.6357
  511MOL0     H68928   0.664   0.248  11.046 -1.4251 -2.5456  2.1301
  511MOL0     H68929   0.521   0.312  10.965 -1.0924  0.2756  0.8743
  511MOL0     H68930   0.517   0.027  11.077 -0.6413  0.4897  0.2454
  511MOL0     H68931   0.492   0.155  11.188 -3.2139  3.1461  0.1661
  511MOL0     H68932   0.314   0.091  10.939 -0.0173 -2.0231  1.2654
  511MOL0     H68933   0.308   0.243  11.035  2.4917  1.0791  0.0084
  511MOL0     H68934   0.236  -0.037  11.132 -0.6955 -0.1881  1.9741
  511MOL0     H68935   0.259   0.095  11.247  0.8860 -0.3053  0.2198
  511MOL0     H68936   0.063   0.134  10.889 -1.1035 -0.0209 -0.1655
  511MOL0     H68937  -0.189   0.074  10.868 -3.2669 -0.0086 -1.7841
  511MOL0     H68938  -0.308   0.149  10.973 -1.2153  0.0011 -2.1420
  511MOL0     H68939  -0.086   0.299  10.810 -0.6712  0.8596 -3.1870
  511MOL0     H68940  -0.248   0.283  10.749 -1.7960 -2.3881  0.3422
  511MOL0     H68941  -0.198   0.407  11.015 -0.3920 -1.8628 -0.3722
  511MOL0     H68942  -0.343   0.431  10.908 -0.1216  3.5191 -0.9428
  511MOL0     H68943  -0.175   0.574  10.749  0.5921  3.8476  0.5840
  511MOL0     H68944  -0.058   0.550  10.863  0.4523  0.8486 -0.1042
  511MOL0     H68945  -0.113   0.765  11.144 -1.8594 -0.3912 -1.1359
  511MOL0     H68946   0.063   0.926  11.200 -1.9836 -3.0961  0.5141
  511MOL0     H68947   0.185   1.364  11.185 -0.3170 -0.4492 -1.6233
  511MOL0     H68948   0.329   1.536  11.184 -3.7829 -1.3044  3.0559
  511MOL0     H68949   0.506   1.679  11.227 -0.1351 -0.2227 -2.4777
  511MOL0     H68950   0.593   1.555  11.331 -0.3308 -0.4392 -0.0702
  511MOL0     H68951   0.676   1.795  11.179 -1.4878  2.9129  3.7653
  511MOL0     H68952   0.720   1.754  11.345  3.1881  2.6665 -1.0939
  511MOL0     H68953   0.883   1.590  11.267  0.1756  0.1888  0.8967
  511MOL0     H68954   0.823   1.598  11.104 -0.6530  3.3474 -1.5859
  511MOL0     H68955   0.919   1.859  11.257  4.6561  0.3221  0.5646
  511MOL0     H68956   0.875   1.832  11.089 -1.9658 -2.9104 -1.6386
  511MOL0     H68957   1.136   1.770  11.226 -0.8147 -2.1266  0.6883
  511MOL0     H68958   1.117   1.863  11.070  0.1692 -0.1753 -0.2262
  511MOL0     H68959   1.078   1.562  11.135  0.7499 -0.8310 -1.2763
  511MOL0     H68960   1.071   1.619  10.975  0.4435  0.5788 -0.3649
  511MOL0     H68961   1.291   1.526  11.044 -0.0260 -0.0532  0.9719
  511MOL0     H68962   1.309   1.648  11.168 -2.3850  1.2576  0.5522
  511MOL0     H68963   1.304   1.828  10.983  3.3325  1.1512  2.1699
  511MOL0     H68964   1.438   1.724  10.962  0.0718  3.5584 -2.0034
  511MOL0     H68965   0.657   1.272  11.094  1.7602  1.2004  3.8195
  511MOL0     H68966   0.491   1.086  11.077  1.8056  1.3124 -1.3244
  511MOL0     H68967   0.110   0.960  10.764  0.4282  2.2811  1.1706
  511MOL0     H68968  -0.073   0.812  10.721  2.1931  2.8951 -2.4205
  511MOL0     H68969   1.288   0.289  10.893  0.4500  1.1318  0.0252
  511MOL0     H68970   1.436   0.367  11.057  1.1403 -3.4960  0.9144
  511MOL0     H68971   1.661   0.681  11.364 -2.1954  1.4119 -0.4307
  511MOL0     H68972   1.747   0.758  11.565  0.0439 -0.6671  1.7412
  511MOL0     H68973   1.800   0.838  11.773 -1.2888 -0.7743 -1.9015
  511MOL0     H68974   1.790   0.671  11.829 -2.0310 -0.4746 -1.5549
  511MOL0     H68975   1.894   0.865  11.974 -1.1298  3.6533 -0.9661
  511MOL0     H68976   1.765   0.749  12.043  1.5585 -0.9431  1.1971
  511MOL0     H68977   1.617   0.944  12.067  1.0551 -0.7319  3.5113
  511MOL0     H68978   1.713   1.038  11.944  0.9467 -2.4768 -2.3507
  511MOL0     H68979   1.803   0.948  12.230  3.2325 -0.4687 -1.5251
  511MOL0     H68980   1.903   1.022  12.117  0.7954  0.0833  1.5738
  511MOL0     H68981   1.699   1.363  12.217  1.7129  0.2603  1.2410
  511MOL0     H68982   1.450   0.570  11.792  1.2753 -1.1777 -0.2315
  511MOL0     H68983   1.220   0.502  11.533  1.5459 -0.3420 -1.6094
  511MOL0     H68984   1.309   0.350  11.572  4.8794 -0.0198 -0.4775
  511MOL0     H68985   1.287   0.470  11.697 -2.7036 -0.4654  0.7282
  512MOL0     O68986  11.171   4.811   2.088 -0.3634  0.1256 -0.4484
  512MOL0     C68987  11.294   4.804   2.089  1.0734 -0.7508 -0.4456
  512MOL0     O68988  11.372   4.812   1.977 -0.3862  0.0752 -0.3409
  512MOL0     C68989  11.298   4.860   1.870 -0.7801 -0.1087 -0.0626
  512MOL0     C68990  11.234   4.780   1.777 -0.1814  0.3269 -0.5584
  512MOL0     C68991  11.162   4.820   1.671  0.2204  0.4336 -0.1964
  512MOL0     C68992  11.160   4.955   1.646 -0.4257  0.1418  0.8413
  512MOL0     O68993  11.094   5.005   1.537 -0.0687 -0.4604 -0.1228
  512MOL0     C68994  11.080   4.932   1.416 -0.1679  0.2720 -1.0357
  512MOL0     C68995  11.024   5.025   1.308  0.3297  0.4689  0.0000
  512MOL0     C68996  10.920   4.958   1.218 -0.1235  0.2023 -0.4142
  512MOL0     C68997  10.887   5.054   1.100  0.9219 -0.2534 -0.1444
  512MOL0     C68998  10.792   4.986   1.003 -0.5825  0.9195  0.2185
  512MOL0     C68999  10.749   5.080   0.891 -1.0892  0.2915 -0.1750
  512MOL0     C69000  10.857   5.120   0.790 -0.0257 -0.9285 -0.6693
  512MOL0     C69001  10.819   5.247   0.706 -0.4394  0.1792  0.2542
  512MOL0     N69002  10.768   5.217   0.565 -0.1985  1.4251 -0.4789
  512MOL0     C69003  10.773   5.097   0.495 -0.2203 -0.4467 -0.8979
  512MOL0     C69004  10.777   5.139   0.370  0.0450  1.3048  0.5494
  512MOL0     C69005  10.792   5.039   0.247 -0.2908  0.7237 -0.2545
  512MOL0     C69006  10.919   4.951   0.259  0.1195  0.0161 -0.4508
  512MOL0     C69007  10.894   4.806   0.200 -0.5048  0.6624  0.1164
  512MOL0     C69008  10.910   4.801   0.044 -0.3120  0.4778 -0.8737
  512MOL0     O69009  11.008   4.900  -0.004 -0.1046  0.5175  0.2832
  512MOL0     C69010  11.141   4.869  -0.013  0.3269  0.0250  0.2079
  512MOL0     C69011  11.199   4.741  -0.030 -0.8390 -0.5264  0.6168
  512MOL0     C69012  11.344   4.734  -0.031 -0.1340  0.9773  0.7271
  512MOL0     C69013  11.426   4.845  -0.044  0.0893  0.4331 -0.3834
  512MOL0     C69014  11.569   4.827  -0.058  0.0661 -0.3823 -0.0357
  512MOL0     O69015  11.638   4.943  -0.030  0.0258 -0.2443  0.7575
  512MOL0     C69016  11.736   4.978  -0.121 -0.8018 -0.0675  0.3192
  512MOL0     C69017  11.864   4.930  -0.114 -0.0815  0.5129  0.8655
  512MOL0     C69018  11.970   4.969  -0.201  0.5783 -0.0330  0.2070
  512MOL0     C69019  11.936   5.051  -0.306 -0.0251  0.1259  0.1078
  512MOL0     O69020  12.035   5.080  -0.398  0.9567  0.9208  0.1718
  512MOL0     C69021  12.153   5.143  -0.340 -0.0700  0.4627  0.7341
  512MOL0     C69022  12.267   5.141  -0.449 -0.1282  0.5334 -0.2415
  512MOL0     C69023  12.231   5.242  -0.561 -0.5149  0.1170 -0.1504
  512MOL0     C69024  12.271   5.391  -0.547  0.7321  0.9793 -0.8812
  512MOL0     C69025  12.223   5.457  -0.670  0.8931 -0.0248  0.6639
  512MOL0     C69026  12.264   5.399  -0.815  0.2863 -0.3719 -0.6607
  512MOL0     C69027  12.175   5.451  -0.932 -0.6881 -0.1190 -1.2542
  512MOL0     C69028  12.041   5.376  -0.951  0.2267 -0.0368 -0.0918
  512MOL0    Cl69029  12.077   5.213  -1.003  0.0099  0.0805 -0.1261
  512MOL0     C69030  11.812   5.101  -0.316  0.8788  0.5834 -0.8175
  512MOL0     C69031  11.716   5.073  -0.221  0.4760  0.9349 -0.0037
  512MOL0     O69032  11.616   4.716  -0.076 -0.6122  0.3393  0.2662
  512MOL0     C69033  11.355   4.969  -0.054  0.7102  0.5879  0.5693
  512MOL0     C69034  11.217   4.983  -0.019  0.1319  0.1471  0.5288
  512MOL0     N69035  10.750   5.277   0.360 -0.1461 -0.1738  0.4707
  512MOL0     N69036  10.752   5.318   0.480  0.1536 -0.1113  1.3606
  512MOL0     C69037  11.209   5.045   1.741 -0.5742  0.1698 -0.6524
  512MOL0     C69038  11.286   4.996   1.853  0.3488  0.3422 -0.6688
  512MOL0     C69039  11.371   4.776   2.206  0.1334 -0.0147 -0.2071
  512MOL0     C69040  11.510   4.764   2.196  0.8932  0.7864  0.2942
  512MOL0     C69041  11.591   4.748   2.310  0.2030  0.7989 -0.3896
  512MOL0     C69042  11.532   4.760   2.437 -1.1485 -0.4255  0.0406
  512MOL0     O69043  11.610   4.767   2.549 -0.0479 -0.4818 -0.3462
  512MOL0     C69044  11.708   4.667   2.556  0.1578 -0.2123 -0.5232
  512MOL0     C69045  11.779   4.684   2.694 -0.1964  0.3675 -0.7415
  512MOL0     C69046  11.692   4.626   2.810 -1.2717 -0.1420  0.3516
  512MOL0     C69047  11.707   4.469   2.814  0.6310 -1.3374 -2.0767
  512MOL0     C69048  11.821   4.445   2.903  0.3218  0.6047 -0.5905
  512MOL0     C69049  11.922   4.430   2.969 -0.1859 -0.2601  0.4076
  512MOL0     C69050  11.396   4.772   2.453  0.3576  0.3387  0.5720
  512MOL0     C69051  11.310   4.770   2.341  0.2884 -0.6757 -0.3186
  512MOL0     C69052  11.160   4.784   2.372 -0.2151  0.0594 -1.4018
  512MOL0     H69053  11.257   4.678   1.808  1.2492  1.7346  3.7290
  512MOL0     H69054  11.116   4.746   1.606  3.6365 -1.0570 -1.1359
  512MOL0     H69055  11.170   4.885   1.377 -0.7157 -0.9460 -0.8630
  512MOL0     H69056  11.012   4.849   1.440 -1.0364  0.6333 -2.1333
  512MOL0     H69057  11.107   5.053   1.242  0.1503 -0.0070 -0.4301
  512MOL0     H69058  10.986   5.113   1.361 -1.3250  0.9050 -1.8040
  512MOL0     H69059  10.824   4.937   1.266  0.1653  2.3380  1.2843
  512MOL0     H69060  10.956   4.869   1.165  0.3703  0.1543 -0.0086
  512MOL0     H69061  10.853   5.147   1.146  0.4658  0.4011 -1.7333
  512MOL0     H69062  10.983   5.073   1.052  2.2953 -2.4311  1.5290
  512MOL0     H69063  10.839   4.898   0.957  1.0972  2.3669 -0.9954
  512MOL0     H69064  10.708   4.952   1.064  1.2159 -0.4914  2.0325
  512MOL0     H69065  10.682   5.012   0.837  1.8554 -0.2292 -3.4849
  512MOL0     H69066  10.702   5.166   0.940 -1.1037  0.6388 -0.7964
  512MOL0     H69067  10.891   5.037   0.726  3.2758  0.5621 -1.0332
  512MOL0     H69068  10.945   5.147   0.848 -1.6294 -0.6592  1.7632
  512MOL0     H69069  10.743   5.308   0.757  1.0688 -0.5183  3.6029
  512MOL0     H69070  10.913   5.303   0.704  0.4313 -1.2390  0.0971
  512MOL0     H69071  10.802   5.001   0.536  1.8778  1.6170  3.0597
  512MOL0     H69072  10.694   4.991   0.248  0.1004 -0.2166 -2.4914
  512MOL0     H69073  10.798   5.097   0.155  2.8636  1.3724  0.2208
  512MOL0     H69074  11.008   5.003   0.223  0.2105 -1.1744 -2.0630
  512MOL0     H69075  10.938   4.948   0.367 -1.0423  0.8853 -0.2007
  512MOL0     H69076  10.797   4.763   0.227  0.7505 -2.9519 -0.5526
  512MOL0     H69077  10.978   4.748   0.239  0.8165  1.5842 -1.2493
  512MOL0     H69078  10.811   4.820   0.002 -0.4241  0.0197 -0.8112
  512MOL0     H69079  10.927   4.697   0.017 -0.5675  0.3546 -0.5583
  512MOL0     H69080  11.138   4.652  -0.047 -0.1578 -1.3529  2.2791
  512MOL0     H69081  11.381   4.632  -0.024 -0.0958  0.7875 -1.5314
  512MOL0     H69082  11.891   4.852  -0.044 -0.1270 -0.3325 -0.0429
  512MOL0     H69083  12.066   4.921  -0.186  0.4376 -1.2018 -2.1930
  512MOL0     H69084  12.138   5.247  -0.307 -0.3904  0.2343  1.3315
  512MOL0     H69085  12.194   5.087  -0.255  1.1652 -2.4281 -1.6144
  512MOL0     H69086  12.361   5.165  -0.398 -1.2197  1.7090  1.3265
  512MOL0     H69087  12.281   5.038  -0.483 -0.7420 -0.7136  2.8871
  512MOL0     H69088  12.285   5.203  -0.648 -2.6753 -0.5164 -1.2626
  512MOL0     H69089  12.126   5.233  -0.588 -0.8557 -1.1686  1.4462
  512MOL0     H69090  12.378   5.409  -0.531  1.0769 -2.2520  1.4459
  512MOL0     H69091  12.219   5.420  -0.455  1.6509 -0.8405  0.2719
  512MOL0     H69092  12.251   5.562  -0.679  4.1889 -0.9313 -1.7611
  512MOL0     H69093  12.115   5.436  -0.672  1.0273 -1.2712 -3.2162
  512MOL0     H69094  12.366   5.432  -0.836  1.6293 -1.7560  2.9772
  512MOL0     H69095  12.264   5.293  -0.839  0.3256  0.2371 -3.8000
  512MOL0     H69096  12.217   5.427  -1.030  0.7797 -5.4971  0.3283
  512MOL0     H69097  12.175   5.560  -0.925 -1.2382 -0.2056  0.5187
  512MOL0     H69098  11.982   5.367  -0.859  2.4431 -0.9957  1.3055
  512MOL0     H69099  11.972   5.414  -1.027  1.6265 -0.1057 -1.4458
  512MOL0     H69100  11.769   5.158  -0.398  1.0944 -1.8179 -2.7137
  512MOL0     H69101  11.618   5.118  -0.236  0.8723  1.9924  0.5096
  512MOL0     H69102  11.411   5.061  -0.061 -1.8047  2.1431 -0.4585
  512MOL0     H69103  11.172   5.081  -0.012 -0.2291  0.0904 -0.7113
  512MOL0     H69104  11.192   5.152   1.735  0.7025  0.3588 -1.1164
  512MOL0     H69105  11.327   5.070   1.919  1.5382 -0.6490 -0.2712
  512MOL0     H69106  11.552   4.764   2.096  0.5215  1.2157  0.1350
  512MOL0     H69107  11.698   4.747   2.296  0.5888  0.4798  2.0752
  512MOL0     H69108  11.771   4.677   2.466 -2.2206  0.0215 -2.2545
  512MOL0     H69109  11.655   4.572   2.561 -1.5797  0.7164 -0.7029
  512MOL0     H69110  11.814   4.783   2.725  5.6593 -2.0949  1.9230
  512MOL0     H69111  11.871   4.626   2.687  0.0626  0.9012 -1.9884
  512MOL0     H69112  11.588   4.644   2.782 -0.8798  0.0982 -1.0533
  512MOL0     H69113  11.722   4.672   2.905  0.0562  3.3707 -1.5726
  512MOL0     H69114  11.624   4.429   2.873  0.3703  0.2657 -1.3075
  512MOL0     H69115  11.714   4.414   2.720 -0.1254  0.9683 -3.5615
  512MOL0     H69116  11.996   4.401   3.041  0.5405  5.2462  2.3452
  512MOL0     H69117  11.355   4.779   2.553  0.5792 -3.7778  1.0903
  512MOL0     H69118  11.129   4.889   2.371  0.6088  0.3160 -0.5554
  512MOL0     H69119  11.114   4.721   2.295 -2.8602 -0.3893  0.4025
  512MOL0     H69120  11.143   4.751   2.475  2.9544  0.0974 -0.7608
  513MOL0     O69121   0.267   2.051   0.804 -0.4842  0.1661  0.0869
  513MOL0     C69122   0.289   1.928   0.795  0.2099 -0.3521  0.1337
  513MOL0     O69123   0.414   1.886   0.775 -0.0436 -0.2725  1.0071
  513MOL0     C69124   0.528   1.970   0.771  0.7076 -0.3316 -0.8081
  513MOL0     C69125   0.533   2.103   0.732 -0.0527 -0.2390 -0.8968
  513MOL0     C69126   0.653   2.163   0.732 -0.0359  0.4657 -0.8292
  513MOL0     C69127   0.770   2.110   0.780 -0.5586  0.9729  0.4683
  513MOL0     O69128   0.891   2.176   0.785  0.0430  0.4110 -0.1961
  513MOL0     C69129   0.973   2.163   0.904  0.2725  0.6635 -0.0426
  513MOL0     C69130   1.056   2.274   0.932 -1.2847  0.5731 -0.3303
  513MOL0     C69131   1.144   2.240   1.057  0.4937  0.8108 -0.0100
  513MOL0     C69132   1.243   2.354   1.104 -0.4180  0.4845 -0.6062
  513MOL0     C69133   1.391   2.301   1.113  0.1912 -0.2108 -1.1029
  513MOL0     C69134   1.408   2.200   1.229 -0.4346 -0.2392  0.5484
  513MOL0     C69135   1.551   2.162   1.252 -0.2984 -0.8281 -0.0264
  513MOL0     C69136   1.550   2.061   1.363  0.1477  1.1390  0.5170
  513MOL0     N69137   1.523   2.116   1.489  0.3120  0.3656 -0.1949
  513MOL0     C69138   1.610   2.211   1.539  0.3865 -0.1374 -0.5469
  513MOL0     C69139   1.546   2.268   1.648 -0.0222  0.3956 -0.7432
  513MOL0     C69140   1.591   2.376   1.741  0.3242  0.0483 -0.2841
  513MOL0     C69141   1.498   2.495   1.714  0.5600 -0.6991 -0.6160
  513MOL0     C69142   1.535   2.569   1.581 -0.4941  0.9147 -0.2863
  513MOL0     C69143   1.453   2.521   1.458 -0.2657 -0.1416 -0.1635
  513MOL0     O69144   1.312   2.547   1.455  0.3919 -0.3414 -0.6414
  513MOL0     C69145   1.274   2.680   1.461 -0.3592 -0.0286  0.0285
  513MOL0     C69146   1.298   2.780   1.366  0.2549 -0.2900  0.1894
  513MOL0     C69147   1.253   2.913   1.387  0.2015  0.3125  0.7998
  513MOL0     C69148   1.177   2.951   1.498 -0.1199  1.1175 -0.4955
  513MOL0     C69149   1.096   3.068   1.506 -0.5476 -0.1955  0.4452
  513MOL0     O69150   1.122   3.166   1.405 -0.0737 -0.4769  0.7747
  513MOL0     C69151   1.080   3.292   1.425 -1.2176  0.2060  0.4337
  513MOL0     C69152   0.990   3.339   1.326 -0.1026 -0.3084  0.1512
  513MOL0     C69153   0.925   3.460   1.336  0.1337 -0.2268  0.8404
  513MOL0     C69154   0.952   3.541   1.454 -1.0179  0.0564  0.0194
  513MOL0     O69155   0.903   3.671   1.463  0.3434 -0.1678 -0.5187
  513MOL0     C69156   0.827   3.732   1.357 -0.0529 -1.0805 -0.1767
  513MOL0     C69157   0.772   3.873   1.394 -0.6175 -0.0885 -0.5150
  513MOL0     C69158   0.640   3.861   1.466 -0.1876 -0.3412 -0.5784
  513MOL0     C69159   0.597   4.008   1.494  0.1474 -0.3806 -0.6729
  513MOL0     C69160   0.518   4.069   1.377  0.1313  0.3934  0.4330
  513MOL0     C69161   0.371   4.019   1.373 -0.4985  0.6199  0.9861
  513MOL0     C69162   0.334   4.042   1.217 -0.3840 -0.3140  0.0969
  513MOL0     C69163   0.186   4.021   1.188 -0.1866 -0.6033 -0.2956
  513MOL0    Cl69164   0.100   4.172   1.237  0.1850 -0.0241  0.2493
  513MOL0     C69165   1.047   3.498   1.554  0.8581  0.9561  0.3091
  513MOL0     C69166   1.096   3.374   1.541 -0.3971  0.7714  0.1897
  513MOL0     O69167   1.022   3.081   1.598  0.1632 -0.2962 -0.1620
  513MOL0     C69168   1.165   2.851   1.602 -1.2984 -0.1658  0.1861
  513MOL0     C69169   1.212   2.719   1.582 -0.0304 -0.9826 -0.0821
  513MOL0     N69170   1.420   2.204   1.653  0.7288  1.1507 -0.4186
  513MOL0     N69171   1.409   2.113   1.562 -0.0011 -0.8947  0.6337
  513MOL0     C69172   0.756   1.978   0.833  0.3139  0.4649 -0.0138
  513MOL0     C69173   0.638   1.902   0.819 -0.5131  0.0114 -0.9889
  513MOL0     C69174   0.173   1.824   0.799  0.3776  0.5408  0.4393
  513MOL0     C69175   0.191   1.695   0.749  0.8383 -0.3701  0.4543
  513MOL0     C69176   0.087   1.597   0.759 -0.4698 -0.2369 -0.5984
  513MOL0     C69177  -0.037   1.627   0.805  0.6538 -0.8981 -0.5407
  513MOL0     O69178  -0.143   1.545   0.795  0.6331 -0.8248  0.4175
  513MOL0     C69179  -0.168   1.471   0.675  0.2132 -0.8618 -0.4413
  513MOL0     C69180  -0.320   1.427   0.664 -0.6820 -1.5478 -0.1114
  513MOL0     C69181  -0.423   1.527   0.733 -0.2340 -0.5876  0.3760
  513MOL0     C69182  -0.572   1.502   0.716 -1.0955  0.8346 -0.1331
  513MOL0     C69183  -0.630   1.568   0.598 -0.5284  0.1833  0.0447
  513MOL0     C69184  -0.694   1.633   0.515 -1.0315  1.0320  0.9581
  513MOL0     C69185  -0.057   1.748   0.849  0.0645 -0.8417  0.1326
  513MOL0     C69186   0.039   1.851   0.843  0.8774  0.9191  0.2029
  513MOL0     C69187  -0.010   1.989   0.903  0.6178  0.9883 -0.1854
  513MOL0     H69188   0.447   2.160   0.698  0.5033  2.8327  2.2768
  513MOL0     H69189   0.657   2.267   0.699  0.5944  2.0998  3.6362
  513MOL0     H69190   0.901   2.144   0.985 -1.5742  0.2776 -1.6763
  513MOL0     H69191   1.039   2.078   0.883 -2.2787 -1.6681  0.6215
  513MOL0     H69192   0.991   2.360   0.947 -0.5865  0.9062  0.8298
  513MOL0     H69193   1.125   2.292   0.849 -0.3925 -4.3349 -0.9763
  513MOL0     H69194   1.205   2.153   1.033 -3.4901 -1.6989 -2.2727
  513MOL0     H69195   1.078   2.208   1.138 -0.3494  3.9062  0.6572
  513MOL0     H69196   1.228   2.440   1.038 -1.9282 -0.5359 -1.6715
  513MOL0     H69197   1.219   2.369   1.210  1.2180  0.5854 -0.2385
  513MOL0     H69198   1.421   2.244   1.024 -0.9602 -0.7966 -1.1418
  513MOL0     H69199   1.446   2.394   1.128 -5.2321  3.0413  1.8985
  513MOL0     H69200   1.373   2.249   1.321  3.5567  2.5462  0.8238
  513MOL0     H69201   1.350   2.108   1.213  0.0114 -0.3626 -0.4542
  513MOL0     H69202   1.604   2.251   1.288 -0.7855 -0.8952  0.8937
  513MOL0     H69203   1.605   2.130   1.162  1.2857  1.1829  0.1322
  513MOL0     H69204   1.478   1.980   1.344 -0.0621  1.5891 -0.6929
  513MOL0     H69205   1.644   2.007   1.377  1.3270  1.6345 -4.0037
  513MOL0     H69206   1.703   2.249   1.497 -0.8049  1.0929 -2.2034
  513MOL0     H69207   1.574   2.357   1.848  4.7443  3.3168  1.3037
  513MOL0     H69208   1.693   2.412   1.725  0.3165  0.9885  1.5039
  513MOL0     H69209   1.393   2.466   1.708 -0.4176  2.3876 -0.3850
  513MOL0     H69210   1.511   2.567   1.796  0.0694  1.5050 -2.3884
  513MOL0     H69211   1.642   2.558   1.564 -0.3616  0.7733  0.6000
  513MOL0     H69212   1.519   2.676   1.594  0.6236  1.3331 -2.0369
  513MOL0     H69213   1.453   2.412   1.451 -3.0769 -0.2470  0.3700
  513MOL0     H69214   1.502   2.551   1.365 -2.6701  1.4282 -1.0348
  513MOL0     H69215   1.348   2.749   1.274  0.8949  0.8545  0.1435
  513MOL0     H69216   1.270   2.980   1.303  1.4831  0.9379  1.5330
  513MOL0     H69217   0.969   3.281   1.237 -0.7591 -1.4864  1.0272
  513MOL0     H69218   0.854   3.484   1.256  3.2002 -0.5831 -2.2267
  513MOL0     H69219   0.896   3.753   1.275 -0.9996  4.0463 -0.0001
  513MOL0     H69220   0.734   3.681   1.328 -1.4915  1.0643  0.4272
  513MOL0     H69221   0.848   3.909   1.463 -0.1752  0.4196 -1.2486
  513MOL0     H69222   0.772   3.934   1.303 -1.7513 -2.1114 -1.9760
  513MOL0     H69223   0.556   3.808   1.419  0.1755 -1.2579 -0.2278
  513MOL0     H69224   0.659   3.823   1.567 -1.9395  3.0650  1.1948
  513MOL0     H69225   0.689   4.061   1.518 -0.9455  1.2024  0.2190
  513MOL0     H69226   0.547   4.008   1.592  2.4983  1.0597  0.6100
  513MOL0     H69227   0.557   4.055   1.276 -0.4286 -1.9950  0.4869
  513MOL0     H69228   0.521   4.178   1.386  4.9543  0.7585 -2.1640
  513MOL0     H69229   0.377   3.912   1.394  2.3916 -0.3801 -3.5041
  513MOL0     H69230   0.306   4.076   1.440 -2.2632 -1.2577  0.9522
  513MOL0     H69231   0.394   3.974   1.157  0.1950 -0.3276  0.6777
  513MOL0     H69232   0.362   4.143   1.184  1.7886 -0.7055  0.5877
  513MOL0     H69233   0.175   4.011   1.080  4.0169  0.9360 -1.0399
  513MOL0     H69234   0.152   3.932   1.242  4.6573 -2.0357  0.8226
  513MOL0     H69235   1.077   3.560   1.637 -1.9836  0.9015  1.5146
  513MOL0     H69236   1.160   3.325   1.614  0.7026  0.0558 -1.1844
  513MOL0     H69237   1.121   2.869   1.699  1.4630  2.0338  1.1637
  513MOL0     H69238   1.183   2.642   1.653 -1.2708  1.1058  1.7925
  513MOL0     H69239   0.842   1.918   0.859  2.0918  2.4590 -1.0173
  513MOL0     H69240   0.641   1.794   0.824  3.3417 -0.1415 -2.7444
  513MOL0     H69241   0.294   1.675   0.720  1.6413  0.3236  2.5773
  513MOL0     H69242   0.116   1.498   0.726 -1.6110 -1.1121  0.9363
  513MOL0     H69243  -0.097   1.390   0.661  0.8232 -0.2523 -0.9459
  513MOL0     H69244  -0.151   1.543   0.594  0.2211 -0.2096  0.1279
  513MOL0     H69245  -0.329   1.327   0.708 -1.3910 -0.0215  3.5519
  513MOL0     H69246  -0.343   1.447   0.559  1.7689 -0.0354 -0.4408
  513MOL0     H69247  -0.395   1.633   0.726 -1.0269 -0.2575  1.8676
  513MOL0     H69248  -0.417   1.512   0.841  1.7826 -0.9009  0.2659
  513MOL0     H69249  -0.595   1.395   0.712  0.2662  0.4846 -5.4841
  513MOL0     H69250  -0.616   1.541   0.809 -2.5559 -0.4850 -0.2249
  513MOL0     H69251  -0.730   1.693   0.433 -3.0535 -0.6530  0.5341
  513MOL0     H69252  -0.153   1.783   0.885  0.0401 -0.6118 -0.1528
  513MOL0     H69253   0.071   2.053   0.939  0.1912  0.2259  2.3680
  513MOL0     H69254  -0.068   2.040   0.826  0.0186  3.8473  1.9779
  513MOL0     H69255  -0.075   1.970   0.989  1.8511  0.3826  0.6399
  514MOL0     O69256   0.785  10.867   0.829  0.1925  0.2852  0.2686
  514MOL0     C69257   0.840  10.920   0.732 -0.2191  0.8804 -0.1680
  514MOL0     O69258   0.922  11.033   0.736  0.2608 -0.6894 -0.5062
  514MOL0     C69259   0.914  11.100   0.850  0.7192  0.2781  0.2090
  514MOL0     C69260   0.778  11.147   0.892 -0.8018 -0.2102  0.4329
  514MOL0     C69261   0.768  11.224   1.007 -0.3780 -0.0141  0.1716
  514MOL0     C69262   0.868  11.234   1.097  0.9611 -0.2231 -0.5231
  514MOL0     O69263   0.852  11.303   1.215  0.0483 -0.0353  0.0952
  514MOL0     C69264   0.918  11.248   1.338 -0.3851 -0.1046 -0.9418
  514MOL0     C69265   0.831  11.301   1.463  0.2287  0.5758 -0.1105
  514MOL0     C69266   0.819  11.453   1.440 -0.6721 -0.5035 -1.2855
  514MOL0     C69267   0.785  11.499   1.585 -0.7085 -0.0440  0.2786
  514MOL0     C69268   0.765  11.647   1.580  0.3383  0.2007 -0.1855
  514MOL0     C69269   0.659  11.719   1.490 -0.2426  0.5151  0.1750
  514MOL0     C69270   0.529  11.650   1.455  0.0815 -0.1811 -0.0863
  514MOL0     C69271   0.461  11.723   1.338 -0.0422 -0.5422  0.8788
  514MOL0     N69272   0.497  11.650   1.208 -0.1073  0.2199 -0.4753
  514MOL0     C69273   0.621  11.671   1.155  0.1313  0.1276 -0.8037
  514MOL0     C69274   0.609  11.597   1.038  0.8648 -0.7008 -0.2669
  514MOL0     C69275   0.729  11.578   0.950  0.6047  0.9199  0.3875
  514MOL0     C69276   0.712  11.667   0.823  0.7120 -0.6621 -0.0842
  514MOL0     C69277   0.719  11.582   0.689  0.2134  0.0430  0.4151
  514MOL0     C69278   0.725  11.664   0.565 -0.0987  0.1191 -0.3192
  514MOL0     O69279   0.724  11.580   0.449 -0.0310 -0.0437  0.1074
  514MOL0     C69280   0.749  11.643   0.321  0.5372 -0.0273 -0.6258
  514MOL0     C69281   0.774  11.776   0.302 -1.0432  0.1824  0.5298
  514MOL0     C69282   0.807  11.820   0.174 -0.2598 -0.1247 -0.1681
  514MOL0     C69283   0.783  11.743   0.055 -0.1955 -0.7951 -0.1933
  514MOL0     C69284   0.786  11.804  -0.079 -0.0550  0.5045 -0.4138
  514MOL0     O69285   0.817  11.941  -0.079  0.7334 -0.4539 -0.1204
  514MOL0     C69286   0.810  12.014  -0.200  1.0078 -0.0773 -1.1840
  514MOL0     C69287   0.932  12.050  -0.256 -0.1205  0.1099  0.8969
  514MOL0     C69288   0.927  12.116  -0.375 -1.5784  0.4839  0.0864
  514MOL0     C69289   0.815  12.147  -0.443 -0.8354 -0.0781 -0.4847
  514MOL0     O69290   0.826  12.213  -0.562  0.7691 -0.3732  0.3671
  514MOL0     C69291   0.896  12.154  -0.678 -0.5373 -0.0410 -0.3678
  514MOL0     C69292   0.852  12.221  -0.802 -0.3348 -0.0079 -0.0570
  514MOL0     C69293   0.884  12.375  -0.808  0.4846  0.2195 -0.6312
  514MOL0     C69294   0.884  12.413  -0.956 -0.4611 -0.2080 -0.5182
  514MOL0     C69295   0.923  12.564  -0.969  0.5212 -0.1817 -0.0488
  514MOL0     C69296   0.946  12.621  -1.111  0.5259 -0.4900  0.1895
  514MOL0     C69297   1.007  12.761  -1.106 -0.2493 -0.0518  0.5286
  514MOL0     C69298   1.017  12.831  -1.250 -0.1513  0.2725 -1.6294
  514MOL0    Cl69299   1.095  12.718  -1.374  0.2070  0.0465  0.3474
  514MOL0     C69300   0.695  12.106  -0.394  0.4219 -0.5196 -0.1476
  514MOL0     C69301   0.699  12.034  -0.278 -0.7768  1.4575 -0.5143
  514MOL0     O69302   0.743  11.749  -0.173 -0.0653 -0.3066 -0.2930
  514MOL0     C69303   0.738  11.613   0.078  0.0854 -0.2466 -0.3259
  514MOL0     C69304   0.729  11.567   0.208  0.5430 -0.0376 -0.4218
  514MOL0     N69305   0.484  11.540   1.017  0.0942 -0.1455  1.1285
  514MOL0     N69306   0.417  11.573   1.129 -0.0415 -0.4020  0.2162
  514MOL0     C69307   0.995  11.174   1.062  1.0325 -0.6265 -0.0309
  514MOL0     C69308   1.013  11.105   0.946  0.1890  0.3283  0.5379
  514MOL0     C69309   0.840  10.849   0.594  0.1543 -0.3649 -0.1369
  514MOL0     C69310   0.926  10.892   0.499 -0.5111  0.6355  0.2546
  514MOL0     C69311   0.951  10.827   0.373  0.0332 -0.8058 -0.1182
  514MOL0     C69312   0.876  10.717   0.334 -0.1243 -0.1523  1.2111
  514MOL0     O69313   0.879  10.660   0.210  0.0825 -0.5046  0.1366
  514MOL0     C69314   0.967  10.720   0.115  0.2894 -0.1262  0.7068
  514MOL0     C69315   0.968  10.631  -0.010 -0.5848  0.1377  0.5561
  514MOL0     C69316   0.839  10.628  -0.099 -0.9951  0.3010  0.1854
  514MOL0     C69317   0.868  10.580  -0.241 -0.4073  1.6543  0.1735
  514MOL0     C69318   0.736  10.560  -0.308  0.3223 -0.4568  0.2892
  514MOL0     C69319   0.629  10.554  -0.366  0.6122 -0.4477  0.6077
  514MOL0     C69320   0.787  10.664   0.424 -0.3657 -0.5692 -0.0574
  514MOL0     C69321   0.767  10.735   0.552 -0.2537  0.4722 -0.7415
  514MOL0     C69322   0.657  10.681   0.654  0.6332 -0.5657 -0.3978
  514MOL0     H69323   0.689  11.133   0.832 -0.6367 -0.4227  0.2362
  514MOL0     H69324   0.668  11.249   1.039 -1.6559 -4.1969  0.0640
  514MOL0     H69325   0.914  11.139   1.340  0.8221 -0.1455  0.5406
  514MOL0     H69326   1.021  11.284   1.340 -0.2168 -0.5986  0.9496
  514MOL0     H69327   0.871  11.263   1.558  0.9284 -1.9009 -1.3257
  514MOL0     H69328   0.728  11.267   1.448 -0.8111  2.5252  1.9147
  514MOL0     H69329   0.743  11.487   1.369 -1.1232  2.1859  0.3587
  514MOL0     H69330   0.917  11.497   1.421  0.9178 -2.2548  1.9421
  514MOL0     H69331   0.706  11.442   1.634  0.8948 -3.9754 -1.2511
  514MOL0     H69332   0.879  11.479   1.638 -1.1634  0.0556  1.1308
  514MOL0     H69333   0.732  11.647   1.684 -2.5460  0.0014 -1.0126
  514MOL0     H69334   0.855  11.699   1.545  0.8820 -0.6919 -0.1484
  514MOL0     H69335   0.626  11.810   1.540 -0.7872 -0.2473  1.2339
  514MOL0     H69336   0.718  11.741   1.400  2.0239 -1.1003  1.1845
  514MOL0     H69337   0.479  11.669   1.550 -0.6980 -2.2321 -0.0278
  514MOL0     H69338   0.540  11.545   1.426  2.4943  0.5039 -2.0280
  514MOL0     H69339   0.352  11.723   1.345 -0.2437  2.3990 -0.8120
  514MOL0     H69340   0.491  11.827   1.323 -0.5113 -0.2820  1.6355
  514MOL0     H69341   0.704  11.720   1.206 -1.5717  0.2229  2.0781
  514MOL0     H69342   0.823  11.592   1.004 -1.0015 -0.6065  3.9303
  514MOL0     H69343   0.720  11.474   0.917 -0.0600  1.0767  0.0592
  514MOL0     H69344   0.611  11.709   0.815  1.0919 -0.0638 -5.0157
  514MOL0     H69345   0.779  11.753   0.820  0.3435 -0.3968 -1.5857
  514MOL0     H69346   0.637  11.510   0.689 -1.1797  1.5714  1.7888
  514MOL0     H69347   0.810  11.521   0.681 -0.8600 -2.0788  2.8632
  514MOL0     H69348   0.806  11.737   0.576 -1.1776  1.7131 -2.3429
  514MOL0     H69349   0.639  11.732   0.566 -0.3843 -0.2261  1.0956
  514MOL0     H69350   0.783  11.859   0.372  2.5620  2.9263 -2.7941
  514MOL0     H69351   0.833  11.925   0.168  1.1536 -0.3083  1.8369
  514MOL0     H69352   1.024  12.037  -0.200  1.6441 -0.1266 -1.8847
  514MOL0     H69353   1.021  12.149  -0.420 -0.7642  0.7802  1.9244
  514MOL0     H69354   1.003  12.138  -0.665 -0.7021 -2.1101 -1.1752
  514MOL0     H69355   0.861  12.051  -0.688  0.3178 -0.1270 -3.4805
  514MOL0     H69356   0.893  12.176  -0.893  2.1541  1.0614  0.4352
  514MOL0     H69357   0.746  12.202  -0.818  0.4648 -3.7451 -1.9998
  514MOL0     H69358   0.806  12.429  -0.753  1.3977  2.3437 -1.2942
  514MOL0     H69359   0.975  12.411  -0.759  0.3856  0.7073 -0.8014
  514MOL0     H69360   0.790  12.391  -1.007 -0.1751  1.2737 -1.7499
  514MOL0     H69361   0.964  12.357  -1.006 -0.4275 -0.3516 -0.3064
  514MOL0     H69362   1.010  12.595  -0.911  1.8051  4.5181 -3.8842
  514MOL0     H69363   0.846  12.625  -0.921  0.9490 -1.7632  2.9402
  514MOL0     H69364   1.023  12.554  -1.151  2.3133  0.5280  1.7963
  514MOL0     H69365   0.850  12.611  -1.163 -0.3455  1.6900  1.2363
  514MOL0     H69366   1.109  12.747  -1.070  0.9868  0.4217 -2.4944
  514MOL0     H69367   0.944  12.828  -1.047  0.7958  0.9084  0.5939
  514MOL0     H69368   0.919  12.865  -1.284 -1.3296  1.5799  2.4880
  514MOL0     H69369   1.073  12.925  -1.241 -0.1554  0.0807  1.4810
  514MOL0     H69370   0.594  12.131  -0.424  0.3569  1.8208  1.7105
  514MOL0     H69371   0.602  12.000  -0.244 -0.1524  1.2274  1.1295
  514MOL0     H69372   0.706  11.549  -0.003 -3.8632  1.6727 -0.5039
  514MOL0     H69373   0.708  11.461   0.214  0.2482 -0.1443 -2.5419
  514MOL0     H69374   1.080  11.177   1.130  2.9237 -0.3885 -2.2916
  514MOL0     H69375   1.107  11.056   0.925  1.0366  1.1790  2.1194
  514MOL0     H69376   1.006  10.961   0.524  1.9564 -1.4721 -1.4039
  514MOL0     H69377   1.034  10.862   0.313 -0.8316  0.2715 -0.7217
  514MOL0     H69378   1.068  10.742   0.150 -0.3360  0.6794  2.1334
  514MOL0     H69379   0.927  10.818   0.084 -2.3360 -0.7567  1.7957
  514MOL0     H69380   0.996  10.533   0.029  2.5061  1.1254  1.1334
  514MOL0     H69381   1.042  10.667  -0.082 -0.5687  2.2798  1.5670
  514MOL0     H69382   0.797  10.729  -0.095 -0.9765  0.3041  0.3205
  514MOL0     H69383   0.771  10.560  -0.046  0.0779 -1.2276 -0.3309
  514MOL0     H69384   0.919  10.661  -0.293  0.3446  0.6093 -0.7823
  514MOL0     H69385   0.921  10.484  -0.232 -0.7620  1.4450  0.0689
  514MOL0     H69386   0.540  10.555  -0.424 -0.9275 -2.3767  2.7536
  514MOL0     H69387   0.733  10.577   0.388 -1.7986  0.9504 -1.8592
  514MOL0     H69388   0.591  10.604   0.613 -1.9159  1.2454  0.0609
  514MOL0     H69389   0.701  10.645   0.747 -1.0232 -0.3472  0.5194
  514MOL0     H69390   0.588  10.761   0.683 -0.0355 -0.2182 -2.7326
  515MOL0     O69391   7.459   8.365   5.020  0.3411 -0.0563  0.0370
  515MOL0     C69392   7.341   8.345   5.024  0.5023  0.4092  0.7907
  515MOL0     O69393   7.255   8.428   5.070  0.0431 -0.1158  0.1392
  515MOL0     C69394   7.308   8.542   5.116 -1.5278 -0.0714  0.5068
  515MOL0     C69395   7.343   8.568   5.257  0.2508 -0.4839 -0.5161
  515MOL0     C69396   7.384   8.693   5.302  0.8035 -0.4795 -0.9648
  515MOL0     C69397   7.394   8.806   5.212 -0.6047  0.8669  0.1762
  515MOL0     O69398   7.443   8.925   5.253 -0.0177  0.3817 -0.4487
  515MOL0     C69399   7.429   8.955   5.396 -0.0509  0.2530  0.5948
  515MOL0     C69400   7.564   8.938   5.452 -0.0220 -0.9828  0.9841
  515MOL0     C69401   7.571   8.959   5.609  0.1107 -0.1310 -0.0451
  515MOL0     C69402   7.596   8.829   5.685 -0.0237 -0.1651  0.4020
  515MOL0     C69403   7.608   8.862   5.830  0.0515 -0.4641 -0.3538
  515MOL0     C69404   7.687   8.749   5.895 -0.3069 -0.6855 -0.0927
  515MOL0     C69405   7.656   8.720   6.035 -0.1584 -0.5546  0.2975
  515MOL0     C69406   7.745   8.611   6.099  0.5709  0.0290 -0.3401
  515MOL0     N69407   7.696   8.590   6.236 -0.1832  0.5446  0.3081
  515MOL0     C69408   7.758   8.629   6.347 -0.4649  0.7593 -0.3773
  515MOL0     C69409   7.670   8.618   6.452  0.5991  0.2018  0.8866
  515MOL0     C69410   7.698   8.653   6.592 -0.9471 -0.8244  0.2120
  515MOL0     C69411   7.578   8.689   6.681  0.2747  0.4343  0.2193
  515MOL0     C69412   7.585   8.840   6.720  0.4900  0.0209 -0.6836
  515MOL0     C69413   7.558   8.937   6.598 -0.8122  0.4315 -0.4245
  515MOL0     O69414   7.450   8.897   6.522 -0.2672  0.1823  0.0270
  515MOL0     C69415   7.431   8.963   6.401  0.1896  1.0392  0.5720
  515MOL0     C69416   7.510   9.061   6.337 -0.3120  0.9563 -0.4359
  515MOL0     C69417   7.471   9.125   6.212 -0.1690  0.8566  1.0815
  515MOL0     C69418   7.358   9.082   6.145  0.4602  0.4333  0.3555
  515MOL0     C69419   7.320   9.116   6.005 -0.2956  0.2008 -0.2236
  515MOL0     O69420   7.193   9.089   5.965 -0.9457 -0.4108 -0.2555
  515MOL0     C69421   7.124   9.193   5.924 -0.4662 -0.3979 -0.2390
  515MOL0     C69422   6.998   9.154   5.876  0.6652 -0.0186 -0.2381
  515MOL0     C69423   6.903   9.242   5.828 -0.0847  0.9068 -0.2719
  515MOL0     C69424   6.933   9.382   5.837  0.3065 -0.2866  0.2355
  515MOL0     O69425   6.847   9.482   5.798  0.6539  0.4129  0.5124
  515MOL0     C69426   6.709   9.458   5.861  0.6135  1.0729  0.1833
  515MOL0     C69427   6.703   9.480   6.015 -0.3806  0.9172 -0.1875
  515MOL0     C69428   6.689   9.631   6.052 -0.3251 -0.5203  0.1276
  515MOL0     C69429   6.542   9.671   6.053  0.1060  0.1063  0.3025
  515MOL0     C69430   6.506   9.809   6.110 -0.0827 -0.2468 -0.0149
  515MOL0     C69431   6.362   9.840   6.156 -0.1925  0.8212 -0.3135
  515MOL0     C69432   6.257   9.805   6.055 -0.0525  0.1182  0.7135
  515MOL0     C69433   6.129   9.835   6.130  0.2754 -0.0457  0.2300
  515MOL0    Cl69434   5.997   9.758   6.045  0.5784 -0.3075  0.1440
  515MOL0     C69435   7.053   9.418   5.891 -0.2488  0.1770 -0.1923
  515MOL0     C69436   7.152   9.329   5.933  0.4867  0.2934  0.8435
  515MOL0     O69437   7.415   9.147   5.934 -0.0766  0.7792 -0.4479
  515MOL0     C69438   7.284   8.977   6.209 -0.6034 -1.0735  0.8087
  515MOL0     C69439   7.322   8.925   6.335 -0.1494  0.0373 -0.1591
  515MOL0     N69440   7.553   8.554   6.404 -0.1771  0.2049 -0.0420
  515MOL0     N69441   7.575   8.543   6.272 -0.4957 -0.1507  0.7127
  515MOL0     C69442   7.369   8.783   5.077 -0.4004  0.3095  0.3534
  515MOL0     C69443   7.316   8.657   5.027  0.4491  0.9028 -0.2234
  515MOL0     C69444   7.286   8.233   4.958  0.4735  0.4680 -0.2586
  515MOL0     C69445   7.264   8.239   4.828  0.4877 -0.2076 -0.0861
  515MOL0     C69446   7.211   8.132   4.754  0.1354  0.4679  0.4726
  515MOL0     C69447   7.191   8.014   4.813  0.5861 -0.1848  0.3874
  515MOL0     O69448   7.129   7.916   4.745  0.0815  0.1177 -0.4639
  515MOL0     C69449   7.182   7.894   4.618 -0.2738  0.8982  0.1215
  515MOL0     C69450   7.177   7.738   4.577  0.8699  0.6469  0.3146
  515MOL0     C69451   7.289   7.700   4.489 -1.0110  0.5548 -0.1412
  515MOL0     C69452   7.351   7.559   4.474  0.1677 -0.0632  0.7201
  515MOL0     C69453   7.423   7.532   4.347 -0.2158  0.1894  0.5935
  515MOL0     C69454   7.503   7.516   4.255  0.6806 -0.0288 -0.0919
  515MOL0     C69455   7.215   8.000   4.948  0.2753  0.0635 -0.7548
  515MOL0     C69456   7.259   8.114   5.023 -0.4846  0.0534 -0.8606
  515MOL0     C69457   7.312   8.078   5.158 -0.3517 -0.4340  0.4272
  515MOL0     H69458   7.318   8.480   5.316 -1.3572  0.8459  0.9050
  515MOL0     H69459   7.420   8.699   5.404 -2.1133  0.6890  0.0871
  515MOL0     H69460   7.404   9.058   5.421 -0.9384  0.4831 -1.0911
  515MOL0     H69461   7.354   8.897   5.450 -1.2839  1.9483  0.7791
  515MOL0     H69462   7.610   9.024   5.404 -0.1314 -0.7950  1.2146
  515MOL0     H69463   7.612   8.847   5.415  1.2716 -0.1365  0.5197
  515MOL0     H69464   7.481   9.011   5.642  2.1708  4.6498 -1.0427
  515MOL0     H69465   7.646   9.035   5.633  1.1543 -0.4408 -2.0716
  515MOL0     H69466   7.523   8.753   5.654  0.7366 -0.0394 -1.9307
  515MOL0     H69467   7.693   8.788   5.655 -0.7825 -0.3128 -2.1219
  515MOL0     H69468   7.654   8.959   5.850  1.1167 -1.1611  0.7608
  515MOL0     H69469   7.506   8.854   5.869 -0.1487  3.1001  0.1337
  515MOL0     H69470   7.671   8.655   5.841 -1.6372 -0.1365 -0.6949
  515MOL0     H69471   7.795   8.769   5.891 -0.1897 -0.0876  3.3240
  515MOL0     H69472   7.557   8.674   6.041 -0.1387 -0.4005  2.5513
  515MOL0     H69473   7.644   8.812   6.093  1.0661 -0.9360  1.2116
  515MOL0     H69474   7.736   8.516   6.045 -0.1270 -0.9429  1.3991
  515MOL0     H69475   7.852   8.634   6.093  0.5131  0.2794 -0.4534
  515MOL0     H69476   7.855   8.679   6.352 -0.8161  1.4508 -0.2615
  515MOL0     H69477   7.761   8.578   6.641  4.3129  0.7542 -3.2687
  515MOL0     H69478   7.754   8.746   6.577 -2.7407  0.1453 -0.8944
  515MOL0     H69479   7.484   8.675   6.627  0.7350 -2.0671 -0.0315
  515MOL0     H69480   7.570   8.627   6.771 -0.0443  1.3264  0.8236
  515MOL0     H69481   7.678   8.860   6.775 -0.5779 -0.2761  1.3139
  515MOL0     H69482   7.502   8.863   6.787 -0.4983 -0.9043 -1.5461
  515MOL0     H69483   7.641   8.940   6.527 -0.9919 -3.9047 -1.0610
  515MOL0     H69484   7.545   9.036   6.642  0.3637 -0.4538  2.1175
  515MOL0     H69485   7.607   9.088   6.378 -0.7134 -0.6673  1.8154
  515MOL0     H69486   7.537   9.199   6.168  1.7075 -1.4698 -0.2931
  515MOL0     H69487   6.967   9.050   5.878 -0.0706  0.1543  2.8869
  515MOL0     H69488   6.808   9.199   5.799 -0.2961  0.9450  0.3514
  515MOL0     H69489   6.630   9.523   5.822 -0.3128  2.0434  3.3823
  515MOL0     H69490   6.684   9.357   5.829  1.8626  1.4040 -2.1013
  515MOL0     H69491   6.632   9.417   6.068  0.7543  2.9310  4.1149
  515MOL0     H69492   6.800   9.439   6.044 -2.2941 -2.7167  1.7875
  515MOL0     H69493   6.707   9.657   6.157 -3.4981 -1.8024  1.1000
  515MOL0     H69494   6.758   9.694   5.994  1.0232 -0.5818  1.5745
  515MOL0     H69495   6.488   9.599   6.115  0.7491  0.6428  1.4983
  515MOL0     H69496   6.496   9.662   5.954 -1.1245  4.3633  0.2658
  515MOL0     H69497   6.524   9.891   6.040 -2.5245 -0.4987 -1.0171
  515MOL0     H69498   6.579   9.819   6.192  1.4130 -1.1671 -1.1742
  515MOL0     H69499   6.348   9.794   6.255  0.5573  1.5472  0.1397
  515MOL0     H69500   6.349   9.948   6.165 -3.0249  0.4716  0.9349
  515MOL0     H69501   6.266   9.708   6.006  2.1897  1.3571 -1.6279
  515MOL0     H69502   6.255   9.878   5.972 -0.1727  0.3911  0.9531
  515MOL0     H69503   6.123   9.793   6.231 -2.1444  1.7046  0.8860
  515MOL0     H69504   6.110   9.942   6.136 -1.1932 -0.3434  1.5521
  515MOL0     H69505   7.074   9.523   5.877  1.0458  0.1258  1.0865
  515MOL0     H69506   7.242   9.371   5.975 -1.3679  2.0843  3.3007
  515MOL0     H69507   7.189   8.934   6.177 -2.2413  2.1012  0.9929
  515MOL0     H69508   7.250   8.860   6.384  1.3719 -0.8754  0.9491
  515MOL0     H69509   7.379   8.870   5.013  1.4764  0.5075  0.8402
  515MOL0     H69510   7.287   8.650   4.923  0.8891  3.1808 -0.5569
  515MOL0     H69511   7.287   8.331   4.774 -4.2487  0.6956 -1.0267
  515MOL0     H69512   7.190   8.155   4.650 -0.8013  0.3697  0.6322
  515MOL0     H69513   7.283   7.931   4.599  0.1389 -1.9333 -5.2204
  515MOL0     H69514   7.118   7.955   4.553 -1.4255  0.9924  1.3128
  515MOL0     H69515   7.080   7.734   4.526  0.6411  2.7413  0.4858
  515MOL0     H69516   7.182   7.659   4.653 -0.9614 -0.7031 -0.8933
  515MOL0     H69517   7.374   7.765   4.512 -1.3817  2.3138 -3.1558
  515MOL0     H69518   7.258   7.728   4.388 -4.2813 -1.7011  0.0786
  515MOL0     H69519   7.418   7.554   4.561 -1.5691 -0.9172  2.0834
  515MOL0     H69520   7.266   7.490   4.463  2.2835 -2.4259 -2.2227
  515MOL0     H69521   7.575   7.490   4.180  1.1810 -1.3971  0.8108
  515MOL0     H69522   7.211   7.901   4.992  0.3919  0.0098 -0.8644
  515MOL0     H69523   7.264   7.989   5.199  3.8508 -2.2748  1.9589
  515MOL0     H69524   7.420   8.061   5.154  0.0344  1.1855  2.3178
  515MOL0     H69525   7.295   8.161   5.227  0.2083  1.2529 -1.3688
  516MOL0     O69526   9.534   9.147   3.322 -0.9956  0.4167  0.6316
  516MOL0     C69527   9.643   9.136   3.386  0.4203  0.0293 -0.3136
  516MOL0     O69528   9.715   9.243   3.440 -0.2083  0.4473  0.4386
  516MOL0     C69529   9.691   9.363   3.377 -0.6707 -0.4573  0.1024
  516MOL0     C69530   9.590   9.443   3.425  0.9824  0.3622 -0.4796
  516MOL0     C69531   9.556   9.566   3.360  0.1050 -0.0831 -0.5796
  516MOL0     C69532   9.639   9.618   3.265  0.7095  0.4610  0.5478
  516MOL0     O69533   9.601   9.740   3.231 -0.3168  0.3045 -0.1665
  516MOL0     C69534   9.694   9.827   3.172 -0.3362  1.1594 -0.2512
  516MOL0     C69535   9.638   9.967   3.143  0.4959 -0.0833 -0.1357
  516MOL0     C69536   9.528  10.005   3.243  0.3499 -1.3888  0.4999
  516MOL0     C69537   9.524  10.152   3.234 -0.3406 -0.0819  0.2077
  516MOL0     C69538   9.428  10.220   3.330  0.1445  0.3924  0.1641
  516MOL0     C69539   9.477  10.356   3.359 -1.3480 -1.8001 -0.1685
  516MOL0     C69540   9.371  10.448   3.418 -0.2119 -0.4012  0.1489
  516MOL0     C69541   9.390  10.614   3.401  0.5804  0.1624  0.3161
  516MOL0     N69542   9.297  10.682   3.495  0.0680 -0.1809 -0.9026
  516MOL0     C69543   9.274  10.623   3.623  0.3094 -0.2752  1.6661
  516MOL0     C69544   9.162  10.681   3.662  0.8499 -0.9591 -0.7623
  516MOL0     C69545   9.088  10.645   3.794  0.6695  0.1478  0.2471
  516MOL0     C69546   9.051  10.496   3.807 -0.9800  0.4699 -0.4011
  516MOL0     C69547   8.968  10.436   3.692 -0.1320 -0.4493  0.4824
  516MOL0     C69548   9.057  10.383   3.574  0.5594 -1.0574 -0.1509
  516MOL0     O69549   9.170  10.311   3.601 -0.9480  0.3976 -0.5550
  516MOL0     C69550   9.155  10.188   3.656  0.0350  0.1399  0.6291
  516MOL0     C69551   9.050  10.105   3.677 -0.7727  0.5681 -0.0009
  516MOL0     C69552   9.057   9.975   3.728  0.2263 -0.3690 -0.5320
  516MOL0     C69553   9.180   9.925   3.769  0.4923  0.1114 -0.0426
  516MOL0     C69554   9.186   9.781   3.811 -0.2270 -0.4609  0.8692
  516MOL0     O69555   9.314   9.720   3.787 -0.4398 -0.1008 -0.4999
  516MOL0     C69556   9.327   9.585   3.788  0.8126 -0.7683  0.6366
  516MOL0     C69557   9.330   9.520   3.910 -0.5280  1.0555 -0.5713
  516MOL0     C69558   9.337   9.376   3.912 -0.5243  0.3892  0.4195
  516MOL0     C69559   9.337   9.307   3.790 -0.1588 -0.5246  0.6369
  516MOL0     O69560   9.350   9.169   3.799 -0.2919  0.1093  0.1469
  516MOL0     C69561   9.395   9.105   3.671 -0.0642 -0.3759 -0.4627
  516MOL0     C69562   9.440   8.967   3.717 -0.3326  0.1233 -0.3396
  516MOL0     C69563   9.339   8.883   3.800  0.8010  0.3200 -0.2236
  516MOL0     C69564   9.414   8.754   3.849  0.3181 -0.6743 -0.0671
  516MOL0     C69565   9.320   8.662   3.933 -0.1169  0.5100  0.2304
  516MOL0     C69566   9.272   8.531   3.870  0.9394 -0.9176 -1.1112
  516MOL0     C69567   9.201   8.438   3.972 -0.9712  0.1876  1.3753
  516MOL0     C69568   9.130   8.493   4.097  0.1366 -0.1398  0.0916
  516MOL0    Cl69569   9.003   8.611   4.034 -0.4807 -0.1616  0.1882
  516MOL0     C69570   9.330   9.372   3.667  0.1431 -0.0122 -0.8126
  516MOL0     C69571   9.324   9.513   3.666 -0.8755  0.2330 -0.0926
  516MOL0     O69572   9.078   9.724   3.845 -0.0687 -0.0367 -0.0824
  516MOL0     C69573   9.296  10.008   3.754  0.3783 -0.4266  0.4531
  516MOL0     C69574   9.285  10.142   3.703  0.6194  0.1057 -0.4704
  516MOL0     N69575   9.118  10.773   3.572  0.4411 -0.3922  0.7557
  516MOL0     N69576   9.190  10.760   3.472  0.0555 -0.5465 -0.5405
  516MOL0     C69577   9.741   9.542   3.216 -0.5995 -0.6336 -0.5442
  516MOL0     C69578   9.770   9.411   3.269  0.1034 -0.4149  0.6979
  516MOL0     C69579   9.683   9.006   3.448  0.7077 -0.3104  0.2470
  516MOL0     C69580   9.744   9.005   3.577 -0.9199 -0.1354  0.1581
  516MOL0     C69581   9.790   8.887   3.630 -0.2089 -0.8216 -0.1876
  516MOL0     C69582   9.756   8.770   3.574  0.7126  0.6609  0.2504
  516MOL0     O69583   9.784   8.652   3.634  0.2680  0.1268  0.4856
  516MOL0     C69584   9.868   8.646   3.749  0.2201  0.1791 -0.3245
  516MOL0     C69585   9.882   8.505   3.805 -0.0581 -0.1639 -0.1942
  516MOL0     C69586   9.754   8.436   3.853 -0.4592 -0.2189  0.2428
  516MOL0     C69587   9.681   8.518   3.960  0.2013 -0.9786  0.5213
  516MOL0     C69588   9.591   8.440   4.042  0.7740 -0.1005  0.7462
  516MOL0     C69589   9.524   8.365   4.097  0.2487  0.6272  0.4000
  516MOL0     C69590   9.692   8.761   3.448  0.3531  0.5174 -0.2058
  516MOL0     C69591   9.655   8.880   3.384  0.5320 -0.4244  0.6789
  516MOL0     C69592   9.587   8.871   3.251  0.7763 -0.1812  0.4138
  516MOL0     H69593   9.527   9.410   3.506  1.1993 -1.8908 -1.1707
  516MOL0     H69594   9.466   9.621   3.385 -0.6809 -0.9055 -1.5173
  516MOL0     H69595   9.779   9.830   3.241 -1.7632  0.6163  1.6156
  516MOL0     H69596   9.742   9.788   3.082 -0.3039 -1.6503  0.8815
  516MOL0     H69597   9.595   9.970   3.043  3.7598 -2.9949 -1.8620
  516MOL0     H69598   9.728  10.030   3.141  0.4425 -0.0225 -1.1690
  516MOL0     H69599   9.548   9.975   3.346  0.3175  0.3367  1.0438
  516MOL0     H69600   9.434   9.962   3.207  0.4569 -2.7205  1.7538
  516MOL0     H69601   9.625  10.186   3.260 -0.5997  0.6332  0.3151
  516MOL0     H69602   9.513  10.193   3.134 -1.5520  0.8659  0.6957
  516MOL0     H69603   9.326  10.224   3.289 -0.4189 -1.7112  1.1959
  516MOL0     H69604   9.401  10.160   3.418 -2.2708  1.1886  0.0497
  516MOL0     H69605   9.548  10.345   3.442 -1.2929  0.1237  0.0820
  516MOL0     H69606   9.526  10.403   3.273 -5.5335  0.6526 -1.4974
  516MOL0     H69607   9.366  10.417   3.523  1.8372  0.6208  0.6071
  516MOL0     H69608   9.273  10.434   3.371 -0.1017  1.1255 -0.5965
  516MOL0     H69609   9.494  10.635   3.427  1.0096  0.5263 -1.5956
  516MOL0     H69610   9.370  10.646   3.299 -3.5952 -0.3034  0.7980
  516MOL0     H69611   9.334  10.551   3.678  2.6312  0.0395 -0.2631
  516MOL0     H69612   9.164  10.672   3.868  0.8030  2.2683 -0.5910
  516MOL0     H69613   8.999  10.708   3.808 -0.1534 -0.6546 -1.1581
  516MOL0     H69614   9.150  10.452   3.820 -1.6327 -0.4857  1.7186
  516MOL0     H69615   8.988  10.484   3.895 -1.9738  1.7971 -0.8964
  516MOL0     H69616   8.910  10.516   3.646  0.0388 -0.3565  0.4248
  516MOL0     H69617   8.913  10.353   3.736  1.6226 -1.3925  1.0145
  516MOL0     H69618   9.080  10.472   3.515 -0.7840  1.8886  3.4031
  516MOL0     H69619   8.997  10.305   3.526 -1.6886 -0.0069  0.8230
  516MOL0     H69620   8.958  10.155   3.650 -0.4943  0.6123 -0.8848
  516MOL0     H69621   8.963   9.921   3.734  0.8230 -1.4271 -0.4666
  516MOL0     H69622   9.326   9.579   4.001 -1.4028 -0.8228  0.6999
  516MOL0     H69623   9.337   9.316   4.002  1.5804 -1.4246 -0.6979
  516MOL0     H69624   9.308   9.093   3.605 -0.8309  0.8071  0.2992
  516MOL0     H69625   9.479   9.163   3.633 -0.0241 -2.3556 -3.8168
  516MOL0     H69626   9.471   8.907   3.631 -2.4086 -1.3611 -0.1225
  516MOL0     H69627   9.529   8.978   3.781 -1.5210  0.5229  1.3242
  516MOL0     H69628   9.321   8.936   3.893  0.8662  2.6297 -1.4591
  516MOL0     H69629   9.254   8.849   3.741  0.2222 -0.2716  0.9152
  516MOL0     H69630   9.497   8.773   3.919 -0.6344 -3.3623  1.9610
  516MOL0     H69631   9.473   8.715   3.766  1.6170  1.4788 -0.2333
  516MOL0     H69632   9.234   8.724   3.961  0.3978  0.9544  0.8597
  516MOL0     H69633   9.380   8.629   4.018 -0.8503 -2.3505 -0.2422
  516MOL0     H69634   9.221   8.557   3.776  2.3834  0.7696 -1.4910
  516MOL0     H69635   9.366   8.485   3.836  0.8908 -1.4027 -0.5897
  516MOL0     H69636   9.272   8.362   4.006  3.3751  3.2294 -0.0969
  516MOL0     H69637   9.129   8.378   3.915 -0.8657  0.4257  0.9883
  516MOL0     H69638   9.080   8.412   4.149 -3.7476 -0.5401 -3.6920
  516MOL0     H69639   9.205   8.541   4.161  0.2902 -2.0129  1.3628
  516MOL0     H69640   9.326   9.321   3.571 -3.0894  0.2595 -0.9269
  516MOL0     H69641   9.309   9.551   3.566 -2.3872  1.6093  0.6164
  516MOL0     H69642   9.395   9.977   3.786  2.3461  2.9770 -1.7076
  516MOL0     H69643   9.369  10.204   3.676  2.7765 -2.0552  0.8239
  516MOL0     H69644   9.798   9.575   3.130 -1.8695 -1.8958 -1.9151
  516MOL0     H69645   9.844   9.344   3.227  2.0840  2.0489  0.0022
  516MOL0     H69646   9.784   9.100   3.611  1.4956 -0.9962 -0.0830
  516MOL0     H69647   9.845   8.894   3.724 -0.7880  0.6319  0.0679
  516MOL0     H69648   9.824   8.712   3.824  2.6608  0.5234  0.9152
  516MOL0     H69649   9.972   8.667   3.723  0.0920  0.0209 -0.9905
  516MOL0     H69650   9.955   8.507   3.886  1.8487 -0.6096 -1.8043
  516MOL0     H69651   9.932   8.439   3.734 -0.1240 -0.4383  0.0173
  516MOL0     H69652   9.788   8.341   3.894  1.4691  1.0430  1.7257
  516MOL0     H69653   9.698   8.421   3.760 -1.1697  1.8812  0.2680
  516MOL0     H69654   9.755   8.567   4.023  1.3690  0.7815 -2.0194
  516MOL0     H69655   9.619   8.600   3.923  2.2322  1.5034  2.2608
  516MOL0     H69656   9.460   8.296   4.149  2.9545  0.2457  3.5356
  516MOL0     H69657   9.669   8.662   3.409 -1.4799  1.3571 -1.3514
  516MOL0     H69658   9.640   8.909   3.163 -0.0779  2.8363  1.0985
  516MOL0     H69659   9.583   8.767   3.216  1.0279 -0.2996  0.7424
  516MOL0     H69660   9.482   8.902   3.248  1.1632  1.2022  0.6938
  517MOL0     O69661   8.159   8.815   4.398  0.3307 -0.7913 -0.1927
  517MOL0     C69662   8.184   8.814   4.515  0.1409  0.3806 -0.2472
  517MOL0     O69663   8.175   8.917   4.604  0.3413 -0.1017 -0.1600
  517MOL0     C69664   8.159   9.047   4.561  0.2415  0.3343 -0.6616
  517MOL0     C69665   8.062   9.094   4.483 -0.3754 -0.3911 -0.2595
  517MOL0     C69666   8.071   9.226   4.436 -0.1598 -0.5183 -0.7966
  517MOL0     C69667   8.178   9.314   4.488  1.2355  0.4712  0.4942
  517MOL0     O69668   8.185   9.449   4.444 -0.2927 -0.1254 -1.4720
  517MOL0     C69669   8.069   9.479   4.363 -0.0648 -0.1418 -1.5529
  517MOL0     C69670   8.071   9.638   4.349  0.7485 -0.3502  0.4608
  517MOL0     C69671   7.946   9.693   4.277 -0.2110  0.8757  0.0399
  517MOL0     C69672   7.902   9.838   4.328 -0.2040  0.7365 -0.2818
  517MOL0     C69673   7.753   9.875   4.298  0.5794  0.0914  0.1867
  517MOL0     C69674   7.725   9.892   4.147  0.2945 -0.1597  0.5139
  517MOL0     C69675   7.804   9.991   4.071  0.2027 -0.2211  0.2907
  517MOL0     C69676   7.792   9.966   3.920  0.6709 -0.0073  0.1875
  517MOL0     N69677   7.857   9.850   3.862 -0.6575  0.9362 -0.5771
  517MOL0     C69678   7.993   9.842   3.858  0.8399 -0.3705 -0.5670
  517MOL0     C69679   8.022   9.709   3.852 -0.4767 -1.1370  0.4404
  517MOL0     C69680   8.164   9.652   3.847  1.1210 -0.2468 -0.9183
  517MOL0     C69681   8.187   9.586   3.982  0.0313  0.1925 -0.2903
  517MOL0     C69682   8.327   9.536   3.975 -1.0406 -1.2191 -0.2473
  517MOL0     C69683   8.352   9.439   4.097  0.0205 -0.9807 -0.8233
  517MOL0     O69684   8.490   9.387   4.090  0.0566 -0.3712  0.2997
  517MOL0     C69685   8.525   9.281   4.161  0.0977  0.6611 -0.3752
  517MOL0     C69686   8.447   9.234   4.271  0.0280  0.4084  0.0923
  517MOL0     C69687   8.499   9.131   4.345  0.5460  0.4985 -0.4826
  517MOL0     C69688   8.621   9.073   4.316  0.1404  1.0699 -0.2591
  517MOL0     C69689   8.658   8.953   4.395 -0.8434 -0.3774 -0.7555
  517MOL0     O69690   8.594   8.936   4.521  0.2992  0.1549 -0.0589
  517MOL0     C69691   8.633   8.838   4.609 -0.2319  0.4855  0.4311
  517MOL0     C69692   8.768   8.783   4.624  0.7423  0.0565  0.0152
  517MOL0     C69693   8.801   8.681   4.715  0.7826  0.4640 -0.5651
  517MOL0     C69694   8.700   8.625   4.791 -0.0681  0.6197 -0.5974
  517MOL0     O69695   8.743   8.528   4.874 -1.2150 -0.1839 -0.2143
  517MOL0     C69696   8.656   8.415   4.913  0.0313  0.7341 -0.4385
  517MOL0     C69697   8.548   8.454   5.017  0.3007  0.3436 -0.2286
  517MOL0     C69698   8.600   8.508   5.147  0.1256 -0.8239  0.3056
  517MOL0     C69699   8.489   8.480   5.255  0.3202  0.0375  0.5308
  517MOL0     C69700   8.521   8.543   5.394  0.0242  0.0438 -0.8266
  517MOL0     C69701   8.649   8.496   5.444  0.2231  0.2460 -0.8336
  517MOL0     C69702   8.697   8.575   5.564 -0.2679  0.6821 -0.5804
  517MOL0     C69703   8.604   8.622   5.674 -0.3257  0.6715 -0.1409
  517MOL0    Cl69704   8.705   8.710   5.797 -0.1319  0.0840  0.0871
  517MOL0     C69705   8.572   8.680   4.775  0.1524  0.4437  0.1759
  517MOL0     C69706   8.535   8.786   4.690 -0.1351  0.2765 -0.2498
  517MOL0     O69707   8.740   8.874   4.347 -0.3667 -0.1933  0.6933
  517MOL0     C69708   8.693   9.116   4.211  0.2032 -0.3253 -0.6418
  517MOL0     C69709   8.649   9.217   4.131  0.6392 -1.1522 -0.0807
  517MOL0     N69710   7.895   9.646   3.856 -0.2096  0.4224 -0.0602
  517MOL0     N69711   7.800   9.726   3.853 -0.3818 -0.1566 -0.2140
  517MOL0     C69712   8.270   9.263   4.568 -0.7543  0.7725 -0.8706
  517MOL0     C69713   8.267   9.133   4.607  1.3595  0.6873 -0.8768
  517MOL0     C69714   8.226   8.683   4.566  0.1037  0.5870 -0.9593
  517MOL0     C69715   8.178   8.649   4.691  0.0013 -0.2498  0.5559
  517MOL0     C69716   8.210   8.525   4.745 -0.7954  0.2029 -0.2371
  517MOL0     C69717   8.288   8.434   4.676  0.5541  0.3449 -0.4092
  517MOL0     O69718   8.322   8.316   4.741  0.3490 -0.3151  0.2522
  517MOL0     C69719   8.380   8.206   4.663 -0.3135 -0.4909  0.1797
  517MOL0     C69720   8.276   8.115   4.590 -0.4717 -0.7618 -0.3866
  517MOL0     C69721   8.367   8.019   4.503  0.1353  0.0768  0.0336
  517MOL0     C69722   8.428   8.085   4.376 -0.1351  0.3197 -0.0864
  517MOL0     C69723   8.334   8.161   4.288  0.5325 -0.0702 -1.0407
  517MOL0     C69724   8.265   8.228   4.213 -0.4836  0.0828  0.3166
  517MOL0     C69725   8.336   8.471   4.547  0.1432  0.6000  0.1028
  517MOL0     C69726   8.298   8.593   4.488 -0.2325  0.5189 -0.6915
  517MOL0     C69727   8.353   8.627   4.350 -0.3728 -1.1394  0.2236
  517MOL0     H69728   7.975   9.040   4.445 -1.3078  2.1416 -2.0022
  517MOL0     H69729   8.005   9.251   4.354 -1.4250  3.0699  1.1125
  517MOL0     H69730   8.080   9.423   4.270  0.3481 -0.9520 -1.0332
  517MOL0     H69731   7.977   9.446   4.412  0.5612 -0.9218 -0.8693
  517MOL0     H69732   8.164   9.667   4.301  0.2372  0.5471 -0.0183
  517MOL0     H69733   8.077   9.682   4.449  0.5355  0.3941  0.1602
  517MOL0     H69734   7.871   9.617   4.297  1.1370 -0.3384  0.6874
  517MOL0     H69735   7.968   9.689   4.170  2.3236  1.4297  0.4812
  517MOL0     H69736   7.923   9.848   4.435 -1.3151 -0.1766  0.0474
  517MOL0     H69737   7.971   9.903   4.273 -0.6116  1.0386 -0.4434
  517MOL0     H69738   7.689   9.790   4.323  0.0881 -0.5424 -2.8382
  517MOL0     H69739   7.719   9.964   4.351 -1.4276 -0.2650 -0.4102
  517MOL0     H69740   7.751   9.796   4.102 -1.4092 -0.0229 -0.8513
  517MOL0     H69741   7.617   9.906   4.143  0.4611  0.8288 -1.6783
  517MOL0     H69742   7.913   9.980   4.084  0.3341 -1.7820 -1.7077
  517MOL0     H69743   7.769  10.092   4.092 -1.2876 -1.1287  2.4513
  517MOL0     H69744   7.690   9.958   3.881  1.2823 -2.3288 -1.1582
  517MOL0     H69745   7.837  10.048   3.862  4.2559 -3.4533 -2.5436
  517MOL0     H69746   8.062   9.923   3.878  0.6522 -0.4739  0.5118
  517MOL0     H69747   8.167   9.581   3.763  1.8386 -2.5259  0.9170
  517MOL0     H69748   8.239   9.727   3.821  0.3131 -0.4857 -4.4175
  517MOL0     H69749   8.172   9.668   4.054  1.2347 -2.0294  2.7214
  517MOL0     H69750   8.116   9.508   4.010 -0.3466  1.0834  1.4081
  517MOL0     H69751   8.387   9.627   3.978 -5.2872  2.0281 -2.2591
  517MOL0     H69752   8.336   9.484   3.880 -1.1998  0.7650 -1.4028
  517MOL0     H69753   8.289   9.350   4.100  0.0209 -1.0008 -1.3514
  517MOL0     H69754   8.334   9.487   4.194 -0.0236 -3.0197  0.2580
  517MOL0     H69755   8.364   9.296   4.300  1.3427  2.7196 -0.8447
  517MOL0     H69756   8.441   9.086   4.425  1.6777  1.9629  1.2292
  517MOL0     H69757   8.850   8.809   4.557 -0.9233 -0.2921 -2.2531
  517MOL0     H69758   8.903   8.645   4.720  0.4001 -0.5204  1.5034
  517MOL0     H69759   8.610   8.382   4.819  0.1081 -1.5511  0.2785
  517MOL0     H69760   8.706   8.324   4.947  3.5466  2.3296 -0.9045
  517MOL0     H69761   8.467   8.519   4.983 -0.1796  1.3676  2.6173
  517MOL0     H69762   8.495   8.359   5.032 -3.3274  1.7795 -2.4029
  517MOL0     H69763   8.692   8.454   5.171  0.6238 -2.0496 -3.5758
  517MOL0     H69764   8.626   8.614   5.144 -0.0664 -0.7204  1.8008
  517MOL0     H69765   8.497   8.372   5.271 -0.5439  0.1047  1.5554
  517MOL0     H69766   8.388   8.495   5.216 -1.4950 -2.2833  3.8106
  517MOL0     H69767   8.436   8.528   5.460  1.6751 -1.3548  1.1216
  517MOL0     H69768   8.527   8.651   5.384 -0.6667  0.2120  0.4268
  517MOL0     H69769   8.640   8.391   5.474  0.3327  0.5529  0.3441
  517MOL0     H69770   8.732   8.498   5.372  2.0977  0.6026  1.2070
  517MOL0     H69771   8.763   8.657   5.537  2.3268 -1.9540 -2.9442
  517MOL0     H69772   8.773   8.513   5.611  0.8834  1.6566 -1.0917
  517MOL0     H69773   8.518   8.682   5.644 -0.9489 -0.3031 -0.3737
  517MOL0     H69774   8.556   8.533   5.717 -4.2426  0.1175 -4.8400
  517MOL0     H69775   8.489   8.644   4.834  0.7799 -2.4144 -0.5184
  517MOL0     H69776   8.438   8.836   4.687  0.0852  0.7370 -3.3482
  517MOL0     H69777   8.793   9.091   4.178 -1.1759 -3.1603 -3.1145
  517MOL0     H69778   8.712   9.239   4.045  0.1944 -1.5302 -0.5152
  517MOL0     H69779   8.342   9.325   4.619  0.8915 -2.2166  0.7494
  517MOL0     H69780   8.321   9.092   4.691  0.3445  0.7977 -0.1505
  517MOL0     H69781   8.107   8.715   4.739  0.3282 -0.9567  2.0702
  517MOL0     H69782   8.173   8.501   4.844 -0.1979  2.1744  0.4992
  517MOL0     H69783   8.442   8.138   4.723 -0.7777 -2.1777 -1.1939
  517MOL0     H69784   8.452   8.252   4.594 -1.3507 -0.4104 -0.8835
  517MOL0     H69785   8.204   8.164   4.524  0.4241  0.5109 -0.4678
  517MOL0     H69786   8.216   8.061   4.663 -1.6403 -2.1389 -2.2771
  517MOL0     H69787   8.309   7.935   4.466  1.1197 -0.7661  0.3650
  517MOL0     H69788   8.436   7.983   4.579  0.9641  3.5018  1.0871
  517MOL0     H69789   8.513   8.144   4.412  1.7805 -2.8642  1.0290
  517MOL0     H69790   8.465   8.001   4.317 -0.3541  0.3123 -0.2124
  517MOL0     H69791   8.196   8.286   4.155 -0.0213  2.2376  1.8147
  517MOL0     H69792   8.401   8.406   4.489  2.5869  2.3379  0.7103
  517MOL0     H69793   8.284   8.615   4.266  0.2008  5.0945 -1.7044
  517MOL0     H69794   8.398   8.727   4.350 -0.6265 -1.0164  0.8801
  517MOL0     H69795   8.442   8.571   4.318  0.3751  1.9821 -4.0624
  518MOL0     O69796   2.075   5.915   1.392 -0.0204  0.3793 -1.0817
  518MOL0     C69797   2.157   5.831   1.348  0.1060 -0.2375 -0.4243
  518MOL0     O69798   2.190   5.710   1.411  0.5220  0.3051 -0.2647
  518MOL0     C69799   2.086   5.656   1.493 -0.5165  0.7585 -0.7613
  518MOL0     C69800   2.080   5.680   1.633 -0.1873  0.7325 -0.3545
  518MOL0     C69801   1.988   5.623   1.722  0.7775  0.1678 -0.5393
  518MOL0     C69802   1.896   5.525   1.670  0.0789 -0.2307  0.6212
  518MOL0     O69803   1.810   5.442   1.728 -0.8779 -0.4241  0.1596
  518MOL0     C69804   1.810   5.434   1.880 -0.3578 -0.5151  0.7077
  518MOL0     C69805   1.709   5.331   1.932 -0.0530 -0.6462  0.6687
  518MOL0     C69806   1.584   5.396   1.991  0.0523  0.7226 -0.6033
  518MOL0     C69807   1.467   5.364   1.897  0.4237 -1.2916  0.3862
  518MOL0     C69808   1.457   5.479   1.784 -0.1816  0.1498 -0.5980
  518MOL0     C69809   1.365   5.459   1.663  0.4778 -0.5383  0.7272
  518MOL0     C69810   1.415   5.370   1.546 -0.8540  0.5299 -1.1646
  518MOL0     C69811   1.421   5.219   1.571 -0.1060 -2.0221 -0.6146
  518MOL0     N69812   1.444   5.147   1.442  0.2194 -0.2786  0.2702
  518MOL0     C69813   1.522   5.187   1.339 -0.7827  1.1723  0.7766
  518MOL0     C69814   1.481   5.103   1.236  1.0278  0.5128 -0.2591
  518MOL0     C69815   1.528   5.096   1.090  0.2705 -0.1160  1.0129
  518MOL0     C69816   1.658   5.016   1.067  0.2862 -0.7958  0.1260
  518MOL0     C69817   1.609   4.882   1.011  0.5253 -0.6417  0.5950
  518MOL0     C69818   1.728   4.787   0.969  1.7327 -0.2045 -0.9500
  518MOL0     O69819   1.821   4.860   0.896  0.6281 -0.0550 -0.1922
  518MOL0     C69820   1.826   4.838   0.763 -0.7656 -0.0257 -0.1798
  518MOL0     C69821   1.723   4.774   0.690 -0.0578  0.3314 -0.5614
  518MOL0     C69822   1.726   4.777   0.549  1.3393 -0.2051  0.4484
  518MOL0     C69823   1.842   4.833   0.488  0.3124 -0.3240  0.9798
  518MOL0     C69824   1.857   4.833   0.333 -0.1407 -0.1353 -0.8991
  518MOL0     O69825   1.983   4.848   0.275 -0.2053 -0.0431 -0.9131
  518MOL0     C69826   1.980   4.826   0.142 -1.1446  0.1949 -0.4443
  518MOL0     C69827   1.987   4.700   0.084 -0.1747 -0.2169  0.7883
  518MOL0     C69828   1.972   4.695  -0.057 -0.5356  0.7011  0.9319
  518MOL0     C69829   1.957   4.814  -0.128  0.3807 -0.7732  0.7509
  518MOL0     O69830   1.936   4.817  -0.262  0.8005  0.8193 -0.4481
  518MOL0     C69831   1.957   4.696  -0.338 -0.7454 -0.2074 -0.0607
  518MOL0     C69832   1.827   4.619  -0.352 -0.0512  1.1543 -0.3393
  518MOL0     C69833   1.855   4.494  -0.435  0.3401  0.2126  0.4079
  518MOL0     C69834   1.873   4.522  -0.581  0.6255  0.0036  0.3404
  518MOL0     C69835   1.946   4.407  -0.644  0.0545  0.2008  0.7362
  518MOL0     C69836   1.831   4.317  -0.694 -0.3637  0.1738  0.3715
  518MOL0     C69837   1.882   4.189  -0.763  0.2532 -0.0575  0.7576
  518MOL0     C69838   1.832   4.060  -0.686 -0.6141  0.2762 -0.6453
  518MOL0    Cl69839   1.653   4.054  -0.680 -0.6853  0.1964 -0.1027
  518MOL0     C69840   1.949   4.937  -0.062 -0.1114 -0.7825 -0.1525
  518MOL0     C69841   1.963   4.941   0.073 -0.4023 -0.0276 -0.9534
  518MOL0     O69842   1.751   4.806   0.274 -0.7443  0.4818 -0.4078
  518MOL0     C69843   1.949   4.879   0.560 -0.4230 -1.1083 -0.5272
  518MOL0     C69844   1.934   4.901   0.698  0.8893  0.6233 -0.5353
  518MOL0     N69845   1.372   5.027   1.278  0.6153 -1.7126 -0.2327
  518MOL0     N69846   1.343   5.068   1.396  0.3170  0.2579  1.1377
  518MOL0     C69847   1.892   5.505   1.525 -0.3849  0.6079 -1.4325
  518MOL0     C69848   1.990   5.556   1.441  0.6629 -0.4479  0.0556
  518MOL0     C69849   2.206   5.832   1.208  0.3930 -0.7889  0.4280
  518MOL0     C69850   2.328   5.756   1.187  0.0641  1.4105  0.8150
  518MOL0     C69851   2.391   5.749   1.061 -0.9296  0.1722 -0.2653
  518MOL0     C69852   2.343   5.809   0.952 -0.7077  0.6775  0.7799
  518MOL0     O69853   2.414   5.831   0.840  0.1595  0.2152  0.5362
  518MOL0     C69854   2.529   5.745   0.813  0.4177 -0.3128 -0.1158
  518MOL0     C69855   2.569   5.746   0.664 -0.7870  0.5708  0.5325
  518MOL0     C69856   2.460   5.682   0.581  0.2090  0.3735 -0.7952
  518MOL0     C69857   2.518   5.657   0.439 -0.5558 -0.6803  0.6595
  518MOL0     C69858   2.409   5.662   0.338 -0.5464  1.1768  0.2879
  518MOL0     C69859   2.328   5.647   0.245  0.7339 -1.0885  1.4144
  518MOL0     C69860   2.233   5.882   0.969  0.6988 -0.6538  0.6265
  518MOL0     C69861   2.166   5.911   1.095 -0.6023  0.0339 -0.7970
  518MOL0     C69862   2.056   6.010   1.104  1.0025  0.1997  0.2883
  518MOL0     H69863   2.155   5.746   1.675  3.5282 -3.4431  0.2527
  518MOL0     H69864   1.984   5.663   1.822  2.5916 -0.8881 -0.0037
  518MOL0     H69865   1.911   5.414   1.919 -1.1807 -3.3669  1.6966
  518MOL0     H69866   1.777   5.532   1.915  0.4753 -0.4955  1.4798
  518MOL0     H69867   1.762   5.280   2.013  2.8854  1.6608  0.4014
  518MOL0     H69868   1.686   5.253   1.859  3.2575 -3.1706  2.0531
  518MOL0     H69869   1.586   5.503   2.012  1.5492  0.9610 -1.7723
  518MOL0     H69870   1.570   5.353   2.091  0.4039  0.5761 -0.6144
  518MOL0     H69871   1.461   5.260   1.866 -2.7279 -1.3608  0.8814
  518MOL0     H69872   1.373   5.381   1.950  1.4330  2.1021  1.3223
  518MOL0     H69873   1.437   5.573   1.837  1.8682 -0.0425  0.6272
  518MOL0     H69874   1.559   5.483   1.747  0.3939 -1.3085  0.7116
  518MOL0     H69875   1.271   5.412   1.693  1.1217 -1.4269  1.4297
  518MOL0     H69876   1.345   5.559   1.625  2.7695 -0.8873 -1.6838
  518MOL0     H69877   1.517   5.396   1.517 -0.4393  0.8900  0.4970
  518MOL0     H69878   1.357   5.381   1.453 -0.4110 -0.9126 -1.6373
  518MOL0     H69879   1.508   5.206   1.637  1.8118  0.6815 -2.3733
  518MOL0     H69880   1.340   5.171   1.627  0.8152 -2.2668  0.5619
  518MOL0     H69881   1.607   5.254   1.342 -1.1134  1.6092  0.4274
  518MOL0     H69882   1.444   5.069   1.026  0.1295  2.4039  0.0216
  518MOL0     H69883   1.559   5.200   1.078 -2.4619  0.4672 -2.5972
  518MOL0     H69884   1.723   5.078   1.006  0.0115  0.4687  1.0856
  518MOL0     H69885   1.708   4.997   1.163  2.5482 -1.0672 -1.0408
  518MOL0     H69886   1.543   4.898   0.925  0.4553  2.5247  1.1092
  518MOL0     H69887   1.550   4.827   1.085 -2.0213  3.7597  2.1928
  518MOL0     H69888   1.700   4.690   0.926  2.3731  0.6641 -3.5596
  518MOL0     H69889   1.777   4.756   1.061 -0.0825 -0.7654 -0.1323
  518MOL0     H69890   1.630   4.724   0.714  0.0005 -0.5878 -2.1040
  518MOL0     H69891   1.648   4.729   0.490  3.4113 -0.5533 -2.2305
  518MOL0     H69892   1.990   4.607   0.140 -2.6118  0.0155  1.4107
  518MOL0     H69893   1.958   4.599  -0.106  0.6122  0.7207  0.5309
  518MOL0     H69894   2.005   4.727  -0.430 -0.6123 -2.3748 -0.7713
  518MOL0     H69895   2.032   4.634  -0.289 -1.0051 -0.8150 -0.4164
  518MOL0     H69896   1.793   4.592  -0.252  3.2992  2.2790  1.2510
  518MOL0     H69897   1.742   4.675  -0.393 -4.3017 -2.2134  2.9320
  518MOL0     H69898   1.950   4.456  -0.398  2.0578  1.6439 -2.2210
  518MOL0     H69899   1.771   4.425  -0.425 -0.2620  1.0899  1.7604
  518MOL0     H69900   1.947   4.602  -0.593  1.7054 -0.8301  1.1925
  518MOL0     H69901   1.778   4.544  -0.631  1.3517 -1.4058 -1.7737
  518MOL0     H69902   2.005   4.353  -0.569  0.7598  1.4653  1.1124
  518MOL0     H69903   2.016   4.438  -0.722 -1.0441 -2.6862 -1.5814
  518MOL0     H69904   1.776   4.291  -0.602  0.6671 -1.2351  0.6189
  518MOL0     H69905   1.773   4.380  -0.762  1.1443  0.8371 -0.3286
  518MOL0     H69906   1.991   4.180  -0.769  0.0230 -2.0339 -2.3345
  518MOL0     H69907   1.836   4.182  -0.861  1.1747 -0.6153  0.3567
  518MOL0     H69908   1.884   3.975  -0.732  2.0173  1.8559 -0.7723
  518MOL0     H69909   1.867   4.070  -0.583 -0.5228  0.0052 -0.6506
  518MOL0     H69910   1.941   5.031  -0.116  1.0409  0.0262  1.0496
  518MOL0     H69911   1.947   5.028   0.136  1.1115 -0.4481  0.0426
  518MOL0     H69912   2.033   4.921   0.506 -1.6599  1.9835 -0.2340
  518MOL0     H69913   2.009   4.968   0.738 -0.5680  3.6431 -2.4941
  518MOL0     H69914   1.819   5.432   1.493 -4.0123  1.6813  3.2640
  518MOL0     H69915   1.990   5.523   1.338 -2.6222 -3.0344  0.7191
  518MOL0     H69916   2.386   5.721   1.272 -1.5232  2.2863  2.3347
  518MOL0     H69917   2.479   5.685   1.065 -1.2207 -0.2220 -0.1481
  518MOL0     H69918   2.498   5.642   0.836 -3.4758  0.2981 -1.8011
  518MOL0     H69919   2.613   5.780   0.874 -0.9523  0.5504  1.3685
  518MOL0     H69920   2.662   5.689   0.655 -1.6507 -0.6795 -0.9017
  518MOL0     H69921   2.601   5.847   0.639  1.1657  0.4861  2.3529
  518MOL0     H69922   2.381   5.758   0.578  0.8710  1.0553 -1.0529
  518MOL0     H69923   2.412   5.594   0.625  0.0457  0.7507 -0.1987
  518MOL0     H69924   2.577   5.748   0.423  1.1577 -2.0644 -1.3594
  518MOL0     H69925   2.585   5.571   0.435  0.6972  0.2020  1.6123
  518MOL0     H69926   2.262   5.641   0.161 -0.8608 -1.6848  2.6700
  518MOL0     H69927   2.204   5.923   0.873  1.0664 -0.5416  0.5641
  518MOL0     H69928   1.977   5.972   1.169  2.4584 -0.9189  1.4795
  518MOL0     H69929   2.089   6.107   1.142  1.1232 -0.4050  1.8188
  518MOL0     H69930   2.009   6.008   1.005 -0.7010 -2.8277  1.0397
  519MOL0     O69931   5.014   2.820   6.370  0.3633 -0.2362 -0.2534
  519MOL0     C69932   5.032   2.903   6.456  0.4715  0.0278  0.2169
  519MOL0     O69933   4.949   2.909   6.568  0.2317  0.4424 -0.0849
  519MOL0     C69934   4.866   2.801   6.601 -0.7910 -1.0517  0.1124
  519MOL0     C69935   4.886   2.720   6.714 -0.2513 -0.9757  0.1445
  519MOL0     C69936   4.801   2.610   6.738 -0.3642  0.2880 -0.9673
  519MOL0     C69937   4.692   2.579   6.656 -0.5412  0.6635 -0.2738
  519MOL0     O69938   4.606   2.474   6.690 -0.3696 -0.8311 -0.1013
  519MOL0     C69939   4.489   2.453   6.606 -0.2767  0.7817  0.4350
  519MOL0     C69940   4.379   2.374   6.677 -0.0647 -0.3604  0.6641
  519MOL0     C69941   4.446   2.267   6.757 -0.7510 -0.5556  0.1347
  519MOL0     C69942   4.360   2.141   6.787  0.1153  0.6256 -0.4662
  519MOL0     C69943   4.390   2.067   6.929 -0.4320 -0.9184 -0.5901
  519MOL0     C69944   4.487   1.950   6.921  0.7389  0.5263 -0.4094
  519MOL0     C69945   4.509   1.879   7.061  0.8729  0.3409  0.7437
  519MOL0     C69946   4.579   1.743   7.061 -0.0001 -0.5816  0.4918
  519MOL0     N69947   4.486   1.633   7.033  0.1545  0.3628 -0.3700
  519MOL0     C69948   4.419   1.614   6.914  0.7571 -1.2512 -0.5893
  519MOL0     C69949   4.379   1.490   6.933  0.9247  0.2746  0.1819
  519MOL0     C69950   4.310   1.409   6.831 -0.8905  0.3266  0.2024
  519MOL0     C69951   4.171   1.459   6.804 -0.0324 -0.7555  0.7233
  519MOL0     C69952   4.081   1.352   6.745  0.0904 -0.5262 -0.8511
  519MOL0     C69953   4.028   1.245   6.844  0.0052  0.5168 -0.2223
  519MOL0     O69954   3.929   1.175   6.770  0.8546  0.1990  0.1720
  519MOL0     C69955   3.796   1.219   6.778  0.7647 -0.3249 -0.2149
  519MOL0     C69956   3.698   1.129   6.737  0.4382  0.6794 -0.5338
  519MOL0     C69957   3.564   1.161   6.748  1.1072  0.2320  0.3548
  519MOL0     C69958   3.518   1.290   6.790  0.0635 -0.0096  0.1984
  519MOL0     C69959   3.380   1.333   6.808 -0.1770 -0.3950 -1.0716
  519MOL0     O69960   3.290   1.228   6.786  0.3924 -0.8071 -0.4015
  519MOL0     C69961   3.166   1.254   6.741  0.1837 -0.0024 -0.7346
  519MOL0     C69962   3.066   1.182   6.794 -0.0414  0.5062  0.8878
  519MOL0     C69963   2.937   1.198   6.757  0.8542  0.4611 -0.0978
  519MOL0     C69964   2.905   1.266   6.635 -0.4162 -0.1103 -0.2724
  519MOL0     O69965   2.776   1.290   6.590  0.1539  0.0791  0.2367
  519MOL0     C69966   2.720   1.176   6.527 -0.5812  0.5092 -0.2912
  519MOL0     C69967   2.676   1.218   6.381 -0.0634  0.9719 -0.6878
  519MOL0     C69968   2.614   1.101   6.295  0.3838 -0.4010  0.4538
  519MOL0     C69969   2.477   1.066   6.351  0.2328  0.9155  0.1604
  519MOL0     C69970   2.416   0.970   6.252  0.0276 -0.0056  0.6907
  519MOL0     C69971   2.293   0.892   6.296  0.3611  0.0834 -0.6466
  519MOL0     C69972   2.235   0.793   6.194  0.4364 -1.2717  0.0217
  519MOL0     C69973   2.112   0.850   6.131  0.3952 -0.7505  1.5467
  519MOL0    Cl69974   2.037   0.755   5.997  0.0658 -0.6677  0.0594
  519MOL0     C69975   3.013   1.331   6.568 -0.6355 -1.3830 -0.3196
  519MOL0     C69976   3.138   1.332   6.627 -0.2359 -0.2828 -0.1305
  519MOL0     O69977   3.350   1.449   6.815  0.2085  0.2210 -0.9413
  519MOL0     C69978   3.624   1.380   6.815  0.7860 -0.1380 -0.1032
  519MOL0     C69979   3.758   1.344   6.816  0.1817 -0.0432 -1.0016
  519MOL0     N69980   4.419   1.438   7.055  0.2981 -0.7145  0.4754
  519MOL0     N69981   4.479   1.525   7.124 -0.0233  0.3559  0.2349
  519MOL0     C69982   4.677   2.672   6.546  0.0252  0.2111  0.5616
  519MOL0     C69983   4.762   2.776   6.515 -0.7773  0.9487  0.0541
  519MOL0     C69984   5.159   2.975   6.439  0.2492 -0.1802 -0.6373
  519MOL0     C69985   5.236   2.961   6.324  0.0141  1.2731  1.1016
  519MOL0     C69986   5.366   3.002   6.307  0.1203 -0.3125  0.3539
  519MOL0     C69987   5.423   3.065   6.410  1.2731 -0.4709  0.9756
  519MOL0     O69988   5.553   3.097   6.383 -0.7226  0.4560  0.2324
  519MOL0     C69989   5.633   3.154   6.482  0.0846 -0.5602  0.2499
  519MOL0     C69990   5.759   3.201   6.405 -0.9967  0.0383 -0.3612
  519MOL0     C69991   5.868   3.091   6.405  0.0731  0.1823 -0.0556
  519MOL0     C69992   5.932   3.060   6.545 -0.8656 -0.8949 -0.4571
  519MOL0     C69993   5.996   3.170   6.620  0.9925  0.7569 -0.4534
  519MOL0     C69994   6.025   3.266   6.681  0.4699 -0.0241 -0.0139
  519MOL0     C69995   5.351   3.096   6.527  0.0636  0.4163 -0.2777
  519MOL0     C69996   5.216   3.062   6.542  0.1639  1.3038  0.4773
  519MOL0     C69997   5.144   3.097   6.673 -1.1910  0.4265 -0.6578
  519MOL0     H69998   4.960   2.746   6.788 -1.0544  1.1346  0.2689
  519MOL0     H69999   4.817   2.545   6.823  4.9957  0.3601 -1.5661
  519MOL0     H70000   4.451   2.554   6.585  1.7741  1.0209 -2.7693
  519MOL0     H70001   4.511   2.412   6.507 -0.0077  0.4984  0.6102
  519MOL0     H70002   4.321   2.329   6.597 -0.8064  1.2426  0.2566
  519MOL0     H70003   4.305   2.431   6.735  2.3155  1.0772  2.5156
  519MOL0     H70004   4.474   2.317   6.850 -0.7518  1.5277 -0.9302
  519MOL0     H70005   4.532   2.214   6.714 -0.9350  0.5451 -1.6905
  519MOL0     H70006   4.254   2.167   6.780 -0.4495 -1.8174 -2.6669
  519MOL0     H70007   4.386   2.071   6.707 -0.6585 -1.6461  1.1738
  519MOL0     H70008   4.446   2.139   6.990 -1.3036 -0.3898 -0.3963
  519MOL0     H70009   4.300   2.035   6.981  0.6062 -4.1207 -0.5224
  519MOL0     H70010   4.451   1.879   6.845 -1.0375  0.6373  0.2667
  519MOL0     H70011   4.578   1.995   6.880 -0.5694  2.2495 -1.5870
  519MOL0     H70012   4.415   1.871   7.116  0.9709  0.6381  0.9586
  519MOL0     H70013   4.558   1.948   7.132 -1.6326  1.6411  1.3305
  519MOL0     H70014   4.659   1.731   6.987 -1.5264 -2.2113 -0.9850
  519MOL0     H70015   4.628   1.734   7.159  3.2271  3.1140 -0.5183
  519MOL0     H70016   4.409   1.677   6.825 -2.6774 -2.9947 -1.5895
  519MOL0     H70017   4.369   1.394   6.740 -1.8387  0.1567 -0.3986
  519MOL0     H70018   4.300   1.310   6.875  0.3864  0.4517  0.8268
  519MOL0     H70019   4.137   1.499   6.900  4.7030  2.9590  1.2410
  519MOL0     H70020   4.183   1.534   6.725  2.0646 -3.4536 -1.7509
  519MOL0     H70021   4.141   1.301   6.669 -1.6622 -1.9578 -1.3461
  519MOL0     H70022   4.000   1.406   6.695  0.3139  0.6190 -0.0069
  519MOL0     H70023   4.012   1.290   6.942  1.3656 -0.5573  0.5236
  519MOL0     H70024   4.101   1.173   6.882 -0.7081 -0.2345 -0.2447
  519MOL0     H70025   3.745   1.046   6.685  0.5014  2.6687 -3.8887
  519MOL0     H70026   3.490   1.083   6.734  1.8219 -0.5165  0.6938
  519MOL0     H70027   3.076   1.127   6.888 -3.5772 -1.2790  0.3960
  519MOL0     H70028   2.861   1.145   6.813  0.2730  1.1019 -0.2658
  519MOL0     H70029   2.786   1.089   6.519 -0.4270  0.6015 -0.0496
  519MOL0     H70030   2.627   1.151   6.578 -1.5565  4.4629  0.2028
  519MOL0     H70031   2.616   1.309   6.389  0.7694  1.4606  0.4098
  519MOL0     H70032   2.770   1.238   6.328  1.5275 -2.8099  0.3809
  519MOL0     H70033   2.598   1.144   6.196 -3.9630 -0.6206  0.8598
  519MOL0     H70034   2.673   1.010   6.288  0.8064 -0.2997  2.1967
  519MOL0     H70035   2.418   1.156   6.373 -2.3822 -0.9825  1.5672
  519MOL0     H70036   2.496   1.019   6.448 -1.8221 -1.2373 -0.3913
  519MOL0     H70037   2.491   0.893   6.237 -0.2209  0.1869 -2.0754
  519MOL0     H70038   2.385   1.007   6.153  0.4453  0.9447  0.9045
  519MOL0     H70039   2.321   0.827   6.379  0.8471  2.2510  0.9487
  519MOL0     H70040   2.226   0.967   6.339  0.5588 -1.0823  1.8236
  519MOL0     H70041   2.216   0.697   6.244  1.0998 -1.1232  0.5807
  519MOL0     H70042   2.311   0.781   6.116  0.4086  2.1588 -0.6788
  519MOL0     H70043   2.039   0.876   6.209  2.5582 -1.5427  3.9790
  519MOL0     H70044   2.130   0.944   6.077 -2.4912 -0.6638  0.5625
  519MOL0     H70045   2.998   1.383   6.473 -0.1088  1.1352  0.8851
  519MOL0     H70046   3.222   1.387   6.584 -0.8057  1.8167  1.2791
  519MOL0     H70047   3.611   1.485   6.838  3.0246  0.6915 -2.1324
  519MOL0     H70048   3.840   1.411   6.839  1.2257 -0.4199 -3.2735
  519MOL0     H70049   4.588   2.659   6.485  0.2745  0.2194  0.1951
  519MOL0     H70050   4.741   2.846   6.435 -0.4210  0.8196 -0.1520
  519MOL0     H70051   5.212   2.890   6.246 -0.8292 -0.1304  2.5883
  519MOL0     H70052   5.414   2.968   6.216 -3.4477 -1.4645 -1.2640
  519MOL0     H70053   5.658   3.094   6.570 -1.5390  0.5267  1.5058
  519MOL0     H70054   5.581   3.246   6.509 -0.1101 -0.1230 -1.5302
  519MOL0     H70055   5.810   3.285   6.452 -3.3572  0.9400  0.7690
  519MOL0     H70056   5.725   3.233   6.306 -4.7302 -1.8345  0.1422
  519MOL0     H70057   5.948   3.123   6.338 -0.6657 -0.5973 -1.3409
  519MOL0     H70058   5.839   2.992   6.369  0.7653 -0.4199  0.9700
  519MOL0     H70059   5.867   3.005   6.613  1.5566  0.0417  2.9230
  519MOL0     H70060   6.015   2.991   6.526 -0.2225 -0.8913  1.9730
  519MOL0     H70061   6.030   3.358   6.736  1.8144  0.3669 -0.7427
  519MOL0     H70062   5.392   3.151   6.611  1.0316 -1.2275  0.3666
  519MOL0     H70063   5.106   3.013   6.733  1.6050  0.0731  0.7480
  519MOL0     H70064   5.199   3.170   6.732 -0.2071 -1.2741  0.6088
  519MOL0     H70065   5.054   3.148   6.636 -1.2562  1.8460  1.3258
  520MOL0     O70066  10.060   4.347   2.751 -0.7485  0.0203 -0.4200
  520MOL0     C70067  10.170   4.299   2.791 -0.0077  0.9153 -0.0381
  520MOL0     O70068  10.198   4.163   2.788  0.3268  0.9514  0.2341
  520MOL0     C70069  10.108   4.078   2.728 -0.7750  0.8537  0.0510
  520MOL0     C70070  10.045   3.993   2.817 -0.0943 -0.6225 -0.6660
  520MOL0     C70071   9.955   3.896   2.770  0.1186  0.3888  0.7912
  520MOL0     C70072   9.948   3.880   2.628  1.3532  0.1004 -0.4088
  520MOL0     O70073   9.870   3.787   2.559 -0.0929 -0.0624 -0.0835
  520MOL0     C70074   9.800   3.683   2.629 -0.0779 -0.1806  0.1950
  520MOL0     C70075   9.694   3.631   2.531  0.2740 -0.1745  0.6963
  520MOL0     C70076   9.635   3.496   2.588  0.1427  0.4938  0.6826
  520MOL0     C70077   9.531   3.520   2.684 -0.5179 -0.4369  0.1832
  520MOL0     C70078   9.459   3.381   2.723  0.2254  0.3052  0.1903
  520MOL0     C70079   9.379   3.391   2.850  0.2977  0.6044  0.1928
  520MOL0     C70080   9.300   3.267   2.882 -0.5153  0.3913  1.0306
  520MOL0     C70081   9.216   3.278   3.006  0.7250 -0.3091  0.7862
  520MOL0     N70082   9.146   3.158   3.049 -0.2803  0.7412 -0.0338
  520MOL0     C70083   9.134   3.036   2.983 -0.1764  0.4613  0.0910
  520MOL0     C70084   9.060   2.957   3.074 -0.2765  0.3349 -0.0527
  520MOL0     C70085   9.009   2.821   3.043  0.0998  0.2055  0.8733
  520MOL0     C70086   9.127   2.721   3.055  0.3195 -0.2431  0.1695
  520MOL0     C70087   9.083   2.581   3.016  0.0205  0.6907  0.3605
  520MOL0     C70088   8.996   2.507   3.114  1.0127  0.2965 -0.3742
  520MOL0     O70089   8.988   2.373   3.071  0.1489 -0.3663 -0.0142
  520MOL0     C70090   8.931   2.285   3.156 -0.0470 -0.2996  0.0608
  520MOL0     C70091   8.929   2.149   3.117 -0.6491 -0.3678  0.1607
  520MOL0     C70092   8.875   2.051   3.196  0.0357 -0.4872  0.6520
  520MOL0     C70093   8.820   2.090   3.316 -0.2127 -0.0512 -0.3031
  520MOL0     C70094   8.755   1.985   3.395 -0.2317 -0.4750 -0.4046
  520MOL0     O70095   8.697   2.035   3.509 -0.3014  0.5042  0.0648
  520MOL0     C70096   8.594   1.969   3.571 -0.0120  0.3004  0.9421
  520MOL0     C70097   8.566   1.832   3.568 -0.0794  0.2068 -0.0699
  520MOL0     C70098   8.460   1.771   3.639  0.8202  0.7076 -0.1490
  520MOL0     C70099   8.377   1.852   3.714  0.1741  0.3768  0.2085
  520MOL0     O70100   8.267   1.790   3.767 -0.3298 -0.4904 -0.8261
  520MOL0     C70101   8.143   1.809   3.708  0.2671  0.0238 -0.2092
  520MOL0     C70102   8.024   1.730   3.782 -0.7017 -0.6641 -0.3833
  520MOL0     C70103   7.897   1.769   3.708  0.1722  0.1913  0.3936
  520MOL0     C70104   7.771   1.722   3.783  0.7584  0.3004  0.0509
  520MOL0     C70105   7.651   1.755   3.708  0.6404 -0.2711  0.3194
  520MOL0     C70106   7.525   1.685   3.771  0.1520  0.3341 -0.0507
  520MOL0     C70107   7.402   1.716   3.688  0.7089 -0.1929  0.0922
  520MOL0     C70108   7.269   1.640   3.739  0.4277  0.0994  0.1568
  520MOL0    Cl70109   7.112   1.662   3.648 -0.2869 -0.2408 -0.2426
  520MOL0     C70110   8.399   1.990   3.719 -0.4349 -0.2116  0.3416
  520MOL0     C70111   8.513   2.043   3.652  1.2696  0.0970  0.5826
  520MOL0     O70112   8.760   1.867   3.361  0.1347  0.5025  0.5007
  520MOL0     C70113   8.813   2.228   3.357 -0.0568  0.0726  0.1244
  520MOL0     C70114   8.860   2.325   3.269  0.5137  0.2809 -0.6461
  520MOL0     N70115   9.030   3.028   3.195 -0.2589 -0.0217  0.1380
  520MOL0     N70116   9.087   3.148   3.172  0.1218 -0.3674  0.1953
  520MOL0     C70117  10.015   3.964   2.537  0.0111  0.1151 -0.3918
  520MOL0     C70118  10.102   4.056   2.586  0.0971 -0.4479  0.0085
  520MOL0     C70119  10.274   4.389   2.856 -1.6971  0.1634  0.5727
  520MOL0     C70120  10.393   4.322   2.890 -0.1719  0.2213 -0.9496
  520MOL0     C70121  10.512   4.387   2.933  0.7921 -0.3943  1.4946
  520MOL0     C70122  10.501   4.525   2.954 -0.7717  0.3433 -1.3887
  520MOL0     O70123  10.605   4.607   2.987 -0.3551  0.5352 -0.1341
  520MOL0     C70124  10.738   4.548   3.021 -0.3055  0.8267  0.4058
  520MOL0     C70125  10.731   4.473   3.155  0.4988 -0.2706  0.5733
  520MOL0     C70126  10.719   4.573   3.265 -0.4469 -1.5071 -0.0982
  520MOL0     C70127  10.848   4.635   3.312 -0.5745  0.5278  0.6200
  520MOL0     C70128  10.912   4.551   3.409 -0.5218 -0.7800  0.0964
  520MOL0     C70129  10.974   4.479   3.477  0.0081  0.8195 -0.3104
  520MOL0     C70130  10.384   4.597   2.914  0.0128 -0.3459  0.0180
  520MOL0     C70131  10.269   4.532   2.861 -0.4021 -0.7992  0.0013
  520MOL0     C70132  10.146   4.624   2.812 -0.1791  0.4276  0.4413
  520MOL0     H70133  10.054   4.016   2.923 -0.0516 -2.2566 -0.2810
  520MOL0     H70134   9.884   3.847   2.835 -1.4049  2.6557  0.9561
  520MOL0     H70135   9.857   3.601   2.674  2.3556  2.7295  2.8953
  520MOL0     H70136   9.758   3.734   2.717  1.7237 -1.8573  2.1575
  520MOL0     H70137   9.728   3.621   2.428 -1.0025  1.0244  0.1308
  520MOL0     H70138   9.621   3.710   2.514  0.5062 -0.5220 -2.4171
  520MOL0     H70139   9.713   3.431   2.630  2.4087  0.2281 -3.4774
  520MOL0     H70140   9.594   3.440   2.503  0.4474  0.1175  0.7786
  520MOL0     H70141   9.580   3.573   2.766 -1.6748  3.6335 -1.4750
  520MOL0     H70142   9.455   3.587   2.643  0.2142 -1.4111 -3.0745
  520MOL0     H70143   9.399   3.359   2.634 -2.1146  2.4215  1.1426
  520MOL0     H70144   9.534   3.302   2.737  2.5768  2.2572 -0.7027
  520MOL0     H70145   9.451   3.408   2.930  0.4964 -1.3107  0.4641
  520MOL0     H70146   9.310   3.476   2.845 -3.7836 -2.4093  0.9095
  520MOL0     H70147   9.374   3.187   2.894 -1.9871 -1.5423 -1.7693
  520MOL0     H70148   9.230   3.245   2.802  2.1112  0.5628 -1.4879
  520MOL0     H70149   9.273   3.302   3.096 -1.9962 -2.0993  3.1777
  520MOL0     H70150   9.142   3.355   2.981  0.1513 -1.0814  0.0337
  520MOL0     H70151   9.165   2.996   2.887 -1.7324 -2.7292  0.7789
  520MOL0     H70152   8.924   2.794   3.106 -0.2943  1.1098  0.7463
  520MOL0     H70153   8.978   2.823   2.938 -0.1533 -0.7536  0.9220
  520MOL0     H70154   9.200   2.754   2.980  2.7423  2.5082  3.4113
  520MOL0     H70155   9.175   2.710   3.153  0.8521  0.8387  0.0408
  520MOL0     H70156   9.161   2.505   3.006 -2.2232 -2.2523  3.1327
  520MOL0     H70157   9.024   2.583   2.924 -1.1889 -1.0186  1.0446
  520MOL0     H70158   8.895   2.547   3.128 -0.4313 -2.0723 -2.8800
  520MOL0     H70159   9.050   2.501   3.209  1.9160 -3.2230 -0.9578
  520MOL0     H70160   8.985   2.124   3.027 -0.7016 -3.0451  0.7859
  520MOL0     H70161   8.877   1.946   3.169  2.5283 -0.4197  0.3002
  520MOL0     H70162   8.639   1.765   3.522  1.8285  1.0046  1.6756
  520MOL0     H70163   8.450   1.663   3.651 -0.4061  0.4441 -2.7824
  520MOL0     H70164   8.113   1.914   3.717  2.3022  0.5409  1.5307
  520MOL0     H70165   8.161   1.769   3.608 -1.4487 -3.2645  0.6648
  520MOL0     H70166   8.033   1.621   3.775 -1.1263 -0.6597 -1.0162
  520MOL0     H70167   8.027   1.766   3.886  3.1182 -0.3266 -0.4751
  520MOL0     H70168   7.890   1.878   3.706 -1.5831  0.1576  1.7581
  520MOL0     H70169   7.893   1.723   3.609  0.0072 -3.3852  1.9197
  520MOL0     H70170   7.760   1.754   3.887 -0.1454 -0.2071  0.1266
  520MOL0     H70171   7.784   1.613   3.780 -2.5384 -0.1466 -1.8068
  520MOL0     H70172   7.679   1.736   3.604 -1.3477 -4.2459  0.2976
  520MOL0     H70173   7.634   1.862   3.717 -3.4861 -0.8903  2.2255
  520MOL0     H70174   7.535   1.578   3.787 -1.1722  0.2197  0.0936
  520MOL0     H70175   7.525   1.727   3.872  1.1258 -0.5301  0.3284
  520MOL0     H70176   7.432   1.692   3.585  0.6711  3.0710 -0.7801
  520MOL0     H70177   7.377   1.822   3.688  2.3719  0.3263  3.5169
  520MOL0     H70178   7.273   1.531   3.755 -4.7929 -0.3315  0.2647
  520MOL0     H70179   7.249   1.686   3.836  0.6609 -1.5113  1.0046
  520MOL0     H70180   8.336   2.067   3.763 -0.4684  0.4179 -0.7639
  520MOL0     H70181   8.536   2.149   3.659  0.0304  0.5284 -1.0869
  520MOL0     H70182   8.764   2.253   3.450 -0.9828 -3.2845  0.6707
  520MOL0     H70183   8.846   2.425   3.310 -1.0635  0.5295 -1.7359
  520MOL0     H70184  10.029   3.935   2.433 -1.5267  2.2063 -1.2324
  520MOL0     H70185  10.166   4.118   2.525  0.5169  0.7543  1.5975
  520MOL0     H70186  10.390   4.214   2.886 -1.6514  0.2603 -1.2821
  520MOL0     H70187  10.588   4.313   2.952  0.7876 -0.9023 -0.2686
  520MOL0     H70188  10.806   4.633   3.016  3.4763 -2.0234 -1.4244
  520MOL0     H70189  10.762   4.474   2.944 -1.0575  0.2546  0.7077
  520MOL0     H70190  10.825   4.421   3.176  0.5046 -1.0795 -1.2517
  520MOL0     H70191  10.647   4.403   3.153 -0.6433  1.0418  1.0101
  520MOL0     H70192  10.672   4.529   3.353  2.4662 -1.8903  1.4035
  520MOL0     H70193  10.667   4.658   3.221  3.3219  1.5595  0.8609
  520MOL0     H70194  10.916   4.664   3.232 -3.3570  1.0697 -1.7153
  520MOL0     H70195  10.819   4.727   3.362  2.5173  1.8489  0.1917
  520MOL0     H70196  11.036   4.408   3.527 -0.5571 -1.1060 -2.1985
  520MOL0     H70197  10.377   4.704   2.930  0.5932 -0.6384  2.5588
  520MOL0     H70198  10.115   4.582   2.716 -1.2917 -1.8664  1.7208
  520MOL0     H70199  10.055   4.619   2.872 -0.7673 -1.8543 -0.5120
  520MOL0     H70200  10.186   4.723   2.791 -1.6126  1.0204  0.3747
  521MOL0     O70201   6.811   4.645   3.874  0.0389  0.2799  1.1306
  521MOL0     C70202   6.824   4.559   3.959 -0.2721 -0.1457 -0.7361
  521MOL0     O70203   6.866   4.583   4.085 -0.1646 -0.2298 -0.2797
  521MOL0     C70204   6.865   4.712   4.130  0.4868  0.6335  0.2611
  521MOL0     C70205   6.980   4.795   4.116 -0.2910  0.6660 -0.9520
  521MOL0     C70206   7.001   4.919   4.186 -0.4615  0.5320  0.8599
  521MOL0     C70207   6.907   4.963   4.275  0.7583  0.8706 -0.1893
  521MOL0     O70208   6.915   5.064   4.363 -0.4201  0.2807 -0.5368
  521MOL0     C70209   6.974   5.193   4.322  0.7889  0.2709 -0.7621
  521MOL0     C70210   6.909   5.250   4.204 -0.8035  0.4364 -0.3063
  521MOL0     C70211   6.969   5.385   4.170 -0.1082  1.1972 -0.2919
  521MOL0     C70212   6.894   5.500   4.233 -0.9000 -1.6998  0.6098
  521MOL0     C70213   6.987   5.617   4.258 -0.4070  0.5240  0.2329
  521MOL0     C70214   6.899   5.723   4.326 -0.2728  0.4222  0.9309
  521MOL0     C70215   6.979   5.832   4.382 -0.1670  0.2235 -0.1164
  521MOL0     C70216   6.894   5.944   4.431  0.0795  0.5400  1.3923
  521MOL0     N70217   6.799   5.920   4.533  0.7266  0.1382 -0.3158
  521MOL0     C70218   6.707   6.023   4.561  0.1216 -0.3871  0.2704
  521MOL0     C70219   6.661   5.990   4.682 -0.5239  0.1937 -0.7137
  521MOL0     C70220   6.590   6.099   4.753 -0.6676  0.2251 -0.2013
  521MOL0     C70221   6.675   6.217   4.802 -0.3628  0.0033 -0.6177
  521MOL0     C70222   6.618   6.280   4.932 -0.6255  0.1982 -0.4785
  521MOL0     C70223   6.686   6.400   4.977  0.6397  0.7848  0.4916
  521MOL0     O70224   6.665   6.512   4.899  0.1490 -0.0420 -0.1902
  521MOL0     C70225   6.556   6.592   4.926  0.1860 -0.3754  0.1932
  521MOL0     C70226   6.558   6.699   4.839  0.6588 -0.2242  0.1955
  521MOL0     C70227   6.455   6.788   4.839 -0.4364  0.8422 -0.9878
  521MOL0     C70228   6.349   6.759   4.929  0.2933 -0.3274  0.2966
  521MOL0     C70229   6.239   6.860   4.936  0.0160  0.1469  0.0938
  521MOL0     O70230   6.137   6.825   5.022  0.5035 -0.4264  0.1075
  521MOL0     C70231   6.034   6.920   5.027 -0.9475 -0.6981  0.7696
  521MOL0     C70232   6.031   7.057   5.070 -1.3196 -0.0435 -0.2787
  521MOL0     C70233   5.923   7.139   5.053  0.2218  0.2227 -0.6146
  521MOL0     C70234   5.800   7.096   4.999 -0.8090  0.2071 -0.0180
  521MOL0     O70235   5.714   7.200   4.986 -0.6152  0.1394 -0.5519
  521MOL0     C70236   5.572   7.172   4.975  0.1359 -1.7371  0.9107
  521MOL0     C70237   5.502   7.190   5.114 -0.6260  0.2069  0.8708
  521MOL0     C70238   5.491   7.060   5.191  1.2937 -0.5532  0.3512
  521MOL0     C70239   5.351   7.039   5.253  0.0324 -0.1687 -0.0212
  521MOL0     C70240   5.330   6.917   5.339 -0.5626  0.9357  0.0641
  521MOL0     C70241   5.187   6.915   5.395 -1.1048 -0.3526 -0.2260
  521MOL0     C70242   5.162   7.004   5.516  0.4080  0.1855  0.4483
  521MOL0     C70243   5.016   6.980   5.555 -0.2675  0.1340  1.0847
  521MOL0    Cl70244   4.970   6.806   5.599 -0.0580  0.0352 -0.0038
  521MOL0     C70245   5.799   6.963   4.949  0.0369  0.4290  0.2994
  521MOL0     C70246   5.911   6.878   4.968  0.5375 -0.2986  0.0481
  521MOL0     O70247   6.260   6.972   4.892 -0.1577 -0.2760  0.7885
  521MOL0     C70248   6.356   6.659   5.027 -0.1926 -0.2430  0.3442
  521MOL0     C70249   6.470   6.582   5.036 -0.4991 -0.4995  0.0184
  521MOL0     N70250   6.723   5.876   4.733 -0.0723  0.0863 -1.1792
  521MOL0     N70251   6.810   5.838   4.645 -0.0766  0.4474 -0.4131
  521MOL0     C70252   6.791   4.885   4.289 -0.0769 -0.2811  0.2778
  521MOL0     C70253   6.772   4.763   4.220  0.4144 -0.3829  0.6818
  521MOL0     C70254   6.784   4.417   3.941  1.3422 -1.0002 -0.3131
  521MOL0     C70255   6.762   4.326   4.043 -0.7885 -0.6057 -0.2260
  521MOL0     C70256   6.726   4.193   4.027  0.3219  0.0979 -0.0811
  521MOL0     C70257   6.718   4.140   3.899 -0.1243 -0.6179 -0.2828
  521MOL0     O70258   6.686   4.011   3.875  0.2665  0.2450  0.7881
  521MOL0     C70259   6.673   3.907   3.975 -0.3260 -0.5672 -0.5497
  521MOL0     C70260   6.532   3.907   4.038 -0.2285 -0.7873 -0.1224
  521MOL0     C70261   6.432   3.853   3.939  0.8349  0.1202 -0.0803
  521MOL0     C70262   6.291   3.863   3.998  0.2916 -0.2736  0.0396
  521MOL0     C70263   6.266   3.760   4.104 -0.4626  0.8663 -0.1209
  521MOL0     C70264   6.250   3.686   4.192  1.0166  0.8216 -0.8467
  521MOL0     C70265   6.726   4.231   3.786  0.0305  0.9688 -0.0544
  521MOL0     C70266   6.756   4.363   3.807 -0.5936 -0.2647 -0.2268
  521MOL0     C70267   6.768   4.441   3.684 -0.6685 -0.6091 -1.0626
  521MOL0     H70268   7.066   4.751   4.065  0.0946 -0.1553  0.3397
  521MOL0     H70269   7.096   4.970   4.176  0.1958 -0.8267 -0.0455
  521MOL0     H70270   6.965   5.265   4.404 -0.2306  1.4811 -1.8881
  521MOL0     H70271   7.079   5.183   4.293  0.1115  1.3259 -3.9808
  521MOL0     H70272   6.803   5.275   4.206 -0.7335  0.7633 -0.5631
  521MOL0     H70273   6.932   5.187   4.117  2.5012  2.3124 -0.9806
  521MOL0     H70274   6.971   5.404   4.063 -0.4752 -0.2750 -0.5894
  521MOL0     H70275   7.074   5.370   4.198  0.1226 -1.6417 -2.2794
  521MOL0     H70276   6.814   5.539   4.169  0.6453 -1.6264 -1.3781
  521MOL0     H70277   6.841   5.488   4.328 -1.8365  3.3618  1.0234
  521MOL0     H70278   7.077   5.590   4.313 -2.7609 -0.3484  3.9903
  521MOL0     H70279   7.018   5.657   4.160 -0.8463  1.5613  0.5088
  521MOL0     H70280   6.844   5.769   4.243  0.4347  1.7460  1.1748
  521MOL0     H70281   6.839   5.684   4.409  0.4895 -1.0512  0.8241
  521MOL0     H70282   7.052   5.870   4.310 -0.8600  2.4041  0.2736
  521MOL0     H70283   7.037   5.782   4.460  0.3587 -0.9396 -1.1995
  521MOL0     H70284   6.971   6.007   4.476  1.6468  0.3106 -0.8213
  521MOL0     H70285   6.849   6.000   4.348 -1.1471  1.3640  2.5744
  521MOL0     H70286   6.675   6.106   4.497 -1.2268 -1.0670  0.0192
  521MOL0     H70287   6.512   6.145   4.692 -0.8282 -1.7229 -1.5804
  521MOL0     H70288   6.554   6.043   4.839  0.9683  1.5367  1.4038
  521MOL0     H70289   6.773   6.175   4.829 -0.3684  0.4337  0.1018
  521MOL0     H70290   6.697   6.295   4.729  1.6219 -1.8979 -2.1971
  521MOL0     H70291   6.625   6.196   5.002  0.4685  0.5108 -0.1930
  521MOL0     H70292   6.511   6.295   4.917 -0.5654  1.0702 -0.0742
  521MOL0     H70293   6.788   6.373   4.950 -0.1860  0.6755 -3.0685
  521MOL0     H70294   6.669   6.426   5.082 -1.7952 -1.6066  0.7961
  521MOL0     H70295   6.645   6.713   4.776  0.5331 -3.8662 -1.0512
  521MOL0     H70296   6.470   6.879   4.782 -1.1050  2.5528  1.4168
  521MOL0     H70297   6.116   7.101   5.121 -0.7211  0.7532 -1.8838
  521MOL0     H70298   5.928   7.239   5.095  0.8287 -0.5175  1.1545
  521MOL0     H70299   5.531   7.254   4.915  1.2065 -2.4650 -0.9001
  521MOL0     H70300   5.543   7.080   4.924 -1.8341  0.3095 -2.0111
  521MOL0     H70301   5.557   7.264   5.174  3.7506 -0.3276 -2.0527
  521MOL0     H70302   5.400   7.225   5.099 -0.1249  0.8769 -1.1835
  521MOL0     H70303   5.513   6.982   5.117 -0.4362 -0.6178 -0.1418
  521MOL0     H70304   5.573   7.064   5.263  1.5490  1.9064 -0.0138
  521MOL0     H70305   5.268   7.038   5.182 -2.0204  0.6866  2.2167
  521MOL0     H70306   5.339   7.123   5.322  2.0278 -0.0671  0.2534
  521MOL0     H70307   5.406   6.905   5.417 -1.1107  0.5057  0.5416
  521MOL0     H70308   5.328   6.836   5.265 -1.6566  1.8087 -0.8930
  521MOL0     H70309   5.115   6.946   5.318 -0.8519  1.8425  0.3445
  521MOL0     H70310   5.171   6.811   5.427  0.5946  0.1164  2.4530
  521MOL0     H70311   5.173   7.111   5.496 -2.1512  0.4923  0.3824
  521MOL0     H70312   5.218   6.967   5.603  1.5778 -2.5773 -1.3538
  521MOL0     H70313   4.999   7.046   5.640 -1.9530  1.1852 -0.0086
  521MOL0     H70314   4.954   7.026   5.478 -1.0784  2.1932  2.8812
  521MOL0     H70315   5.699   6.927   4.925 -0.8789  2.0949  1.4007
  521MOL0     H70316   5.907   6.777   4.929  2.5157 -1.4776  2.5635
  521MOL0     H70317   6.287   6.668   5.110  2.0269  0.9378  2.1978
  521MOL0     H70318   6.489   6.513   5.117 -1.5324 -0.5726  0.2117
  521MOL0     H70319   6.713   4.935   4.347 -1.8426 -0.3691 -1.8672
  521MOL0     H70320   6.690   4.695   4.237  0.1296 -1.1760 -3.0324
  521MOL0     H70321   6.799   4.342   4.144  3.6696 -0.2173 -1.6691
  521MOL0     H70322   6.713   4.129   4.114 -1.0931  2.1801  1.3348
  521MOL0     H70323   6.748   3.915   4.054  1.9250 -3.3569 -2.2399
  521MOL0     H70324   6.687   3.811   3.925  3.6327  0.2504 -1.3397
  521MOL0     H70325   6.501   4.010   4.060 -3.4625 -0.9899 -2.8906
  521MOL0     H70326   6.531   3.849   4.131 -2.3942  0.0622  0.4575
  521MOL0     H70327   6.461   3.747   3.930  3.2897  0.8504 -1.7896
  521MOL0     H70328   6.444   3.913   3.848  0.1880 -0.7664 -0.7715
  521MOL0     H70329   6.287   3.961   4.048 -0.4647 -0.6638  0.7652
  521MOL0     H70330   6.220   3.854   3.916  1.2156 -1.7175 -0.6494
  521MOL0     H70331   6.231   3.613   4.268 -0.4474 -0.4076 -2.3008
  521MOL0     H70332   6.719   4.194   3.685  1.8650  0.3717  0.0025
  521MOL0     H70333   6.872   4.475   3.679 -0.6682  0.1872  2.3865
  521MOL0     H70334   6.741   4.382   3.595  0.7925 -1.9005 -0.7039
  521MOL0     H70335   6.704   4.529   3.677 -0.2819 -0.4425 -3.2376
  522MOL0     O70336   8.113   4.575   9.917  1.1622  0.9273  0.3743
  522MOL0     C70337   8.137   4.669   9.994 -0.2771 -0.8354  0.5816
  522MOL0     O70338   8.255   4.738  10.009 -0.1618  0.1590  0.3971
  522MOL0     C70339   8.368   4.700   9.942 -0.3468 -0.6567 -0.2030
  522MOL0     C70340   8.361   4.699   9.807 -0.0683 -0.0492  0.4659
  522MOL0     C70341   8.476   4.683   9.718 -0.3583 -0.4856 -0.3362
  522MOL0     C70342   8.599   4.696   9.774 -0.9492  0.6991 -0.6636
  522MOL0     O70343   8.711   4.687   9.697  0.2001  0.1480  0.1562
  522MOL0     C70344   8.770   4.816   9.675 -0.7176 -0.6398  0.5413
  522MOL0     C70345   8.911   4.791   9.610 -1.3905 -0.0874 -0.3455
  522MOL0     C70346   9.019   4.744   9.717  0.2676 -0.0603  0.3527
  522MOL0     C70347   9.074   4.859   9.799  0.0912  0.5933  0.0896
  522MOL0     C70348   9.180   4.811   9.902 -0.6250  0.0816 -0.2814
  522MOL0     C70349   9.317   4.791   9.830  0.6528  0.0657  0.5677
  522MOL0     C70350   9.430   4.774   9.927 -0.4717  0.1560  0.0043
  522MOL0     C70351   9.562   4.751   9.850  0.4145 -0.9655 -0.6786
  522MOL0     N70352   9.588   4.628   9.780 -0.0611  1.0309  0.3143
  522MOL0     C70353   9.705   4.557   9.769  0.0645 -0.1772 -0.6401
  522MOL0     C70354   9.690   4.463   9.679 -0.4680  1.2923  1.3042
  522MOL0     C70355   9.809   4.384   9.638 -0.4714  0.4094 -0.2981
  522MOL0     C70356   9.873   4.303   9.754  2.1563  0.2392 -0.2026
  522MOL0     C70357   9.884   4.145   9.728 -0.4617  0.7452  0.9395
  522MOL0     C70358   9.746   4.069   9.742  0.2086  0.0220  0.3700
  522MOL0     O70359   9.745   3.928   9.747  0.0006 -0.7240  0.0997
  522MOL0     C70360   9.860   3.861   9.699 -0.7741  0.2358 -0.2386
  522MOL0     C70361   9.938   3.794   9.799 -0.4643 -1.2867  0.4621
  522MOL0     C70362  10.039   3.711   9.762 -0.3633  0.1083  1.0037
  522MOL0     C70363  10.070   3.703   9.626  0.6199 -0.3881 -1.1066
  522MOL0     C70364  10.184   3.624   9.581 -0.1420  0.0716  0.0213
  522MOL0     O70365  10.289   3.613   9.683 -0.0203 -0.6725  0.8849
  522MOL0     C70366  10.374   3.508   9.679 -0.5064 -0.9344 -0.3112
  522MOL0     C70367  10.348   3.375   9.644  1.2027  0.9169 -0.0929
  522MOL0     C70368  10.457   3.282   9.649  0.8549  0.3171 -0.0034
  522MOL0     C70369  10.580   3.309   9.697 -0.3707 -0.1022  1.3378
  522MOL0     O70370  10.680   3.213   9.685  1.1189 -0.5485  0.4865
  522MOL0     C70371  10.812   3.250   9.724  0.3253  0.1633 -0.5028
  522MOL0     C70372  10.911   3.138   9.701 -0.3164  0.1744  0.1845
  522MOL0     C70373  11.049   3.170   9.777  0.1860  0.0899  0.0979
  522MOL0     C70374  11.153   3.273   9.717  0.6724 -0.9240 -0.3434
  522MOL0     C70375  11.296   3.283   9.793 -0.2141 -0.1170  0.2271
  522MOL0     C70376  11.283   3.380   9.913  0.8820 -0.7727  0.8266
  522MOL0     C70377  11.358   3.363  10.037  1.1258  0.5004 -0.2858
  522MOL0     C70378  11.321   3.462  10.149 -0.4219 -0.1610  0.1657
  522MOL0    Cl70379  11.454   3.466  10.284 -0.0182  0.0083 -0.7030
  522MOL0     C70380  10.594   3.438   9.756  0.0822 -0.4786  0.7312
  522MOL0     C70381  10.498   3.534   9.738 -0.1761  0.4270 -0.6192
  522MOL0     O70382  10.178   3.579   9.469  0.7092  0.6416 -0.6185
  522MOL0     C70383   9.997   3.763   9.527 -0.0276 -0.5106  0.1005
  522MOL0     C70384   9.890   3.842   9.564  0.3902  0.3697  0.8736
  522MOL0     N70385   9.561   4.470   9.626 -0.1187  0.3128  0.0122
  522MOL0     N70386   9.504   4.568   9.690 -0.9714 -1.6561 -0.8116
  522MOL0     C70387   8.611   4.700   9.912 -0.1291 -0.2605  0.6207
  522MOL0     C70388   8.502   4.701   9.999  0.6174  0.0189 -0.2957
  522MOL0     C70389   8.034   4.714  10.085 -0.8835  0.6090 -1.0523
  522MOL0     C70390   8.052   4.723  10.225 -0.2471 -0.0744 -0.1775
  522MOL0     C70391   7.948   4.763  10.307  0.5284  0.8485  0.2968
  522MOL0     C70392   7.815   4.774  10.261 -0.1394  0.0205  0.4109
  522MOL0     O70393   7.712   4.792  10.349 -0.1975 -0.2644  0.2448
  522MOL0     C70394   7.687   4.682  10.441 -0.1428 -0.0480 -0.2511
  522MOL0     C70395   7.699   4.736  10.584 -0.8508  1.5395  0.4941
  522MOL0     C70396   7.679   4.613  10.687 -0.4274  0.0365 -1.0858
  522MOL0     C70397   7.544   4.553  10.670  0.5772  1.4737 -0.2290
  522MOL0     C70398   7.442   4.658  10.698  0.3139 -0.0303  0.6789
  522MOL0     C70399   7.343   4.729  10.696 -0.3350  0.5119 -0.1035
  522MOL0     C70400   7.797   4.776  10.128  0.2023 -0.4261 -0.1715
  522MOL0     C70401   7.901   4.748  10.037 -0.7310 -0.7810  0.1834
  522MOL0     C70402   7.865   4.754   9.885 -0.2323 -0.3514 -0.7570
  522MOL0     H70403   8.264   4.705   9.758  0.7592 -0.4957 -1.3102
  522MOL0     H70404   8.471   4.668   9.611  1.5968  0.4469 -0.6165
  522MOL0     H70405   8.718   4.884   9.607  0.9487  1.9656  1.6948
  522MOL0     H70406   8.783   4.872   9.768 -0.1543 -1.4161  0.9357
  522MOL0     H70407   8.944   4.889   9.574 -4.1408  2.0319  2.3570
  522MOL0     H70408   8.901   4.712   9.535 -3.1579 -0.4105  0.1822
  522MOL0     H70409   9.098   4.689   9.664 -0.0701 -0.0989 -0.1169
  522MOL0     H70410   8.963   4.673   9.779 -0.9776  0.1739 -0.4752
  522MOL0     H70411   9.125   4.940   9.745  3.8226 -0.9448  0.9421
  522MOL0     H70412   8.988   4.898   9.854 -0.2717 -1.0281  0.7264
  522MOL0     H70413   9.199   4.889   9.976  0.1526  0.0695 -0.4523
  522MOL0     H70414   9.159   4.718   9.955 -0.2518  1.1046  1.7706
  522MOL0     H70415   9.308   4.700   9.770  1.5368  0.3155  0.0347
  522MOL0     H70416   9.331   4.875   9.761 -2.1049  0.1089 -0.0497
  522MOL0     H70417   9.414   4.685   9.989  1.1398 -0.6704 -0.6910
  522MOL0     H70418   9.436   4.861   9.993 -3.0911  0.0234  0.5002
  522MOL0     H70419   9.565   4.829   9.773  2.8071 -0.7125 -0.4036
  522MOL0     H70420   9.647   4.774   9.915  0.5090  1.4740 -1.5388
  522MOL0     H70421   9.793   4.577   9.829  0.2022 -4.0585  0.7207
  522MOL0     H70422   9.771   4.313   9.564  1.0647 -2.0759  1.1612
  522MOL0     H70423   9.881   4.455   9.598  0.8296 -1.5503 -1.6048
  522MOL0     H70424   9.977   4.338   9.760  1.0475  4.1457 -0.4468
  522MOL0     H70425   9.823   4.318   9.850 -0.4728 -0.2837 -1.3904
  522MOL0     H70426   9.956   4.106   9.800 -0.7330  0.5035  1.0806
  522MOL0     H70427   9.929   4.129   9.629 -1.1122  0.9618  0.5990
  522MOL0     H70428   9.670   4.112   9.677 -1.4680 -2.5319  0.5420
  522MOL0     H70429   9.714   4.109   9.839  0.5242 -0.3387  0.6279
  522MOL0     H70430   9.917   3.805   9.905  0.0633  1.0480  0.3988
  522MOL0     H70431  10.104   3.664   9.834  2.1229  1.2212 -0.4034
  522MOL0     H70432  10.253   3.337   9.611  1.4925 -0.0622  0.1710
  522MOL0     H70433  10.445   3.185   9.602  0.2340 -0.0609  0.9008
  522MOL0     H70434  10.847   3.339   9.672  3.1063  0.1614  1.1708
  522MOL0     H70435  10.818   3.267   9.832 -0.3553  0.6976 -0.5403
  522MOL0     H70436  10.883   3.040   9.739 -0.1465 -1.8272 -4.2110
  522MOL0     H70437  10.927   3.115   9.595 -0.0186  1.4522 -0.0715
  522MOL0     H70438  11.014   3.215   9.870  1.6291  2.6864 -0.5158
  522MOL0     H70439  11.097   3.072   9.785  0.3385  0.0817 -0.7793
  522MOL0     H70440  11.108   3.370   9.694  0.6082 -1.2154 -1.4752
  522MOL0     H70441  11.185   3.225   9.624  2.7883  0.7197 -0.5302
  522MOL0     H70442  11.374   3.330   9.733 -1.2171  1.1022 -0.1892
  522MOL0     H70443  11.323   3.182   9.823 -1.2627 -0.8938 -1.3018
  522MOL0     H70444  11.308   3.480   9.875 -0.2199 -1.1442 -1.0243
  522MOL0     H70445  11.176   3.383   9.936 -0.5106  0.3464 -4.3483
  522MOL0     H70446  11.464   3.380  10.016  0.7257  2.9517 -0.5941
  522MOL0     H70447  11.329   3.262  10.070  0.1082  0.6199 -0.7631
  522MOL0     H70448  11.320   3.565  10.112 -0.4989 -0.0655  0.4349
  522MOL0     H70449  11.218   3.442  10.179 -0.0180  2.8306  4.4884
  522MOL0     H70450  10.687   3.470   9.802  1.1064 -1.3155 -0.6493
  522MOL0     H70451  10.521   3.637   9.764  1.3615 -0.8679  4.0580
  522MOL0     H70452  10.013   3.756   9.420  0.8595 -0.4747  0.2230
  522MOL0     H70453   9.830   3.894   9.490 -2.8940 -3.6722  0.3206
  522MOL0     H70454   8.706   4.699   9.963 -1.1754  0.3472  2.6739
  522MOL0     H70455   8.511   4.698  10.107  0.9741  2.8595 -0.1747
  522MOL0     H70456   8.147   4.697  10.271 -1.2080 -3.8121  0.0239
  522MOL0     H70457   7.963   4.765  10.414 -0.3037  2.1177  0.4168
  522MOL0     H70458   7.772   4.614  10.428  0.0993  0.4867 -1.5794
  522MOL0     H70459   7.589   4.637  10.420  0.6769 -2.2991  0.3813
  522MOL0     H70460   7.627   4.818  10.598  0.3520  2.2184  3.5614
  522MOL0     H70461   7.801   4.771  10.604 -0.5981  2.3389 -1.9363
  522MOL0     H70462   7.687   4.634  10.794 -1.5089 -3.9971 -0.0233
  522MOL0     H70463   7.758   4.540  10.665  1.3674  1.5088  0.1734
  522MOL0     H70464   7.528   4.507  10.572 -3.3427  3.1464 -0.5557
  522MOL0     H70465   7.528   4.468  10.738 -1.3598  1.7367 -0.3110
  522MOL0     H70466   7.249   4.780  10.699 -0.7667 -0.1129 -2.0043
  522MOL0     H70467   7.700   4.790  10.082 -0.8467 -1.2410  1.6662
  522MOL0     H70468   7.873   4.652   9.845 -2.0223 -1.8807  2.4003
  522MOL0     H70469   7.761   4.786   9.870 -1.2728 -2.4604  1.2205
  522MOL0     H70470   7.931   4.831   9.844 -0.9620  0.6524 -0.0819
  523MOL0     O70471   3.438   3.763   7.861 -0.1341 -0.4449  1.4935
  523MOL0     C70472   3.554   3.807   7.862 -0.2183  0.4800  0.0994
  523MOL0     O70473   3.605   3.904   7.784  0.1685  0.7648 -0.1764
  523MOL0     C70474   3.558   3.920   7.659  0.7258 -0.3085 -0.6374
  523MOL0     C70475   3.562   3.816   7.563 -0.2829  0.8045  0.1151
  523MOL0     C70476   3.521   3.825   7.424  0.5792  0.2326 -0.8194
  523MOL0     C70477   3.467   3.947   7.385 -0.0317 -1.6887  0.5923
  523MOL0     O70478   3.439   3.960   7.249 -0.1358 -0.2058 -0.2177
  523MOL0     C70479   3.391   4.088   7.206  0.8892  0.5160  0.8388
  523MOL0     C70480   3.329   4.086   7.065 -0.2671 -0.1648  1.2517
  523MOL0     C70481   3.438   4.105   6.954 -0.2009  0.2754 -0.7997
  523MOL0     C70482   3.369   4.078   6.822 -0.0979  0.1237  0.3785
  523MOL0     C70483   3.369   4.195   6.733  0.2593  0.6585  0.4218
  523MOL0     C70484   3.226   4.211   6.672  0.9166 -0.3971 -0.6659
  523MOL0     C70485   3.218   4.329   6.574  0.9858  0.0928  0.9665
  523MOL0     C70486   3.073   4.339   6.513 -1.1233 -0.1013 -0.7754
  523MOL0     N70487   2.987   4.439   6.575  1.0357 -0.7800 -0.8659
  523MOL0     C70488   2.912   4.417   6.691  0.0104 -0.1479  0.4480
  523MOL0     C70489   2.844   4.534   6.702  0.2133  0.1767 -0.0202
  523MOL0     C70490   2.749   4.573   6.807 -0.0632 -1.0222 -0.5300
  523MOL0     C70491   2.817   4.668   6.901 -0.4725 -0.1716  0.2033
  523MOL0     C70492   2.902   4.582   7.004  0.5091 -0.4305 -0.2489
  523MOL0     C70493   2.976   4.670   7.111 -1.0422  0.2829  0.2872
  523MOL0     O70494   3.056   4.590   7.202 -0.3976 -0.4035 -0.9986
  523MOL0     C70495   3.070   4.625   7.331  0.0195 -1.1105  0.0576
  523MOL0     C70496   3.044   4.755   7.384 -0.1952  1.0648  0.3489
  523MOL0     C70497   3.056   4.784   7.521 -0.7891 -0.0498  0.6305
  523MOL0     C70498   3.117   4.693   7.604  0.0545  0.7896  0.6445
  523MOL0     C70499   3.165   4.722   7.739 -0.0711  0.4322 -0.3712
  523MOL0     O70500   3.260   4.639   7.795  0.7364  0.6685 -0.1822
  523MOL0     C70501   3.307   4.620   7.925  0.5224 -0.3471 -0.4428
  523MOL0     C70502   3.256   4.702   8.027  0.3782  0.8085  0.0028
  523MOL0     C70503   3.314   4.689   8.156  0.1297 -0.1050  0.2504
  523MOL0     C70504   3.410   4.594   8.185 -0.1855 -0.2910  0.0552
  523MOL0     O70505   3.442   4.581   8.317  0.6124 -0.5793  0.2139
  523MOL0     C70506   3.561   4.513   8.364  0.7530 -0.2419  0.2186
  523MOL0     C70507   3.564   4.489   8.516  0.1920 -0.1365  0.2436
  523MOL0     C70508   3.554   4.608   8.592  0.0433 -0.4106  0.1354
  523MOL0     C70509   3.659   4.612   8.703 -0.7021 -0.7623 -0.2522
  523MOL0     C70510   3.635   4.715   8.819 -0.1645  0.2326  0.3359
  523MOL0     C70511   3.689   4.670   8.947  0.4054  0.4998 -0.2311
  523MOL0     C70512   3.843   4.655   8.953 -0.9925 -0.9631 -0.0876
  523MOL0     C70513   3.895   4.613   9.087  0.5229 -0.1063  0.3368
  523MOL0    Cl70514   4.078   4.610   9.103 -0.1902  0.3494  0.2187
  523MOL0     C70515   3.459   4.528   8.077 -0.1740 -0.5354  0.2720
  523MOL0     C70516   3.418   4.546   7.949  0.1997  0.8939 -0.1307
  523MOL0     O70517   3.124   4.825   7.796 -0.1384 -0.1225 -0.3056
  523MOL0     C70518   3.138   4.559   7.550 -0.1790 -0.8731 -0.7863
  523MOL0     C70519   3.104   4.525   7.421  0.5750 -0.0026 -0.8434
  523MOL0     N70520   2.881   4.615   6.597  0.8475  0.0965  0.5170
  523MOL0     N70521   2.955   4.554   6.519  0.2847  0.1432 -0.8986
  523MOL0     C70522   3.470   4.065   7.474 -0.2034  0.2370 -0.7553
  523MOL0     C70523   3.514   4.047   7.611 -0.4550  0.0635  0.7169
  523MOL0     C70524   3.635   3.765   7.975  0.1685 -0.1560 -1.3411
  523MOL0     C70525   3.774   3.794   7.971  0.0382  0.8085  0.5294
  523MOL0     C70526   3.855   3.771   8.076  0.2270  1.3431 -0.3269
  523MOL0     C70527   3.802   3.731   8.195 -0.1820  0.4968 -0.3451
  523MOL0     O70528   3.887   3.722   8.306 -0.3414  0.2494 -0.1290
  523MOL0     C70529   4.030   3.708   8.305  0.2850 -0.3667  0.6366
  523MOL0     C70530   4.081   3.744   8.444 -0.6982 -0.1152  0.5384
  523MOL0     C70531   4.060   3.628   8.542  0.3453  0.2353 -0.3391
  523MOL0     C70532   4.076   3.660   8.693 -0.4680  0.8250  0.2642
  523MOL0     C70533   3.972   3.747   8.739  0.7095 -0.0059  0.6493
  523MOL0     C70534   3.867   3.808   8.762 -0.7745 -0.3935 -0.2461
  523MOL0     C70535   3.668   3.690   8.208 -0.3864 -0.7854  0.8506
  523MOL0     C70536   3.586   3.707   8.098  0.2358  0.4859 -0.0820
  523MOL0     C70537   3.442   3.667   8.114  0.4306  0.6690  0.4615
  523MOL0     H70538   3.591   3.716   7.593 -1.3168 -0.4518 -2.7007
  523MOL0     H70539   3.529   3.754   7.343  0.0829  1.6767 -2.1876
  523MOL0     H70540   3.308   4.120   7.270 -0.9819 -1.1323 -0.6147
  523MOL0     H70541   3.474   4.159   7.203  3.1346 -1.9784 -1.5087
  523MOL0     H70542   3.263   4.173   7.059  1.7715  1.3776 -0.2555
  523MOL0     H70543   3.264   3.998   7.062  0.7058 -0.8672  0.3163
  523MOL0     H70544   3.517   4.030   6.959 -0.4258  0.1016  0.2609
  523MOL0     H70545   3.490   4.200   6.968 -0.9089  0.5719 -0.1050
  523MOL0     H70546   3.417   3.994   6.771  0.2253  0.4578  0.1242
  523MOL0     H70547   3.268   4.040   6.839 -0.6703  1.0703 -0.7766
  523MOL0     H70548   3.384   4.293   6.781  1.9022  0.6315  0.0321
  523MOL0     H70549   3.436   4.184   6.648  0.3616  2.9452  0.1271
  523MOL0     H70550   3.188   4.120   6.625 -0.0916 -0.6878  0.6614
  523MOL0     H70551   3.156   4.234   6.753  0.1794  3.5901 -2.1891
  523MOL0     H70552   3.289   4.308   6.493  0.4632  3.8995 -0.6736
  523MOL0     H70553   3.262   4.423   6.608  4.7274 -0.0357 -2.6751
  523MOL0     H70554   3.087   4.389   6.417 -0.6417  2.7156  0.6591
  523MOL0     H70555   3.017   4.248   6.486 -3.9472  1.1982  0.2940
  523MOL0     H70556   2.912   4.336   6.764  1.3512  0.2803  0.9475
  523MOL0     H70557   2.666   4.623   6.757 -0.9102 -0.2015  1.5615
  523MOL0     H70558   2.709   4.490   6.866 -0.3887  0.0853  0.8746
  523MOL0     H70559   2.883   4.737   6.847  0.4280 -1.3646 -0.2698
  523MOL0     H70560   2.741   4.720   6.959  0.7649 -2.5686  4.3637
  523MOL0     H70561   2.973   4.521   6.948 -0.8730 -0.3429 -2.2029
  523MOL0     H70562   2.843   4.509   7.060  1.0876 -1.0609 -0.4508
  523MOL0     H70563   2.893   4.726   7.155 -1.6848 -1.0550  0.8057
  523MOL0     H70564   3.047   4.736   7.060 -1.4814  0.9961  0.5733
  523MOL0     H70565   3.012   4.828   7.311 -2.9121  1.6834  2.0261
  523MOL0     H70566   3.054   4.887   7.557  0.0776  0.9740 -1.9596
  523MOL0     H70567   3.199   4.794   8.019 -1.6744 -0.4175  0.0447
  523MOL0     H70568   3.266   4.748   8.233 -0.6240 -1.2969  0.7167
  523MOL0     H70569   3.573   4.419   8.311  0.6744 -0.4066  0.4941
  523MOL0     H70570   3.643   4.582   8.341  2.5732 -2.1901  0.5207
  523MOL0     H70571   3.480   4.423   8.535  0.6336 -0.2568  1.9576
  523MOL0     H70572   3.657   4.437   8.541  1.3628  2.1502  0.9771
  523MOL0     H70573   3.567   4.707   8.548  0.0868  1.1427  3.3687
  523MOL0     H70574   3.454   4.618   8.634  0.3265  1.5659  0.4161
  523MOL0     H70575   3.756   4.633   8.657 -0.6526 -1.0842 -0.2940
  523MOL0     H70576   3.664   4.513   8.748  1.2538 -0.3162  0.6297
  523MOL0     H70577   3.527   4.719   8.836  0.0181 -0.0681  1.6854
  523MOL0     H70578   3.668   4.817   8.799  0.2236 -0.4141 -2.8537
  523MOL0     H70579   3.657   4.736   9.028 -0.5710 -2.2006  1.7432
  523MOL0     H70580   3.658   4.570   8.980  1.1872  1.1046  2.6044
  523MOL0     H70581   3.890   4.750   8.926 -0.3676 -2.2436 -4.2551
  523MOL0     H70582   3.879   4.594   8.870  2.4163 -0.5789  0.9505
  523MOL0     H70583   3.855   4.679   9.164  1.8137  0.1405  0.8317
  523MOL0     H70584   3.855   4.513   9.104  0.4201  0.1180  1.5568
  523MOL0     H70585   3.554   4.475   8.077  0.0911 -0.1252 -1.5258
  523MOL0     H70586   3.472   4.502   7.866 -2.5030 -0.2495 -1.3987
  523MOL0     H70587   3.179   4.486   7.620  3.2852 -1.0001 -2.7009
  523MOL0     H70588   3.128   4.426   7.383  0.1316 -0.1474 -0.7473
  523MOL0     H70589   3.452   4.169   7.445  3.3897  0.3378 -3.3719
  523MOL0     H70590   3.516   4.137   7.673 -1.5382  2.2499 -2.1869
  523MOL0     H70591   3.816   3.833   7.878  2.3485  0.2917  1.2871
  523MOL0     H70592   3.959   3.802   8.068  0.1419  1.0900 -3.2249
  523MOL0     H70593   4.087   3.770   8.234 -0.6720 -1.7078 -1.3691
  523MOL0     H70594   4.038   3.605   8.270 -1.4260  0.2042 -1.7001
  523MOL0     H70595   4.030   3.838   8.469  0.3825  0.1298  1.9455
  523MOL0     H70596   4.186   3.755   8.416 -0.5475 -1.9319  0.2874
  523MOL0     H70597   4.142   3.560   8.519  1.5219  1.9095 -1.3222
  523MOL0     H70598   3.961   3.588   8.517  1.0102 -1.4131 -0.4281
  523MOL0     H70599   4.066   3.566   8.749 -0.8234 -0.2562 -1.5274
  523MOL0     H70600   4.173   3.703   8.719  0.2430 -1.6059  2.0261
  523MOL0     H70601   3.792   3.880   8.786  0.5150  0.0343  2.9673
  523MOL0     H70602   3.628   3.654   8.302 -0.1266  0.0610  1.2844
  523MOL0     H70603   3.426   3.632   8.216  0.3858 -0.7440 -0.0087
  523MOL0     H70604   3.380   3.757   8.116  3.7456  3.1276  2.2860
  523MOL0     H70605   3.416   3.587   8.045 -0.6887  1.6299 -0.2770
  524MOL0     O70606   5.093   7.634   7.249  0.6109  0.5835 -0.2727
  524MOL0     C70607   5.104   7.517   7.292 -0.1262 -0.7874 -0.2050
  524MOL0     O70608   5.127   7.403   7.216  0.5506 -0.1889 -0.0014
  524MOL0     C70609   5.111   7.392   7.082  1.0270 -0.9139 -0.1223
  524MOL0     C70610   4.999   7.447   7.008  0.1316  0.0054  0.2259
  524MOL0     C70611   4.995   7.428   6.865  0.3235  0.6613  0.8161
  524MOL0     C70612   5.098   7.363   6.806  0.6103  0.8988 -0.0583
  524MOL0     O70613   5.106   7.330   6.669 -0.1500 -0.0992  0.8169
  524MOL0     C70614   4.987   7.274   6.609  0.6362  0.1348  0.1857
  524MOL0     C70615   5.041   7.179   6.499 -0.3226 -0.1004 -0.5771
  524MOL0     C70616   4.924   7.126   6.424 -0.0694 -0.0727  0.1678
  524MOL0     C70617   4.853   7.000   6.473  0.4083 -0.0149  0.8836
  524MOL0     C70618   4.709   6.986   6.407 -0.8058  0.1651  0.1353
  524MOL0     C70619   4.612   7.076   6.469 -0.3819 -0.1800 -0.2124
  524MOL0     C70620   4.466   7.047   6.427 -1.6595 -0.7967  0.1397
  524MOL0     C70621   4.366   7.108   6.515  0.5308 -0.8686  0.0536
  524MOL0     N70622   4.235   7.044   6.476  0.3198  0.0573 -0.4581
  524MOL0     C70623   4.166   6.947   6.545 -0.2915  0.8901  0.8302
  524MOL0     C70624   4.052   6.932   6.468  0.2022  0.5838  0.4258
  524MOL0     C70625   3.930   6.833   6.478  0.9012  1.0115  0.2403
  524MOL0     C70626   3.955   6.700   6.561  0.2984 -0.1265 -0.1565
  524MOL0     C70627   4.051   6.611   6.483 -0.0584 -0.1320 -0.5621
  524MOL0     C70628   4.106   6.501   6.578  0.7172  0.1452  0.3803
  524MOL0     O70629   4.212   6.546   6.663  0.4188 -0.5255  0.2617
  524MOL0     C70630   4.262   6.461   6.757 -0.8076 -0.3119  0.1198
  524MOL0     C70631   4.253   6.496   6.897 -0.2663  0.3232  0.5710
  524MOL0     C70632   4.307   6.404   6.990 -0.0284  0.3510  0.2869
  524MOL0     C70633   4.368   6.278   6.949 -0.1143 -0.3208  0.0787
  524MOL0     C70634   4.444   6.196   7.050  0.2874 -0.1102 -0.1163
  524MOL0     O70635   4.415   6.235   7.181  0.2642  0.2205  0.4710
  524MOL0     C70636   4.475   6.184   7.293  0.0726  0.5328  0.5738
  524MOL0     C70637   4.501   6.051   7.305  0.3211  0.4361  0.1135
  524MOL0     C70638   4.553   6.003   7.429  0.7937  0.7565  0.6467
  524MOL0     C70639   4.578   6.084   7.539 -0.3236 -0.0888 -0.2907
  524MOL0     O70640   4.619   6.043   7.672  0.8551 -0.4943  0.1856
  524MOL0     C70641   4.636   5.904   7.680  0.6677  0.2390 -0.6249
  524MOL0     C70642   4.661   5.880   7.828  0.8096 -0.8492 -0.3622
  524MOL0     C70643   4.539   5.917   7.917  0.5294  0.0964  1.4214
  524MOL0     C70644   4.491   5.791   7.995  0.0300 -0.7744 -0.2162
  524MOL0     C70645   4.360   5.822   8.068  0.3178  0.0700  0.2110
  524MOL0     C70646   4.330   5.743   8.195  1.5637 -0.1314 -0.1215
  524MOL0     C70647   4.183   5.774   8.249  0.6225  0.5332 -0.3785
  524MOL0     C70648   4.123   5.675   8.343  0.4072  0.4876 -0.2644
  524MOL0    Cl70649   3.999   5.758   8.430  0.2194 -0.0764  0.2862
  524MOL0     C70650   4.545   6.218   7.520  0.4060  0.2393  0.3707
  524MOL0     C70651   4.495   6.271   7.402 -0.1819  0.2399  0.7000
  524MOL0     O70652   4.535   6.127   7.020 -0.5852 -0.0524  0.2501
  524MOL0     C70653   4.383   6.263   6.816  0.0105  0.0776  1.1732
  524MOL0     C70654   4.329   6.347   6.721 -0.1060  0.0908 -0.0918
  524MOL0     N70655   4.062   7.015   6.356  0.1776 -0.5118  0.0790
  524MOL0     N70656   4.179   7.064   6.360 -0.6201  0.0449  0.3531
  524MOL0     C70657   5.196   7.310   6.881 -0.3045 -0.5985  0.2741
  524MOL0     C70658   5.211   7.328   7.013 -0.1561  0.8033 -0.0227
  524MOL0     C70659   5.057   7.480   7.426  0.1809  0.6521  0.7570
  524MOL0     C70660   5.014   7.343   7.458 -0.4330 -0.4031  0.7405
  524MOL0     C70661   4.962   7.306   7.583 -0.3382  0.8770 -0.2651
  524MOL0     C70662   4.974   7.392   7.687 -0.0603 -0.5087  0.3351
  524MOL0     O70663   4.960   7.343   7.810 -0.0584 -0.0309  0.7128
  524MOL0     C70664   5.075   7.355   7.893  0.0519 -0.0587  0.3225
  524MOL0     C70665   5.113   7.225   7.971 -1.1029 -0.5248  0.0437
  524MOL0     C70666   5.243   7.242   8.057  0.2329  0.1164 -0.4300
  524MOL0     C70667   5.329   7.110   8.073  1.3851 -0.4891 -0.1912
  524MOL0     C70668   5.467   7.144   8.108  0.5886 -0.9282  0.3883
  524MOL0     C70669   5.590   7.164   8.125  0.4614 -0.0315  0.4309
  524MOL0     C70670   5.007   7.530   7.666  0.2384 -0.5390  0.1930
  524MOL0     C70671   5.054   7.573   7.537 -0.1623 -0.1136 -0.3023
  524MOL0     C70672   5.112   7.716   7.538 -0.3297  0.0180 -0.4563
  524MOL0     H70673   4.916   7.499   7.054  0.7326  1.5984 -0.4259
  524MOL0     H70674   4.910   7.444   6.800  1.3729 -0.4639 -0.9152
  524MOL0     H70675   4.929   7.210   6.677  0.3808  0.2523  0.0796
  524MOL0     H70676   4.921   7.353   6.572  0.0443 -0.5080 -0.1568
  524MOL0     H70677   5.102   7.101   6.544 -1.6921 -0.1819  1.2651
  524MOL0     H70678   5.104   7.243   6.437  0.5261  1.1475  1.4562
  524MOL0     H70679   4.947   7.102   6.320 -4.3008 -0.8080 -0.7796
  524MOL0     H70680   4.847   7.202   6.435 -0.2755 -0.6115  4.0821
  524MOL0     H70681   4.910   6.916   6.434 -1.7621 -0.8372 -0.7398
  524MOL0     H70682   4.858   7.002   6.582  1.2673  3.8605  0.9375
  524MOL0     H70683   4.733   6.984   6.301  1.6004 -3.6669  0.5650
  524MOL0     H70684   4.681   6.884   6.434  3.1273 -0.5071  2.3936
  524MOL0     H70685   4.622   7.077   6.578  3.5625  2.0725 -0.4217
  524MOL0     H70686   4.632   7.177   6.433  2.1479 -1.5037 -2.9359
  524MOL0     H70687   4.449   6.940   6.412  0.2892 -1.5257  2.5324
  524MOL0     H70688   4.451   7.082   6.324  4.3546 -2.8898 -1.8811
  524MOL0     H70689   4.392   7.096   6.620 -2.4876  0.4833  1.0804
  524MOL0     H70690   4.372   7.215   6.494  2.0795 -0.7486  0.9779
  524MOL0     H70691   4.184   6.894   6.638 -0.0152  1.3321  1.0292
  524MOL0     H70692   3.878   6.891   6.554  2.6845  1.2905  1.3139
  524MOL0     H70693   3.877   6.810   6.385  4.1661 -1.2737 -1.2526
  524MOL0     H70694   3.995   6.723   6.660 -0.8791 -3.5169  1.2229
  524MOL0     H70695   3.857   6.655   6.572 -1.2104  2.9873  0.3176
  524MOL0     H70696   4.135   6.669   6.446  0.6822 -1.1918 -0.5917
  524MOL0     H70697   4.001   6.566   6.396 -1.6938  2.7304 -1.2439
  524MOL0     H70698   4.144   6.413   6.524 -1.7105 -0.4403 -0.4750
  524MOL0     H70699   4.031   6.458   6.645  1.0823  1.2536  1.5425
  524MOL0     H70700   4.202   6.585   6.934  0.4250  0.8435  0.2874
  524MOL0     H70701   4.304   6.431   7.096 -1.0282 -2.0527  0.9354
  524MOL0     H70702   4.494   5.979   7.224  1.1853 -0.0872  0.4865
  524MOL0     H70703   4.582   5.899   7.425  0.5955  0.6804  1.1359
  524MOL0     H70704   4.546   5.853   7.644  1.3252 -2.2648  1.0534
  524MOL0     H70705   4.724   5.876   7.621  2.7768  2.8641  1.0084
  524MOL0     H70706   4.688   5.773   7.831  1.6367 -0.6532  2.3791
  524MOL0     H70707   4.744   5.931   7.879 -2.8073  2.8882  2.3892
  524MOL0     H70708   4.572   6.000   7.980  0.1564  1.7187 -0.3982
  524MOL0     H70709   4.456   5.952   7.854  1.6984  0.1989 -0.1237
  524MOL0     H70710   4.562   5.773   8.076 -2.7207  0.1955  2.5877
  524MOL0     H70711   4.484   5.702   7.931  2.4837 -0.5631 -0.8970
  524MOL0     H70712   4.286   5.814   7.988  0.1047  1.6575  0.2202
  524MOL0     H70713   4.360   5.929   8.090  2.7764  0.1516  0.1323
  524MOL0     H70714   4.358   5.638   8.180  3.2029 -0.0596  1.9006
  524MOL0     H70715   4.400   5.777   8.272  1.9821  2.7727 -1.6625
  524MOL0     H70716   4.117   5.776   8.161  1.1103 -0.7487 -0.7994
  524MOL0     H70717   4.196   5.874   8.291  0.2403  0.0460  0.9289
  524MOL0     H70718   4.088   5.583   8.295  1.3796 -0.4932  0.8478
  524MOL0     H70719   4.202   5.645   8.413  0.0453 -3.1838 -1.2125
  524MOL0     H70720   4.558   6.291   7.599 -0.3769  1.3565 -0.5077
  524MOL0     H70721   4.482   6.377   7.384  0.5622  0.5382  1.8166
  524MOL0     H70722   4.450   6.181   6.795 -2.1791 -1.7478  0.9761
  524MOL0     H70723   4.347   6.328   6.616 -3.0744 -3.5508 -0.1640
  524MOL0     H70724   5.266   7.243   6.832 -1.2685 -2.0592  0.8071
  524MOL0     H70725   5.298   7.297   7.070  0.1006  0.6471 -0.4929
  524MOL0     H70726   5.013   7.266   7.382 -1.2543  1.4753 -1.2554
  524MOL0     H70727   4.922   7.208   7.606  0.4704  0.6282  0.1234
  524MOL0     H70728   5.047   7.432   7.965  0.4648  2.3681 -1.9864
  524MOL0     H70729   5.162   7.382   7.833 -0.3358 -2.4323 -1.4426
  524MOL0     H70730   5.144   7.137   7.912  1.1259 -1.5836  2.6009
  524MOL0     H70731   5.028   7.198   8.034  0.2868  3.4111  4.1249
  524MOL0     H70732   5.211   7.276   8.156  2.0384 -0.4219  0.3793
  524MOL0     H70733   5.298   7.320   8.004 -1.5441  2.0226  0.3961
  524MOL0     H70734   5.285   7.039   8.143 -1.7762 -0.0821 -1.5988
  524MOL0     H70735   5.328   7.062   7.975  3.3404 -3.9554  1.3089
  524MOL0     H70736   5.692   7.174   8.154  0.7619 -1.8900  0.1580
  524MOL0     H70737   5.027   7.600   7.746  3.4169 -1.7996  0.6488
  524MOL0     H70738   5.180   7.722   7.624  1.4787  1.4350 -1.8903
  524MOL0     H70739   5.177   7.727   7.451  1.3198 -3.8006  0.0882
  524MOL0     H70740   5.027   7.783   7.552 -1.2783 -1.4663  1.4084
  525MOL0     O70741   5.880   6.890   0.862 -0.2046 -0.6332 -0.3158
  525MOL0     C70742   5.840   6.958   0.957 -0.7807 -0.8536 -0.7294
  525MOL0     O70743   5.719   7.029   0.956 -0.5731  0.6873 -0.3598
  525MOL0     C70744   5.621   7.001   0.864  0.0760  0.6857 -0.1357
  525MOL0     C70745   5.649   7.014   0.725 -0.6587 -0.5412  0.1546
  525MOL0     C70746   5.549   7.016   0.625  0.6718  1.3422  0.5411
  525MOL0     C70747   5.420   6.984   0.657  0.4728 -0.3511  0.8511
  525MOL0     O70748   5.323   6.981   0.563  0.1799  0.4808 -0.3896
  525MOL0     C70749   5.341   6.874   0.466 -0.1648 -0.0740  0.8547
  525MOL0     C70750   5.263   6.900   0.327 -1.0437  0.1723 -0.3451
  525MOL0     C70751   5.114   6.895   0.330 -0.2675 -0.3322  0.1970
  525MOL0     C70752   5.050   6.761   0.351  0.0448  0.2035  0.5393
  525MOL0     C70753   4.908   6.752   0.299 -0.3733  0.7215  1.0960
  525MOL0     C70754   4.858   6.611   0.346  0.5625  0.5116 -0.1303
  525MOL0     C70755   4.753   6.548   0.270  0.4051  0.0465  0.7827
  525MOL0     C70756   4.616   6.593   0.326  0.0204  0.1786 -0.2408
  525MOL0     N70757   4.484   6.552   0.273  1.0576 -0.0534  1.5222
  525MOL0     C70758   4.390   6.620   0.190 -0.2976  1.2744  0.7535
  525MOL0     C70759   4.296   6.520   0.143  0.2972 -0.5721 -0.1365
  525MOL0     C70760   4.195   6.536   0.036  0.3503 -0.4513 -0.4471
  525MOL0     C70761   4.154   6.683   0.005  0.0139  1.1576  0.5586
  525MOL0     C70762   4.025   6.674  -0.081  0.7077 -0.2387 -0.4613
  525MOL0     C70763   3.989   6.812  -0.136 -0.1855  0.4721 -0.2102
  525MOL0     O70764   4.096   6.869  -0.221  0.2202  0.7563 -0.1249
  525MOL0     C70765   4.144   6.787  -0.321  0.9001  0.0020  1.1000
  525MOL0     C70766   4.047   6.740  -0.425 -0.6009  0.4882  0.1697
  525MOL0     C70767   4.109   6.662  -0.522 -0.5056  0.6175  0.0841
  525MOL0     C70768   4.240   6.626  -0.536  0.4579  0.3573  0.5026
  525MOL0     C70769   4.308   6.561  -0.648 -0.1727 -0.6134  0.3613
  525MOL0     O70770   4.446   6.578  -0.658  0.4429 -0.0903 -0.3777
  525MOL0     C70771   4.509   6.518  -0.759  0.2468  0.1700  1.0411
  525MOL0     C70772   4.532   6.378  -0.753 -0.3068  0.5713 -0.0916
  525MOL0     C70773   4.605   6.308  -0.844  0.0402  0.2379  0.0627
  525MOL0     C70774   4.643   6.380  -0.966 -0.3810 -1.0736 -0.7858
  525MOL0     O70775   4.677   6.317  -1.078 -1.5401  0.4340 -0.0275
  525MOL0     C70776   4.747   6.187  -1.067  0.1522  0.1454  0.5324
  525MOL0     C70777   4.777   6.140  -1.208 -0.0337  0.0622 -0.6103
  525MOL0     C70778   4.904   6.207  -1.271  0.2906  0.5129  0.1592
  525MOL0     C70779   4.962   6.154  -1.406 -0.9476  0.0248  0.8379
  525MOL0     C70780   4.868   6.126  -1.530 -0.1648 -0.2834 -0.6020
  525MOL0     C70781   4.930   6.038  -1.646  0.4773 -0.2257  0.1198
  525MOL0     C70782   4.824   6.018  -1.764 -0.3888  0.3657 -0.3616
  525MOL0     C70783   4.715   5.924  -1.708 -0.7692 -0.1936  0.4024
  525MOL0    Cl70784   4.778   5.763  -1.679  0.0329  0.1845  0.3723
  525MOL0     C70785   4.611   6.516  -0.983 -0.7808  0.6103  0.4723
  525MOL0     C70786   4.551   6.584  -0.880 -0.4030  0.3114 -0.2678
  525MOL0     O70787   4.243   6.494  -0.726  0.1747 -0.1552  0.0989
  525MOL0     C70788   4.323   6.669  -0.433 -1.3594 -0.3658  0.4575
  525MOL0     C70789   4.274   6.745  -0.329  1.0240  0.6832 -0.1299
  525MOL0     N70790   4.336   6.402   0.197  0.4398 -0.7378  0.0017
  525MOL0     N70791   4.440   6.424   0.272  0.0878  0.3658 -0.8306
  525MOL0     C70792   5.387   6.976   0.794  0.2736 -0.4271 -0.1295
  525MOL0     C70793   5.489   6.984   0.891 -0.5826 -0.3484 -0.1934
  525MOL0     C70794   5.920   6.968   1.083  0.0585 -0.5341  0.4773
  525MOL0     C70795   5.850   7.002   1.196 -0.2460 -0.3623 -0.0826
  525MOL0     C70796   5.918   7.003   1.314  0.1105  0.1420 -0.5561
  525MOL0     C70797   6.046   6.955   1.329  0.5301  0.5150  0.4243
  525MOL0     O70798   6.092   6.948   1.459  0.4721  0.6210  0.4519
  525MOL0     C70799   6.218   6.895   1.484 -0.0346 -0.0579  0.1413
  525MOL0     C70800   6.315   7.017   1.493 -0.5361 -0.3181  0.7281
  525MOL0     C70801   6.465   6.977   1.495  0.4350 -0.3126  0.5387
  525MOL0     C70802   6.569   7.095   1.492  0.2079 -0.6208  0.1039
  525MOL0     C70803   6.707   7.055   1.487  0.2420  0.3383 -1.3510
  525MOL0     C70804   6.821   7.018   1.510 -0.4093 -1.9420 -0.0565
  525MOL0     C70805   6.117   6.932   1.216 -1.0094  0.9054  0.6791
  525MOL0     C70806   6.058   6.930   1.087 -0.9488 -0.2658 -0.8516
  525MOL0     C70807   6.149   6.925   0.976  0.3385  0.0691  0.4447
  525MOL0     H70808   5.756   7.027   0.710 -0.5649 -1.4461  0.0070
  525MOL0     H70809   5.586   7.025   0.523 -1.5071  0.8353 -0.3457
  525MOL0     H70810   5.446   6.858   0.438 -0.2196  0.9069  0.0110
  525MOL0     H70811   5.306   6.778   0.505  1.8891 -1.5371 -0.6827
  525MOL0     H70812   5.298   6.821   0.260  0.3393 -0.3241  0.9088
  525MOL0     H70813   5.302   6.990   0.278  5.5563 -1.9367  0.0207
  525MOL0     H70814   5.075   6.940   0.238  2.7437 -0.7661 -1.4349
  525MOL0     H70815   5.071   6.961   0.405 -0.9136 -0.7029  0.1631
  525MOL0     H70816   5.099   6.688   0.286  0.1508  2.3121 -1.8854
  525MOL0     H70817   5.073   6.728   0.453  2.4535 -1.7364 -0.5227
  525MOL0     H70818   4.845   6.825   0.350  0.9236  1.2082  2.0518
  525MOL0     H70819   4.905   6.767   0.191 -2.2278 -0.7437  0.8784
  525MOL0     H70820   4.939   6.539   0.338  0.0098 -0.0682 -0.5837
  525MOL0     H70821   4.828   6.609   0.452 -2.8415 -0.0619 -0.9816
  525MOL0     H70822   4.762   6.439   0.279 -0.7859 -0.5616 -3.1550
  525MOL0     H70823   4.765   6.568   0.163  2.2608 -1.6837  0.5980
  525MOL0     H70824   4.609   6.544   0.424  0.1529  3.7675  1.7490
  525MOL0     H70825   4.611   6.701   0.347  1.0151  0.3707 -0.9678
  525MOL0     H70826   4.401   6.725   0.164  0.9946  0.5604 -2.0223
  525MOL0     H70827   4.233   6.502  -0.061 -2.0822  1.6226 -2.2874
  525MOL0     H70828   4.104   6.476   0.048 -0.8032  1.5948  1.6539
  525MOL0     H70829   4.124   6.739   0.094 -1.2566  1.0960  0.1945
  525MOL0     H70830   4.239   6.731  -0.045  0.4583 -1.3040 -1.2143
  525MOL0     H70831   3.946   6.628  -0.021 -0.2304  1.2280 -0.5230
  525MOL0     H70832   4.037   6.611  -0.169  0.4536  0.7313 -1.2103
  525MOL0     H70833   3.966   6.874  -0.049 -0.0298 -0.4997  0.5334
  525MOL0     H70834   3.896   6.808  -0.193 -0.7604 -0.9994  0.7825
  525MOL0     H70835   3.943   6.769  -0.433 -1.9118 -3.8369 -1.6714
  525MOL0     H70836   4.062   6.609  -0.604  0.4874 -0.9494  0.4864
  525MOL0     H70837   4.504   6.319  -0.666 -1.3187  2.5952  1.0305
  525MOL0     H70838   4.601   6.200  -0.844 -2.7601  0.2626 -0.4068
  525MOL0     H70839   4.842   6.190  -1.013 -0.8260  0.1203  2.3013
  525MOL0     H70840   4.685   6.106  -1.028  3.2535 -3.4914 -1.3736
  525MOL0     H70841   4.808   6.036  -1.199  4.5955  1.1546 -1.2579
  525MOL0     H70842   4.690   6.152  -1.273  0.8243  1.0211 -1.6334
  525MOL0     H70843   4.874   6.312  -1.279 -1.3631  0.3805  3.0107
  525MOL0     H70844   4.985   6.201  -1.197  0.4605  1.6359  0.0821
  525MOL0     H70845   5.016   6.060  -1.395  0.1090  0.4435 -0.5369
  525MOL0     H70846   5.040   6.226  -1.434 -0.7428 -0.3260  0.5017
  525MOL0     H70847   4.833   6.226  -1.560 -3.6807 -1.3219 -0.3195
  525MOL0     H70848   4.780   6.076  -1.489 -1.2400  1.3863 -0.7775
  525MOL0     H70849   5.011   6.100  -1.687  0.1046  0.9753  1.1160
  525MOL0     H70850   4.970   5.945  -1.605  1.3897  1.1908  2.6457
  525MOL0     H70851   4.873   5.971  -1.850 -1.2758 -0.5875 -0.3680
  525MOL0     H70852   4.784   6.116  -1.793 -1.7668  0.2434  1.0439
  525MOL0     H70853   4.669   5.965  -1.618  0.6232  1.3005  0.4732
  525MOL0     H70854   4.632   5.921  -1.779 -0.9395 -3.0318  0.6019
  525MOL0     H70855   4.632   6.558  -1.081  1.3224 -1.8046 -0.2243
  525MOL0     H70856   4.530   6.689  -0.899 -2.7926 -0.0638  0.0481
  525MOL0     H70857   4.429   6.650  -0.442 -1.7464 -3.2604  0.8672
  525MOL0     H70858   4.354   6.774  -0.262 -0.9586  1.0585  2.2107
  525MOL0     H70859   5.288   6.957   0.833  1.4209  0.4008  3.5866
  525MOL0     H70860   5.473   6.979   0.998 -0.4974 -1.2384 -0.2100
  525MOL0     H70861   5.743   7.019   1.200  0.0295  2.5080 -1.8342
  525MOL0     H70862   5.864   7.047   1.398  0.9619  1.8637 -0.8509
  525MOL0     H70863   6.253   6.818   1.414 -0.2386  1.1853 -1.3647
  525MOL0     H70864   6.213   6.852   1.585 -2.1602 -2.0982 -0.7607
  525MOL0     H70865   6.287   7.082   1.576 -0.8087 -0.4380  0.7326
  525MOL0     H70866   6.297   7.079   1.405  1.8114 -0.7760 -0.1302
  525MOL0     H70867   6.488   6.912   1.410 -0.1870 -1.2869  1.1013
  525MOL0     H70868   6.481   6.914   1.582 -0.5145  0.8510  1.5934
  525MOL0     H70869   6.559   7.149   1.397 -0.1997 -1.1714 -0.1679
  525MOL0     H70870   6.563   7.161   1.579  6.3261 -0.3600  0.7431
  525MOL0     H70871   6.919   6.995   1.546 -0.4456  1.1333  2.3598
  525MOL0     H70872   6.221   6.905   1.228 -1.6499 -1.2531  1.9127
  525MOL0     H70873   6.147   6.827   0.928  0.7955  0.3374 -0.1241
  525MOL0     H70874   6.121   7.004   0.905 -2.1085 -0.1823  1.0427
  525MOL0     H70875   6.252   6.942   1.007  0.4285 -0.2307  0.3056
  526MOL0     O70876   3.641   4.968   7.711  0.1302  0.0237 -0.2536
  526MOL0     C70877   3.688   4.856   7.711 -0.4200  0.1570 -0.2075
  526MOL0     O70878   3.695   4.772   7.603 -0.2067 -1.3068  0.1396
  526MOL0     C70879   3.613   4.802   7.496  0.0339 -0.2489  0.0818
  526MOL0     C70880   3.686   4.873   7.398 -0.8602 -0.4358 -0.0380
  526MOL0     C70881   3.623   4.904   7.272  1.2039 -0.7031 -0.8641
  526MOL0     C70882   3.487   4.872   7.249 -0.0133 -0.2367 -0.0400
  526MOL0     O70883   3.433   4.905   7.127  0.3220 -0.4451  0.3705
  526MOL0     C70884   3.293   4.891   7.100  0.1748 -0.6820 -0.5091
  526MOL0     C70885   3.250   4.936   6.955 -0.0705  0.0806 -0.0947
  526MOL0     C70886   3.268   5.080   6.929  0.0748 -1.4642  0.4201
  526MOL0     C70887   3.173   5.161   7.017  0.8454 -1.4718 -0.2981
  526MOL0     C70888   3.158   5.308   6.967 -0.2596  0.3580  0.2670
  526MOL0     C70889   3.058   5.388   7.045 -0.2154 -1.0244  0.4616
  526MOL0     C70890   3.042   5.521   6.979  0.0540 -0.5807 -0.8781
  526MOL0     C70891   2.938   5.614   7.050  0.4935 -0.3185 -0.5700
  526MOL0     N70892   3.020   5.695   7.131 -0.0201  0.2477 -1.1313
  526MOL0     C70893   3.098   5.804   7.104 -0.1496  0.2533  0.5033
  526MOL0     C70894   3.158   5.837   7.219  0.7475  0.8036  0.5776
  526MOL0     C70895   3.269   5.936   7.257  0.6520 -0.8439  0.0474
  526MOL0     C70896   3.219   6.090   7.274  0.2926  0.7499 -0.8611
  526MOL0     C70897   3.146   6.112   7.409 -0.2059 -0.7520 -0.1658
  526MOL0     C70898   3.234   6.119   7.533 -0.2931 -0.9407 -0.6357
  526MOL0     O70899   3.319   6.239   7.542 -0.7826  0.6980  0.3292
  526MOL0     C70900   3.328   6.284   7.674  0.5036  0.6739  0.0526
  526MOL0     C70901   3.417   6.221   7.758  0.2829 -0.2473  0.3439
  526MOL0     C70902   3.446   6.287   7.883  0.4867 -0.0905 -0.3904
  526MOL0     C70903   3.365   6.394   7.928 -0.3217 -0.1655 -0.0557
  526MOL0     C70904   3.389   6.458   8.063  0.3631  0.5160 -0.6006
  526MOL0     O70905   3.489   6.406   8.145 -0.7194 -0.4221  0.3552
  526MOL0     C70906   3.497   6.439   8.279  0.5704  0.3079 -0.0326
  526MOL0     C70907   3.619   6.434   8.344 -0.3508  0.2016 -0.5829
  526MOL0     C70908   3.628   6.459   8.479 -1.0262 -0.3676 -0.2132
  526MOL0     C70909   3.511   6.494   8.557  0.1619  1.2831  0.2427
  526MOL0     O70910   3.506   6.529   8.689  0.4445  0.1890  0.2270
  526MOL0     C70911   3.624   6.517   8.762 -0.3427  0.4995 -1.2744
  526MOL0     C70912   3.578   6.590   8.887 -0.7380 -0.2486 -0.6437
  526MOL0     C70913   3.549   6.735   8.868 -0.3016 -0.3277  0.4676
  526MOL0     C70914   3.609   6.825   8.972 -0.4224  1.1646 -0.0309
  526MOL0     C70915   3.756   6.874   8.938 -0.2218 -0.6608 -0.7110
  526MOL0     C70916   3.800   7.014   8.987  0.1774  0.4045  0.2371
  526MOL0     C70917   3.771   7.044   9.139  0.3540  0.1115 -0.2340
  526MOL0     C70918   3.847   6.946   9.228 -0.3311 -0.1012  0.1552
  526MOL0    Cl70919   4.021   6.959   9.180 -0.2677  0.4810  0.3728
  526MOL0     C70920   3.392   6.500   8.489  0.1688 -0.0574  1.2735
  526MOL0     C70921   3.378   6.475   8.351 -0.6482  0.8444  0.2271
  526MOL0     O70922   3.308   6.545   8.095 -0.6136  0.4220  0.1222
  526MOL0     C70923   3.276   6.449   7.841  0.7325  0.3902 -0.5313
  526MOL0     C70924   3.255   6.395   7.716 -0.0522 -0.8468 -0.6010
  526MOL0     N70925   3.111   5.751   7.318 -0.1518  0.4846  0.1093
  526MOL0     N70926   3.028   5.675   7.268 -0.0215  0.0576  1.1140
  526MOL0     C70927   3.417   4.819   7.355  0.5730  0.5157 -0.2580
  526MOL0     C70928   3.475   4.772   7.478  0.0262  0.6074  0.3305
  526MOL0     C70929   3.750   4.815   7.836  0.0848  0.2273 -0.1266
  526MOL0     C70930   3.875   4.759   7.836 -0.4186  0.3542 -0.0860
  526MOL0     C70931   3.934   4.708   7.960 -0.0033  0.3450 -0.2304
  526MOL0     C70932   3.864   4.734   8.084  0.4103 -0.1821 -0.7432
  526MOL0     O70933   3.915   4.703   8.206  0.0864 -0.2323  0.5512
  526MOL0     C70934   4.043   4.779   8.226 -0.7541 -0.5840 -0.0460
  526MOL0     C70935   4.084   4.773   8.373 -0.2441  0.4746  1.0047
  526MOL0     C70936   3.996   4.857   8.475  0.0309  0.1131  0.1225
  526MOL0     C70937   4.023   4.847   8.620  0.5120 -0.4322 -0.3190
  526MOL0     C70938   3.955   4.958   8.697 -0.4573  0.2224  0.7974
  526MOL0     C70939   3.932   5.042   8.781 -0.2851 -0.9344 -0.1328
  526MOL0     C70940   3.747   4.797   8.078  0.3501 -0.7632  0.0221
  526MOL0     C70941   3.678   4.830   7.957 -1.1924 -0.4457  0.4024
  526MOL0     C70942   3.537   4.894   7.971  0.6401 -0.2855 -0.1683
  526MOL0     H70943   3.791   4.893   7.421 -1.2789  1.6660  0.2531
  526MOL0     H70944   3.684   4.951   7.195  3.8372 -1.2648  0.7638
  526MOL0     H70945   3.255   4.790   7.118  0.1185 -0.1910  2.6188
  526MOL0     H70946   3.246   4.959   7.172  1.8821  2.4227 -2.1359
  526MOL0     H70947   3.146   4.917   6.928  0.2883  1.1150 -2.4649
  526MOL0     H70948   3.292   4.873   6.876 -0.6849 -0.8480  0.3040
  526MOL0     H70949   3.245   5.112   6.827  3.3316  1.1837  0.3320
  526MOL0     H70950   3.367   5.126   6.942 -1.5819  2.3399  1.1019
  526MOL0     H70951   3.083   5.102   7.000  1.0208 -2.3098  1.4916
  526MOL0     H70952   3.198   5.163   7.123  1.0652 -1.2061 -0.3516
  526MOL0     H70953   3.258   5.351   6.972  0.3509 -0.9604  0.0173
  526MOL0     H70954   3.136   5.304   6.860  1.7475  1.3404 -0.2173
  526MOL0     H70955   2.959   5.343   7.038 -1.8293  2.0824  1.3743
  526MOL0     H70956   3.088   5.379   7.150 -0.5963 -0.8875  0.5846
  526MOL0     H70957   3.005   5.513   6.877 -3.7277 -1.9905  0.4500
  526MOL0     H70958   3.135   5.580   6.974 -1.6765  2.6479  1.0732
  526MOL0     H70959   2.879   5.678   6.984 -1.8933  3.8148  4.8329
  526MOL0     H70960   2.855   5.568   7.105  0.2788  1.2569  0.4911
  526MOL0     H70961   3.113   5.860   7.012  1.6349 -1.6386 -0.4486
  526MOL0     H70962   3.325   5.897   7.343 -0.2560 -3.4303 -0.4415
  526MOL0     H70963   3.331   5.936   7.167 -1.8927 -1.3207 -1.8261
  526MOL0     H70964   3.314   6.140   7.291  0.0540  0.6297  1.0160
  526MOL0     H70965   3.156   6.117   7.188 -0.3817  0.2920 -0.5173
  526MOL0     H70966   3.077   6.028   7.423 -0.6652 -0.4134 -0.3957
  526MOL0     H70967   3.092   6.206   7.395  1.5003  0.4387  0.8427
  526MOL0     H70968   3.297   6.029   7.531  1.6733  0.2903  1.5760
  526MOL0     H70969   3.181   6.124   7.629  1.2331  0.7330  0.1732
  526MOL0     H70970   3.477   6.133   7.739 -1.0715 -1.2834  0.7356
  526MOL0     H70971   3.523   6.253   7.951 -1.3289  0.8444  2.3034
  526MOL0     H70972   3.705   6.413   8.281 -0.4782  1.1566 -1.1089
  526MOL0     H70973   3.731   6.469   8.511 -0.2980 -0.7239 -2.2821
  526MOL0     H70974   3.661   6.414   8.778  1.2173  1.3113  0.9520
  526MOL0     H70975   3.701   6.578   8.715 -0.1569  1.5091  0.2650
  526MOL0     H70976   3.491   6.538   8.928  0.0896 -2.7287 -1.8372
  526MOL0     H70977   3.647   6.572   8.969  0.2208  0.1590 -1.3382
  526MOL0     H70978   3.581   6.773   8.770 -2.6119  2.6130  0.7051
  526MOL0     H70979   3.441   6.754   8.866 -1.4120 -5.1409 -3.0522
  526MOL0     H70980   3.610   6.779   9.072  4.8896  0.3506 -0.1604
  526MOL0     H70981   3.546   6.914   8.981  0.1287  1.9855 -3.1701
  526MOL0     H70982   3.778   6.862   8.832 -4.6292 -0.2544 -1.8543
  526MOL0     H70983   3.817   6.791   8.976  1.4374 -0.1803 -2.2194
  526MOL0     H70984   3.902   7.041   8.961 -0.1620  0.5930 -0.9391
  526MOL0     H70985   3.744   7.084   8.925 -0.9209 -2.0381 -1.7359
  526MOL0     H70986   3.664   7.044   9.164  0.5364 -0.7908  0.5585
  526MOL0     H70987   3.807   7.144   9.163  0.3852 -0.1127  0.6907
  526MOL0     H70988   3.836   6.974   9.334  0.2857  0.3220  0.1149
  526MOL0     H70989   3.831   6.838   9.228  1.6373 -0.4373  0.8608
  526MOL0     H70990   3.305   6.516   8.551  0.3117  1.8335  1.0567
  526MOL0     H70991   3.275   6.471   8.319 -0.4807 -1.0316 -0.1929
  526MOL0     H70992   3.201   6.520   7.875 -2.9006 -2.2644 -2.3548
  526MOL0     H70993   3.188   6.450   7.651  0.0219  0.9789  0.7520
  526MOL0     H70994   3.312   4.812   7.330  0.3731 -1.3150  0.9320
  526MOL0     H70995   3.415   4.717   7.550  2.3197 -1.8253  0.5194
  526MOL0     H70996   3.933   4.738   7.747 -0.3111  1.2328 -0.2291
  526MOL0     H70997   4.030   4.657   7.965  0.9867  2.1590  4.9353
  526MOL0     H70998   4.035   4.885   8.200 -1.8618 -0.3858  1.0424
  526MOL0     H70999   4.122   4.733   8.166  1.8644  1.9758  1.1706
  526MOL0     H71000   4.180   4.818   8.400 -1.7305  3.7368  1.3093
  526MOL0     H71001   4.086   4.665   8.394 -1.1772  0.0224 -0.9661
  526MOL0     H71002   3.892   4.823   8.468 -1.0383  3.2692 -0.8429
  526MOL0     H71003   4.014   4.961   8.447  1.0747 -0.1703 -0.3206
  526MOL0     H71004   3.983   4.756   8.664 -2.7287 -0.7654 -3.5473
  526MOL0     H71005   4.132   4.859   8.630  0.7665  0.0140 -2.8835
  526MOL0     H71006   3.923   5.122   8.852 -2.7667 -1.8635  0.6776
  526MOL0     H71007   3.709   4.835   8.172 -1.3891  1.9014 -1.6236
  526MOL0     H71008   3.470   4.845   7.899  2.1169 -1.0646 -1.0490
  526MOL0     H71009   3.504   4.884   8.075 -1.6155 -0.6441 -0.8544
  526MOL0     H71010   3.547   5.000   7.949  3.2487 -0.4609 -0.0913
  527MOL0     O71011   8.620   0.254   4.992  0.6925 -0.0441  0.6059
  527MOL0     C71012   8.731   0.197   4.984 -0.6383 -0.6584 -0.3130
  527MOL0     O71013   8.790   0.125   5.089  0.4262 -0.1766  0.5041
  527MOL0     C71014   8.723   0.135   5.209 -0.0417  0.4038  0.0460
  527MOL0     C71015   8.623   0.042   5.245  0.3418  0.3814  0.3574
  527MOL0     C71016   8.545   0.066   5.360  0.1825  0.0804 -0.4406
  527MOL0     C71017   8.587   0.162   5.450 -0.7212  0.6797 -1.1626
  527MOL0     O71018   8.502   0.196   5.555  0.4119 -0.2648 -0.1125
  527MOL0     C71019   8.554   0.178   5.682  0.6265  0.9272  0.1236
  527MOL0     C71020   8.571   0.027   5.709  0.0514  0.3389 -0.0940
  527MOL0     C71021   8.583   0.008   5.863 -0.0314 -0.3236  0.4906
  527MOL0     C71022   8.719   0.042   5.916 -0.1664  0.0739 -0.2991
  527MOL0     C71023   8.713   0.051   6.074 -0.9295 -0.0934 -0.6883
  527MOL0     C71024   8.850   0.041   6.130 -0.0597  1.0597 -0.1196
  527MOL0     C71025   8.858   0.047   6.290 -0.1786 -1.2888  0.1063
  527MOL0     C71026   8.804  -0.075   6.363  0.8912  0.2769 -0.3149
  527MOL0     N71027   8.875  -0.200   6.337  0.1692 -0.6758  0.0605
  527MOL0     C71028   8.997  -0.229   6.401 -0.3436  0.3631  0.6807
  527MOL0     C71029   9.013  -0.360   6.357  0.4286  0.8717  0.4434
  527MOL0     C71030   9.126  -0.444   6.397  0.5176  0.1413  0.4098
  527MOL0     C71031   9.090  -0.574   6.478  0.9936  0.0846  0.2272
  527MOL0     C71032   9.016  -0.689   6.409 -1.9197 -0.7751  0.1711
  527MOL0     C71033   8.870  -0.699   6.445 -0.2048  0.8021  0.0440
  527MOL0     O71034   8.848  -0.745   6.578 -0.1623  0.2653 -0.3184
  527MOL0     C71035   8.734  -0.815   6.598 -0.4753 -0.5696 -0.0857
  527MOL0     C71036   8.755  -0.956   6.636 -0.9720 -1.0220 -0.0959
  527MOL0     C71037   8.644  -1.038   6.652  0.6602 -0.3381  0.5094
  527MOL0     C71038   8.515  -0.986   6.641 -0.5006 -0.1348 -0.3019
  527MOL0     C71039   8.399  -1.076   6.670 -0.4098 -1.3757 -0.0206
  527MOL0     O71040   8.419  -1.193   6.732  0.7918  0.5771 -0.8194
  527MOL0     C71041   8.313  -1.286   6.740  0.7729 -0.1312 -0.0993
  527MOL0     C71042   8.271  -1.374   6.635  0.1904  0.0719 -1.5272
  527MOL0     C71043   8.171  -1.480   6.665 -0.6940 -0.3803  0.1408
  527MOL0     C71044   8.118  -1.494   6.793  0.2768  0.6880  0.5398
  527MOL0     O71045   8.025  -1.593   6.811  0.0690  0.1050 -0.1691
  527MOL0     C71046   7.906  -1.565   6.881 -0.6886  0.7772  0.5112
  527MOL0     C71047   7.837  -1.710   6.866  0.3166 -0.3900 -0.0773
  527MOL0     C71048   7.723  -1.731   6.963  0.5168  0.4712  0.4859
  527MOL0     C71049   7.653  -1.856   6.929  0.6972  0.3551 -0.8514
  527MOL0     C71050   7.538  -1.884   7.016  0.1779 -0.1410 -0.4615
  527MOL0     C71051   7.470  -2.021   7.025 -0.3145 -0.6045 -0.2169
  527MOL0     C71052   7.352  -2.037   6.935  0.0284  0.5569  0.2627
  527MOL0     C71053   7.359  -2.026   6.780 -0.4017 -0.7593 -0.0406
  527MOL0    Cl71054   7.442  -2.174   6.716  0.1029 -0.1497 -0.4145
  527MOL0     C71055   8.154  -1.396   6.880  0.9206 -0.7022  0.0874
  527MOL0     C71056   8.242  -1.293   6.858  0.6338 -0.4629  0.6178
  527MOL0     O71057   8.289  -1.034   6.641 -0.2691 -0.1325  0.7094
  527MOL0     C71058   8.501  -0.848   6.603  0.9449  1.0964  0.9817
  527MOL0     C71059   8.608  -0.764   6.595  0.0477  0.1000  0.6065
  527MOL0     N71060   8.905  -0.397   6.272  0.5621 -0.5781 -0.3941
  527MOL0     N71061   8.823  -0.297   6.261 -0.2679  0.3410  0.5404
  527MOL0     C71062   8.691   0.250   5.415 -0.3067  0.2517  0.1227
  527MOL0     C71063   8.755   0.238   5.291 -0.5240  0.1801 -0.1819
  527MOL0     C71064   8.819   0.214   4.870 -0.5853  0.4609  0.0792
  527MOL0     C71065   8.903   0.109   4.837 -1.0164  0.5983 -0.0014
  527MOL0     C71066   9.004   0.115   4.736 -1.0202 -0.5949 -0.6646
  527MOL0     C71067   9.013   0.222   4.652  0.3209 -0.9788 -0.6272
  527MOL0     O71068   9.089   0.236   4.548  0.2390 -0.5044  0.0693
  527MOL0     C71069   9.174   0.129   4.502  0.8141 -0.4523 -0.7034
  527MOL0     C71070   9.280   0.185   4.403 -0.3904  0.8088 -0.9178
  527MOL0     C71071   9.377   0.091   4.333  0.9986 -1.5596  0.1994
  527MOL0     C71072   9.437   0.139   4.197  0.2901  0.7182 -0.8842
  527MOL0     C71073   9.425   0.280   4.173  0.0797  0.3050  1.0345
  527MOL0     C71074   9.434   0.401   4.181 -1.4639  0.1684 -0.4959
  527MOL0     C71075   8.910   0.324   4.674 -0.8766 -0.0688  0.5173
  527MOL0     C71076   8.811   0.319   4.771  0.1972 -0.4152  1.0411
  527MOL0     C71077   8.718   0.447   4.771  0.1890  0.2897 -0.9738
  527MOL0     H71078   8.580  -0.026   5.172 -0.8699 -0.1573  1.5428
  527MOL0     H71079   8.462   0.009   5.400  1.4069 -0.5523  1.3344
  527MOL0     H71080   8.644   0.237   5.701  0.1390  1.7887 -0.2177
  527MOL0     H71081   8.488   0.211   5.763  1.5837  2.5429  0.2973
  527MOL0     H71082   8.655  -0.020   5.658 -0.4273 -0.6428 -0.0107
  527MOL0     H71083   8.479  -0.024   5.677  0.5730 -0.6395 -0.0931
  527MOL0     H71084   8.571  -0.099   5.881  3.1336 -0.8844  0.0017
  527MOL0     H71085   8.499   0.062   5.906  1.0100  0.7522  1.2624
  527MOL0     H71086   8.796  -0.025   5.877  3.7428  5.6734 -3.6582
  527MOL0     H71087   8.754   0.138   5.876  0.1554  0.3538  0.6392
  527MOL0     H71088   8.677   0.153   6.095  2.4517  0.9466  0.7646
  527MOL0     H71089   8.643  -0.018   6.121 -2.4539  2.3531  0.8945
  527MOL0     H71090   8.892  -0.055   6.100  0.8327  1.3979  0.0027
  527MOL0     H71091   8.919   0.115   6.088  0.2320  1.4869  1.0840
  527MOL0     H71092   8.820   0.140   6.332  1.0522 -1.8928  2.7311
  527MOL0     H71093   8.960   0.052   6.328 -0.7589 -1.5885  1.8129
  527MOL0     H71094   8.797  -0.051   6.470  0.9918  0.8037 -0.4223
  527MOL0     H71095   8.704  -0.101   6.327  1.3030 -0.5476 -0.8725
  527MOL0     H71096   9.050  -0.164   6.470 -0.2878  1.9223 -0.7538
  527MOL0     H71097   9.185  -0.471   6.309 -0.7004  0.0001 -0.3801
  527MOL0     H71098   9.187  -0.381   6.463  0.0447  0.3195  0.6829
  527MOL0     H71099   9.188  -0.601   6.519  1.4989  1.3135 -0.1248
  527MOL0     H71100   9.037  -0.539   6.568  0.2374 -1.9647  0.6252
  527MOL0     H71101   9.071  -0.782   6.428 -0.4295 -0.0485 -0.4601
  527MOL0     H71102   9.028  -0.681   6.301 -1.7077 -3.0246 -0.0258
  527MOL0     H71103   8.815  -0.756   6.369  3.7023 -3.0807 -0.2304
  527MOL0     H71104   8.824  -0.600   6.440 -3.0491 -0.4669 -1.8681
  527MOL0     H71105   8.857  -0.987   6.652 -0.7832  0.5224  2.4837
  527MOL0     H71106   8.653  -1.144   6.676 -2.3865 -0.1114  3.3283
  527MOL0     H71107   8.339  -1.389   6.551  2.3278  1.3069 -0.1340
  527MOL0     H71108   8.140  -1.542   6.581 -1.2307  1.3107 -0.9447
  527MOL0     H71109   7.933  -1.547   6.986  2.3668  4.8168 -0.7495
  527MOL0     H71110   7.840  -1.492   6.834 -1.4284  0.1650  0.5668
  527MOL0     H71111   7.805  -1.715   6.761 -1.1598  0.3730  0.3165
  527MOL0     H71112   7.912  -1.789   6.852  1.7592  0.9019  0.0876
  527MOL0     H71113   7.775  -1.742   7.058 -0.7866 -0.2630  1.1381
  527MOL0     H71114   7.654  -1.647   6.966 -0.2106 -0.1318  1.3567
  527MOL0     H71115   7.723  -1.934   6.959  0.4292  0.8121  1.0700
  527MOL0     H71116   7.635  -1.860   6.821 -1.7572  1.9525 -0.5997
  527MOL0     H71117   7.459  -1.809   7.006 -1.1998 -1.6046 -0.9524
  527MOL0     H71118   7.574  -1.877   7.119 -1.0252 -1.1846  0.0559
  527MOL0     H71119   7.546  -2.099   7.033  1.9875  1.5260 -0.1475
  527MOL0     H71120   7.417  -2.010   7.121 -0.4215  0.9978 -0.4355
  527MOL0     H71121   7.284  -1.954   6.958  1.3603  1.9427 -0.6570
  527MOL0     H71122   7.300  -2.129   6.963 -0.9809  1.4197  1.3087
  527MOL0     H71123   7.260  -2.016   6.736 -1.0463 -0.0710  1.4776
  527MOL0     H71124   7.412  -1.937   6.746 -2.4137 -0.0175 -1.4037
  527MOL0     H71125   8.102  -1.385   6.975 -0.3060 -0.9431 -0.5264
  527MOL0     H71126   8.254  -1.218   6.935  2.8523 -0.0198 -0.0811
  527MOL0     H71127   8.403  -0.805   6.587  1.4635  1.6895 -0.8387
  527MOL0     H71128   8.597  -0.662   6.558  0.7234  0.8777  2.4266
  527MOL0     H71129   8.721   0.324   5.488 -0.1824  1.3399 -0.9902
  527MOL0     H71130   8.843   0.298   5.271 -0.9783  0.7089 -0.6097
  527MOL0     H71131   8.899   0.023   4.903 -0.0092 -0.2124 -0.9442
  527MOL0     H71132   9.077   0.036   4.739 -2.5930 -2.1461 -1.4433
  527MOL0     H71133   9.109   0.061   4.446 -1.5227  1.2117 -0.1644
  527MOL0     H71134   9.226   0.078   4.583  1.3047 -0.7930 -1.2180
  527MOL0     H71135   9.336   0.271   4.439 -1.1395  1.1596 -0.5684
  527MOL0     H71136   9.223   0.225   4.318 -1.1701  1.9209  0.0992
  527MOL0     H71137   9.328  -0.005   4.316  0.6523 -1.0413 -2.1511
  527MOL0     H71138   9.459   0.089   4.406  0.6455  0.7615  0.7426
  527MOL0     H71139   9.542   0.114   4.208  0.1879  0.9329  0.8750
  527MOL0     H71140   9.393   0.086   4.112 -0.9786  0.5806 -0.1658
  527MOL0     H71141   9.457   0.505   4.192 -2.2045  0.3970 -1.0669
  527MOL0     H71142   8.913   0.414   4.613 -1.3176  1.0992  2.1465
  527MOL0     H71143   8.612   0.424   4.758 -0.0047 -0.3109  1.2993
  527MOL0     H71144   8.726   0.502   4.866  1.9117 -0.1128 -0.8498
  527MOL0     H71145   8.728   0.515   4.686 -0.2226  0.0357 -1.2255
  528MOL0     O71146   8.481   4.745   0.826  0.5882  0.3038  0.9765
  528MOL0     C71147   8.480   4.688   0.937  0.0630  0.2341  0.3158
  528MOL0     O71148   8.502   4.550   0.952 -0.5496 -0.6829  0.6971
  528MOL0     C71149   8.541   4.491   0.833  0.4199  0.1731 -0.2106
  528MOL0     C71150   8.656   4.413   0.850  0.4908 -0.3928  1.1126
  528MOL0     C71151   8.711   4.343   0.738 -0.2188 -0.0339 -0.4918
  528MOL0     C71152   8.637   4.326   0.622 -0.5686 -0.5046 -1.2709
  528MOL0     O71153   8.677   4.256   0.513  0.1726  0.3939 -0.4375
  528MOL0     C71154   8.768   4.142   0.536  0.6935  0.0511  0.0610
  528MOL0     C71155   8.758   4.064   0.405 -1.1116  0.4326 -0.2451
  528MOL0     C71156   8.644   3.964   0.379  0.6361  0.8483  0.7429
  528MOL0     C71157   8.656   3.893   0.241  0.3376  0.2093  0.3688
  528MOL0     C71158   8.523   3.830   0.189 -0.5636  0.1317  0.0936
  528MOL0     C71159   8.541   3.750   0.058 -0.4079  0.7433  0.3002
  528MOL0     C71160   8.419   3.740  -0.039 -0.3359 -0.3429 -0.9737
  528MOL0     C71161   8.408   3.876  -0.110  0.0309  0.4930 -0.7878
  528MOL0     N71162   8.324   3.856  -0.239  0.3459  0.0869  0.0370
  528MOL0     C71163   8.370   3.787  -0.348 -0.0079  0.2505 -0.9249
  528MOL0     C71164   8.262   3.803  -0.438 -0.3009  0.9330  1.2602
  528MOL0     C71165   8.255   3.727  -0.571  0.8224 -0.4699 -0.2745
  528MOL0     C71166   8.238   3.573  -0.537  1.5587 -1.0250  0.2018
  528MOL0     C71167   8.130   3.550  -0.432  0.5544  0.6299 -0.0251
  528MOL0     C71168   8.101   3.408  -0.397  0.3218  0.9023  0.5463
  528MOL0     O71169   7.971   3.393  -0.347 -0.8836 -0.2190  0.4581
  528MOL0     C71170   7.937   3.280  -0.284  0.4147  0.3026  0.5690
  528MOL0     C71171   7.818   3.287  -0.221  0.7996 -1.3841 -0.4650
  528MOL0     C71172   7.768   3.188  -0.139  0.2055 -0.6162  0.4511
  528MOL0     C71173   7.854   3.071  -0.126  0.1139  0.4851 -0.7331
  528MOL0     C71174   7.798   2.971  -0.034 -0.8301  0.9844 -0.3656
  528MOL0     O71175   7.725   3.019   0.074 -0.2001  0.2042  0.6383
  528MOL0     C71176   7.643   2.937   0.142  0.1891  0.0687  0.7393
  528MOL0     C71177   7.520   3.002   0.169  0.0738 -0.5987 -0.1191
  528MOL0     C71178   7.433   2.948   0.267 -0.5617  0.8798 -0.6185
  528MOL0     C71179   7.466   2.838   0.346  0.5499  0.6558  0.2413
  528MOL0     O71180   7.382   2.777   0.437 -0.2413 -0.0314 -0.9664
  528MOL0     C71181   7.333   2.647   0.414  0.9270 -0.5519 -0.8324
  528MOL0     C71182   7.264   2.639   0.277 -0.0543 -0.8582  0.7640
  528MOL0     C71183   7.143   2.723   0.263  1.0687  0.4082 -0.0260
  528MOL0     C71184   7.109   2.776   0.123  0.4991 -0.3147 -0.0355
  528MOL0     C71185   7.065   2.926   0.121  0.3764 -0.7388  0.9531
  528MOL0     C71186   6.993   2.945  -0.015 -0.3976 -2.1052 -0.6586
  528MOL0     C71187   6.965   3.099  -0.034  1.0128  0.5129  0.7117
  528MOL0     C71188   6.858   3.124  -0.149  0.3903 -0.3481 -0.5183
  528MOL0    Cl71189   6.705   3.038  -0.119 -0.3268 -0.5224  0.0014
  528MOL0     C71190   7.585   2.765   0.319  0.0142  0.1876 -0.7525
  528MOL0     C71191   7.667   2.806   0.210  0.1264 -0.6303  0.0923
  528MOL0     O71192   7.806   2.852  -0.064 -0.5472 -0.8616 -0.8153
  528MOL0     C71193   7.979   3.064  -0.185 -0.1416 -0.5508  0.3379
  528MOL0     C71194   8.022   3.163  -0.274  0.3892  0.1505  0.0473
  528MOL0     N71195   8.160   3.865  -0.383  0.2648  1.0602 -0.2380
  528MOL0     N71196   8.205   3.905  -0.270 -0.2873  0.3930  0.0913
  528MOL0     C71197   8.515   4.387   0.615  0.8152  0.9710  0.6074
  528MOL0     C71198   8.463   4.467   0.714  0.5142  0.8792 -0.3879
  528MOL0     C71199   8.489   4.764   1.068 -0.8613  0.5574 -0.7693
  528MOL0     C71200   8.512   4.687   1.197  0.3747  0.1446 -0.1582
  528MOL0     C71201   8.518   4.744   1.321 -0.4855 -0.4286 -0.3388
  528MOL0     C71202   8.511   4.884   1.326  0.1282 -0.0478  0.8005
  528MOL0     O71203   8.529   4.959   1.435 -0.7345  0.6098 -0.4708
  528MOL0     C71204   8.529   4.908   1.566  0.3051  0.2918 -1.1509
  528MOL0     C71205   8.521   5.035   1.663  0.5107 -0.5704  0.5144
  528MOL0     C71206   8.502   5.000   1.813  0.3011 -0.7374 -0.3447
  528MOL0     C71207   8.611   4.911   1.864  0.9491  0.6684 -0.1155
  528MOL0     C71208   8.576   4.852   1.996  0.9766  0.0701 -0.7400
  528MOL0     C71209   8.561   4.779   2.087 -0.7269 -0.1096 -1.2423
  528MOL0     C71210   8.498   4.956   1.211  0.0183  0.3552 -0.4892
  528MOL0     C71211   8.492   4.900   1.082  0.5482  0.5634  0.2475
  528MOL0     C71212   8.493   5.001   0.969 -0.5759 -0.3267 -1.0169
  528MOL0     H71213   8.721   4.411   0.937  1.1512  0.9708  0.6829
  528MOL0     H71214   8.805   4.291   0.749 -1.4131 -2.7842 -2.2901
  528MOL0     H71215   8.872   4.157   0.568  0.2196  0.6357  1.3848
  528MOL0     H71216   8.715   4.072   0.602 -1.7458  0.1676 -1.6431
  528MOL0     H71217   8.848   4.001   0.396 -1.1911 -0.0588  1.8711
  528MOL0     H71218   8.762   4.130   0.318  0.6613 -2.0129 -2.1855
  528MOL0     H71219   8.547   4.014   0.385 -0.7573 -1.6216  0.1401
  528MOL0     H71220   8.628   3.887   0.455 -1.8846 -0.2238 -0.7697
  528MOL0     H71221   8.686   3.958   0.158 -0.4935 -1.4230 -1.2968
  528MOL0     H71222   8.737   3.820   0.248 -0.5335 -1.0923 -1.9757
  528MOL0     H71223   8.478   3.780   0.275  0.4620  1.8273  1.6870
  528MOL0     H71224   8.469   3.922   0.162  1.3231  1.6315  1.1849
  528MOL0     H71225   8.628   3.802   0.016  1.5971 -1.5761  1.3645
  528MOL0     H71226   8.562   3.647   0.087 -1.2836  0.6883  0.7837
  528MOL0     H71227   8.332   3.726   0.026  0.9955  2.5593  1.6863
  528MOL0     H71228   8.433   3.668  -0.120 -0.8876  0.6018 -1.9357
  528MOL0     H71229   8.359   3.950  -0.047 -0.1556  0.9327 -1.4332
  528MOL0     H71230   8.507   3.917  -0.129  1.1022 -1.1421  0.8834
  528MOL0     H71231   8.454   3.718  -0.347 -0.5814 -0.5065  0.5856
  528MOL0     H71232   8.179   3.758  -0.644 -0.6145 -3.7612 -0.3589
  528MOL0     H71233   8.347   3.741  -0.628  1.6443 -5.2625 -0.5391
  528MOL0     H71234   8.204   3.525  -0.629  1.1108 -0.4331  0.0539
  528MOL0     H71235   8.336   3.535  -0.508  2.5147  0.6177 -0.7671
  528MOL0     H71236   8.041   3.582  -0.487  0.9021  1.6198 -0.0228
  528MOL0     H71237   8.147   3.595  -0.333 -2.4565 -1.1559  1.4570
  528MOL0     H71238   8.179   3.372  -0.329 -0.6678 -3.3503 -0.2274
  528MOL0     H71239   8.114   3.345  -0.486  1.3815  1.8612 -0.0151
  528MOL0     H71240   7.751   3.373  -0.216 -1.2826 -2.9731  0.7999
  528MOL0     H71241   7.680   3.201  -0.078  0.0523 -2.6616  0.7361
  528MOL0     H71242   7.484   3.095   0.126 -0.7314 -0.2345  1.2685
  528MOL0     H71243   7.338   2.995   0.289 -1.8877 -1.5652 -0.7748
  528MOL0     H71244   7.402   2.563   0.414 -0.8863 -2.1614  0.8121
  528MOL0     H71245   7.268   2.630   0.501  1.0873 -0.0513 -0.6101
  528MOL0     H71246   7.329   2.668   0.194 -1.6713 -1.6767 -0.8524
  528MOL0     H71247   7.248   2.535   0.247  1.0394 -1.0373  0.7732
  528MOL0     H71248   7.061   2.667   0.311  3.6239 -3.7715 -0.0398
  528MOL0     H71249   7.163   2.811   0.324 -1.6289  1.0260  0.1104
  528MOL0     H71250   7.025   2.718   0.086 -0.3001 -1.1933  2.8949
  528MOL0     H71251   7.183   2.756   0.045 -1.0884 -1.1877 -1.3969
  528MOL0     H71252   7.155   2.988   0.111  0.1610 -0.6523 -0.7633
  528MOL0     H71253   7.023   2.961   0.215  2.0777  2.0125  0.8191
  528MOL0     H71254   7.047   2.902  -0.099  0.8940  0.2377 -1.1046
  528MOL0     H71255   6.895   2.896  -0.009 -0.4614 -2.0447 -1.1591
  528MOL0     H71256   7.056   3.145  -0.072 -0.3449  0.9942 -2.2907
  528MOL0     H71257   6.928   3.156   0.052 -1.2858  2.2999 -1.2908
  528MOL0     H71258   6.847   3.233  -0.152 -3.3198 -0.3836  3.1740
  528MOL0     H71259   6.893   3.080  -0.244  0.1067 -0.8524 -0.3929
  528MOL0     H71260   7.618   2.678   0.374 -0.2598  1.1359  0.9686
  528MOL0     H71261   7.762   2.759   0.189  0.1522 -0.9036  0.7954
  528MOL0     H71262   8.049   2.983  -0.168  1.2274  0.3117 -0.9222
  528MOL0     H71263   8.118   3.159  -0.325  0.0485 -0.5610 -0.5595
  528MOL0     H71264   8.466   4.363   0.522  1.2718  0.7031  0.4320
  528MOL0     H71265   8.365   4.509   0.699  0.7583  1.0361 -1.6413
  528MOL0     H71266   8.512   4.579   1.194 -1.1751  0.0656  1.3976
  528MOL0     H71267   8.536   4.668   1.397 -0.8756 -1.5649 -1.3484
  528MOL0     H71268   8.614   4.841   1.583 -1.7599 -2.2758 -0.1788
  528MOL0     H71269   8.443   4.844   1.585  0.9357  0.2934  2.3143
  528MOL0     H71270   8.433   5.097   1.642  0.8817  0.3023  1.4189
  528MOL0     H71271   8.607   5.103   1.656 -1.6962  2.2349 -1.8219
  528MOL0     H71272   8.410   4.951   1.848  2.1818 -1.7553  3.9251
  528MOL0     H71273   8.502   5.086   1.881  1.4340  1.3054 -2.7891
  528MOL0     H71274   8.606   4.827   1.794  1.0361  0.9751 -0.4876
  528MOL0     H71275   8.713   4.951   1.857  0.9842  0.3693 -1.6615
  528MOL0     H71276   8.547   4.713   2.171 -3.5761 -0.2877 -1.7534
  528MOL0     H71277   8.486   5.063   1.223  0.0711  0.7966 -3.5643
  528MOL0     H71278   8.413   4.998   0.895 -1.4470 -1.3950 -0.0705
  528MOL0     H71279   8.504   5.102   1.010 -0.2922 -0.5026 -0.6508
  528MOL0     H71280   8.579   4.987   0.903 -0.9967  1.6372 -2.0445
  529MOL0     O71281   2.877   6.700   3.030 -0.5685  0.3457  0.3616
  529MOL0     C71282   2.779   6.727   3.105  0.7284  0.5657 -0.1027
  529MOL0     O71283   2.689   6.841   3.102 -0.4174  0.0342  0.6587
  529MOL0     C71284   2.716   6.919   2.990  0.0925 -0.2091  0.5309
  529MOL0     C71285   2.811   7.022   2.976 -0.1599 -0.3882  0.0881
  529MOL0     C71286   2.841   7.093   2.863 -0.5895  0.2900  0.5453
  529MOL0     C71287   2.761   7.073   2.749  0.2744 -0.2452 -0.0393
  529MOL0     O71288   2.773   7.143   2.632  0.0797 -0.0798  0.1391
  529MOL0     C71289   2.898   7.212   2.614  0.3362  0.7811  0.0272
  529MOL0     C71290   2.889   7.275   2.490 -0.3384  0.5305  0.8703
  529MOL0     C71291   2.989   7.388   2.461 -0.2298 -1.0003 -0.1297
  529MOL0     C71292   3.001   7.499   2.575  0.3735  0.6774  0.2831
  529MOL0     C71293   2.860   7.567   2.583 -0.5643  0.0372 -0.3384
  529MOL0     C71294   2.798   7.625   2.465  0.0897 -0.2302  0.7016
  529MOL0     C71295   2.664   7.698   2.488 -0.1540 -0.1342  0.2099
  529MOL0     C71296   2.557   7.604   2.539  0.0370 -0.8006  0.0983
  529MOL0     N71297   2.428   7.674   2.546  0.1816  0.0067 -0.2641
  529MOL0     C71298   2.306   7.619   2.505  0.0152 -1.2453 -0.0695
  529MOL0     C71299   2.213   7.721   2.504 -0.1731 -0.5175 -0.0482
  529MOL0     C71300   2.064   7.720   2.474  1.0402 -0.0166 -0.0169
  529MOL0     C71301   1.968   7.675   2.589 -0.2633  0.2297  0.0968
  529MOL0     C71302   1.990   7.747   2.732  0.6436  0.2459  1.1036
  529MOL0     C71303   1.961   7.897   2.717  0.0687 -0.3105 -0.3922
  529MOL0     O71304   1.826   7.946   2.695  0.5583 -0.6276  0.0859
  529MOL0     C71305   1.802   8.074   2.736 -0.2769 -0.5388 -0.0797
  529MOL0     C71306   1.878   8.187   2.715  0.3437 -0.0342 -0.5675
  529MOL0     C71307   1.834   8.319   2.741 -0.3504  0.1668  0.1893
  529MOL0     C71308   1.704   8.344   2.759  0.3114 -0.3049 -0.5248
  529MOL0     C71309   1.665   8.487   2.751 -0.9440  0.8444 -0.2058
  529MOL0     O71310   1.761   8.574   2.746 -0.2401  0.2470 -0.8163
  529MOL0     C71311   1.749   8.712   2.743  0.2604  0.3593 -0.3377
  529MOL0     C71312   1.853   8.778   2.667  0.8021  0.6868  0.0311
  529MOL0     C71313   1.860   8.919   2.663 -0.5778  0.0416 -1.7158
  529MOL0     C71314   1.766   9.002   2.725 -1.3223 -0.3897 -0.6374
  529MOL0     O71315   1.767   9.140   2.705  0.5738 -0.0123 -0.5410
  529MOL0     C71316   1.876   9.200   2.755 -0.1569  0.7437 -0.0085
  529MOL0     C71317   1.897   9.345   2.698 -0.4620  1.1890 -0.4788
  529MOL0     C71318   2.026   9.414   2.723 -0.3186  0.1125 -0.5099
  529MOL0     C71319   2.039   9.468   2.869  0.1089 -0.2112 -0.3297
  529MOL0     C71320   2.191   9.489   2.903 -0.6164 -1.2251  0.4388
  529MOL0     C71321   2.264   9.358   2.947  0.5993 -0.6779  0.1831
  529MOL0     C71322   2.412   9.390   2.986  0.5495  0.3373  0.1432
  529MOL0     C71323   2.416   9.473   3.111  1.1938  0.1242 -0.3664
  529MOL0    Cl71324   2.593   9.482   3.151 -0.2120 -0.2122 -0.0602
  529MOL0     C71325   1.664   8.941   2.801  0.6153  0.2375  0.1876
  529MOL0     C71326   1.656   8.799   2.813 -0.7613  0.2109 -0.2200
  529MOL0     O71327   1.549   8.516   2.769 -1.1066  0.3579  0.1375
  529MOL0     C71328   1.620   8.231   2.775  0.7952 -0.7414 -0.4349
  529MOL0     C71329   1.672   8.098   2.771  0.2920 -0.2415 -0.6159
  529MOL0     N71330   2.294   7.832   2.541  0.4866 -0.2961  0.6576
  529MOL0     N71331   2.418   7.808   2.563  0.2063  0.5320 -0.5081
  529MOL0     C71332   2.663   6.972   2.757 -0.0947  0.0638  0.6262
  529MOL0     C71333   2.639   6.903   2.878 -0.0140 -1.2560 -0.3199
  529MOL0     C71334   2.752   6.620   3.197  0.5795 -0.4413 -0.4584
  529MOL0     C71335   2.617   6.569   3.204 -0.4392  1.0875  0.1135
  529MOL0     C71336   2.591   6.454   3.283  0.5021  0.3177 -0.0448
  529MOL0     C71337   2.689   6.390   3.361  0.3728  0.4389 -1.0172
  529MOL0     O71338   2.673   6.264   3.417 -0.9744  0.0042 -0.4312
  529MOL0     C71339   2.546   6.209   3.453 -0.7233  0.3663 -0.0921
  529MOL0     C71340   2.550   6.065   3.513 -0.9184 -0.4720  0.8371
  529MOL0     C71341   2.415   6.023   3.592  0.7538  0.3727  0.3072
  529MOL0     C71342   2.415   6.054   3.739  0.1254 -1.0307  0.2632
  529MOL0     C71343   2.287   6.017   3.790  0.1941  0.1681 -0.4700
  529MOL0     C71344   2.180   5.981   3.835 -0.4008 -0.1067  0.9071
  529MOL0     C71345   2.811   6.466   3.369  0.2843 -0.3114 -1.0222
  529MOL0     C71346   2.846   6.575   3.294 -0.8357 -0.9950 -0.2822
  529MOL0     C71347   2.985   6.627   3.332  0.6197 -0.1782 -0.5077
  529MOL0     H71348   2.868   7.048   3.065 -0.7835 -1.6102  0.8686
  529MOL0     H71349   2.920   7.167   2.862 -1.6912  1.9273 -4.9679
  529MOL0     H71350   2.905   7.293   2.687 -2.2808 -0.5650  1.9416
  529MOL0     H71351   2.983   7.144   2.621 -0.0947 -0.2303 -2.8626
  529MOL0     H71352   2.790   7.321   2.488 -0.8104 -0.4765 -0.3421
  529MOL0     H71353   2.883   7.204   2.407 -4.0006 -1.1353  2.3522
  529MOL0     H71354   2.968   7.443   2.369 -2.0179  2.2873  2.0301
  529MOL0     H71355   3.091   7.349   2.448 -0.0794  0.1003 -2.8987
  529MOL0     H71356   3.044   7.456   2.666  2.5562  1.5446 -0.2722
  529MOL0     H71357   3.076   7.577   2.557  2.2928 -0.9809  0.8247
  529MOL0     H71358   2.789   7.491   2.617  0.8430 -0.8473  0.6990
  529MOL0     H71359   2.857   7.653   2.651  3.5402 -1.8662  2.6819
  529MOL0     H71360   2.864   7.700   2.420 -0.0599 -0.5752 -0.1229
  529MOL0     H71361   2.783   7.551   2.386 -1.9008 -0.2147  1.0216
  529MOL0     H71362   2.633   7.731   2.388 -2.2600 -0.5141  0.6829
  529MOL0     H71363   2.683   7.787   2.548 -0.9835  0.5799 -0.5721
  529MOL0     H71364   2.555   7.524   2.464  0.3697 -0.0734 -0.7037
  529MOL0     H71365   2.574   7.570   2.642  1.0549  0.5723  0.3993
  529MOL0     H71366   2.291   7.514   2.482  0.9466 -1.3228 -0.3522
  529MOL0     H71367   2.039   7.824   2.453 -0.0639  0.4436  3.1027
  529MOL0     H71368   2.040   7.662   2.384 -1.6050  1.3906 -0.3224
  529MOL0     H71369   1.863   7.695   2.567 -0.8740 -2.8441 -0.1710
  529MOL0     H71370   1.986   7.567   2.598 -2.1846 -0.0178  1.3272
  529MOL0     H71371   2.093   7.734   2.767  0.2131 -1.7854  1.7783
  529MOL0     H71372   1.928   7.698   2.808  0.3289 -1.8091 -0.3857
  529MOL0     H71373   2.030   7.920   2.636 -1.2163 -3.6956 -2.6657
  529MOL0     H71374   2.016   7.939   2.802  0.8868 -3.0208  0.5190
  529MOL0     H71375   1.975   8.168   2.671 -1.8848 -5.2300 -4.2804
  529MOL0     H71376   1.903   8.401   2.725 -0.0462 -0.1034  0.1010
  529MOL0     H71377   1.925   8.716   2.615 -2.1883 -1.7001 -1.5984
  529MOL0     H71378   1.937   8.955   2.595  0.9396 -1.4882 -0.8968
  529MOL0     H71379   1.866   9.210   2.864  0.3625 -0.1143  0.1225
  529MOL0     H71380   1.967   9.143   2.735  1.2125  1.9246  2.4324
  529MOL0     H71381   1.885   9.336   2.589 -1.0446 -1.7429 -0.2412
  529MOL0     H71382   1.826   9.416   2.741 -0.5597  1.1271 -0.5369
  529MOL0     H71383   2.098   9.339   2.690 -3.2836 -2.4910 -1.6252
  529MOL0     H71384   2.038   9.502   2.659  1.5499  0.1362 -0.1789
  529MOL0     H71385   1.991   9.406   2.945 -2.1351  1.6322 -0.0989
  529MOL0     H71386   1.984   9.563   2.871 -0.6184 -0.5417 -2.3720
  529MOL0     H71387   2.208   9.573   2.970 -1.5202  0.9181 -1.8612
  529MOL0     H71388   2.242   9.527   2.814 -3.5035  3.4986  0.4715
  529MOL0     H71389   2.201   9.324   3.030  1.9656  0.8597  1.9286
  529MOL0     H71390   2.267   9.294   2.858  1.7208  1.7654 -1.6550
  529MOL0     H71391   2.470   9.441   2.909  1.4572  2.0177  1.8587
  529MOL0     H71392   2.454   9.289   2.999 -1.3963 -0.6337 -0.6106
  529MOL0     H71393   2.365   9.570   3.105 -4.6175 -2.4707  1.1909
  529MOL0     H71394   2.364   9.420   3.191  1.5459 -0.8087 -0.7422
  529MOL0     H71395   1.586   9.004   2.843  1.1191 -1.5144  4.1452
  529MOL0     H71396   1.583   8.763   2.884 -0.7231  0.9718  0.2156
  529MOL0     H71397   1.516   8.259   2.787  1.5159  0.8311  3.4695
  529MOL0     H71398   1.605   8.014   2.787  0.1509  0.1259  0.8433
  529MOL0     H71399   2.603   6.944   2.671  2.5751  0.9054 -1.6925
  529MOL0     H71400   2.567   6.821   2.881  1.6753 -2.7744  0.3332
  529MOL0     H71401   2.540   6.606   3.137  0.2056  0.5991 -0.9166
  529MOL0     H71402   2.494   6.414   3.255  1.3377 -2.2769  0.4251
  529MOL0     H71403   2.477   6.208   3.368 -0.6690 -0.1394 -0.1349
  529MOL0     H71404   2.502   6.271   3.532  1.4763 -0.0193  1.5398
  529MOL0     H71405   2.633   6.058   3.584  0.0042 -1.7358 -0.2961
  529MOL0     H71406   2.569   5.991   3.434 -2.8406 -2.4101  2.0818
  529MOL0     H71407   2.387   5.917   3.595 -1.7662  1.0028  1.0924
  529MOL0     H71408   2.336   6.080   3.544  1.9999  0.5746 -1.6421
  529MOL0     H71409   2.498   6.007   3.792 -0.0738 -1.4257  0.2226
  529MOL0     H71410   2.417   6.163   3.745  0.0941 -0.9236 -1.3847
  529MOL0     H71411   2.081   5.951   3.865 -2.1437  0.2550 -3.7224
  529MOL0     H71412   2.878   6.401   3.425  1.4427  1.7947  0.1511
  529MOL0     H71413   3.014   6.695   3.252 -3.6745  0.7921 -1.4645
  529MOL0     H71414   2.966   6.678   3.426  0.1465  2.4739 -1.9445
  529MOL0     H71415   3.057   6.547   3.353  0.2607 -0.9814 -2.1081
  530MOL0     O71416   6.695   7.772  11.104 -0.0434 -0.2690  0.4508
  530MOL0     C71417   6.600   7.708  11.071  0.0578  1.0359  0.4507
  530MOL0     O71418   6.476   7.707  11.134  0.1756  0.4674  0.8917
  530MOL0     C71419   6.475   7.766  11.256  0.3869 -1.1028 -1.4453
  530MOL0     C71420   6.472   7.675  11.367  0.1961  0.4337 -0.1519
  530MOL0     C71421   6.490   7.727  11.498  0.2748  0.4047  0.2438
  530MOL0     C71422   6.543   7.855  11.514  0.7054 -0.1090  0.3662
  530MOL0     O71423   6.579   7.895  11.641 -0.0390  0.7273  0.2558
  530MOL0     C71424   6.722   7.891  11.660  0.0703  0.0336  0.2134
  530MOL0     C71425   6.771   8.037  11.639 -0.1145 -0.1503  0.2263
  530MOL0     C71426   6.915   8.044  11.683  0.4453 -0.1199 -0.6392
  530MOL0     C71427   6.981   8.164  11.620  0.2813 -0.4567 -0.3796
  530MOL0     C71428   7.134   8.150  11.608  0.0502  0.5923  0.1569
  530MOL0     C71429   7.197   8.293  11.617  0.1054 -0.2753  1.0646
  530MOL0     C71430   7.344   8.286  11.648 -0.1289 -0.1632  0.0634
  530MOL0     C71431   7.405   8.243  11.514  0.9499  0.4061 -0.2824
  530MOL0     N71432   7.551   8.260  11.513  0.6629 -0.3908 -0.1910
  530MOL0     C71433   7.630   8.331  11.419 -1.0712 -0.2920 -0.9534
  530MOL0     C71434   7.762   8.293  11.439  0.2049 -0.0584  0.5044
  530MOL0     C71435   7.883   8.335  11.360 -0.6233  0.1223 -0.3340
  530MOL0     C71436   7.888   8.296  11.215  0.6495 -0.1818  0.1597
  530MOL0     C71437   7.871   8.150  11.180  0.2590  0.6817 -0.5642
  530MOL0     C71438   7.987   8.069  11.236  0.6105 -0.4916 -0.3717
  530MOL0     O71439   7.968   7.925  11.258 -0.1406 -0.0792 -0.1974
  530MOL0     C71440   7.977   7.860  11.135 -0.1294  0.4322 -0.3191
  530MOL0     C71441   7.865   7.847  11.061  0.2100 -0.7100  0.8294
  530MOL0     C71442   7.870   7.779  10.947  0.5579  1.6676  0.0987
  530MOL0     C71443   7.988   7.715  10.901 -0.0269 -0.3369  0.0710
  530MOL0     C71444   7.996   7.649  10.770 -0.0215  0.1315  0.5443
  530MOL0     O71445   8.108   7.579  10.756  0.6207 -0.2922  0.1022
  530MOL0     C71446   8.149   7.553  10.627  0.6970 -0.5730 -0.0847
  530MOL0     C71447   8.070   7.496  10.519 -0.2008  0.6237  0.5812
  530MOL0     C71448   8.118   7.487  10.391 -0.1831 -0.0541 -0.2282
  530MOL0     C71449   8.243   7.526  10.358 -0.9148  0.0883  0.0282
  530MOL0     O71450   8.274   7.524  10.223  0.1408 -1.2015 -0.2040
  530MOL0     C71451   8.358   7.422  10.185  0.5835 -0.2576 -0.3061
  530MOL0     C71452   8.354   7.403  10.033  0.2225 -0.0949 -0.3528
  530MOL0     C71453   8.449   7.294  10.000  0.6784  0.8863 -0.7512
  530MOL0     C71454   8.474   7.302   9.853  0.0766  0.0957 -0.5162
  530MOL0     C71455   8.543   7.174   9.795  0.1543  0.7473  0.5061
  530MOL0     C71456   8.578   7.198   9.648 -0.5242 -0.7530 -0.5175
  530MOL0     C71457   8.649   7.086   9.571  0.1307 -1.2418  1.0032
  530MOL0     C71458   8.669   7.100   9.409 -0.8837 -0.4006  1.6545
  530MOL0    Cl71459   8.518   7.103   9.330  0.0818  0.0630 -0.5877
  530MOL0     C71460   8.332   7.568  10.466  0.4351  0.9250  0.3637
  530MOL0     C71461   8.283   7.576  10.606 -0.6264 -0.9231  0.3227
  530MOL0     O71462   7.907   7.667  10.684 -0.4913  0.2898 -0.0300
  530MOL0     C71463   8.099   7.718  10.988  0.7494  0.1006  0.7231
  530MOL0     C71464   8.095   7.799  11.101  0.0856  0.2148  0.5196
  530MOL0     N71465   7.759   8.195  11.546 -0.2558  0.2108  0.5282
  530MOL0     N71466   7.633   8.190  11.590  0.6591 -0.5567 -0.0652
  530MOL0     C71467   6.528   7.948  11.407  0.2163  0.2211 -0.9579
  530MOL0     C71468   6.496   7.901  11.277 -0.3010 -1.1607  1.1443
  530MOL0     C71469   6.603   7.643  10.941 -0.2598  0.7334 -0.0771
  530MOL0     C71470   6.671   7.701  10.826 -0.3802 -1.3796  0.2228
  530MOL0     C71471   6.679   7.631  10.704 -0.6339 -1.0368 -0.8186
  530MOL0     C71472   6.621   7.503  10.684 -0.3109 -0.1512 -0.3088
  530MOL0     O71473   6.651   7.439  10.570  0.1135  0.8381 -0.3653
  530MOL0     C71474   6.620   7.293  10.579  1.0365 -0.0773  0.0981
  530MOL0     C71475   6.726   7.220  10.669  0.2343  0.1618 -0.2900
  530MOL0     C71476   6.698   7.065  10.679 -0.0349  0.7402  0.2842
  530MOL0     C71477   6.598   7.014  10.781 -0.0477 -0.8186  0.1591
  530MOL0     C71478   6.605   6.869  10.810 -0.6226 -0.2836  0.1922
  530MOL0     C71479   6.606   6.750  10.832 -0.1920 -0.1887 -0.0429
  530MOL0     C71480   6.549   7.449  10.797 -0.4528 -0.0500  0.0961
  530MOL0     C71481   6.535   7.516  10.923  0.6246 -0.6091 -0.4345
  530MOL0     C71482   6.457   7.439  11.033 -0.4951  0.9971  0.0166
  530MOL0     H71483   6.446   7.572  11.342  0.3178  0.4024 -0.1539
  530MOL0     H71484   6.506   7.661  11.583 -1.3096  0.2296  0.4255
  530MOL0     H71485   6.745   7.863  11.763 -1.0184  0.8835  0.7164
  530MOL0     H71486   6.769   7.820  11.592 -1.6924 -1.8881  0.8780
  530MOL0     H71487   6.709   8.105  11.698 -1.5731 -0.8489 -0.4402
  530MOL0     H71488   6.752   8.065  11.535  1.1521 -0.1819 -0.0363
  530MOL0     H71489   6.966   7.957  11.641 -1.7057 -0.8764 -1.8281
  530MOL0     H71490   6.927   8.042  11.792 -2.5055  0.1576 -0.2307
  530MOL0     H71491   6.938   8.189  11.523 -0.6275 -2.9601 -0.7016
  530MOL0     H71492   6.968   8.251  11.684  2.3154  1.3867 -2.3129
  530MOL0     H71493   7.168   8.088  11.691 -1.8272  1.0811  1.3582
  530MOL0     H71494   7.150   8.120  11.504 -3.2776  1.5477 -0.7668
  530MOL0     H71495   7.181   8.350  11.525  2.5214  2.6953  2.3185
  530MOL0     H71496   7.155   8.356  11.696  0.5655 -0.9456  1.8551
  530MOL0     H71497   7.363   8.217  11.731  1.5524 -2.6115 -2.1935
  530MOL0     H71498   7.381   8.387  11.672 -3.6873  0.9111  1.7628
  530MOL0     H71499   7.393   8.135  11.497  0.7329  0.0778  1.6279
  530MOL0     H71500   7.361   8.302  11.434 -0.3624 -0.0312  0.0754
  530MOL0     H71501   7.596   8.408  11.351  0.5361 -0.6002 -2.1613
  530MOL0     H71502   7.910   8.441  11.361 -0.9242  0.2200  1.4185
  530MOL0     H71503   7.970   8.288  11.406 -0.6212 -0.0426 -0.5043
  530MOL0     H71504   7.811   8.358  11.169  2.1175  0.6136 -1.2987
  530MOL0     H71505   7.982   8.321  11.165  1.2693  1.1907  1.8801
  530MOL0     H71506   7.862   8.158  11.071  2.9309 -0.0151 -0.9184
  530MOL0     H71507   7.778   8.117  11.225  0.7071  0.2958  0.0870
  530MOL0     H71508   8.020   8.099  11.336  3.2406  2.4427 -1.9438
  530MOL0     H71509   8.070   8.097  11.171  1.7280 -0.4898  1.0120
  530MOL0     H71510   7.770   7.880  11.102 -1.5234 -3.3097 -0.7901
  530MOL0     H71511   7.784   7.760  10.885 -0.6155  1.5607  1.7075
  530MOL0     H71512   7.967   7.477  10.547 -0.0813  0.3931  0.8772
  530MOL0     H71513   8.047   7.467  10.311  2.1543 -0.6531 -2.2658
  530MOL0     H71514   8.461   7.451  10.207  1.2011  0.0670 -3.2480
  530MOL0     H71515   8.327   7.325  10.224  0.7986  1.0804  3.6101
  530MOL0     H71516   8.255   7.377   9.993  0.6898  0.1652 -1.7315
  530MOL0     H71517   8.380   7.501   9.992 -0.9726  0.5498  0.3474
  530MOL0     H71518   8.540   7.310  10.059  0.8565 -0.1354 -0.7249
  530MOL0     H71519   8.409   7.197  10.031 -0.4119  0.5746 -2.9326
  530MOL0     H71520   8.524   7.396   9.825 -0.8570  0.0481 -2.4966
  530MOL0     H71521   8.375   7.311   9.808 -0.7395  1.9521  1.4783
  530MOL0     H71522   8.473   7.090   9.804  0.0527  0.9669  1.8784
  530MOL0     H71523   8.642   7.161   9.838  1.9577  2.9096 -2.6101
  530MOL0     H71524   8.490   7.217   9.586 -1.5840 -2.1883  0.4755
  530MOL0     H71525   8.648   7.282   9.640  0.5779 -1.7504 -1.8273
  530MOL0     H71526   8.590   6.995   9.584 -2.0151  0.3821  3.9043
  530MOL0     H71527   8.743   7.069   9.626  1.8689 -0.0358 -1.4339
  530MOL0     H71528   8.724   7.187   9.372 -1.4968 -0.8836 -0.5533
  530MOL0     H71529   8.725   7.007   9.394  1.4251  1.2561 -1.1331
  530MOL0     H71530   8.437   7.576  10.438 -0.0271  0.4571 -1.6348
  530MOL0     H71531   8.347   7.616  10.684 -1.8120  2.2467 -0.1617
  530MOL0     H71532   8.182   7.648  10.983  0.3460 -0.3495  0.1649
  530MOL0     H71533   8.179   7.796  11.169 -1.9900 -1.3950  3.2485
  530MOL0     H71534   6.552   8.054  11.418 -1.1039  0.2690  3.6252
  530MOL0     H71535   6.514   7.965  11.192 -1.9409  0.8254  2.2078
  530MOL0     H71536   6.699   7.805  10.833 -3.2196 -0.5169  0.2165
  530MOL0     H71537   6.741   7.669  10.623  0.0252 -2.4381 -0.9942
  530MOL0     H71538   6.627   7.245  10.481 -0.4884  1.8009 -1.0070
  530MOL0     H71539   6.517   7.279  10.616 -1.5773  3.5471 -4.7106
  530MOL0     H71540   6.717   7.255  10.772 -2.0113 -0.9826 -0.0368
  530MOL0     H71541   6.825   7.232  10.622  0.3688 -1.0314 -0.3447
  530MOL0     H71542   6.795   7.021  10.707 -1.3538 -0.7045  3.0705
  530MOL0     H71543   6.675   7.032  10.578  3.1163 -1.5165  0.1221
  530MOL0     H71544   6.620   7.072  10.872 -2.1045 -2.0673  1.5214
  530MOL0     H71545   6.501   7.047  10.745  0.3304  0.9165  0.6477
  530MOL0     H71546   6.591   6.647  10.857 -2.1888 -0.3734 -1.7460
  530MOL0     H71547   6.493   7.358  10.780  1.5394 -1.2542 -0.3610
  530MOL0     H71548   6.354   7.476  11.034 -0.9748 -0.2615 -0.3688
  530MOL0     H71549   6.450   7.338  10.991 -0.2392  1.2758 -0.7146
  530MOL0     H71550   6.516   7.428  11.124  1.0658  3.5637 -0.5608
  531MOL0     O71551   8.541   9.782   4.053 -1.0663 -0.1296  0.3781
  531MOL0     C71552   8.662   9.798   4.056 -0.6751 -0.0837  0.0564
  531MOL0     O71553   8.729   9.898   3.996  0.0023  0.1774  0.0891
  531MOL0     C71554   8.681  10.020   3.983  0.5362 -0.5975 -0.0558
  531MOL0     C71555   8.585  10.076   4.068  0.3875 -0.2385 -0.2602
  531MOL0     C71556   8.536  10.209   4.045  0.0336 -0.0808 -1.0305
  531MOL0     C71557   8.586  10.279   3.937  0.2577 -0.7208 -0.1669
  531MOL0     O71558   8.530  10.409   3.931  0.9520  0.1869  0.2746
  531MOL0     C71559   8.582  10.515   3.853  0.2872 -0.2867  0.4645
  531MOL0     C71560   8.560  10.494   3.693 -0.4163 -0.0818 -0.6818
  531MOL0     C71561   8.416  10.451   3.676  0.6780 -0.1586  0.0842
  531MOL0     C71562   8.358  10.494   3.539  0.0134  0.0564 -0.2824
  531MOL0     C71563   8.220  10.435   3.524  0.1560  0.1046 -0.0656
  531MOL0     C71564   8.116  10.528   3.469 -0.0656 -0.0581  0.3876
  531MOL0     C71565   8.086  10.547   3.319 -0.7514 -0.5349 -0.0592
  531MOL0     C71566   7.940  10.514   3.290 -0.4596  0.5210  0.1517
  531MOL0     N71567   7.914  10.376   3.334  0.2700  0.0210 -0.7448
  531MOL0     C71568   7.832  10.338   3.439 -0.9523  0.0292  0.4600
  531MOL0     C71569   7.843  10.204   3.445 -0.1161  0.5203  0.7888
  531MOL0     C71570   7.783  10.108   3.535  0.0265  0.3849 -0.3239
  531MOL0     C71571   7.659  10.046   3.476 -0.1017 -0.9882  1.0984
  531MOL0     C71572   7.607   9.923   3.548 -0.0811  0.3155  0.0612
  531MOL0     C71573   7.486   9.880   3.469 -0.1550  0.4985  0.4815
  531MOL0     O71574   7.370   9.952   3.512  0.0383  0.3699  0.0938
  531MOL0     C71575   7.250   9.897   3.489  0.4311 -0.4720 -0.1799
  531MOL0     C71576   7.132   9.985   3.508 -0.2980  0.4374 -0.5385
  531MOL0     C71577   7.001   9.933   3.493  0.0811 -0.8511  0.4986
  531MOL0     C71578   6.987   9.805   3.444  0.9217  0.4761 -0.7389
  531MOL0     C71579   6.855   9.758   3.402  0.4512  0.1199  0.2432
  531MOL0     O71580   6.861   9.682   3.298  0.0427  0.6960 -0.0821
  531MOL0     C71581   6.749   9.630   3.243 -0.1307  0.2045  0.0663
  531MOL0     C71582   6.745   9.489   3.236  0.9568  0.1893 -0.0861
  531MOL0     C71583   6.625   9.433   3.173 -0.1862  0.5654 -0.6284
  531MOL0     C71584   6.539   9.513   3.100 -0.5348 -0.0949  0.7001
  531MOL0     O71585   6.430   9.446   3.058  0.1353  0.2644  0.1609
  531MOL0     C71586   6.319   9.512   2.998  0.0689 -1.3868  0.4003
  531MOL0     C71587   6.195   9.417   2.986  0.4227 -0.1266  0.0946
  531MOL0     C71588   6.148   9.352   3.123 -1.0362 -0.8161 -0.2795
  531MOL0     C71589   6.197   9.212   3.150  0.4879 -0.3789  0.1378
  531MOL0     C71590   6.182   9.157   3.288 -0.7197  0.5616 -0.3769
  531MOL0     C71591   6.244   9.012   3.295 -0.8602  0.0903  0.0923
  531MOL0     C71592   6.236   8.955   3.432  0.4568  0.1669  0.4324
  531MOL0     C71593   6.300   8.818   3.433  0.5545  0.8875  0.0913
  531MOL0    Cl71594   6.472   8.820   3.371 -0.0820 -0.0869  0.5517
  531MOL0     C71595   6.559   9.652   3.095  1.0209  0.0364 -0.1199
  531MOL0     C71596   6.656   9.711   3.172 -0.7525 -0.6757 -0.1547
  531MOL0     O71597   6.754   9.775   3.473 -0.0157  0.3009 -0.3030
  531MOL0     C71598   7.109   9.733   3.411  0.8462  0.0290 -0.3837
  531MOL0     C71599   7.234   9.770   3.437 -0.2132 -0.1174 -0.8646
  531MOL0     N71600   7.907  10.170   3.334  0.3586 -1.1328  0.5338
  531MOL0     N71601   7.952  10.270   3.272 -0.2623  0.2026 -0.8789
  531MOL0     C71602   8.685  10.228   3.855  0.4811  0.6905  0.9010
  531MOL0     C71603   8.739  10.097   3.882  0.6813  0.0704 -1.4057
  531MOL0     C71604   8.735   9.676   4.119  0.2836  0.1356  0.2319
  531MOL0     C71605   8.847   9.628   4.043 -0.1771  0.5299 -0.4960
  531MOL0     C71606   8.921   9.515   4.087  0.5328 -0.4786 -0.1318
  531MOL0     C71607   8.890   9.453   4.206 -0.2984  0.7977 -0.3045
  531MOL0     O71608   8.944   9.339   4.250 -0.2548 -0.1769 -0.4713
  531MOL0     C71609   9.060   9.279   4.188 -0.8664 -0.3202 -0.1048
  531MOL0     C71610   9.097   9.145   4.248  0.5395 -0.3131 -0.8407
  531MOL0     C71611   9.078   9.132   4.403 -0.0811  0.4630  1.6557
  531MOL0     C71612   9.124   8.982   4.434  1.2526 -0.8042 -0.5027
  531MOL0     C71613   9.102   8.947   4.583 -0.1270 -0.2078 -0.1665
  531MOL0     C71614   9.081   8.922   4.699 -0.6040  0.2549  0.2406
  531MOL0     C71615   8.787   9.514   4.287 -0.6831  0.2216  0.1975
  531MOL0     C71616   8.701   9.614   4.243 -1.5511  0.5786 -0.0113
  531MOL0     C71617   8.573   9.637   4.336 -0.1971 -0.0901  0.1942
  531MOL0     H71618   8.535  10.010   4.140  0.8475 -1.2883 -0.8793
  531MOL0     H71619   8.457  10.252   4.105  0.6435  0.6893 -0.7611
  531MOL0     H71620   8.535  10.613   3.867  1.3664  0.6277 -1.7285
  531MOL0     H71621   8.689  10.529   3.873  0.1883 -1.8654  2.3784
  531MOL0     H71622   8.620  10.413   3.651 -3.4176 -3.1100  0.3888
  531MOL0     H71623   8.586  10.588   3.643 -0.7251  0.1251 -0.4589
  531MOL0     H71624   8.356  10.484   3.762  0.2553 -2.5363  0.7724
  531MOL0     H71625   8.411  10.342   3.683 -2.9910 -0.0090  3.1437
  531MOL0     H71626   8.349  10.603   3.551 -1.1037  0.0240 -0.6763
  531MOL0     H71627   8.419  10.479   3.450  0.9368  2.7968 -0.2041
  531MOL0     H71628   8.229  10.344   3.463  0.7146 -0.0969  0.3080
  531MOL0     H71629   8.181  10.406   3.622 -0.4051  2.0552  0.3135
  531MOL0     H71630   8.027  10.488   3.520  0.6253  0.8653  2.4103
  531MOL0     H71631   8.122  10.629   3.511 -3.2012  0.4120 -0.0317
  531MOL0     H71632   8.143  10.468   3.269  0.8162 -0.4267  1.4606
  531MOL0     H71633   8.131  10.639   3.279  3.8270 -1.6883  1.8206
  531MOL0     H71634   7.886  10.593   3.344  1.1974  1.0224  1.1307
  531MOL0     H71635   7.916  10.525   3.184 -3.9008 -0.4081  0.6839
  531MOL0     H71636   7.769  10.403   3.499 -1.8357 -0.3515 -0.0466
  531MOL0     H71637   7.854  10.029   3.560 -2.4768 -1.3128  2.0159
  531MOL0     H71638   7.767  10.159   3.630 -1.0586 -0.0382 -0.2630
  531MOL0     H71639   7.576  10.116   3.488 -2.7714 -4.1424  2.8251
  531MOL0     H71640   7.671  10.030   3.368  1.0320  0.1067  1.0453
  531MOL0     H71641   7.587   9.948   3.652  0.0926  2.8140 -0.4558
  531MOL0     H71642   7.687   9.849   3.554  1.4068  1.9845  2.5597
  531MOL0     H71643   7.484   9.778   3.508  2.9758  1.9767  5.3952
  531MOL0     H71644   7.511   9.881   3.362  2.6098 -1.0698  1.0199
  531MOL0     H71645   7.141  10.085   3.549  0.4455  0.2648 -0.2710
  531MOL0     H71646   6.924  10.008   3.509  2.2674  1.9895 -1.3854
  531MOL0     H71647   6.816   9.426   3.290 -1.6378 -3.7167 -0.7978
  531MOL0     H71648   6.599   9.330   3.192  1.1651  0.8016  3.4690
  531MOL0     H71649   6.275   9.589   3.063  2.5743  3.5166 -3.0262
  531MOL0     H71650   6.351   9.548   2.900 -0.2039 -3.9023 -0.6838
  531MOL0     H71651   6.109   9.465   2.938 -2.3794 -1.3231  3.4298
  531MOL0     H71652   6.226   9.343   2.912  3.9220 -1.3596  2.5360
  531MOL0     H71653   6.194   9.415   3.200 -0.7143  0.7892 -1.7323
  531MOL0     H71654   6.039   9.366   3.126 -0.9089  1.2955 -2.4602
  531MOL0     H71655   6.303   9.205   3.122  0.0812 -5.5781 -0.9950
  531MOL0     H71656   6.156   9.140   3.079  2.2268  0.1124 -1.4515
  531MOL0     H71657   6.077   9.166   3.318 -0.1927 -1.7928  2.6294
  531MOL0     H71658   6.228   9.220   3.364 -0.7742 -0.3798  0.4627
  531MOL0     H71659   6.193   8.946   3.224 -0.8376 -0.7565  0.8433
  531MOL0     H71660   6.349   9.032   3.271 -0.8465 -1.1047 -0.9602
  531MOL0     H71661   6.132   8.942   3.463 -0.1247  2.2176 -0.4987
  531MOL0     H71662   6.287   9.026   3.498  3.0657 -1.4132  0.2682
  531MOL0     H71663   6.285   8.782   3.535 -0.9853  0.3813 -0.2871
  531MOL0     H71664   6.235   8.761   3.366 -2.3508  0.1339  3.2561
  531MOL0     H71665   6.498   9.712   3.027 -0.1145 -2.7050 -1.6781
  531MOL0     H71666   6.672   9.818   3.166  1.0432 -0.7963  1.4972
  531MOL0     H71667   7.087   9.637   3.365  1.1681  0.5203 -1.6174
  531MOL0     H71668   7.322   9.713   3.409  1.6651  2.9401 -1.7361
  531MOL0     H71669   8.727  10.286   3.773  0.5334  1.2019  1.2841
  531MOL0     H71670   8.804  10.059   3.804  0.6808  1.1157 -1.9267
  531MOL0     H71671   8.879   9.683   3.955 -0.1031 -0.9972 -1.4547
  531MOL0     H71672   9.001   9.469   4.032 -0.6947 -3.2787  0.2544
  531MOL0     H71673   9.138   9.356   4.189 -3.3033  2.4371  3.1630
  531MOL0     H71674   9.052   9.258   4.081  2.5166 -0.2831 -0.4837
  531MOL0     H71675   9.199   9.122   4.216  1.8493  0.0083  2.6643
  531MOL0     H71676   9.035   9.068   4.202  1.9649 -0.7243 -2.1463
  531MOL0     H71677   8.973   9.154   4.426 -0.9894 -3.3935  1.8123
  531MOL0     H71678   9.149   9.199   4.452 -0.9750  0.3297  3.1860
  531MOL0     H71679   9.063   8.916   4.373 -0.6466 -0.4249  0.8813
  531MOL0     H71680   9.227   8.975   4.397  1.7746  1.4276  0.3226
  531MOL0     H71681   9.070   8.905   4.804  1.7781  3.9011  1.2670
  531MOL0     H71682   8.764   9.475   4.385 -0.8546  3.0833  1.3894
  531MOL0     H71683   8.521   9.729   4.308 -0.4477 -0.6823 -1.3933
  531MOL0     H71684   8.498   9.557   4.341 -1.5488  1.2033  2.0854
  531MOL0     H71685   8.603   9.644   4.441  1.9166 -1.6257 -0.2513
  532MOL0     O71686   0.808   6.711   1.115 -0.4210 -0.6806 -0.5007
  532MOL0     C71687   0.742   6.794   1.054  0.2250 -0.8649  0.7135
  532MOL0     O71688   0.651   6.881   1.105  0.8525 -0.1885  1.1207
  532MOL0     C71689   0.643   6.886   1.241  0.2241 -0.7877 -0.0496
  532MOL0     C71690   0.726   6.970   1.320  0.1735 -0.4281  0.1473
  532MOL0     C71691   0.705   6.979   1.462 -0.3241  0.1451  0.9508
  532MOL0     C71692   0.606   6.895   1.520 -1.8849 -0.2313  0.2180
  532MOL0     O71693   0.605   6.889   1.658 -0.0562 -0.4636  0.2263
  532MOL0     C71694   0.675   6.763   1.711 -0.7100  0.3394 -0.4696
  532MOL0     C71695   0.647   6.743   1.854 -0.2566  0.8817 -0.2274
  532MOL0     C71696   0.756   6.679   1.942  0.0436 -0.5292  0.1362
  532MOL0     C71697   0.755   6.758   2.080  0.2225  0.2416  1.1563
  532MOL0     C71698   0.839   6.697   2.199  0.0339 -0.2921  0.1966
  532MOL0     C71699   0.837   6.786   2.328 -0.6500 -0.2883 -0.0343
  532MOL0     C71700   0.972   6.769   2.394 -0.2322 -1.0271  0.1901
  532MOL0     C71701   0.991   6.877   2.498  0.1939  0.0216 -0.1105
  532MOL0     N71702   0.995   7.014   2.441 -0.5646 -0.1486 -0.1730
  532MOL0     C71703   1.106   7.069   2.386  0.2043  0.6923 -0.6951
  532MOL0     C71704   1.069   7.191   2.361 -0.4288 -0.2804  0.8360
  532MOL0     C71705   1.159   7.297   2.291  0.1349 -0.3149 -0.1051
  532MOL0     C71706   1.220   7.248   2.163 -0.1840  0.3010 -0.1558
  532MOL0     C71707   1.310   7.340   2.093 -0.6175 -0.0135  0.2314
  532MOL0     C71708   1.419   7.397   2.170  0.1547  0.0925 -0.9319
  532MOL0     O71709   1.523   7.423   2.084 -0.6428  0.0125  0.1824
  532MOL0     C71710   1.642   7.376   2.144 -0.8748 -0.1818  0.4327
  532MOL0     C71711   1.718   7.450   2.230 -0.3264  0.1356  0.8943
  532MOL0     C71712   1.844   7.404   2.271 -0.3124 -0.1307  0.7624
  532MOL0     C71713   1.887   7.280   2.225  0.5029 -0.6806 -0.1976
  532MOL0     C71714   2.023   7.227   2.262  0.2543 -0.3195 -0.2613
  532MOL0     O71715   2.110   7.320   2.299  0.4052  0.2832  0.1440
  532MOL0     C71716   2.247   7.298   2.279  0.6880 -0.2896 -0.3751
  532MOL0     C71717   2.296   7.265   2.153  0.6822  0.0750  0.9083
  532MOL0     C71718   2.420   7.192   2.139 -0.2928 -1.0939 -0.9102
  532MOL0     C71719   2.500   7.161   2.251  0.3810  0.1443  0.1239
  532MOL0     O71720   2.628   7.120   2.252  0.0820 -0.1203  0.1921
  532MOL0     C71721   2.666   7.023   2.153  0.6657 -0.1362 -0.1309
  532MOL0     C71722   2.815   7.011   2.153 -0.4139  0.0224  0.7091
  532MOL0     C71723   2.883   7.138   2.083  0.0570 -0.5456 -0.0160
  532MOL0     C71724   3.032   7.120   2.104 -0.3159  0.5758 -0.1017
  532MOL0     C71725   3.108   7.241   2.047 -0.6653  0.6619  0.5318
  532MOL0     C71726   3.252   7.252   2.101  0.2922 -0.2826  0.5371
  532MOL0     C71727   3.359   7.157   2.056  0.2593  0.8565  0.4227
  532MOL0     C71728   3.499   7.192   2.104 -0.1296  0.1113 -0.1587
  532MOL0    Cl71729   3.589   7.056   2.043  0.1539  0.2693  0.2877
  532MOL0     C71730   2.437   7.200   2.379 -0.7587 -0.5648 -0.2035
  532MOL0     C71731   2.313   7.251   2.389 -0.0086  0.3206  0.8990
  532MOL0     O71732   2.056   7.113   2.221  0.5837  0.2684 -0.7939
  532MOL0     C71733   1.814   7.217   2.127 -0.5929  0.3669 -0.4152
  532MOL0     C71734   1.691   7.262   2.092  0.7126  0.0550 -0.1693
  532MOL0     N71735   0.940   7.213   2.411  0.3271  0.5268  0.2682
  532MOL0     N71736   0.903   7.108   2.474 -0.3773 -0.3471  0.4656
  532MOL0     C71737   0.534   6.811   1.447  0.6153  0.0180 -0.3776
  532MOL0     C71738   0.551   6.806   1.309 -0.6062 -0.3905 -0.8790
  532MOL0     C71739   0.707   6.762   0.913 -0.0883  0.0284 -0.9009
  532MOL0     C71740   0.583   6.794   0.865  0.3326  0.1601 -0.1874
  532MOL0     C71741   0.556   6.790   0.733 -0.2929 -0.1453 -0.1076
  532MOL0     C71742   0.658   6.762   0.642  0.9095 -1.0236  0.6683
  532MOL0     O71743   0.644   6.779   0.504  0.6291  0.4759  0.0247
  532MOL0     C71744   0.521   6.723   0.442 -0.0866 -0.0269 -0.1587
  532MOL0     C71745   0.500   6.575   0.453 -1.4891  1.0682  0.3889
  532MOL0     C71746   0.602   6.482   0.392 -0.3398  0.1181 -0.2031
  532MOL0     C71747   0.572   6.333   0.418  0.5232  0.2784  0.0855
  532MOL0     C71748   0.623   6.291   0.546 -0.7611  0.7492  0.0823
  532MOL0     C71749   0.690   6.255   0.639  1.1791  0.1033  0.9251
  532MOL0     C71750   0.781   6.724   0.688 -0.0671  0.3866  0.5869
  532MOL0     C71751   0.808   6.716   0.827  0.5284  0.1209  0.2160
  532MOL0     C71752   0.948   6.693   0.870  0.4301  0.4136 -0.0174
  532MOL0     H71753   0.806   7.024   1.271 -1.2648  0.7884 -0.9303
  532MOL0     H71754   0.764   7.050   1.520  0.1952  1.5819 -1.1970
  532MOL0     H71755   0.635   6.678   1.654  1.6435 -0.7880 -0.5209
  532MOL0     H71756   0.783   6.764   1.701 -0.7670 -2.9874 -3.5974
  532MOL0     H71757   0.551   6.693   1.870 -0.3268  1.6154  2.0821
  532MOL0     H71758   0.630   6.843   1.895 -0.5243 -0.6366  3.8332
  532MOL0     H71759   0.852   6.710   1.900 -0.2727  1.2563  0.6705
  532MOL0     H71760   0.745   6.571   1.951  2.7211 -0.8829  0.0832
  532MOL0     H71761   0.784   6.861   2.057  2.2214 -0.3725  0.7349
  532MOL0     H71762   0.656   6.772   2.124  0.6941  0.1159  2.3035
  532MOL0     H71763   0.799   6.600   2.228  0.3486 -0.8853 -1.2790
  532MOL0     H71764   0.937   6.667   2.161 -0.1951 -0.6359 -0.1221
  532MOL0     H71765   0.820   6.892   2.308 -0.2533 -0.4503 -1.3841
  532MOL0     H71766   0.752   6.762   2.392 -0.5206 -3.4689 -0.8572
  532MOL0     H71767   1.058   6.796   2.331  1.1533  1.3763  2.8865
  532MOL0     H71768   0.986   6.671   2.439 -0.6571 -1.6925 -1.0561
  532MOL0     H71769   0.915   6.868   2.576 -1.1544  0.2526 -1.3456
  532MOL0     H71770   1.084   6.872   2.555  0.2092  1.8784  0.1150
  532MOL0     H71771   1.193   7.018   2.346  0.7646 -0.0201  1.3069
  532MOL0     H71772   1.099   7.385   2.266 -1.0462 -0.8072  0.9223
  532MOL0     H71773   1.245   7.319   2.355  1.1253  0.2483 -1.5871
  532MOL0     H71774   1.278   7.159   2.189 -1.5956 -1.0684 -1.4448
  532MOL0     H71775   1.139   7.223   2.093 -3.5063  2.3547  2.5888
  532MOL0     H71776   1.251   7.424   2.055 -2.6624 -0.7866  1.5154
  532MOL0     H71777   1.344   7.288   2.003 -0.4015  1.4255 -0.5397
  532MOL0     H71778   1.443   7.331   2.254 -1.7610 -3.9506 -3.2620
  532MOL0     H71779   1.389   7.482   2.232 -0.8597  0.1303 -1.4604
  532MOL0     H71780   1.675   7.543   2.266 -1.8141  1.0670 -2.7763
  532MOL0     H71781   1.904   7.464   2.338 -1.3327  0.8378  0.8256
  532MOL0     H71782   2.240   7.287   2.063 -0.4787  3.5078  2.3102
  532MOL0     H71783   2.447   7.159   2.039  3.5632  0.1176 -0.4137
  532MOL0     H71784   2.617   6.928   2.179 -1.1170  0.6959 -0.2825
  532MOL0     H71785   2.625   7.046   2.055  0.2425 -0.3494 -0.0098
  532MOL0     H71786   2.853   6.978   2.250  0.0107 -2.7355 -0.3155
  532MOL0     H71787   2.848   6.933   2.083  2.5036  0.3832  1.5599
  532MOL0     H71788   2.865   7.145   1.975  0.7454 -1.6615 -0.2208
  532MOL0     H71789   2.838   7.234   2.110  3.5771  0.9530  1.1440
  532MOL0     H71790   3.058   7.032   2.045  1.4013  1.0694 -0.1476
  532MOL0     H71791   3.058   7.103   2.209 -2.7750 -1.6357  0.2670
  532MOL0     H71792   3.059   7.330   2.088  1.3408  1.3276  1.5908
  532MOL0     H71793   3.110   7.253   1.938 -1.8765  2.6093  0.6713
  532MOL0     H71794   3.291   7.353   2.082 -1.6208  0.4603  0.2960
  532MOL0     H71795   3.252   7.252   2.210  0.0491  2.5365  0.6143
  532MOL0     H71796   3.364   7.143   1.947  4.0809  3.3915  0.0620
  532MOL0     H71797   3.325   7.065   2.103  1.1660 -0.5387 -1.5022
  532MOL0     H71798   3.524   7.286   2.055  1.5218  0.6781  1.6403
  532MOL0     H71799   3.500   7.205   2.213 -2.5770 -1.3526  0.1187
  532MOL0     H71800   2.473   7.177   2.479  0.9486  1.0393 -0.4141
  532MOL0     H71801   2.262   7.261   2.484 -1.2534  1.6695  0.1173
  532MOL0     H71802   1.854   7.126   2.084 -0.7244  1.5011 -3.1218
  532MOL0     H71803   1.631   7.219   2.012 -1.4806 -1.0169  1.9441
  532MOL0     H71804   0.455   6.757   1.498  1.1326 -1.7743 -1.3773
  532MOL0     H71805   0.487   6.744   1.247 -1.1072  0.2585 -1.0273
  532MOL0     H71806   0.494   6.800   0.926  0.5495 -0.0017  0.1472
  532MOL0     H71807   0.457   6.824   0.704 -0.3471  1.7293  1.9824
  532MOL0     H71808   0.527   6.738   0.334  4.3464  1.4690  0.1190
  532MOL0     H71809   0.426   6.766   0.476  0.1581 -0.9625  1.8341
  532MOL0     H71810   0.404   6.556   0.405 -0.3804 -2.0745 -0.8075
  532MOL0     H71811   0.494   6.541   0.557 -2.7477 -0.7560 -0.2415
  532MOL0     H71812   0.700   6.503   0.434  0.1913 -1.1434 -0.7632
  532MOL0     H71813   0.614   6.502   0.285  0.8606  2.0478  0.2402
  532MOL0     H71814   0.463   6.333   0.427  0.2717  2.8801 -2.0201
  532MOL0     H71815   0.610   6.275   0.333  0.1440 -0.3744  0.3493
  532MOL0     H71816   0.759   6.212   0.708  1.4761 -1.1053 -0.0888
  532MOL0     H71817   0.854   6.716   0.608  0.2769  0.6167  0.8712
  532MOL0     H71818   0.946   6.622   0.954 -0.5528 -0.8949 -1.1014
  532MOL0     H71819   1.011   6.656   0.788 -0.9181 -0.5567 -0.6537
  532MOL0     H71820   0.989   6.789   0.903 -0.8232  0.8691  0.2614
  533MOL0     O71821   2.627   7.962  10.384  0.4173  0.7970  0.1123
  533MOL0     C71822   2.598   7.969  10.267 -0.6500  0.5379  1.3643
  533MOL0     O71823   2.586   7.869  10.180  0.0000  0.0266  0.1689
  533MOL0     C71824   2.629   7.751  10.232  0.0445  0.4338  0.6683
  533MOL0     C71825   2.530   7.660  10.267  0.6564  0.2479 -0.3673
  533MOL0     C71826   2.563   7.547  10.344 -0.0345  0.3909  1.0631
  533MOL0     C71827   2.694   7.518  10.363 -0.6354 -0.3004 -0.2192
  533MOL0     O71828   2.742   7.401  10.427  0.8696  0.4626  0.5690
  533MOL0     C71829   2.657   7.366  10.536  0.9503  0.8911 -0.4620
  533MOL0     C71830   2.706   7.262  10.633 -0.7062  0.4767  0.0610
  533MOL0     C71831   2.857   7.283  10.676 -0.2024  0.7324  1.2435
  533MOL0     C71832   2.888   7.429  10.698  1.4339  0.2690  0.2576
  533MOL0     C71833   3.037   7.434  10.702 -0.6986  0.4382 -0.1956
  533MOL0     C71834   3.115   7.454  10.563 -0.7764 -0.5122 -0.2685
  533MOL0     C71835   3.249   7.532  10.599 -0.3164  0.0792  0.7116
  533MOL0     C71836   3.323   7.557  10.470 -0.2326  0.5911 -0.3285
  533MOL0     N71837   3.458   7.611  10.495 -0.0071  0.4682 -0.1506
  533MOL0     C71838   3.563   7.523  10.525  0.4934  0.7013 -0.1636
  533MOL0     C71839   3.661   7.620  10.549 -0.1287  0.0993  0.5654
  533MOL0     C71840   3.804   7.604  10.606  0.5338  0.1107 -0.8277
  533MOL0     C71841   3.827   7.661  10.744 -0.4272  0.3180  0.4492
  533MOL0     C71842   3.714   7.649  10.846 -0.4277  0.0221  0.5174
  533MOL0     C71843   3.745   7.707  10.981 -0.9244  0.0061  0.9286
  533MOL0     O71844   3.842   7.618  11.038 -0.0808  0.1119  0.6562
  533MOL0     C71845   3.915   7.662  11.140 -0.7911  0.1792 -0.6726
  533MOL0     C71846   4.051   7.628  11.157 -0.8765  0.6612 -0.2057
  533MOL0     C71847   4.129   7.678  11.266  0.8848 -0.3597  0.4228
  533MOL0     C71848   4.067   7.751  11.365  0.3424  0.1988  0.3410
  533MOL0     C71849   4.151   7.790  11.479  0.5507 -1.1157 -0.0534
  533MOL0     O71850   4.094   7.872  11.577  0.6432  0.5104 -0.2970
  533MOL0     C71851   4.170   7.914  11.685  1.8492  0.3393 -0.2666
  533MOL0     C71852   4.137   7.857  11.803 -0.1239  0.0716  0.0172
  533MOL0     C71853   4.191   7.898  11.926  0.4680  0.4833 -0.7342
  533MOL0     C71854   4.292   7.999  11.922  0.9501 -0.4415  0.2847
  533MOL0     O71855   4.352   8.044  12.041 -0.3844  0.5894  0.1241
  533MOL0     C71856   4.428   7.940  12.101 -0.0485  0.1615 -0.0121
  533MOL0     C71857   4.495   7.998  12.227  0.5891  0.7213 -0.6604
  533MOL0     C71858   4.628   8.070  12.206  0.9769  0.4894 -0.1900
  533MOL0     C71859   4.730   8.053  12.316 -0.5008  0.7633 -0.6667
  533MOL0     C71860   4.701   8.119  12.455  0.0533  0.2548 -0.0211
  533MOL0     C71861   4.831   8.119  12.540  0.2168  0.5994 -0.1503
  533MOL0     C71862   4.813   8.170  12.684  0.1467 -0.3745  0.1967
  533MOL0     C71863   4.904   8.090  12.774 -0.4097  0.6131 -0.8851
  533MOL0    Cl71864   4.872   7.914  12.781 -0.3103  0.2981  0.5245
  533MOL0     C71865   4.324   8.057  11.805 -0.5650  0.6452  0.8979
  533MOL0     C71866   4.269   8.012  11.683  1.1483 -0.0650  0.1125
  533MOL0     O71867   4.266   7.754  11.473 -0.4850 -0.2659 -0.5953
  533MOL0     C71868   3.929   7.776  11.360  0.1216 -0.4252  0.2729
  533MOL0     C71869   3.854   7.735  11.247 -0.4857 -0.4084 -0.1865
  533MOL0     N71870   3.611   7.748  10.533  0.5067 -0.5477 -0.4608
  533MOL0     N71871   3.492   7.738  10.482  0.6482 -0.7154 -0.6480
  533MOL0     C71872   2.793   7.618  10.334 -0.7307  0.7227  0.0330
  533MOL0     C71873   2.760   7.729  10.269  0.3195 -0.0102 -1.4859
  533MOL0     C71874   2.545   8.100  10.216 -0.0765  0.2153 -0.3275
  533MOL0     C71875   2.443   8.099  10.119  0.6408  0.4153 -1.0172
  533MOL0     C71876   2.390   8.213  10.070  0.1426 -0.3274  0.2367
  533MOL0     C71877   2.421   8.337  10.115  0.0649 -0.4612 -0.3195
  533MOL0     O71878   2.362   8.454  10.071  0.0417 -0.4583  0.3833
  533MOL0     C71879   2.292   8.534  10.169  0.9302  1.0584  0.6830
  533MOL0     C71880   2.143   8.511  10.181  0.8378  0.4240 -0.2713
  533MOL0     C71881   2.079   8.535  10.044  0.5403 -0.3528  1.0707
  533MOL0     C71882   2.080   8.684  10.002  0.3171 -1.0471 -0.6198
  533MOL0     C71883   2.045   8.684   9.862 -1.0403 -0.0217 -0.1567
  533MOL0     C71884   2.017   8.702   9.742  0.4602  0.7465  0.3796
  533MOL0     C71885   2.527   8.342  10.205 -0.1234  0.4292  0.0979
  533MOL0     C71886   2.594   8.222  10.251  0.6567 -0.0978  0.1433
  533MOL0     C71887   2.714   8.245  10.338 -0.3196  0.2179 -0.3442
  533MOL0     H71888   2.423   7.673  10.259  0.3031 -2.6979 -1.4314
  533MOL0     H71889   2.486   7.480  10.381  0.4376  0.6899  2.6242
  533MOL0     H71890   2.634   7.453  10.599 -1.9246  0.4476 -0.7824
  533MOL0     H71891   2.561   7.329  10.500  2.1157  0.4641 -3.3699
  533MOL0     H71892   2.698   7.160  10.596  0.5167  0.6822 -0.8587
  533MOL0     H71893   2.638   7.256  10.718 -1.7605 -0.9125 -0.8355
  533MOL0     H71894   2.917   7.232  10.600  1.6125 -0.0109  3.0709
  533MOL0     H71895   2.863   7.223  10.766 -0.8077 -0.2806  0.6235
  533MOL0     H71896   2.861   7.500  10.619  2.0255 -0.0057 -0.1978
  533MOL0     H71897   2.831   7.460  10.786 -1.2823 -1.6995 -0.6980
  533MOL0     H71898   3.065   7.529  10.748 -1.2218  0.3720  0.2679
  533MOL0     H71899   3.081   7.358  10.767 -2.7423 -0.2930  0.4156
  533MOL0     H71900   3.144   7.360  10.516  2.0578  0.7511 -1.2859
  533MOL0     H71901   3.058   7.514  10.492  1.8187  0.6462 -1.4863
  533MOL0     H71902   3.325   7.480  10.657  3.4813  0.2938 -3.4910
  533MOL0     H71903   3.230   7.623  10.657 -0.3639  1.8873 -1.9630
  533MOL0     H71904   3.339   7.472  10.404 -1.2688 -0.6029  0.8906
  533MOL0     H71905   3.257   7.622  10.412 -0.0738  1.4738  0.4439
  533MOL0     H71906   3.559   7.416  10.511  1.7224  0.9824 -3.3942
  533MOL0     H71907   3.831   7.498  10.604 -2.7164 -0.7986 -1.3769
  533MOL0     H71908   3.874   7.649  10.535  0.8138 -0.9193 -1.2264
  533MOL0     H71909   3.921   7.620  10.784 -0.0847 -0.0455 -0.6745
  533MOL0     H71910   3.859   7.765  10.730  1.1244 -0.6209 -5.9330
  533MOL0     H71911   3.682   7.546  10.861 -1.9906  0.9013  4.2195
  533MOL0     H71912   3.632   7.704  10.798  0.3623  1.1882  0.4686
  533MOL0     H71913   3.653   7.707  11.041 -1.1607  1.3238  0.6036
  533MOL0     H71914   3.781   7.810  10.979 -0.5954 -0.1222 -0.3009
  533MOL0     H71915   4.102   7.573  11.079  0.5618  2.2245 -0.4241
  533MOL0     H71916   4.236   7.659  11.267  0.9599 -0.1223 -0.8656
  533MOL0     H71917   4.061   7.780  11.796 -2.1124  2.0423 -1.4527
  533MOL0     H71918   4.161   7.858  12.023 -1.3611  1.2831 -0.9224
  533MOL0     H71919   4.359   7.862  12.135 -0.8195  0.1197 -1.5751
  533MOL0     H71920   4.512   7.901  12.043  1.5269  0.2041  2.1319
  533MOL0     H71921   4.435   8.077  12.274 -0.3863  0.1054 -0.8513
  533MOL0     H71922   4.497   7.920  12.303  3.4839  2.2818  1.0697
  533MOL0     H71923   4.665   8.020  12.116  0.4366 -0.0625 -0.1197
  533MOL0     H71924   4.611   8.177  12.189 -1.1486  0.2270  0.0252
  533MOL0     H71925   4.822   8.099  12.277  2.9426 -5.8545 -1.6858
  533MOL0     H71926   4.765   7.950  12.330 -1.0310  0.9021  2.5055
  533MOL0     H71927   4.638   8.057  12.519  0.2412  0.1995  0.1093
  533MOL0     H71928   4.653   8.217  12.461  3.0575  1.8397  0.2067
  533MOL0     H71929   4.869   8.017  12.528 -0.6160  0.4616 -1.9031
  533MOL0     H71930   4.907   8.182  12.494 -0.2913 -0.1616 -2.1255
  533MOL0     H71931   4.710   8.168  12.722  0.4834  1.9937  1.4651
  533MOL0     H71932   4.845   8.273  12.704 -3.7842  0.8718  0.8939
  533MOL0     H71933   5.006   8.092  12.737 -0.1894 -0.5074 -0.3989
  533MOL0     H71934   4.901   8.135  12.874 -3.0283 -0.1328 -0.5468
  533MOL0     H71935   4.391   8.142  11.799 -4.7535  4.1686 -1.2017
  533MOL0     H71936   4.285   8.059  11.586 -4.8113  1.4027 -0.5389
  533MOL0     H71937   3.880   7.829  11.440 -0.1078 -1.5464  0.9014
  533MOL0     H71938   3.753   7.772  11.239 -0.0173  0.8710 -0.5861
  533MOL0     H71939   2.894   7.600  10.370 -1.3429  0.4527  1.6622
  533MOL0     H71940   2.836   7.802  10.242  2.0192 -0.4835  1.5538
  533MOL0     H71941   2.398   8.008  10.080 -1.8709  0.7322  0.8418
  533MOL0     H71942   2.320   8.213   9.987 -0.5843 -0.0568  0.8422
  533MOL0     H71943   2.321   8.639  10.158  0.2995  1.1141 -0.7254
  533MOL0     H71944   2.321   8.507  10.271  1.6166  1.7719  0.6846
  533MOL0     H71945   2.110   8.591  10.247  0.0548 -0.2068  0.1270
  533MOL0     H71946   2.113   8.411  10.213  0.2279  0.0944 -1.7496
  533MOL0     H71947   1.976   8.498  10.049  0.6680 -0.8778  0.1012
  533MOL0     H71948   2.130   8.479   9.965 -0.7972  0.5817 -0.5467
  533MOL0     H71949   2.006   8.743  10.057  2.2492  1.4558 -0.5078
  533MOL0     H71950   2.177   8.730  10.024  0.4085 -0.4413 -2.1499
  533MOL0     H71951   2.011   8.715   9.636  0.8039  3.3003  0.6099
  533MOL0     H71952   2.556   8.443  10.232  1.8831 -0.3543  1.0958
  533MOL0     H71953   2.679   8.218  10.438  3.4795 -3.7187  0.2567
  533MOL0     H71954   2.809   8.191  10.326  1.4517  2.3802  2.5126
  533MOL0     H71955   2.727   8.353  10.336 -2.2973  0.6259  2.7686
  534MOL0     O71956   0.468   2.978   2.357 -0.4578  0.3510 -0.1094
  534MOL0     C71957   0.583   2.976   2.311 -0.8972 -0.1930 -0.2496
  534MOL0     O71958   0.696   2.928   2.370  0.7829 -0.3897  0.3257
  534MOL0     C71959   0.676   2.916   2.506  0.2066  0.2545 -0.7835
  534MOL0     C71960   0.594   2.816   2.571  0.3656  0.4139 -0.1809
  534MOL0     C71961   0.590   2.813   2.714  0.7120  0.7296  0.0318
  534MOL0     C71962   0.669   2.905   2.790 -0.0766 -0.5051  0.0230
  534MOL0     O71963   0.653   2.903   2.930 -0.6780  0.3540  0.1982
  534MOL0     C71964   0.734   2.996   3.004  0.2045 -0.2251  0.0063
  534MOL0     C71965   0.687   3.015   3.153  0.0620 -1.0163  0.7187
  534MOL0     C71966   0.541   3.064   3.165  0.0077 -0.7163  0.5037
  534MOL0     C71967   0.529   3.211   3.161  0.7502 -0.8172 -0.3822
  534MOL0     C71968   0.375   3.271   3.175 -0.2830 -0.6948 -0.3687
  534MOL0     C71969   0.334   3.351   3.059  0.9835  0.8620 -0.2307
  534MOL0     C71970   0.201   3.424   3.059  0.2139 -0.6206 -0.1239
  534MOL0     C71971   0.211   3.562   3.120  0.3760 -0.0105 -0.4209
  534MOL0     N71972   0.086   3.629   3.132  0.7586 -0.4412 -0.5018
  534MOL0     C71973  -0.023   3.638   3.047 -0.8696 -0.7491  0.2743
  534MOL0     C71974  -0.115   3.694   3.132  0.0137 -0.0303  0.8121
  534MOL0     C71975  -0.261   3.705   3.099 -0.1975 -0.0181 -0.9857
  534MOL0     C71976  -0.314   3.567   3.135  0.6902  0.4804 -0.0880
  534MOL0     C71977  -0.461   3.580   3.165  0.6465  0.0428 -0.0612
  534MOL0     C71978  -0.519   3.445   3.224 -1.0813 -0.8041 -0.4051
  534MOL0     O71979  -0.659   3.446   3.230  0.9034 -0.3825 -0.4883
  534MOL0     C71980  -0.717   3.326   3.269  1.0444 -0.4990 -0.2011
  534MOL0     C71981  -0.654   3.236   3.361 -0.2786 -0.9035  0.1905
  534MOL0     C71982  -0.713   3.117   3.405  0.3593  0.1855 -0.2695
  534MOL0     C71983  -0.847   3.077   3.354 -0.3802 -0.3516 -0.3342
  534MOL0     C71984  -0.913   2.957   3.410  0.1682 -0.4765 -1.4218
  534MOL0     O71985  -1.043   2.950   3.397  0.0824  0.1104 -0.4629
  534MOL0     C71986  -1.093   2.830   3.433  0.2543  0.2380  0.6246
  534MOL0     C71987  -1.190   2.841   3.535  0.8282  0.2179  0.8003
  534MOL0     C71988  -1.270   2.725   3.571 -0.1817 -0.0999 -0.8043
  534MOL0     C71989  -1.239   2.601   3.512 -0.4279  0.3498  0.8297
  534MOL0     O71990  -1.320   2.497   3.545 -0.2871  0.2499 -0.1955
  534MOL0     C71991  -1.319   2.387   3.448 -0.1002  0.0441 -0.3473
  534MOL0     C71992  -1.409   2.292   3.511 -0.7045 -0.6440  0.0472
  534MOL0     C71993  -1.435   2.174   3.413  0.4313 -0.0428 -0.3347
  534MOL0     C71994  -1.529   2.067   3.484  0.3313  0.9994 -0.1029
  534MOL0     C71995  -1.557   1.938   3.401 -0.4772 -0.2073  0.4908
  534MOL0     C71996  -1.627   1.838   3.497 -0.1654 -0.0008  0.2183
  534MOL0     C71997  -1.659   1.708   3.416 -1.0555 -0.5083  0.1002
  534MOL0     C71998  -1.730   1.600   3.515  0.6651 -0.9740  0.4062
  534MOL0    Cl71999  -1.620   1.531   3.638 -0.2115  0.6424 -0.0177
  534MOL0     C72000  -1.129   2.595   3.428  0.3771 -0.4961  0.4816
  534MOL0     C72001  -1.052   2.705   3.386  0.5896  0.2044  0.6078
  534MOL0     O72002  -0.838   2.867   3.465  0.6197  0.2641 -0.5215
  534MOL0     C72003  -0.908   3.172   3.266 -0.1165  0.0219 -0.3457
  534MOL0     C72004  -0.845   3.291   3.230  0.1661 -0.5602 -0.0442
  534MOL0     N72005  -0.060   3.740   3.247 -0.3164  0.4234  0.1950
  534MOL0     N72006   0.056   3.691   3.249 -0.4838 -0.1784  0.0993
  534MOL0     C72007   0.754   2.992   2.726  1.0442 -0.0469 -0.0922
  534MOL0     C72008   0.748   2.998   2.587  0.4019  0.3197  0.2695
  534MOL0     C72009   0.600   3.031   2.173 -0.1968  0.3898 -0.1514
  534MOL0     C72010   0.488   3.040   2.084  0.1526  0.2719 -0.1459
  534MOL0     C72011   0.506   3.078   1.955 -0.2819 -0.3887  1.1990
  534MOL0     C72012   0.625   3.103   1.901 -0.5313  1.4174 -1.2394
  534MOL0     O72013   0.629   3.156   1.779 -0.0761 -0.0604 -0.5532
  534MOL0     C72014   0.723   3.096   1.689 -1.9007  0.0057  0.6572
  534MOL0     C72015   0.674   3.083   1.543  0.2350 -0.3063 -0.3268
  534MOL0     C72016   0.595   2.963   1.518  1.0574  0.4503 -0.2456
  534MOL0     C72017   0.449   2.960   1.568 -0.0533  0.6184 -0.3492
  534MOL0     C72018   0.370   3.060   1.494 -0.5215 -0.0344 -0.6929
  534MOL0     C72019   0.290   3.129   1.429 -0.3606 -0.2887 -0.0526
  534MOL0     C72020   0.740   3.093   1.979 -0.5081 -0.2114 -0.4372
  534MOL0     C72021   0.732   3.065   2.117  0.2784  1.0272 -0.5955
  534MOL0     C72022   0.857   3.062   2.193  0.1708  0.5771  0.6139
  534MOL0     H72023   0.530   2.748   2.516  2.4463 -3.4110  1.7190
  534MOL0     H72024   0.521   2.741   2.757  0.3016 -0.2607 -2.1568
  534MOL0     H72025   0.840   2.968   3.014 -0.0019 -0.6423  1.2065
  534MOL0     H72026   0.732   3.089   2.947 -1.9374  0.1077  0.5584
  534MOL0     H72027   0.750   3.083   3.211 -1.3348  1.6378 -0.7377
  534MOL0     H72028   0.698   2.919   3.205 -1.3878  0.1525  3.4067
  534MOL0     H72029   0.506   3.039   3.266  0.6918  1.5196  1.3517
  534MOL0     H72030   0.471   3.014   3.097 -1.2326  0.7823  0.6319
  534MOL0     H72031   0.594   3.252   3.238  4.1026 -0.4004 -3.1978
  534MOL0     H72032   0.579   3.251   3.072  1.5884 -0.8128  0.0826
  534MOL0     H72033   0.303   3.190   3.190  0.2094 -0.7867  1.7480
  534MOL0     H72034   0.357   3.341   3.257 -1.7085  1.4493 -2.3856
  534MOL0     H72035   0.415   3.409   3.015 -0.6311  3.0061 -0.5832
  534MOL0     H72036   0.310   3.286   2.974  2.1592  3.6572 -2.8864
  534MOL0     H72037   0.126   3.365   3.113  0.9328 -0.0394  1.5857
  534MOL0     H72038   0.169   3.434   2.955  0.3602 -1.8965 -0.3055
  534MOL0     H72039   0.252   3.553   3.221 -2.6788 -1.3159  0.8580
  534MOL0     H72040   0.294   3.607   3.065  0.5616 -1.2331 -1.1896
  534MOL0     H72041  -0.036   3.619   2.941 -1.6352  1.1589 -0.0211
  534MOL0     H72042  -0.310   3.779   3.162  0.9837 -0.7282  0.8648
  534MOL0     H72043  -0.265   3.729   2.992 -0.3493 -1.0593 -1.2209
  534MOL0     H72044  -0.294   3.508   3.045 -1.7072 -0.4553 -0.0931
  534MOL0     H72045  -0.258   3.528   3.221  3.0883  1.9358 -0.9013
  534MOL0     H72046  -0.515   3.600   3.073  0.8892  0.1175 -0.1878
  534MOL0     H72047  -0.477   3.658   3.240  1.1598 -1.3128  1.5269
  534MOL0     H72048  -0.457   3.417   3.310  1.9379 -0.3194 -2.2730
  534MOL0     H72049  -0.489   3.364   3.156 -0.7297 -1.1179  0.1137
  534MOL0     H72050  -0.570   3.264   3.422 -2.7871  1.8502  2.7120
  534MOL0     H72051  -0.657   3.056   3.475 -0.0589 -0.9503 -0.8944
  534MOL0     H72052  -1.212   2.938   3.579 -3.7092 -0.8622  1.3780
  534MOL0     H72053  -1.345   2.735   3.649 -0.3238  4.4070 -1.2840
  534MOL0     H72054  -1.341   2.414   3.345  1.0755  1.6421 -0.2249
  534MOL0     H72055  -1.217   2.347   3.449  0.2770  0.8507  2.5181
  534MOL0     H72056  -1.354   2.243   3.591  1.0630 -1.1900 -1.4166
  534MOL0     H72057  -1.498   2.336   3.556  0.7577 -0.0066  2.5118
  534MOL0     H72058  -1.476   2.199   3.315 -1.3014 -3.2944 -0.5915
  534MOL0     H72059  -1.342   2.118   3.404  0.5493  0.1914 -0.5750
  534MOL0     H72060  -1.630   2.108   3.491  0.1558  1.6958 -4.4099
  534MOL0     H72061  -1.495   2.046   3.586 -3.4286 -0.1929  1.0860
  534MOL0     H72062  -1.469   1.897   3.350  0.0511  3.2825 -1.7359
  534MOL0     H72063  -1.620   1.962   3.316  0.1677  0.8028  0.2809
  534MOL0     H72064  -1.560   1.815   3.580 -1.3230 -3.6904  0.3051
  534MOL0     H72065  -1.719   1.878   3.540 -0.7438 -0.4945 -0.5119
  534MOL0     H72066  -1.565   1.663   3.383  0.1368  0.3028  2.1860
  534MOL0     H72067  -1.728   1.722   3.332 -1.8149  1.6687  1.0356
  534MOL0     H72068  -1.814   1.656   3.557  2.6126  3.8022 -1.2849
  534MOL0     H72069  -1.768   1.515   3.458 -1.2592  0.8416 -1.1908
  534MOL0     H72070  -1.096   2.507   3.374  0.2361  2.2494 -4.7698
  534MOL0     H72071  -0.979   2.700   3.306  0.7091 -1.0604  0.7696
  534MOL0     H72072  -1.006   3.150   3.226 -0.2276  3.0812 -2.0129
  534MOL0     H72073  -0.891   3.361   3.161 -0.7910 -0.9737  0.1455
  534MOL0     H72074   0.821   3.065   2.770 -3.2010  5.1101 -1.2406
  534MOL0     H72075   0.804   3.075   2.535  1.3143 -2.1012 -2.5554
  534MOL0     H72076   0.390   3.015   2.123  1.8122 -1.0326  3.7639
  534MOL0     H72077   0.427   3.073   1.881  0.2679  0.0008  0.5758
  534MOL0     H72078   0.747   2.993   1.719  0.3768 -0.2892 -1.7796
  534MOL0     H72079   0.818   3.150   1.681 -0.9356 -1.8100 -5.5344
  534MOL0     H72080   0.765   3.079   1.483  1.3404  1.2469  1.1413
  534MOL0     H72081   0.621   3.179   1.529  0.5114 -0.2468 -0.9890
  534MOL0     H72082   0.641   2.870   1.550  0.4479  0.2234 -0.0106
  534MOL0     H72083   0.595   2.959   1.409  3.1428  3.9968 -0.5165
  534MOL0     H72084   0.406   2.860   1.559 -0.8584  0.4355  3.5655
  534MOL0     H72085   0.435   2.983   1.674  0.0026  4.2204 -0.9913
  534MOL0     H72086   0.197   3.166   1.389 -1.4214 -1.9032  0.8036
  534MOL0     H72087   0.834   3.117   1.931 -2.0926  1.3991 -2.9764
  534MOL0     H72088   0.895   2.962   2.216 -0.0095 -0.2542 -2.2985
  534MOL0     H72089   0.931   3.114   2.132 -1.5184  1.6459 -0.6069
  534MOL0     H72090   0.851   3.123   2.284  0.8818  0.5128  0.7080
  535MOL0     O72091  11.218   8.995   5.141  0.4436  0.4851 -0.1865
  535MOL0     C72092  11.314   9.037   5.201 -0.0022 -0.9293 -1.1373
  535MOL0     O72093  11.441   8.982   5.201 -0.1344  0.0289  0.7269
  535MOL0     C72094  11.454   8.887   5.109  0.0651  1.0050  0.3641
  535MOL0     C72095  11.436   8.752   5.120 -0.3019 -0.1478  0.1619
  535MOL0     C72096  11.445   8.668   5.007 -0.6895 -0.8681  0.2435
  535MOL0     C72097  11.474   8.723   4.880  0.5848  0.0325 -0.5102
  535MOL0     O72098  11.480   8.623   4.784 -0.4576  0.0581  0.4853
  535MOL0     C72099  11.495   8.665   4.643 -0.6724  0.4957  0.2853
  535MOL0     C72100  11.638   8.614   4.597 -0.1330 -0.2684 -0.0346
  535MOL0     C72101  11.743   8.723   4.629  0.2258 -0.4033 -0.6263
  535MOL0     C72102  11.736   8.828   4.511 -0.7825 -0.7108  0.4555
  535MOL0     C72103  11.830   8.947   4.541 -0.8254 -0.4756 -0.2437
  535MOL0     C72104  11.766   9.057   4.624  0.6492 -0.2895  0.4833
  535MOL0     C72105  11.854   9.181   4.627 -0.1580 -0.0313 -0.6299
  535MOL0     C72106  11.804   9.280   4.523 -0.1206  0.2198 -0.5722
  535MOL0     N72107  11.680   9.350   4.558  0.0585 -0.1138 -0.5867
  535MOL0     C72108  11.685   9.465   4.636 -0.0247 -0.3359  0.2946
  535MOL0     C72109  11.581   9.537   4.607 -0.3240  0.0632  0.2674
  535MOL0     C72110  11.549   9.668   4.646 -0.0336 -0.2181  0.2584
  535MOL0     C72111  11.619   9.792   4.582  0.0462  0.1034  0.4786
  535MOL0     C72112  11.728   9.850   4.677  0.1474  0.6367  0.4893
  535MOL0     C72113  11.665   9.916   4.798 -0.4321  1.1977  0.2231
  535MOL0     O72114  11.760   9.905   4.908 -0.2241 -0.0332 -0.1027
  535MOL0     C72115  11.753  10.004   4.998 -1.0803  0.2939  0.1098
  535MOL0     C72116  11.865  10.073   5.026 -0.8224 -0.1722  0.5301
  535MOL0     C72117  11.868  10.188   5.114 -0.5225  0.2644  0.5412
  535MOL0     C72118  11.757  10.226   5.181 -0.9173 -0.3847  0.8585
  535MOL0     C72119  11.769  10.342   5.277 -0.3220 -0.0185 -0.6015
  535MOL0     O72120  11.654  10.410   5.307 -0.4409  0.3237 -1.3498
  535MOL0     C72121  11.656  10.490   5.419 -0.1022  0.7777  0.0621
  535MOL0     C72122  11.683  10.427   5.546  0.3916 -0.0316  0.0176
  535MOL0     C72123  11.663  10.506   5.660  0.9734  0.0688 -0.5917
  535MOL0     C72124  11.585  10.628   5.659  0.6484 -0.5254  0.5241
  535MOL0     O72125  11.532  10.694   5.770  0.0549  0.7081  0.2221
  535MOL0     C72126  11.530  10.633   5.896  0.3610 -0.4633 -0.4112
  535MOL0     C72127  11.540  10.754   5.995 -0.6414 -0.3515 -0.2119
  535MOL0     C72128  11.518  10.696   6.141  0.3098 -0.4429  0.6708
  535MOL0     C72129  11.542  10.803   6.235  0.2005  0.0073  0.4749
  535MOL0     C72130  11.536  10.740   6.376  0.0541  0.5826  0.2592
  535MOL0     C72131  11.529  10.846   6.487  0.4806 -1.4349  0.5956
  535MOL0     C72132  11.656  10.925   6.524  0.1187  0.8748  0.1062
  535MOL0     C72133  11.734  10.833   6.621  0.9902 -0.0375 -0.3590
  535MOL0    Cl72134  11.892  10.912   6.673 -0.0269 -0.2223  0.1514
  535MOL0     C72135  11.558  10.692   5.536  0.8522  0.1603 -0.2648
  535MOL0     C72136  11.584  10.616   5.420  0.0441 -1.0227  0.2842
  535MOL0     O72137  11.876  10.370   5.325 -0.3618 -0.0568  0.4296
  535MOL0     C72138  11.641  10.151   5.153 -0.1174 -0.6060 -0.4713
  535MOL0     C72139  11.630  10.041   5.065  0.0589 -0.0553  0.6587
  535MOL0     N72140  11.511   9.476   4.505 -0.2495 -0.5251 -0.4138
  535MOL0     N72141  11.566   9.357   4.481 -1.0443 -1.2564  0.4756
  535MOL0     C72142  11.493   8.863   4.866 -0.0341 -0.2567 -0.1291
  535MOL0     C72143  11.490   8.941   4.982 -0.5094 -0.0230  0.3562
  535MOL0     C72144  11.301   9.142   5.306  1.1602  0.8568 -0.6832
  535MOL0     C72145  11.407   9.156   5.392 -0.2786 -0.1987 -0.6882
  535MOL0     C72146  11.410   9.257   5.490  0.0953  0.1003 -0.8028
  535MOL0     C72147  11.297   9.337   5.506 -0.2678  0.4124 -0.4149
  535MOL0     O72148  11.315   9.434   5.604 -0.2982  0.5857  0.0369
  535MOL0     C72149  11.201   9.508   5.646  0.1942  1.1969  0.8162
  535MOL0     C72150  11.234   9.585   5.779  0.2669 -0.3715  0.3819
  535MOL0     C72151  11.269   9.497   5.904  0.0717  0.3564 -0.0609
  535MOL0     C72152  11.414   9.487   5.934  0.8174 -0.1126  0.9429
  535MOL0     C72153  11.422   9.409   6.060 -0.0500  0.4818  0.3105
  535MOL0     C72154  11.438   9.370   6.178 -0.5523  0.1854  0.5621
  535MOL0     C72155  11.183   9.322   5.417  0.4129 -0.3788 -0.6202
  535MOL0     C72156  11.188   9.230   5.313  0.0351 -0.9321  1.3670
  535MOL0     C72157  11.089   9.241   5.207 -0.3700 -0.4699 -0.5409
  535MOL0     H72158  11.401   8.719   5.217 -1.6946 -0.0240 -0.2759
  535MOL0     H72159  11.424   8.563   5.020 -1.0666 -1.0928 -1.8236
  535MOL0     H72160  11.451   8.609   4.560  1.5350 -0.4782 -0.3044
  535MOL0     H72161  11.465   8.767   4.618 -2.8354  0.1091  1.0431
  535MOL0     H72162  11.644   8.581   4.493  0.3320  1.1515 -0.4947
  535MOL0     H72163  11.654   8.526   4.659 -2.0002 -0.1242  0.7136
  535MOL0     H72164  11.841   8.676   4.627 -0.3624 -1.6528 -0.5813
  535MOL0     H72165  11.733   8.763   4.730 -0.4016 -0.2884 -0.7286
  535MOL0     H72166  11.755   8.775   4.417 -1.9059 -2.9219  1.4052
  535MOL0     H72167  11.639   8.878   4.503  0.5966  1.9981 -0.6174
  535MOL0     H72168  11.913   8.910   4.602 -1.5708 -2.1623 -0.2206
  535MOL0     H72169  11.883   8.983   4.452  1.7750 -2.4978  0.3744
  535MOL0     H72170  11.674   9.076   4.568  1.7444  2.0806 -0.6574
  535MOL0     H72171  11.744   9.022   4.725  1.3992 -1.1847  0.3502
  535MOL0     H72172  11.954   9.156   4.591  1.1356 -2.0882  3.6891
  535MOL0     H72173  11.871   9.243   4.716 -1.3520  1.3916 -1.3374
  535MOL0     H72174  11.877   9.362   4.520 -0.9023  1.2478  3.2509
  535MOL0     H72175  11.797   9.233   4.424 -0.4606 -4.6243  1.4729
  535MOL0     H72176  11.769   9.500   4.696 -0.7829  0.2557  1.0299
  535MOL0     H72177  11.447   9.683   4.611  0.1302  0.1503 -0.0733
  535MOL0     H72178  11.551   9.685   4.754  1.7552  6.1689 -0.3423
  535MOL0     H72179  11.668   9.764   4.488  2.6735  1.8203  1.2224
  535MOL0     H72180  11.547   9.869   4.552 -2.6576 -2.0205  1.1026
  535MOL0     H72181  11.793   9.926   4.632 -2.3226  2.9821  0.5873
  535MOL0     H72182  11.781   9.761   4.709  0.5308  0.0686 -1.5753
  535MOL0     H72183  11.566   9.879   4.825 -0.4266  2.7565  2.7504
  535MOL0     H72184  11.648  10.020   4.767  1.5826  1.7286  0.7127
  535MOL0     H72185  11.948  10.053   4.960 -0.3094 -0.5873  1.2776
  535MOL0     H72186  11.953  10.254   5.127 -0.1091 -0.3470  1.0364
  535MOL0     H72187  11.733  10.332   5.563 -0.2929 -0.1691  1.3807
  535MOL0     H72188  11.689  10.441   5.743  0.0032  1.6809  1.0409
  535MOL0     H72189  11.444  10.568   5.913  0.3327 -0.1615  0.7077
  535MOL0     H72190  11.613  10.562   5.909  1.7374  1.1693  0.1960
  535MOL0     H72191  11.641  10.794   5.987 -0.8944  0.3269 -0.1243
  535MOL0     H72192  11.463  10.828   5.971  2.4404  3.7940  1.4962
  535MOL0     H72193  11.419  10.651   6.149  0.5277 -0.7555  1.7023
  535MOL0     H72194  11.585  10.610   6.142  0.0611 -0.6572  0.0979
  535MOL0     H72195  11.455  10.867   6.247  0.6234  0.2585  2.4706
  535MOL0     H72196  11.639  10.852   6.221  0.5727 -0.9344 -0.3772
  535MOL0     H72197  11.622  10.681   6.408  0.6995  1.7564  0.7699
  535MOL0     H72198  11.453  10.669   6.385  0.0784  0.6893  1.5031
  535MOL0     H72199  11.446  10.916   6.476  3.9528  3.1622  0.6874
  535MOL0     H72200  11.514  10.800   6.585  2.4095 -3.1456  0.1564
  535MOL0     H72201  11.635  11.021   6.573 -1.2945  0.9228 -0.5485
  535MOL0     H72202  11.717  10.942   6.435 -0.5816  1.0392 -0.3519
  535MOL0     H72203  11.667  10.811   6.704 -1.7547  2.8819 -1.6074
  535MOL0     H72204  11.767  10.745   6.565 -0.4255  0.2986 -1.7829
  535MOL0     H72205  11.498  10.782   5.526 -0.1635 -0.2827  1.4640
  535MOL0     H72206  11.551  10.662   5.328 -4.1719 -0.9798  1.5898
  535MOL0     H72207  11.551  10.184   5.204  0.5268 -0.7235  0.7698
  535MOL0     H72208  11.537   9.988   5.048 -0.6428  0.5679  2.2798
  535MOL0     H72209  11.516   8.909   4.770  0.1537  0.7532  0.3848
  535MOL0     H72210  11.508   9.047   4.973 -2.6060  0.6528  2.7711
  535MOL0     H72211  11.494   9.092   5.382 -0.8476 -1.0382 -0.3466
  535MOL0     H72212  11.498   9.268   5.553  0.1502  2.8099 -1.2243
  535MOL0     H72213  11.127   9.430   5.669  2.6996 -2.1655 -1.6731
  535MOL0     H72214  11.154   9.567   5.567  0.9335 -0.4840 -0.9612
  535MOL0     H72215  11.147   9.643   5.812  0.5868 -0.3945  1.2841
  535MOL0     H72216  11.312   9.659   5.759  1.4030 -0.1064  4.8843
  535MOL0     H72217  11.231   9.395   5.892  2.0053 -0.7049  1.9667
  535MOL0     H72218  11.219   9.557   5.980  0.9311  0.1744  0.6686
  535MOL0     H72219  11.463   9.442   5.846 -2.0236  2.5830 -2.2740
  535MOL0     H72220  11.465   9.583   5.948  0.9727 -0.2369  1.2560
  535MOL0     H72221  11.465   9.349   6.280 -2.2981 -1.7532  0.6866
  535MOL0     H72222  11.101   9.393   5.420  0.1491 -0.5568 -2.2987
  535MOL0     H72223  11.042   9.340   5.215  2.6111  1.0851 -0.5488
  535MOL0     H72224  11.130   9.244   5.106 -0.9192  1.5530 -0.7548
  535MOL0     H72225  11.034   9.147   5.206  1.1316 -1.3843 -0.4548
  536MOL0     O72226   8.592   4.634   4.956  0.3470 -0.7786  0.4927
  536MOL0     C72227   8.591   4.750   4.996 -0.8815 -0.1270  0.3004
  536MOL0     O72228   8.705   4.822   5.018  0.3856 -0.9611 -0.3639
  536MOL0     C72229   8.828   4.773   5.042  0.5201 -0.0935 -0.8321
  536MOL0     C72230   8.925   4.855   5.107  0.9382 -0.4707 -0.3390
  536MOL0     C72231   9.053   4.815   5.121 -0.4180 -0.6099 -0.3937
  536MOL0     C72232   9.100   4.690   5.082 -1.0728 -0.3075 -0.5046
  536MOL0     O72233   9.220   4.655   5.128  0.5928 -0.1073 -0.4095
  536MOL0     C72234   9.311   4.595   5.037 -0.5167  0.2850 -0.2510
  536MOL0     C72235   9.460   4.637   5.067  0.6306 -0.0248 -0.3073
  536MOL0     C72236   9.545   4.628   4.943 -0.5022 -0.1770  0.4021
  536MOL0     C72237   9.639   4.507   4.954 -0.2597  0.0563 -0.6105
  536MOL0     C72238   9.720   4.483   4.823 -0.3340  0.7557 -0.6430
  536MOL0     C72239   9.635   4.440   4.695  0.5132  0.3088 -0.3590
  536MOL0     C72240   9.570   4.312   4.716  1.0133  1.0178  0.5159
  536MOL0     C72241   9.662   4.189   4.719 -0.2026  0.6737  0.8504
  536MOL0     N72242   9.604   4.059   4.675  0.3927  0.2242  0.2674
  536MOL0     C72243   9.559   4.039   4.546 -0.7845  0.7045 -0.4549
  536MOL0     C72244   9.482   3.928   4.551  0.3220 -0.7465 -0.1040
  536MOL0     C72245   9.403   3.846   4.448 -0.6460 -1.2635 -0.1251
  536MOL0     C72246   9.376   3.919   4.316  0.2182  0.6747  0.2750
  536MOL0     C72247   9.355   3.826   4.207 -0.6076 -0.2715  0.2513
  536MOL0     C72248   9.339   3.910   4.080 -0.1097 -0.0751  0.0575
  536MOL0     O72249   9.273   3.851   3.969 -0.7460  0.1046 -0.3300
  536MOL0     C72250   9.333   3.742   3.901  1.4174 -0.4108 -0.6003
  536MOL0     C72251   9.460   3.699   3.932  0.8632  0.1461  0.4689
  536MOL0     C72252   9.516   3.592   3.870 -0.1678 -0.5367 -0.9166
  536MOL0     C72253   9.449   3.527   3.767  0.7190 -0.1236 -0.5172
  536MOL0     C72254   9.518   3.431   3.678  0.0456  1.1368 -0.9210
  536MOL0     O72255   9.463   3.414   3.556  0.0655  0.1739  0.9220
  536MOL0     C72256   9.516   3.331   3.458  0.0712 -0.5110  0.1661
  536MOL0     C72257   9.418   3.276   3.374  0.7281  0.2289  1.2190
  536MOL0     C72258   9.456   3.180   3.273  0.6521 -0.3004 -0.3161
  536MOL0     C72259   9.596   3.146   3.274 -0.5131  0.3401 -0.9454
  536MOL0     O72260   9.640   3.052   3.184  0.3527 -0.3010 -0.1736
  536MOL0     C72261   9.770   3.048   3.128 -0.4158  0.4914 -0.3637
  536MOL0     C72262   9.774   2.944   3.009  0.5399 -0.3216 -0.1075
  536MOL0     C72263   9.703   2.813   3.054  0.3275 -0.3463  0.0247
  536MOL0     C72264   9.736   2.690   2.963 -0.0605  0.4131  0.4631
  536MOL0     C72265   9.632   2.594   2.956 -0.6354  0.2177 -0.1554
  536MOL0     C72266   9.600   2.511   3.082  0.0137 -0.8464 -0.2423
  536MOL0     C72267   9.704   2.394   3.102  0.3473 -0.4546 -0.2102
  536MOL0     C72268   9.684   2.319   3.228  0.0118 -0.5585 -0.5757
  536MOL0    Cl72269   9.761   2.156   3.219 -0.1724 -0.0201  0.8136
  536MOL0     C72270   9.689   3.222   3.345  0.0021  0.3583  0.6465
  536MOL0     C72271   9.651   3.314   3.438  0.3303 -0.7969  0.1771
  536MOL0     O72272   9.619   3.370   3.715 -0.9060 -0.1148  0.9197
  536MOL0     C72273   9.326   3.572   3.734 -0.3883 -0.4582  0.8261
  536MOL0     C72274   9.269   3.681   3.797  0.2760  0.4638  0.2989
  536MOL0     N72275   9.499   3.876   4.672  0.4675  0.1866 -0.4195
  536MOL0     N72276   9.562   3.955   4.751  0.0331  0.2368 -0.0106
  536MOL0     C72277   9.005   4.601   5.031 -0.0516  0.0579  0.7299
  536MOL0     C72278   8.871   4.642   5.004  0.0743 -0.1495 -0.4448
  536MOL0     C72279   8.460   4.826   5.016  0.7928 -0.4696 -0.1181
  536MOL0     C72280   8.472   4.952   5.083  0.9150  0.1832  0.3775
  536MOL0     C72281   8.356   5.036   5.090  0.8835 -0.2767  0.1733
  536MOL0     C72282   8.232   5.008   5.030  0.1733 -0.0129  0.6490
  536MOL0     O72283   8.121   5.080   5.068 -0.6348  0.4587 -0.2186
  536MOL0     C72284   8.031   5.031   5.170 -0.2295 -0.0400 -0.2228
  536MOL0     C72285   7.908   5.114   5.173  0.2736  0.2075  0.6414
  536MOL0     C72286   7.813   5.103   5.038  0.1927  0.6579 -1.5133
  536MOL0     C72287   7.685   5.191   5.060  0.4858 -0.0327  0.1597
  536MOL0     C72288   7.559   5.123   5.024  0.4059  0.1192  1.2167
  536MOL0     C72289   7.457   5.082   4.976 -0.8494  0.1441 -0.5744
  536MOL0     C72290   8.224   4.879   4.971  0.8818 -0.0368  0.3468
  536MOL0     C72291   8.334   4.792   4.961  1.1027  0.6572  0.1700
  536MOL0     C72292   8.302   4.650   4.908  0.3688 -0.3403 -0.0859
  536MOL0     H72293   8.901   4.958   5.131  1.0852 -0.4222 -0.3955
  536MOL0     H72294   9.137   4.871   5.161  0.4171 -0.9497 -1.6328
  536MOL0     H72295   9.301   4.487   5.047 -0.5159  0.2036 -1.0239
  536MOL0     H72296   9.291   4.614   4.931 -2.7325  0.5057  0.1626
  536MOL0     H72297   9.499   4.582   5.154 -0.3861 -1.7751 -0.9154
  536MOL0     H72298   9.449   4.740   5.101  2.1649  0.0979 -0.1049
  536MOL0     H72299   9.607   4.716   4.924 -2.1035  0.4911 -2.5373
  536MOL0     H72300   9.484   4.607   4.854 -0.6135  2.5103 -0.2359
  536MOL0     H72301   9.697   4.533   5.043  0.8982 -1.0930 -0.9953
  536MOL0     H72302   9.587   4.414   4.980 -1.2835  0.9181  0.5846
  536MOL0     H72303   9.776   4.576   4.806 -1.1781  1.3512 -0.1994
  536MOL0     H72304   9.794   4.407   4.853 -0.7171  0.2593 -0.9440
  536MOL0     H72305   9.570   4.525   4.673  0.3773  0.2838 -0.0662
  536MOL0     H72306   9.697   4.432   4.605 -0.7558 -3.2194 -1.0794
  536MOL0     H72307   9.519   4.291   4.622  0.2742  0.1042  1.0997
  536MOL0     H72308   9.489   4.313   4.790  1.2435 -0.3974  0.8160
  536MOL0     H72309   9.735   4.217   4.641 -1.8852 -0.0668 -1.0842
  536MOL0     H72310   9.709   4.176   4.817  0.1067 -0.7234  0.5360
  536MOL0     H72311   9.581   4.097   4.457  2.0756 -2.6195 -2.1703
  536MOL0     H72312   9.444   3.746   4.429  2.1296  0.2757 -3.4284
  536MOL0     H72313   9.303   3.820   4.483 -1.9181  1.0926 -1.7061
  536MOL0     H72314   9.286   3.980   4.326 -0.1757  1.1605 -3.9816
  536MOL0     H72315   9.462   3.980   4.287  0.8218  0.0319  0.6822
  536MOL0     H72316   9.266   3.767   4.233  0.5743 -2.5409 -0.5625
  536MOL0     H72317   9.442   3.761   4.207 -0.4381 -0.0483 -0.4032
  536MOL0     H72318   9.436   3.945   4.044 -0.7936  0.3022 -1.4967
  536MOL0     H72319   9.284   4.002   4.102 -1.6075 -0.1104 -2.9528
  536MOL0     H72320   9.512   3.739   4.019 -0.8694  1.6450  0.8807
  536MOL0     H72321   9.613   3.553   3.899  1.5864  1.9800 -2.9359
  536MOL0     H72322   9.315   3.308   3.380  0.7972  0.4737  1.1163
  536MOL0     H72323   9.393   3.133   3.198  0.1427  3.9365 -2.8837
  536MOL0     H72324   9.779   3.141   3.071  0.3687 -0.5890 -2.0695
  536MOL0     H72325   9.851   3.025   3.198  1.4953  1.6937 -2.0630
  536MOL0     H72326   9.711   2.981   2.928 -0.4504  1.7931  1.5339
  536MOL0     H72327   9.876   2.921   2.977  1.5227  4.5203 -1.2815
  536MOL0     H72328   9.732   2.784   3.155 -1.2657 -2.1396  0.0203
  536MOL0     H72329   9.596   2.833   3.044  1.1024  3.7262 -2.5153
  536MOL0     H72330   9.834   2.644   2.981 -0.7331 -0.5622  1.7820
  536MOL0     H72331   9.741   2.726   2.860 -3.6409 -0.4217 -0.1346
  536MOL0     H72332   9.645   2.520   2.876  2.3581 -0.8929  1.1983
  536MOL0     H72333   9.539   2.648   2.937 -0.5986  0.9312  1.5499
  536MOL0     H72334   9.584   2.577   3.168  0.4885 -2.1256  0.8645
  536MOL0     H72335   9.504   2.460   3.074 -0.4233 -0.0825  0.0579
  536MOL0     H72336   9.808   2.423   3.086  0.3355 -1.5649 -2.8331
  536MOL0     H72337   9.703   2.328   3.015  1.3636  2.2526 -2.4201
  536MOL0     H72338   9.728   2.369   3.314  1.3488 -2.1209 -0.3110
  536MOL0     H72339   9.577   2.310   3.248 -0.4181  1.6766 -1.5352
  536MOL0     H72340   9.796   3.218   3.328 -0.5557  1.0758 -4.4231
  536MOL0     H72341   9.729   3.366   3.493  0.1882 -0.5698  0.1632
  536MOL0     H72342   9.265   3.524   3.658 -0.5874  0.8856  0.0963
  536MOL0     H72343   9.179   3.731   3.761 -0.5638 -2.3180 -1.8371
  536MOL0     H72344   9.037   4.501   5.003  0.4485  0.1280  1.0380
  536MOL0     H72345   8.808   4.569   4.954  1.3218 -1.6291  0.0217
  536MOL0     H72346   8.569   4.970   5.127  1.3851 -0.5741 -0.3178
  536MOL0     H72347   8.369   5.132   5.139  0.0393  0.7443 -1.4958
  536MOL0     H72348   8.077   5.036   5.269 -2.7757  0.4339  1.0336
  536MOL0     H72349   8.008   4.930   5.137 -1.5058 -0.1566  0.9360
  536MOL0     H72350   7.926   5.219   5.198 -2.6441  0.9082  0.2109
  536MOL0     H72351   7.846   5.078   5.256 -0.2040 -1.3810 -0.3533
  536MOL0     H72352   7.798   4.996   5.020  1.2423  0.2131  0.0797
  536MOL0     H72353   7.866   5.123   4.944  1.6399 -0.1585 -0.9087
  536MOL0     H72354   7.670   5.215   5.165 -2.4673 -1.8543  0.2642
  536MOL0     H72355   7.685   5.288   5.009  0.9179  0.6055  1.3363
  536MOL0     H72356   7.371   5.039   4.929  1.0595 -2.0931 -2.2344
  536MOL0     H72357   8.130   4.834   4.943  1.5844 -1.5105  0.2374
  536MOL0     H72358   8.197   4.633   4.883  0.3971  3.2599 -3.8091
  536MOL0     H72359   8.372   4.620   4.829 -2.9307 -0.6650 -3.1512
  536MOL0     H72360   8.321   4.586   4.994  1.5122 -0.2926 -0.2895
  537MOL0     O72361   5.502   3.390   7.099  1.0430  0.1312  0.0865
  537MOL0     C72362   5.497   3.477   7.180  0.3389 -0.0116  0.1579
  537MOL0     O72363   5.541   3.608   7.160  0.1036  0.8182  0.6344
  537MOL0     C72364   5.594   3.637   7.032  0.0675 -0.7757  0.4309
  537MOL0     C72365   5.556   3.595   6.901  1.0661 -0.3383 -0.7427
  537MOL0     C72366   5.612   3.640   6.790  0.2680  0.4352 -0.2763
  537MOL0     C72367   5.714   3.740   6.800 -0.1554  0.0891  0.6746
  537MOL0     O72368   5.762   3.808   6.680  0.0938  0.0820  0.0754
  537MOL0     C72369   5.886   3.870   6.681 -0.3724 -0.7929  0.1844
  537MOL0     C72370   5.881   3.956   6.553 -0.6031  0.7383 -0.0441
  537MOL0     C72371   5.772   4.066   6.552  0.5595 -0.5179  0.0952
  537MOL0     C72372   5.737   4.120   6.408 -0.0277  0.4662 -0.7045
  537MOL0     C72373   5.659   4.013   6.318 -0.7183  0.5853  0.1472
  537MOL0     C72374   5.715   3.989   6.166 -0.7578 -0.1061  0.9824
  537MOL0     C72375   5.613   3.908   6.089 -0.5854  0.2785 -0.0573
  537MOL0     C72376   5.507   3.989   6.018 -0.3640 -0.2585  0.2328
  537MOL0     N72377   5.427   3.903   5.934  0.1926  0.2232 -0.1587
  537MOL0     C72378   5.372   3.783   5.969 -0.2106  0.9055  0.1004
  537MOL0     C72379   5.304   3.745   5.850  0.0686  0.3771 -0.0001
  537MOL0     C72380   5.226   3.625   5.827  0.1896 -0.2067  0.2739
  537MOL0     C72381   5.074   3.635   5.813  0.3095 -0.1382 -0.2265
  537MOL0     C72382   5.009   3.769   5.799  0.5487  0.5483  0.4417
  537MOL0     C72383   5.027   3.871   5.925 -0.0510 -0.3509  0.1409
  537MOL0     O72384   5.003   3.822   6.055 -0.8578  0.5601  0.4572
  537MOL0     C72385   5.058   3.899   6.160 -0.1492 -1.1299  0.3524
  537MOL0     C72386   5.017   4.032   6.184  1.5209  0.3931  0.1345
  537MOL0     C72387   5.067   4.099   6.294 -1.0830 -0.7625 -0.0395
  537MOL0     C72388   5.164   4.041   6.378  0.1013  0.0712  0.3310
  537MOL0     C72389   5.207   4.121   6.502  0.1655  0.1008 -0.2582
  537MOL0     O72390   5.269   4.045   6.595 -0.2535 -0.2784 -1.4408
  537MOL0     C72391   5.342   4.097   6.701  0.7710 -0.3794 -0.4279
  537MOL0     C72392   5.414   4.010   6.781  0.4690  0.3693 -0.1838
  537MOL0     C72393   5.486   4.055   6.893 -0.0733 -0.7012 -0.5055
  537MOL0     C72394   5.484   4.184   6.934 -0.4807 -0.2817  0.0135
  537MOL0     O72395   5.559   4.223   7.041 -0.8068  1.1944 -0.1834
  537MOL0     C72396   5.639   4.350   7.043  0.9186  0.3102  1.1822
  537MOL0     C72397   5.757   4.325   7.122  0.6497 -0.9634 -0.5099
  537MOL0     C72398   5.849   4.228   7.039 -0.0020  0.6236 -0.2217
  537MOL0     C72399   5.921   4.137   7.140 -0.2606  0.4751  0.5724
  537MOL0     C72400   5.983   4.192   7.270  0.4941 -0.6275  0.4672
  537MOL0     C72401   6.083   4.101   7.336 -0.3313 -1.3586 -0.4138
  537MOL0     C72402   6.152   4.155   7.469  0.1937 -0.2124 -0.0459
  537MOL0     C72403   6.240   4.062   7.542  0.0490  0.1400 -0.0900
  537MOL0    Cl72404   6.139   3.939   7.607  0.7751  0.0583  0.1584
  537MOL0     C72405   5.425   4.272   6.847  0.1975 -0.8133 -0.4329
  537MOL0     C72406   5.355   4.230   6.738 -1.0562 -0.0774 -0.5051
  537MOL0     O72407   5.150   4.232   6.514  0.1517 -0.7835 -0.6691
  537MOL0     C72408   5.205   3.912   6.354  0.0589  0.1044 -0.4171
  537MOL0     C72409   5.150   3.841   6.246  0.2760  0.5747 -0.4283
  537MOL0     N72410   5.320   3.837   5.754 -0.4122  0.1059 -0.3294
  537MOL0     N72411   5.390   3.931   5.809 -0.0626 -0.0452 -0.6244
  537MOL0     C72412   5.758   3.776   6.925  0.9495 -0.7915  0.1959
  537MOL0     C72413   5.704   3.719   7.046  0.3318 -0.7132  1.1762
  537MOL0     C72414   5.454   3.443   7.314 -0.3843 -0.1388 -0.1134
  537MOL0     C72415   5.475   3.307   7.363  0.4883 -0.8970 -0.1001
  537MOL0     C72416   5.451   3.269   7.495  0.8084 -0.4226  0.4932
  537MOL0     C72417   5.384   3.355   7.576 -0.5113 -0.3419  0.6053
  537MOL0     O72418   5.378   3.307   7.706  0.3827  0.6556  0.2542
  537MOL0     C72419   5.315   3.377   7.812  0.3284 -0.9919 -0.7556
  537MOL0     C72420   5.325   3.320   7.957 -0.5650  0.7858 -0.1895
  537MOL0     C72421   5.480   3.315   7.984  0.1119  0.1226 -0.3220
  537MOL0     C72422   5.507   3.279   8.130 -0.3412 -0.1347  1.1919
  537MOL0     C72423   5.429   3.168   8.176 -0.3667  0.0977  0.5786
  537MOL0     C72424   5.350   3.086   8.205  0.6729 -0.2835 -0.0610
  537MOL0     C72425   5.366   3.489   7.547  0.4699 -0.3079 -0.3624
  537MOL0     C72426   5.406   3.533   7.419 -0.7324 -0.5924 -0.8428
  537MOL0     C72427   5.366   3.673   7.381 -0.4993 -0.1602  0.2207
  537MOL0     H72428   5.477   3.521   6.895  2.4262 -2.5923  4.3710
  537MOL0     H72429   5.584   3.595   6.695 -0.3536  3.1192 -1.4485
  537MOL0     H72430   5.904   3.936   6.766 -0.4187 -1.5277  0.7701
  537MOL0     H72431   5.971   3.809   6.648  0.0501  1.1961 -2.8506
  537MOL0     H72432   5.863   3.891   6.467 -3.4423 -0.2256  1.1479
  537MOL0     H72433   5.980   3.995   6.530  0.4183 -1.8858 -0.4265
  537MOL0     H72434   5.807   4.144   6.622 -0.7255 -0.4841  0.7361
  537MOL0     H72435   5.678   4.026   6.592 -0.0678  0.8069  0.0060
  537MOL0     H72436   5.699   4.222   6.412  3.0321  1.7123 -0.4098
  537MOL0     H72437   5.830   4.134   6.351  0.1693 -1.7808 -1.0273
  537MOL0     H72438   5.667   3.913   6.361 -1.7768  0.0430 -0.8636
  537MOL0     H72439   5.553   4.039   6.305 -0.0023  3.2926 -0.9932
  537MOL0     H72440   5.725   4.082   6.110  0.4657 -0.2926  0.8561
  537MOL0     H72441   5.812   3.939   6.165  0.0134  1.0782 -3.4420
  537MOL0     H72442   5.563   3.843   6.162 -1.9619 -1.3617 -2.3139
  537MOL0     H72443   5.656   3.840   6.015  1.7527  0.5087  0.9933
  537MOL0     H72444   5.441   4.031   6.095 -1.6131 -3.0137  0.7776
  537MOL0     H72445   5.554   4.070   5.961  2.6820 -1.4050  0.9435
  537MOL0     H72446   5.391   3.725   6.059  0.5402 -0.2782 -0.7857
  537MOL0     H72447   5.249   3.584   5.728 -0.2237  1.0029 -0.3487
  537MOL0     H72448   5.255   3.552   5.904  0.9579  0.3377  0.5043
  537MOL0     H72449   5.043   3.577   5.725 -2.6889 -0.8264  1.1310
  537MOL0     H72450   5.018   3.590   5.897 -1.7835  1.4156 -0.7128
  537MOL0     H72451   4.901   3.758   5.794  0.4374  1.9919 -0.9951
  537MOL0     H72452   5.043   3.822   5.710 -0.3812 -2.3518 -1.7749
  537MOL0     H72453   4.978   3.965   5.898 -0.3444 -0.5433  0.0046
  537MOL0     H72454   5.134   3.894   5.932 -0.0174  0.7646 -2.8479
  537MOL0     H72455   4.942   4.073   6.117 -0.0953 -0.1110  1.5749
  537MOL0     H72456   5.054   4.207   6.288  2.0947 -0.2407  0.2044
  537MOL0     H72457   5.406   3.902   6.768 -1.2445  0.5873 -1.1858
  537MOL0     H72458   5.556   3.982   6.934  1.0237  0.0115 -1.0395
  537MOL0     H72459   5.662   4.382   6.941  0.5076 -3.0871 -0.0923
  537MOL0     H72460   5.578   4.431   7.085  1.4346  0.5005  1.5820
  537MOL0     H72461   5.801   4.422   7.146  1.8214 -1.4336 -0.7118
  537MOL0     H72462   5.724   4.281   7.217  4.5447 -1.7424  0.6628
  537MOL0     H72463   5.795   4.169   6.964 -1.6484  0.0964  1.3072
  537MOL0     H72464   5.920   4.291   6.985 -1.6263  2.8907  0.1339
  537MOL0     H72465   5.993   4.077   7.084 -0.3860  0.8266  0.0233
  537MOL0     H72466   5.848   4.063   7.172  0.6899 -1.3226 -1.2214
  537MOL0     H72467   5.904   4.237   7.331  0.7240  0.8445 -0.2812
  537MOL0     H72468   6.043   4.279   7.240  0.1445 -0.8857 -1.0876
  537MOL0     H72469   6.036   4.005   7.357 -2.7462  0.0358  1.1428
  537MOL0     H72470   6.169   4.098   7.269  3.0615  2.6873  3.1100
  537MOL0     H72471   6.080   4.189   7.545 -0.2294  1.1302 -1.0070
  537MOL0     H72472   6.209   4.245   7.443 -0.5247  0.5607  0.9474
  537MOL0     H72473   6.316   4.018   7.476  0.3731  0.5503  0.0060
  537MOL0     H72474   6.282   4.118   7.626  0.2668 -0.5335  0.2584
  537MOL0     H72475   5.444   4.377   6.867  2.2862 -0.2966 -4.1407
  537MOL0     H72476   5.301   4.304   6.679 -1.9346 -1.7509 -1.9309
  537MOL0     H72477   5.285   3.858   6.403 -2.0669 -2.9128  0.0526
  537MOL0     H72478   5.174   3.737   6.225 -0.8848 -0.0074  0.9661
  537MOL0     H72479   5.821   3.859   6.955  1.9745 -1.4085 -0.2069
  537MOL0     H72480   5.750   3.756   7.137  2.8732  1.7740 -0.9267
  537MOL0     H72481   5.509   3.236   7.287 -2.9041  1.1586 -3.9436
  537MOL0     H72482   5.486   3.171   7.527  1.4071 -0.3609  0.0311
  537MOL0     H72483   5.210   3.402   7.795 -0.9856 -1.5540  4.6337
  537MOL0     H72484   5.364   3.475   7.818 -2.0468  0.2064  2.9788
  537MOL0     H72485   5.278   3.225   7.979  1.3274 -0.0889  0.2914
  537MOL0     H72486   5.283   3.395   8.024  1.0626  1.4577  0.1441
  537MOL0     H72487   5.535   3.404   7.953  1.9886 -1.3088 -1.2916
  537MOL0     H72488   5.531   3.232   7.934 -1.0048  1.2128 -3.4902
  537MOL0     H72489   5.615   3.276   8.147  0.1996  2.7100 -0.8939
  537MOL0     H72490   5.480   3.368   8.187  0.8191  0.0544  1.4702
  537MOL0     H72491   5.274   3.014   8.226 -0.4336  0.3819 -1.6415
  537MOL0     H72492   5.330   3.565   7.615  0.0708  0.0757 -0.9942
  537MOL0     H72493   5.285   3.679   7.308  1.4306 -0.2078 -2.0380
  537MOL0     H72494   5.352   3.723   7.477  3.9054 -1.2841  1.6961
  537MOL0     H72495   5.438   3.735   7.327 -2.5828  1.6109 -0.6595
  538MOL0     O72496   5.258   0.998   6.530  0.1181 -0.3682 -0.0644
  538MOL0     C72497   5.136   1.024   6.549 -0.6569  0.8009  0.7298
  538MOL0     O72498   5.086   1.147   6.569  0.3783 -0.5053  0.1595
  538MOL0     C72499   5.172   1.252   6.591 -0.0002  0.4167  0.1463
  538MOL0     C72500   5.229   1.260   6.716  0.3342  0.5910 -0.8801
  538MOL0     C72501   5.301   1.373   6.755 -0.3943 -0.6079  0.3365
  538MOL0     C72502   5.342   1.458   6.648 -0.3156  0.3377 -0.4661
  538MOL0     O72503   5.452   1.556   6.669  0.5032  0.0815  0.1660
  538MOL0     C72504   5.488   1.585   6.803 -0.5354 -0.8423  0.0342
  538MOL0     C72505   5.568   1.717   6.807  0.0166 -1.0253 -0.7581
  538MOL0     C72506   5.595   1.768   6.951  0.3429 -0.1484 -0.0624
  538MOL0     C72507   5.705   1.870   6.952 -0.5267  0.2166 -0.0430
  538MOL0     C72508   5.733   1.932   7.090 -0.0378  0.0225 -0.2146
  538MOL0     C72509   5.872   1.990   7.105  0.0879 -0.6932  0.3634
  538MOL0     C72510   5.979   1.888   7.139 -0.7595 -0.1792  0.7639
  538MOL0     C72511   6.122   1.950   7.171  0.7873 -0.6289  0.3046
  538MOL0     N72512   6.215   1.849   7.233  0.2417  0.4675  0.1246
  538MOL0     C72513   6.192   1.793   7.357 -0.1843 -0.1192  0.5353
  538MOL0     C72514   6.282   1.686   7.344  0.9968  0.5771 -0.1972
  538MOL0     C72515   6.289   1.572   7.441  0.6407  0.1128  0.1588
  538MOL0     C72516   6.309   1.439   7.372 -1.3110 -0.7071  0.1543
  538MOL0     C72517   6.237   1.323   7.433 -0.9032 -0.3423  0.2267
  538MOL0     C72518   6.290   1.190   7.375  0.0499  0.3910 -0.5363
  538MOL0     O72519   6.427   1.178   7.407 -0.1275  0.0260  0.1946
  538MOL0     C72520   6.497   1.088   7.332  0.8270  0.7554  0.7817
  538MOL0     C72521   6.642   1.068   7.349  0.1854  0.6524 -0.4940
  538MOL0     C72522   6.721   0.978   7.278 -1.3262  0.2483  0.8259
  538MOL0     C72523   6.660   0.896   7.178 -0.0613  0.2286  0.2930
  538MOL0     C72524   6.739   0.804   7.093  0.2489 -0.9862 -0.0512
  538MOL0     O72525   6.689   0.756   6.978  0.0342 -0.6429  0.0865
  538MOL0     C72526   6.738   0.659   6.903  0.0814 -0.1996 -1.2114
  538MOL0     C72527   6.656   0.624   6.801 -0.2351 -1.0742 -0.2644
  538MOL0     C72528   6.693   0.527   6.704 -0.7008  0.3342 -0.2370
  538MOL0     C72529   6.798   0.441   6.734  0.5600  0.0589 -0.0059
  538MOL0     O72530   6.813   0.342   6.646 -0.9983  0.2063 -0.6307
  538MOL0     C72531   6.899   0.228   6.677  0.1364  0.1696  0.7232
  538MOL0     C72532   6.810   0.117   6.751  0.0255 -0.4301  1.0871
  538MOL0     C72533   6.857  -0.021   6.730 -0.5936 -0.2821  0.2003
  538MOL0     C72534   6.989  -0.050   6.800 -0.1861  1.0230  0.4955
  538MOL0     C72535   7.034  -0.198   6.780 -0.1412  0.5906 -0.0943
  538MOL0     C72536   7.067  -0.249   6.634 -0.1122  0.3775  0.2088
  538MOL0     C72537   6.941  -0.325   6.578 -0.3502  0.3642  0.4892
  538MOL0     C72538   6.970  -0.360   6.428  0.8094  0.3792  0.8190
  538MOL0    Cl72539   7.076  -0.501   6.405 -0.4029  0.1424 -0.1942
  538MOL0     C72540   6.882   0.470   6.848  0.5328 -0.3537  0.3165
  538MOL0     C72541   6.851   0.580   6.926 -1.5041  0.9456 -0.0560
  538MOL0     O72542   6.850   0.794   7.130 -0.1366  0.7555  0.2583
  538MOL0     C72543   6.519   0.907   7.160 -0.5188 -0.8620  0.8053
  538MOL0     C72544   6.446   0.994   7.238 -0.7816 -0.4963 -0.1993
  538MOL0     N72545   6.352   1.685   7.226  0.4508  0.2641 -0.8113
  538MOL0     N72546   6.305   1.785   7.157  0.1772  0.6522  0.0368
  538MOL0     C72547   5.304   1.441   6.513  0.8357  0.6014  0.5347
  538MOL0     C72548   5.219   1.333   6.487 -0.3670  0.4942 -0.7364
  538MOL0     C72549   5.043   0.905   6.540  0.2033  0.0189  0.1895
  538MOL0     C72550   5.029   0.822   6.429  0.8215 -0.2938  0.6491
  538MOL0     C72551   4.936   0.715   6.416 -0.0108  0.1369 -0.5994
  538MOL0     C72552   4.846   0.699   6.524  0.2394  0.1596  0.5308
  538MOL0     O72553   4.762   0.590   6.529  0.3016 -0.2241 -0.1005
  538MOL0     C72554   4.708   0.525   6.416  0.3775 -0.0695 -0.4750
  538MOL0     C72555   4.613   0.616   6.336 -0.3887 -0.8209 -0.0802
  538MOL0     C72556   4.481   0.650   6.409  0.3321 -0.8060  1.0497
  538MOL0     C72557   4.366   0.668   6.302 -0.6434  0.8685 -0.6773
  538MOL0     C72558   4.337   0.544   6.230 -0.8325 -0.0867 -0.6486
  538MOL0     C72559   4.319   0.431   6.191  0.0661  0.4171 -0.8028
  538MOL0     C72560   4.855   0.772   6.638 -0.0555 -0.1966 -0.0607
  538MOL0     C72561   4.945   0.880   6.644  0.0614  0.2130  0.7021
  538MOL0     C72562   4.943   0.964   6.773  0.4390 -0.1264  0.0148
  538MOL0     H72563   5.189   1.185   6.784 -5.9185  1.6414 -2.6805
  538MOL0     H72564   5.325   1.396   6.859 -0.8794  2.7494 -0.1833
  538MOL0     H72565   5.399   1.614   6.861  0.5172  3.0425  0.0280
  538MOL0     H72566   5.539   1.501   6.850 -0.7047 -1.0095 -0.0770
  538MOL0     H72567   5.506   1.790   6.755 -0.7646 -0.2851  1.1330
  538MOL0     H72568   5.661   1.714   6.749 -1.2736  0.3363 -3.0337
  538MOL0     H72569   5.625   1.686   7.016  1.2002  0.4563  0.3266
  538MOL0     H72570   5.507   1.822   6.988  0.5746  1.9419 -2.2913
  538MOL0     H72571   5.792   1.816   6.912 -1.6895 -0.5816 -1.5901
  538MOL0     H72572   5.673   1.939   6.873 -2.3560 -2.6550 -2.0202
  538MOL0     H72573   5.654   2.004   7.114 -0.8359 -0.6730 -0.6811
  538MOL0     H72574   5.727   1.854   7.167 -0.6256  0.8611  0.6115
  538MOL0     H72575   5.894   2.042   7.012 -1.3947 -2.4059 -1.0335
  538MOL0     H72576   5.874   2.057   7.191  2.7955 -2.1581  1.5677
  538MOL0     H72577   5.994   1.816   7.058 -2.1513  1.8204 -1.3998
  538MOL0     H72578   5.947   1.829   7.225 -1.6259  0.5329  0.9382
  538MOL0     H72579   6.151   1.992   7.074  1.0262  2.3917  1.5777
  538MOL0     H72580   6.102   2.041   7.227 -4.1449  0.1469 -2.1206
  538MOL0     H72581   6.114   1.804   7.432 -0.0943 -2.4838  1.0510
  538MOL0     H72582   6.368   1.580   7.515 -2.0764  1.8610  3.1499
  538MOL0     H72583   6.197   1.582   7.500 -0.4500 -0.1579 -1.4136
  538MOL0     H72584   6.292   1.433   7.264  1.9051 -3.4936 -0.3734
  538MOL0     H72585   6.418   1.427   7.372 -0.9823  1.7681  0.2662
  538MOL0     H72586   6.130   1.333   7.416 -1.2290 -1.7630  1.2545
  538MOL0     H72587   6.254   1.322   7.541 -1.8391  0.1156  0.3828
  538MOL0     H72588   6.288   1.199   7.266  2.4941  3.0700 -0.4869
  538MOL0     H72589   6.227   1.109   7.412  0.1566  0.2260 -0.7116
  538MOL0     H72590   6.695   1.135   7.416 -0.4161  0.3088  0.3425
  538MOL0     H72591   6.827   0.963   7.296 -1.2200 -0.4359 -0.2943
  538MOL0     H72592   6.575   0.692   6.777  1.4944  0.5319 -2.0015
  538MOL0     H72593   6.625   0.494   6.627 -2.1736  0.1204  1.1028
  538MOL0     H72594   6.941   0.193   6.582  1.6219 -2.8541  2.3553
  538MOL0     H72595   6.989   0.256   6.732  2.5883 -0.1899 -2.7743
  538MOL0     H72596   6.812   0.154   6.854 -0.1817  4.0958 -0.2933
  538MOL0     H72597   6.706   0.115   6.719 -0.0588 -0.6820  1.3723
  538MOL0     H72598   6.793  -0.095   6.779 -0.5727  0.6890  1.7854
  538MOL0     H72599   6.858  -0.038   6.622 -0.7063  1.3013 -0.0733
  538MOL0     H72600   6.993  -0.030   6.908  3.4737 -0.3902  0.7494
  538MOL0     H72601   7.062   0.018   6.757 -0.7010  0.3984 -1.4548
  538MOL0     H72602   6.962  -0.262   6.832  0.0585 -0.8109 -1.4557
  538MOL0     H72603   7.127  -0.211   6.837 -1.0955  1.7099  1.8080
  538MOL0     H72604   7.082  -0.158   6.575 -1.3771  0.2796 -0.2932
  538MOL0     H72605   7.157  -0.312   6.632  0.4119  1.0978  0.4333
  538MOL0     H72606   6.859  -0.253   6.575 -1.3984 -0.7905  0.8738
  538MOL0     H72607   6.916  -0.409   6.643  2.1033 -1.9774 -1.3304
  538MOL0     H72608   6.871  -0.390   6.393  0.3354  0.5683  1.9526
  538MOL0     H72609   7.006  -0.281   6.363  0.7700  0.7636  1.2617
  538MOL0     H72610   6.965   0.404   6.872  1.3826  1.1021  1.5539
  538MOL0     H72611   6.913   0.604   7.012 -1.7559  1.0857  0.0854
  538MOL0     H72612   6.462   0.834   7.102 -1.2011  0.5201 -0.3277
  538MOL0     H72613   6.341   0.974   7.221 -1.4581  1.3049  1.5616
  538MOL0     H72614   5.345   1.498   6.430 -0.2661  1.9139  0.8525
  538MOL0     H72615   5.170   1.304   6.394 -2.4585 -2.8658  1.1944
  538MOL0     H72616   5.107   0.834   6.353  1.2263  2.7475  1.4020
  538MOL0     H72617   4.945   0.650   6.330 -2.5823 -2.2667  0.7574
  538MOL0     H72618   4.662   0.431   6.449 -1.9001  0.4541 -1.9573
  538MOL0     H72619   4.793   0.515   6.347  0.7878 -0.2168  0.0448
  538MOL0     H72620   4.581   0.568   6.243 -0.9986  1.1407 -0.9228
  538MOL0     H72621   4.668   0.703   6.302  2.6446 -2.5749  0.0123
  538MOL0     H72622   4.484   0.736   6.477 -0.7045 -0.1960  0.3494
  538MOL0     H72623   4.440   0.563   6.461 -0.2589 -1.0648  0.1664
  538MOL0     H72624   4.273   0.686   6.358  0.0224 -0.6866  1.0693
  538MOL0     H72625   4.377   0.748   6.229 -0.9881  0.7824 -0.8299
  538MOL0     H72626   4.294   0.338   6.144 -5.5367  0.6351  1.0185
  538MOL0     H72627   4.788   0.753   6.722  0.1745  0.9472  0.3987
  538MOL0     H72628   4.871   0.921   6.843  0.6253 -2.0750 -0.9113
  538MOL0     H72629   5.041   0.958   6.822  0.8031 -4.1460 -0.8372
  538MOL0     H72630   4.914   1.065   6.743  1.1706  0.1346  0.1643
  539MOL0     O72631   4.678   1.465   4.000  0.0629  0.1230 -0.4660
  539MOL0     C72632   4.739   1.370   3.979 -0.8075 -0.2261  0.0704
  539MOL0     O72633   4.813   1.348   3.867 -0.0802  0.6086  0.3973
  539MOL0     C72634   4.810   1.433   3.763  0.1748  0.3820 -0.2810
  539MOL0     C72635   4.825   1.572   3.776  0.0782  0.9915 -0.7247
  539MOL0     C72636   4.812   1.656   3.666  0.8806  0.0454 -0.5742
  539MOL0     C72637   4.774   1.596   3.539 -0.7306  0.4123 -0.1573
  539MOL0     O72638   4.750   1.691   3.446  0.3997  0.5357  0.2871
  539MOL0     C72639   4.810   1.663   3.313 -1.2604 -0.1264  0.4520
  539MOL0     C72640   4.798   1.771   3.208  0.1901  0.5401  0.6130
  539MOL0     C72641   4.838   1.905   3.254 -0.5177  0.1909 -0.5104
  539MOL0     C72642   4.813   2.000   3.144  0.3504 -0.0176 -0.0279
  539MOL0     C72643   4.880   2.133   3.172  0.1431 -0.9620  0.3152
  539MOL0     C72644   4.790   2.247   3.125  1.3346 -0.4582 -0.4838
  539MOL0     C72645   4.858   2.380   3.153  0.3320 -0.2325  0.1465
  539MOL0     C72646   4.763   2.499   3.133 -0.4122 -0.5616 -1.3510
  539MOL0     N72647   4.720   2.513   2.995 -0.4531  0.6697 -0.5613
  539MOL0     C72648   4.769   2.610   2.905  0.8401 -0.6340 -0.1385
  539MOL0     C72649   4.708   2.587   2.790  0.3202  1.2764 -0.3095
  539MOL0     C72650   4.681   2.682   2.685 -0.4005 -0.8101  0.4885
  539MOL0     C72651   4.543   2.754   2.705  0.0821 -0.0427  0.6154
  539MOL0     C72652   4.421   2.696   2.627 -0.2846  0.4850 -0.4335
  539MOL0     C72653   4.297   2.784   2.618  0.0240 -0.0166 -0.1511
  539MOL0     O72654   4.267   2.837   2.744  0.0161 -0.4120 -1.0418
  539MOL0     C72655   4.140   2.851   2.783  0.2706 -0.1085 -0.2443
  539MOL0     C72656   4.120   2.856   2.916  0.3788  0.8946  0.1243
  539MOL0     C72657   3.984   2.885   2.970  0.5530 -0.8179  0.6074
  539MOL0     C72658   3.879   2.893   2.874  0.1855  0.1702 -0.8105
  539MOL0     C72659   3.743   2.910   2.920 -0.0642  0.1264 -0.0059
  539MOL0     O72660   3.665   2.937   2.824 -0.1031  0.4312  0.1854
  539MOL0     C72661   3.533   2.936   2.836 -0.2201 -0.2360  0.6023
  539MOL0     C72662   3.486   2.830   2.769  1.4448  0.6322 -0.9322
  539MOL0     C72663   3.353   2.797   2.782 -1.5459  0.0003 -0.7202
  539MOL0     C72664   3.265   2.858   2.876  0.3175  0.4101  0.2218
  539MOL0     O72665   3.136   2.807   2.902 -0.2798  0.3121 -0.1671
  539MOL0     C72666   3.117   2.774   3.042  0.1752 -0.5218  0.8002
  539MOL0     C72667   2.967   2.744   3.070 -0.4743  0.2987  0.6157
  539MOL0     C72668   2.945   2.614   3.150 -0.0985 -0.6035 -1.0361
  539MOL0     C72669   2.820   2.537   3.105 -0.5856  0.5668  0.1546
  539MOL0     C72670   2.688   2.615   3.111 -0.5473 -0.3022 -0.2310
  539MOL0     C72671   2.575   2.521   3.091 -0.4350 -0.0217  0.7999
  539MOL0     C72672   2.450   2.592   3.074 -0.9411 -0.5507 -0.2082
  539MOL0     C72673   2.339   2.494   3.025  0.3168  1.1279  0.5152
  539MOL0    Cl72674   2.299   2.351   3.139 -0.3541 -0.3964 -0.4079
  539MOL0     C72675   3.314   2.979   2.935 -1.3074  0.5780 -0.0413
  539MOL0     C72676   3.450   3.022   2.910  0.4351  0.2742  0.3237
  539MOL0     O72677   3.716   2.889   3.038  0.1328  0.2024 -0.1610
  539MOL0     C72678   3.906   2.883   2.740 -0.1175  0.5409 -0.1266
  539MOL0     C72679   4.032   2.860   2.699 -0.6744 -0.2351  0.2349
  539MOL0     N72680   4.617   2.479   2.800 -1.1038 -0.4569 -1.1696
  539MOL0     N72681   4.628   2.442   2.924  0.2709  0.0958  0.5017
  539MOL0     C72682   4.769   1.453   3.522  0.7197 -0.1783  0.4166
  539MOL0     C72683   4.778   1.378   3.643 -1.8875 -0.0421 -0.6576
  539MOL0     C72684   4.757   1.270   4.077  0.0298  0.8983 -0.5832
  539MOL0     C72685   4.637   1.216   4.131  0.3599 -0.5142  0.0784
  539MOL0     C72686   4.637   1.105   4.218  0.4171 -0.5069 -0.0307
  539MOL0     C72687   4.763   1.046   4.259 -0.3672 -0.7368  0.1040
  539MOL0     O72688   4.787   0.928   4.324 -0.4675  0.8584 -0.8653
  539MOL0     C72689   4.669   0.871   4.373  0.5548 -0.2087 -0.1625
  539MOL0     C72690   4.689   0.748   4.463  0.3993 -0.4467 -0.5183
  539MOL0     C72691   4.787   0.653   4.395 -0.5797 -0.2817  0.2265
  539MOL0     C72692   4.807   0.522   4.472 -0.0749  0.9006 -0.6949
  539MOL0     C72693   4.903   0.432   4.422 -0.8396 -0.1979  0.0150
  539MOL0     C72694   4.993   0.353   4.385 -0.5620  0.5639 -0.4448
  539MOL0     C72695   4.879   1.117   4.222  0.3270 -1.2482  0.2226
  539MOL0     C72696   4.876   1.226   4.134 -0.5707 -0.5497  0.6057
  539MOL0     C72697   5.011   1.291   4.092  0.7355 -0.1853  0.2590
  539MOL0     H72698   4.861   1.611   3.871  4.5293 -1.5561 -1.1119
  539MOL0     H72699   4.826   1.763   3.671 -0.1919  0.1754 -0.0029
  539MOL0     H72700   4.919   1.651   3.322 -1.0235  0.3514 -1.5008
  539MOL0     H72701   4.777   1.564   3.281 -2.8254  1.1731 -2.2366
  539MOL0     H72702   4.692   1.776   3.182 -0.4292  5.0521  3.0373
  539MOL0     H72703   4.861   1.732   3.127  1.1192 -0.4340  1.7726
  539MOL0     H72704   4.941   1.890   3.288 -1.5883 -0.8545  2.6134
  539MOL0     H72705   4.790   1.937   3.347 -0.2683 -0.1737 -0.2509
  539MOL0     H72706   4.861   1.963   3.052 -1.1981 -0.1833 -0.8081
  539MOL0     H72707   4.707   2.015   3.123  0.3771  1.9695  0.9990
  539MOL0     H72708   4.897   2.150   3.279 -2.3308  2.0372  0.3559
  539MOL0     H72709   4.977   2.132   3.121 -1.0179  1.1319 -2.1297
  539MOL0     H72710   4.778   2.239   3.016 -0.7366  3.3605 -0.7346
  539MOL0     H72711   4.691   2.250   3.173  0.5212 -2.6404 -1.8489
  539MOL0     H72712   4.946   2.398   3.091  0.0846  2.4893  0.4723
  539MOL0     H72713   4.893   2.387   3.257  0.5276 -1.0634  0.1459
  539MOL0     H72714   4.677   2.490   3.200  1.9635 -2.0048  1.8072
  539MOL0     H72715   4.810   2.594   3.162 -2.2299 -0.0074  0.0084
  539MOL0     H72716   4.837   2.692   2.924 -2.6884  2.0754  2.1157
  539MOL0     H72717   4.765   2.752   2.682 -0.1996 -1.0507 -2.8999
  539MOL0     H72718   4.669   2.634   2.588 -1.6385 -0.6552  0.5498
  539MOL0     H72719   4.512   2.759   2.810  0.4912 -2.0348  0.8732
  539MOL0     H72720   4.544   2.859   2.676  0.8644  0.1385  1.2569
  539MOL0     H72721   4.389   2.610   2.687  1.4918  0.2727  0.2767
  539MOL0     H72722   4.452   2.657   2.529  1.3505  0.8772 -0.0894
  539MOL0     H72723   4.217   2.717   2.584 -1.9510  2.7139 -1.2474
  539MOL0     H72724   4.315   2.863   2.544 -2.0396  0.5891 -0.0624
  539MOL0     H72725   4.197   2.832   2.989 -2.5102 -0.2892  3.0695
  539MOL0     H72726   3.972   2.898   3.078  0.5150 -1.5831  0.7083
  539MOL0     H72727   3.552   2.769   2.707 -1.2383 -1.7716 -1.6323
  539MOL0     H72728   3.326   2.711   2.721 -0.6272 -0.4708 -0.4779
  539MOL0     H72729   3.181   2.687   3.061  0.4737 -0.7169 -0.9436
  539MOL0     H72730   3.144   2.859   3.106 -0.0326 -0.0151  0.2253
  539MOL0     H72731   2.923   2.828   3.125  0.2814  0.6964  0.6302
  539MOL0     H72732   2.920   2.737   2.972 -1.1112  2.4196  0.7262
  539MOL0     H72733   3.031   2.554   3.116  0.8302 -0.4303  0.8606
  539MOL0     H72734   2.957   2.630   3.257 -0.9499  2.3113 -1.2950
  539MOL0     H72735   2.797   2.453   3.171  2.2308 -0.4119  0.0145
  539MOL0     H72736   2.830   2.496   3.004 -1.0857 -1.1609  0.7686
  539MOL0     H72737   2.688   2.673   3.018  1.0905 -1.0807 -0.7582
  539MOL0     H72738   2.685   2.678   3.200  2.6174 -0.2312 -0.0480
  539MOL0     H72739   2.590   2.474   2.993 -2.0930  0.1159  0.4388
  539MOL0     H72740   2.562   2.446   3.169  1.9906 -0.9969  0.3407
  539MOL0     H72741   2.466   2.679   3.010  2.2972  1.2384  2.7009
  539MOL0     H72742   2.438   2.620   3.179  2.1190  2.4923 -0.4913
  539MOL0     H72743   2.250   2.555   3.008  1.2309  1.4693 -5.0027
  539MOL0     H72744   2.358   2.453   2.926  0.8596 -3.2672  2.2185
  539MOL0     H72745   3.256   3.042   3.002 -1.7536 -1.1277  1.2609
  539MOL0     H72746   3.504   3.114   2.932 -0.2125  0.2585  2.1749
  539MOL0     H72747   3.826   2.883   2.666  0.0643  1.2525 -0.3320
  539MOL0     H72748   4.044   2.869   2.591 -2.7667  1.9668  0.0900
  539MOL0     H72749   4.741   1.408   3.427  0.9965 -2.4434  1.3345
  539MOL0     H72750   4.787   1.270   3.636  0.6090  0.0503  0.2281
  539MOL0     H72751   4.551   1.268   4.090  1.0338 -0.0424 -0.7801
  539MOL0     H72752   4.547   1.071   4.268  1.5220 -2.9439  0.4487
  539MOL0     H72753   4.607   0.838   4.289 -0.8037 -1.0219  1.1164
  539MOL0     H72754   4.602   0.939   4.427 -0.1937 -0.4998 -0.6918
  539MOL0     H72755   4.593   0.698   4.472 -1.0081  2.2892  1.3124
  539MOL0     H72756   4.705   0.793   4.562 -2.6916 -1.5832  0.6134
  539MOL0     H72757   4.886   0.700   4.394 -1.7514  2.3597  0.4058
  539MOL0     H72758   4.758   0.632   4.292 -3.0272 -3.0441  1.3432
  539MOL0     H72759   4.837   0.537   4.576  2.0571  0.9666 -1.2725
  539MOL0     H72760   4.704   0.487   4.470 -0.5506  2.2565 -2.3682
  539MOL0     H72761   5.065   0.273   4.381  0.1631  0.8283  3.2544
  539MOL0     H72762   4.977   1.088   4.258  0.4740  0.1162  1.0026
  539MOL0     H72763   5.082   1.302   4.174 -0.8364 -1.9307  1.9336
  539MOL0     H72764   5.060   1.232   4.014 -1.2008  0.2890 -1.4116
  539MOL0     H72765   4.992   1.387   4.042  2.0913 -1.0856 -2.1360
  540MOL0     O72766   7.845  11.259   5.759  0.4054 -0.7937 -0.9564
  540MOL0     C72767   7.793  11.321   5.859 -0.5826 -0.4146  0.5041
  540MOL0     O72768   7.711  11.435   5.839  0.1790  0.0641  0.6824
  540MOL0     C72769   7.618  11.411   5.739  0.6119 -0.3472 -0.1683
  540MOL0     C72770   7.657  11.433   5.603 -0.5950  0.4110  1.0044
  540MOL0     C72771   7.562  11.453   5.507 -0.4918  0.5855 -0.0648
  540MOL0     C72772   7.417  11.442   5.539  0.1678 -0.6982 -0.1752
  540MOL0     O72773   7.320  11.448   5.440 -0.0300 -0.0155 -1.2172
  540MOL0     C72774   7.347  11.387   5.314 -0.1422  0.2047 -0.4888
  540MOL0     C72775   7.348  11.232   5.323  0.6084  0.2671 -0.5975
  540MOL0     C72776   7.423  11.186   5.191  0.3223  0.3262 -0.4503
  540MOL0     C72777   7.333  11.217   5.066  0.2883  0.2630 -0.7787
  540MOL0     C72778   7.407  11.176   4.945  0.9252  0.1616 -0.5390
  540MOL0     C72779   7.330  11.210   4.809  0.0254  0.5870 -0.8345
  540MOL0     C72780   7.183  11.148   4.805 -0.2889  0.6177  0.4265
  540MOL0     C72781   7.116  11.114   4.672  0.2779  0.2257 -0.5481
  540MOL0     N72782   6.985  11.054   4.672 -0.6007 -0.4017 -0.2789
  540MOL0     C72783   6.959  10.940   4.729 -0.1625  1.1258 -0.5297
  540MOL0     C72784   6.825  10.932   4.767  0.9511  0.4526  0.1723
  540MOL0     C72785   6.768  10.815   4.831 -0.8252  1.1305 -0.3515
  540MOL0     C72786   6.686  10.728   4.741 -0.7610 -0.0497  0.5795
  540MOL0     C72787   6.772  10.646   4.647 -0.4507 -0.7109 -0.0967
  540MOL0     C72788   6.698  10.602   4.531 -0.2600  0.0951  0.4982
  540MOL0     O72789   6.772  10.528   4.433  0.7054 -0.3664  0.9030
  540MOL0     C72790   6.833  10.418   4.471  0.1201  0.0864 -0.3008
  540MOL0     C72791   6.965  10.396   4.435 -0.9225  0.1956 -0.7111
  540MOL0     C72792   7.031  10.278   4.469  0.4332  0.1710 -0.2089
  540MOL0     C72793   6.985  10.192   4.569 -0.2830 -0.0895 -0.6269
  540MOL0     C72794   7.075  10.085   4.611  0.7589  0.1781 -0.1353
  540MOL0     O72795   7.011   9.996   4.694  0.2526  0.1429 -0.3197
  540MOL0     C72796   7.095   9.902   4.755 -0.1541 -0.4211  0.3214
  540MOL0     C72797   7.221   9.920   4.809 -0.0412 -0.4024 -0.0138
  540MOL0     C72798   7.292   9.822   4.889  0.3644  0.1612  0.7909
  540MOL0     C72799   7.228   9.705   4.930 -0.0734 -0.4196  0.1766
  540MOL0     O72800   7.295   9.614   5.012 -0.2395 -0.2622 -0.0460
  540MOL0     C72801   7.231   9.568   5.132 -0.0068 -0.1401  0.0806
  540MOL0     C72802   7.252   9.676   5.243  0.0036 -0.5989  1.1159
  540MOL0     C72803   7.181   9.644   5.378  0.7058  0.6542  0.5931
  540MOL0     C72804   7.249   9.714   5.500  0.1015 -0.1450  0.5045
  540MOL0     C72805   7.345   9.627   5.585 -0.4938  0.8089  0.0566
  540MOL0     C72806   7.478   9.606   5.514 -0.2921  0.2204 -0.5562
  540MOL0     C72807   7.572   9.525   5.610 -0.5883 -0.4352  1.0508
  540MOL0     C72808   7.530   9.390   5.659 -0.0563 -0.9232  0.0194
  540MOL0    Cl72809   7.676   9.312   5.693 -0.4424  0.3268  0.1403
  540MOL0     C72810   7.104   9.690   4.871  0.5599 -0.1474 -0.6879
  540MOL0     C72811   7.038   9.775   4.774 -0.6778  0.0611  0.3210
  540MOL0     O72812   7.197  10.067   4.578  0.1876  0.2121  0.2025
  540MOL0     C72813   6.852  10.206   4.616  0.2213 -0.1849  1.5239
  540MOL0     C72814   6.779  10.326   4.568 -0.5472 -0.4086 -0.1023
  540MOL0     N72815   6.773  11.049   4.711  0.2138  0.2023  0.0509
  540MOL0     N72816   6.874  11.120   4.655 -0.3495  0.4129 -0.3648
  540MOL0     C72817   7.379  11.436   5.674  0.2747 -0.0900 -0.1785
  540MOL0     C72818   7.477  11.420   5.782 -0.8623  0.8063  1.0709
  540MOL0     C72819   7.842  11.289   6.000  0.7915  0.2272 -0.0582
  540MOL0     C72820   7.895  11.159   6.013 -0.3434  0.1718  0.3898
  540MOL0     C72821   7.941  11.116   6.137  0.2634  0.1800  0.1082
  540MOL0     C72822   7.939  11.197   6.243  0.3905 -0.4352 -0.6791
  540MOL0     O72823   7.987  11.145   6.352 -0.4357 -0.8983 -0.2528
  540MOL0     C72824   7.986  11.215   6.486 -0.3431  0.0172 -0.5187
  540MOL0     C72825   8.120  11.293   6.491  0.1931  0.5300 -0.7165
  540MOL0     C72826   8.141  11.377   6.626  0.5836 -0.0321 -0.3768
  540MOL0     C72827   8.282  11.426   6.660  0.7333 -0.0557 -0.0528
  540MOL0     C72828   8.331  11.541   6.578 -1.0919  0.7840 -0.5922
  540MOL0     C72829   8.377  11.631   6.522  0.3492  0.3423 -0.3336
  540MOL0     C72830   7.889  11.331   6.235 -0.1062  0.3044 -0.3831
  540MOL0     C72831   7.834  11.373   6.111  0.2234 -0.4859  0.2099
  540MOL0     C72832   7.786  11.515   6.115  0.6481 -0.4889 -0.6119
  540MOL0     H72833   7.762  11.440   5.579 -0.3133 -1.9483  1.3164
  540MOL0     H72834   7.579  11.467   5.401  1.1315 -0.2124  0.0632
  540MOL0     H72835   7.271  11.437   5.253  1.1812  2.8058 -0.1607
  540MOL0     H72836   7.434  11.421   5.256  1.1266 -3.8285 -1.2771
  540MOL0     H72837   7.257  11.173   5.340  1.2919 -0.3229  1.3369
  540MOL0     H72838   7.419  11.203   5.401  0.6680  3.1238  0.5339
  540MOL0     H72839   7.435  11.077   5.200  1.9009  0.2318 -2.9104
  540MOL0     H72840   7.516  11.242   5.190  0.2886  0.3995  0.0819
  540MOL0     H72841   7.235  11.170   5.058  1.3424 -2.9817  2.7656
  540MOL0     H72842   7.312  11.324   5.060 -1.4749 -0.0955 -1.4231
  540MOL0     H72843   7.505  11.224   4.936  0.0339  1.7011 -3.1079
  540MOL0     H72844   7.426  11.069   4.944 -0.3218 -0.0659 -1.0197
  540MOL0     H72845   7.320  11.318   4.791  0.1512  0.4667 -1.6715
  540MOL0     H72846   7.380  11.178   4.717  1.7471 -3.2690  1.2085
  540MOL0     H72847   7.118  11.224   4.848  0.5799  3.0933 -2.2673
  540MOL0     H72848   7.174  11.056   4.862  0.2376 -1.3867 -2.4922
  540MOL0     H72849   7.090  11.217   4.648  0.2378  0.9892  2.4024
  540MOL0     H72850   7.172  11.051   4.602 -2.1057 -2.2799 -0.3788
  540MOL0     H72851   7.021  10.854   4.753 -2.3992 -0.1563  1.0525
  540MOL0     H72852   6.847  10.755   4.876 -2.9077 -1.5698 -0.0418
  540MOL0     H72853   6.707  10.859   4.910 -0.4602  1.1936 -0.1042
  540MOL0     H72854   6.623  10.662   4.802 -1.4639  1.1804  1.2231
  540MOL0     H72855   6.635  10.806   4.683  2.4962  1.0620 -0.9953
  540MOL0     H72856   6.832  10.567   4.693 -0.1592  1.2808  3.3431
  540MOL0     H72857   6.842  10.706   4.588 -1.4435  2.1435  1.4298
  540MOL0     H72858   6.645  10.678   4.472  0.1346 -0.1565 -0.1995
  540MOL0     H72859   6.607  10.546   4.556 -0.4384 -2.4426 -4.5186
  540MOL0     H72860   7.006  10.471   4.367  0.7614 -2.3183 -2.6746
  540MOL0     H72861   7.135  10.261   4.442  0.7154 -0.6490  1.2515
  540MOL0     H72862   7.270  10.016   4.806  1.4797 -1.1850 -1.3074
  540MOL0     H72863   7.393   9.842   4.922  0.2892  0.9033  0.5868
  540MOL0     H72864   7.126   9.555   5.103  0.3953 -1.4775 -0.8741
  540MOL0     H72865   7.270   9.474   5.172  0.5067 -0.6040 -1.4747
  540MOL0     H72866   7.356   9.708   5.252  1.1666 -3.9580  1.1253
  540MOL0     H72867   7.208   9.767   5.200  0.2444 -0.5909  0.8813
  540MOL0     H72868   7.076   9.668   5.367 -0.0916 -2.7333 -0.5411
  540MOL0     H72869   7.190   9.535   5.388 -2.7369 -0.1843 -3.0523
  540MOL0     H72870   7.164   9.746   5.561 -0.1142  0.7105 -0.2165
  540MOL0     H72871   7.294   9.809   5.469 -0.1018  0.4912  2.0638
  540MOL0     H72872   7.288   9.538   5.613 -0.5026  0.2233 -1.6913
  540MOL0     H72873   7.368   9.675   5.681 -2.2895  1.0716  0.3892
  540MOL0     H72874   7.449   9.548   5.426 -2.3410  1.7539 -0.9717
  540MOL0     H72875   7.526   9.696   5.474 -1.3102 -0.0936 -2.6485
  540MOL0     H72876   7.592   9.591   5.694  0.6886 -0.4943  0.8175
  540MOL0     H72877   7.664   9.497   5.557 -0.8007 -0.8362  0.8847
  540MOL0     H72878   7.472   9.390   5.752  0.0740 -2.1205  0.1252
  540MOL0     H72879   7.479   9.327   5.585  0.3609 -0.3774 -0.7418
  540MOL0     H72880   7.048   9.600   4.892 -1.4128  1.0277 -0.7131
  540MOL0     H72881   6.938   9.757   4.735 -1.5062  3.4281  0.5078
  540MOL0     H72882   6.815  10.144   4.697  0.1401 -2.1306  0.0671
  540MOL0     H72883   6.690  10.354   4.623  0.4151 -3.9651  3.7848
  540MOL0     H72884   7.274  11.427   5.699  0.2679  1.9972  0.7698
  540MOL0     H72885   7.455  11.426   5.888  2.0884  2.5058  1.6917
  540MOL0     H72886   7.888  11.091   5.928 -1.5272 -0.7382  1.1823
  540MOL0     H72887   7.978  11.014   6.139 -0.8026 -0.2099  0.2461
  540MOL0     H72888   7.988  11.148   6.572 -1.1123  0.9073  0.2139
  540MOL0     H72889   7.899  11.280   6.493  0.6142  1.8405 -3.5398
  540MOL0     H72890   8.136  11.359   6.405  0.1097  1.8067  0.2121
  540MOL0     H72891   8.210  11.230   6.486  1.8923  2.6252  1.1730
  540MOL0     H72892   8.099  11.320   6.709  0.4365  0.1422 -0.3277
  540MOL0     H72893   8.070  11.461   6.630  0.8904  0.1680  2.3043
  540MOL0     H72894   8.280  11.455   6.765  0.4250 -0.9034  0.1809
  540MOL0     H72895   8.353  11.343   6.651  0.8245  0.1612 -1.8159
  540MOL0     H72896   8.420  11.717   6.475  1.1156 -0.5721 -1.3412
  540MOL0     H72897   7.880  11.394   6.323 -0.3203  1.4223 -1.1814
  540MOL0     H72898   7.824  11.560   6.207  0.4737 -1.3439 -0.1042
  540MOL0     H72899   7.837  11.573   6.038  0.9457  0.8053  0.5197
  540MOL0     H72900   7.677  11.525   6.105  0.5383  0.3691  1.0856
  541MOL0     O72901   8.120  10.267   2.634 -0.6100 -0.3781 -0.0886
  541MOL0     C72902   8.211  10.194   2.606 -0.4659 -0.2228 -0.3997
  541MOL0     O72903   8.324  10.224   2.546  0.1298  0.2469  0.0603
  541MOL0     C72904   8.347  10.349   2.511  0.1244 -0.1423 -0.5746
  541MOL0     C72905   8.391  10.386   2.385 -0.9791  0.7441 -0.2477
  541MOL0     C72906   8.442  10.517   2.355 -0.4472  0.4153 -0.7495
  541MOL0     C72907   8.431  10.620   2.443  0.7430 -0.3276  0.2264
  541MOL0     O72908   8.482  10.741   2.406 -0.4370 -0.4348  0.4995
  541MOL0     C72909   8.561  10.818   2.504 -0.6384 -0.9475  0.3374
  541MOL0     C72910   8.620  10.943   2.440 -0.4790 -0.3760 -0.1593
  541MOL0     C72911   8.769  10.921   2.393  0.5450  0.3831  0.5350
  541MOL0     C72912   8.848  11.046   2.378 -0.2702 -0.2186 -0.0496
  541MOL0     C72913   8.795  11.153   2.289  0.1029  0.3692 -0.9772
  541MOL0     C72914   8.874  11.279   2.286 -0.6084  0.3832  0.1657
  541MOL0     C72915   8.894  11.347   2.424  0.0734  1.4612 -1.0127
  541MOL0     C72916   8.945  11.487   2.419  0.0745  0.5667 -0.0911
  541MOL0     N72917   9.028  11.531   2.536 -0.3659  0.1139  0.2675
  541MOL0     C72918   9.161  11.500   2.545 -0.3305 -0.7586  0.0529
  541MOL0     C72919   9.209  11.581   2.644 -0.9014 -0.6811 -0.2710
  541MOL0     C72920   9.353  11.572   2.690  0.2952  0.1920  0.9822
  541MOL0     C72921   9.374  11.496   2.826  0.4524  0.1385 -0.1835
  541MOL0     C72922   9.522  11.520   2.861  0.1143 -0.1133 -0.4319
  541MOL0     C72923   9.557  11.487   3.013  0.0097  0.0263  0.5364
  541MOL0     O72924   9.462  11.560   3.097 -0.7585  0.3729 -0.4364
  541MOL0     C72925   9.514  11.659   3.185  0.4140  0.4133 -0.5116
  541MOL0     C72926   9.436  11.767   3.214  0.0672 -0.3619  0.5276
  541MOL0     C72927   9.490  11.884   3.278  0.4496 -0.0285  0.1270
  541MOL0     C72928   9.610  11.866   3.346  0.4659  0.3827 -0.4254
  541MOL0     C72929   9.668  11.978   3.415 -0.3907 -0.4792 -0.5302
  541MOL0     O72930   9.587  12.090   3.421  0.0283 -0.0340  0.1619
  541MOL0     C72931   9.636  12.215   3.457  1.0448  0.0995  0.3554
  541MOL0     C72932   9.684  12.236   3.587 -0.8057  0.0034  0.3630
  541MOL0     C72933   9.718  12.358   3.638 -0.3089 -0.5412  0.1914
  541MOL0     C72934   9.699  12.470   3.548  0.6756  0.9481 -0.4592
  541MOL0     O72935   9.723  12.593   3.594 -0.0029 -0.7484 -0.5155
  541MOL0     C72936   9.605  12.663   3.614  0.0587  0.2499 -0.1234
  541MOL0     C72937   9.644  12.795   3.685 -0.7469  0.7010 -0.7874
  541MOL0     C72938   9.664  12.774   3.842 -0.3585 -0.8880  0.6009
  541MOL0     C72939   9.684  12.911   3.912  0.7757 -0.3034  0.6618
  541MOL0     C72940   9.727  12.891   4.056 -0.2937  0.5626 -0.5731
  541MOL0     C72941   9.729  13.014   4.149  0.3623  0.0418 -0.0751
  541MOL0     C72942   9.862  13.084   4.142  0.5992 -0.1117 -1.0156
  541MOL0     C72943   9.889  13.191   4.035  0.0490 -0.3200  0.1391
  541MOL0    Cl72944   9.774  13.318   4.046 -0.3009 -0.3414  0.1120
  541MOL0     C72945   9.668  12.445   3.418  0.2582  0.5357  0.6517
  541MOL0     C72946   9.632  12.323   3.367 -0.9220  0.3966 -0.2548
  541MOL0     O72947   9.791  11.978   3.432 -0.0827 -0.1051  0.4769
  541MOL0     C72948   9.679  11.749   3.324  0.3015 -0.2019 -0.3918
  541MOL0     C72949   9.635  11.650   3.239  0.0535  0.7627 -0.2695
  541MOL0     N72950   9.102  11.653   2.693  0.3778 -0.3054 -0.0618
  541MOL0     N72951   8.999  11.625   2.631 -0.6927 -0.3387  0.1417
  541MOL0     C72952   8.377  10.587   2.568  0.0053  0.9536  0.2841
  541MOL0     C72953   8.346  10.452   2.609 -0.0601 -0.1477  1.1356
  541MOL0     C72954   8.209  10.066   2.680  0.7285  0.3451 -0.3146
  541MOL0     C72955   8.332  10.021   2.718  0.3732 -0.5350 -0.1529
  541MOL0     C72956   8.339   9.900   2.784 -0.7580  0.4336 -0.0503
  541MOL0     C72957   8.229   9.826   2.831 -0.7324  0.0599  1.5655
  541MOL0     O72958   8.259   9.728   2.916  0.3008 -0.7272  0.1193
  541MOL0     C72959   8.138   9.657   2.958 -1.5433 -0.3418  1.3816
  541MOL0     C72960   8.178   9.541   3.053  0.8626 -0.2354 -0.2736
  541MOL0     C72961   8.055   9.513   3.142  1.3898 -0.1709 -0.5309
  541MOL0     C72962   7.929   9.460   3.080 -0.1044  0.7294  0.4164
  541MOL0     C72963   7.959   9.368   2.966  0.5109  0.1628  1.0244
  541MOL0     C72964   7.977   9.288   2.875 -0.4251  0.6635  0.0833
  541MOL0     C72965   8.101   9.867   2.790 -0.5666 -0.1130  0.6345
  541MOL0     C72966   8.091   9.980   2.704  0.2467 -1.2835  0.9323
  541MOL0     C72967   7.953  10.028   2.651  0.5225 -0.3587  0.5506
  541MOL0     H72968   8.388  10.305   2.312 -0.9445  0.6243 -0.1161
  541MOL0     H72969   8.508  10.517   2.268  0.8780 -1.4553  0.1929
  541MOL0     H72970   8.497  10.843   2.589 -2.5315 -1.9236 -0.7341
  541MOL0     H72971   8.639  10.746   2.532  0.3471  0.5547  1.6181
  541MOL0     H72972   8.628  11.014   2.523 -1.4968 -0.1024 -0.2859
  541MOL0     H72973   8.548  10.985   2.369 -2.1927 -3.5131 -0.4670
  541MOL0     H72974   8.759  10.859   2.304  1.1362  0.1109  0.6510
  541MOL0     H72975   8.808  10.867   2.480 -2.6563  0.1339  1.9380
  541MOL0     H72976   8.874  11.095   2.472 -0.1120 -0.9696  0.3030
  541MOL0     H72977   8.946  11.014   2.340 -0.4514 -1.1966  0.2903
  541MOL0     H72978   8.780  11.127   2.184 -0.6093  0.6986 -0.9621
  541MOL0     H72979   8.699  11.177   2.337  1.3146  0.3630  1.6207
  541MOL0     H72980   8.976  11.268   2.247 -0.7882 -0.5657 -0.0823
  541MOL0     H72981   8.826  11.360   2.231 -1.5346  0.7018  1.4067
  541MOL0     H72982   8.955  11.283   2.489  1.1010  2.3613 -1.0738
  541MOL0     H72983   8.799  11.355   2.479  0.4359  2.4588 -0.5037
  541MOL0     H72984   9.001  11.492   2.326  2.4802 -2.3621  1.0333
  541MOL0     H72985   8.867  11.561   2.400 -0.7495 -0.6683 -1.8411
  541MOL0     H72986   9.217  11.418   2.500 -3.5474 -2.9026 -0.4027
  541MOL0     H72987   9.400  11.524   2.604  0.2995  0.7477  0.6694
  541MOL0     H72988   9.385  11.676   2.699 -0.8689  0.6050  0.5433
  541MOL0     H72989   9.307  11.550   2.894 -1.4361  1.5399 -2.9721
  541MOL0     H72990   9.344  11.392   2.811  2.1007 -0.1446 -1.8405
  541MOL0     H72991   9.548  11.625   2.845 -3.5354  1.0026 -0.0360
  541MOL0     H72992   9.583  11.463   2.791 -3.2330 -1.8040 -2.1878
  541MOL0     H72993   9.661  11.516   3.032 -0.2089 -0.0469  1.9289
  541MOL0     H72994   9.545  11.381   3.035 -2.1236  0.8156  3.7978
  541MOL0     H72995   9.339  11.753   3.167 -0.3528  1.6913  0.6742
  541MOL0     H72996   9.426  11.972   3.282  0.0312 -0.0896 -2.8603
  541MOL0     H72997   9.692  12.153   3.657 -1.0303 -0.3093  0.0242
  541MOL0     H72998   9.758  12.378   3.737  1.3858 -1.1594 -0.3356
  541MOL0     H72999   9.566  12.684   3.515 -0.3382  0.3673  0.0552
  541MOL0     H73000   9.532  12.611   3.677 -0.8661 -1.2381 -2.3085
  541MOL0     H73001   9.739  12.826   3.639  0.1281 -1.5942 -0.6343
  541MOL0     H73002   9.560  12.860   3.662 -1.0166 -0.1469 -2.3196
  541MOL0     H73003   9.571  12.728   3.877  1.0171 -2.7128  2.0522
  541MOL0     H73004   9.747  12.703   3.852 -0.1340 -1.2576 -2.7767
  541MOL0     H73005   9.590  12.966   3.904 -0.6403 -2.6341  0.3028
  541MOL0     H73006   9.752  12.975   3.856 -1.3096 -1.0298 -3.0190
  541MOL0     H73007   9.820  12.837   4.076 -3.3418 -4.2694  2.6416
  541MOL0     H73008   9.661  12.816   4.100  1.3681 -1.0613 -0.7353
  541MOL0     H73009   9.649  13.085   4.124 -0.6555 -1.4606 -1.2621
  541MOL0     H73010   9.725  12.974   4.251 -1.6829 -0.9548 -0.5021
  541MOL0     H73011   9.941  13.009   4.153  4.1530  3.5090  1.3420
  541MOL0     H73012   9.855  13.151   4.228 -1.1709 -0.4920 -0.8334
  541MOL0     H73013   9.981  13.249   4.048  0.1403 -0.7992  1.9368
  541MOL0     H73014   9.884  13.145   3.936 -3.0657 -0.9555  0.4716
  541MOL0     H73015   9.666  12.522   3.340 -0.9941 -0.2241 -0.0834
  541MOL0     H73016   9.608  12.306   3.263  3.4722  0.8871 -1.5836
  541MOL0     H73017   9.781  11.752   3.363 -0.8913  2.7309  3.0076
  541MOL0     H73018   9.701  11.564   3.230 -1.3647 -0.4648  0.5385
  541MOL0     H73019   8.378  10.669   2.638 -1.4869  0.9588  0.3300
  541MOL0     H73020   8.325  10.432   2.714  2.6094 -3.7669  1.1858
  541MOL0     H73021   8.421  10.076   2.689 -0.7652  1.0019 -0.8898
  541MOL0     H73022   8.437   9.861   2.810 -2.0978 -4.1200 -1.0285
  541MOL0     H73023   8.073   9.623   2.877  0.7346 -1.8031  0.0559
  541MOL0     H73024   8.077   9.723   3.020 -1.6427  2.3076 -1.2967
  541MOL0     H73025   8.258   9.567   3.122  1.3497 -2.5445  0.1255
  541MOL0     H73026   8.207   9.451   2.997  0.1207 -1.0769  0.6496
  541MOL0     H73027   8.023   9.597   3.204  0.1941 -2.8747  2.8657
  541MOL0     H73028   8.082   9.437   3.217 -1.6589 -0.9776 -0.1268
  541MOL0     H73029   7.864   9.411   3.153  1.0632 -0.9861  0.3829
  541MOL0     H73030   7.867   9.533   3.028 -3.2508 -2.7185 -1.1313
  541MOL0     H73031   8.001   9.227   2.791 -1.9180 -1.1951  0.9129
  541MOL0     H73032   8.016   9.804   2.812 -0.3839  0.1377  2.1785
  541MOL0     H73033   7.882   9.950   2.678  0.5600 -0.4366  0.4286
  541MOL0     H73034   7.924  10.119   2.705 -0.8652  0.6563 -1.7404
  541MOL0     H73035   7.954  10.044   2.542  1.7672 -0.1467  0.5748
  542MOL0     O73036  10.827   3.629   0.245  0.5311  0.1366 -0.2432
  542MOL0     C73037  10.782   3.701   0.151  0.2730  0.2630 -1.0716
  542MOL0     O73038  10.649   3.702   0.107 -0.4670  0.2092 -0.2425
  542MOL0     C73039  10.546   3.661   0.194 -0.2416 -0.0954  0.3999
  542MOL0     C73040  10.427   3.635   0.128  0.1430  0.3808 -0.4790
  542MOL0     C73041  10.316   3.605   0.204 -0.3607 -1.0061  0.3554
  542MOL0     C73042  10.318   3.604   0.341  0.5834 -0.9009  0.0175
  542MOL0     O73043  10.197   3.567   0.396 -0.1915  0.3931  0.3967
  542MOL0     C73044  10.186   3.609   0.528 -1.0282 -0.1455 -1.8410
  542MOL0     C73045  10.037   3.587   0.571  1.1463  0.1502  0.2922
  542MOL0     C73046  10.001   3.434   0.578  0.1084 -0.7933 -0.0719
  542MOL0     C73047   9.861   3.415   0.642 -0.2780 -0.2387  0.0262
  542MOL0     C73048   9.839   3.436   0.793 -0.1984  0.5111 -0.4689
  542MOL0     C73049   9.922   3.358   0.896  1.5484  0.0199  0.2733
  542MOL0     C73050   9.852   3.380   1.039 -1.2104  0.2010  0.0470
  542MOL0     C73051   9.892   3.517   1.097  0.1875 -0.3921  0.4454
  542MOL0     N73052   9.841   3.534   1.236 -1.0868 -0.3287  0.5878
  542MOL0     C73053   9.820   3.657   1.295  1.4907 -0.0854  0.4883
  542MOL0     C73054   9.744   3.638   1.406  0.0319  0.4878  0.0438
  542MOL0     C73055   9.707   3.735   1.509  0.8559 -0.0523  0.3896
  542MOL0     C73056   9.797   3.717   1.632  0.4914  0.1833 -0.4710
  542MOL0     C73057   9.941   3.786   1.618  0.4385  0.9611  0.1513
  542MOL0     C73058  10.025   3.778   1.742  0.4155 -0.3821  0.3747
  542MOL0     O73059  10.123   3.881   1.723  0.0927  0.1906 -0.1091
  542MOL0     C73060  10.234   3.883   1.807  0.2377  0.7037  0.1813
  542MOL0     C73061  10.272   3.782   1.895 -0.2631  0.1270  0.4214
  542MOL0     C73062  10.377   3.789   1.983  0.2372  0.0533  0.1779
  542MOL0     C73063  10.450   3.907   1.979  0.6642 -0.5641  0.6378
  542MOL0     C73064  10.567   3.926   2.064 -0.6984 -0.1612 -0.3032
  542MOL0     O73065  10.666   4.019   2.022  0.0285  0.2420  0.2536
  542MOL0     C73066  10.744   4.061   2.125  0.1576  0.1455 -0.1095
  542MOL0     C73067  10.706   4.182   2.180 -0.5251 -0.8492 -0.0790
  542MOL0     C73068  10.781   4.222   2.292  0.4070 -0.8299  0.0454
  542MOL0     C73069  10.890   4.152   2.344  0.7207  0.1078 -0.2265
  542MOL0     O73070  10.973   4.187   2.453  0.0659 -0.2153  0.1507
  542MOL0     C73071  10.962   4.321   2.508 -0.1616  0.6161 -0.1609
  542MOL0     C73072  11.035   4.423   2.416  0.0598  0.5996 -0.2846
  542MOL0     C73073  11.194   4.399   2.416 -0.5550 -0.3041  0.0824
  542MOL0     C73074  11.256   4.420   2.278  0.3208 -0.1852  0.1539
  542MOL0     C73075  11.233   4.291   2.195  0.4979  0.2947  0.7458
  542MOL0     C73076  11.297   4.311   2.052  0.2542  0.1429  0.3417
  542MOL0     C73077  11.259   4.203   1.946  0.0135 -0.2277 -0.6751
  542MOL0     C73078  11.278   4.058   2.005 -0.0861 -0.5320 -0.5694
  542MOL0    Cl73079  11.439   4.065   2.076 -0.0176  0.1982  0.0298
  542MOL0     C73080  10.925   4.028   2.282 -0.0763 -0.1830  0.9970
  542MOL0     C73081  10.850   3.983   2.167  0.4900 -0.0891  0.5676
  542MOL0     O73082  10.578   3.860   2.172  0.2698 -0.1971  0.7062
  542MOL0     C73083  10.412   4.015   1.894 -0.3665 -0.5480  0.9030
  542MOL0     C73084  10.304   4.004   1.814 -0.0180 -0.4452  0.4453
  542MOL0     N73085   9.721   3.499   1.420  0.3023 -0.2399 -0.4091
  542MOL0     N73086   9.774   3.439   1.319  0.3667  1.0492  0.1394
  542MOL0     C73087  10.448   3.619   0.403  0.2963 -0.5066  0.5851
  542MOL0     C73088  10.557   3.645   0.336 -0.8078  0.5614  0.5075
  542MOL0     C73089  10.885   3.779   0.081 -0.2287  0.2177  0.8548
  542MOL0     C73090  10.992   3.840   0.141 -0.9233 -0.8192 -0.1984
  542MOL0     C73091  11.071   3.934   0.073  0.5361 -0.7575  0.4919
  542MOL0     C73092  11.034   3.980  -0.054 -0.2303  0.6426 -0.8643
  542MOL0     O73093  11.101   4.078  -0.121 -0.0581  0.4072 -1.2531
  542MOL0     C73094  11.150   4.190  -0.045 -0.2065 -0.1872 -0.1119
  542MOL0     C73095  11.024   4.275  -0.019  0.0585 -1.0012 -0.7514
  542MOL0     C73096  10.943   4.308  -0.145 -0.4537  1.0241 -0.4538
  542MOL0     C73097  10.815   4.384  -0.119  0.4663 -0.4457  0.5837
  542MOL0     C73098  10.702   4.293  -0.081 -0.6961 -0.2640 -0.3887
  542MOL0     C73099  10.613   4.224  -0.045  0.8940  0.6828  0.6288
  542MOL0     C73100  10.922   3.916  -0.120 -0.6686 -0.1404  0.5854
  542MOL0     C73101  10.848   3.815  -0.056 -0.3809 -1.6147 -0.2387
  542MOL0     C73102  10.756   3.750  -0.153  0.0457 -0.1817 -0.4340
  542MOL0     H73103  10.414   3.644   0.020 -2.7626 -3.1612 -0.6356
  542MOL0     H73104  10.222   3.597   0.151 -1.3353  0.5679  1.7507
  542MOL0     H73105  10.246   3.550   0.597 -1.2551 -0.0086 -1.5244
  542MOL0     H73106  10.211   3.714   0.547  0.0960 -0.9891  2.1311
  542MOL0     H73107   9.973   3.645   0.504  3.0900  0.1634 -1.6781
  542MOL0     H73108  10.028   3.632   0.670  1.9252  1.3669 -0.1654
  542MOL0     H73109  10.070   3.381   0.645 -0.4494  1.5162  2.5364
  542MOL0     H73110  10.006   3.394   0.476  0.3779 -0.1208 -0.3283
  542MOL0     H73111   9.798   3.489   0.592 -0.2944 -0.6250 -0.5372
  542MOL0     H73112   9.831   3.310   0.629 -0.2774 -0.7303  3.2896
  542MOL0     H73113   9.855   3.538   0.828  1.0005  0.8970 -2.0353
  542MOL0     H73114   9.734   3.408   0.809 -0.0566 -0.6741 -1.4376
  542MOL0     H73115   9.923   3.256   0.858  2.0959  0.4012 -0.7651
  542MOL0     H73116  10.025   3.393   0.905  1.5594  0.6470 -1.7886
  542MOL0     H73117   9.895   3.306   1.106  0.0695  0.1533 -0.7862
  542MOL0     H73118   9.746   3.354   1.028 -1.1565  0.9515 -3.1098
  542MOL0     H73119  10.002   3.514   1.098  0.3504  1.0150 -2.6813
  542MOL0     H73120   9.853   3.598   1.035 -1.9550 -2.3764 -0.9718
  542MOL0     H73121   9.841   3.756   1.254  0.1977  0.1338  0.3273
  542MOL0     H73122   9.713   3.836   1.469  2.0059  0.7265  2.3910
  542MOL0     H73123   9.604   3.709   1.537  0.5452  1.0751  0.3090
  542MOL0     H73124   9.754   3.757   1.724 -0.1431 -1.5216  0.0154
  542MOL0     H73125   9.823   3.613   1.653 -1.0223 -0.8600 -3.2915
  542MOL0     H73126   9.944   3.891   1.585  3.0359  0.4359 -1.6326
  542MOL0     H73127   9.999   3.736   1.540  0.6934  1.0642  0.2722
  542MOL0     H73128  10.077   3.682   1.743 -1.3165 -1.4758 -2.6080
  542MOL0     H73129   9.959   3.792   1.827 -1.0820 -1.8530 -0.4945
  542MOL0     H73130  10.224   3.685   1.907 -0.1682 -0.1131 -0.9498
  542MOL0     H73131  10.401   3.698   2.039  0.5055  0.3499  0.5521
  542MOL0     H73132  10.632   4.244   2.131 -2.5249 -4.9192 -2.6719
  542MOL0     H73133  10.747   4.306   2.351  0.5035 -0.0557 -0.9736
  542MOL0     H73134  10.857   4.349   2.522 -0.4643 -0.2691 -0.5869
  542MOL0     H73135  11.014   4.317   2.604 -1.8064  0.4707  0.7735
  542MOL0     H73136  10.989   4.426   2.317  1.8319  1.0166 -1.1408
  542MOL0     H73137  11.016   4.526   2.449  1.5574  1.6996 -2.6192
  542MOL0     H73138  11.232   4.474   2.486 -0.1465  0.3172 -0.7803
  542MOL0     H73139  11.231   4.300   2.445 -0.4095 -1.1637 -2.7688
  542MOL0     H73140  11.364   4.427   2.294  0.0213 -1.2413  3.4577
  542MOL0     H73141  11.227   4.512   2.228  2.3997  0.2239 -0.3724
  542MOL0     H73142  11.125   4.283   2.182  0.6802 -1.3978  0.0362
  542MOL0     H73143  11.278   4.209   2.251 -3.7225 -0.5294  3.3516
  542MOL0     H73144  11.267   4.412   2.022 -0.1021 -0.4338 -1.2918
  542MOL0     H73145  11.406   4.319   2.060  0.1344 -0.0477  3.2670
  542MOL0     H73146  11.323   4.210   1.857 -2.1947 -3.5309 -2.7131
  542MOL0     H73147  11.155   4.217   1.915  0.2649  0.5384 -1.2213
  542MOL0     H73148  11.203   4.037   2.082  0.5007  0.1199  0.2065
  542MOL0     H73149  11.278   3.986   1.923 -1.4048 -0.4888 -0.6295
  542MOL0     H73150  10.994   3.953   2.319 -1.6956 -3.6408 -2.3209
  542MOL0     H73151  10.873   3.887   2.121  0.1606  1.4104 -3.1128
  542MOL0     H73152  10.472   4.102   1.868 -0.5669 -0.5437  0.4559
  542MOL0     H73153  10.281   4.081   1.741  0.2497 -0.1422  0.6806
  542MOL0     H73154  10.448   3.598   0.509  0.4003  0.3884  0.7768
  542MOL0     H73155  10.652   3.649   0.388 -0.9753 -1.3086  1.0300
  542MOL0     H73156  11.004   3.830   0.248  0.3638  1.2880 -0.0701
  542MOL0     H73157  11.143   3.987   0.134  1.1215 -2.0408  0.9662
  542MOL0     H73158  11.218   4.247  -0.108 -0.7240  0.5567 -0.0015
  542MOL0     H73159  11.202   4.173   0.050 -1.6710 -1.4794  0.5060
  542MOL0     H73160  11.042   4.375   0.021 -2.5422 -0.1355 -1.5407
  542MOL0     H73161  10.965   4.222   0.057  3.2680 -1.6728  1.4526
  542MOL0     H73162  10.916   4.217  -0.199 -1.8751  1.2242 -0.1112
  542MOL0     H73163  10.997   4.370  -0.217  0.2738  1.1262  0.1620
  542MOL0     H73164  10.813   4.458  -0.038  0.0193 -0.8346  0.9356
  542MOL0     H73165  10.781   4.432  -0.211 -2.5075 -1.0276  1.2560
  542MOL0     H73166  10.525   4.173  -0.012  0.2295  1.7123  0.4884
  542MOL0     H73167  10.894   3.944  -0.221 -1.4710 -2.6025  0.0604
  542MOL0     H73168  10.675   3.824  -0.163  1.4120  1.2854 -1.0567
  542MOL0     H73169  10.798   3.717  -0.249  0.4789 -0.7486 -0.0552
  542MOL0     H73170  10.714   3.658  -0.111 -1.4340  0.4896 -0.3840
  543MOL0     O73171   7.871   5.435   5.314 -0.3152 -0.5042 -0.2851
  543MOL0     C73172   7.842   5.549   5.267  0.9745 -0.3428 -0.5013
  543MOL0     O73173   7.830   5.664   5.341  0.6617  0.7017 -0.5161
  543MOL0     C73174   7.864   5.665   5.478  0.3025 -0.5879  0.6818
  543MOL0     C73175   7.988   5.623   5.518 -0.4803 -0.0479 -0.3912
  543MOL0     C73176   8.034   5.649   5.656  0.0405  0.1659  0.6554
  543MOL0     C73177   7.933   5.679   5.745 -0.4423  0.9487  0.2472
  543MOL0     O73178   7.978   5.656   5.875  0.5354 -0.2964 -0.1995
  543MOL0     C73179   7.880   5.621   5.983  0.4012  0.3136 -0.1324
  543MOL0     C73180   7.810   5.490   5.956 -0.4492  0.0919 -0.3790
  543MOL0     C73181   7.911   5.370   5.984  0.2776  0.9438  0.5256
  543MOL0     C73182   7.929   5.281   5.866 -0.2683  0.2771  0.5577
  543MOL0     C73183   7.785   5.229   5.829 -0.0407 -0.0801 -0.7570
  543MOL0     C73184   7.802   5.131   5.716  0.1598  0.7882  0.9266
  543MOL0     C73185   7.852   5.193   5.572  0.4330 -0.7432  1.2431
  543MOL0     C73186   7.969   5.121   5.516  0.8442 -0.0025 -0.7567
  543MOL0     N73187   8.088   5.115   5.605  0.3811 -0.6533  0.5265
  543MOL0     C73188   8.133   5.020   5.693 -0.2095  0.8275  0.3880
  543MOL0     C73189   8.242   5.076   5.749  0.7142 -0.6089  0.7463
  543MOL0     C73190   8.338   5.009   5.837  0.0477 -0.2071  0.2002
  543MOL0     C73191   8.282   4.980   5.980  0.8150  0.2906 -0.2730
  543MOL0     C73192   8.232   5.092   6.058  0.2953  0.6312 -0.4542
  543MOL0     C73193   8.348   5.152   6.136 -0.5373 -0.2610 -0.1995
  543MOL0     O73194   8.318   5.267   6.231 -0.6825  0.4190  0.2798
  543MOL0     C73195   8.286   5.393   6.175  0.4076  0.9819  0.2215
  543MOL0     C73196   8.284   5.413   6.039 -0.3987 -0.1535 -0.1868
  543MOL0     C73197   8.251   5.549   5.994  0.3303  0.8766  0.5319
  543MOL0     C73198   8.221   5.657   6.082 -0.4849 -0.3193 -0.1724
  543MOL0     C73199   8.211   5.797   6.032 -0.2437  0.2646  0.6340
  543MOL0     O73200   8.238   5.825   5.895  0.3651  0.3484 -0.4061
  543MOL0     C73201   8.250   5.950   5.838  1.2629 -0.0246 -0.3187
  543MOL0     C73202   8.302   6.065   5.903 -0.1682 -0.6326  0.3097
  543MOL0     C73203   8.312   6.184   5.826  0.1758  0.4541 -0.3266
  543MOL0     C73204   8.293   6.185   5.693 -0.2930  0.3253  0.1225
  543MOL0     O73205   8.328   6.297   5.627 -0.0510 -0.7412 -0.0766
  543MOL0     C73206   8.418   6.282   5.511  0.6395  0.7489 -0.6070
  543MOL0     C73207   8.531   6.388   5.507 -0.4842  0.5967 -0.0741
  543MOL0     C73208   8.476   6.508   5.425 -0.7859 -0.8557  1.1460
  543MOL0     C73209   8.582   6.622   5.376  0.1924  1.2575  0.8166
  543MOL0     C73210   8.540   6.737   5.284  0.3187  0.3180 -1.5701
  543MOL0     C73211   8.411   6.807   5.332  0.4381 -0.6862 -0.1382
  543MOL0     C73212   8.445   6.887   5.464  0.0382  0.5945  0.1024
  543MOL0     C73213   8.321   6.969   5.511 -0.2221  0.8296  0.3868
  543MOL0    Cl73214   8.168   6.884   5.511  0.2668  0.1718  0.6191
  543MOL0     C73215   8.241   6.075   5.625  0.5593 -0.2274 -1.0587
  543MOL0     C73216   8.219   5.965   5.707  0.3415 -0.1853  0.2471
  543MOL0     O73217   8.197   5.882   6.118  0.3242 -0.4017 -0.5310
  543MOL0     C73218   8.217   5.625   6.223  0.2485 -0.3923 -0.1256
  543MOL0     C73219   8.238   5.492   6.265 -0.2645 -0.7956  0.8204
  543MOL0     N73220   8.261   5.197   5.705 -0.8609  0.3115 -0.3808
  543MOL0     N73221   8.179   5.219   5.603 -0.4208  0.3577  0.7573
  543MOL0     C73222   7.808   5.708   5.696 -0.1926 -0.5478 -0.7028
  543MOL0     C73223   7.765   5.703   5.570  0.4220 -0.7857  0.1112
  543MOL0     C73224   7.819   5.573   5.125 -0.1937  0.2332 -0.0917
  543MOL0     C73225   7.705   5.632   5.090 -0.3981 -1.1439 -0.4440
  543MOL0     C73226   7.678   5.668   4.962  0.9473 -1.2782  0.3652
  543MOL0     C73227   7.766   5.646   4.864  0.4497 -0.7247 -0.0248
  543MOL0     O73228   7.724   5.693   4.739 -0.1943 -0.0759 -0.7588
  543MOL0     C73229   7.791   5.638   4.624 -0.0341  0.7269 -0.3368
  543MOL0     C73230   7.760   5.497   4.574  0.2488 -0.1250 -0.0004
  543MOL0     C73231   7.844   5.465   4.443 -0.4066 -0.1743 -1.0142
  543MOL0     C73232   7.795   5.505   4.293  0.6377 -0.1497 -1.5926
  543MOL0     C73233   7.744   5.645   4.281  0.8018  0.8060  0.0691
  543MOL0     C73234   7.694   5.755   4.250 -0.5592 -0.8884  0.9958
  543MOL0     C73235   7.884   5.572   4.888  0.0214  0.3274 -0.3168
  543MOL0     C73236   7.919   5.540   5.024  1.3973 -0.5054 -0.1492
  543MOL0     C73237   8.048   5.458   5.032  0.4131  0.3207 -0.1942
  543MOL0     H73238   8.052   5.589   5.438  0.6359  1.0196  0.0153
  543MOL0     H73239   8.131   5.626   5.698 -0.4256  1.1321  2.3748
  543MOL0     H73240   7.920   5.608   6.084  2.1064  0.7698 -0.7217
  543MOL0     H73241   7.815   5.706   6.006 -0.8246 -0.8241  0.7730
  543MOL0     H73242   7.763   5.493   5.857 -0.4395 -0.5059 -0.4040
  543MOL0     H73243   7.732   5.479   6.031 -1.5158 -2.3135 -1.7414
  543MOL0     H73244   7.871   5.305   6.062  0.4898  2.0965  1.6169
  543MOL0     H73245   8.005   5.416   6.015  0.8409 -1.7311  3.3092
  543MOL0     H73246   7.980   5.334   5.784 -0.1985  0.1575  0.5226
  543MOL0     H73247   8.010   5.211   5.892  1.0424  1.6720  0.3828
  543MOL0     H73248   7.739   5.181   5.917  1.5400  0.7237  0.5591
  543MOL0     H73249   7.713   5.300   5.788 -3.3375 -4.4398 -3.4633
  543MOL0     H73250   7.875   5.053   5.744  2.3890  0.9658 -3.5963
  543MOL0     H73251   7.712   5.074   5.693  2.3148 -1.4102 -3.4127
  543MOL0     H73252   7.861   5.300   5.595  0.9298 -0.6453  0.6355
  543MOL0     H73253   7.768   5.195   5.502 -0.2698  0.1594  2.0926
  543MOL0     H73254   7.935   5.019   5.496 -0.5423  0.0952  0.8735
  543MOL0     H73255   7.994   5.177   5.426 -1.5730  2.4731 -0.0003
  543MOL0     H73256   8.089   4.921   5.707 -1.5001  1.1989 -0.7525
  543MOL0     H73257   8.372   4.918   5.787 -2.2114 -0.9452 -0.1050
  543MOL0     H73258   8.429   5.065   5.862 -1.2655  1.0389  2.6055
  543MOL0     H73259   8.198   4.911   5.966 -0.1150  1.6621 -1.7881
  543MOL0     H73260   8.358   4.914   6.023  2.1640  1.2051 -1.1768
  543MOL0     H73261   8.154   5.072   6.133  1.9952 -0.2224  1.1594
  543MOL0     H73262   8.196   5.165   5.985 -2.1496  0.6105  0.6195
  543MOL0     H73263   8.423   5.179   6.061  0.2296 -1.1991  0.2150
  543MOL0     H73264   8.401   5.076   6.194  4.6050  0.1739 -3.6971
  543MOL0     H73265   8.315   5.337   5.967  0.1135 -0.6408  0.5314
  543MOL0     H73266   8.247   5.557   5.886 -2.8841  0.9638  0.5602
  543MOL0     H73267   8.328   6.053   6.007  0.0199  1.0813  0.4866
  543MOL0     H73268   8.334   6.276   5.881 -2.7207  0.5276  0.8518
  543MOL0     H73269   8.466   6.183   5.516 -0.8980 -0.0031 -0.1966
  543MOL0     H73270   8.350   6.285   5.425 -0.6235 -2.1802  0.1730
  543MOL0     H73271   8.557   6.416   5.610 -1.3846 -0.1604  0.3731
  543MOL0     H73272   8.613   6.352   5.444 -0.3870  0.2457  0.2500
  543MOL0     H73273   8.425   6.470   5.336 -0.3884  1.4307 -0.1311
  543MOL0     H73274   8.400   6.553   5.490  0.8874  4.0086  0.1353
  543MOL0     H73275   8.659   6.567   5.321 -3.3798 -1.4453 -1.9229
  543MOL0     H73276   8.628   6.668   5.464  0.7862 -0.4050  1.4138
  543MOL0     H73277   8.520   6.700   5.183  2.6455 -1.4623 -1.4837
  543MOL0     H73278   8.633   6.795   5.281  1.7050 -1.7503 -0.7948
  543MOL0     H73279   8.375   6.870   5.251  1.1263 -1.3636 -0.9833
  543MOL0     H73280   8.322   6.743   5.337  0.8970 -1.3532 -0.3243
  543MOL0     H73281   8.527   6.957   5.446 -0.4243  0.9831 -0.5387
  543MOL0     H73282   8.476   6.816   5.541 -0.2517  1.0259  0.6251
  543MOL0     H73283   8.347   7.000   5.612  1.5188  2.8863 -0.6168
  543MOL0     H73284   8.315   7.058   5.447 -0.2805  0.5784  0.0385
  543MOL0     H73285   8.230   6.083   5.518  0.9269  4.1526 -0.9704
  543MOL0     H73286   8.177   5.872   5.668 -1.6063  0.8235 -0.1661
  543MOL0     H73287   8.212   5.712   6.287 -0.8949  0.9556 -1.9617
  543MOL0     H73288   8.227   5.467   6.370  1.1492 -1.3570  0.8570
  543MOL0     H73289   7.725   5.720   5.766 -2.1925  1.6433 -3.2484
  543MOL0     H73290   7.667   5.739   5.540  1.2045 -0.5001 -2.4015
  543MOL0     H73291   7.631   5.633   5.169 -0.4982  1.4857 -0.5036
  543MOL0     H73292   7.581   5.713   4.940  0.1464 -3.6918 -1.6267
  543MOL0     H73293   7.900   5.638   4.633  0.0322 -1.1804 -0.7820
  543MOL0     H73294   7.759   5.697   4.538  0.0444 -2.0117 -2.3605
  543MOL0     H73295   7.654   5.476   4.557 -0.3078 -0.5322  3.3649
  543MOL0     H73296   7.789   5.440   4.663  3.3692  1.4823  0.1341
  543MOL0     H73297   7.853   5.356   4.444  0.6418 -0.1078  1.2183
  543MOL0     H73298   7.940   5.507   4.474 -1.3292  0.1112  1.6420
  543MOL0     H73299   7.878   5.501   4.221  2.8034  1.3163  0.6244
  543MOL0     H73300   7.721   5.433   4.259  1.2750 -0.9546 -1.3096
  543MOL0     H73301   7.647   5.846   4.218  1.3798 -0.7835 -1.9284
  543MOL0     H73302   7.957   5.559   4.810 -0.0839  2.0455 -0.7429
  543MOL0     H73303   8.087   5.437   5.132  2.2770  0.4236 -0.8526
  543MOL0     H73304   8.037   5.353   5.005 -2.2139  0.6043 -0.4899
  543MOL0     H73305   8.127   5.504   4.973  0.1625  1.1404  0.0978
  544MOL0     O73306   7.614   4.795   1.125 -0.2092  0.2682  0.8448
  544MOL0     C73307   7.615   4.908   1.073  0.3163  0.0951  0.1042
  544MOL0     O73308   7.560   5.021   1.137  0.1330  0.3523 -0.0715
  544MOL0     C73309   7.565   5.014   1.276 -0.7184 -0.2346 -0.3477
  544MOL0     C73310   7.680   5.058   1.342  0.6947  0.4315  0.1240
  544MOL0     C73311   7.685   5.061   1.488 -0.5907 -0.3564 -0.1826
  544MOL0     C73312   7.574   5.040   1.567  1.0092 -0.2762 -0.0996
  544MOL0     O73313   7.578   5.059   1.699  0.1004 -0.1478 -0.9293
  544MOL0     C73314   7.639   5.189   1.733 -0.5962  0.2136  0.3906
  544MOL0     C73315   7.608   5.210   1.882 -0.1949 -0.4107  0.3602
  544MOL0     C73316   7.455   5.216   1.919 -0.0522  0.2757  0.0942
  544MOL0     C73317   7.365   5.323   1.859 -1.1407 -1.0234 -0.8594
  544MOL0     C73318   7.318   5.278   1.724 -0.6093  0.7348  0.4464
  544MOL0     C73319   7.182   5.349   1.692  0.3386  0.5067 -0.3269
  544MOL0     C73320   7.138   5.295   1.553  0.0492 -0.5775  0.0868
  544MOL0     C73321   7.013   5.373   1.513 -0.9729  0.3773 -0.7112
  544MOL0     N73322   6.934   5.301   1.411 -0.1147 -0.2983 -0.0912
  544MOL0     C73323   6.836   5.204   1.419  0.0381  0.5321  0.0545
  544MOL0     C73324   6.776   5.203   1.295  0.2023 -0.1822 -0.3380
  544MOL0     C73325   6.671   5.121   1.233 -0.7386  0.0395 -0.4358
  544MOL0     C73326   6.539   5.139   1.295 -0.7366 -0.5781 -0.6090
  544MOL0     C73327   6.538   5.102   1.446 -0.7683 -0.4957 -0.1969
  544MOL0     C73328   6.402   5.081   1.505  0.5876  0.0988 -0.1150
  544MOL0     O73329   6.400   4.988   1.615  0.0132  0.0799  0.0035
  544MOL0     C73330   6.448   5.012   1.742  0.4753 -0.5952  0.1103
  544MOL0     C73331   6.464   4.896   1.819 -0.5830  0.5302  0.0743
  544MOL0     C73332   6.509   4.898   1.955 -0.0336 -0.5579  0.7263
  544MOL0     C73333   6.528   5.015   2.022 -0.9731 -1.3579 -1.1327
  544MOL0     C73334   6.581   5.027   2.159  0.6267  1.2082  0.3599
  544MOL0     O73335   6.611   4.913   2.230  1.1356 -0.3677 -0.0765
  544MOL0     C73336   6.674   4.915   2.351 -0.3020 -0.7741 -0.5712
  544MOL0     C73337   6.788   4.832   2.349 -0.1143  0.0821  0.1844
  544MOL0     C73338   6.870   4.829   2.461  0.8492  1.3280 -0.3895
  544MOL0     C73339   6.828   4.891   2.582 -0.5916 -1.0410  0.5152
  544MOL0     O73340   6.892   4.875   2.696  0.3952  0.0600 -0.1081
  544MOL0     C73341   6.938   4.746   2.738  0.6697 -0.5044 -0.3301
  544MOL0     C73342   6.939   4.740   2.889  0.5801 -0.5892 -0.0348
  544MOL0     C73343   7.022   4.838   2.963  0.3633  0.3356  0.0066
  544MOL0     C73344   7.169   4.817   2.956 -0.3863  0.0136 -0.2064
  544MOL0     C73345   7.244   4.942   2.986 -0.0543  0.2036 -0.4839
  544MOL0     C73346   7.387   4.947   2.921  0.0927 -0.1551  0.8750
  544MOL0     C73347   7.490   5.027   2.994  0.0921  0.8314 -0.4367
  544MOL0     C73348   7.632   5.004   2.933  0.3380 -0.0189 -0.6092
  544MOL0    Cl73349   7.646   5.073   2.771  0.3616  0.5639  0.5026
  544MOL0     C73350   6.711   4.968   2.582 -0.3507  0.1192  1.1449
  544MOL0     C73351   6.637   4.989   2.460 -0.9976 -0.6244 -0.6394
  544MOL0     O73352   6.605   5.140   2.197  0.7605  0.2624 -0.9981
  544MOL0     C73353   6.504   5.138   1.943  0.5393  0.3515  0.6513
  544MOL0     C73354   6.453   5.140   1.806 -0.4038  0.4079  0.1115
  544MOL0     N73355   6.837   5.303   1.221  0.0155  0.0299 -0.0361
  544MOL0     N73356   6.930   5.355   1.287 -0.3715 -0.0170 -0.0851
  544MOL0     C73357   7.463   4.987   1.503 -0.3304 -0.1638 -0.2357
  544MOL0     C73358   7.455   4.977   1.365  0.4468  0.2471  0.0228
  544MOL0     C73359   7.631   4.930   0.926 -0.9376  0.1185  0.4778
  544MOL0     C73360   7.670   5.061   0.886  0.3578 -0.8983  0.1297
  544MOL0     C73361   7.661   5.102   0.749  1.3290  0.3990  1.0688
  544MOL0     C73362   7.637   5.006   0.650  0.6707 -0.0074  0.2858
  544MOL0     O73363   7.630   5.034   0.512 -1.2695  0.1981 -0.3097
  544MOL0     C73364   7.742   5.116   0.463  0.2113  0.0330 -0.4514
  544MOL0     C73365   7.773   5.085   0.317 -0.3442  0.4441 -0.0054
  544MOL0     C73366   7.660   5.139   0.221 -0.7019  0.4134 -0.4987
  544MOL0     C73367   7.649   5.296   0.199 -0.4488 -0.2578 -0.2964
  544MOL0     C73368   7.766   5.360   0.141 -0.5449 -0.1685  0.4487
  544MOL0     C73369   7.866   5.416   0.107 -0.1402 -0.0746  0.3781
  544MOL0     C73370   7.633   4.876   0.686  0.5385 -0.2440 -0.3533
  544MOL0     C73371   7.621   4.831   0.823  0.0121 -0.3026 -0.2915
  544MOL0     C73372   7.602   4.682   0.853  0.1756 -1.0720  0.8299
  544MOL0     H73373   7.766   5.084   1.282  1.2199 -0.6272  0.3865
  544MOL0     H73374   7.781   5.092   1.528 -0.9361 -1.1685  1.3683
  544MOL0     H73375   7.746   5.203   1.716 -0.7804  4.0880  1.5652
  544MOL0     H73376   7.592   5.271   1.679 -1.5433 -1.6664 -1.8526
  544MOL0     H73377   7.663   5.302   1.905  2.1672 -0.7367 -3.2008
  544MOL0     H73378   7.659   5.128   1.934 -0.2576 -1.2357 -0.8359
  544MOL0     H73379   7.456   5.222   2.028 -3.2676 -1.6455  0.3643
  544MOL0     H73380   7.414   5.116   1.905 -1.7226  0.8826  0.4098
  544MOL0     H73381   7.293   5.351   1.936  1.6874 -1.2121  2.0923
  544MOL0     H73382   7.422   5.416   1.846 -2.9328  0.5127  1.5249
  544MOL0     H73383   7.395   5.292   1.647 -1.2973 -0.6516 -0.5556
  544MOL0     H73384   7.309   5.169   1.730  1.8074  0.5490  2.3662
  544MOL0     H73385   7.108   5.326   1.770  0.5782 -0.7171 -0.4420
  544MOL0     H73386   7.201   5.456   1.685  3.4683  0.0814  0.3061
  544MOL0     H73387   7.120   5.187   1.546 -0.8193 -0.4968  0.8477
  544MOL0     H73388   7.212   5.323   1.478 -2.8803  3.2478 -1.7201
  544MOL0     H73389   6.954   5.387   1.603 -1.9818 -1.9198 -0.9488
  544MOL0     H73390   7.046   5.470   1.472  1.5048 -0.8643 -1.8952
  544MOL0     H73391   6.809   5.146   1.507 -2.5832  1.4295 -0.0656
  544MOL0     H73392   6.676   5.154   1.129  2.9787 -1.3038 -0.8455
  544MOL0     H73393   6.699   5.016   1.247  2.3124  0.9377  1.1825
  544MOL0     H73394   6.506   5.243   1.290 -3.2321 -1.3634 -2.5409
  544MOL0     H73395   6.455   5.089   1.245 -1.9693 -0.3535  1.1257
  544MOL0     H73396   6.580   5.193   1.489  0.4127 -0.9173 -0.4161
  544MOL0     H73397   6.593   5.011   1.473  0.7990  0.0565 -1.3679
  544MOL0     H73398   6.328   5.050   1.431 -0.9562  0.1921  1.3361
  544MOL0     H73399   6.379   5.180   1.545 -1.3010 -1.2850  2.5470
  544MOL0     H73400   6.453   4.802   1.766 -1.6083  0.5120  0.2929
  544MOL0     H73401   6.515   4.801   2.004 -0.9371 -1.7916 -1.4534
  544MOL0     H73402   6.818   4.782   2.257  0.0370 -2.4179  1.5094
  544MOL0     H73403   6.946   4.752   2.465  0.5119  1.0014 -0.0881
  544MOL0     H73404   6.882   4.658   2.704  1.5631 -0.3086 -2.4481
  544MOL0     H73405   7.042   4.736   2.705  0.1678 -1.1316 -1.8319
  544MOL0     H73406   6.837   4.737   2.928 -0.1766  2.8312 -1.3779
  544MOL0     H73407   6.984   4.642   2.908 -0.5361 -1.4536 -1.5976
  544MOL0     H73408   6.989   4.939   2.938  0.3444  0.3506  0.0945
  544MOL0     H73409   6.994   4.826   3.068 -1.4262  3.1504 -0.0494
  544MOL0     H73410   7.203   4.789   2.856  0.9528 -2.9262  0.9646
  544MOL0     H73411   7.204   4.734   3.018 -1.9499 -1.5521 -1.3270
  544MOL0     H73412   7.248   4.945   3.096  0.2992  1.7166 -0.5186
  544MOL0     H73413   7.180   5.023   2.950  1.7575  2.2479  0.6533
  544MOL0     H73414   7.426   4.845   2.912 -1.3418 -0.6365 -0.2353
  544MOL0     H73415   7.376   4.998   2.825  1.2424  2.6587  2.1357
  544MOL0     H73416   7.488   4.997   3.099 -1.1179  1.5915 -0.2247
  544MOL0     H73417   7.478   5.135   2.984  0.8679  1.0622  0.8642
  544MOL0     H73418   7.704   5.049   3.002 -2.0298  0.7133  1.5641
  544MOL0     H73419   7.642   4.895   2.941 -7.6952 -1.2271  2.7861
  544MOL0     H73420   6.696   5.025   2.673 -0.4024  3.3219 -0.7189
  544MOL0     H73421   6.548   5.049   2.472  0.4371  1.1471  2.4540
  544MOL0     H73422   6.526   5.238   1.979  1.2432  2.3451 -4.4969
  544MOL0     H73423   6.428   5.231   1.751 -0.8662  0.3299  0.1839
  544MOL0     H73424   7.366   4.968   1.547 -0.2993  0.5673  0.1631
  544MOL0     H73425   7.367   4.942   1.311  0.2605  1.3835 -0.4428
  544MOL0     H73426   7.694   5.138   0.958 -0.2553 -0.6472  0.0780
  544MOL0     H73427   7.682   5.207   0.731 -1.3359  0.6346 -1.3497
  544MOL0     H73428   7.838   5.091   0.509 -1.0228 -2.6481  0.8533
  544MOL0     H73429   7.720   5.221   0.483  2.2241 -0.2291  4.5343
  544MOL0     H73430   7.783   4.978   0.296 -1.1107  0.1844  0.8766
  544MOL0     H73431   7.869   5.130   0.291  0.9858 -0.6882  2.5676
  544MOL0     H73432   7.565   5.096   0.254 -0.8621 -1.3131 -2.8930
  544MOL0     H73433   7.680   5.100   0.120 -0.2721  2.1125 -1.1048
  544MOL0     H73434   7.561   5.309   0.135  2.0936  2.4300 -3.6043
  544MOL0     H73435   7.624   5.331   0.299 -0.7063 -2.4727  0.4626
  544MOL0     H73436   7.965   5.451   0.086  0.3762 -1.2332  0.7999
  544MOL0     H73437   7.635   4.815   0.596 -1.8258 -0.7067 -0.1499
  544MOL0     H73438   7.587   4.634   0.756 -3.5876  0.0747  0.6768
  544MOL0     H73439   7.688   4.641   0.907  0.3736 -2.0935 -0.2183
  544MOL0     H73440   7.509   4.658   0.906 -0.4385 -1.1763 -0.2432
  545MOL0     O73441   0.238   4.011   0.134  0.5512 -0.1040 -0.4772
  545MOL0     C73442   0.311   3.993   0.038 -0.0611  0.1503  0.1577
  545MOL0     O73443   0.330   3.880  -0.030  0.7531  0.4582 -0.1555
  545MOL0     C73444   0.317   3.760   0.034 -0.3192  0.3360 -0.4293
  545MOL0     C73445   0.198   3.697   0.016  0.2078 -0.1147 -0.2785
  545MOL0     C73446   0.181   3.559   0.039  0.2995 -0.3913 -0.3608
  545MOL0     C73447   0.289   3.485   0.098  0.8826 -0.4607 -0.9805
  545MOL0     O73448   0.277   3.355   0.147  0.6489  0.3851 -0.1885
  545MOL0     C73449   0.144   3.297   0.161  0.6435 -0.0988  0.4222
  545MOL0     C73450   0.174   3.145   0.188 -1.0924 -0.2977 -0.2892
  545MOL0     C73451   0.203   3.069   0.058  0.3863 -0.5195 -0.3390
  545MOL0     C73452   0.148   2.919   0.068  0.8451  0.5067 -0.3405
  545MOL0     C73453   0.003   2.914   0.032  1.0713  0.2674 -0.7360
  545MOL0     C73454  -0.056   2.785   0.093 -0.5811  0.3856 -0.7803
  545MOL0     C73455   0.016   2.650   0.097  0.6368  0.4539  0.4049
  545MOL0     C73456   0.034   2.607   0.241 -0.5023 -0.1770 -0.3403
  545MOL0     N73457   0.158   2.648   0.304 -0.1755 -0.1246  0.1110
  545MOL0     C73458   0.283   2.619   0.269  0.3375 -0.4286 -0.4096
  545MOL0     C73459   0.359   2.689   0.348  0.8066  0.9036 -0.1636
  545MOL0     C73460   0.508   2.681   0.338  0.3481  0.5383 -0.2062
  545MOL0     C73461   0.587   2.597   0.432  0.0515  0.1626  0.0706
  545MOL0     C73462   0.503   2.481   0.487 -0.7405  0.1576 -0.4039
  545MOL0     C73463   0.490   2.357   0.400 -0.5430 -0.2831 -0.6109
  545MOL0     O73464   0.415   2.256   0.457  1.0879  0.3643  0.2586
  545MOL0     C73465   0.361   2.148   0.390 -0.5887 -0.9417  0.0062
  545MOL0     C73466   0.263   2.086   0.458  0.6750  0.4355 -0.6691
  545MOL0     C73467   0.189   1.974   0.402 -0.4683 -1.1280  0.4178
  545MOL0     C73468   0.223   1.938   0.266 -0.5422  0.4769 -0.4072
  545MOL0     C73469   0.152   1.829   0.191  0.3633  0.8508 -0.8519
  545MOL0     O73470   0.183   1.798   0.052  0.5506  0.0907 -0.3511
  545MOL0     C73471   0.128   1.710  -0.032 -0.1876  0.5086  1.0192
  545MOL0     C73472   0.089   1.583   0.012  0.7809  0.2902  0.7384
  545MOL0     C73473   0.023   1.489  -0.076  0.1224 -0.5238  0.4192
  545MOL0     C73474   0.000   1.523  -0.213 -0.1213  0.0636 -0.5437
  545MOL0     O73475  -0.043   1.440  -0.303  0.1201  0.7095  0.1235
  545MOL0     C73476  -0.078   1.311  -0.262 -0.0647 -0.0379 -0.0790
  545MOL0     C73477  -0.106   1.232  -0.390 -0.1802 -0.5303  0.3636
  545MOL0     C73478  -0.229   1.287  -0.480  0.0545 -0.1974 -0.0350
  545MOL0     C73479  -0.366   1.243  -0.423  0.1650  0.1693  0.0179
  545MOL0     C73480  -0.474   1.248  -0.533  0.6550 -0.2249  0.0589
  545MOL0     C73481  -0.483   1.378  -0.602 -0.1173 -0.1702  0.8926
  545MOL0     C73482  -0.619   1.400  -0.657 -0.1650  0.0643  0.4904
  545MOL0     C73483  -0.656   1.538  -0.712  1.0013 -0.2938  0.2855
  545MOL0    Cl73484  -0.538   1.605  -0.833  0.2782  0.4589 -0.2309
  545MOL0     C73485   0.059   1.656  -0.252  0.3779  0.1061 -0.5538
  545MOL0     C73486   0.118   1.744  -0.166 -0.4737 -1.2116 -0.4452
  545MOL0     O73487   0.059   1.773   0.251 -0.3407  0.6034 -0.0144
  545MOL0     C73488   0.330   2.005   0.202 -0.2108  0.5457 -0.6929
  545MOL0     C73489   0.402   2.112   0.260  0.0709  0.4861  0.4436
  545MOL0     N73490   0.275   2.767   0.435 -0.4813 -0.0655  0.4053
  545MOL0     N73491   0.152   2.737   0.403 -0.0911  0.9333  0.3469
  545MOL0     C73492   0.408   3.559   0.125  0.5801  0.1318  0.0637
  545MOL0     C73493   0.426   3.697   0.089 -1.1202 -0.2498  0.3090
  545MOL0     C73494   0.351   4.121  -0.014 -0.7072  0.0617 -0.1887
  545MOL0     C73495   0.268   4.226  -0.012  0.4497 -0.3325 -0.5815
  545MOL0     C73496   0.314   4.353  -0.054  0.1265  0.8334 -0.2446
  545MOL0     C73497   0.431   4.366  -0.123  1.9488 -0.0785  0.4446
  545MOL0     O73498   0.464   4.491  -0.171  0.1948 -0.6303 -0.2977
  545MOL0     C73499   0.362   4.590  -0.194 -0.1604 -0.2358 -0.0207
  545MOL0     C73500   0.284   4.549  -0.327 -0.3935  0.2062  0.6792
  545MOL0     C73501   0.291   4.674  -0.418  0.2197  0.4188  0.0915
  545MOL0     C73502   0.253   4.667  -0.566  0.1313 -0.0048 -0.0992
  545MOL0     C73503   0.121   4.608  -0.578  0.1525 -0.0234  0.0167
  545MOL0     C73504   0.008   4.566  -0.586 -0.5576 -0.2050 -0.1249
  545MOL0     C73505   0.517   4.260  -0.130 -0.0625  0.0212  0.2794
  545MOL0     C73506   0.478   4.137  -0.077  0.7754  0.6181  0.3223
  545MOL0     C73507   0.586   4.036  -0.072 -0.0037  0.2893  0.9885
  545MOL0     H73508   0.110   3.752  -0.015  0.1821  0.1111  0.1870
  545MOL0     H73509   0.082   3.517   0.021 -0.4467  0.3454  1.6891
  545MOL0     H73510   0.079   3.332   0.242 -0.4132 -0.9419 -0.0366
  545MOL0     H73511   0.080   3.302   0.072 -1.4150  0.1202  1.8355
  545MOL0     H73512   0.081   3.108   0.233 -1.4641 -0.0556 -0.8529
  545MOL0     H73513   0.248   3.129   0.268 -0.2970  1.1446 -0.7109
  545MOL0     H73514   0.312   3.071   0.063  0.4867  1.5077 -2.2300
  545MOL0     H73515   0.158   3.114  -0.030  0.0064  1.4182  0.7902
  545MOL0     H73516   0.214   2.854   0.011  2.3741 -0.1559  2.0487
  545MOL0     H73517   0.151   2.889   0.173 -0.6999 -0.6119 -0.5870
  545MOL0     H73518  -0.036   3.005   0.079  4.4654 -0.5332  4.3914
  545MOL0     H73519  -0.004   2.920  -0.077 -1.7134  0.5416 -0.6125
  545MOL0     H73520  -0.095   2.811   0.192  2.0618  2.2714 -0.1505
  545MOL0     H73521  -0.150   2.758   0.042 -0.3312 -3.5470  0.4904
  545MOL0     H73522   0.108   2.648   0.038  0.2338 -0.8537 -0.1912
  545MOL0     H73523  -0.054   2.579   0.052  4.0377 -2.0246 -1.4335
  545MOL0     H73524  -0.058   2.644   0.289 -2.1999 -0.7595 -2.9166
  545MOL0     H73525   0.035   2.498   0.246 -0.0098 -0.1237  1.2459
  545MOL0     H73526   0.320   2.550   0.194 -0.5347  2.0656 -3.3508
  545MOL0     H73527   0.531   2.649   0.236  1.5457 -3.8575  1.2025
  545MOL0     H73528   0.552   2.780   0.354  2.6949 -0.3713 -0.6454
  545MOL0     H73529   0.679   2.559   0.387 -0.5361 -3.5132  1.6056
  545MOL0     H73530   0.613   2.664   0.514  0.0322 -1.9970  1.9245
  545MOL0     H73531   0.408   2.512   0.531 -0.6898 -0.9294  0.5112
  545MOL0     H73532   0.561   2.436   0.568 -0.2822 -1.3097 -1.5036
  545MOL0     H73533   0.591   2.321   0.381  1.5676  3.2439  2.5529
  545MOL0     H73534   0.445   2.385   0.304 -1.9886 -0.5566 -0.0386
  545MOL0     H73535   0.224   2.133   0.548  0.2813  0.5213 -0.8832
  545MOL0     H73536   0.101   1.939   0.454  0.3334 -2.4219  0.9610
  545MOL0     H73537   0.115   1.553   0.113  1.5841 -3.2664 -0.4181
  545MOL0     H73538   0.002   1.400  -0.018  0.4595 -0.0902  1.2246
  545MOL0     H73539   0.003   1.259  -0.211  0.1590 -1.5348 -1.8699
  545MOL0     H73540  -0.167   1.328  -0.201  0.5269  1.5114  0.3990
  545MOL0     H73541  -0.024   1.246  -0.461 -2.4416 -0.4757 -2.3869
  545MOL0     H73542  -0.119   1.125  -0.369 -0.8020 -0.7271 -0.9709
  545MOL0     H73543  -0.219   1.395  -0.474  2.3478 -0.4233  2.0033
  545MOL0     H73544  -0.224   1.257  -0.585  0.8865 -1.2476  0.2760
  545MOL0     H73545  -0.381   1.310  -0.338  0.9117 -1.0869  1.1699
  545MOL0     H73546  -0.370   1.144  -0.377 -1.9358  1.0390  1.8954
  545MOL0     H73547  -0.567   1.234  -0.477 -0.3728 -0.4891 -1.6448
  545MOL0     H73548  -0.459   1.172  -0.610  0.9994  2.9787 -3.3344
  545MOL0     H73549  -0.476   1.464  -0.533  0.5356  1.5123 -1.1647
  545MOL0     H73550  -0.409   1.382  -0.682 -1.2011  0.8077 -0.0851
  545MOL0     H73551  -0.695   1.383  -0.580 -0.0575  1.8454  1.0255
  545MOL0     H73552  -0.624   1.328  -0.740  1.1966  1.6138 -0.9996
  545MOL0     H73553  -0.747   1.532  -0.774  0.1350  1.0067  1.3565
  545MOL0     H73554  -0.666   1.616  -0.636 -3.0742 -0.0730 -0.2337
  545MOL0     H73555   0.061   1.679  -0.358 -0.7607  1.6241 -0.2866
  545MOL0     H73556   0.155   1.839  -0.204 -4.4509 -0.0205 -1.8964
  545MOL0     H73557   0.343   1.980   0.097 -1.2712  1.5211 -1.0770
  545MOL0     H73558   0.485   2.168   0.217 -0.9004  3.4275  2.1000
  545MOL0     H73559   0.485   3.490   0.158  2.7037  1.3464 -2.0462
  545MOL0     H73560   0.523   3.738   0.113 -0.4696 -0.3529 -1.9560
  545MOL0     H73561   0.170   4.204   0.027  0.8415 -0.4013  0.4060
  545MOL0     H73562   0.240   4.430  -0.032 -2.7849 -1.6638 -0.5138
  545MOL0     H73563   0.407   4.685  -0.224 -1.2230  1.4271  3.1619
  545MOL0     H73564   0.295   4.611  -0.109 -1.2556  1.0277 -1.1549
  545MOL0     H73565   0.178   4.532  -0.303 -0.6817 -0.7030 -1.0758
  545MOL0     H73566   0.319   4.458  -0.376  0.8254  1.0937 -0.1495
  545MOL0     H73567   0.392   4.715  -0.419  0.7483 -0.6874 -2.7760
  545MOL0     H73568   0.218   4.747  -0.382 -1.0020  0.0443 -1.4742
  545MOL0     H73569   0.253   4.765  -0.615  4.1135  1.7476  2.8891
  545MOL0     H73570   0.327   4.601  -0.613  1.5894  1.7820 -0.4387
  545MOL0     H73571  -0.091   4.530  -0.568 -0.7533  1.7627  3.7398
  545MOL0     H73572   0.614   4.267  -0.178 -0.4344  0.7176 -0.4008
  545MOL0     H73573   0.569   3.960   0.005  0.2348 -0.9989 -0.1774
  545MOL0     H73574   0.587   3.982  -0.167  1.6034  4.9459 -1.9862
  545MOL0     H73575   0.681   4.090  -0.062 -0.5753  1.8389 -1.2890
  546MOL0     O73576   2.871   1.325  11.529 -0.6889  0.1767  0.0408
  546MOL0     C73577   2.827   1.369  11.630 -0.0069 -0.0418  0.1314
  546MOL0     O73578   2.889   1.456  11.722 -0.2490  0.6172  0.2127
  546MOL0     C73579   3.023   1.473  11.730 -0.5230  0.6159  0.4609
  546MOL0     C73580   3.107   1.375  11.685 -0.1382  0.0568 -0.0126
  546MOL0     C73581   3.246   1.386  11.704  0.0648 -0.5683 -0.4997
  546MOL0     C73582   3.305   1.497  11.758 -0.2779  0.0308 -0.4996
  546MOL0     O73583   3.431   1.484  11.800 -0.7377 -0.4067  1.6571
  546MOL0     C73584   3.481   1.558  11.911  0.1567 -0.4675 -0.7889
  546MOL0     C73585   3.534   1.475  12.034 -0.2123  0.1605 -0.4262
  546MOL0     C73586   3.422   1.449  12.142  0.2488 -0.0425 -0.3888
  546MOL0     C73587   3.294   1.389  12.086  0.9208  0.0529  0.0546
  546MOL0     C73588   3.225   1.344  12.209 -0.0398  0.0522 -1.0636
  546MOL0     C73589   3.083   1.294  12.167 -0.0953 -0.1401 -0.0185
  546MOL0     C73590   3.018   1.225  12.295 -0.2168 -0.0517  0.6996
  546MOL0     C73591   2.885   1.153  12.271 -0.1040 -0.4195  0.9463
  546MOL0     N73592   2.774   1.241  12.245  0.1681 -0.8925  1.2562
  546MOL0     C73593   2.729   1.328  12.341 -0.0632  0.2186  0.6031
  546MOL0     C73594   2.613   1.377  12.284 -0.2107 -0.0616 -1.0487
  546MOL0     C73595   2.537   1.494  12.347  0.0181 -0.2255 -0.9032
  546MOL0     C73596   2.613   1.605  12.406  0.0682 -0.2979 -0.4593
  546MOL0     C73597   2.579   1.744  12.338 -0.7598  0.6998 -0.4953
  546MOL0     C73598   2.637   1.857  12.417 -0.2302 -0.3527 -0.4326
  546MOL0     O73599   2.576   1.982  12.387  0.2744 -0.3136 -0.0271
  546MOL0     C73600   2.664   2.048  12.306 -0.3118 -0.7610 -0.1459
  546MOL0     C73601   2.792   2.085  12.351  0.6993 -0.4340 -0.0887
  546MOL0     C73602   2.867   2.165  12.269 -0.1568 -0.1267  0.2318
  546MOL0     C73603   2.811   2.219  12.160 -0.1105 -0.8973  0.3755
  546MOL0     C73604   2.886   2.324  12.080 -0.3213 -0.0871  0.5332
  546MOL0     O73605   2.817   2.387  11.984  0.2993  0.2961  0.6097
  546MOL0     C73606   2.880   2.482  11.912 -0.1099 -0.1157  0.2856
  546MOL0     C73607   3.018   2.494  11.866  0.6875 -0.3150  0.0068
  546MOL0     C73608   3.049   2.617  11.786  0.2785  0.3521  0.3351
  546MOL0     C73609   2.948   2.692  11.735  0.3999 -0.1868  0.0452
  546MOL0     O73610   2.973   2.789  11.638 -0.0839 -0.2190 -0.0553
  546MOL0     C73611   2.872   2.818  11.537  1.0981 -0.1493  0.2470
  546MOL0     C73612   2.805   2.951  11.556 -0.0750  0.3713 -0.5989
  546MOL0     C73613   2.791   3.013  11.408 -0.3608  0.4504 -0.7724
  546MOL0     C73614   2.652   3.075  11.393 -0.5593  0.1689  0.3465
  546MOL0     C73615   2.646   3.181  11.272 -0.9935  1.0503 -0.0837
  546MOL0     C73616   2.529   3.283  11.291 -0.9657 -0.0474 -0.9362
  546MOL0     C73617   2.388   3.228  11.270 -0.3044 -0.3577  0.2214
  546MOL0     C73618   2.364   3.172  11.131  0.8353  0.2184  0.5393
  546MOL0    Cl73619   2.206   3.105  11.120 -0.1893  0.2165  0.0885
  546MOL0     C73620   2.818   2.661  11.768 -0.5032 -0.3535 -0.1735
  546MOL0     C73621   2.785   2.555  11.854  0.7026 -0.3122 -0.0201
  546MOL0     O73622   3.008   2.322  12.092  0.0628 -0.2661  0.3733
  546MOL0     C73623   2.692   2.184  12.112  0.2267 -0.2501 -0.1171
  546MOL0     C73624   2.617   2.097  12.184 -0.0211  0.2613  0.1253
  546MOL0     N73625   2.587   1.311  12.175 -0.6251  0.1449  0.0975
  546MOL0     N73626   2.687   1.229  12.140  0.3983  0.0880  0.8571
  546MOL0     C73627   3.217   1.602  11.788 -0.3658 -0.5064 -0.5202
  546MOL0     C73628   3.081   1.580  11.785  0.1853 -0.1897  0.3033
  546MOL0     C73629   2.682   1.335  11.651 -0.4298 -0.6716  0.0606
  546MOL0     C73630   2.635   1.335  11.780  0.0166  0.1374  0.2136
  546MOL0     C73631   2.514   1.303  11.825 -0.2849 -0.2855 -0.0759
  546MOL0     C73632   2.421   1.275  11.724  0.6611  0.1898 -0.5057
  546MOL0     O73633   2.290   1.230  11.755 -0.1471 -0.1420  0.2202
  546MOL0     C73634   2.262   1.179  11.886 -0.3596  1.6545 -0.0890
  546MOL0     C73635   2.158   1.062  11.891 -0.5163  1.7351  0.0339
  546MOL0     C73636   2.239   0.944  11.829  0.6773 -0.4745  0.0266
  546MOL0     C73637   2.169   0.800  11.826 -0.4787 -0.1091 -0.6605
  546MOL0     C73638   2.090   0.784  11.703 -0.0594 -0.9368  1.0330
  546MOL0     C73639   2.027   0.789  11.596 -0.7399 -0.3029 -0.0586
  546MOL0     C73640   2.455   1.286  11.589 -0.4556 -0.0474 -0.3515
  546MOL0     C73641   2.589   1.314  11.550 -0.6015  0.7703  0.3366
  546MOL0     C73642   2.610   1.300  11.399  0.4966 -0.7704 -0.6507
  546MOL0     H73643   3.075   1.280  11.643  1.9061 -0.0267 -1.5570
  546MOL0     H73644   3.314   1.308  11.670 -0.5899 -0.5066 -2.0285
  546MOL0     H73645   3.565   1.624  11.886  2.6057 -3.2676 -0.5363
  546MOL0     H73646   3.409   1.626  11.956 -0.1434 -1.4482  0.2544
  546MOL0     H73647   3.612   1.538  12.078  0.6786 -1.4475  0.3696
  546MOL0     H73648   3.578   1.381  12.001 -0.7580 -1.1568  2.2800
  546MOL0     H73649   3.400   1.548  12.180  0.5352 -1.0487  2.6234
  546MOL0     H73650   3.467   1.380  12.214  0.8060 -2.8179 -3.1203
  546MOL0     H73651   3.226   1.450  12.026  1.2022 -1.4197 -1.8622
  546MOL0     H73652   3.325   1.302  12.028  3.2955 -0.3386  1.7237
  546MOL0     H73653   3.279   1.258  12.250 -1.2355  1.4105  4.1702
  546MOL0     H73654   3.226   1.420  12.288 -0.0620 -1.4578  0.4497
  546MOL0     H73655   3.028   1.379  12.126 -0.1666 -0.7706 -1.2723
  546MOL0     H73656   3.092   1.226  12.082  3.0678  0.6534 -0.4365
  546MOL0     H73657   3.014   1.286  12.386 -1.4264 -1.3879  1.5861
  546MOL0     H73658   3.095   1.150  12.318  1.3929  0.4922 -2.4311
  546MOL0     H73659   2.887   1.106  12.172  2.3901  5.2720 -2.1671
  546MOL0     H73660   2.853   1.087  12.353 -2.7063 -0.4981 -0.0448
  546MOL0     H73661   2.792   1.352  12.426  1.3717 -1.6816  0.1429
  546MOL0     H73662   2.480   1.531  12.261 -2.2275  1.0144  0.9820
  546MOL0     H73663   2.455   1.459  12.411 -1.3957  2.3353 -1.1758
  546MOL0     H73664   2.591   1.622  12.512  0.9272  1.8199 -0.5669
  546MOL0     H73665   2.721   1.586  12.408  0.2939  0.9150  0.7844
  546MOL0     H73666   2.471   1.763  12.327 -1.1029 -1.3217 -1.0636
  546MOL0     H73667   2.633   1.756  12.245  1.4828  0.0886  0.6633
  546MOL0     H73668   2.746   1.849  12.405  0.4488  0.3810  3.8741
  546MOL0     H73669   2.628   1.851  12.525  0.5807 -1.7976 -0.4225
  546MOL0     H73670   2.842   2.054  12.442 -0.1086 -1.2993  0.0822
  546MOL0     H73671   2.965   2.197  12.303  1.3298 -1.2096 -2.6911
  546MOL0     H73672   3.095   2.424  11.896  2.2732  1.2797 -0.2392
  546MOL0     H73673   3.152   2.631  11.755  0.4040 -2.8023 -1.0729
  546MOL0     H73674   2.932   2.818  11.446 -0.2879 -1.5778 -0.7161
  546MOL0     H73675   2.795   2.741  11.523 -3.3202  3.3033  2.7967
  546MOL0     H73676   2.711   2.936  11.611  0.0576  0.1623 -0.4287
  546MOL0     H73677   2.863   3.018  11.620 -1.6876  0.0159  1.3508
  546MOL0     H73678   2.859   3.097  11.393 -2.0360  1.9024 -0.5434
  546MOL0     H73679   2.814   2.943  11.327 -0.4656  0.8266 -1.1308
  546MOL0     H73680   2.630   3.108  11.495 -0.1637 -1.2080  0.8972
  546MOL0     H73681   2.569   3.008  11.370  0.8586 -1.1180 -1.2966
  546MOL0     H73682   2.625   3.132  11.176 -0.8452 -0.0301  0.4250
  546MOL0     H73683   2.741   3.235  11.275  0.5590 -1.2146 -2.7482
  546MOL0     H73684   2.526   3.318  11.395 -3.1706 -2.6602  0.0129
  546MOL0     H73685   2.558   3.376  11.241  0.0647 -0.8998 -1.9590
  546MOL0     H73686   2.330   3.321  11.273 -0.8437 -0.6042 -1.5176
  546MOL0     H73687   2.362   3.158  11.351 -3.3353  0.6073  0.2108
  546MOL0     H73688   2.373   3.249  11.053  1.3532 -0.3690  0.0101
  546MOL0     H73689   2.439   3.092  11.125  0.7652 -0.0272  2.4369
  546MOL0     H73690   2.740   2.720  11.719  0.9874 -0.1635 -2.4876
  546MOL0     H73691   2.680   2.545  11.878  0.1303  1.5830 -1.4525
  546MOL0     H73692   2.665   2.216  12.012  1.1216  0.6464 -0.0817
  546MOL0     H73693   2.518   2.069  12.147 -0.3055  1.4184 -0.0320
  546MOL0     H73694   3.257   1.696  11.825 -2.3769 -0.8555  2.9592
  546MOL0     H73695   3.011   1.661  11.805 -0.2064 -0.8528  1.7365
  546MOL0     H73696   2.706   1.355  11.859  0.1751  3.4235 -0.6380
  546MOL0     H73697   2.500   1.310  11.932  1.0177  2.1526  0.0091
  546MOL0     H73698   2.234   1.257  11.957  0.1897  3.3020 -1.6025
  546MOL0     H73699   2.360   1.141  11.916 -0.9741 -1.6426 -1.8387
  546MOL0     H73700   2.078   1.089  11.821 -1.6928  1.0214  1.0638
  546MOL0     H73701   2.118   1.040  11.990 -2.7486 -1.2922 -1.3733
  546MOL0     H73702   2.303   0.931  11.917  0.3887 -0.2691  0.2702
  546MOL0     H73703   2.291   0.972  11.737 -2.5188 -1.4679 -2.2446
  546MOL0     H73704   2.254   0.732  11.817 -0.1598  0.1852  0.0534
  546MOL0     H73705   2.119   0.791  11.923  1.9079  0.9193  0.7484
  546MOL0     H73706   1.958   0.802  11.514 -1.4659  0.6149  0.6771
  546MOL0     H73707   2.378   1.263  11.516 -3.1494  0.8494  2.0416
  546MOL0     H73708   2.639   1.397  11.358 -0.5078  0.1644  0.7468
  546MOL0     H73709   2.690   1.228  11.381  0.4702 -2.0343  3.3267
  546MOL0     H73710   2.518   1.265  11.351  1.2137 -1.1842 -1.7598
  547MOL0     O73711   7.358   4.977   3.610  0.0477  0.9885 -0.2199
  547MOL0     C73712   7.273   4.886   3.597  0.1195  0.0241  0.9531
  547MOL0     O73713   7.268   4.769   3.667 -0.1931  0.2504 -0.6897
  547MOL0     C73714   7.375   4.746   3.757  0.2103 -0.3306  0.0977
  547MOL0     C73715   7.504   4.738   3.707  0.1825  0.2105  0.0534
  547MOL0     C73716   7.614   4.708   3.784 -0.1574  0.4133  0.1444
  547MOL0     C73717   7.592   4.678   3.919 -0.1454  1.0226 -0.7989
  547MOL0     O73718   7.692   4.640   3.998  0.0662  0.3934 -0.1361
  547MOL0     C73719   7.830   4.637   3.951 -0.3167  0.1812  0.3180
  547MOL0     C73720   7.923   4.597   4.065  0.6947  1.0880 -0.3975
  547MOL0     C73721   7.960   4.451   4.075 -0.0626  1.1631 -0.4060
  547MOL0     C73722   7.845   4.351   4.074 -0.2149 -0.9396 -0.6908
  547MOL0     C73723   7.885   4.207   4.084 -0.2813 -0.8168  0.2342
  547MOL0     C73724   7.951   4.149   4.216  0.1105  0.2536  0.3227
  547MOL0     C73725   7.887   4.202   4.350  0.0573 -0.3019  0.7185
  547MOL0     C73726   7.930   4.128   4.470 -0.1600  1.2164 -1.0867
  547MOL0     N73727   8.065   4.175   4.499 -0.7950 -0.1109 -0.2473
  547MOL0     C73728   8.091   4.273   4.595 -0.0615 -0.2745 -0.1871
  547MOL0     C73729   8.222   4.258   4.609 -0.5044 -0.3356  0.2519
  547MOL0     C73730   8.315   4.326   4.707 -0.1953 -0.1581 -0.0636
  547MOL0     C73731   8.356   4.226   4.820 -0.1007 -0.5668 -0.7208
  547MOL0     C73732   8.470   4.136   4.780 -0.5604  0.4541 -0.8681
  547MOL0     C73733   8.613   4.196   4.751 -0.8465 -0.6419  0.5288
  547MOL0     O73734   8.720   4.099   4.788  0.5618 -0.0739  0.0245
  547MOL0     C73735   8.758   4.077   4.922  0.0888  0.3356 -0.0092
  547MOL0     C73736   8.731   4.162   5.032 -0.2028 -0.4363 -0.0719
  547MOL0     C73737   8.776   4.124   5.162  0.5686 -1.1644  0.4535
  547MOL0     C73738   8.838   4.005   5.178 -0.4557 -0.3803 -0.3444
  547MOL0     C73739   8.890   3.982   5.319 -0.7783 -0.6744 -0.2140
  547MOL0     O73740   9.010   3.913   5.329  0.1800  0.0732 -0.2057
  547MOL0     C73741   9.044   3.856   5.448 -1.4517 -0.4431 -0.5236
  547MOL0     C73742   8.963   3.771   5.519  0.2155  0.3001 -0.7572
  547MOL0     C73743   9.005   3.684   5.624 -0.4679  0.6165 -0.4695
  547MOL0     C73744   9.135   3.696   5.674  0.1095 -0.9631 -0.0110
  547MOL0     O73745   9.180   3.616   5.777  0.6074 -0.1987  0.0387
  547MOL0     C73746   9.084   3.592   5.876 -0.1507  0.0609 -0.7347
  547MOL0     C73747   9.156   3.587   6.012  0.2570  0.3491 -0.2787
  547MOL0     C73748   9.213   3.440   6.019  0.2968 -0.0064 -1.7677
  547MOL0     C73749   9.267   3.414   6.156  0.1430 -0.2964  0.4396
  547MOL0     C73750   9.298   3.266   6.176  0.1343  0.3305 -0.4131
  547MOL0     C73751   9.347   3.263   6.334  0.0887 -0.1162 -0.0624
  547MOL0     C73752   9.352   3.111   6.392 -0.9804 -0.1851 -0.6737
  547MOL0     C73753   9.294   3.090   6.529 -0.3045 -0.7411  0.0635
  547MOL0    Cl73754   9.333   2.919   6.566  0.4020 -0.3044 -0.0437
  547MOL0     C73755   9.212   3.805   5.625  0.1862  0.6154  0.2585
  547MOL0     C73756   9.177   3.875   5.508 -0.7995  0.2999  0.3598
  547MOL0     O73757   8.821   4.020   5.415  0.3529 -0.1806  0.0469
  547MOL0     C73758   8.863   3.914   5.076  0.7528  0.1465  0.0212
  547MOL0     C73759   8.805   3.953   4.949 -0.0520  0.6433 -0.3219
  547MOL0     N73760   8.271   4.155   4.528 -0.8811 -0.2335 -0.3498
  547MOL0     N73761   8.179   4.111   4.456  0.1388 -0.3669  0.6067
  547MOL0     C73762   7.463   4.698   3.976 -0.0010  0.6299  0.9562
  547MOL0     C73763   7.350   4.732   3.894 -0.0586  1.0531  0.0965
  547MOL0     C73764   7.154   4.918   3.508  0.6176  0.8376 -0.4385
  547MOL0     C73765   7.171   4.999   3.393  0.6714  0.2993 -0.8388
  547MOL0     C73766   7.085   5.018   3.294  0.5538 -0.1002 -0.3911
  547MOL0     C73767   6.958   4.965   3.315  0.5814  1.0316 -0.1965
  547MOL0     O73768   6.865   4.995   3.218 -0.1263  0.1130 -0.6290
  547MOL0     C73769   6.735   4.945   3.212  0.7234  0.3666  0.5506
  547MOL0     C73770   6.686   4.945   3.072  0.0403 -0.6454  0.3834
  547MOL0     C73771   6.570   4.848   3.050 -0.0866  0.0095  1.2039
  547MOL0     C73772   6.514   4.869   2.903 -0.6930  0.1624  0.2245
  547MOL0     C73773   6.479   5.012   2.873  0.0101 -0.4505 -0.5139
  547MOL0     C73774   6.472   5.131   2.848 -0.5722  0.8363 -0.4184
  547MOL0     C73775   6.932   4.873   3.423  0.0597  0.3980  0.1261
  547MOL0     C73776   7.029   4.854   3.519 -0.3605  0.2961 -1.3002
  547MOL0     C73777   6.990   4.738   3.621  0.4239  0.3195  0.2606
  547MOL0     H73778   7.516   4.757   3.601 -1.7039  3.1866  0.2293
  547MOL0     H73779   7.710   4.698   3.735 -0.1839 -0.0972  0.1878
  547MOL0     H73780   7.838   4.575   3.860 -2.1336  0.9383 -0.4033
  547MOL0     H73781   7.854   4.738   3.916  1.9931 -0.2099  0.6229
  547MOL0     H73782   7.867   4.625   4.155  0.8949 -0.2203  0.1519
  547MOL0     H73783   8.011   4.661   4.065  0.1777  1.9587 -3.5828
  547MOL0     H73784   8.029   4.424   4.155 -0.9422  0.0763  0.0191
  547MOL0     H73785   8.014   4.420   3.984  1.4591 -2.7851  1.6035
  547MOL0     H73786   7.774   4.372   4.155  2.2413  0.9447  1.1233
  547MOL0     H73787   7.792   4.371   3.980  2.0825  1.8758 -1.5428
  547MOL0     H73788   7.786   4.166   4.066  0.2514 -2.2853  0.5478
  547MOL0     H73789   7.942   4.181   3.994 -2.1870  4.1633 -2.8593
  547MOL0     H73790   7.935   4.041   4.213  1.9911 -0.1090  1.4053
  547MOL0     H73791   8.058   4.173   4.218 -0.4985  3.3717  0.6475
  547MOL0     H73792   7.779   4.191   4.337  0.2575  0.6407 -2.7877
  547MOL0     H73793   7.912   4.308   4.363  1.5515 -0.4977 -0.3286
  547MOL0     H73794   7.864   4.152   4.554  0.5267 -5.2228  1.9139
  547MOL0     H73795   7.925   4.022   4.444 -0.7613  1.1693 -0.8022
  547MOL0     H73796   8.020   4.335   4.648  0.8307  0.4596  0.1775
  547MOL0     H73797   8.404   4.352   4.650  1.1881 -1.7996  1.2461
  547MOL0     H73798   8.260   4.410   4.750  1.4717  1.0682 -0.2429
  547MOL0     H73799   8.395   4.289   4.900 -3.9678  2.3615 -0.8695
  547MOL0     H73800   8.276   4.167   4.866 -0.2432  0.1619 -0.0097
  547MOL0     H73801   8.443   4.068   4.698 -1.1613  1.3371 -1.4258
  547MOL0     H73802   8.474   4.077   4.872 -0.0652 -1.0532 -1.8244
  547MOL0     H73803   8.631   4.296   4.792 -0.0755  0.8227 -2.9937
  547MOL0     H73804   8.622   4.222   4.645 -3.3621  5.0163  1.3426
  547MOL0     H73805   8.693   4.261   5.009  1.8101 -0.0686 -2.2009
  547MOL0     H73806   8.759   4.193   5.245 -0.8596 -2.3095  1.1609
  547MOL0     H73807   8.862   3.750   5.484  0.2582  0.7347 -1.1538
  547MOL0     H73808   8.926   3.625   5.670 -2.0692  0.5674 -3.1002
  547MOL0     H73809   9.001   3.662   5.889 -1.4897 -1.5215 -0.4960
  547MOL0     H73810   9.037   3.496   5.854 -0.7040  0.0552  0.4136
  547MOL0     H73811   9.240   3.657   6.020  0.9200 -0.6544  3.4121
  547MOL0     H73812   9.086   3.613   6.091 -2.1595 -0.2134 -2.1063
  547MOL0     H73813   9.141   3.363   5.991  1.0133 -1.1107 -0.6477
  547MOL0     H73814   9.298   3.421   5.953  2.3113  0.4210  0.5644
  547MOL0     H73815   9.199   3.437   6.239 -2.0404 -4.0847 -0.0658
  547MOL0     H73816   9.351   3.481   6.175 -1.5618  1.9157  0.5818
  547MOL0     H73817   9.381   3.234   6.113 -0.2383 -2.5305  0.3723
  547MOL0     H73818   9.216   3.197   6.152 -1.7433  0.8606  3.6066
  547MOL0     H73819   9.447   3.307   6.332 -0.3318  0.9237 -3.0025
  547MOL0     H73820   9.271   3.310   6.396  1.0455  1.4294 -0.0215
  547MOL0     H73821   9.458   3.085   6.396 -1.2634 -1.5821  4.1099
  547MOL0     H73822   9.316   3.042   6.315 -0.2913 -0.5499 -0.6756
  547MOL0     H73823   9.345   3.150   6.604  1.7077 -1.0853 -0.9738
  547MOL0     H73824   9.186   3.108   6.537  0.1736  1.9345  1.2726
  547MOL0     H73825   9.293   3.836   5.690 -2.0647  1.6414  2.7376
  547MOL0     H73826   9.242   3.947   5.459 -2.6473  3.0045  1.6595
  547MOL0     H73827   8.918   3.821   5.082 -1.4092 -1.4029 -2.2213
  547MOL0     H73828   8.821   3.887   4.864 -1.6969 -1.0096  0.5877
  547MOL0     H73829   7.459   4.671   4.081  0.3139 -0.1242  0.7754
  547MOL0     H73830   7.248   4.739   3.931 -0.8786 -0.6509 -1.6480
  547MOL0     H73831   7.269   5.045   3.383  0.9655  0.4594  1.8784
  547MOL0     H73832   7.100   5.086   3.210 -1.7169  2.7791  1.2889
  547MOL0     H73833   6.662   5.003   3.269  2.6614  0.8133  2.7233
  547MOL0     H73834   6.732   4.842   3.249 -0.9372  0.6010  1.1668
  547MOL0     H73835   6.757   4.915   2.995 -1.5767 -2.2330 -0.6019
  547MOL0     H73836   6.668   5.051   3.053 -0.2220  0.0277  3.7484
  547MOL0     H73837   6.499   4.860   3.132  3.1215  1.4616  4.0351
  547MOL0     H73838   6.618   4.749   3.048  2.7854  1.2521 -2.0544
  547MOL0     H73839   6.591   4.830   2.835 -1.1661  4.3618 -3.1864
  547MOL0     H73840   6.423   4.813   2.883 -1.9381  2.7239 -2.0345
  547MOL0     H73841   6.451   5.234   2.829  0.8366  0.9488 -1.5305
  547MOL0     H73842   6.841   4.814   3.426  1.4867 -2.3027 -2.9322
  547MOL0     H73843   7.014   4.761   3.725 -1.5359 -2.6564  1.4851
  547MOL0     H73844   6.882   4.723   3.629  0.4285  1.0566  2.3507
  547MOL0     H73845   7.043   4.645   3.599 -1.7554 -0.6293 -1.4481
  548MOL0     O73846   2.741   1.465   1.583 -0.9124  0.9775  0.3316
  548MOL0     C73847   2.632   1.457   1.644 -0.4453 -0.1786  0.0776
  548MOL0     O73848   2.567   1.556   1.699 -0.3037 -0.5243  1.3427
  548MOL0     C73849   2.585   1.693   1.702 -0.9180 -0.8136  0.9735
  548MOL0     C73850   2.696   1.756   1.649  0.0727  0.0220 -0.5100
  548MOL0     C73851   2.697   1.893   1.655 -0.0545 -0.9835 -0.8708
  548MOL0     C73852   2.608   1.974   1.726 -0.3070  0.6060 -1.6301
  548MOL0     O73853   2.611   2.113   1.728  0.2095  0.1612  0.3323
  548MOL0     C73854   2.688   2.186   1.632 -0.0706 -0.5436  1.0354
  548MOL0     C73855   2.672   2.340   1.656 -1.1231 -0.0350  0.4219
  548MOL0     C73856   2.539   2.391   1.612  0.6895 -0.7054  0.3843
  548MOL0     C73857   2.554   2.547   1.584  0.0435  0.7067  1.0567
  548MOL0     C73858   2.420   2.598   1.535 -0.9308  0.5968 -0.9823
  548MOL0     C73859   2.304   2.604   1.632 -0.1109  0.2696 -0.9959
  548MOL0     C73860   2.194   2.668   1.560 -0.1619 -1.3227 -0.5112
  548MOL0     C73861   2.075   2.713   1.648 -0.9656  0.7671 -0.3601
  548MOL0     N73862   1.962   2.715   1.556 -0.0217 -0.1540  0.1405
  548MOL0     C73863   1.929   2.831   1.490 -0.1597  0.1565  0.5731
  548MOL0     C73864   1.838   2.787   1.399 -0.2698 -0.6113 -0.4129
  548MOL0     C73865   1.763   2.880   1.298  0.0523  0.9696  0.1748
  548MOL0     C73866   1.757   2.833   1.146 -0.0020 -0.7676 -0.3997
  548MOL0     C73867   1.666   2.705   1.124 -0.0653 -0.0767 -0.1478
  548MOL0     C73868   1.689   2.650   0.985  0.4995 -0.5127  0.9143
  548MOL0     O73869   1.658   2.742   0.877  0.5413  0.3034  0.4961
  548MOL0     C73870   1.559   2.700   0.783  0.1274  0.0025  0.6887
  548MOL0     C73871   1.565   2.738   0.648  0.6519 -0.6976 -0.0252
  548MOL0     C73872   1.471   2.696   0.555 -1.4917  0.6830  0.0512
  548MOL0     C73873   1.376   2.596   0.601 -1.0251  0.6591  0.5017
  548MOL0     C73874   1.285   2.523   0.510  0.1500 -0.6707  0.2420
  548MOL0     O73875   1.160   2.494   0.565 -0.6341  0.2833  0.0584
  548MOL0     C73876   1.078   2.413   0.484  1.0129  0.0198  0.0027
  548MOL0     C73877   1.050   2.279   0.517  0.3902  0.0991 -0.6128
  548MOL0     C73878   0.962   2.202   0.445 -0.2722  0.5072  0.1265
  548MOL0     C73879   0.907   2.259   0.326  0.3213 -0.2731  0.1534
  548MOL0     O73880   0.819   2.187   0.245  0.2410 -0.3449  0.3330
  548MOL0     C73881   0.830   2.049   0.236 -0.1466  0.1311  0.4039
  548MOL0     C73882   0.743   2.006   0.122  0.6317  0.5980 -0.2791
  548MOL0     C73883   0.729   1.858   0.114  0.0851  0.0145  0.3161
  548MOL0     C73884   0.591   1.802   0.106  0.9454 -0.3530 -0.8735
  548MOL0     C73885   0.594   1.648   0.121 -0.3114 -0.0988 -0.0097
  548MOL0     C73886   0.466   1.583   0.053  0.5011  0.8185  0.0311
  548MOL0     C73887   0.486   1.421   0.040  0.2351  0.2363  0.0781
  548MOL0     C73888   0.487   1.348   0.178 -0.3144 -0.2584  0.3216
  548MOL0    Cl73889   0.325   1.309   0.227 -0.0404 -0.5168  0.0792
  548MOL0     C73890   0.933   2.392   0.292  0.1176 -0.2238 -0.1814
  548MOL0     C73891   1.012   2.466   0.371 -0.1542 -0.2545  0.8165
  548MOL0     O73892   1.329   2.490   0.409 -0.1076 -0.1563 -0.1946
  548MOL0     C73893   1.358   2.569   0.737  0.2966 -0.1928 -1.2911
  548MOL0     C73894   1.456   2.614   0.814 -0.7825  0.5598 -0.2120
  548MOL0     N73895   1.812   2.652   1.422  0.2405  0.1645  0.6105
  548MOL0     N73896   1.879   2.612   1.524  0.2241  0.4007  0.1161
  548MOL0     C73897   2.496   1.901   1.775 -0.1770  0.3555  0.3507
  548MOL0     C73898   2.485   1.766   1.766  0.6819 -0.3949  0.1579
  548MOL0     C73899   2.561   1.324   1.648 -0.1966  0.0431 -0.1816
  548MOL0     C73900   2.423   1.322   1.627  0.0925  1.0935 -0.3616
  548MOL0     C73901   2.358   1.196   1.639 -0.0470 -0.9464 -0.1220
  548MOL0     C73902   2.439   1.078   1.652  0.0374 -0.2466  0.3228
  548MOL0     O73903   2.380   0.954   1.652  0.4003  0.0638  0.3120
  548MOL0     C73904   2.254   0.929   1.597 -0.5836  1.0107 -0.3062
  548MOL0     C73905   2.225   0.780   1.612 -0.1682  0.1113 -0.0417
  548MOL0     C73906   2.236   0.710   1.758  0.2144  0.7480  0.0289
  548MOL0     C73907   2.195   0.803   1.875  0.5514 -0.1271  0.9713
  548MOL0     C73908   2.155   0.731   1.994 -0.1785  1.1108 -0.8739
  548MOL0     C73909   2.112   0.677   2.091 -0.7956 -0.0528  0.2519
  548MOL0     C73910   2.573   1.088   1.683 -0.1857  0.2709  0.9762
  548MOL0     C73911   2.634   1.207   1.681  0.4025 -0.4327  0.5858
  548MOL0     C73912   2.783   1.204   1.707  1.0520  0.2037  0.3458
  548MOL0     H73913   2.789   1.717   1.609 -1.0149 -1.1324 -2.0430
  548MOL0     H73914   2.786   1.945   1.620 -1.2638  1.4875 -0.4973
  548MOL0     H73915   2.788   2.159   1.667  0.8873  2.7168  1.1408
  548MOL0     H73916   2.654   2.163   1.530 -0.1637  1.4878  0.5641
  548MOL0     H73917   2.750   2.383   1.593  0.9457 -1.2035  2.0045
  548MOL0     H73918   2.706   2.369   1.756 -2.6294 -0.0780  0.9750
  548MOL0     H73919   2.474   2.371   1.697  0.0267  1.3611  0.3983
  548MOL0     H73920   2.493   2.348   1.523 -1.5756 -0.1725  1.2245
  548MOL0     H73921   2.580   2.599   1.677 -1.6969  1.7505  0.9940
  548MOL0     H73922   2.632   2.568   1.511 -0.1622 -0.4708  0.4683
  548MOL0     H73923   2.439   2.703   1.511 -1.6121  1.1643  0.7587
  548MOL0     H73924   2.396   2.555   1.438  0.2334 -1.0455 -0.5946
  548MOL0     H73925   2.273   2.503   1.661  3.6726 -0.7576  0.1393
  548MOL0     H73926   2.326   2.675   1.713  0.0516 -2.1683  1.2249
  548MOL0     H73927   2.158   2.596   1.486  2.8953 -1.5776 -1.9000
  548MOL0     H73928   2.232   2.755   1.507  2.8043 -1.6970  0.8440
  548MOL0     H73929   2.049   2.634   1.719 -1.5747  0.7523 -0.5945
  548MOL0     H73930   2.090   2.805   1.705  1.9901 -0.4594  1.0253
  548MOL0     H73931   1.964   2.934   1.497 -1.2900  0.8812 -2.7314
  548MOL0     H73932   1.660   2.892   1.334 -0.6652 -1.1127 -0.9747
  548MOL0     H73933   1.817   2.975   1.304  2.6448 -0.3560 -0.7771
  548MOL0     H73934   1.712   2.911   1.084  1.3523  0.0334 -0.4068
  548MOL0     H73935   1.858   2.824   1.105  0.0673 -0.9772 -0.1854
  548MOL0     H73936   1.561   2.732   1.140  0.4801  2.8492 -0.8832
  548MOL0     H73937   1.692   2.625   1.193  0.3560  1.1385  1.1598
  548MOL0     H73938   1.648   2.553   0.956  2.1861 -0.2174 -3.1743
  548MOL0     H73939   1.797   2.632   0.975  1.0784  2.8505  0.0648
  548MOL0     H73940   1.644   2.798   0.604  1.4681 -2.3925 -0.9841
  548MOL0     H73941   1.481   2.705   0.447 -0.6104  2.0598  0.2228
  548MOL0     H73942   1.099   2.220   0.594 -0.8634  0.3665  0.4162
  548MOL0     H73943   0.935   2.104   0.483  0.2905 -0.0640 -0.8976
  548MOL0     H73944   0.935   2.021   0.232  0.4881  2.4210 -0.2048
  548MOL0     H73945   0.784   2.010   0.328 -1.0415  1.5271  0.5968
  548MOL0     H73946   0.644   2.050   0.136  1.3516  3.6295 -3.2738
  548MOL0     H73947   0.771   2.048   0.025  1.0175  1.5223  0.2257
  548MOL0     H73948   0.774   1.826   0.019 -1.8490 -0.4504 -0.5082
  548MOL0     H73949   0.787   1.811   0.194  2.4578 -1.0408 -1.8549
  548MOL0     H73950   0.538   1.836   0.017 -1.6085  1.3682  1.1489
  548MOL0     H73951   0.535   1.851   0.187 -4.6741 -3.0174 -2.6239
  548MOL0     H73952   0.609   1.620   0.225 -0.2812 -1.1448 -0.2874
  548MOL0     H73953   0.689   1.618   0.075  0.4458  1.2327  0.6252
  548MOL0     H73954   0.374   1.612   0.105 -0.3245  2.7146 -2.3424
  548MOL0     H73955   0.450   1.618  -0.049 -2.6550  2.1370  0.8626
  548MOL0     H73956   0.590   1.420   0.003  0.3969  1.1839  0.4617
  548MOL0     H73957   0.426   1.364  -0.031  2.3815 -2.2589  0.1371
  548MOL0     H73958   0.545   1.256   0.167  2.2110  1.4869 -2.6477
  548MOL0     H73959   0.541   1.404   0.255  0.4866 -0.9519  0.2874
  548MOL0     H73960   0.884   2.443   0.210  0.4201 -0.6292 -0.6139
  548MOL0     H73961   1.021   2.569   0.338 -0.6157 -1.5034 -3.8702
  548MOL0     H73962   1.298   2.488   0.777 -1.8205  0.0800 -3.6460
  548MOL0     H73963   1.442   2.587   0.918 -0.1478  0.5415 -0.1306
  548MOL0     H73964   2.422   1.965   1.824 -0.2591  0.6742 -0.1894
  548MOL0     H73965   2.405   1.719   1.822 -0.8633 -2.2606 -3.3474
  548MOL0     H73966   2.372   1.418   1.622  1.0314  1.5250 -2.1880
  548MOL0     H73967   2.249   1.193   1.645 -0.1400 -3.4578 -1.7216
  548MOL0     H73968   2.241   0.956   1.492  0.3680  1.6602 -0.2764
  548MOL0     H73969   2.182   0.973   1.666  0.3827 -0.8882  2.0630
  548MOL0     H73970   2.285   0.721   1.542 -2.0203  1.6450 -3.1488
  548MOL0     H73971   2.124   0.772   1.571 -0.4380  3.1203 -0.1447
  548MOL0     H73972   2.341   0.683   1.767  0.4183  1.7695  0.8696
  548MOL0     H73973   2.166   0.625   1.754  1.6345 -0.4299 -1.4475
  548MOL0     H73974   2.276   0.874   1.893  3.3757 -3.0283  0.7660
  548MOL0     H73975   2.103   0.855   1.849  1.0120  1.1006  1.7079
  548MOL0     H73976   2.097   0.613   2.176  1.2173  0.5319  1.1226
  548MOL0     H73977   2.628   0.999   1.712  0.7261  0.4537 -0.0938
  548MOL0     H73978   2.834   1.216   1.611  0.8469  1.9709  0.4290
  548MOL0     H73979   2.815   1.288   1.769  0.6430 -1.3542  2.8290
  548MOL0     H73980   2.815   1.113   1.759 -1.0190 -0.3393  0.7364
  549MOL0     O73981   7.229  10.032   0.042  0.4945 -0.2506 -0.1285
  549MOL0     C73982   7.198   9.914   0.020  0.4741 -0.3489  0.3281
  549MOL0     O73983   7.073   9.860   0.029  0.3823 -0.5212 -0.2635
  549MOL0     C73984   6.960   9.923   0.074  0.9398  0.5344 -0.1284
  549MOL0     C73985   6.843   9.841   0.095 -0.0004 -0.1372 -0.3484
  549MOL0     C73986   6.713   9.896   0.128  0.1294  0.8547  0.3630
  549MOL0     C73987   6.694  10.032   0.149  0.2141 -1.2436 -0.5699
  549MOL0     O73988   6.560  10.075   0.176 -0.2142  0.5652  0.2085
  549MOL0     C73989   6.535  10.208   0.204  0.6951  0.3804  0.5079
  549MOL0     C73990   6.577  10.225   0.343 -0.0086  0.1408 -0.2095
  549MOL0     C73991   6.662  10.357   0.360  0.0919  0.4034 -0.0753
  549MOL0     C73992   6.655  10.400   0.502 -1.0733  0.0371  1.3233
  549MOL0     C73993   6.777  10.487   0.547  0.3691  0.7524  0.0466
  549MOL0     C73994   6.773  10.532   0.696 -0.7813  0.1591 -0.3074
  549MOL0     C73995   6.896  10.618   0.727  0.4362  0.1536  0.3908
  549MOL0     C73996   6.924  10.658   0.880 -0.8083 -0.1968  0.7239
  549MOL0     N73997   6.986  10.545   0.958  0.0492 -0.3289 -0.4990
  549MOL0     C73998   7.117  10.550   1.003 -0.8396  0.2590 -0.0110
  549MOL0     C73999   7.142  10.420   1.036 -0.0033  0.7025 -0.2427
  549MOL0     C74000   7.269  10.367   1.101  0.0786  0.2861  0.7402
  549MOL0     C74001   7.298  10.221   1.062 -0.3955 -0.1234 -0.1299
  549MOL0     C74002   7.409  10.173   1.153  0.7304 -0.0675  0.3889
  549MOL0     C74003   7.355  10.139   1.289 -0.1085 -0.0815  0.4304
  549MOL0     O74004   7.369  10.227   1.394  0.1277 -0.2526  0.8116
  549MOL0     C74005   7.490  10.265   1.429  1.1597 -0.8863  0.0248
  549MOL0     C74006   7.512  10.406   1.431 -0.8311  0.8004  0.4340
  549MOL0     C74007   7.642  10.454   1.475  0.2526  0.2098  0.0925
  549MOL0     C74008   7.749  10.357   1.509  0.5762  0.5530 -0.3417
  549MOL0     C74009   7.879  10.403   1.537 -0.2260 -1.4601 -0.5338
  549MOL0     O74010   7.961  10.313   1.590 -0.3830  0.0453 -0.4554
  549MOL0     C74011   8.100  10.340   1.613 -0.2519 -0.2740  0.0557
  549MOL0     C74012   8.147  10.248   1.706 -0.0295 -1.0178  0.9850
  549MOL0     C74013   8.283  10.252   1.725  1.2309 -0.1805 -0.6428
  549MOL0     C74014   8.367  10.343   1.677 -0.1201 -0.1955  0.0885
  549MOL0     O74015   8.498  10.327   1.709  0.1432 -0.2524 -0.0368
  549MOL0     C74016   8.602  10.358   1.604 -0.0806  0.4390 -0.1627
  549MOL0     C74017   8.747  10.323   1.643  0.7072  0.3186 -0.1978
  549MOL0     C74018   8.786  10.403   1.765 -0.1918  0.6809  0.4915
  549MOL0     C74019   8.914  10.484   1.733 -0.5726 -0.9667 -1.2885
  549MOL0     C74020   9.042  10.403   1.690  1.1161  0.6982 -0.1234
  549MOL0     C74021   9.086  10.327   1.818 -0.0486 -0.1630 -0.3535
  549MOL0     C74022   9.235  10.286   1.787 -0.2756 -0.5673 -0.5875
  549MOL0     C74023   9.273  10.206   1.912 -1.0053 -0.2734  0.4049
  549MOL0    Cl74024   9.309  10.333   2.028  0.4899 -0.2371  0.4542
  549MOL0     C74025   8.323  10.434   1.591  0.0101  0.0437  1.0109
  549MOL0     C74026   8.188  10.439   1.560  0.9135  0.2018  0.1296
  549MOL0     O74027   7.910  10.519   1.491 -0.9160 -0.2039  0.3555
  549MOL0     C74028   7.713  10.222   1.518 -0.3399  0.3675 -0.5468
  549MOL0     C74029   7.591  10.183   1.473  0.1602  0.2445  0.8004
  549MOL0     N74030   7.023  10.346   1.013  0.0070 -0.0397  0.6460
  549MOL0     N74031   6.935  10.417   0.962  0.0432 -1.3331  1.2563
  549MOL0     C74032   6.812  10.115   0.132 -0.5765 -0.9958 -0.4199
  549MOL0     C74033   6.939  10.060   0.095  0.5671  0.2987  0.4901
  549MOL0     C74034   7.319   9.838  -0.032  0.2116 -0.6724  0.6079
  549MOL0     C74035   7.361   9.859  -0.167 -0.0398  0.5881  0.4999
  549MOL0     C74036   7.433   9.763  -0.236 -0.6300 -0.4799  0.2791
  549MOL0     C74037   7.473   9.650  -0.170  0.9338 -0.3622  0.8524
  549MOL0     O74038   7.525   9.548  -0.247 -0.5724 -0.9557  0.4177
  549MOL0     C74039   7.671   9.562  -0.249  0.3871 -0.4000  0.5410
  549MOL0     C74040   7.707   9.438  -0.330  0.0497 -0.0046  0.7905
  549MOL0     C74041   7.664   9.300  -0.274 -0.0363  0.5138 -0.5938
  549MOL0     C74042   7.713   9.279  -0.132 -0.0730 -0.2447 -0.9246
  549MOL0     C74043   7.689   9.140  -0.088 -0.0459 -0.5214 -0.1702
  549MOL0     C74044   7.653   9.032  -0.050  0.0205 -0.7262  0.3232
  549MOL0     C74045   7.431   9.631  -0.044  0.2267 -0.1314 -0.0229
  549MOL0     C74046   7.359   9.721   0.036 -0.1545  0.4592 -0.1567
  549MOL0     C74047   7.313   9.673   0.168  1.7410 -0.4982  0.2878
  549MOL0     H74048   6.839   9.736   0.070  0.3493 -0.3440  0.4442
  549MOL0     H74049   6.630   9.827   0.139  0.4868  0.4033  0.3214
  549MOL0     H74050   6.574  10.283   0.135 -2.1473  0.3942 -1.1955
  549MOL0     H74051   6.430  10.222   0.176  0.4970 -1.6641  0.1082
  549MOL0     H74052   6.640  10.141   0.375 -0.7431  0.6652  2.8211
  549MOL0     H74053   6.486  10.226   0.403  0.5692 -2.1756  0.8486
  549MOL0     H74054   6.616  10.430   0.293 -2.5814 -0.5039  0.6259
  549MOL0     H74055   6.768  10.336   0.340 -0.6072 -2.2487 -1.4692
  549MOL0     H74056   6.563  10.451   0.534 -2.3010 -1.9974  1.2031
  549MOL0     H74057   6.654  10.311   0.565 -0.5226 -0.6134  0.4320
  549MOL0     H74058   6.863  10.422   0.527 -2.1685 -2.2370 -2.2059
  549MOL0     H74059   6.773  10.571   0.478  1.1619  0.7097 -0.0600
  549MOL0     H74060   6.677  10.581   0.714 -0.4931  0.1877  1.3053
  549MOL0     H74061   6.780  10.437   0.751 -2.4198  0.6997  0.8988
  549MOL0     H74062   6.887  10.712   0.672 -0.1161  0.7331  1.4369
  549MOL0     H74063   6.978  10.555   0.692  2.4615  1.7669  1.9592
  549MOL0     H74064   6.972  10.756   0.884  0.9705 -0.9449 -0.7304
  549MOL0     H74065   6.825  10.676   0.922  0.3183  1.7460  2.7254
  549MOL0     H74066   7.193  10.627   1.012 -1.1589  0.4373  1.3702
  549MOL0     H74067   7.352  10.428   1.064  0.3005  0.0697  0.8782
  549MOL0     H74068   7.255  10.387   1.207  1.1637 -0.7732  1.1017
  549MOL0     H74069   7.208  10.158   1.071  0.6596 -1.7790 -0.6863
  549MOL0     H74070   7.331  10.212   0.959  4.4771  0.0797  1.1535
  549MOL0     H74071   7.489  10.248   1.163 -0.2386  0.7316  2.6891
  549MOL0     H74072   7.456  10.088   1.102  0.6346  0.0793  0.0473
  549MOL0     H74073   7.399  10.042   1.312  2.7340  0.8661 -0.5610
  549MOL0     H74074   7.249  10.114   1.278 -0.3351  1.1820 -0.4233
  549MOL0     H74075   7.430  10.471   1.405 -0.9173  1.1134  1.4709
  549MOL0     H74076   7.644  10.562   1.481  0.7910  0.3847 -2.2469
  549MOL0     H74077   8.072  10.183   1.749 -1.6104 -1.8536 -2.6429
  549MOL0     H74078   8.320  10.172   1.789  3.7691  0.9065 -0.6095
  549MOL0     H74079   8.564  10.307   1.515 -0.0762 -2.6600  1.4851
  549MOL0     H74080   8.609  10.467   1.590  0.3402  0.3926 -0.3027
  549MOL0     H74081   8.751  10.218   1.672  1.2028  0.3051 -0.2943
  549MOL0     H74082   8.817  10.328   1.558  2.5563 -0.6371  1.2039
  549MOL0     H74083   8.702  10.465   1.798 -0.7992 -0.2447  0.7051
  549MOL0     H74084   8.809  10.333   1.846  0.0766  0.4603  0.2237
  549MOL0     H74085   8.934  10.548   1.819 -1.8461  1.5305 -2.7244
  549MOL0     H74086   8.877  10.546   1.651 -1.6448  0.0766 -0.0424
  549MOL0     H74087   9.113  10.477   1.652  3.5400 -2.9510 -3.4783
  549MOL0     H74088   9.020  10.327   1.615 -1.6656 -0.9534  2.1480
  549MOL0     H74089   9.081  10.407   1.892 -2.9230  1.2323 -1.8501
  549MOL0     H74090   9.012  10.248   1.832  0.8876 -0.4881  4.1929
  549MOL0     H74091   9.290  10.377   1.762 -0.1487 -1.1880 -2.7293
  549MOL0     H74092   9.230  10.221   1.699 -2.2906 -0.4649 -0.6103
  549MOL0     H74093   9.195  10.143   1.956 -2.4989  2.0862  1.3099
  549MOL0     H74094   9.366  10.148   1.904 -0.2324  1.1310 -1.7600
  549MOL0     H74095   8.392  10.513   1.565  2.0418 -2.0507 -0.3599
  549MOL0     H74096   8.149  10.508   1.487 -0.8139  1.2762  1.9519
  549MOL0     H74097   7.777  10.138   1.542 -1.7867 -0.7161 -0.3454
  549MOL0     H74098   7.560  10.079   1.485 -2.2916  0.8933  0.7363
  549MOL0     H74099   6.796  10.222   0.137  0.1253 -0.8153 -1.8354
  549MOL0     H74100   7.018  10.127   0.061 -1.2333  0.8925 -3.0298
  549MOL0     H74101   7.329   9.948  -0.221  2.8097  2.4287  1.6317
  549MOL0     H74102   7.464   9.777  -0.339  0.2046 -3.0581  0.1095
  549MOL0     H74103   7.715   9.564  -0.149  0.5066 -1.1570  0.5078
  549MOL0     H74104   7.704   9.650  -0.304 -1.9863 -1.5484 -3.0864
  549MOL0     H74105   7.814   9.437  -0.354 -0.0161  0.9113  0.4119
  549MOL0     H74106   7.654   9.444  -0.425  0.0712  0.1183  0.7864
  549MOL0     H74107   7.694   9.212  -0.331 -0.1389 -3.4497  4.6691
  549MOL0     H74108   7.554   9.303  -0.276 -0.1359 -1.8698 -2.0637
  549MOL0     H74109   7.819   9.304  -0.120  0.6477 -3.7925  1.5006
  549MOL0     H74110   7.661   9.342  -0.059  2.8404 -0.9132  1.9583
  549MOL0     H74111   7.622   8.936  -0.015  1.2773 -0.6143  1.8232
  549MOL0     H74112   7.441   9.529  -0.010 -2.0554 -0.6986 -0.8524
  549MOL0     H74113   7.218   9.624   0.145  1.9476  0.0152 -1.8147
  549MOL0     H74114   7.380   9.603   0.219 -1.3223 -3.4578  0.6191
  549MOL0     H74115   7.285   9.762   0.225 -1.0595 -1.2729  0.2824
  550MOL0     O74116   6.029   0.672   7.641 -0.0197  0.2019 -0.0116
  550MOL0     C74117   6.048   0.787   7.646  0.5495 -0.3627 -0.4811
  550MOL0     O74118   6.097   0.860   7.550  0.4983 -0.3935 -0.4583
  550MOL0     C74119   6.179   0.787   7.463  0.4000 -0.6367  0.1667
  550MOL0     C74120   6.316   0.793   7.470  0.3509  0.5942  0.2684
  550MOL0     C74121   6.392   0.707   7.386 -0.0680 -0.4288  0.2441
  550MOL0     C74122   6.334   0.627   7.289  0.0429  0.5474  0.9838
  550MOL0     O74123   6.411   0.543   7.211 -0.3313 -0.3758  0.2770
  550MOL0     C74124   6.356   0.457   7.118  0.5519 -1.0804  0.0865
  550MOL0     C74125   6.460   0.350   7.099 -0.0006  0.7903  0.5622
  550MOL0     C74126   6.500   0.282   7.225  0.1374 -0.1088  0.7137
  550MOL0     C74127   6.554   0.146   7.186  0.2294  0.3662 -0.3698
  550MOL0     C74128   6.599   0.061   7.308 -0.4276 -1.4312  0.1335
  550MOL0     C74129   6.480   0.019   7.392  0.7070 -0.7825  0.9012
  550MOL0     C74130   6.514  -0.026   7.529 -0.0082  0.5219 -0.8705
  550MOL0     C74131   6.618  -0.140   7.527  0.2986  0.4335  0.5175
  550MOL0     N74132   6.608  -0.232   7.636  0.0307  0.6370 -0.9530
  550MOL0     C74133   6.718  -0.286   7.704  0.2479  0.4072  0.0868
  550MOL0     C74134   6.672  -0.377   7.800  0.7646 -0.4659  0.0709
  550MOL0     C74135   6.736  -0.452   7.908  0.1261 -0.3725 -0.2647
  550MOL0     C74136   6.803  -0.357   8.016  0.2179 -0.5137  0.2440
  550MOL0     C74137   6.864  -0.434   8.131  0.2507 -0.9750 -0.3256
  550MOL0     C74138   6.960  -0.345   8.209 -0.0057 -0.2137  0.5945
  550MOL0     O74139   6.896  -0.243   8.277  0.4199  0.2450 -0.5984
  550MOL0     C74140   6.971  -0.159   8.348 -0.1056  0.4581  0.1915
  550MOL0     C74141   7.021  -0.038   8.302 -0.1115  0.1843  0.3988
  550MOL0     C74142   7.102   0.054   8.376  0.3446 -0.2546 -0.0595
  550MOL0     C74143   7.113   0.022   8.511 -1.2458 -0.2066  0.1665
  550MOL0     C74144   7.181   0.105   8.615  0.4809 -0.2648 -0.5968
  550MOL0     O74145   7.195   0.051   8.737  0.1065  1.2628 -0.3727
  550MOL0     C74146   7.269   0.112   8.833  0.6080 -0.9867 -0.2220
  550MOL0     C74147   7.211   0.196   8.928 -0.9643  0.0430 -0.4654
  550MOL0     C74148   7.284   0.257   9.036 -0.3727 -0.2690  0.2751
  550MOL0     C74149   7.417   0.219   9.042  0.3446 -0.6224  0.2223
  550MOL0     O74150   7.504   0.275   9.131  0.3652 -0.0177  0.0488
  550MOL0     C74151   7.537   0.411   9.112  0.9505 -0.1363  0.8557
  550MOL0     C74152   7.651   0.432   9.200  0.0593  0.0623 -0.1675
  550MOL0     C74153   7.705   0.565   9.175 -0.8451 -0.7417 -0.2892
  550MOL0     C74154   7.818   0.596   9.280  0.1672  0.5396 -0.0705
  550MOL0     C74155   7.873   0.738   9.250  0.3323 -0.6433 -0.6452
  550MOL0     C74156   7.767   0.847   9.301  0.2744  0.5176  0.0932
  550MOL0     C74157   7.824   0.994   9.281  0.8978  0.0570  0.2174
  550MOL0     C74158   7.836   1.023   9.133  0.3860 -0.7128 -0.8279
  550MOL0    Cl74159   7.863   1.189   9.109 -0.1717 -0.1578 -0.2798
  550MOL0     C74160   7.471   0.126   8.955  0.3609 -0.6353  0.7581
  550MOL0     C74161   7.400   0.069   8.848 -0.5517 -0.5378 -0.3687
  550MOL0     O74162   7.228   0.214   8.582 -0.3956  0.0106  0.1581
  550MOL0     C74163   7.056  -0.097   8.559 -0.1040 -0.2392  0.3518
  550MOL0     C74164   6.989  -0.189   8.481 -0.1418 -0.7511  0.8232
  550MOL0     N74165   6.541  -0.367   7.790  1.0378 -0.3732  1.1004
  550MOL0     N74166   6.499  -0.299   7.693  0.6149 -0.0857  0.1957
  550MOL0     C74167   6.186   0.622   7.282 -1.1191 -0.6752 -0.1198
  550MOL0     C74168   6.117   0.706   7.369  0.6474 -0.2195 -0.0624
  550MOL0     C74169   5.999   0.866   7.765 -0.3579  0.0734 -0.4646
  550MOL0     C74170   6.063   0.989   7.803  0.9051  0.2814  0.5680
  550MOL0     C74171   6.046   1.064   7.924  0.1421  0.4493  0.9332
  550MOL0     C74172   5.942   1.011   8.005  0.1027  0.1337 -0.4082
  550MOL0     O74173   5.889   1.073   8.114  0.2798 -0.0595  0.0533
  550MOL0     C74174   5.948   1.189   8.172  0.7342 -0.2600 -0.6550
  550MOL0     C74175   5.877   1.246   8.298  0.1137  0.7924  0.0321
  550MOL0     C74176   5.879   1.154   8.421 -0.3045 -0.7215  0.2849
  550MOL0     C74177   5.842   1.011   8.393  0.4726 -0.1890  0.3044
  550MOL0     C74178   5.815   0.927   8.511  0.3076 -0.0631 -0.1049
  550MOL0     C74179   5.790   0.847   8.598  0.1201 -0.5077 -0.7285
  550MOL0     C74180   5.866   0.895   7.965 -0.1596  0.2201  0.8933
  550MOL0     C74181   5.900   0.816   7.848  0.2619  1.0708 -1.3401
  550MOL0     C74182   5.817   0.686   7.834  0.4663 -0.3483  0.0800
  550MOL0     H74183   6.358   0.872   7.531  0.8221  0.2494  0.3978
  550MOL0     H74184   6.499   0.706   7.407  0.2255  1.0617 -0.9444
  550MOL0     H74185   6.265   0.405   7.149  0.9856 -0.9129  1.7072
  550MOL0     H74186   6.328   0.511   7.027  2.3604  0.7631  0.5636
  550MOL0     H74187   6.546   0.385   7.040 -0.5687 -1.7450 -1.9686
  550MOL0     H74188   6.406   0.272   7.045 -5.4332  3.7624  1.0237
  550MOL0     H74189   6.409   0.270   7.284 -1.4274 -0.1502 -1.6066
  550MOL0     H74190   6.576   0.346   7.271  1.3497 -0.8612 -0.1851
  550MOL0     H74191   6.467   0.086   7.158 -3.1382  3.0404  3.2654
  550MOL0     H74192   6.631   0.156   7.109  0.7894  1.9078  0.3609
  550MOL0     H74193   6.650  -0.026   7.264 -0.7966 -0.5846 -2.0979
  550MOL0     H74194   6.665   0.120   7.371  0.4914  0.2751 -2.2501
  550MOL0     H74195   6.401   0.094   7.405 -0.9922 -2.4887  0.8403
  550MOL0     H74196   6.433  -0.071   7.351 -0.9878 -0.8269  2.8066
  550MOL0     H74197   6.437  -0.055   7.601  2.2973  0.1069  1.5816
  550MOL0     H74198   6.552   0.063   7.579 -0.1499 -0.1740  0.5370
  550MOL0     H74199   6.610  -0.209   7.443 -0.1454  0.5166  0.4947
  550MOL0     H74200   6.717  -0.092   7.526  1.6257 -1.9543 -3.1287
  550MOL0     H74201   6.823  -0.264   7.686  1.0138 -2.4869  0.5974
  550MOL0     H74202   6.662  -0.517   7.956  1.1375 -0.8737  0.6743
  550MOL0     H74203   6.808  -0.517   7.858 -0.7354  0.4337 -2.6633
  550MOL0     H74204   6.881  -0.300   7.964 -0.3715 -1.7987 -2.2274
  550MOL0     H74205   6.725  -0.293   8.057 -0.2781 -1.0359  0.1295
  550MOL0     H74206   6.931  -0.516   8.103 -0.0423 -1.5428  0.6387
  550MOL0     H74207   6.780  -0.458   8.196 -0.0538  0.7176 -0.0366
  550MOL0     H74208   7.041  -0.303   8.149  2.1340 -1.6318  2.3615
  550MOL0     H74209   7.011  -0.406   8.284 -1.0264 -1.7829  0.0683
  550MOL0     H74210   7.010  -0.016   8.197  1.3932  0.4679  0.2853
  550MOL0     H74211   7.156   0.129   8.318  0.1570  1.1503  1.5285
  550MOL0     H74212   7.104   0.209   8.914 -0.8656  0.2669 -1.0440
  550MOL0     H74213   7.235   0.319   9.112 -0.2969  0.4461 -0.2493
  550MOL0     H74214   7.560   0.441   9.009 -0.2126 -0.9131  0.3422
  550MOL0     H74215   7.451   0.476   9.132  1.8532  0.2690  3.8382
  550MOL0     H74216   7.627   0.427   9.307 -0.8143  2.6700 -0.1791
  550MOL0     H74217   7.724   0.352   9.179  0.6429  0.5762 -0.1358
  550MOL0     H74218   7.755   0.565   9.078  1.8042 -1.4376  0.9691
  550MOL0     H74219   7.626   0.641   9.173 -0.0974  0.0465 -0.9472
  550MOL0     H74220   7.897   0.522   9.264 -0.6545 -0.1545 -1.0818
  550MOL0     H74221   7.783   0.583   9.383  0.8011  1.3265  0.2526
  550MOL0     H74222   7.892   0.752   9.143  2.3959 -1.1126 -0.3813
  550MOL0     H74223   7.964   0.759   9.307 -0.3037 -0.8461  0.4652
  550MOL0     H74224   7.681   0.841   9.233 -0.0026  2.5742  0.2114
  550MOL0     H74225   7.740   0.828   9.405  1.7220 -0.6797  0.2760
  550MOL0     H74226   7.919   0.994   9.336  2.8545  3.4492 -2.7573
  550MOL0     H74227   7.747   1.062   9.318  0.4951 -0.8332  1.0694
  550MOL0     H74228   7.926   0.982   9.086  0.0318 -0.6129 -1.6057
  550MOL0     H74229   7.746   0.993   9.079 -1.8278  2.8166  0.5956
  550MOL0     H74230   7.574   0.095   8.969  1.4593  0.4607 -3.5294
  550MOL0     H74231   7.455   0.007   8.778  1.0138  1.4489 -0.9741
  550MOL0     H74232   7.089  -0.136   8.655  1.1269  1.1433  0.5393
  550MOL0     H74233   6.975  -0.286   8.529  2.3655 -3.0067 -2.4857
  550MOL0     H74234   6.126   0.555   7.220 -3.5954  0.9661  0.3760
  550MOL0     H74235   6.011   0.706   7.350  0.1020 -3.1459  2.3217
  550MOL0     H74236   6.142   1.025   7.737 -0.6457 -1.0998 -2.2044
  550MOL0     H74237   6.096   1.158   7.944 -2.3869  1.7841  1.3463
  550MOL0     H74238   5.940   1.275   8.104 -0.0312  0.8188  0.7587
  550MOL0     H74239   6.040   1.156   8.220  0.0014  0.0328  1.0369
  550MOL0     H74240   5.774   1.275   8.276 -0.8302 -2.9973 -1.3235
  550MOL0     H74241   5.936   1.333   8.326 -0.0488  1.2455 -0.9923
  550MOL0     H74242   5.803   1.198   8.485 -0.3110  2.1186 -1.4976
  550MOL0     H74243   5.973   1.161   8.477 -1.7006 -1.3182  2.8553
  550MOL0     H74244   5.748   1.010   8.337  1.4702  0.3809 -1.4571
  550MOL0     H74245   5.915   0.960   8.329  0.0295  0.1492 -0.4827
  550MOL0     H74246   5.755   0.771   8.665  0.5309  0.7700  0.9870
  550MOL0     H74247   5.778   0.864   8.020 -3.9684 -0.1616 -4.5333
  550MOL0     H74248   5.850   0.623   7.750  5.3817 -0.0567  1.5001
  550MOL0     H74249   5.833   0.636   7.930 -2.3600  0.1705  0.9089
  550MOL0     H74250   5.715   0.719   7.813  0.5111 -0.4947 -0.3938
  551MOL0     O74251   5.368   5.044   9.298  0.2929  0.4228 -0.2327
  551MOL0     C74252   5.321   5.113   9.390  0.5093  0.2265 -0.1393
  551MOL0     O74253   5.318   5.079   9.521 -0.9422 -0.1974 -0.6435
  551MOL0     C74254   5.346   4.953   9.559 -0.7892  0.1615  0.6508
  551MOL0     C74255   5.450   4.922   9.653  0.8510 -0.9797  0.6602
  551MOL0     C74256   5.481   4.793   9.709  0.1625  0.3126 -0.6989
  551MOL0     C74257   5.411   4.676   9.673  0.3144  1.0070 -0.0951
  551MOL0     O74258   5.448   4.547   9.719  0.5400  0.0749  0.5051
  551MOL0     C74259   5.334   4.472   9.748 -0.8682 -0.3550 -0.3451
  551MOL0     C74260   5.350   4.396   9.875 -0.2466 -0.1607  0.0328
  551MOL0     C74261   5.223   4.303   9.899 -1.2001  0.1630  0.4955
  551MOL0     C74262   5.254   4.229  10.023 -0.2590  0.7394  0.7754
  551MOL0     C74263   5.125   4.182  10.084  0.3128 -0.1128  0.3199
  551MOL0     C74264   5.151   4.078  10.194 -0.9331  0.0886  0.6534
  551MOL0     C74265   5.024   4.005  10.226 -0.4409 -0.0054 -1.0715
  551MOL0     C74266   4.996   3.885  10.135  0.2793 -0.2336 -0.7956
  551MOL0     N74267   5.067   3.767  10.169 -0.1514  0.5896 -0.0828
  551MOL0     C74268   5.184   3.720  10.104 -0.6686 -0.3453  0.1796
  551MOL0     C74269   5.193   3.589  10.131  0.0950 -1.3527  0.3558
  551MOL0     C74270   5.286   3.487  10.081 -0.4680  0.1717 -0.4016
  551MOL0     C74271   5.226   3.398   9.970  0.8010 -0.2629 -0.5613
  551MOL0     C74272   5.184   3.486   9.851  0.5494  0.9777 -0.0521
  551MOL0     C74273   5.299   3.517   9.756 -0.3975 -0.8080 -0.2906
  551MOL0     O74274   5.380   3.624   9.799  0.4765  0.0808 -0.2821
  551MOL0     C74275   5.456   3.690   9.709  0.0578  0.4908  0.5849
  551MOL0     C74276   5.445   3.696   9.569  0.2433  0.3734  0.1716
  551MOL0     C74277   5.543   3.766   9.492 -0.3915 -0.2020 -1.1638
  551MOL0     C74278   5.654   3.822   9.552  0.5672  0.5744 -1.5571
  551MOL0     C74279   5.752   3.904   9.480 -0.5458  1.4181  0.3604
  551MOL0     O74280   5.850   3.961   9.552  0.1357 -0.5342 -1.0451
  551MOL0     C74281   5.946   4.044   9.497  0.0601 -0.1245 -0.5378
  551MOL0     C74282   5.941   4.114   9.374 -0.2190 -0.2194 -1.0050
  551MOL0     C74283   6.062   4.166   9.328  0.4391  0.6757  0.7789
  551MOL0     C74284   6.182   4.153   9.386  0.4984 -0.2357  0.5660
  551MOL0     O74285   6.288   4.225   9.341 -0.0570  0.7419 -0.3226
  551MOL0     C74286   6.333   4.338   9.417  0.5347  1.2836 -0.4499
  551MOL0     C74287   6.272   4.465   9.356 -0.0253 -0.2113  0.1084
  551MOL0     C74288   6.366   4.578   9.382  0.1509  0.4090  0.8074
  551MOL0     C74289   6.317   4.709   9.332  0.2686 -0.7489 -0.6521
  551MOL0     C74290   6.411   4.832   9.371  0.9183  0.3114 -0.3233
  551MOL0     C74291   6.344   4.967   9.338 -0.3049  0.4592 -0.3886
  551MOL0     C74292   6.417   5.080   9.406  0.1441 -0.1607 -0.4329
  551MOL0     C74293   6.415   5.220   9.342  0.7766  0.8933 -0.2921
  551MOL0    Cl74294   6.507   5.343   9.437 -0.1534  0.1994 -0.2496
  551MOL0     C74295   6.186   4.101   9.521  0.0952 -0.8827  0.6097
  551MOL0     C74296   6.065   4.047   9.573 -0.7817 -0.5434  0.5207
  551MOL0     O74297   5.741   3.904   9.360  0.4905  0.1193 -0.0785
  551MOL0     C74298   5.655   3.830   9.698  0.1271 -0.5731  0.4574
  551MOL0     C74299   5.565   3.759   9.769 -0.7470  1.1805  1.2884
  551MOL0     N74300   5.077   3.554  10.197  0.8562  0.4052 -0.1460
  551MOL0     N74301   5.003   3.657  10.229 -0.5082 -0.7979  0.5072
  551MOL0     C74302   5.300   4.706   9.586  0.6605  0.8771 -0.1882
  551MOL0     C74303   5.270   4.836   9.529 -0.1515 -0.3821  0.0108
  551MOL0     C74304   5.264   5.249   9.359 -0.2343 -1.2103  0.3812
  551MOL0     C74305   5.199   5.319   9.471  0.3252  0.3194 -0.2094
  551MOL0     C74306   5.147   5.448   9.455  0.5969  0.2607 -0.2639
  551MOL0     C74307   5.149   5.524   9.331 -0.7431 -0.3350 -0.9883
  551MOL0     O74308   5.096   5.639   9.308  0.2002  0.2835  0.2016
  551MOL0     C74309   5.005   5.692   9.403  1.0235  0.0617 -0.6867
  551MOL0     C74310   4.945   5.825   9.360 -0.4567 -0.4482 -0.4993
  551MOL0     C74311   4.875   5.807   9.222 -0.5554  0.2637 -0.2659
  551MOL0     C74312   4.783   5.933   9.198 -0.6019  0.5114  0.8434
  551MOL0     C74313   4.669   5.914   9.286 -0.1421  0.3008 -0.8483
  551MOL0     C74314   4.579   5.886   9.368  0.5223  0.6333  0.2063
  551MOL0     C74315   5.213   5.460   9.230  1.6319  1.1206 -0.1915
  551MOL0     C74316   5.261   5.318   9.233  0.2744 -0.5200 -0.6394
  551MOL0     C74317   5.270   5.250   9.112 -0.1301 -0.1619  0.4618
  551MOL0     H74318   5.518   4.994   9.698  3.0676 -2.9338  0.6422
  551MOL0     H74319   5.567   4.772   9.772  1.0640  0.8449 -1.7374
  551MOL0     H74320   5.238   4.524   9.756 -1.3490 -1.0383 -1.3488
  551MOL0     H74321   5.318   4.392   9.675  0.2828  0.3393 -1.3911
  551MOL0     H74322   5.360   4.474   9.951  0.7125 -1.9134  1.8026
  551MOL0     H74323   5.432   4.323   9.876  0.7743  0.9409  0.2486
  551MOL0     H74324   5.194   4.242   9.813 -1.0326 -1.4028  1.5214
  551MOL0     H74325   5.139   4.373   9.909 -0.0340  1.7565 -0.2800
  551MOL0     H74326   5.333   4.155  10.006  1.8482  3.2623 -1.0956
  551MOL0     H74327   5.281   4.303  10.098 -1.1687  3.5657 -1.4988
  551MOL0     H74328   5.080   4.266  10.137 -0.1684 -0.8469  1.1078
  551MOL0     H74329   5.060   4.153  10.002  2.7811 -0.2848 -1.7126
  551MOL0     H74330   5.216   3.999  10.156 -2.4775 -2.1256  2.3509
  551MOL0     H74331   5.191   4.121  10.286 -0.3503  0.3701  0.2737
  551MOL0     H74332   4.942   4.075  10.212 -0.8608  0.4784  2.8639
  551MOL0     H74333   5.023   3.957  10.324 -1.1512 -1.3916 -1.7230
  551MOL0     H74334   4.887   3.881  10.149  0.5083  0.0107  1.4090
  551MOL0     H74335   5.029   3.914  10.035  1.5574  0.6896 -0.1341
  551MOL0     H74336   5.265   3.760  10.044 -0.7418  0.2328  0.4637
  551MOL0     H74337   5.370   3.551  10.051 -0.5941  1.5694  1.9907
  551MOL0     H74338   5.312   3.415  10.160 -1.4973 -2.4384 -2.2878
  551MOL0     H74339   5.304   3.325   9.944  0.2982 -1.4660  1.1037
  551MOL0     H74340   5.144   3.335  10.006  0.7665 -0.3877 -0.8578
  551MOL0     H74341   5.120   3.570   9.881 -0.4355 -0.0652  0.8474
  551MOL0     H74342   5.131   3.408   9.795  1.9983 -1.7733  2.1533
  551MOL0     H74343   5.265   3.546   9.656  3.2084 -1.5721 -1.8912
  551MOL0     H74344   5.356   3.427   9.734 -2.2401 -1.8832 -0.8952
  551MOL0     H74345   5.360   3.653   9.516  0.1278  0.1441  0.5427
  551MOL0     H74346   5.527   3.767   9.384 -0.9213 -2.9961 -1.1975
  551MOL0     H74347   5.848   4.134   9.321 -1.3425  0.9409  1.2282
  551MOL0     H74348   6.068   4.229   9.239 -0.2290 -1.2100 -0.6557
  551MOL0     H74349   6.295   4.334   9.520  0.9960  1.3476 -0.2742
  551MOL0     H74350   6.442   4.338   9.430  0.3665 -1.8179  2.1425
  551MOL0     H74351   6.268   4.461   9.246 -1.8402 -0.1021  0.1441
  551MOL0     H74352   6.170   4.484   9.390 -0.3570  1.4234 -1.6105
  551MOL0     H74353   6.382   4.567   9.489 -3.3826  0.9358  1.5081
  551MOL0     H74354   6.456   4.548   9.327 -0.7683 -2.3953  0.6470
  551MOL0     H74355   6.222   4.721   9.385 -0.7417 -1.0444 -2.3435
  551MOL0     H74356   6.295   4.706   9.225  0.4440  1.1467 -0.7845
  551MOL0     H74357   6.503   4.825   9.312 -1.2727 -0.1928 -3.9644
  551MOL0     H74358   6.422   4.812   9.478 -1.8969 -2.3111 -0.3709
  551MOL0     H74359   6.345   4.984   9.229 -1.8538 -1.2837 -0.7254
  551MOL0     H74360   6.239   4.965   9.368 -0.1654  2.3864  0.3803
  551MOL0     H74361   6.524   5.058   9.421 -0.1765 -1.6448 -0.0619
  551MOL0     H74362   6.376   5.098   9.506  1.1524 -0.3663  0.0416
  551MOL0     H74363   6.450   5.222   9.239  0.4162  0.4426 -0.4284
  551MOL0     H74364   6.309   5.245   9.350  0.3549 -0.9425  0.4135
  551MOL0     H74365   6.279   4.095   9.577 -0.3922 -2.9625  1.2940
  551MOL0     H74366   6.070   4.002   9.672  1.2738 -0.5462  0.4770
  551MOL0     H74367   5.737   3.877   9.750  1.4214 -3.1938  0.9688
  551MOL0     H74368   5.583   3.755   9.876  1.1093 -0.7876  0.9870
  551MOL0     H74369   5.242   4.619   9.556  4.5019 -1.9097 -0.2548
  551MOL0     H74370   5.180   4.843   9.469  0.1683  2.1758 -0.2790
  551MOL0     H74371   5.170   5.278   9.567 -8.2875  2.0325 -1.2162
  551MOL0     H74372   5.095   5.495   9.539  1.7248  4.2695 -1.5861
  551MOL0     H74373   5.067   5.711   9.491 -0.6961  0.3843  0.5048
  551MOL0     H74374   4.925   5.619   9.419 -0.1522  0.1618 -4.9429
  551MOL0     H74375   5.017   5.907   9.352 -2.0862  0.8967 -2.7852
  551MOL0     H74376   4.868   5.853   9.433  0.6790 -0.3026  0.6842
  551MOL0     H74377   4.831   5.708   9.210  1.5574 -0.8055  0.2517
  551MOL0     H74378   4.942   5.808   9.136  1.4759 -3.0191  1.0726
  551MOL0     H74379   4.837   6.028   9.209 -0.0705  0.2756  0.3527
  551MOL0     H74380   4.752   5.938   9.093  1.3347  0.5234  0.2270
  551MOL0     H74381   4.514   5.862   9.450  1.3530  0.1437  0.7461
  551MOL0     H74382   5.203   5.515   9.136  1.7270  0.3836 -0.6417
  551MOL0     H74383   5.374   5.235   9.082 -0.4544 -0.0535 -0.7628
  551MOL0     H74384   5.230   5.149   9.108 -1.1537  0.2261 -3.8195
  551MOL0     H74385   5.216   5.299   9.030  0.4605  0.5706  0.4954
  552MOL0     O74386   6.231   5.242   3.079 -0.5358 -0.3124  0.6645
  552MOL0     C74387   6.184   5.327   3.151  1.0677 -0.6466 -0.2448
  552MOL0     O74388   6.111   5.440   3.105  0.2669  0.2361  0.7690
  552MOL0     C74389   6.104   5.482   2.975 -0.6028  0.0781  0.9153
  552MOL0     C74390   6.068   5.616   2.978  0.3576  0.2721  0.5528
  552MOL0     C74391   6.072   5.691   2.857 -0.2842  0.6524  0.6607
  552MOL0     C74392   6.099   5.629   2.729 -0.0699 -0.1856 -0.0107
  552MOL0     O74393   6.109   5.710   2.621 -0.8278 -0.8659 -0.2926
  552MOL0     C74394   6.144   5.665   2.490 -1.4451 -0.1106  0.1107
  552MOL0     C74395   6.298   5.698   2.456  0.9901  0.2612  0.8895
  552MOL0     C74396   6.399   5.625   2.540 -0.0609  0.5001 -0.3378
  552MOL0     C74397   6.536   5.634   2.464 -0.2762  0.0025 -0.6768
  552MOL0     C74398   6.656   5.611   2.549  0.7774 -0.9738  0.1895
  552MOL0     C74399   6.661   5.473   2.599 -0.1082 -1.0106 -0.2768
  552MOL0     C74400   6.782   5.463   2.689 -0.6001  0.6288 -0.2622
  552MOL0     C74401   6.793   5.321   2.745 -0.7936 -0.0712  0.2251
  552MOL0     N74402   6.895   5.308   2.840  0.1657 -0.2458  0.0596
  552MOL0     C74403   6.945   5.414   2.919  0.5181  0.3480 -0.2820
  552MOL0     C74404   7.049   5.355   2.975 -0.5654 -0.6953 -0.0025
  552MOL0     C74405   7.142   5.440   3.074 -0.1338 -0.2140  0.2522
  552MOL0     C74406   7.213   5.567   3.016  0.5832  0.6098  0.5702
  552MOL0     C74407   7.172   5.690   3.094  0.5329 -1.0225 -0.2937
  552MOL0     C74408   7.208   5.819   3.020 -0.1703  0.0493  0.2263
  552MOL0     O74409   7.089   5.878   2.974 -0.0224  0.1896 -0.8006
  552MOL0     C74410   7.073   5.889   2.838 -0.6374  0.6666  0.2463
  552MOL0     C74411   7.156   5.974   2.750 -0.2726 -0.1463  0.2558
  552MOL0     C74412   7.149   5.976   2.617 -0.1912 -0.3006 -0.3037
  552MOL0     C74413   7.052   5.894   2.555 -0.1049  0.1975  0.6379
  552MOL0     C74414   7.036   5.907   2.407  0.7282  0.4668  0.1417
  552MOL0     O74415   7.136   5.974   2.345  0.4664 -0.1574  0.1354
  552MOL0     C74416   7.115   6.029   2.225 -1.1231  0.5302  0.8028
  552MOL0     C74417   7.198   6.131   2.190  1.1512  0.0380 -0.4211
  552MOL0     C74418   7.196   6.181   2.060 -0.7914  0.0808  0.2715
  552MOL0     C74419   7.121   6.117   1.955 -0.1560 -0.3673  0.8188
  552MOL0     O74420   7.118   6.157   1.825  0.8360  0.1530  0.2144
  552MOL0     C74421   6.991   6.221   1.796 -0.5332  0.1340  0.1691
  552MOL0     C74422   6.946   6.162   1.663  0.3664 -1.1808  0.0952
  552MOL0     C74423   6.901   6.017   1.665 -0.4884 -0.2957  0.2471
  552MOL0     C74424   6.871   5.948   1.527  0.5024 -0.4912  0.0897
  552MOL0     C74425   6.873   5.802   1.526  0.1164  0.9888  0.2094
  552MOL0     C74426   6.850   5.762   1.379 -0.2418 -0.1112  0.1760
  552MOL0     C74427   6.733   5.663   1.367  0.6691 -0.0514 -0.0883
  552MOL0     C74428   6.674   5.666   1.226  0.5139 -0.3004  0.2733
  552MOL0    Cl74429   6.574   5.805   1.204  0.2845  0.0910 -0.0276
  552MOL0     C74430   7.043   6.004   1.988  0.8553  0.2973 -0.7099
  552MOL0     C74431   7.038   5.965   2.120  0.4732 -0.2083  0.8343
  552MOL0     O74432   6.927   5.871   2.357  0.0394 -0.0658  0.2590
  552MOL0     C74433   6.968   5.815   2.627 -0.3998  0.3095 -0.0211
  552MOL0     C74434   6.982   5.809   2.772  0.3454  1.0701  0.2464
  552MOL0     N74435   7.072   5.237   2.933  0.7815 -1.4174 -0.3487
  552MOL0     N74436   6.978   5.200   2.863  0.7240  0.2804  0.1046
  552MOL0     C74437   6.117   5.488   2.731  0.5944  0.8151  0.1940
  552MOL0     C74438   6.125   5.420   2.859  0.0153 -0.4942  0.8185
  552MOL0     C74439   6.216   5.329   3.306 -0.0708 -0.2786  0.2159
  552MOL0     C74440   6.115   5.378   3.388 -0.2727  0.2330  0.1179
  552MOL0     C74441   6.124   5.370   3.523  0.4221  0.0484  0.3035
  552MOL0     C74442   6.246   5.325   3.585 -0.1988 -1.0720 -1.0066
  552MOL0     O74443   6.261   5.323   3.727 -0.2221  0.6583  0.0962
  552MOL0     C74444   6.155   5.379   3.815 -0.6089  0.1286  0.0668
  552MOL0     C74445   6.207   5.503   3.894  0.6979  0.9724 -0.0928
  552MOL0     C74446   6.089   5.557   3.982  0.0920 -0.1740 -0.3164
  552MOL0     C74447   6.125   5.686   4.055  0.4540  0.8021 -0.4587
  552MOL0     C74448   6.046   5.810   4.049  0.5092  1.5668 -0.7597
  552MOL0     C74449   5.968   5.901   4.046  0.6143 -0.8135  0.3229
  552MOL0     C74450   6.345   5.275   3.499 -0.4449 -1.0355  0.2558
  552MOL0     C74451   6.334   5.278   3.360 -0.2596  0.1980  0.1845
  552MOL0     C74452   6.453   5.227   3.286 -0.6892 -0.0169  0.3755
  552MOL0     H74453   6.028   5.655   3.071 -1.7738 -1.1259  0.2954
  552MOL0     H74454   6.050   5.797   2.870 -1.1441  0.4490  0.8963
  552MOL0     H74455   6.113   5.564   2.465 -2.3959  0.5212 -1.4383
  552MOL0     H74456   6.086   5.722   2.417  1.8743 -1.2160 -3.7874
  552MOL0     H74457   6.304   5.805   2.478  1.5029  0.5852 -0.6279
  552MOL0     H74458   6.313   5.666   2.352  2.0237 -0.9503  1.3899
  552MOL0     H74459   6.366   5.522   2.551 -4.6081  1.9154  1.7669
  552MOL0     H74460   6.395   5.675   2.637 -1.4383 -1.6433  0.7650
  552MOL0     H74461   6.523   5.567   2.378  2.8851 -0.9851 -0.5065
  552MOL0     H74462   6.539   5.740   2.436 -0.9439  0.4269  0.7422
  552MOL0     H74463   6.737   5.635   2.480 -0.3864 -0.3038 -0.9942
  552MOL0     H74464   6.652   5.683   2.631  0.8276 -1.9913  1.1071
  552MOL0     H74465   6.575   5.457   2.664  1.1357  1.9549  2.3780
  552MOL0     H74466   6.663   5.404   2.514  1.0936 -0.6863 -0.5401
  552MOL0     H74467   6.780   5.529   2.776  0.5117 -1.5535  1.5100
  552MOL0     H74468   6.873   5.485   2.633 -1.9478  3.7618 -1.4783
  552MOL0     H74469   6.699   5.294   2.794 -0.5579 -0.1343  0.6532
  552MOL0     H74470   6.817   5.254   2.662  1.1623 -1.9883  2.2089
  552MOL0     H74471   6.929   5.521   2.930 -3.7940 -0.2364  0.9260
  552MOL0     H74472   7.095   5.470   3.169  4.3387  1.0276  2.3377
  552MOL0     H74473   7.205   5.361   3.115 -1.6160 -0.0144  3.1738
  552MOL0     H74474   7.321   5.556   3.029  0.4086  1.2517  3.1366
  552MOL0     H74475   7.201   5.572   2.908  4.5306  0.8359  0.0035
  552MOL0     H74476   7.225   5.687   3.189 -1.2901  0.6831  0.8771
  552MOL0     H74477   7.068   5.681   3.126  0.6620  2.2301  1.4747
  552MOL0     H74478   7.274   5.792   2.937 -3.0640  1.5274 -2.7971
  552MOL0     H74479   7.247   5.886   3.098 -2.0346  1.9024 -0.3537
  552MOL0     H74480   7.231   6.031   2.803  0.2722  1.3377 -2.0011
  552MOL0     H74481   7.213   6.040   2.557  1.7840 -2.1980 -0.3465
  552MOL0     H74482   7.264   6.176   2.265  1.4584  1.6449 -1.6000
  552MOL0     H74483   7.255   6.267   2.030  0.1230 -0.1990  1.2030
  552MOL0     H74484   6.912   6.207   1.870 -0.6031 -0.4634 -0.0089
  552MOL0     H74485   7.023   6.323   1.776  1.7805 -0.1195  2.1515
  552MOL0     H74486   6.859   6.219   1.628  0.8772 -0.3475  0.1653
  552MOL0     H74487   7.026   6.185   1.592  1.2165 -0.5159  1.2567
  552MOL0     H74488   6.971   5.950   1.715  0.7938  0.2010 -0.8228
  552MOL0     H74489   6.810   6.009   1.724 -0.3496 -0.7110  0.4094
  552MOL0     H74490   6.944   5.981   1.452  0.1007 -0.4794 -0.2971
  552MOL0     H74491   6.780   5.997   1.491  0.1088  0.9107  2.7589
  552MOL0     H74492   6.810   5.762   1.605  1.2949 -0.0720  0.6486
  552MOL0     H74493   6.972   5.757   1.539  1.4018  3.3861 -0.5464
  552MOL0     H74494   6.832   5.849   1.316 -2.5067  0.9389  2.1189
  552MOL0     H74495   6.932   5.704   1.336  0.4616 -0.3256  1.7368
  552MOL0     H74496   6.653   5.697   1.433  2.7705  0.9251  2.0967
  552MOL0     H74497   6.760   5.561   1.397 -1.0907 -0.9846 -1.5172
  552MOL0     H74498   6.742   5.673   1.141 -0.0124  0.7294 -0.0834
  552MOL0     H74499   6.607   5.581   1.208  1.0564 -0.8857  0.9271
  552MOL0     H74500   6.983   5.964   1.907  1.8281  0.2768 -1.4384
  552MOL0     H74501   6.976   5.876   2.127 -1.3573  0.5454 -2.9160
  552MOL0     H74502   6.901   5.748   2.574  0.2479  0.7155 -1.3977
  552MOL0     H74503   6.922   5.747   2.837  3.1161 -2.1757  0.0209
  552MOL0     H74504   6.108   5.416   2.650 -3.5529 -0.5498  1.5900
  552MOL0     H74505   6.129   5.311   2.857  2.5797 -0.5258  2.6589
  552MOL0     H74506   6.021   5.408   3.342 -0.0947 -1.7347 -1.6628
  552MOL0     H74507   6.033   5.409   3.567  0.0804  0.8859 -1.0927
  552MOL0     H74508   6.112   5.298   3.875 -1.9366 -1.2345 -2.5518
  552MOL0     H74509   6.065   5.417   3.764 -2.5902  0.6258  3.6134
  552MOL0     H74510   6.245   5.581   3.827  1.6325  0.6956  0.1023
  552MOL0     H74511   6.293   5.474   3.954  1.6447  1.3797 -1.2162
  552MOL0     H74512   6.043   5.489   4.054 -2.4345  1.9484  0.2553
  552MOL0     H74513   6.006   5.585   3.915 -0.2827  1.5580  0.8228
  552MOL0     H74514   6.152   5.658   4.157  0.1422  1.6182 -0.1452
  552MOL0     H74515   6.223   5.727   4.025  0.5070  4.5801  3.7856
  552MOL0     H74516   5.896   5.980   4.051  2.7068  1.1474  1.5633
  552MOL0     H74517   6.437   5.240   3.545  0.3103  1.0889  0.4558
  552MOL0     H74518   6.541   5.198   3.344 -0.9559  0.5418  1.0700
  552MOL0     H74519   6.411   5.145   3.227 -1.3693  1.8181 -1.8384
  552MOL0     H74520   6.495   5.307   3.225 -0.0605  0.8129  1.8459
  553MOL0     O74521   5.095   9.425   2.934  0.1424 -0.4736 -0.7045
  553MOL0     C74522   5.023   9.327   2.908  0.0421 -0.1390 -0.3741
  553MOL0     O74523   4.884   9.336   2.885 -0.0497  0.2072 -0.3207
  553MOL0     C74524   4.817   9.445   2.935 -0.1058 -0.3037  0.0834
  553MOL0     C74525   4.745   9.525   2.843  0.3823 -0.2522  0.5015
  553MOL0     C74526   4.668   9.631   2.887 -0.1012  0.5474  0.9793
  553MOL0     C74527   4.667   9.671   3.018  0.7041 -0.3874 -1.1529
  553MOL0     O74528   4.600   9.783   3.064 -0.0403  0.6127 -0.0099
  553MOL0     C74529   4.583   9.899   2.993  0.4169 -0.1768  0.8791
  553MOL0     C74530   4.671  10.008   3.044  0.5036 -0.1337 -0.5426
  553MOL0     C74531   4.827   9.997   3.037  0.3483  0.0864 -0.5910
  553MOL0     C74532   4.899  10.032   3.165 -1.3727  0.6210  1.2100
  553MOL0     C74533   5.046   9.998   3.155 -0.2873 -0.4613  0.6097
  553MOL0     C74534   5.071   9.846   3.173 -0.3564 -0.2278 -0.2389
  553MOL0     C74535   5.217   9.805   3.153 -0.5552  0.3696 -0.2816
  553MOL0     C74536   5.233   9.656   3.182  0.0820 -0.2818  0.6681
  553MOL0     N74537   5.358   9.612   3.125 -0.4439 -0.1714  0.2811
  553MOL0     C74538   5.463   9.560   3.196 -0.8686 -0.1779 -0.3045
  553MOL0     C74539   5.556   9.533   3.109 -0.9165  0.2791  0.4043
  553MOL0     C74540   5.697   9.495   3.127  0.0152  1.3156  0.0955
  553MOL0     C74541   5.698   9.334   3.155 -0.9218 -0.4882 -0.0611
  553MOL0     C74542   5.647   9.309   3.294 -0.6966 -0.7222 -0.8529
  553MOL0     C74543   5.673   9.165   3.342  0.2052  0.4647  0.0101
  553MOL0     O74544   5.809   9.145   3.362  0.5157 -0.1286  0.6136
  553MOL0     C74545   5.848   9.015   3.397  0.8306 -0.6987  1.1159
  553MOL0     C74546   5.879   8.924   3.294 -0.0226  0.5752  0.5960
  553MOL0     C74547   5.914   8.799   3.336  0.4247  0.3162  1.1345
  553MOL0     C74548   5.927   8.753   3.472 -0.0872 -0.9002 -1.0764
  553MOL0     C74549   5.942   8.608   3.498  0.3449  0.1506 -0.3427
  553MOL0     O74550   5.968   8.529   3.388 -0.3083  0.3528 -0.4375
  553MOL0     C74551   6.063   8.434   3.406  0.6695 -1.4380 -0.6530
  553MOL0     C74552   6.027   8.317   3.466  1.0848  1.1427  0.2958
  553MOL0     C74553   6.115   8.206   3.466 -0.3081  0.6225 -1.3940
  553MOL0     C74554   6.247   8.219   3.400  0.0666  1.2875 -0.1929
  553MOL0     O74555   6.339   8.118   3.400  0.2024  0.6779 -0.1183
  553MOL0     C74556   6.331   8.034   3.512 -0.5245 -0.2164  0.3490
  553MOL0     C74557   6.471   7.964   3.519 -1.1154 -0.0706  0.1184
  553MOL0     C74558   6.498   7.895   3.660 -0.3399 -1.1591 -0.2428
  553MOL0     C74559   6.624   7.814   3.686  0.0170 -0.2883 -1.0322
  553MOL0     C74560   6.603   7.720   3.809 -0.1934  0.2278 -0.7859
  553MOL0     C74561   6.740   7.665   3.848 -0.5197  0.8185 -0.4383
  553MOL0     C74562   6.725   7.547   3.948  0.3095  0.0757  0.3533
  553MOL0     C74563   6.851   7.480   3.962 -0.6896  0.6590 -0.2727
  553MOL0    Cl74564   6.912   7.382   3.820 -0.2256  0.0390 -0.1767
  553MOL0     C74565   6.278   8.344   3.347 -0.5138  0.2042 -0.6873
  553MOL0     C74566   6.188   8.445   3.359 -1.1201  0.2638  0.3092
  553MOL0     O74567   5.927   8.562   3.610 -0.6804 -1.0427  0.2006
  553MOL0     C74568   5.894   8.843   3.568 -0.0307 -0.6341 -0.4142
  553MOL0     C74569   5.839   8.970   3.527 -0.1268 -0.3783  0.0737
  553MOL0     N74570   5.509   9.579   2.986  0.5677 -0.5574 -0.3549
  553MOL0     N74571   5.393   9.629   2.997  0.1860  0.1196 -0.9835
  553MOL0     C74572   4.742   9.598   3.107 -0.5949 -0.1408 -0.5465
  553MOL0     C74573   4.811   9.489   3.066  0.3312 -0.4961  0.4527
  553MOL0     C74574   5.096   9.195   2.882  0.6718  0.6150  0.1966
  553MOL0     C74575   5.033   9.115   2.788  0.4354 -0.2378  0.0767
  553MOL0     C74576   5.087   8.988   2.753  0.2751  1.1270  0.1394
  553MOL0     C74577   5.201   8.942   2.827  1.4928  0.4337 -0.0900
  553MOL0     O74578   5.265   8.823   2.808  0.2265 -0.6772 -0.0281
  553MOL0     C74579   5.210   8.728   2.720  0.4464 -0.2092 -0.2709
  553MOL0     C74580   5.305   8.688   2.610 -0.3931 -0.3282  0.8303
  553MOL0     C74581   5.419   8.599   2.663  0.1464 -0.6351 -0.1971
  553MOL0     C74582   5.535   8.543   2.584 -0.8390  0.1082  0.2324
  553MOL0     C74583   5.624   8.647   2.542  1.0326  0.1222 -0.2173
  553MOL0     C74584   5.692   8.746   2.508 -0.5690  0.6594 -0.7589
  553MOL0     C74585   5.264   9.017   2.920 -0.5530  0.3153 -0.1504
  553MOL0     C74586   5.219   9.152   2.943 -0.4384 -0.2791  0.6178
  553MOL0     C74587   5.292   9.242   3.042  0.4804  0.0907 -0.3770
  553MOL0     H74588   4.739   9.518   2.735  2.4388  0.3716  0.3159
  553MOL0     H74589   4.608   9.683   2.814  0.1880  0.4438  0.6635
  553MOL0     H74590   4.612   9.879   2.890  1.6223 -0.2990  1.2212
  553MOL0     H74591   4.478   9.929   2.997 -0.1405 -2.0171  1.0200
  553MOL0     H74592   4.639  10.025   3.147 -0.7465 -0.3784 -0.8844
  553MOL0     H74593   4.661  10.098   2.983  2.6268  1.6637  1.5411
  553MOL0     H74594   4.862  10.074   2.969 -0.2398  1.2607  0.4075
  553MOL0     H74595   4.859   9.897   3.003 -0.5714  0.0691 -1.4359
  553MOL0     H74596   4.882  10.136   3.193  0.5988  0.4610  3.3080
  553MOL0     H74597   4.862   9.984   3.256  1.3612  2.1705  3.2848
  553MOL0     H74598   5.089  10.020   3.057 -1.5686  0.5974  0.2550
  553MOL0     H74599   5.097  10.054   3.234  0.6810  0.5562 -0.7054
  553MOL0     H74600   5.051   9.811   3.274 -2.8995 -4.4182 -1.9432
  553MOL0     H74601   5.000   9.779   3.124  0.6684 -0.5679 -1.3035
  553MOL0     H74602   5.286   9.855   3.222 -1.1841 -0.7702  1.2312
  553MOL0     H74603   5.253   9.831   3.054  2.4195  2.8687  1.2721
  553MOL0     H74604   5.203   9.618   3.280 -2.4898 -0.3052 -0.0359
  553MOL0     H74605   5.151   9.604   3.131  1.3109  0.0483 -1.7996
  553MOL0     H74606   5.468   9.547   3.303  0.2468 -1.7810 -0.5102
  553MOL0     H74607   5.758   9.500   3.037 -0.4241 -1.9391 -0.5211
  553MOL0     H74608   5.758   9.557   3.193  1.7306 -1.0451  0.8422
  553MOL0     H74609   5.641   9.269   3.087 -1.8467 -3.8011  3.4773
  553MOL0     H74610   5.803   9.303   3.148 -1.3455 -1.9574 -0.2754
  553MOL0     H74611   5.538   9.318   3.289 -0.7427 -1.1516 -0.6147
  553MOL0     H74612   5.689   9.379   3.367 -1.6419 -0.7468 -0.2665
  553MOL0     H74613   5.633   9.103   3.261  0.5401  0.2875 -0.0193
  553MOL0     H74614   5.612   9.145   3.431 -3.4228  0.1621 -2.3318
  553MOL0     H74615   5.874   8.948   3.188  2.2711  2.8760  0.8899
  553MOL0     H74616   5.926   8.726   3.256 -3.2164  0.6183  0.1321
  553MOL0     H74617   5.926   8.298   3.502  0.7295  3.3234  0.5762
  553MOL0     H74618   6.081   8.103   3.475  2.3078 -0.7073 -4.6252
  553MOL0     H74619   6.331   8.091   3.605  0.6397 -1.4161  1.1154
  553MOL0     H74620   6.243   7.970   3.522 -0.0933 -0.7995  0.4895
  553MOL0     H74621   6.490   7.884   3.448 -2.6358 -1.4275  1.1732
  553MOL0     H74622   6.552   8.037   3.508 -2.6403  1.6382 -0.3242
  553MOL0     H74623   6.484   7.976   3.733 -0.1822 -0.5461 -0.8809
  553MOL0     H74624   6.410   7.831   3.671  1.0982 -2.9855  1.2173
  553MOL0     H74625   6.709   7.883   3.695  2.2019 -2.7257 -1.7289
  553MOL0     H74626   6.642   7.743   3.605 -0.2697  0.9123 -2.1696
  553MOL0     H74627   6.533   7.645   3.768  1.3597 -1.1269 -1.0551
  553MOL0     H74628   6.555   7.771   3.892 -1.7341 -4.2080  1.3717
  553MOL0     H74629   6.791   7.629   3.758  1.6147  1.4040  0.4752
  553MOL0     H74630   6.805   7.742   3.890  0.7004 -0.6971  0.5730
  553MOL0     H74631   6.658   7.478   3.896 -2.1231  1.2173  1.8056
  553MOL0     H74632   6.682   7.573   4.045  0.0988 -1.7892  0.8144
  553MOL0     H74633   6.928   7.546   4.004 -0.4681 -1.3790  2.8962
  553MOL0     H74634   6.823   7.406   4.037  1.2691 -0.6090 -0.7194
  553MOL0     H74635   6.378   8.354   3.307  1.3940 -0.3298  3.4489
  553MOL0     H74636   6.213   8.544   3.322  3.0158 -1.0569 -0.9288
  553MOL0     H74637   5.874   8.800   3.666 -2.3094 -0.4486 -0.7239
  553MOL0     H74638   5.808   9.044   3.600  0.4385  2.3957 -2.3004
  553MOL0     H74639   4.745   9.624   3.212 -1.8498  1.1051 -0.7833
  553MOL0     H74640   4.865   9.427   3.136  1.1765  0.3408  0.5603
  553MOL0     H74641   4.940   9.145   2.740  1.1015  1.8912  0.0095
  553MOL0     H74642   5.034   8.931   2.678  2.2102 -3.2539  1.8076
  553MOL0     H74643   5.115   8.753   2.671 -1.2564 -0.9806  2.4213
  553MOL0     H74644   5.179   8.641   2.778  1.6695  1.0254  2.3778
  553MOL0     H74645   5.338   8.768   2.543  0.1061 -2.0475 -1.0707
  553MOL0     H74646   5.247   8.635   2.534 -0.5786  2.2472 -0.9522
  553MOL0     H74647   5.369   8.518   2.717  1.8410 -2.7837 -1.6979
  553MOL0     H74648   5.469   8.662   2.737  2.0328 -0.5528 -1.4626
  553MOL0     H74649   5.582   8.476   2.656 -1.2309 -3.4355 -2.4837
  553MOL0     H74650   5.503   8.482   2.499  5.6134 -3.4300 -0.3104
  553MOL0     H74651   5.762   8.824   2.485  1.1131 -0.6717 -0.4285
  553MOL0     H74652   5.355   8.968   2.955 -0.2252 -1.1061 -2.7018
  553MOL0     H74653   5.227   9.293   3.113  0.9710  2.2072 -1.3645
  553MOL0     H74654   5.361   9.187   3.107 -0.8044 -0.3547  0.6517
  553MOL0     H74655   5.348   9.314   2.981 -2.6042  0.9719 -2.3710
  554MOL0     O74656   5.987   9.054   2.808 -1.4899 -0.3381  0.4476
  554MOL0     C74657   5.876   9.014   2.838  0.3625 -0.2918  0.0439
  554MOL0     O74658   5.865   8.895   2.909  0.4726  0.3315  0.3343
  554MOL0     C74659   5.963   8.801   2.934 -0.4777 -0.0181 -0.0909
  554MOL0     C74660   6.083   8.826   3.000 -0.7238 -0.3501  0.2587
  554MOL0     C74661   6.179   8.727   3.004  0.4535 -0.9272  0.0428
  554MOL0     C74662   6.164   8.598   2.963  0.3631  0.0717  0.5687
  554MOL0     O74663   6.260   8.504   2.964 -0.0833  0.3310 -0.0779
  554MOL0     C74664   6.388   8.542   3.011  0.7951  0.3975  1.2826
  554MOL0     C74665   6.463   8.410   3.021  0.7535  0.0476  0.0235
  554MOL0     C74666   6.600   8.448   3.093  0.3863 -0.4999 -0.3827
  554MOL0     C74667   6.706   8.337   3.099  0.9138  1.1233  0.3546
  554MOL0     C74668   6.806   8.358   3.224 -0.0712  0.4711  0.1471
  554MOL0     C74669   6.759   8.294   3.355  0.5382  0.6469  0.7885
  554MOL0     C74670   6.871   8.323   3.449  0.8798 -0.4442 -0.1442
  554MOL0     C74671   6.840   8.244   3.585  0.1056 -0.0871 -0.5005
  554MOL0     N74672   6.713   8.283   3.649 -0.0432 -0.0655  1.1569
  554MOL0     C74673   6.676   8.411   3.682 -0.4002 -0.5545 -0.8136
  554MOL0     C74674   6.560   8.398   3.754 -0.3587  0.4690 -0.4810
  554MOL0     C74675   6.479   8.510   3.811 -0.4136 -0.1962 -0.4749
  554MOL0     C74676   6.359   8.542   3.712 -0.8349 -0.2765 -0.3028
  554MOL0     C74677   6.255   8.631   3.770 -0.1723 -0.8061 -0.8665
  554MOL0     C74678   6.206   8.575   3.912 -1.3800 -0.2886 -0.1798
  554MOL0     O74679   6.081   8.640   3.958 -0.4714 -0.4527  0.6991
  554MOL0     C74680   6.013   8.607   4.063  0.6314  0.4326  0.8220
  554MOL0     C74681   6.041   8.491   4.143  0.3945 -0.1649 -0.9413
  554MOL0     C74682   5.950   8.442   4.246  0.3288  0.5163  0.1374
  554MOL0     C74683   5.829   8.514   4.270 -0.4303  0.2445 -0.6435
  554MOL0     C74684   5.724   8.478   4.369  0.3367 -0.1136 -0.5482
  554MOL0     O74685   5.602   8.558   4.359  0.0505  0.6427  0.0417
  554MOL0     C74686   5.500   8.545   4.454  0.3848 -0.3349  0.3382
  554MOL0     C74687   5.361   8.534   4.410 -0.8273  0.2540 -0.2871
  554MOL0     C74688   5.261   8.541   4.502  0.4387 -0.2553 -0.2430
  554MOL0     C74689   5.284   8.534   4.641 -0.2012  1.0939  0.3278
  554MOL0     O74690   5.175   8.530   4.725  0.1294 -0.1432 -0.1135
  554MOL0     C74691   5.188   8.610   4.844  1.4666 -0.0729  0.2700
  554MOL0     C74692   5.147   8.762   4.814  0.7077  0.3765 -0.2418
  554MOL0     C74693   4.993   8.779   4.775 -1.1505  0.7906  0.2761
  554MOL0     C74694   4.961   8.746   4.641 -0.0156  0.4789  0.1244
  554MOL0     C74695   4.833   8.808   4.584  0.0396 -0.5339  0.0041
  554MOL0     C74696   4.823   8.756   4.443  0.2362 -0.3873 -0.3631
  554MOL0     C74697   4.710   8.829   4.372  1.5448  0.6203  0.1710
  554MOL0     C74698   4.705   8.804   4.227 -0.3356  0.3831 -1.3121
  554MOL0    Cl74699   4.705   8.628   4.195  0.0691  0.2090  0.0480
  554MOL0     C74700   5.418   8.516   4.679 -1.4559 -0.2518  0.8256
  554MOL0     C74701   5.528   8.539   4.585  0.4479  0.8626 -0.7653
  554MOL0     O74702   5.735   8.376   4.439  0.2732 -0.4306 -0.0514
  554MOL0     C74703   5.810   8.634   4.189  0.4262  0.6159 -0.3776
  554MOL0     C74704   5.896   8.677   4.093  0.9396  0.4814 -0.7285
  554MOL0     N74705   6.529   8.271   3.751  1.3756  0.8061  0.1701
  554MOL0     N74706   6.619   8.195   3.700  0.2252  0.4741  0.5132
  554MOL0     C74707   6.041   8.565   2.904 -0.4889 -0.6399 -1.5898
  554MOL0     C74708   5.951   8.670   2.884  0.4489  0.3053  0.2524
  554MOL0     C74709   5.756   9.085   2.794 -0.1116  0.3381 -0.7251
  554MOL0     C74710   5.639   9.014   2.760 -0.8161 -0.0613  0.0975
  554MOL0     C74711   5.517   9.073   2.716  0.1985  0.0121 -1.1326
  554MOL0     C74712   5.511   9.214   2.704  0.6315  0.6912 -0.5682
  554MOL0     O74713   5.393   9.255   2.653 -0.2046  0.3279 -0.1546
  554MOL0     C74714   5.351   9.395   2.658 -0.1941  0.2349 -0.5304
  554MOL0     C74715   5.211   9.409   2.632 -0.1280 -1.1215  0.1118
  554MOL0     C74716   5.199   9.449   2.492 -0.3199  0.1383  0.2915
  554MOL0     C74717   5.061   9.424   2.436 -0.3027  0.3099  0.9677
  554MOL0     C74718   5.043   9.519   2.334  0.4018 -0.6468 -0.0118
  554MOL0     C74719   5.031   9.603   2.251 -1.2103  0.0215 -0.9122
  554MOL0     C74720   5.633   9.287   2.732  0.2252  0.2504 -0.5329
  554MOL0     C74721   5.755   9.227   2.778  0.3756  0.0075  0.2082
  554MOL0     C74722   5.881   9.310   2.811  0.9963 -0.5434 -0.2660
  554MOL0     H74723   6.102   8.929   3.026 -0.2851 -0.1332 -0.8427
  554MOL0     H74724   6.277   8.761   3.035 -0.3718  1.3917  0.2494
  554MOL0     H74725   6.445   8.604   2.941  1.5909  1.4348  2.7941
  554MOL0     H74726   6.386   8.593   3.107  1.4769 -1.1064  2.1280
  554MOL0     H74727   6.465   8.358   2.925 -3.1145  1.3830 -0.9695
  554MOL0     H74728   6.403   8.354   3.094 -1.9538  1.9148 -0.6254
  554MOL0     H74729   6.565   8.470   3.194 -0.5927 -3.4497  0.0133
  554MOL0     H74730   6.655   8.535   3.058  1.8843 -0.5322  1.7112
  554MOL0     H74731   6.662   8.238   3.095  0.2374  1.3148  2.0242
  554MOL0     H74732   6.765   8.334   3.007 -0.4934 -2.0232 -0.5514
  554MOL0     H74733   6.899   8.311   3.192 -1.8754 -0.2685 -4.8454
  554MOL0     H74734   6.823   8.466   3.233  1.1968  0.2133  1.0842
  554MOL0     H74735   6.664   8.340   3.382 -0.1756 -0.3335  0.0271
  554MOL0     H74736   6.741   8.186   3.355  0.6011  0.6217 -0.2689
  554MOL0     H74737   6.854   8.428   3.471 -3.8185 -1.2348  1.1374
  554MOL0     H74738   6.971   8.303   3.409  0.8107  3.6358 -2.9043
  554MOL0     H74739   6.837   8.139   3.554  2.8467  0.9375 -5.3190
  554MOL0     H74740   6.921   8.263   3.656 -0.5715  0.1645  0.2148
  554MOL0     H74741   6.736   8.500   3.665  1.2463 -1.4384  0.1400
  554MOL0     H74742   6.454   8.485   3.914  1.1651  3.3915  0.9395
  554MOL0     H74743   6.543   8.598   3.814  0.0709 -0.4377 -2.3430
  554MOL0     H74744   6.395   8.600   3.627 -0.6705  2.1642  1.3288
  554MOL0     H74745   6.318   8.445   3.682 -0.2216 -0.6207 -0.0262
  554MOL0     H74746   6.169   8.636   3.703 -1.1617 -0.4687  0.3924
  554MOL0     H74747   6.288   8.735   3.779 -0.1966 -0.4358 -4.0858
  554MOL0     H74748   6.286   8.572   3.987 -0.0029 -0.2888 -1.5825
  554MOL0     H74749   6.187   8.468   3.897 -2.7093  0.0704 -1.1881
  554MOL0     H74750   6.122   8.420   4.125  1.8919  1.6939 -1.8298
  554MOL0     H74751   5.971   8.359   4.312 -0.6956  1.6377  1.9412
  554MOL0     H74752   5.324   8.525   4.308  0.0512 -4.9233 -0.4416
  554MOL0     H74753   5.159   8.535   4.464  1.0521 -5.2422 -1.8906
  554MOL0     H74754   5.120   8.566   4.918 -0.2632  0.5285 -0.9016
  554MOL0     H74755   5.285   8.588   4.889  1.0211 -1.9826  0.3883
  554MOL0     H74756   5.172   8.833   4.894  3.4517 -1.2504  0.4776
  554MOL0     H74757   5.199   8.804   4.727  1.5856  0.1409  0.1511
  554MOL0     H74758   4.924   8.728   4.843 -1.6034  0.3603 -0.4900
  554MOL0     H74759   4.977   8.887   4.785  0.4548  1.2206 -1.1975
  554MOL0     H74760   4.951   8.637   4.631 -1.7913  0.5385  0.7960
  554MOL0     H74761   5.042   8.774   4.573 -2.3214 -0.4427 -3.3304
  554MOL0     H74762   4.855   8.915   4.579 -1.5124 -0.2450 -3.6332
  554MOL0     H74763   4.745   8.785   4.644  1.3770 -1.6190  1.6231
  554MOL0     H74764   4.918   8.779   4.393  0.6728  0.7226  0.8901
  554MOL0     H74765   4.831   8.647   4.441  3.4136 -0.2687 -3.0679
  554MOL0     H74766   4.687   8.935   4.390 -1.4455  0.5041 -2.2241
  554MOL0     H74767   4.619   8.785   4.415  1.8885 -0.6854 -0.4168
  554MOL0     H74768   4.615   8.844   4.178  1.0083  6.4950  0.3205
  554MOL0     H74769   4.793   8.853   4.184 -1.7844  3.4316 -1.1288
  554MOL0     H74770   5.448   8.495   4.782 -1.2707  2.8931  1.5035
  554MOL0     H74771   5.632   8.546   4.617  0.6789  0.0593 -1.3178
  554MOL0     H74772   5.721   8.695   4.203  1.9681  2.3132  3.3549
  554MOL0     H74773   5.859   8.760   4.033 -2.8824 -1.8663 -1.9440
  554MOL0     H74774   6.014   8.469   2.860  2.4798 -1.2940 -2.2094
  554MOL0     H74775   5.870   8.637   2.820  2.7926 -1.4863 -2.0171
  554MOL0     H74776   5.638   8.906   2.767  0.4799 -0.0182  1.4364
  554MOL0     H74777   5.424   9.021   2.697 -1.3880  1.0871  2.6647
  554MOL0     H74778   5.423   9.443   2.591  2.3953 -0.0649  1.8724
  554MOL0     H74779   5.375   9.417   2.762  2.2955  0.0599 -1.0131
  554MOL0     H74780   5.170   9.483   2.700 -2.5995 -2.2138 -0.0766
  554MOL0     H74781   5.157   9.314   2.640 -0.9768 -0.8053 -1.4177
  554MOL0     H74782   5.262   9.387   2.428 -2.0685 -0.4627 -0.9255
  554MOL0     H74783   5.231   9.554   2.496 -2.5123  0.8169  2.3921
  554MOL0     H74784   5.051   9.321   2.403 -0.2703  1.3237 -2.5754
  554MOL0     H74785   4.993   9.452   2.517 -1.2079  1.4010 -0.1274
  554MOL0     H74786   5.001   9.667   2.170 -1.8156 -1.7031 -2.1077
  554MOL0     H74787   5.634   9.393   2.711 -1.6042 -0.2425 -3.8856
  554MOL0     H74788   5.965   9.283   2.747  0.1009  0.0504 -1.7468
  554MOL0     H74789   5.842   9.411   2.795  1.4118  0.1692  2.6159
  554MOL0     H74790   5.905   9.299   2.917  0.3123 -0.8207 -0.1314
  555MOL0     O74791   1.982   6.988   9.676 -1.3855  0.2971  0.3831
  555MOL0     C74792   2.082   7.059   9.689 -0.0220 -0.4749  0.3391
  555MOL0     O74793   2.215   7.015   9.669  1.1736 -0.9322  1.1292
  555MOL0     C74794   2.228   6.883   9.638  0.7995  0.3898  0.3256
  555MOL0     C74795   2.280   6.788   9.725  0.4273 -0.3342 -0.6348
  555MOL0     C74796   2.302   6.649   9.677 -0.4397 -0.2250 -0.1782
  555MOL0     C74797   2.266   6.613   9.545 -0.8526  1.5545  0.0099
  555MOL0     O74798   2.293   6.487   9.488 -0.1567  0.2592 -1.1895
  555MOL0     C74799   2.277   6.368   9.573  0.6886 -0.1944 -0.5214
  555MOL0     C74800   2.307   6.226   9.524 -0.9903  0.2827 -0.1127
  555MOL0     C74801   2.249   6.223   9.372 -0.2611  0.8886  0.0393
  555MOL0     C74802   2.264   6.087   9.311 -0.1223  0.1733 -0.3302
  555MOL0     C74803   2.248   6.102   9.156  1.0047  0.3543 -0.2992
  555MOL0     C74804   2.230   5.964   9.085  0.8337  1.3469  0.4853
  555MOL0     C74805   2.267   5.961   8.936 -0.1000 -0.7782  1.0202
  555MOL0     C74806   2.141   5.991   8.841 -0.5541  0.5781 -0.6334
  555MOL0     N74807   2.104   6.134   8.863 -0.0528  0.1970  0.1797
  555MOL0     C74808   2.175   6.235   8.804  0.0962  0.9363  0.6056
  555MOL0     C74809   2.113   6.344   8.846  0.0046 -0.0410  0.1648
  555MOL0     C74810   2.144   6.477   8.791  0.7973  0.6266  0.6691
  555MOL0     C74811   2.283   6.519   8.824  0.2276 -0.9880  0.6771
  555MOL0     C74812   2.296   6.527   8.978 -0.6324 -1.0253 -1.2229
  555MOL0     C74813   2.433   6.590   9.021  0.7014 -0.8265 -0.3795
  555MOL0     O74814   2.559   6.545   8.952 -0.1735 -1.1788 -0.2791
  555MOL0     C74815   2.587   6.409   8.951 -0.3891  0.5647  0.8479
  555MOL0     C74816   2.671   6.371   8.845  0.2586  0.6178 -0.1843
  555MOL0     C74817   2.693   6.229   8.827 -0.2701 -1.0052 -0.2891
  555MOL0     C74818   2.659   6.133   8.926 -0.3260  0.2058  0.3726
  555MOL0     C74819   2.671   5.992   8.910  0.1036  0.0633  0.5591
  555MOL0     O74820   2.709   5.942   8.784 -0.0169 -0.4514 -0.1238
  555MOL0     C74821   2.719   5.812   8.748  0.6612  0.6994 -0.0373
  555MOL0     C74822   2.722   5.697   8.831  0.7270 -0.0050 -0.6907
  555MOL0     C74823   2.725   5.571   8.772 -1.0059  0.5118 -0.6298
  555MOL0     C74824   2.733   5.551   8.636  0.5303 -0.0612 -0.7037
  555MOL0     O74825   2.747   5.421   8.599 -0.4642  0.2601 -0.1865
  555MOL0     C74826   2.724   5.399   8.452  0.9112  0.5999  0.3072
  555MOL0     C74827   2.703   5.252   8.426 -0.5414 -0.0955  0.1705
  555MOL0     C74828   2.708   5.233   8.281 -0.6022 -0.0581 -0.1393
  555MOL0     C74829   2.773   5.092   8.255  0.0600 -0.1280 -1.2005
  555MOL0     C74830   2.685   4.982   8.332  0.4857  0.8888 -0.4143
  555MOL0     C74831   2.546   4.967   8.274 -0.0005  0.2848 -0.3693
  555MOL0     C74832   2.480   4.827   8.290 -0.5894 -0.7278 -0.1912
  555MOL0     C74833   2.342   4.816   8.226 -0.1678 -0.6403 -0.5002
  555MOL0    Cl74834   2.247   4.956   8.282  0.5360 -0.0431 -0.2348
  555MOL0     C74835   2.721   5.662   8.563 -1.5562 -0.0129 -0.0886
  555MOL0     C74836   2.719   5.789   8.610 -0.0853 -0.9690  0.4108
  555MOL0     O74837   2.615   5.923   8.998  0.0215  0.0235  0.2486
  555MOL0     C74838   2.584   6.184   9.039  1.2624 -0.6111 -0.0715
  555MOL0     C74839   2.551   6.317   9.052 -0.6828 -0.6718 -0.4359
  555MOL0     N74840   2.007   6.302   8.922 -0.4403  0.5824 -0.4255
  555MOL0     N74841   2.001   6.181   8.945 -0.0833 -0.3265  0.4795
  555MOL0     C74842   2.213   6.711   9.461  0.4107 -0.1276  0.4732
  555MOL0     C74843   2.198   6.840   9.506  0.1286 -0.3132 -0.5132
  555MOL0     C74844   2.049   7.194   9.709  0.6292  0.9742  0.5569
  555MOL0     C74845   1.954   7.232   9.809  0.2373 -0.5334 -0.2343
  555MOL0     C74846   1.924   7.371   9.841 -0.4261 -0.2678  0.5695
  555MOL0     C74847   1.979   7.473   9.750 -1.1637  0.4796 -0.2145
  555MOL0     O74848   1.965   7.603   9.755 -0.6423 -0.3548 -0.2881
  555MOL0     C74849   1.891   7.654   9.867  0.1712  0.5567 -0.9125
  555MOL0     C74850   1.977   7.649   9.998 -0.4409 -0.0559 -0.5575
  555MOL0     C74851   2.102   7.730   9.976 -0.3017 -1.8936  0.8891
  555MOL0     C74852   2.196   7.753  10.097  1.1282 -0.9945 -0.7101
  555MOL0     C74853   2.121   7.833  10.201  0.0546  0.7213 -0.4850
  555MOL0     C74854   2.043   7.896  10.284  0.7609  0.3385  1.3690
  555MOL0     C74855   2.066   7.432   9.650 -0.2364  0.3126 -0.6018
  555MOL0     C74856   2.106   7.299   9.631 -0.3059  0.1993 -0.7894
  555MOL0     C74857   2.212   7.266   9.523 -0.6109 -0.3014 -0.1089
  555MOL0     H74858   2.307   6.823   9.824  0.3376 -2.3091  0.1311
  555MOL0     H74859   2.350   6.573   9.737  1.8726  0.4475 -1.0453
  555MOL0     H74860   2.337   6.377   9.664 -1.0616  4.2912  0.4587
  555MOL0     H74861   2.177   6.386   9.614  1.0844  1.0694 -0.0506
  555MOL0     H74862   2.259   6.146   9.581  0.5666 -0.1136  0.6918
  555MOL0     H74863   2.415   6.215   9.531 -0.3799  4.4330 -0.0784
  555MOL0     H74864   2.301   6.291   9.305 -0.8957  1.0773 -0.2722
  555MOL0     H74865   2.141   6.243   9.373 -0.8031 -1.4951  2.5310
  555MOL0     H74866   2.368   6.065   9.335 -0.8919 -0.8266  2.4842
  555MOL0     H74867   2.208   6.009   9.364  3.6325 -0.3504  3.2992
  555MOL0     H74868   2.154   6.157   9.141  1.4385  0.4395 -3.5517
  555MOL0     H74869   2.327   6.171   9.124 -0.0252  3.8068  3.7370
  555MOL0     H74870   2.305   5.900   9.132  0.6179  1.5380  1.1040
  555MOL0     H74871   2.130   5.920   9.097 -0.7133  4.1676 -0.8589
  555MOL0     H74872   2.307   5.866   8.901  3.3628  2.3292 -5.2566
  555MOL0     H74873   2.334   6.047   8.923 -4.4102  3.2169  2.4011
  555MOL0     H74874   2.168   5.965   8.738 -0.5746 -0.4285 -0.3939
  555MOL0     H74875   2.056   5.925   8.863 -0.1335  0.0992 -0.4221
  555MOL0     H74876   2.256   6.220   8.733  0.3569 -2.1905  1.4166
  555MOL0     H74877   2.130   6.474   8.682  0.5105 -3.1933  0.7052
  555MOL0     H74878   2.078   6.551   8.836  2.4636  2.3289  0.4634
  555MOL0     H74879   2.350   6.437   8.796  1.1700 -0.0514  0.1035
  555MOL0     H74880   2.317   6.608   8.771  1.3574 -2.4534 -1.2161
  555MOL0     H74881   2.297   6.423   9.012  1.1246 -1.3260 -2.0339
  555MOL0     H74882   2.217   6.577   9.033 -0.9375 -1.2595 -1.4410
  555MOL0     H74883   2.460   6.569   9.125  0.9177 -3.9518 -0.9615
  555MOL0     H74884   2.427   6.698   9.006  1.7902 -0.6568  0.2951
  555MOL0     H74885   2.711   6.443   8.774 -2.9625  2.6089 -0.1763
  555MOL0     H74886   2.751   6.199   8.739 -0.1709  3.2164 -1.8846
  555MOL0     H74887   2.731   5.716   8.938 -0.5856 -0.9005 -0.4013
  555MOL0     H74888   2.731   5.482   8.835  1.7276 -1.5746 -3.4990
  555MOL0     H74889   2.629   5.441   8.419 -0.3855 -2.1077  0.3674
  555MOL0     H74890   2.810   5.443   8.401  0.3942 -1.3449 -2.4488
  555MOL0     H74891   2.788   5.194   8.464  0.0859 -1.2515 -2.7334
  555MOL0     H74892   2.612   5.210   8.469 -0.8468  0.9120  0.5217
  555MOL0     H74893   2.609   5.229   8.234 -1.7316 -0.4472  2.1424
  555MOL0     H74894   2.769   5.308   8.231 -3.4578  1.5846 -1.4419
  555MOL0     H74895   2.871   5.077   8.301 -1.4182 -4.0663  1.1761
  555MOL0     H74896   2.779   5.077   8.147 -0.8879 -0.5940 -1.1970
  555MOL0     H74897   2.671   4.998   8.439 -0.6039  0.0356 -0.4039
  555MOL0     H74898   2.741   4.888   8.333 -1.9846 -0.8283  3.8685
  555MOL0     H74899   2.502   5.053   8.324  2.6613  0.1015  2.6208
  555MOL0     H74900   2.544   4.982   8.166 -2.1138 -1.2532 -0.6055
  555MOL0     H74901   2.472   4.806   8.397 -0.3592 -2.6842 -0.5164
  555MOL0     H74902   2.549   4.755   8.245  1.3193  0.5576  0.5563
  555MOL0     H74903   2.341   4.820   8.117  3.4326 -2.8160 -0.7852
  555MOL0     H74904   2.295   4.725   8.263  1.5998 -1.4236 -0.0572
  555MOL0     H74905   2.719   5.647   8.456  2.3325  1.1205 -0.4744
  555MOL0     H74906   2.703   5.868   8.537 -0.4742 -2.7423 -1.5460
  555MOL0     H74907   2.535   6.113   9.105 -0.4475  1.1674  0.6774
  555MOL0     H74908   2.477   6.346   9.126  0.3328  1.7360 -0.2719
  555MOL0     H74909   2.183   6.687   9.360  1.7897  1.2512 -0.3074
  555MOL0     H74910   2.147   6.913   9.444  1.4743  1.1937  0.0813
  555MOL0     H74911   1.916   7.140   9.852 -0.4619 -1.5718 -2.8230
  555MOL0     H74912   1.860   7.400   9.924 -0.0053  3.1298 -0.1576
  555MOL0     H74913   1.793   7.608   9.880  0.6463 -0.2056  0.1012
  555MOL0     H74914   1.858   7.755   9.842 -1.3615  0.0669 -0.9598
  555MOL0     H74915   2.002   7.544  10.019 -0.7512 -0.1395 -0.6099
  555MOL0     H74916   1.919   7.708  10.069  0.3582  3.7350 -2.7950
  555MOL0     H74917   2.077   7.824   9.925  2.1429 -2.4504 -1.6103
  555MOL0     H74918   2.166   7.689   9.897 -0.5567 -0.3346 -0.1894
  555MOL0     H74919   2.224   7.653  10.133  0.9473 -1.1978 -1.1254
  555MOL0     H74920   2.282   7.816  10.075 -0.5659  2.2888  1.2899
  555MOL0     H74921   1.968   7.953  10.334  2.1458  0.8456  2.9888
  555MOL0     H74922   2.118   7.505   9.589 -0.2234 -0.2708 -1.3024
  555MOL0     H74923   2.263   7.352   9.477 -0.4399  0.0880  0.7830
  555MOL0     H74924   2.295   7.215   9.573  0.6252  1.3185 -0.4123
  555MOL0     H74925   2.178   7.203   9.441  0.2304 -0.5262 -0.2899
  556MOL0     O74926   8.910   9.125   8.676 -0.9166 -0.1283  0.3625
  556MOL0     C74927   8.885   9.191   8.778  0.3375 -0.4158  0.2856
  556MOL0     O74928   8.772   9.180   8.850 -0.4715  0.6915  0.4898
  556MOL0     C74929   8.685   9.075   8.822  0.5586 -0.6716  0.0078
  556MOL0     C74930   8.598   9.078   8.709  0.1478  0.3196 -0.1563
  556MOL0     C74931   8.504   8.969   8.695  1.0233 -0.6056 -1.7195
  556MOL0     C74932   8.493   8.872   8.793 -0.5933 -0.1237 -0.0103
  556MOL0     O74933   8.382   8.789   8.781  0.5158  0.2942  0.3181
  556MOL0     C74934   8.359   8.689   8.883 -0.7135 -0.1564 -0.1499
  556MOL0     C74935   8.300   8.722   9.018  0.5119 -1.2413 -0.1605
  556MOL0     C74936   8.290   8.607   9.121  1.1018 -1.1042  0.1148
  556MOL0     C74937   8.169   8.520   9.093  0.2169  0.5948 -0.1020
  556MOL0     C74938   8.133   8.420   9.199  0.0315 -0.2837 -0.3662
  556MOL0     C74939   8.249   8.336   9.259  0.2193  0.7362  1.1152
  556MOL0     C74940   8.293   8.239   9.152 -0.1637 -0.0836  0.4281
  556MOL0     C74941   8.417   8.153   9.197  0.6025  0.1096  0.3562
  556MOL0     N74942   8.482   8.084   9.085 -0.1630  1.3438 -1.5250
  556MOL0     C74943   8.426   8.021   8.976 -0.3587  0.6926 -0.4578
  556MOL0     C74944   8.533   7.982   8.897 -0.6510 -0.7227 -0.3891
  556MOL0     C74945   8.519   7.900   8.773 -0.3487 -0.3496  0.1968
  556MOL0     C74946   8.545   7.981   8.647  0.6417 -0.5058 -0.0945
  556MOL0     C74947   8.426   7.980   8.554 -1.1460  0.3278 -0.1816
  556MOL0     C74948   8.398   7.843   8.484  0.4192 -0.2635  0.1950
  556MOL0     O74949   8.491   7.813   8.395 -0.1526 -0.0327  0.0127
  556MOL0     C74950   8.449   7.778   8.271 -0.0447  0.2907  0.8137
  556MOL0     C74951   8.474   7.869   8.163  0.8099  0.6844  0.0953
  556MOL0     C74952   8.464   7.817   8.030 -0.4445 -0.9936  0.7263
  556MOL0     C74953   8.404   7.690   8.007  0.1260  0.6653  0.1373
  556MOL0     C74954   8.389   7.630   7.872 -1.2965 -0.1990 -0.2540
  556MOL0     O74955   8.440   7.698   7.758  1.2155  0.5517  0.7544
  556MOL0     C74956   8.426   7.649   7.620 -0.7921  0.4002 -0.1743
  556MOL0     C74957   8.426   7.508   7.587  0.3453 -0.1367  0.0252
  556MOL0     C74958   8.407   7.454   7.461  0.4251  0.0023  1.0092
  556MOL0     C74959   8.388   7.539   7.362 -0.1639 -0.0053  0.5550
  556MOL0     O74960   8.382   7.477   7.239  0.8592 -0.2860 -0.0724
  556MOL0     C74961   8.413   7.567   7.126  0.5486 -0.1033 -0.8463
  556MOL0     C74962   8.388   7.497   6.995  0.8845 -0.3633  1.0504
  556MOL0     C74963   8.397   7.596   6.873 -0.1057 -0.5641 -0.0482
  556MOL0     C74964   8.376   7.538   6.732 -0.5132  0.5183  0.4284
  556MOL0     C74965   8.405   7.642   6.629  0.5344 -0.8479 -0.1058
  556MOL0     C74966   8.370   7.583   6.486  0.2414  0.4993 -0.1523
  556MOL0     C74967   8.360   7.696   6.379  0.0450  0.1825 -0.4856
  556MOL0     C74968   8.349   7.627   6.243 -0.1933 -0.2364  0.3101
  556MOL0    Cl74969   8.388   7.733   6.104  0.1576 -0.0364  0.0166
  556MOL0     C74970   8.386   7.676   7.382  0.4560 -0.8579 -0.2926
  556MOL0     C74971   8.404   7.732   7.511 -0.0323 -0.1531 -0.7253
  556MOL0     O74972   8.315   7.530   7.868 -0.4630 -0.2047  0.5072
  556MOL0     C74973   8.362   7.617   8.122 -0.2732 -0.2182 -0.2438
  556MOL0     C74974   8.392   7.658   8.254  0.2472 -0.3391  0.8864
  556MOL0     N74975   8.644   8.027   8.961 -0.5630  0.2711 -0.3924
  556MOL0     N74976   8.613   8.093   9.066 -0.4067 -0.0540 -0.6812
  556MOL0     C74977   8.578   8.878   8.903  0.6061 -0.0723  0.3595
  556MOL0     C74978   8.681   8.971   8.907  0.8715  0.9513 -0.5181
  556MOL0     C74979   8.977   9.299   8.810 -0.0154 -0.0524 -0.7082
  556MOL0     C74980   8.918   9.421   8.864 -1.2596  0.3893 -2.1200
  556MOL0     C74981   8.999   9.525   8.920 -0.0587 -0.9308  0.3236
  556MOL0     C74982   9.142   9.507   8.926 -0.1169 -0.3868  0.2597
  556MOL0     O74983   9.217   9.614   8.972  0.6168  0.4895 -0.1887
  556MOL0     C74984   9.360   9.627   8.961 -1.1030  0.2017 -0.2874
  556MOL0     C74985   9.399   9.768   8.999  1.4317  0.2699 -0.0985
  556MOL0     C74986   9.338   9.866   8.893  0.0774  0.3794  0.1045
  556MOL0     C74987   9.379  10.006   8.942  0.3094 -0.5275 -0.7474
  556MOL0     C74988   9.322  10.115   8.875  1.0264 -1.4016  0.4727
  556MOL0     C74989   9.253  10.204   8.812 -0.5935  0.0406  0.3215
  556MOL0     C74990   9.194   9.390   8.877 -0.3814  0.3706  0.2177
  556MOL0     C74991   9.117   9.279   8.827 -0.0435  0.2937  0.5527
  556MOL0     C74992   9.189   9.160   8.792  0.1463  0.9039  0.1700
  556MOL0     H74993   8.598   9.159   8.638  2.0012  0.9781  0.5320
  556MOL0     H74994   8.428   8.955   8.619 -2.9707  1.8482  1.3840
  556MOL0     H74995   8.288   8.616   8.845 -0.3814 -1.2078  1.1758
  556MOL0     H74996   8.456   8.640   8.896 -0.2878  0.3900 -1.1302
  556MOL0     H74997   8.198   8.751   8.989  0.5608 -1.2291 -0.3250
  556MOL0     H74998   8.362   8.804   9.057 -0.2192 -1.6401  1.9569
  556MOL0     H74999   8.268   8.657   9.216 -2.2947  0.7425 -1.4302
  556MOL0     H75000   8.380   8.550   9.146  0.5625 -2.4124 -0.8254
  556MOL0     H75001   8.077   8.580   9.091  0.8551  1.6566  1.1327
  556MOL0     H75002   8.175   8.462   9.000  1.4332  0.8734 -0.2082
  556MOL0     H75003   8.092   8.475   9.284  1.7965 -3.0589  2.4765
  556MOL0     H75004   8.046   8.355   9.184 -1.9667  1.0658  3.9245
  556MOL0     H75005   8.339   8.383   9.301  0.8806 -0.6397  1.2904
  556MOL0     H75006   8.204   8.278   9.340 -0.4157  0.9424  0.9130
  556MOL0     H75007   8.333   8.290   9.064 -1.3884  1.0145  0.4734
  556MOL0     H75008   8.208   8.177   9.124 -0.9389 -1.2599  4.7053
  556MOL0     H75009   8.496   8.217   9.238 -0.2746  2.8636 -1.9424
  556MOL0     H75010   8.398   8.084   9.280  0.6700 -0.4705 -0.1056
  556MOL0     H75011   8.320   7.999   8.971 -0.2591  0.1738 -0.3031
  556MOL0     H75012   8.598   7.825   8.783  2.0723  2.3393  4.0871
  556MOL0     H75013   8.421   7.853   8.777 -3.7226  5.5705 -0.5487
  556MOL0     H75014   8.569   8.085   8.670 -0.7697 -0.1529 -0.1345
  556MOL0     H75015   8.634   7.947   8.593  0.9593  0.5713 -0.2594
  556MOL0     H75016   8.454   8.056   8.481  1.2015  1.1547  1.4542
  556MOL0     H75017   8.336   8.013   8.606 -2.0897 -0.9317 -0.9699
  556MOL0     H75018   8.295   7.849   8.445  0.2845 -0.4852  0.5117
  556MOL0     H75019   8.401   7.765   8.561 -0.5607 -0.8134 -0.2996
  556MOL0     H75020   8.518   7.966   8.185 -2.4517  2.2966  0.2008
  556MOL0     H75021   8.516   7.874   7.954  0.7066 -1.7514  0.9219
  556MOL0     H75022   8.433   7.431   7.663 -3.2707  1.9638  2.8197
  556MOL0     H75023   8.406   7.347   7.442  2.9796  0.5285 -3.5077
  556MOL0     H75024   8.373   7.669   7.130  0.4411 -0.1691  0.3771
  556MOL0     H75025   8.519   7.584   7.143 -0.0887  1.0388  3.2716
  556MOL0     H75026   8.472   7.429   6.979  1.5844  0.1640  2.3348
  556MOL0     H75027   8.291   7.447   7.005  0.1590  0.8754  0.3796
  556MOL0     H75028   8.321   7.672   6.895  2.6378  2.6227 -0.7984
  556MOL0     H75029   8.496   7.641   6.876 -0.2446 -0.2960  1.3447
  556MOL0     H75030   8.273   7.505   6.722  0.1392 -3.5988  4.3371
  556MOL0     H75031   8.430   7.443   6.727 -0.5645  0.3526  2.4790
  556MOL0     H75032   8.507   7.681   6.626 -0.6801  3.1075  2.2687
  556MOL0     H75033   8.343   7.728   6.656  0.2591 -2.0946  3.8709
  556MOL0     H75034   8.448   7.508   6.472  0.8352  0.5100  2.6091
  556MOL0     H75035   8.269   7.540   6.488  0.9105 -1.1268  0.6935
  556MOL0     H75036   8.450   7.758   6.393 -0.2741  0.7061 -0.7170
  556MOL0     H75037   8.279   7.765   6.403  1.5680  1.9126  0.0045
  556MOL0     H75038   8.418   7.542   6.241  2.0939  1.4675  1.7369
  556MOL0     H75039   8.251   7.581   6.229 -0.3815 -0.4897  2.1869
  556MOL0     H75040   8.360   7.749   7.306  1.4939 -0.1437  0.0221
  556MOL0     H75041   8.395   7.839   7.526  1.5555 -0.2984  1.9090
  556MOL0     H75042   8.323   7.516   8.117 -1.1697 -0.0501  2.1557
  556MOL0     H75043   8.371   7.591   8.337 -2.7252  0.1636  0.6753
  556MOL0     H75044   8.584   8.808   8.987 -0.7012 -1.2042 -0.4525
  556MOL0     H75045   8.746   8.967   8.994  0.5438 -0.2893 -0.3127
  556MOL0     H75046   8.813   9.446   8.874 -1.4136 -1.0775  0.7762
  556MOL0     H75047   8.944   9.609   8.961  0.8805 -0.4865  0.6974
  556MOL0     H75048   9.404   9.607   8.863  0.0344 -1.7268  0.5590
  556MOL0     H75049   9.403   9.553   9.029 -0.6140 -0.0439 -0.8587
  556MOL0     H75050   9.505   9.788   9.015  2.0587 -2.4689 -0.4388
  556MOL0     H75051   9.353   9.789   9.096  2.9719 -0.5017  0.8375
  556MOL0     H75052   9.232   9.848   8.872  0.0024  0.7155  0.1912
  556MOL0     H75053   9.386   9.845   8.797 -1.7789 -3.6544 -0.1717
  556MOL0     H75054   9.358  10.007   9.049 -0.3186 -1.9474 -0.8217
  556MOL0     H75055   9.487  10.020   8.931  0.4451 -1.8327 -1.2462
  556MOL0     H75056   9.196  10.269   8.749 -1.6569 -1.9021 -0.8354
  556MOL0     H75057   9.300   9.379   8.899 -0.2206 -4.0310 -1.5004
  556MOL0     H75058   9.171   9.123   8.691 -1.6395  0.7237  0.5244
  556MOL0     H75059   9.297   9.174   8.806  0.9322 -3.2752 -0.3325
  556MOL0     H75060   9.160   9.085   8.866 -0.4515  1.7852  0.8425
  557MOL0     O75061  10.440  11.419   1.793  0.1014 -0.0389 -0.0189
  557MOL0     C75062  10.338  11.392   1.861 -0.4847 -0.1691 -0.5097
  557MOL0     O75063  10.316  11.281   1.923  0.4392 -0.6725  0.0062
  557MOL0     C75064  10.411  11.187   1.912 -0.4858  0.3095  0.0157
  557MOL0     C75065  10.390  11.077   1.821  0.3291  0.1401 -0.6141
  557MOL0     C75066  10.470  10.962   1.824 -1.2229 -0.0273 -0.0725
  557MOL0     C75067  10.597  10.966   1.886 -0.2294  0.1562  0.2026
  557MOL0     O75068  10.682  10.874   1.855  0.2737  0.3528  0.5047
  557MOL0     C75069  10.823  10.882   1.888  0.6310  0.0001 -1.9874
  557MOL0     C75070  10.876  10.778   1.799 -0.0270 -0.4866 -0.8188
  557MOL0     C75071  11.028  10.760   1.828 -0.6315  0.4948  0.1118
  557MOL0     C75072  11.107  10.869   1.754 -0.9064  0.5890 -0.5483
  557MOL0     C75073  11.255  10.856   1.764 -0.7615 -0.1283 -0.3613
  557MOL0     C75074  11.323  10.972   1.682 -0.0928 -0.0422  0.0931
  557MOL0     C75075  11.329  10.951   1.537  0.2698 -1.2147  0.8039
  557MOL0     C75076  11.368  11.073   1.460  0.1498 -0.5666  0.2894
  557MOL0     N75077  11.396  11.031   1.318 -0.6686  0.3213 -0.8444
  557MOL0     C75078  11.300  11.071   1.231  0.2760  0.3866  0.6453
  557MOL0     C75079  11.353  11.056   1.112 -1.3985  1.0169  0.6687
  557MOL0     C75080  11.291  11.053   0.976  0.0291  0.0086 -0.2505
  557MOL0     C75081  11.197  11.170   0.952 -0.8506 -0.1533  0.4571
  557MOL0     C75082  11.154  11.170   0.798 -0.1980  0.0488 -0.1835
  557MOL0     C75083  11.241  11.268   0.718 -0.1721 -0.3634 -0.3111
  557MOL0     O75084  11.245  11.254   0.575  0.6885  0.3152 -0.8309
  557MOL0     C75085  11.150  11.287   0.494  0.1180 -0.2569  0.2913
  557MOL0     C75086  11.022  11.336   0.533 -0.4541 -0.3077  0.1064
  557MOL0     C75087  10.934  11.376   0.433  0.1994  0.2584 -0.9430
  557MOL0     C75088  10.952  11.350   0.296 -0.4877 -0.4470  0.9101
  557MOL0     C75089  10.852  11.384   0.177 -0.5984  0.2049 -0.2562
  557MOL0     O75090  10.796  11.278   0.101 -0.4027 -0.4335  0.5048
  557MOL0     C75091  10.721  11.312  -0.014 -0.0256 -0.3956 -0.1589
  557MOL0     C75092  10.754  11.250  -0.139 -0.4730 -0.1576 -0.4936
  557MOL0     C75093  10.670  11.259  -0.247  0.6105  0.2127 -0.0359
  557MOL0     C75094  10.549  11.326  -0.257  0.4989 -0.7325  0.4434
  557MOL0     O75095  10.460  11.327  -0.357 -0.3249  0.2415  0.5757
  557MOL0     C75096  10.489  11.314  -0.499 -0.0417 -0.1023  0.2575
  557MOL0     C75097  10.359  11.293  -0.571 -0.6818 -0.2870 -0.0545
  557MOL0     C75098  10.328  11.407  -0.676 -0.3168 -0.1024  0.4789
  557MOL0     C75099  10.440  11.436  -0.777  0.0798  0.5958  0.7978
  557MOL0     C75100  10.401  11.443  -0.933  0.5727 -0.2865  0.0419
  557MOL0     C75101  10.310  11.562  -0.961 -0.5076 -0.7087 -0.2064
  557MOL0     C75102  10.227  11.542  -1.097 -0.4106  0.1292  0.0123
  557MOL0     C75103  10.099  11.465  -1.073 -0.2005  0.3383 -0.3202
  557MOL0    Cl75104   9.957  11.564  -1.017  0.0360  0.0023 -0.0575
  557MOL0     C75105  10.510  11.391  -0.129  0.6824  0.7739 -0.0434
  557MOL0     C75106  10.593  11.377  -0.017  0.6256  0.2808 -0.7538
  557MOL0     O75107  10.833  11.504   0.158 -0.2117  0.6055  0.3808
  557MOL0     C75108  11.086  11.308   0.265 -0.1458  0.7924 -0.0144
  557MOL0     C75109  11.178  11.267   0.360 -0.1524  0.7644 -0.5299
  557MOL0     N75110  11.488  11.021   1.129  0.2487 -0.1396 -0.0034
  557MOL0     N75111  11.514  11.024   1.258  0.0871  0.8187 -0.1112
  557MOL0     C75112  10.627  11.084   1.965  0.6233  0.1205 -0.4247
  557MOL0     C75113  10.536  11.189   1.985 -0.2190 -0.9001  0.2694
  557MOL0     C75114  10.221  11.489   1.873 -0.2256  0.7902 -0.5297
  557MOL0     C75115  10.095  11.439   1.840 -0.2980  0.4656 -0.3363
  557MOL0     C75116   9.982  11.506   1.866 -0.2325 -0.1301  0.4935
  557MOL0     C75117   9.991  11.636   1.913 -0.4586 -0.9672  0.9819
  557MOL0     O75118   9.872  11.704   1.921  0.5312 -0.4288 -0.0479
  557MOL0     C75119   9.886  11.843   1.883 -0.5241  0.4834 -0.8103
  557MOL0     C75120   9.871  11.936   2.013 -0.0293  0.1347  0.9862
  557MOL0     C75121   9.988  12.042   2.019  0.4452  0.7453  0.2771
  557MOL0     C75122  10.020  12.121   1.897  0.1137  0.1995  0.4271
  557MOL0     C75123   9.891  12.175   1.858  0.0795 -0.0297 -0.1354
  557MOL0     C75124   9.780  12.214   1.825  0.4818 -0.5414 -0.6068
  557MOL0     C75125  10.114  11.685   1.950 -0.9631 -0.3836  0.5957
  557MOL0     C75126  10.234  11.622   1.923 -0.1391 -0.4720 -0.2630
  557MOL0     C75127  10.361  11.688   1.947  0.0727 -0.1759 -0.4906
  557MOL0     H75128  10.302  11.091   1.759  0.3944  1.7143 -0.3881
  557MOL0     H75129  10.441  10.880   1.758 -4.9928  1.5879 -0.7216
  557MOL0     H75130  10.854  10.986   1.877  0.9094  0.3046  0.9158
  557MOL0     H75131  10.840  10.849   1.991 -3.0985 -1.9790 -1.8315
  557MOL0     H75132  10.862  10.791   1.691  3.9333 -0.5656 -1.4768
  557MOL0     H75133  10.822  10.689   1.833  0.6011 -0.8431 -0.7537
  557MOL0     H75134  11.058  10.662   1.790  0.6655  1.4284 -1.4221
  557MOL0     H75135  11.047  10.759   1.936  0.7372 -3.4513  0.0079
  557MOL0     H75136  11.082  10.860   1.648 -1.0287 -1.7676 -0.3683
  557MOL0     H75137  11.055  10.957   1.794 -0.9600  1.6584 -2.8120
  557MOL0     H75138  11.288  10.870   1.867 -3.0182  1.1246  0.2725
  557MOL0     H75139  11.275  10.755   1.727 -2.9730 -0.7457 -0.0103
  557MOL0     H75140  11.275  11.066   1.708 -1.3969 -0.6105 -0.1454
  557MOL0     H75141  11.429  10.979   1.710  0.5927 -0.1172 -2.2905
  557MOL0     H75142  11.229  10.929   1.496  0.9688 -2.1528 -0.4663
  557MOL0     H75143  11.397  10.871   1.507 -0.2432  0.0615 -5.0001
  557MOL0     H75144  11.286  11.145   1.450 -0.8044 -1.9013 -5.6419
  557MOL0     H75145  11.461  11.117   1.498  0.7263 -0.0880 -1.5302
  557MOL0     H75146  11.196  11.088   1.256  0.4158 -0.0383  1.5414
  557MOL0     H75147  11.362  11.055   0.892  1.0447  0.3057  0.5938
  557MOL0     H75148  11.234  10.960   0.974  0.7680 -0.4434 -1.6338
  557MOL0     H75149  11.107  11.163   1.013 -0.8132  1.7068  0.7910
  557MOL0     H75150  11.234  11.272   0.968 -2.5098  1.0259 -2.4777
  557MOL0     H75151  11.052  11.208   0.795 -0.5069 -0.8271 -2.4943
  557MOL0     H75152  11.154  11.068   0.757  0.6045 -0.2096  0.4242
  557MOL0     H75153  11.342  11.246   0.755 -0.5810  0.3192  1.2670
  557MOL0     H75154  11.218  11.373   0.735 -0.8505  0.4063 -4.6277
  557MOL0     H75155  10.991  11.345   0.637 -2.8754 -2.0121 -0.4092
  557MOL0     H75156  10.842  11.410   0.479  0.5938 -1.6611  1.4738
  557MOL0     H75157  10.842  11.187  -0.151 -0.4400 -0.1689 -0.2049
  557MOL0     H75158  10.712  11.226  -0.341  0.7958  1.1480 -0.2970
  557MOL0     H75159  10.538  11.406  -0.531 -0.6760  1.1252  2.6424
  557MOL0     H75160  10.553  11.227  -0.520  1.9136  1.5163 -0.8269
  557MOL0     H75161  10.365  11.195  -0.620  0.2496 -0.2514 -0.0319
  557MOL0     H75162  10.282  11.289  -0.494 -0.0700 -3.0174  0.5397
  557MOL0     H75163  10.237  11.377  -0.729 -1.2241 -1.7999  2.8614
  557MOL0     H75164  10.307  11.497  -0.618  5.9300  1.3025  1.2629
  557MOL0     H75165  10.515  11.357  -0.772  1.6420  1.7356 -2.1511
  557MOL0     H75166  10.487  11.529  -0.745 -1.3177  1.0517  1.6352
  557MOL0     H75167  10.343  11.355  -0.961 -3.2367  1.5299  1.5940
  557MOL0     H75168  10.496  11.448  -0.988  1.2495 -1.5373  1.0571
  557MOL0     H75169  10.232  11.565  -0.884 -1.2762  1.8455 -0.9977
  557MOL0     H75170  10.358  11.659  -0.947 -2.3335 -0.0150  1.9022
  557MOL0     H75171  10.274  11.472  -1.167 -3.0383 -3.3591  1.3660
  557MOL0     H75172  10.213  11.638  -1.146 -2.0671 -1.0623 -2.0178
  557MOL0     H75173  10.069  11.419  -1.167  1.1600  0.6633 -0.9340
  557MOL0     H75174  10.120  11.374  -1.015 -0.2526 -2.3766 -4.1860
  557MOL0     H75175  10.419  11.447  -0.110  0.1711 -0.3432  0.9570
  557MOL0     H75176  10.559  11.416   0.079 -2.4905  1.9921 -2.4163
  557MOL0     H75177  11.105  11.291   0.160 -1.3649  1.3619 -0.3397
  557MOL0     H75178  11.277  11.231   0.336 -0.5491 -1.0804  0.4161
  557MOL0     H75179  10.728  11.081   2.005  0.1985 -2.8132  0.6723
  557MOL0     H75180  10.563  11.269   2.053 -1.2037  0.8336 -1.2761
  557MOL0     H75181  10.086  11.333   1.816 -0.8194  0.3368  0.3911
  557MOL0     H75182   9.888  11.460   1.839  0.6774 -1.7962  0.0783
  557MOL0     H75183   9.810  11.872   1.810 -2.5098 -5.0818 -1.4523
  557MOL0     H75184   9.978  11.861   1.827 -0.0375 -1.2109 -0.6428
  557MOL0     H75185   9.862  11.880   2.107  2.1457 -0.5987  0.8199
  557MOL0     H75186   9.778  11.993   2.003  0.3148  0.2519 -2.4111
  557MOL0     H75187  10.070  11.983   2.062 -0.3772  0.3133  1.2699
  557MOL0     H75188   9.961  12.116   2.095 -1.3837 -1.4506  1.8939
  557MOL0     H75189  10.096  12.197   1.919  1.1322  0.0090 -2.0267
  557MOL0     H75190  10.054  12.063   1.810  0.4225  3.5530 -1.9180
  557MOL0     H75191   9.678  12.230   1.795 -0.0258 -2.7047 -0.1508
  557MOL0     H75192  10.118  11.781   2.000  2.3671 -1.9478  3.7827
  557MOL0     H75193  10.394  11.766   1.876  3.3166 -0.4488  0.5434
  557MOL0     H75194  10.355  11.731   2.047  2.4685 -1.1620  0.1352
  557MOL0     H75195  10.443  11.616   1.955  0.6823  0.4187  8.2246
  558MOL0     O75196   7.601   2.305   7.160  0.5272 -0.1221 -0.5993
  558MOL0     C75197   7.717   2.342   7.125 -0.4178 -1.1338  0.3992
  558MOL0     O75198   7.828   2.261   7.138 -0.5766  1.0155 -0.6531
  558MOL0     C75199   7.809   2.144   7.200 -0.2556 -0.2284  0.4755
  558MOL0     C75200   7.840   2.153   7.343  0.2888  1.0739  0.7460
  558MOL0     C75201   7.814   2.041   7.422 -0.2317 -0.4901  1.0239
  558MOL0     C75202   7.740   1.932   7.382  0.1400  0.0751  0.3489
  558MOL0     O75203   7.724   1.835   7.472 -0.5137  0.0045  0.8520
  558MOL0     C75204   7.822   1.784   7.565 -1.0722  0.6822 -0.1778
  558MOL0     C75205   7.782   1.768   7.709 -0.6707  0.6771  0.4731
  558MOL0     C75206   7.746   1.913   7.765  0.7237  0.6472  1.0245
  558MOL0     C75207   7.871   1.993   7.807  0.4338  0.3711 -1.0486
  558MOL0     C75208   7.859   2.129   7.886 -0.5029  0.4778 -0.2569
  558MOL0     C75209   8.002   2.191   7.903 -0.5700  0.2188 -0.2728
  558MOL0     C75210   8.101   2.226   7.797  0.3212  0.5258  0.5015
  558MOL0     C75211   8.069   2.351   7.735 -0.4042 -0.5392  0.5497
  558MOL0     N75212   8.178   2.417   7.661  0.1366 -0.0037 -0.1348
  558MOL0     C75213   8.294   2.474   7.697 -0.7878 -0.8938  0.2006
  558MOL0     C75214   8.322   2.569   7.608 -0.4123 -0.4665  0.0731
  558MOL0     C75215   8.442   2.667   7.605  0.7693  0.0929  0.6419
  558MOL0     C75216   8.508   2.700   7.467  0.6295  0.9419 -0.1100
  558MOL0     C75217   8.642   2.763   7.480 -0.2716 -0.0357 -0.2465
  558MOL0     C75218   8.661   2.872   7.376  0.1181  0.4280 -0.3672
  558MOL0     O75219   8.659   2.818   7.244 -0.2168  1.2350 -0.0371
  558MOL0     C75220   8.687   2.916   7.146 -0.3326 -0.0924  0.0758
  558MOL0     C75221   8.683   2.869   7.017 -0.6146  0.0881  0.4708
  558MOL0     C75222   8.707   2.958   6.911 -0.1112  0.2191  0.6131
  558MOL0     C75223   8.730   3.094   6.932  0.9130 -1.0325  0.8724
  558MOL0     C75224   8.753   3.172   6.810 -0.0255 -0.9961 -0.3304
  558MOL0     O75225   8.788   3.105   6.693  1.1582  0.7647  0.0804
  558MOL0     C75226   8.780   3.165   6.574 -1.0172  0.2740 -0.4777
  558MOL0     C75227   8.887   3.247   6.531 -0.0289 -0.8880 -0.8428
  558MOL0     C75228   8.877   3.329   6.420 -0.5206  0.3906  0.0242
  558MOL0     C75229   8.757   3.323   6.345  0.1844  0.4154  1.0559
  558MOL0     O75230   8.741   3.405   6.232 -0.2582 -0.4947 -0.2583
  558MOL0     C75231   8.701   3.354   6.104  0.3253  0.0238 -0.0639
  558MOL0     C75232   8.726   3.450   5.988 -0.7313  0.2153 -0.4520
  558MOL0     C75233   8.607   3.547   5.978 -0.6000  0.1122  1.1957
  558MOL0     C75234   8.635   3.647   5.864 -0.1248  0.0537 -1.6421
  558MOL0     C75235   8.508   3.731   5.835  0.6862  0.4502  0.2274
  558MOL0     C75236   8.553   3.872   5.800  0.2760  0.1924  0.6596
  558MOL0     C75237   8.444   3.973   5.748  0.5864 -0.5393 -0.3199
  558MOL0     C75238   8.515   4.116   5.736  0.2471 -0.0558  0.3929
  558MOL0    Cl75239   8.398   4.245   5.688  0.2115  0.0904 -0.5071
  558MOL0     C75240   8.654   3.241   6.381  0.3831 -0.0709  0.2303
  558MOL0     C75241   8.665   3.168   6.500  0.0470  0.4337 -0.2337
  558MOL0     O75242   8.769   3.293   6.832 -0.8303  0.2413  0.1880
  558MOL0     C75243   8.739   3.145   7.066 -0.8016 -0.6735  0.9265
  558MOL0     C75244   8.721   3.054   7.172  1.0595 -0.5071  0.6437
  558MOL0     N75245   8.218   2.579   7.522  0.2826  0.7096 -0.2124
  558MOL0     N75246   8.133   2.487   7.549 -0.7281  0.1177  0.0207
  558MOL0     C75247   7.697   1.934   7.246 -0.1271  0.3662  0.8853
  558MOL0     C75248   7.733   2.035   7.154  0.1108 -0.4713  0.6196
  558MOL0     C75249   7.727   2.471   7.058  0.1167 -1.2509  0.0259
  558MOL0     C75250   7.619   2.562   7.068 -1.0637  0.1899 -0.1921
  558MOL0     C75251   7.617   2.687   7.004  0.6575 -0.1267 -0.1455
  558MOL0     C75252   7.724   2.726   6.928 -0.3285 -0.1539 -0.4402
  558MOL0     O75253   7.757   2.851   6.876  0.3429 -0.2747 -0.0935
  558MOL0     C75254   7.700   2.960   6.953  0.5859  0.9180  0.6462
  558MOL0     C75255   7.775   3.097   6.952 -0.4733 -0.4515  1.3371
  558MOL0     C75256   7.770   3.155   6.809  0.3717 -1.0464  0.2397
  558MOL0     C75257   7.784   3.307   6.805 -0.4839 -0.2742  0.4641
  558MOL0     C75258   7.879   3.367   6.911  0.0859  0.1413  0.4022
  558MOL0     C75259   7.936   3.398   7.011 -0.6499  0.2353  0.3317
  558MOL0     C75260   7.832   2.643   6.922  0.2246  0.9593 -0.0904
  558MOL0     C75261   7.839   2.518   6.978  0.3441 -0.0289  0.1247
  558MOL0     C75262   7.961   2.435   6.933  0.1808  0.4489  0.7552
  558MOL0     H75263   7.894   2.234   7.389  0.4794 -0.3102  3.0827
  558MOL0     H75264   7.858   2.050   7.520  4.4853  0.2080 -0.9099
  558MOL0     H75265   7.851   1.685   7.528  1.6252  1.9138 -1.6293
  558MOL0     H75266   7.916   1.840   7.558 -0.8352  0.2819 -0.2480
  558MOL0     H75267   7.857   1.720   7.771 -0.9914  1.0183  1.1317
  558MOL0     H75268   7.689   1.710   7.704 -1.7528  2.4298 -1.2179
  558MOL0     H75269   7.678   1.893   7.848 -3.0091 -2.1061 -2.2707
  558MOL0     H75270   7.688   1.971   7.692  1.8133  1.2545  0.6168
  558MOL0     H75271   7.940   1.922   7.854  1.0246  0.8670 -1.1642
  558MOL0     H75272   7.907   2.018   7.707 -2.4968  0.6840 -2.1250
  558MOL0     H75273   7.808   2.213   7.837  3.5816  3.0049 -0.6284
  558MOL0     H75274   7.819   2.115   7.987  0.9894 -1.0491  0.1658
  558MOL0     H75275   7.976   2.287   7.949 -4.0575 -0.7264 -0.0424
  558MOL0     H75276   8.061   2.127   7.970  1.7782 -0.6768 -2.9665
  558MOL0     H75277   8.127   2.151   7.721 -1.2847  2.2346 -1.9048
  558MOL0     H75278   8.194   2.240   7.852  0.5388 -2.5208  1.1025
  558MOL0     H75279   7.978   2.338   7.676 -1.6353 -0.3393  2.3439
  558MOL0     H75280   8.040   2.431   7.803 -0.0139 -0.6332  0.8325
  558MOL0     H75281   8.359   2.431   7.774  1.5613  2.2890  0.2190
  558MOL0     H75282   8.404   2.749   7.667  2.1757 -1.0672  3.2239
  558MOL0     H75283   8.517   2.619   7.668 -3.3804 -4.2556  2.9633
  558MOL0     H75284   8.522   2.603   7.418  2.4559  1.1691 -0.1039
  558MOL0     H75285   8.438   2.762   7.411  3.4213  1.2968 -3.5669
  558MOL0     H75286   8.728   2.695   7.471 -0.1801  0.2275 -1.6526
  558MOL0     H75287   8.644   2.805   7.580 -0.4166 -0.9702  0.1597
  558MOL0     H75288   8.757   2.919   7.397 -0.9960  3.1508 -0.8556
  558MOL0     H75289   8.586   2.950   7.396 -1.9141 -1.5423  0.0548
  558MOL0     H75290   8.652   2.766   7.002 -4.8402  0.9710  1.6931
  558MOL0     H75291   8.696   2.914   6.812 -2.6700  2.2586 -0.0994
  558MOL0     H75292   8.977   3.254   6.592  0.4443 -2.6644 -1.2907
  558MOL0     H75293   8.955   3.398   6.389 -1.4299  2.5129  2.2097
  558MOL0     H75294   8.775   3.273   6.099 -0.3266 -1.2232  4.9184
  558MOL0     H75295   8.596   3.322   6.103 -1.6464  5.3811  1.0994
  558MOL0     H75296   8.826   3.493   5.996  1.7995 -5.0107  0.0580
  558MOL0     H75297   8.726   3.385   5.900  1.2089  0.8673 -0.9721
  558MOL0     H75298   8.513   3.495   5.958  0.6175 -1.0941 -2.0601
  558MOL0     H75299   8.605   3.607   6.069  3.5025  3.1851 -0.4096
  558MOL0     H75300   8.667   3.597   5.772  3.2315  3.7073 -2.7165
  558MOL0     H75301   8.709   3.716   5.906 -3.1647  2.3171  0.4314
  558MOL0     H75302   8.442   3.749   5.920  0.6319  1.6091 -0.0469
  558MOL0     H75303   8.435   3.692   5.764  1.2085 -0.4172  0.1505
  558MOL0     H75304   8.594   3.918   5.890 -0.5009 -0.7997  1.5525
  558MOL0     H75305   8.634   3.876   5.727 -0.9581 -4.3627 -1.3496
  558MOL0     H75306   8.359   3.967   5.818  0.2753 -0.7414 -0.7133
  558MOL0     H75307   8.409   3.927   5.656 -1.8843 -1.6048  1.0546
  558MOL0     H75308   8.532   4.134   5.842 -0.8576  0.7355  0.4585
  558MOL0     H75309   8.610   4.116   5.683  0.6223  0.2899  1.0567
  558MOL0     H75310   8.562   3.239   6.324  1.4016  0.4309 -1.5029
  558MOL0     H75311   8.577   3.113   6.532  1.8497 -0.7125  3.2100
  558MOL0     H75312   8.778   3.243   7.092 -0.4601 -0.3598 -0.6699
  558MOL0     H75313   8.703   3.090   7.273  1.1341  0.4964  0.3077
  558MOL0     H75314   7.633   1.859   7.200 -0.6637  1.5261 -0.2926
  558MOL0     H75315   7.683   2.035   7.057 -1.4598 -1.2012  1.3902
  558MOL0     H75316   7.532   2.529   7.122 -2.4254  2.4740 -0.8550
  558MOL0     H75317   7.531   2.751   7.021  0.4549  0.0984 -1.8680
  558MOL0     H75318   7.711   2.938   7.059 -0.7044 -1.3207  0.3667
  558MOL0     H75319   7.592   2.961   6.932  0.6423 -2.0512 -0.2805
  558MOL0     H75320   7.881   3.076   6.967  0.5172  2.6230 -0.4063
  558MOL0     H75321   7.733   3.162   7.029  0.3221  2.4661 -0.5366
  558MOL0     H75322   7.673   3.133   6.763 -0.7292 -1.4841  2.5960
  558MOL0     H75323   7.848   3.114   6.745  1.6001  0.8460  0.4741
  558MOL0     H75324   7.821   3.334   6.706  1.3977 -0.4089  1.0862
  558MOL0     H75325   7.685   3.350   6.823  1.0845  2.9432  2.1797
  558MOL0     H75326   7.995   3.428   7.095  1.1265  1.9167 -1.4026
  558MOL0     H75327   7.914   2.678   6.860  2.7546 -3.3016  0.4763
  558MOL0     H75328   8.001   2.384   7.021 -2.5845  1.3081  2.6300
  558MOL0     H75329   7.932   2.362   6.857  1.9760 -0.2764  0.6968
  558MOL0     H75330   8.044   2.482   6.879  0.1545 -0.8043 -0.4287
  559MOL0     O75331   6.392   9.932   4.851  0.3167 -0.5664  0.2120
  559MOL0     C75332   6.513   9.957   4.873  1.1084  0.8369  0.2487
  559MOL0     O75333   6.570  10.087   4.868  0.3171  0.6060 -0.1570
  559MOL0     C75334   6.474  10.186   4.862  0.5393 -0.0835  0.3833
  559MOL0     C75335   6.441  10.255   4.977  0.6081 -0.0759 -0.4990
  559MOL0     C75336   6.350  10.363   4.983  0.0163 -0.5508 -0.3906
  559MOL0     C75337   6.305  10.419   4.866  1.1534  0.2853 -0.1419
  559MOL0     O75338   6.221  10.533   4.866 -0.4106 -0.2515  0.3204
  559MOL0     C75339   6.189  10.600   4.985  0.2459 -0.3478  0.0347
  559MOL0     C75340   6.119  10.732   4.959  0.2466  0.6597  0.1338
  559MOL0     C75341   6.200  10.851   4.889  0.3268  0.9238 -0.2907
  559MOL0     C75342   6.218  10.840   4.734  0.3161  0.3881 -0.2217
  559MOL0     C75343   6.284  10.967   4.680 -0.1574 -0.6042 -0.5815
  559MOL0     C75344   6.310  10.947   4.530 -0.0481 -0.0520  0.9152
  559MOL0     C75345   6.359  11.087   4.468 -0.5130  0.1212 -0.7354
  559MOL0     C75346   6.495  11.134   4.509 -0.6901 -0.5429 -0.5666
  559MOL0     N75347   6.528  11.255   4.426  0.5859 -0.7995 -0.3765
  559MOL0     C75348   6.510  11.387   4.462  0.0504 -0.4602 -0.2934
  559MOL0     C75349   6.550  11.452   4.353 -0.1688 -1.0651  0.2039
  559MOL0     C75350   6.552  11.608   4.322  0.1377 -0.9656  0.1605
  559MOL0     C75351   6.606  11.693   4.433  0.6517 -0.9025  0.6085
  559MOL0     C75352   6.629  11.837   4.375 -1.1774  0.6513 -0.0978
  559MOL0     C75353   6.724  11.917   4.462  0.3331  1.2465 -0.5121
  559MOL0     O75354   6.764  12.039   4.420 -0.2337  0.1716 -0.0842
  559MOL0     C75355   6.863  12.055   4.319  0.6202 -1.1828 -0.0094
  559MOL0     C75356   6.942  11.957   4.271  1.0329  0.5198  0.2971
  559MOL0     C75357   7.042  11.975   4.181  0.0894  0.3839  0.0040
  559MOL0     C75358   7.069  12.107   4.132 -0.1605  0.3500  0.0144
  559MOL0     C75359   7.177  12.128   4.039  0.7235  0.4567  0.3704
  559MOL0     O75360   7.197  12.245   3.979 -0.5375  0.3003 -0.3151
  559MOL0     C75361   7.255  12.242   3.854  0.3488 -0.2447  0.5170
  559MOL0     C75362   7.182  12.314   3.744 -0.3219 -0.2821 -0.5903
  559MOL0     C75363   7.235  12.340   3.621  0.0373 -0.7644 -0.5032
  559MOL0     C75364   7.365  12.298   3.595 -0.4912  0.3305  0.3903
  559MOL0     O75365   7.427  12.320   3.470 -0.3653 -0.8333 -0.0512
  559MOL0     C75366   7.526  12.418   3.476  0.3549  0.2301 -0.4751
  559MOL0     C75367   7.542  12.487   3.343  0.5397  1.4442 -0.2777
  559MOL0     C75368   7.569  12.381   3.233 -0.3178 -0.7621  0.7585
  559MOL0     C75369   7.702  12.304   3.257 -0.2496 -0.4410  0.0880
  559MOL0     C75370   7.806  12.353   3.152 -0.8605  0.6710 -0.2533
  559MOL0     C75371   7.844  12.492   3.165  0.2931 -0.1934 -0.2384
  559MOL0     C75372   7.948  12.536   3.060  0.1662  0.8807 -0.0717
  559MOL0     C75373   7.923  12.679   3.010 -0.4509 -0.2774  0.0520
  559MOL0    Cl75374   8.022  12.726   2.867 -0.1554  0.3034 -0.1921
  559MOL0     C75375   7.440  12.234   3.694 -0.0968 -0.2649 -0.3300
  559MOL0     C75376   7.389  12.213   3.821 -0.0994  0.1388 -1.3662
  559MOL0     O75377   7.231  12.022   4.003 -0.8011  0.3053  0.7253
  559MOL0     C75378   6.985  12.215   4.176 -1.2578  0.2248 -0.5578
  559MOL0     C75379   6.885  12.181   4.267  0.6134 -0.3608  0.3153
  559MOL0     N75380   6.582  11.372   4.253  0.2515 -0.5552  0.4834
  559MOL0     N75381   6.564  11.255   4.302 -0.1141  0.1997  0.3366
  559MOL0     C75382   6.327  10.351   4.743 -0.2051  0.1923  0.3010
  559MOL0     C75383   6.418  10.239   4.745  0.2969  0.0155  0.6491
  559MOL0     C75384   6.591   9.847   4.927 -0.4604 -0.3704 -0.2349
  559MOL0     C75385   6.540   9.722   4.888 -0.3190  0.1161  0.4406
  559MOL0     C75386   6.599   9.596   4.928 -0.8584 -0.8661  0.1532
  559MOL0     C75387   6.717   9.593   5.009  0.0473 -0.0714 -0.0345
  559MOL0     O75388   6.784   9.484   5.055  0.4018  0.5433  0.4101
  559MOL0     C75389   6.761   9.350   5.006 -0.1803  1.4609 -0.2951
  559MOL0     C75390   6.822   9.327   4.864 -0.2511 -0.0024 -0.4783
  559MOL0     C75391   6.770   9.196   4.795 -0.0836 -0.3347 -0.9846
  559MOL0     C75392   6.813   9.190   4.644  0.0895 -0.5902  0.6170
  559MOL0     C75393   6.789   9.066   4.582 -0.1068  0.8023 -0.6437
  559MOL0     C75394   6.787   8.965   4.511 -0.2103 -0.3742 -0.6842
  559MOL0     C75395   6.764   9.720   5.056 -0.0106  0.6633  0.5507
  559MOL0     C75396   6.709   9.841   5.006 -0.6633 -0.4202 -0.1864
  559MOL0     C75397   6.763   9.971   5.055 -0.3031 -0.1372  1.3350
  559MOL0     H75398   6.464  10.214   5.075 -2.6820  0.2877  0.5552
  559MOL0     H75399   6.316  10.384   5.084  2.4133 -3.0081  1.0604
  559MOL0     H75400   6.130  10.535   5.050  2.1015 -1.4076  0.7315
  559MOL0     H75401   6.280  10.627   5.040 -1.5631  0.7115  2.6948
  559MOL0     H75402   6.077  10.761   5.056  1.5873 -2.3244  1.7149
  559MOL0     H75403   6.037  10.705   4.891  1.5541  0.2567 -1.3284
  559MOL0     H75404   6.306  10.852   4.919  0.5829  2.3611 -1.1541
  559MOL0     H75405   6.147  10.945   4.907  1.5624  1.3804  1.2361
  559MOL0     H75406   6.282  10.756   4.708  1.9452  1.6451 -0.4339
  559MOL0     H75407   6.127  10.828   4.675 -0.2433  1.9500  0.2689
  559MOL0     H75408   6.224  11.055   4.703 -2.1187 -1.7677 -1.0219
  559MOL0     H75409   6.382  10.983   4.726 -0.3437 -0.0860 -0.3590
  559MOL0     H75410   6.393  10.875   4.520 -0.4175 -0.2903 -0.7404
  559MOL0     H75411   6.220  10.914   4.477 -0.1064 -0.7568  1.4288
  559MOL0     H75412   6.284  11.165   4.484 -1.2311 -0.1933 -2.3903
  559MOL0     H75413   6.350  11.060   4.362 -5.0928 -6.0030  0.5817
  559MOL0     H75414   6.493  11.161   4.615  1.4008 -0.1370 -0.6018
  559MOL0     H75415   6.571  11.057   4.493 -3.4831 -3.7830  0.5832
  559MOL0     H75416   6.477  11.431   4.555  2.4994  1.0308 -0.0335
  559MOL0     H75417   6.617  11.610   4.235 -0.2139  0.6584 -0.0958
  559MOL0     H75418   6.457  11.653   4.292  1.5688  2.2635  0.0586
  559MOL0     H75419   6.535  11.697   4.516  0.6337 -3.0991  0.7652
  559MOL0     H75420   6.694  11.649   4.480  2.2128 -0.0599 -1.3666
  559MOL0     H75421   6.528  11.878   4.368 -2.4413 -2.4896 -2.6915
  559MOL0     H75422   6.661  11.846   4.270 -0.4310  0.0959  0.0763
  559MOL0     H75423   6.815  11.860   4.481  0.6052  1.9421  0.3843
  559MOL0     H75424   6.668  11.924   4.556 -1.1702  0.0644 -1.2814
  559MOL0     H75425   6.922  11.857   4.307 -0.1799  0.6652  0.0516
  559MOL0     H75426   7.097  11.887   4.151  0.2212  1.0411 -1.7813
  559MOL0     H75427   7.074  12.322   3.758 -0.3379 -1.7863  0.3906
  559MOL0     H75428   7.178  12.387   3.541  1.2693 -1.7200 -2.0057
  559MOL0     H75429   7.494  12.494   3.548 -1.9827  1.6825 -2.8414
  559MOL0     H75430   7.621  12.376   3.511 -0.2040  0.7196  1.8214
  559MOL0     H75431   7.448  12.537   3.319  1.4827  3.6941  0.4420
  559MOL0     H75432   7.630  12.553   3.348  2.2571 -0.6507 -1.0722
  559MOL0     H75433   7.494  12.302   3.244 -2.1547  0.4596 -2.0910
  559MOL0     H75434   7.552  12.426   3.135 -4.8942  1.8219  2.3928
  559MOL0     H75435   7.677  12.199   3.239 -3.5860 -0.3995  3.1436
  559MOL0     H75436   7.752  12.317   3.353  2.1103 -1.4775 -0.9408
  559MOL0     H75437   7.776  12.329   3.049  0.1683  2.7405 -1.0923
  559MOL0     H75438   7.898  12.294   3.160  0.6406  2.6669 -1.6262
  559MOL0     H75439   7.758  12.558   3.146  0.1920  0.4110  1.9954
  559MOL0     H75440   7.868  12.526   3.267 -0.3264  1.9884 -0.7619
  559MOL0     H75441   7.946  12.473   2.970 -0.4033 -1.6194  1.6019
  559MOL0     H75442   8.051  12.519   3.092 -0.9648 -3.4420  2.0694
  559MOL0     H75443   7.820  12.681   2.975  0.1021 -3.9064 -2.3381
  559MOL0     H75444   7.937  12.750   3.093  0.2391  0.2511 -0.5032
  559MOL0     H75445   7.543  12.200   3.685  0.5840  1.6821 -0.5803
  559MOL0     H75446   7.465  12.192   3.895  0.8824  2.9374 -1.4646
  559MOL0     H75447   7.008  12.319   4.154 -1.6305  1.4277  3.7891
  559MOL0     H75448   6.824  12.264   4.302  0.3742 -1.2039  2.0331
  559MOL0     H75449   6.274  10.395   4.659 -1.4393  2.1218  1.9915
  559MOL0     H75450   6.444  10.187   4.653  0.5845  3.4556 -1.3861
  559MOL0     H75451   6.461   9.725   4.814 -0.9368  2.0088  1.1276
  559MOL0     H75452   6.549   9.509   4.886 -1.9709 -0.1186 -0.1002
  559MOL0     H75453   6.657   9.318   4.996 -0.2049  0.4032  2.6258
  559MOL0     H75454   6.795   9.270   5.072  0.9917 -2.5677 -5.1158
  559MOL0     H75455   6.930   9.311   4.877 -0.5597 -2.0465 -0.0741
  559MOL0     H75456   6.792   9.405   4.794  0.1365 -1.4335 -2.3400
  559MOL0     H75457   6.662   9.179   4.801  0.3706 -4.2994 -1.3659
  559MOL0     H75458   6.815   9.113   4.852 -0.2585  0.4126  0.2781
  559MOL0     H75459   6.757   9.267   4.591  2.9159 -0.6275 -2.7775
  559MOL0     H75460   6.919   9.219   4.636  0.2190 -0.6124  1.9936
  559MOL0     H75461   6.784   8.874   4.455  0.7841 -0.6727 -0.2593
  559MOL0     H75462   6.848   9.717   5.124  0.0129  0.3829  0.5111
  559MOL0     H75463   6.863   9.971   5.100 -0.1807 -2.4172  1.1341
  559MOL0     H75464   6.772  10.041   4.971 -3.0321 -1.1727  0.0855
  559MOL0     H75465   6.684  10.011   5.120 -0.9470  2.2392 -0.7134
  560MOL0     O75466   5.951   7.008   2.908  0.0394  0.0140 -1.1458
  560MOL0     C75467   6.054   7.077   2.943  0.4953  1.2334  0.0107
  560MOL0     O75468   6.185   7.029   2.958  0.1144  0.0987  0.5237
  560MOL0     C75469   6.209   6.900   2.952  0.6735  0.0213  0.1454
  560MOL0     C75470   6.163   6.816   3.053  0.8807 -1.7368  0.3270
  560MOL0     C75471   6.188   6.676   3.046 -0.1525  0.1813  0.2902
  560MOL0     C75472   6.262   6.628   2.942 -0.2450  0.0179  0.0865
  560MOL0     O75473   6.288   6.495   2.962  0.1427  0.3254  0.3978
  560MOL0     C75474   6.251   6.407   2.853  1.0218 -0.1429  0.9084
  560MOL0     C75475   6.162   6.299   2.904  0.3408 -0.2941 -0.1727
  560MOL0     C75476   6.062   6.260   2.789  0.1651 -0.9335  0.2152
  560MOL0     C75477   5.982   6.136   2.819 -1.0589  0.2240 -0.5736
  560MOL0     C75478   5.933   6.051   2.701  0.4075  0.4572 -0.3112
  560MOL0     C75479   5.870   6.137   2.586 -0.1902  0.0219 -1.0137
  560MOL0     C75480   5.803   6.044   2.488 -0.1298 -0.2391  0.0992
  560MOL0     C75481   5.876   5.915   2.444 -0.0740  0.5900 -0.8238
  560MOL0     N75482   5.796   5.835   2.343  0.2300  0.0337 -0.0158
  560MOL0     C75483   5.699   5.736   2.376 -1.0532  0.3925  0.0912
  560MOL0     C75484   5.632   5.721   2.259  1.3157  0.7493  0.0243
  560MOL0     C75485   5.523   5.609   2.242  0.2428 -0.2969  0.4526
  560MOL0     C75486   5.468   5.621   2.098 -0.2226  0.1712  0.1521
  560MOL0     C75487   5.354   5.530   2.075  0.0701 -0.2075 -0.1606
  560MOL0     C75488   5.400   5.402   2.000 -0.2517 -0.6042 -0.1463
  560MOL0     O75489   5.328   5.288   2.049 -0.5234 -0.6031  0.4380
  560MOL0     C75490   5.393   5.194   2.129  0.3717 -0.1763  0.6499
  560MOL0     C75491   5.524   5.205   2.185 -0.2992 -0.6509  0.3207
  560MOL0     C75492   5.583   5.101   2.248 -0.1699  0.3473 -0.0670
  560MOL0     C75493   5.503   4.978   2.268  0.1641 -1.0619 -0.2211
  560MOL0     C75494   5.544   4.872   2.359 -0.6520 -0.4839  0.2390
  560MOL0     O75495   5.463   4.773   2.363 -0.0065 -0.1547 -1.3842
  560MOL0     C75496   5.471   4.685   2.467 -0.2417 -0.7351 -0.3677
  560MOL0     C75497   5.410   4.563   2.447  0.2631  0.6081 -0.0350
  560MOL0     C75498   5.398   4.472   2.549  0.0271 -1.2162  0.0528
  560MOL0     C75499   5.486   4.483   2.655 -0.9070 -0.3151  0.2049
  560MOL0     O75500   5.507   4.363   2.729 -0.1341 -1.1655 -0.3432
  560MOL0     C75501   5.484   4.383   2.870  0.2707  0.3592 -0.9056
  560MOL0     C75502   5.432   4.254   2.945 -0.2478 -0.2750 -0.2876
  560MOL0     C75503   5.284   4.221   2.915  0.4553 -0.1454  1.2561
  560MOL0     C75504   5.283   4.139   2.781 -0.8073 -0.7745 -0.1109
  560MOL0     C75505   5.143   4.113   2.715  0.0943 -0.6206  0.8175
  560MOL0     C75506   5.160   4.081   2.554  0.0373  0.7640 -0.1793
  560MOL0     C75507   5.244   3.962   2.520 -0.4129 -0.4012 -0.3484
  560MOL0     C75508   5.181   3.835   2.577  0.2575 -0.5520  0.0102
  560MOL0    Cl75509   5.009   3.818   2.503  0.4729  0.4722 -0.5462
  560MOL0     C75510   5.555   4.604   2.680 -0.3964  0.7198 -0.1663
  560MOL0     C75511   5.530   4.710   2.595 -0.1907 -0.1601  0.9824
  560MOL0     O75512   5.652   4.882   2.420  0.2099 -0.1139 -0.6418
  560MOL0     C75513   5.369   4.976   2.218  0.0904 -0.0747  0.3901
  560MOL0     C75514   5.321   5.077   2.147 -1.4136 -0.4318  0.0123
  560MOL0     N75515   5.676   5.800   2.161  0.2681 -0.1932  0.2169
  560MOL0     N75516   5.777   5.869   2.213 -0.1715  0.7538 -0.5780
  560MOL0     C75517   6.299   6.704   2.835 -0.2399  0.0663  0.2939
  560MOL0     C75518   6.276   6.841   2.840  0.7750  0.1624 -0.1576
  560MOL0     C75519   6.025   7.222   2.987  0.0281  0.0573 -0.0684
  560MOL0     C75520   5.914   7.291   2.934 -0.0635  0.5880 -0.7431
  560MOL0     C75521   5.901   7.423   2.942 -0.0809 -0.6369 -0.6157
  560MOL0     C75522   5.984   7.516   3.007 -0.5909  0.5500  0.8402
  560MOL0     O75523   5.952   7.644   3.010  0.3340 -0.5053 -0.7396
  560MOL0     C75524   6.053   7.734   2.952 -0.0649 -0.3591  0.1696
  560MOL0     C75525   6.037   7.727   2.796 -0.0819 -0.6776  0.0064
  560MOL0     C75526   6.091   7.855   2.728 -0.3296  0.6331  0.6741
  560MOL0     C75527   6.096   7.840   2.575  0.4192 -0.8766 -1.0464
  560MOL0     C75528   6.159   7.957   2.518 -0.3717 -0.0841  0.3712
  560MOL0     C75529   6.231   8.053   2.494 -0.4967 -0.5970 -0.1045
  560MOL0     C75530   6.092   7.452   3.079  1.2253 -0.2936 -0.8578
  560MOL0     C75531   6.115   7.307   3.062 -0.9702  0.8973 -0.6157
  560MOL0     C75532   6.229   7.242   3.144 -0.5113 -0.6400  0.5498
  560MOL0     H75533   6.122   6.871   3.137 -0.4973 -2.9801  0.5037
  560MOL0     H75534   6.163   6.609   3.127  1.5176  1.0618  1.5954
  560MOL0     H75535   6.202   6.461   2.771  5.1027 -1.0485 -2.5162
  560MOL0     H75536   6.345   6.366   2.815 -0.0178 -0.9540 -0.9472
  560MOL0     H75537   6.099   6.335   2.986 -0.4737  0.6059 -1.1681
  560MOL0     H75538   6.228   6.218   2.937  1.3593  0.5506 -0.0742
  560MOL0     H75539   6.111   6.257   2.691 -1.5720  1.8637 -0.8367
  560MOL0     H75540   5.984   6.332   2.764  0.4547 -1.1161 -1.2905
  560MOL0     H75541   6.059   6.072   2.863 -0.5521  0.7461 -0.6890
  560MOL0     H75542   5.911   6.142   2.903  0.9837  1.1591  1.2019
  560MOL0     H75543   6.018   6.001   2.654 -0.5786 -0.3695 -1.2728
  560MOL0     H75544   5.854   5.989   2.743  0.4066 -0.0368 -1.0276
  560MOL0     H75545   5.797   6.203   2.634 -1.3378 -1.8915  0.0081
  560MOL0     H75546   5.952   6.189   2.534  0.1879 -0.6337 -1.0946
  560MOL0     H75547   5.781   6.099   2.396 -0.2871  0.8295  0.7558
  560MOL0     H75548   5.704   6.018   2.527  0.1546 -1.7193 -0.0962
  560MOL0     H75549   5.971   5.936   2.393 -0.4149  1.8470 -0.9673
  560MOL0     H75550   5.904   5.856   2.532 -3.4675  1.8667  1.3245
  560MOL0     H75551   5.682   5.695   2.475  0.9024  0.1298  0.3490
  560MOL0     H75552   5.558   5.506   2.256 -1.6698 -1.2695 -1.4133
  560MOL0     H75553   5.436   5.632   2.306  0.6303  1.9675  0.2597
  560MOL0     H75554   5.435   5.725   2.093  2.1929  0.9504 -1.4165
  560MOL0     H75555   5.552   5.600   2.031  0.0511  0.0368  0.5288
  560MOL0     H75556   5.277   5.582   2.017 -2.3593 -2.5789  0.7463
  560MOL0     H75557   5.301   5.509   2.168  1.3891 -1.3687  0.3623
  560MOL0     H75558   5.508   5.389   2.002 -0.2585 -0.5505  1.8356
  560MOL0     H75559   5.383   5.417   1.893 -3.6032 -0.2766  0.3061
  560MOL0     H75560   5.587   5.293   2.179  0.3843 -1.0734  1.1355
  560MOL0     H75561   5.679   5.117   2.296  0.1593  1.1773 -0.9838
  560MOL0     H75562   5.347   4.554   2.359  0.5739  3.0372 -0.5802
  560MOL0     H75563   5.347   4.378   2.533 -0.5260 -0.7083 -1.3273
  560MOL0     H75564   5.569   4.426   2.923  1.8193 -1.3455 -1.9038
  560MOL0     H75565   5.407   4.460   2.883  0.6403  0.2877  3.2499
  560MOL0     H75566   5.493   4.163   2.943 -0.2435 -0.3160  1.0427
  560MOL0     H75567   5.442   4.276   3.052  1.3682 -1.4204 -0.1586
  560MOL0     H75568   5.251   4.149   2.991 -0.7461 -0.0366  0.8523
  560MOL0     H75569   5.214   4.299   2.888  1.3539 -0.8232 -3.9847
  560MOL0     H75570   5.337   4.043   2.788  1.0438  0.1418 -0.9691
  560MOL0     H75571   5.332   4.203   2.706 -1.3469  1.5711  1.4395
  560MOL0     H75572   5.072   4.195   2.731  0.9417  0.0720  1.0843
  560MOL0     H75573   5.100   4.026   2.765 -0.0762 -0.5207  0.8455
  560MOL0     H75574   5.061   4.078   2.506  0.5042  0.3199 -1.1399
  560MOL0     H75575   5.207   4.165   2.502  0.3553  0.7348  0.0619
  560MOL0     H75576   5.351   3.971   2.544 -0.9263  0.2864  1.9216
  560MOL0     H75577   5.244   3.952   2.411  2.1335  2.4888 -0.7663
  560MOL0     H75578   5.236   3.740   2.570  3.3926  1.0620  0.9362
  560MOL0     H75579   5.172   3.839   2.686 -3.4143 -0.2300 -0.1901
  560MOL0     H75580   5.631   4.617   2.756  0.7280  2.0313 -1.4476
  560MOL0     H75581   5.562   4.812   2.613 -3.7120  1.3406 -0.4296
  560MOL0     H75582   5.300   4.894   2.234 -0.1052 -0.5939 -2.5678
  560MOL0     H75583   5.227   5.078   2.093 -0.7755 -0.4346 -1.1355
  560MOL0     H75584   6.357   6.671   2.750 -0.1366 -1.5777  0.9697
  560MOL0     H75585   6.312   6.902   2.757 -0.1213  1.1774  0.1840
  560MOL0     H75586   5.842   7.242   2.869 -1.5578 -1.6219  2.3100
  560MOL0     H75587   5.825   7.477   2.886  1.7075  0.6180 -1.9586
  560MOL0     H75588   6.154   7.699   2.977  0.1115  1.7652  3.0657
  560MOL0     H75589   6.040   7.838   2.984 -0.1709  0.2444 -1.7187
  560MOL0     H75590   5.929   7.715   2.781 -0.7576  2.6661  1.4604
  560MOL0     H75591   6.084   7.633   2.765 -1.0435 -1.6870  1.4615
  560MOL0     H75592   6.197   7.861   2.756  0.8985 -0.9019 -2.9487
  560MOL0     H75593   6.028   7.940   2.755 -0.1676  0.1565  2.7057
  560MOL0     H75594   6.154   7.756   2.534 -1.7956 -4.5902  2.6227
  560MOL0     H75595   5.997   7.830   2.530 -0.5391  2.4674  0.0187
  560MOL0     H75596   6.296   8.139   2.494  0.1269 -1.0641  0.2325
  560MOL0     H75597   6.165   7.494   3.146 -2.1778 -0.8936  3.6683
  560MOL0     H75598   6.238   7.304   3.234  2.1134  2.5990 -1.7345
  560MOL0     H75599   6.206   7.140   3.176  0.8864 -0.8593  0.9102
  560MOL0     H75600   6.325   7.232   3.093 -0.3050 -0.7054  0.9469
  561MOL0     O75601   0.999   7.408   4.921 -0.1078  0.2660  0.0934
  561MOL0     C75602   0.934   7.311   4.920 -0.6907  0.3603  0.6659
  561MOL0     O75603   0.953   7.214   5.018  0.2531  0.9801 -0.4722
  561MOL0     C75604   1.065   7.211   5.088  0.5846 -1.0223 -0.5471
  561MOL0     C75605   1.056   7.210   5.230 -0.1402  0.1236  0.4252
  561MOL0     C75606   1.173   7.196   5.305  0.0678  0.0359  0.1644
  561MOL0     C75607   1.295   7.182   5.239 -1.1550  0.1301 -1.2307
  561MOL0     O75608   1.412   7.169   5.310 -0.2235  0.6898 -0.6192
  561MOL0     C75609   1.432   7.051   5.394  0.9247 -0.7746  0.5692
  561MOL0     C75610   1.573   7.033   5.427 -0.1117 -0.1906  0.0017
  561MOL0     C75611   1.626   7.140   5.518 -0.3528 -0.7199  0.3642
  561MOL0     C75612   1.753   7.107   5.607 -0.1906  0.0114 -0.1606
  561MOL0     C75613   1.728   6.994   5.713 -0.4030  0.9282  0.4119
  561MOL0     C75614   1.627   7.017   5.824 -0.3437 -0.1416 -0.5217
  561MOL0     C75615   1.667   6.966   5.973  0.3137  0.0425  0.0451
  561MOL0     C75616   1.764   7.064   6.030  0.3451  0.3511 -0.2338
  561MOL0     N75617   1.809   7.013   6.163  0.6631 -0.3039  0.1240
  561MOL0     C75618   1.754   6.902   6.231 -0.1322 -0.5305 -0.4567
  561MOL0     C75619   1.819   6.912   6.352  0.3104 -0.0507  0.5520
  561MOL0     C75620   1.777   6.811   6.462  1.3073 -0.3536 -0.2888
  561MOL0     C75621   1.769   6.881   6.602 -0.1322 -0.0966 -0.4556
  561MOL0     C75622   1.789   6.765   6.713 -0.7084  0.5190  0.4723
  561MOL0     C75623   1.918   6.669   6.700  0.3432  0.6853  0.4616
  561MOL0     O75624   1.945   6.595   6.822 -0.1630 -1.1824 -0.2444
  561MOL0     C75625   1.995   6.645   6.939  0.3198 -0.5560  0.8668
  561MOL0     C75626   1.977   6.564   7.049  0.6487 -0.1424 -0.0884
  561MOL0     C75627   2.007   6.612   7.177 -0.1026 -0.0134 -0.4255
  561MOL0     C75628   2.063   6.740   7.193  0.0265  0.2473  0.3605
  561MOL0     C75629   2.104   6.765   7.328  0.9121 -0.0671 -0.4311
  561MOL0     O75630   2.207   6.862   7.336 -0.2132  0.6391  0.4526
  561MOL0     C75631   2.260   6.873   7.461 -0.9465  1.0787  0.4592
  561MOL0     C75632   2.192   6.962   7.550  0.2255  1.0487 -0.1340
  561MOL0     C75633   2.216   6.962   7.686  0.5812  0.6862  0.6169
  561MOL0     C75634   2.326   6.880   7.729  0.8721 -0.0857 -0.6808
  561MOL0     O75635   2.354   6.879   7.866  0.0166 -0.2414  0.5222
  561MOL0     C75636   2.486   6.935   7.897  0.6169  0.1436  0.1199
  561MOL0     C75637   2.518   6.911   8.041 -0.5754 -0.0810 -0.8203
  561MOL0     C75638   2.553   6.768   8.076  0.0449  0.3980 -0.0228
  561MOL0     C75639   2.562   6.738   8.220  0.4041 -0.0426 -0.8130
  561MOL0     C75640   2.428   6.708   8.288 -0.3309  0.0616  0.8917
  561MOL0     C75641   2.445   6.667   8.437  0.0758 -0.2803 -0.0321
  561MOL0     C75642   2.468   6.521   8.479 -0.8066 -1.1568  0.7098
  561MOL0     C75643   2.375   6.427   8.393  0.8023  0.4390  0.1809
  561MOL0    Cl75644   2.357   6.272   8.469 -0.2313  0.1856 -0.3304
  561MOL0     C75645   2.398   6.802   7.640 -0.1854  0.2038 -0.3986
  561MOL0     C75646   2.367   6.796   7.513 -0.3401  0.1592  0.0252
  561MOL0     O75647   2.054   6.700   7.419 -0.1856  0.4855 -0.6839
  561MOL0     C75648   2.089   6.821   7.074  0.0305 -0.7994 -0.2419
  561MOL0     C75649   2.050   6.772   6.946 -0.6181  0.7538  0.2852
  561MOL0     N75650   1.918   7.008   6.359  0.1199 -0.7324  0.5987
  561MOL0     N75651   1.921   7.063   6.233  0.5131  0.2028  0.5996
  561MOL0     C75652   1.307   7.188   5.103 -0.6384 -0.3993 -0.9071
  561MOL0     C75653   1.190   7.204   5.024  0.1294  0.0708  0.5042
  561MOL0     C75654   0.828   7.281   4.826  0.0873  0.1725  0.2917
  561MOL0     C75655   0.717   7.371   4.827 -0.1874  0.6676  0.3065
  561MOL0     C75656   0.608   7.344   4.746 -1.3389  0.6423  0.9452
  561MOL0     C75657   0.606   7.244   4.651  0.1965 -0.3491  0.1320
  561MOL0     O75658   0.494   7.225   4.569  0.6219 -0.1375  0.0358
  561MOL0     C75659   0.522   7.220   4.431 -0.0250 -0.4627 -0.7448
  561MOL0     C75660   0.485   7.365   4.380 -0.6625 -1.0149  0.1242
  561MOL0     C75661   0.438   7.372   4.230 -0.1746 -1.0220 -0.9646
  561MOL0     C75662   0.446   7.507   4.169  0.9544 -1.3428 -0.3745
  561MOL0     C75663   0.395   7.497   4.034  0.0577 -0.1350  0.3171
  561MOL0     C75664   0.369   7.455   3.925 -0.0997 -0.0093  1.0257
  561MOL0     C75665   0.704   7.156   4.649 -0.1288  0.6484 -0.4289
  561MOL0     C75666   0.814   7.168   4.745 -0.2947 -0.3728 -0.0626
  561MOL0     C75667   0.927   7.073   4.741  0.1683 -0.2587  0.8688
  561MOL0     H75668   0.959   7.217   5.276  1.1135 -0.7131  3.4304
  561MOL0     H75669   1.153   7.200   5.411 -1.4853  0.7521 -0.1180
  561MOL0     H75670   1.370   7.045   5.484  0.9632 -2.4605  0.5071
  561MOL0     H75671   1.399   6.966   5.334  2.2167 -0.2815 -0.9183
  561MOL0     H75672   1.627   7.040   5.332  0.7579  4.8523  0.6068
  561MOL0     H75673   1.590   6.933   5.469  3.4017 -1.0974 -3.0258
  561MOL0     H75674   1.551   7.174   5.589  2.8414  2.8656  2.3846
  561MOL0     H75675   1.644   7.226   5.452 -0.9023  0.1270  1.2876
  561MOL0     H75676   1.839   7.077   5.545 -0.3870  2.3375 -1.6556
  561MOL0     H75677   1.789   7.202   5.646  0.8076  1.1236 -3.4199
  561MOL0     H75678   1.696   6.901   5.665  1.4377  0.2840  0.3229
  561MOL0     H75679   1.825   6.967   5.758 -0.7453  0.1909  0.7194
  561MOL0     H75680   1.616   7.125   5.830 -0.4581 -0.2252  2.7530
  561MOL0     H75681   1.538   6.963   5.790 -2.3398  2.3229  0.4931
  561MOL0     H75682   1.702   6.862   5.967 -1.1493 -0.4460 -0.5674
  561MOL0     H75683   1.577   6.964   6.036  1.0223 -2.0265  1.0879
  561MOL0     H75684   1.849   7.081   5.964 -0.7884  0.7904 -1.6207
  561MOL0     H75685   1.719   7.159   6.063 -0.8449 -1.1144  2.8172
  561MOL0     H75686   1.676   6.836   6.195  0.7030  0.1775 -3.8761
  561MOL0     H75687   1.675   6.796   6.425  1.8170  2.1080 -3.0373
  561MOL0     H75688   1.838   6.720   6.466 -0.2819 -1.4327  2.4204
  561MOL0     H75689   1.847   6.957   6.605  0.6377 -0.8622 -0.6688
  561MOL0     H75690   1.675   6.937   6.614  0.9942  1.5496  1.0750
  561MOL0     H75691   1.697   6.705   6.708 -1.0431  0.9837  0.9422
  561MOL0     H75692   1.784   6.817   6.808  0.3718  2.3509 -0.4091
  561MOL0     H75693   2.001   6.740   6.693  0.0619  0.7940 -3.8690
  561MOL0     H75694   1.917   6.596   6.619  0.5255 -2.0461  2.7632
  561MOL0     H75695   1.939   6.463   7.037 -0.7041  0.4055 -0.6084
  561MOL0     H75696   1.992   6.545   7.261 -0.3725 -0.3283 -0.7222
  561MOL0     H75697   2.133   7.041   7.505  1.2352  2.6262  1.1979
  561MOL0     H75698   2.163   7.015   7.764 -1.2729 -0.6809  0.3530
  561MOL0     H75699   2.568   6.901   7.833  1.1203  2.5825 -0.6524
  561MOL0     H75700   2.471   7.043   7.884 -2.3769 -0.1866 -0.0254
  561MOL0     H75701   2.603   6.975   8.067  0.0463 -1.1069 -0.2514
  561MOL0     H75702   2.429   6.943   8.096  1.2998  0.3617  2.1255
  561MOL0     H75703   2.516   6.689   8.010  3.5241 -0.6736 -0.9058
  561MOL0     H75704   2.657   6.769   8.042 -0.9207  4.1560 -3.7529
  561MOL0     H75705   2.636   6.791   8.280  1.6378 -1.5851 -0.9214
  561MOL0     H75706   2.615   6.644   8.207  0.7014  0.2502 -1.8348
  561MOL0     H75707   2.362   6.646   8.227 -3.4651  2.2111  1.8052
  561MOL0     H75708   2.376   6.804   8.277  0.2215  0.0724 -2.7393
  561MOL0     H75709   2.537   6.718   8.465 -0.0421  0.1974 -0.4850
  561MOL0     H75710   2.358   6.707   8.488 -0.0915 -3.0165  2.0689
  561MOL0     H75711   2.447   6.523   8.586 -0.5115  1.8287  0.7981
  561MOL0     H75712   2.575   6.500   8.472 -0.4386 -0.4095  3.1946
  561MOL0     H75713   2.274   6.465   8.376  0.9684  0.1607 -1.5883
  561MOL0     H75714   2.418   6.410   8.294 -2.2227  0.2055 -1.1953
  561MOL0     H75715   2.481   6.743   7.678 -0.1706  0.6828  0.3133
  561MOL0     H75716   2.414   6.724   7.447 -1.7934  1.8641 -3.1394
  561MOL0     H75717   2.142   6.916   7.065  0.3578 -1.0997 -1.7885
  561MOL0     H75718   2.064   6.839   6.862  0.1672 -0.3405 -0.4807
  561MOL0     H75719   1.404   7.194   5.055  1.0492 -1.3911  2.1340
  561MOL0     H75720   1.200   7.207   4.916 -1.7591 -6.5654 -0.2979
  561MOL0     H75721   0.708   7.451   4.900 -0.7662 -0.1207  1.1183
  561MOL0     H75722   0.516   7.395   4.771 -3.2365 -0.7195 -2.4921
  561MOL0     H75723   0.489   7.125   4.388  2.1206 -1.8060  0.3969
  561MOL0     H75724   0.629   7.225   4.406 -0.4878  0.0673 -2.8423
  561MOL0     H75725   0.574   7.427   4.391 -0.9024 -0.4534 -0.9598
  561MOL0     H75726   0.405   7.411   4.439  1.1916 -0.6798  2.5075
  561MOL0     H75727   0.344   7.319   4.210 -1.2052 -0.0694  1.0419
  561MOL0     H75728   0.520   7.323   4.178 -0.5527 -0.5608 -2.0186
  561MOL0     H75729   0.393   7.579   4.233 -0.3487 -1.4624 -1.2702
  561MOL0     H75730   0.549   7.540   4.156  0.8190 -1.6556 -2.6823
  561MOL0     H75731   0.332   7.428   3.828 -2.6315  2.3104  1.2382
  561MOL0     H75732   0.694   7.071   4.581 -1.1708  1.5859 -1.5048
  561MOL0     H75733   1.025   7.103   4.779 -0.5093 -0.4584  2.9248
  561MOL0     H75734   0.913   6.982   4.800 -2.2749  1.0977  2.5576
  561MOL0     H75735   0.932   7.041   4.637 -1.4442  0.4021  0.5557
  562MOL0     O75736   5.566  10.777   8.510 -0.0157 -0.0461  0.7296
  562MOL0     C75737   5.545  10.657   8.538 -0.7010 -0.4184 -0.2395
  562MOL0     O75738   5.603  10.594   8.639 -0.0305 -0.0240 -0.4290
  562MOL0     C75739   5.699  10.657   8.714  0.0778  0.9955 -0.1054
  562MOL0     C75740   5.699  10.649   8.854  0.9372  0.6199  0.2697
  562MOL0     C75741   5.786  10.707   8.936 -0.7489  0.0417  0.0992
  562MOL0     C75742   5.902  10.769   8.882 -0.2739  0.8471  0.3924
  562MOL0     O75743   6.004  10.829   8.947 -0.1073  0.1410 -0.3309
  562MOL0     C75744   6.064  10.754   9.059 -0.1458 -0.4859  0.3939
  562MOL0     C75745   6.196  10.818   9.109 -0.2544  0.4575 -0.8010
  562MOL0     C75746   6.186  10.961   9.155  0.3714 -0.7426  0.2954
  562MOL0     C75747   6.300  10.985   9.256  0.6053 -0.0753 -0.0755
  562MOL0     C75748   6.263  11.120   9.323 -0.1039  0.1741 -1.1299
  562MOL0     C75749   6.389  11.176   9.391 -0.3892  0.5694 -0.2433
  562MOL0     C75750   6.363  11.303   9.455  0.0463 -0.5980  0.0187
  562MOL0     C75751   6.497  11.380   9.473  0.4732  0.0853 -0.2375
  562MOL0     N75752   6.572  11.408   9.350  0.1604  0.5857  0.1807
  562MOL0     C75753   6.530  11.484   9.247  0.0629 -0.0001  0.2380
  562MOL0     C75754   6.635  11.475   9.161 -0.0376 -0.0199  0.0201
  562MOL0     C75755   6.639  11.545   9.026  0.4890  0.0648 -0.6831
  562MOL0     C75756   6.726  11.675   9.036  0.8479  0.3033  0.5620
  562MOL0     C75757   6.646  11.786   9.115 -0.5514  0.9708 -1.0305
  562MOL0     C75758   6.706  11.930   9.100 -0.6117  0.9941  0.8852
  562MOL0     O75759   6.643  11.999   8.987 -0.7822  1.1943  0.0178
  562MOL0     C75760   6.527  12.069   9.009 -0.0150  0.2595  0.2697
  562MOL0     C75761   6.440  12.052   9.114  0.5500 -0.2124 -0.4187
  562MOL0     C75762   6.329  12.130   9.126  0.2966 -0.8097  0.7547
  562MOL0     C75763   6.297  12.222   9.036 -0.0580  0.4107 -0.2662
  562MOL0     C75764   6.176  12.316   9.037 -0.2368 -0.2087 -0.3664
  562MOL0     O75765   6.189  12.440   8.987  1.3310  0.2461  0.3301
  562MOL0     C75766   6.097  12.545   9.009 -0.6619 -0.0613  0.5040
  562MOL0     C75767   6.104  12.655   8.919  1.4685 -0.0682  0.5456
  562MOL0     C75768   6.012  12.766   8.930 -0.7995 -0.0872  0.2228
  562MOL0     C75769   5.912  12.772   9.027  0.5431 -0.1052  1.0274
  562MOL0     O75770   5.831  12.875   9.048 -0.5661  0.4145  1.1331
  562MOL0     C75771   5.881  13.006   9.026 -0.5860  1.2199  0.9485
  562MOL0     C75772   5.776  13.118   9.027 -0.3354  0.4913  0.5818
  562MOL0     C75773   5.705  13.125   9.169  1.3150  0.6652  0.9517
  562MOL0     C75774   5.581  13.050   9.147  1.0664  0.6493 -0.0331
  562MOL0     C75775   5.493  13.040   9.273  0.0968 -1.1629 -0.9165
  562MOL0     C75776   5.450  13.170   9.336  0.0494 -0.0879  0.3213
  562MOL0     C75777   5.311  13.153   9.402  0.1113 -0.0019 -0.5244
  562MOL0     C75778   5.189  13.177   9.301  1.0168  0.5392 -0.2075
  562MOL0    Cl75779   5.182  13.352   9.278  0.1288  0.1972  0.3060
  562MOL0     C75780   5.908  12.668   9.120  0.1554 -0.4528 -0.1508
  562MOL0     C75781   6.004  12.561   9.117  0.0155  0.3020  0.3820
  562MOL0     O75782   6.078  12.274   9.087 -0.4351  0.0521  0.3415
  562MOL0     C75783   6.383  12.239   8.920  1.2230 -0.0804  0.0697
  562MOL0     C75784   6.495  12.162   8.911  0.0335 -0.9485  0.2683
  562MOL0     N75785   6.733  11.402   9.206 -1.3341  0.1695 -0.1776
  562MOL0     N75786   6.704  11.370   9.327 -0.3220 -0.8848  0.3738
  562MOL0     C75787   5.902  10.779   8.741  0.4104  0.0200 -0.2883
  562MOL0     C75788   5.805  10.723   8.657  0.7952 -0.3358  0.5539
  562MOL0     C75789   5.455  10.582   8.446 -0.5679 -0.1381  0.6213
  562MOL0     C75790   5.425  10.451   8.482  0.3979  0.3459 -0.9345
  562MOL0     C75791   5.315  10.387   8.422 -0.2142  0.2078 -0.9294
  562MOL0     C75792   5.235  10.454   8.323 -0.0287  0.7013 -0.4884
  562MOL0     O75793   5.133  10.391   8.262  0.1540  0.2853  0.9930
  562MOL0     C75794   5.132  10.253   8.246  0.4243  0.6600  0.3226
  562MOL0     C75795   5.002  10.209   8.177  0.1681  1.7058 -0.6453
  562MOL0     C75796   5.008  10.058   8.140 -0.2995 -0.5532  0.5312
  562MOL0     C75797   4.885   9.991   8.099  0.2207 -0.6018  0.4272
  562MOL0     C75798   4.796   9.979   8.212  1.0468 -0.7619 -0.2520
  562MOL0     C75799   4.722   9.963   8.303  0.1752  0.0537  0.1314
  562MOL0     C75800   5.264  10.585   8.297  0.1310 -0.7151  0.6318
  562MOL0     C75801   5.378  10.652   8.345  0.3086 -0.1727  0.2470
  562MOL0     C75802   5.395  10.792   8.293  0.2224  0.0439 -0.4211
  562MOL0     H75803   5.611  10.596   8.891  0.9420  0.8363  0.5941
  562MOL0     H75804   5.791  10.715   9.044  1.2370  0.6022  0.0126
  562MOL0     H75805   6.003  10.749   9.150 -1.7084 -0.1487 -0.6051
  562MOL0     H75806   6.079  10.657   9.011 -0.3483  0.0198 -0.7311
  562MOL0     H75807   6.274  10.814   9.032  0.6196  0.2931  0.0680
  562MOL0     H75808   6.222  10.763   9.200 -0.1535  4.4498  1.8593
  562MOL0     H75809   6.095  10.988   9.208  0.6085 -1.2977  1.0143
  562MOL0     H75810   6.198  11.038   9.079  1.4834 -1.0088  0.1798
  562MOL0     H75811   6.321  10.907   9.330  2.3948  0.6412  0.2108
  562MOL0     H75812   6.386  11.000   9.190  1.6581 -3.0769  0.4257
  562MOL0     H75813   6.233  11.190   9.245  0.6233 -0.4451 -1.9807
  562MOL0     H75814   6.180  11.100   9.391 -0.2367  1.0500 -1.0260
  562MOL0     H75815   6.427  11.111   9.470  1.0381  1.4456 -0.1711
  562MOL0     H75816   6.466  11.185   9.314  0.9642 -0.8849  0.8667
  562MOL0     H75817   6.326  11.284   9.557 -0.3569 -5.6469 -0.8040
  562MOL0     H75818   6.300  11.375   9.403 -0.0744 -1.4412 -1.0403
  562MOL0     H75819   6.462  11.474   9.515 -5.4061 -0.3201 -3.1331
  562MOL0     H75820   6.554  11.320   9.545 -1.5507  0.9901  2.2548
  562MOL0     H75821   6.436  11.538   9.237  0.4638  0.9315  1.3404
  562MOL0     H75822   6.688  11.483   8.950  2.1005 -0.0471  0.3963
  562MOL0     H75823   6.541  11.575   8.987  0.6869 -0.8186 -1.9335
  562MOL0     H75824   6.811  11.650   9.100  0.4398 -2.0255  0.2883
  562MOL0     H75825   6.757  11.702   8.934 -3.4227 -1.2949 -1.3958
  562MOL0     H75826   6.645  11.759   9.221  0.5625 -1.4775 -1.5830
  562MOL0     H75827   6.543  11.779   9.079 -0.4443 -0.5233 -1.0894
  562MOL0     H75828   6.816  11.929   9.096 -0.6249  0.3606  0.5017
  562MOL0     H75829   6.678  11.991   9.186 -3.5476  0.4661  0.4141
  562MOL0     H75830   6.467  11.981   9.191 -0.3166 -1.5444 -1.3054
  562MOL0     H75831   6.265  12.130   9.214 -0.6285  1.5969  0.1714
  562MOL0     H75832   6.169  12.643   8.833  0.9507 -2.1709  0.3963
  562MOL0     H75833   6.028  12.851   8.865  0.2439 -0.1559  0.3749
  562MOL0     H75834   5.957  13.014   9.103  1.7934  0.9009 -1.2188
  562MOL0     H75835   5.941  13.024   8.936  1.2380  1.2232  2.1349
  562MOL0     H75836   5.826  13.214   9.008 -1.5612  0.9478 -0.4107
  562MOL0     H75837   5.711  13.106   8.940 -1.0983 -0.8787  1.3188
  562MOL0     H75838   5.764  13.096   9.256  0.5915  2.5882  2.1355
  562MOL0     H75839   5.673  13.227   9.191  0.4531 -0.0349  3.2364
  562MOL0     H75840   5.611  12.946   9.128  2.0387  0.7581  0.7543
  562MOL0     H75841   5.523  13.089   9.064 -2.2182 -0.4971  1.5289
  562MOL0     H75842   5.543  12.983   9.352 -2.7870  2.1074  3.7930
  562MOL0     H75843   5.409  12.980   9.237 -1.0512  0.2401 -0.6520
  562MOL0     H75844   5.527  13.204   9.406  0.0869 -1.6656  1.0998
  562MOL0     H75845   5.448  13.251   9.262 -1.2807  3.0444  3.4715
  562MOL0     H75846   5.298  13.219   9.488  3.3467 -0.0590  0.1209
  562MOL0     H75847   5.308  13.049   9.435 -2.8561  1.2320  4.0238
  562MOL0     H75848   5.203  13.114   9.213  1.8836 -0.9487  0.9457
  562MOL0     H75849   5.092  13.146   9.339 -0.3628  2.3929 -2.0105
  562MOL0     H75850   5.847  12.674   9.209 -1.0847 -2.6471 -0.7778
  562MOL0     H75851   6.004  12.486   9.196  0.6885  1.6966  1.7520
  562MOL0     H75852   6.356  12.321   8.854 -1.9195  1.1431  2.6088
  562MOL0     H75853   6.552  12.177   8.819  0.7461 -0.6396  0.7547
  562MOL0     H75854   5.993  10.821   8.698  0.5702  0.6470  0.6195
  562MOL0     H75855   5.799  10.734   8.549 -2.5071 -1.9996  0.4228
  562MOL0     H75856   5.476  10.391   8.557 -2.5957 -1.3984 -0.1363
  562MOL0     H75857   5.288  10.286   8.451 -1.9433  0.9630  0.2454
  562MOL0     H75858   5.129  10.208   8.345 -1.6575  2.6071  1.2403
  562MOL0     H75859   5.209  10.206   8.184 -2.0849 -1.3656 -1.5135
  562MOL0     H75860   4.992  10.270   8.087  0.8447 -0.1692 -2.0683
  562MOL0     H75861   4.914  10.225   8.239 -0.8256 -0.1227 -1.5161
  562MOL0     H75862   5.043  10.005   8.229 -1.3675 -2.9425 -0.3865
  562MOL0     H75863   5.086  10.047   8.064  0.3336 -0.6544  1.1847
  562MOL0     H75864   4.830  10.027   8.012 -1.6004 -0.4527  1.5725
  562MOL0     H75865   4.921   9.890   8.076 -1.2486 -0.2470 -4.4951
  562MOL0     H75866   4.652   9.946   8.382 -1.2588 -1.1417 -1.3344
  562MOL0     H75867   5.211  10.630   8.213  2.5772 -2.1492 -1.8560
  562MOL0     H75868   5.372  10.797   8.187  2.9222  0.4293 -1.0745
  562MOL0     H75869   5.351  10.870   8.356  1.1708 -1.7273  2.6314
  562MOL0     H75870   5.501  10.822   8.291 -0.5239  2.9788 -2.2126
  563MOL0     O75871   1.035   6.278   5.401  0.5036  0.2664 -0.6335
  563MOL0     C75872   0.928   6.331   5.419 -0.3239 -0.2477 -0.7097
  563MOL0     O75873   0.847   6.369   5.314  0.1183  0.6014  0.5068
  563MOL0     C75874   0.889   6.332   5.189 -0.1779 -0.1505 -0.5419
  563MOL0     C75875   0.931   6.205   5.153 -0.4514  1.0318 -0.0298
  563MOL0     C75876   0.997   6.176   5.031  0.2012 -0.4694 -0.1505
  563MOL0     C75877   1.020   6.279   4.940 -0.6885 -0.0171 -0.1866
  563MOL0     O75878   1.096   6.252   4.830  0.0927  0.3178  0.6464
  563MOL0     C75879   1.106   6.353   4.731  0.3160 -0.3342  0.2310
  563MOL0     C75880   1.168   6.277   4.605 -0.2955  0.1917  0.3474
  563MOL0     C75881   1.280   6.354   4.533 -0.4579 -0.0200 -0.0062
  563MOL0     C75882   1.257   6.479   4.456  0.8287  0.0943  0.1246
  563MOL0     C75883   1.164   6.460   4.325  0.3236  0.4234 -0.1982
  563MOL0     C75884   1.186   6.570   4.226 -0.2937 -0.3230  1.1786
  563MOL0     C75885   1.095   6.573   4.100  0.0568 -0.8664 -0.1743
  563MOL0     C75886   1.095   6.446   4.031  0.3393 -0.4178 -0.4438
  563MOL0     N75887   1.026   6.466   3.907  0.5935 -0.2364  0.1002
  563MOL0     C75888   1.069   6.413   3.786  0.7276 -0.2377  0.9957
  563MOL0     C75889   0.981   6.462   3.694  0.4759  0.0613  0.6027
  563MOL0     C75890   0.991   6.460   3.539  0.3396 -0.6010  0.3133
  563MOL0     C75891   0.863   6.523   3.467 -0.0892  1.5415 -0.0945
  563MOL0     C75892   0.842   6.483   3.312 -0.0809  0.2724 -0.1717
  563MOL0     C75893   0.964   6.523   3.225 -0.3686  0.1016  0.6358
  563MOL0     O75894   0.937   6.526   3.086  0.0274  0.1405  0.0661
  563MOL0     C75895   1.028   6.510   2.981  0.8897 -0.1470 -0.3138
  563MOL0     C75896   1.165   6.528   3.004  1.5673  0.5397 -0.4109
  563MOL0     C75897   1.256   6.537   2.902 -0.3318  0.0417 -0.3074
  563MOL0     C75898   1.211   6.537   2.768  0.1549  0.2566 -0.3106
  563MOL0     C75899   1.303   6.562   2.647  0.1853 -0.1515  0.2314
  563MOL0     O75900   1.430   6.508   2.652  0.3851 -0.4512 -0.0028
  563MOL0     C75901   1.537   6.547   2.571  0.8680  0.8809  0.5022
  563MOL0     C75902   1.575   6.683   2.548  1.1295  0.3336  0.5909
  563MOL0     C75903   1.695   6.698   2.479 -0.3425 -0.7467 -0.8138
  563MOL0     C75904   1.783   6.602   2.444  0.0497  0.2674 -0.4697
  563MOL0     O75905   1.901   6.613   2.388 -0.5551  0.1058 -0.1763
  563MOL0     C75906   1.916   6.721   2.296 -1.3567  0.3029 -0.6564
  563MOL0     C75907   1.999   6.670   2.179 -0.0763  0.5208 -1.8288
  563MOL0     C75908   2.046   6.789   2.096  0.2847 -0.5847 -0.7281
  563MOL0     C75909   2.134   6.737   1.978  0.5233 -0.6111  0.1553
  563MOL0     C75910   2.275   6.682   2.013 -0.2323 -0.5993 -0.2655
  563MOL0     C75911   2.388   6.727   1.910  0.6191  0.2403  0.3988
  563MOL0     C75912   2.530   6.656   1.930 -0.0002  0.4813 -0.0192
  563MOL0     C75913   2.625   6.702   1.813  0.4827  0.5357  0.3444
  563MOL0    Cl75914   2.717   6.857   1.848  0.4818 -0.3753  0.0717
  563MOL0     C75915   1.748   6.476   2.496  0.2925 -0.1218  0.0386
  563MOL0     C75916   1.623   6.441   2.547  0.0063  0.3213  0.7547
  563MOL0     O75917   1.256   6.641   2.559 -0.1919 -1.2804  0.1603
  563MOL0     C75918   1.071   6.519   2.743  0.1079 -0.3150  0.3148
  563MOL0     C75919   0.984   6.490   2.850  0.1929  0.4375  0.3954
  563MOL0     N75920   0.900   6.556   3.760  1.2614 -0.4227 -0.7606
  563MOL0     N75921   0.921   6.559   3.887 -0.8302 -0.0622  1.1661
  563MOL0     C75922   0.976   6.411   4.974 -1.0403 -0.5532 -0.9740
  563MOL0     C75923   0.900   6.434   5.095  0.2707  0.9679  1.0719
  563MOL0     C75924   0.900   6.365   5.561  0.0815  1.0548  0.3251
  563MOL0     C75925   0.768   6.371   5.596 -0.2710 -1.1259  0.2080
  563MOL0     C75926   0.728   6.427   5.716 -0.1028  0.1422  0.5073
  563MOL0     C75927   0.827   6.468   5.806 -0.4261  1.1882 -0.3184
  563MOL0     O75928   0.768   6.543   5.907 -0.6974 -0.4345 -0.1231
  563MOL0     C75929   0.840   6.639   5.979  0.0645 -0.9263 -0.6580
  563MOL0     C75930   0.828   6.634   6.133  0.2068 -0.7394  0.5028
  563MOL0     C75931   0.869   6.502   6.192 -0.1547 -0.6160 -0.4338
  563MOL0     C75932   0.781   6.491   6.331 -0.5564 -0.1758 -0.8416
  563MOL0     C75933   0.807   6.360   6.400  0.3167  1.1032 -0.1881
  563MOL0     C75934   0.804   6.261   6.458  0.8224 -0.0451  0.0796
  563MOL0     C75935   0.962   6.447   5.781 -0.8526  0.4062 -0.1291
  563MOL0     C75936   1.002   6.386   5.659  1.0012 -0.1370  0.4642
  563MOL0     C75937   1.152   6.364   5.640 -0.1880 -0.5379  0.7910
  563MOL0     H75938   0.923   6.113   5.210 -0.1776 -1.5384 -3.7740
  563MOL0     H75939   1.032   6.079   4.997  2.7010 -0.5017  2.1536
  563MOL0     H75940   1.011   6.399   4.701  0.8952  1.0011  0.3588
  563MOL0     H75941   1.173   6.431   4.768 -0.1493 -0.8500  2.3155
  563MOL0     H75942   1.089   6.266   4.531 -1.8393  1.3620  1.7526
  563MOL0     H75943   1.192   6.177   4.643  0.1697  1.8115  4.9093
  563MOL0     H75944   1.335   6.293   4.460 -1.0294 -1.6682  0.8884
  563MOL0     H75945   1.357   6.371   4.609  1.9659 -1.6611 -1.9093
  563MOL0     H75946   1.210   6.560   4.514  1.6437 -0.4054  1.5324
  563MOL0     H75947   1.358   6.511   4.428  1.6087  0.9880  3.4817
  563MOL0     H75948   1.188   6.367   4.273 -2.3497  1.0131 -2.7880
  563MOL0     H75949   1.069   6.461   4.380  0.6912  0.7902  0.4494
  563MOL0     H75950   1.185   6.667   4.277 -2.1649 -0.7679  2.0896
  563MOL0     H75951   1.288   6.564   4.186 -0.7402 -0.2556  0.0025
  563MOL0     H75952   1.143   6.655   4.046  1.1931 -1.1812  0.3274
  563MOL0     H75953   0.997   6.601   4.140  0.2990  2.5290 -1.6311
  563MOL0     H75954   1.199   6.415   4.018  0.5401  0.7468 -1.8146
  563MOL0     H75955   1.041   6.367   4.085  1.2411 -1.9320 -1.6737
  563MOL0     H75956   1.152   6.345   3.771  0.0662 -0.9430  0.4807
  563MOL0     H75957   1.080   6.517   3.511 -1.4837  3.1942  1.6961
  563MOL0     H75958   0.998   6.354   3.511  0.1823 -0.3111 -0.9091
  563MOL0     H75959   0.777   6.495   3.529  2.8081 -4.0647  2.1666
  563MOL0     H75960   0.872   6.632   3.467 -1.5676  1.6914 -0.2657
  563MOL0     H75961   0.756   6.535   3.268 -1.0416 -2.1254 -1.2849
  563MOL0     H75962   0.824   6.375   3.317 -2.3766  0.6278  0.1987
  563MOL0     H75963   1.053   6.462   3.245  0.3232 -0.4195 -3.3697
  563MOL0     H75964   0.998   6.625   3.247  1.1771 -0.1464 -0.4441
  563MOL0     H75965   1.201   6.523   3.106 -3.8578 -1.3093  1.7882
  563MOL0     H75966   1.362   6.533   2.925 -0.1036 -2.1887 -1.4204
  563MOL0     H75967   1.500   6.760   2.563  1.0465  0.7578 -1.6507
  563MOL0     H75968   1.713   6.799   2.446  1.3567  0.1227  2.3015
  563MOL0     H75969   1.821   6.752   2.251 -1.2757  0.2718 -0.8499
  563MOL0     H75970   1.974   6.803   2.339  0.4921 -1.5902  0.6387
  563MOL0     H75971   2.085   6.621   2.225 -0.5265  1.1884 -0.2073
  563MOL0     H75972   1.953   6.594   2.114 -0.0604 -0.0382 -1.1930
  563MOL0     H75973   1.962   6.846   2.056 -0.2337 -2.0204 -1.7664
  563MOL0     H75974   2.115   6.853   2.153  0.9071 -0.7449 -1.2928
  563MOL0     H75975   2.137   6.821   1.907  1.1070  1.1832  2.1731
  563MOL0     H75976   2.072   6.662   1.928  2.2126 -2.9449  1.3599
  563MOL0     H75977   2.279   6.573   2.024 -1.4772 -0.4763  1.7647
  563MOL0     H75978   2.297   6.734   2.107 -1.4684  1.9929 -1.3053
  563MOL0     H75979   2.354   6.703   1.809 -2.4407 -1.6810  1.7548
  563MOL0     H75980   2.413   6.833   1.922  0.6843  0.1468  1.1826
  563MOL0     H75981   2.523   6.548   1.914 -3.6306  0.2578  1.9496
  563MOL0     H75982   2.573   6.671   2.030  0.7315  1.2964 -0.4356
  563MOL0     H75983   2.699   6.623   1.800 -0.8022 -0.4517 -1.4492
  563MOL0     H75984   2.561   6.707   1.724  0.4567 -1.0160  0.2542
  563MOL0     H75985   1.825   6.401   2.484  0.7254  0.3864 -0.4148
  563MOL0     H75986   1.590   6.342   2.578 -0.4513 -0.1212 -1.0432
  563MOL0     H75987   1.024   6.508   2.645  1.1649  0.1861 -0.2658
  563MOL0     H75988   0.882   6.462   2.823 -0.3051  1.5080  1.0913
  563MOL0     H75989   1.005   6.490   4.906  1.9219 -1.3174 -0.7431
  563MOL0     H75990   0.857   6.531   5.120 -0.8536  0.3103  1.8020
  563MOL0     H75991   0.683   6.353   5.531  0.4155 -1.3978 -0.6263
  563MOL0     H75992   0.621   6.442   5.723 -0.3665 -0.9616 -0.6204
  563MOL0     H75993   0.808   6.737   5.940  1.4773 -0.0551  0.2890
  563MOL0     H75994   0.945   6.643   5.950  0.3601  0.7057  0.4696
  563MOL0     H75995   0.723   6.656   6.157 -0.2722 -2.2943 -0.0320
  563MOL0     H75996   0.899   6.708   6.171  1.4427 -1.0410 -1.1283
  563MOL0     H75997   0.976   6.490   6.208  0.0100  1.9896  0.9122
  563MOL0     H75998   0.839   6.414   6.134  0.7079 -0.7539 -0.6748
  563MOL0     H75999   0.802   6.570   6.404 -2.3859  1.3746 -1.9179
  563MOL0     H76000   0.676   6.517   6.312 -1.1202  2.0730  3.9106
  563MOL0     H76001   0.799   6.161   6.496 -2.5604 -1.4056 -3.2833
  563MOL0     H76002   1.038   6.480   5.851  1.4767 -1.7179 -1.4613
  563MOL0     H76003   1.183   6.425   5.554 -1.2703 -0.4826  0.4272
  563MOL0     H76004   1.218   6.373   5.727 -0.5591  1.2366  0.9239
  563MOL0     H76005   1.164   6.261   5.604 -0.7210 -0.0621 -0.8736
  564MOL0     O76006   0.713   0.251   3.138  0.2300  0.2898 -0.6397
  564MOL0     C76007   0.688   0.172   3.046 -0.1915  0.7942  0.0208
  564MOL0     O76008   0.659   0.204   2.906  0.3855  0.9666 -0.2981
  564MOL0     C76009   0.657   0.340   2.870  0.3909 -0.0355 -0.2740
  564MOL0     C76010   0.749   0.440   2.918 -0.0050 -0.2122 -0.2987
  564MOL0     C76011   0.738   0.576   2.874  0.5457 -0.0973  0.3567
  564MOL0     C76012   0.643   0.613   2.775 -1.2083  0.2250  0.1815
  564MOL0     O76013   0.637   0.741   2.728  0.2689 -0.1538 -0.0282
  564MOL0     C76014   0.622   0.846   2.823 -1.1118 -1.7315  0.1301
  564MOL0     C76015   0.497   0.846   2.900  0.3592  0.1726 -0.2407
  564MOL0     C76016   0.446   0.988   2.945 -0.0738 -0.4725 -0.0083
  564MOL0     C76017   0.321   1.039   2.888 -1.4738  0.4916 -0.0623
  564MOL0     C76018   0.303   1.178   2.944 -0.0045 -1.1637  0.5698
  564MOL0     C76019   0.178   1.239   2.872 -0.0380 -0.1388 -0.0437
  564MOL0     C76020   0.048   1.164   2.923 -0.8328 -0.5317 -0.2994
  564MOL0     C76021  -0.074   1.252   2.889  0.5021 -0.5815 -0.0117
  564MOL0     N76022  -0.206   1.191   2.929 -0.5255  0.5982 -0.6319
  564MOL0     C76023  -0.246   1.160   3.063  0.4724  0.2719  0.1532
  564MOL0     C76024  -0.316   1.047   3.056 -0.6793  0.4599 -0.4532
  564MOL0     C76025  -0.383   0.979   3.176 -0.7810 -0.8117 -1.0944
  564MOL0     C76026  -0.291   0.871   3.242 -0.2756 -0.6228 -0.1643
  564MOL0     C76027  -0.352   0.823   3.379 -0.0439 -0.4063  0.2298
  564MOL0     C76028  -0.366   0.929   3.487 -0.5054 -0.5058  0.2610
  564MOL0     O76029  -0.241   1.006   3.511  0.8905 -1.0841 -0.6463
  564MOL0     C76030  -0.247   1.105   3.620 -0.3297 -0.5669  1.0289
  564MOL0     C76031  -0.245   1.053   3.752  1.2566  0.0861  0.7455
  564MOL0     C76032  -0.234   1.143   3.855 -0.5674  0.2802 -0.4746
  564MOL0     C76033  -0.237   1.287   3.843  0.2686  0.3064  0.8325
  564MOL0     C76034  -0.225   1.379   3.958 -0.5409 -1.0020  0.7352
  564MOL0     O76035  -0.176   1.505   3.934  0.8657  0.8062 -0.1528
  564MOL0     C76036  -0.191   1.588   4.045  0.0749  0.4715 -0.6820
  564MOL0     C76037  -0.113   1.592   4.164  0.1845  0.1616 -0.1063
  564MOL0     C76038  -0.144   1.672   4.274 -0.8881 -0.2404  0.1027
  564MOL0     C76039  -0.249   1.768   4.253 -0.3344 -0.0708  1.9569
  564MOL0     O76040  -0.258   1.867   4.349 -0.1560 -0.4372 -0.4992
  564MOL0     C76041  -0.342   1.977   4.331 -0.4291  0.2806 -0.4784
  564MOL0     C76042  -0.339   2.057   4.464 -0.3986  0.8409 -0.8679
  564MOL0     C76043  -0.202   2.112   4.510 -0.8749  0.3096  0.2736
  564MOL0     C76044  -0.140   2.222   4.420  0.3712 -0.7907 -0.4935
  564MOL0     C76045  -0.007   2.283   4.480  1.2149  0.6190  0.7514
  564MOL0     C76046  -0.013   2.380   4.597 -0.2915 -0.9637  0.2353
  564MOL0     C76047   0.129   2.440   4.619 -0.8972 -0.3187  0.2225
  564MOL0     C76048   0.144   2.596   4.627 -0.4031  1.0702 -0.2090
  564MOL0    Cl76049   0.182   2.655   4.470 -0.3232 -0.0322  0.6174
  564MOL0     C76050  -0.338   1.753   4.144  0.1126  0.6684 -0.0731
  564MOL0     C76051  -0.319   1.650   4.042 -0.4899 -0.0558  0.7346
  564MOL0     O76052  -0.265   1.332   4.068 -0.0011  0.8779  0.1172
  564MOL0     C76053  -0.241   1.330   3.704 -0.2001 -0.4308 -0.3431
  564MOL0     C76054  -0.240   1.246   3.598  1.0046  0.6263 -1.0969
  564MOL0     N76055  -0.331   1.021   2.922 -0.4158 -1.1205  0.6723
  564MOL0     N76056  -0.275   1.108   2.849 -0.3161 -0.9998 -0.3434
  564MOL0     C76057   0.565   0.511   2.714 -0.4634  0.6462  0.5448
  564MOL0     C76058   0.568   0.379   2.766 -1.5737  0.0167  0.2498
  564MOL0     C76059   0.675   0.019   3.066 -0.8525  0.2305  0.2312
  564MOL0     C76060   0.690  -0.068   2.954  0.4300 -0.3451 -0.8448
  564MOL0     C76061   0.661  -0.207   2.963 -0.4351  0.5467 -0.2669
  564MOL0     C76062   0.630  -0.263   3.089 -0.4441  1.0394  0.2908
  564MOL0     O76063   0.605  -0.396   3.115  0.0725  0.3514  0.5041
  564MOL0     C76064   0.592  -0.497   3.007 -0.0767 -0.1776  0.5347
  564MOL0     C76065   0.444  -0.491   2.957 -0.4479  0.3953 -0.5222
  564MOL0     C76066   0.411  -0.636   2.896 -0.5494 -0.4447  0.4926
  564MOL0     C76067   0.518  -0.680   2.790 -0.1782 -0.1740 -0.0853
  564MOL0     C76068   0.551  -0.564   2.696 -0.5939  0.0404  0.0267
  564MOL0     C76069   0.587  -0.459   2.649  0.1312 -0.2275  0.9612
  564MOL0     C76070   0.629  -0.184   3.196 -0.0406 -0.3240 -0.4911
  564MOL0     C76071   0.645  -0.038   3.191  0.4601  0.3543 -0.5951
  564MOL0     C76072   0.621   0.036   3.321 -0.4200 -1.2976  0.1376
  564MOL0     H76073   0.823   0.411   2.992  0.0978  1.4385  0.2851
  564MOL0     H76074   0.815   0.648   2.903  1.2882  0.1788 -2.0498
  564MOL0     H76075   0.709   0.850   2.889 -3.0399  2.5752  2.8866
  564MOL0     H76076   0.613   0.931   2.755 -0.8120 -0.2800  1.8366
  564MOL0     H76077   0.514   0.780   2.986 -2.6169 -4.8410 -2.9594
  564MOL0     H76078   0.420   0.800   2.836 -1.0403  1.9341  0.1178
  564MOL0     H76079   0.525   1.059   2.918 -1.9295  0.9719 -1.9642
  564MOL0     H76080   0.442   0.985   3.054 -0.8174  1.9458  0.0883
  564MOL0     H76081   0.329   1.031   2.779 -1.9288  1.0693 -0.1450
  564MOL0     H76082   0.254   0.959   2.919  0.9958 -1.3110  0.9170
  564MOL0     H76083   0.280   1.180   3.051 -1.9069 -0.4085  0.1906
  564MOL0     H76084   0.387   1.242   2.916 -2.0478  2.3037  1.6097
  564MOL0     H76085   0.159   1.346   2.874 -0.0698 -0.0969 -1.6416
  564MOL0     H76086   0.165   1.226   2.765 -4.8554  0.6280  0.2425
  564MOL0     H76087   0.059   1.142   3.029  1.2182 -3.8597 -1.0319
  564MOL0     H76088   0.045   1.064   2.878  3.1065 -1.9589  2.0731
  564MOL0     H76089  -0.065   1.343   2.950 -4.1245 -1.1470  1.9014
  564MOL0     H76090  -0.061   1.292   2.788  1.0893  3.7078  1.5301
  564MOL0     H76091  -0.221   1.237   3.135 -0.7098  1.8900 -1.1185
  564MOL0     H76092  -0.405   1.064   3.241  2.4144  1.0376 -2.2368
  564MOL0     H76093  -0.481   0.939   3.146 -2.6134  0.4995  2.4701
  564MOL0     H76094  -0.287   0.786   3.173  2.2961 -2.1293  1.6368
  564MOL0     H76095  -0.194   0.918   3.261 -1.8199  1.6085  3.3155
  564MOL0     H76096  -0.295   0.739   3.418 -2.9453 -1.3889  2.7193
  564MOL0     H76097  -0.450   0.779   3.355 -1.8022  3.7972 -1.4511
  564MOL0     H76098  -0.413   0.891   3.578 -0.0649 -1.6709  0.0086
  564MOL0     H76099  -0.441   0.996   3.442  1.8597  2.2721  0.2009
  564MOL0     H76100  -0.249   0.944   3.760  0.3919 -0.1598 -2.1232
  564MOL0     H76101  -0.225   1.099   3.954  0.4696 -2.3095 -1.6039
  564MOL0     H76102  -0.019   1.537   4.163  2.0745  3.1272  0.8010
  564MOL0     H76103  -0.068   1.667   4.351  1.4440 -2.6634 -2.1223
  564MOL0     H76104  -0.308   2.039   4.247 -0.3278  0.7921 -0.0645
  564MOL0     H76105  -0.443   1.936   4.321 -0.7022  1.0144 -0.8098
  564MOL0     H76106  -0.408   2.142   4.457 -0.2653  1.4291  2.6852
  564MOL0     H76107  -0.374   1.987   4.541 -1.4759  0.4280 -1.7106
  564MOL0     H76108  -0.223   2.150   4.611  1.9321  4.1805 -0.3783
  564MOL0     H76109  -0.136   2.025   4.510 -0.4001  0.6572 -0.9495
  564MOL0     H76110  -0.219   2.294   4.397  1.3658 -0.5259 -3.5070
  564MOL0     H76111  -0.112   2.192   4.319  0.0534  4.5155 -2.4373
  564MOL0     H76112   0.030   2.324   4.385 -1.1539  0.4212 -0.3245
  564MOL0     H76113   0.052   2.196   4.512 -0.3797 -0.4597  0.8727
  564MOL0     H76114  -0.084   2.457   4.566  1.7890  0.5253 -1.1109
  564MOL0     H76115  -0.060   2.342   4.688 -0.1058  3.0401  2.2320
  564MOL0     H76116   0.201   2.401   4.546 -2.6673 -2.2228 -0.5920
  564MOL0     H76117   0.156   2.389   4.712 -1.0662  0.9385  0.9750
  564MOL0     H76118   0.063   2.656   4.669  1.0655  1.8011  1.7215
  564MOL0     H76119   0.236   2.617   4.682  0.8733 -1.1596 -1.3342
  564MOL0     H76120  -0.430   1.809   4.128 -1.9998 -2.2058  1.1327
  564MOL0     H76121  -0.385   1.639   3.957 -1.2896 -1.4057  1.4852
  564MOL0     H76122  -0.254   1.434   3.673 -0.2068 -0.7205 -1.3501
  564MOL0     H76123  -0.212   1.277   3.498  0.8044  0.8619 -1.0791
  564MOL0     H76124   0.483   0.536   2.648 -2.1310 -3.7188  0.6297
  564MOL0     H76125   0.496   0.309   2.725 -0.2482  0.8229 -4.0496
  564MOL0     H76126   0.727  -0.029   2.860 -1.5149  1.1164 -1.0776
  564MOL0     H76127   0.665  -0.262   2.869 -3.3297 -1.6303  0.7452
  564MOL0     H76128   0.615  -0.598   3.043 -0.7990 -0.7475 -0.5458
  564MOL0     H76129   0.657  -0.471   2.923 -1.3239  1.0307 -0.0931
  564MOL0     H76130   0.434  -0.403   2.894 -1.8534  0.4120 -0.2978
  564MOL0     H76131   0.375  -0.478   3.040  0.2075  1.4717 -0.1239
  564MOL0     H76132   0.312  -0.628   2.849  0.4230  2.0433 -1.3871
  564MOL0     H76133   0.411  -0.704   2.981  1.4683 -0.3885  0.5808
  564MOL0     H76134   0.603  -0.713   2.851 -1.6527 -0.9257  1.6808
  564MOL0     H76135   0.479  -0.762   2.729 -2.4802  2.3115 -2.2017
  564MOL0     H76136   0.624  -0.371   2.601 -2.8179  0.0035 -1.1571
  564MOL0     H76137   0.596  -0.229   3.289  3.6680 -1.9358  0.2202
  564MOL0     H76138   0.551   0.119   3.306 -0.5518 -0.5875  3.7793
  564MOL0     H76139   0.574  -0.030   3.393 -0.4313 -0.1775  1.1911
  564MOL0     H76140   0.714   0.082   3.357  0.1556 -2.6398  0.4167
  565MOL0     O76141  10.087   3.947  10.659 -0.2915  0.0791 -0.2564
  565MOL0     C76142  10.144   3.888  10.753 -0.2248 -0.4338  0.8956
  565MOL0     O76143  10.198   3.947  10.858 -0.3162 -0.3900  1.4848
  565MOL0     C76144  10.201   4.082  10.894 -0.6856 -1.0178  0.3464
  565MOL0     C76145  10.291   4.131  10.981  0.5840 -1.0036 -0.2067
  565MOL0     C76146  10.281   4.261  11.024 -0.4178  1.0364 -0.0592
  565MOL0     C76147  10.197   4.352  10.973 -0.1036  0.3410  0.0314
  565MOL0     O76148  10.215   4.482  11.013 -0.4308 -0.1243 -0.3280
  565MOL0     C76149  10.137   4.591  10.947 -0.4460  0.7201 -0.1115
  565MOL0     C76150  10.182   4.725  11.012  0.6671 -0.0416 -0.8613
  565MOL0     C76151  10.153   4.721  11.159  0.4154 -0.2093  0.6465
  565MOL0     C76152  10.203   4.844  11.224  0.1552  0.3713 -0.3263
  565MOL0     C76153  10.133   4.874  11.354 -0.2686 -0.1200 -0.0846
  565MOL0     C76154  10.183   5.003  11.430 -0.2261  0.1669  0.4130
  565MOL0     C76155  10.064   5.053  11.524  0.1247  0.1912  0.5571
  565MOL0     C76156   9.994   4.958  11.617  0.2371 -0.4068  0.0681
  565MOL0     N76157  10.045   4.970  11.750 -0.3363 -0.2498  0.3428
  565MOL0     C76158   9.974   5.035  11.851  0.4420 -0.1098  0.3429
  565MOL0     C76159   9.996   4.972  11.971 -0.5546 -0.0378  0.7313
  565MOL0     C76160   9.917   4.989  12.102 -0.3268  0.7346 -0.6838
  565MOL0     C76161   9.872   5.140  12.125  0.7306  0.2560  0.2831
  565MOL0     C76162  10.005   5.229  12.164  0.9071  0.1695 -0.5398
  565MOL0     C76163   9.989   5.377  12.185  0.4874  0.3348 -0.1149
  565MOL0     O76164   9.952   5.436  12.061 -0.1342  0.4368  0.5388
  565MOL0     C76165   9.885   5.551  12.047 -0.4493  0.0567  0.4369
  565MOL0     C76166   9.890   5.643  12.152  0.6336 -0.4979  0.0768
  565MOL0     C76167   9.810   5.759  12.141 -0.1036 -0.2968  0.0168
  565MOL0     C76168   9.725   5.784  12.029  0.2710  0.7175  0.1259
  565MOL0     C76169   9.645   5.908  12.026  0.5516 -0.9255  0.0644
  565MOL0     O76170   9.694   6.027  12.086  0.3430  0.3273  0.3965
  565MOL0     C76171   9.604   6.132  12.115 -0.9263  0.5768 -0.0040
  565MOL0     C76172   9.556   6.147  12.241 -0.0444  0.8546  0.0602
  565MOL0     C76173   9.507   6.269  12.284 -0.0136 -0.3579  0.7174
  565MOL0     C76174   9.491   6.381  12.190 -0.0328 -0.3299 -0.7184
  565MOL0     O76175   9.444   6.508  12.222 -0.3795 -0.7525  0.6262
  565MOL0     C76176   9.344   6.504  12.329 -0.2966 -0.2058 -0.4333
  565MOL0     C76177   9.229   6.604  12.292 -0.4843 -0.4349 -0.3204
  565MOL0     C76178   9.103   6.592  12.381  0.5134 -0.6854  0.1674
  565MOL0     C76179   8.999   6.488  12.332 -0.3627  0.8128 -0.2000
  565MOL0     C76180   8.902   6.458  12.439 -0.2274 -0.5693 -0.7192
  565MOL0     C76181   8.799   6.569  12.436  0.8356 -0.7536  0.0903
  565MOL0     C76182   8.709   6.568  12.566  0.0352 -0.5638  0.0301
  565MOL0     C76183   8.811   6.594  12.683 -0.2844  0.3240  0.5063
  565MOL0    Cl76184   8.737   6.650  12.837 -0.0272 -0.2678  0.3076
  565MOL0     C76185   9.545   6.365  12.062  0.1152  0.5645  0.0162
  565MOL0     C76186   9.602   6.240  12.031 -0.7995  0.1272 -0.6473
  565MOL0     O76187   9.528   5.893  11.991 -0.2796 -0.3088  0.4147
  565MOL0     C76188   9.734   5.698  11.922 -0.1726  0.0748  0.6308
  565MOL0     C76189   9.817   5.585  11.925  0.0390  0.7984  0.4662
  565MOL0     N76190  10.079   4.864  11.943 -1.6674 -0.3700  0.5698
  565MOL0     N76191  10.110   4.865  11.820 -0.9124 -0.1045  1.1864
  565MOL0     C76192  10.098   4.310  10.879 -1.0321 -0.4702 -0.3318
  565MOL0     C76193  10.104   4.177  10.855 -0.5319  0.3087  0.3423
  565MOL0     C76194  10.168   3.735  10.751  0.0863 -0.6491  0.4052
  565MOL0     C76195  10.276   3.691  10.829  0.6457  0.3800  0.0277
  565MOL0     C76196  10.300   3.553  10.856 -0.6210  0.3475 -0.2314
  565MOL0     C76197  10.222   3.457  10.786 -0.5743 -0.3487 -0.1216
  565MOL0     O76198  10.259   3.319  10.782 -0.4456 -0.0474  0.5633
  565MOL0     C76199  10.352   3.264  10.872  0.4542  0.4745 -0.0221
  565MOL0     C76200  10.367   3.110  10.860  0.3739  0.6031 -0.1481
  565MOL0     C76201  10.467   3.038  10.955 -0.9342  0.9530  0.4167
  565MOL0     C76202  10.411   2.891  10.970 -0.4738 -0.2848 -0.1457
  565MOL0     C76203  10.416   2.802  10.851  0.1893  0.1910 -0.4330
  565MOL0     C76204  10.408   2.726  10.755 -0.3196  0.2548 -0.4714
  565MOL0     C76205  10.109   3.500  10.720  0.6632 -0.6319 -0.6007
  565MOL0     C76206  10.081   3.640  10.708  0.0939 -0.5864  0.1548
  565MOL0     C76207   9.953   3.673  10.642  0.1646 -1.6387  0.1072
  565MOL0     H76208  10.368   4.060  11.011  0.8522 -0.6221  0.0066
  565MOL0     H76209  10.346   4.296  11.103 -1.4971  1.8557  0.4924
  565MOL0     H76210  10.158   4.591  10.840  1.0752 -0.7380  0.1517
  565MOL0     H76211  10.031   4.568  10.964 -0.5293  1.3225  0.2050
  565MOL0     H76212  10.129   4.811  10.969  0.2976 -0.1396 -0.6055
  565MOL0     H76213  10.288   4.748  11.005  0.3303  2.8714  1.5320
  565MOL0     H76214  10.169   4.625  11.208 -1.8865  0.5038  3.0294
  565MOL0     H76215  10.044   4.737  11.163  0.7058  2.0086  1.1292
  565MOL0     H76216  10.311   4.837  11.240 -0.1797 -1.5061  1.4428
  565MOL0     H76217  10.177   4.923  11.152 -5.8174 -1.1977 -0.4004
  565MOL0     H76218  10.027   4.873  11.329  0.5571  0.2080 -4.2198
  565MOL0     H76219  10.130   4.786  11.418 -3.9039 -0.0956 -0.0126
  565MOL0     H76220  10.271   4.981  11.491 -0.4974  1.5160  1.3405
  565MOL0     H76221  10.213   5.076  11.354  1.7776 -1.3679 -0.3622
  565MOL0     H76222   9.988   5.088  11.454 -1.8586 -2.5905  1.1655
  565MOL0     H76223  10.088   5.137  11.590 -3.4607  2.0010 -0.1765
  565MOL0     H76224   9.888   4.984  11.609  0.3567 -0.0529 -0.3782
  565MOL0     H76225  10.002   4.855  11.582  3.0842  0.4809 -2.2377
  565MOL0     H76226   9.895   5.107  11.832  1.5799  0.7037 -1.5948
  565MOL0     H76227   9.830   4.924  12.090  0.2884 -0.7625  2.0915
  565MOL0     H76228   9.985   4.951  12.179  2.3067  2.1805 -2.1530
  565MOL0     H76229   9.823   5.176  12.034  0.0788 -1.7103 -0.1877
  565MOL0     H76230   9.800   5.148  12.208  1.7536  2.7274  1.0406
  565MOL0     H76231  10.079   5.228  12.083 -1.3013  1.9660 -2.7177
  565MOL0     H76232  10.045   5.200  12.262 -3.2622  0.5583  1.5013
  565MOL0     H76233  10.081   5.424  12.220  0.6894 -1.3367  1.7994
  565MOL0     H76234   9.906   5.387  12.256 -1.5116 -1.8959 -1.9665
  565MOL0     H76235   9.944   5.619  12.243 -1.1938  1.3614  1.7565
  565MOL0     H76236   9.812   5.818  12.232  2.5297 -1.2953  0.7213
  565MOL0     H76237   9.581   6.076  12.319  2.4917  3.3632  1.7368
  565MOL0     H76238   9.489   6.276  12.390  1.4390 -0.7895  1.0252
  565MOL0     H76239   9.287   6.412  12.346  0.1953 -0.0944  2.3025
  565MOL0     H76240   9.384   6.542  12.423 -2.1253  0.5033  0.0948
  565MOL0     H76241   9.261   6.708  12.303  0.8664 -0.6254 -2.0769
  565MOL0     H76242   9.201   6.593  12.187 -1.4458 -2.0208  0.0675
  565MOL0     H76243   9.134   6.557  12.480 -1.1344  0.1738  1.0311
  565MOL0     H76244   9.062   6.692  12.392  1.9282 -0.2886  2.8095
  565MOL0     H76245   9.059   6.401  12.304 -0.0828 -0.4532  3.7765
  565MOL0     H76246   8.940   6.516  12.244 -3.4568  2.1655  2.1112
  565MOL0     H76247   8.957   6.464  12.534 -1.1552 -0.1799 -0.1909
  565MOL0     H76248   8.869   6.354  12.431 -2.4453  0.1695 -2.1431
  565MOL0     H76249   8.844   6.668  12.436  0.5792 -0.6273  0.9297
  565MOL0     H76250   8.747   6.560  12.340  1.1125 -1.5334  0.0051
  565MOL0     H76251   8.685   6.462  12.577  1.4778 -1.0160 -0.8245
  565MOL0     H76252   8.620   6.630  12.564  0.8929  0.7220  0.3178
  565MOL0     H76253   8.874   6.507  12.707 -3.1241 -1.9005  0.3768
  565MOL0     H76254   8.882   6.672  12.655 -0.5645  0.4328  0.0924
  565MOL0     H76255   9.553   6.441  11.985  0.4500 -0.2993 -0.8181
  565MOL0     H76256   9.651   6.224  11.935  0.0741 -4.5553  0.3134
  565MOL0     H76257   9.669   5.720  11.838 -0.2202 -1.9848  0.0616
  565MOL0     H76258   9.808   5.499  11.858  0.0301 -0.6671  2.2813
  565MOL0     H76259  10.027   4.378  10.833  2.2521  2.2654 -1.7837
  565MOL0     H76260  10.014   4.139  10.808 -0.3851 -0.3955  0.6128
  565MOL0     H76261  10.344   3.761  10.877 -0.0628 -0.6671  2.7401
  565MOL0     H76262  10.388   3.527  10.913 -0.5092 -1.3015 -1.1078
  565MOL0     H76263  10.309   3.286  10.971  0.4412 -1.5109  0.4556
  565MOL0     H76264  10.446   3.319  10.867 -0.7517  2.6236 -0.5963
  565MOL0     H76265  10.379   3.102  10.752 -1.9653  2.2177 -0.6091
  565MOL0     H76266  10.270   3.064  10.881  0.8553  0.1520  1.1609
  565MOL0     H76267  10.468   3.079  11.056  1.6161  3.3634 -0.4535
  565MOL0     H76268  10.570   3.032  10.919 -0.8749  2.6305  0.2597
  565MOL0     H76269  10.464   2.838  11.050  0.5867  0.3134 -0.4221
  565MOL0     H76270  10.313   2.907  11.014  0.7828  3.3250  1.7360
  565MOL0     H76271  10.406   2.659  10.671  2.1417  0.5338 -0.8319
  565MOL0     H76272  10.046   3.423  10.676 -0.2356 -0.0249 -0.4142
  565MOL0     H76273   9.956   3.691  10.534  0.0499  2.3478  0.6398
  565MOL0     H76274   9.884   3.591  10.664 -2.6731  0.8284  0.8883
  565MOL0     H76275   9.903   3.756  10.692  0.3325 -1.2533 -0.3534
  566MOL0     O76276   5.241   2.198   9.427 -0.1012  0.3179 -0.1994
  566MOL0     C76277   5.258   2.307   9.381  0.8943 -0.7649 -0.0831
  566MOL0     O76278   5.159   2.403   9.384 -0.0227  0.0994  0.1370
  566MOL0     C76279   5.044   2.360   9.448  0.7667  0.3430 -0.5112
  566MOL0     C76280   4.992   2.439   9.553  0.1859  0.4263  0.6777
  566MOL0     C76281   4.863   2.404   9.611  0.3126  0.9113  0.5664
  566MOL0     C76282   4.800   2.290   9.559 -0.9117 -0.8396 -0.2516
  566MOL0     O76283   4.679   2.257   9.608  0.3242  0.4959 -0.6747
  566MOL0     C76284   4.612   2.336   9.710 -0.2325 -0.0068 -0.9764
  566MOL0     C76285   4.469   2.286   9.755 -0.3104 -0.9379  0.1600
  566MOL0     C76286   4.419   2.370   9.871 -0.0444 -0.0550 -1.1579
  566MOL0     C76287   4.494   2.352  10.011 -0.6747 -0.0973  0.4877
  566MOL0     C76288   4.425   2.437  10.122  0.2601 -0.2234 -0.1106
  566MOL0     C76289   4.511   2.455  10.246 -0.8282  0.0153 -0.2129
  566MOL0     C76290   4.434   2.507  10.365 -0.1455 -0.0114 -0.0711
  566MOL0     C76291   4.520   2.572  10.482  0.0478  0.7369  0.6246
  566MOL0     N76292   4.432   2.632  10.572 -0.2687 -0.4080 -1.1908
  566MOL0     C76293   4.361   2.568  10.673  0.1867  1.1822 -0.1759
  566MOL0     C76294   4.260   2.656  10.722  0.2349  0.7176  0.2996
  566MOL0     C76295   4.181   2.641  10.853 -0.2444 -0.4657 -0.3988
  566MOL0     C76296   4.038   2.580  10.847 -0.1365  0.2655  0.0410
  566MOL0     C76297   3.973   2.613  10.982  0.8395  0.6158 -0.3350
  566MOL0     C76298   3.850   2.521  11.016 -0.0256 -0.7228 -0.8768
  566MOL0     O76299   3.764   2.513  10.911  0.1517 -0.1879 -0.1130
  566MOL0     C76300   3.658   2.434  10.910 -0.1071  0.3113 -0.2955
  566MOL0     C76301   3.609   2.375  11.018 -0.5382 -1.2194 -0.4002
  566MOL0     C76302   3.489   2.303  11.022 -0.0885 -0.0550 -0.3877
  566MOL0     C76303   3.405   2.303  10.910 -0.8283  0.4785 -0.6441
  566MOL0     C76304   3.270   2.253  10.921  0.1695  0.2179 -1.1321
  566MOL0     O76305   3.228   2.178  11.032 -0.6089 -0.0505 -0.5732
  566MOL0     C76306   3.101   2.121  11.034  0.2797 -1.2479  0.3217
  566MOL0     C76307   3.026   2.116  11.150  1.2358 -0.6466  0.0848
  566MOL0     C76308   2.899   2.061  11.158 -0.2935 -0.4234 -0.5804
  566MOL0     C76309   2.840   2.012  11.043 -0.0539 -0.9612 -0.1399
  566MOL0     O76310   2.721   1.954  11.055  0.8195  0.6981  0.8210
  566MOL0     C76311   2.623   2.017  11.139  0.6108  0.4468 -0.2517
  566MOL0     C76312   2.494   1.950  11.101  0.9456 -0.5069  0.3599
  566MOL0     C76313   2.385   2.018  11.198 -0.1522  1.0869  1.0356
  566MOL0     C76314   2.255   1.950  11.189  0.4737 -0.1924  0.1831
  566MOL0     C76315   2.142   2.003  11.284 -0.9983 -0.2269  0.9905
  566MOL0     C76316   2.005   1.923  11.270 -0.2504 -0.8661  0.0164
  566MOL0     C76317   1.902   1.958  11.382  0.5485 -0.2488 -0.2844
  566MOL0     C76318   1.782   1.868  11.369 -0.8210  0.2581 -0.3881
  566MOL0    Cl76319   1.682   1.895  11.213 -0.1193  0.0047 -0.3704
  566MOL0     C76320   2.906   2.017  10.922  0.4404  0.5838  0.3677
  566MOL0     C76321   3.040   2.070  10.926 -0.0077 -0.4328 -0.3718
  566MOL0     O76322   3.199   2.295  10.831 -0.4545  0.5289  0.2188
  566MOL0     C76323   3.455   2.379  10.791 -0.9734  1.2103  1.2639
  566MOL0     C76324   3.581   2.436  10.800 -0.2246 -0.7467  0.4599
  566MOL0     N76325   4.276   2.765  10.645 -0.2131 -0.0535 -0.1399
  566MOL0     N76326   4.374   2.753  10.567 -0.3871 -0.0079 -0.3433
  566MOL0     C76327   4.848   2.213   9.466 -0.9345 -0.1715 -0.6215
  566MOL0     C76328   4.970   2.246   9.401 -0.0226  0.0198 -0.1369
  566MOL0     C76329   5.390   2.332   9.309 -0.4626 -0.0903  0.1640
  566MOL0     C76330   5.426   2.465   9.291 -0.0044  0.1198 -0.3719
  566MOL0     C76331   5.555   2.499   9.241 -1.0287 -0.0722 -0.4653
  566MOL0     C76332   5.637   2.398   9.191  0.0875 -0.1434 -0.8934
  566MOL0     O76333   5.761   2.412   9.148 -0.5804 -0.0388  0.1846
  566MOL0     C76334   5.816   2.534   9.115 -0.5021  0.2275  0.9662
  566MOL0     C76335   5.964   2.540   9.090 -0.8537 -0.2719  0.9103
  566MOL0     C76336   6.040   2.483   9.214 -0.2081 -0.8087  0.2453
  566MOL0     C76337   6.175   2.553   9.230 -0.4003  0.1739  0.2366
  566MOL0     C76338   6.236   2.469   9.335  0.6327 -0.1713 -1.0350
  566MOL0     C76339   6.269   2.396   9.423 -0.2055 -0.5568  0.3873
  566MOL0     C76340   5.597   2.267   9.199 -0.7270 -0.4228  0.2160
  566MOL0     C76341   5.480   2.231   9.253 -0.4667 -0.0832  0.2518
  566MOL0     C76342   5.452   2.081   9.241  0.4708 -1.1265  0.7586
  566MOL0     H76343   5.051   2.523   9.589  2.6517 -0.9303  0.0263
  566MOL0     H76344   4.818   2.452   9.697 -0.2023  0.9880  0.2630
  566MOL0     H76345   4.673   2.335   9.801  1.8351  0.9805 -2.2723
  566MOL0     H76346   4.613   2.442   9.685  1.6938  0.3507  0.3768
  566MOL0     H76347   4.476   2.181   9.783  5.5669 -0.8652  0.3440
  566MOL0     H76348   4.398   2.289   9.672  0.3914 -1.2074 -0.4671
  566MOL0     H76349   4.312   2.351   9.886 -0.0096  1.5428  1.9512
  566MOL0     H76350   4.420   2.476   9.844 -1.9538  0.8021  1.6510
  566MOL0     H76351   4.501   2.250  10.051 -0.5535 -0.6012 -0.7902
  566MOL0     H76352   4.597   2.388   9.999 -0.5104 -0.5755  0.4240
  566MOL0     H76353   4.416   2.535  10.074 -1.2589  1.0209  2.5310
  566MOL0     H76354   4.330   2.385  10.141 -0.1290 -0.3589 -2.1724
  566MOL0     H76355   4.550   2.356  10.270  1.1911  0.9280  0.4902
  566MOL0     H76356   4.604   2.508  10.224 -1.3171  0.7892 -0.4531
  566MOL0     H76357   4.367   2.433  10.409  2.1038 -1.0087  1.9335
  566MOL0     H76358   4.382   2.588  10.313 -0.9868 -0.4076  0.1462
  566MOL0     H76359   4.583   2.495  10.528  1.1011  2.0127  1.3807
  566MOL0     H76360   4.600   2.638  10.448  0.1364 -0.8257 -2.6131
  566MOL0     H76361   4.386   2.472  10.717  1.7935  1.2422 -0.8751
  566MOL0     H76362   4.232   2.571  10.919 -0.1836  0.1711  0.2470
  566MOL0     H76363   4.173   2.737  10.905 -0.0178  0.0281 -1.2568
  566MOL0     H76364   3.974   2.616  10.766 -3.1564 -0.9187  1.7286
  566MOL0     H76365   4.046   2.472  10.832 -6.3163 -0.5340 -0.2809
  566MOL0     H76366   3.925   2.711  10.980  1.5905  0.9838 -0.5152
  566MOL0     H76367   4.040   2.621  11.068 -2.1586 -0.9541  2.3697
  566MOL0     H76368   3.796   2.569  11.098  2.1486  0.1183  0.1254
  566MOL0     H76369   3.888   2.427  11.058 -1.3330 -0.5787  0.7248
  566MOL0     H76370   3.658   2.397  11.112  0.6522  1.8177 -1.6307
  566MOL0     H76371   3.462   2.250  11.112  3.4982  0.7493  1.3302
  566MOL0     H76372   3.073   2.158  11.238  1.3294 -2.2718  0.8576
  566MOL0     H76373   2.845   2.051  11.252 -1.5564  0.0102 -1.2290
  566MOL0     H76374   2.638   1.997  11.246 -0.7627  1.7311  0.2089
  566MOL0     H76375   2.610   2.125  11.125 -0.4952  1.3120  5.1787
  566MOL0     H76376   2.476   1.964  10.994  2.9703  1.0832  0.1742
  566MOL0     H76377   2.488   1.841  11.111 -0.1433 -0.7074 -1.9374
  566MOL0     H76378   2.419   2.015  11.302 -1.7746 -1.9396  1.5907
  566MOL0     H76379   2.376   2.124  11.173 -1.6189  1.6196  3.4498
  566MOL0     H76380   2.271   1.847  11.224 -0.4210 -0.3990  0.0237
  566MOL0     H76381   2.208   1.964  11.091 -1.4037  0.2738  1.0930
  566MOL0     H76382   2.120   2.109  11.273  1.8047  0.3111 -0.3387
  566MOL0     H76383   2.185   1.981  11.383  2.3254  1.9924  0.2048
  566MOL0     H76384   1.958   1.957  11.177  1.3350 -1.3292 -0.9925
  566MOL0     H76385   2.014   1.814  11.268 -0.9035 -0.9887  1.8876
  566MOL0     H76386   1.875   2.064  11.375  0.6927 -0.1473  0.5963
  566MOL0     H76387   1.951   1.938  11.477  2.8845  0.5324 -1.2337
  566MOL0     H76388   1.816   1.764  11.371 -1.9974 -0.2026 -2.0991
  566MOL0     H76389   1.722   1.877  11.460  0.9843  0.9400  0.8031
  566MOL0     H76390   2.864   1.964  10.837  2.8320 -3.8959  1.6420
  566MOL0     H76391   3.105   2.057  10.840 -1.1596 -0.7925 -1.2206
  566MOL0     H76392   3.395   2.385  10.701 -1.8998  2.7652  1.9374
  566MOL0     H76393   3.617   2.474  10.705  0.6111 -1.4377  0.4809
  566MOL0     H76394   4.784   2.130   9.438 -2.0833  1.2964 -2.6523
  566MOL0     H76395   5.006   2.186   9.318 -0.6367 -0.8397  0.2032
  566MOL0     H76396   5.359   2.543   9.326  0.4235  0.6650 -0.7440
  566MOL0     H76397   5.596   2.600   9.234 -1.5659  0.1105 -1.0564
  566MOL0     H76398   5.806   2.597   9.204  1.1507 -0.0616  1.3933
  566MOL0     H76399   5.766   2.570   9.025 -3.3470 -0.4088  2.1628
  566MOL0     H76400   5.988   2.644   9.071  2.1823 -0.9493  0.5365
  566MOL0     H76401   6.005   2.478   9.009 -0.2787  1.6349 -0.3040
  566MOL0     H76402   6.060   2.377   9.194 -0.6553 -1.0895  1.2486
  566MOL0     H76403   5.974   2.480   9.301 -1.2773 -2.8088 -0.5569
  566MOL0     H76404   6.224   2.541   9.133 -0.8015  2.3431 -0.2829
  566MOL0     H76405   6.164   2.660   9.246  3.3291  1.0732 -1.8893
  566MOL0     H76406   6.280   2.339   9.513  0.3075 -4.0342 -1.7101
  566MOL0     H76407   5.665   2.190   9.163  2.3891  0.7923  3.0457
  566MOL0     H76408   5.344   2.067   9.234  0.3925 -0.5197  0.6823
  566MOL0     H76409   5.501   2.037   9.153 -1.9746  0.6711 -1.6704
  566MOL0     H76410   5.489   2.044   9.337  2.2513  2.4280  1.6014
  567MOL0     O76411   8.783  10.461   6.953 -0.3575  0.1554  0.0250
  567MOL0     C76412   8.784  10.564   7.024 -0.4016 -0.4893 -0.1960
  567MOL0     O76413   8.895  10.634   7.061  0.4510  0.0682 -0.1962
  567MOL0     C76414   9.010  10.587   7.009 -0.0820  0.1575  0.0683
  567MOL0     C76415   9.046  10.633   6.882  0.2524  0.1615  0.5114
  567MOL0     C76416   9.155  10.577   6.812 -0.4145  0.3233 -0.3095
  567MOL0     C76417   9.245  10.491   6.871  0.3356 -1.4167  0.1946
  567MOL0     O76418   9.352  10.462   6.790 -0.4024 -0.5580  1.2655
  567MOL0     C76419   9.460  10.391   6.843 -0.1404  0.3375  0.3804
  567MOL0     C76420   9.437  10.243   6.822 -0.0048 -0.0212  0.4550
  567MOL0     C76421   9.410  10.200   6.677  1.0279 -0.8248  0.0337
  567MOL0     C76422   9.528  10.225   6.570 -0.0965 -0.8308 -0.2586
  567MOL0     C76423   9.514  10.135   6.443 -0.5258  0.5185 -0.0450
  567MOL0     C76424   9.633  10.142   6.347 -0.1119 -0.5024  0.8275
  567MOL0     C76425   9.625  10.039   6.223  0.5601 -0.0509  0.1563
  567MOL0     C76426   9.515  10.057   6.121  0.4180 -0.5657 -0.4454
  567MOL0     N76427   9.563  10.036   5.981  0.7305 -0.8018  0.4788
  567MOL0     C76428   9.616  10.133   5.908 -0.1946  0.4920 -0.3100
  567MOL0     C76429   9.606  10.079   5.786 -0.1493 -0.1379  0.8388
  567MOL0     C76430   9.660  10.151   5.663 -0.7861 -0.4246 -0.3137
  567MOL0     C76431   9.799  10.115   5.609  1.2807  0.4739  0.0107
  567MOL0     C76432   9.902  10.106   5.724 -0.5299 -0.0926  0.8777
  567MOL0     C76433  10.035  10.084   5.667 -0.2893  0.1521 -1.0344
  567MOL0     O76434  10.032   9.974   5.581 -0.1858  0.2912 -0.2006
  567MOL0     C76435  10.145   9.957   5.495 -0.0126  0.2155  0.2419
  567MOL0     C76436  10.165   9.831   5.443  0.1312 -0.4613 -0.7361
  567MOL0     C76437  10.272   9.797   5.369  0.5976  0.7272  0.2784
  567MOL0     C76438  10.353   9.893   5.311 -0.1519  0.9388  0.2018
  567MOL0     C76439  10.438   9.874   5.195 -0.4254 -0.2827 -0.4737
  567MOL0     O76440  10.493   9.977   5.123  0.8268  0.1599 -0.7146
  567MOL0     C76441  10.572   9.962   5.012  0.2757 -0.7841  0.5693
  567MOL0     C76442  10.524   9.999   4.888  0.2613  1.5729  1.1408
  567MOL0     C76443  10.604   9.994   4.775 -0.6740 -0.0113  0.8651
  567MOL0     C76444  10.743   9.946   4.785 -0.4318 -0.3092 -0.1740
  567MOL0     O76445  10.828   9.933   4.674  0.4206 -0.2047 -0.8870
  567MOL0     C76446  10.903   9.815   4.640  0.1793 -0.5623 -0.2002
  567MOL0     C76447  10.944   9.798   4.498  0.2806  0.6849  0.6297
  567MOL0     C76448  11.028   9.667   4.476 -0.3410  0.2425 -0.1160
  567MOL0     C76449  11.048   9.639   4.326 -0.4206 -0.0017 -1.4089
  567MOL0     C76450  11.160   9.550   4.306  0.3127  0.3927  1.2823
  567MOL0     C76451  11.159   9.501   4.159 -0.2712  0.1083  0.8508
  567MOL0     C76452  11.062   9.383   4.146  0.1367  0.6510 -0.0355
  567MOL0     C76453  11.045   9.324   4.001  0.7517 -0.3299  0.3493
  567MOL0    Cl76454  11.177   9.213   3.952 -0.0753 -0.0258 -0.0161
  567MOL0     C76455  10.783   9.894   4.916 -0.8535 -0.3240  0.9730
  567MOL0     C76456  10.698   9.906   5.027 -0.4179 -0.1120 -0.2778
  567MOL0     O76457  10.461   9.761   5.167 -0.4481  0.2195  0.2548
  567MOL0     C76458  10.325  10.028   5.352 -0.2032  0.1011 -0.4255
  567MOL0     C76459  10.222  10.055   5.440  1.1360 -0.0713  1.0618
  567MOL0     N76460   9.561   9.945   5.791 -0.3011 -0.8271  0.0004
  567MOL0     N76461   9.536   9.926   5.907  0.2224  0.2295 -0.6141
  567MOL0     C76462   9.222  10.463   7.010 -0.8692  0.2245 -0.0700
  567MOL0     C76463   9.106  10.505   7.081 -0.2871 -0.2475 -0.1232
  567MOL0     C76464   8.656  10.607   7.077 -0.1616 -0.3534 -0.2783
  567MOL0     C76465   8.575  10.665   6.979 -0.3275  1.0195 -0.0601
  567MOL0     C76466   8.448  10.717   7.015  0.2297 -0.4727 -0.3688
  567MOL0     C76467   8.405  10.721   7.150 -0.7518  0.3354  0.6687
  567MOL0     O76468   8.281  10.777   7.169 -0.4659  0.1099  0.1271
  567MOL0     C76469   8.232  10.772   7.304 -0.5537 -0.2961  0.1809
  567MOL0     C76470   8.202  10.632   7.364  0.2910 -0.4737  0.3489
  567MOL0     C76471   8.181  10.639   7.518  0.0758  0.1529 -0.4916
  567MOL0     C76472   8.061  10.721   7.570 -0.4848 -0.3209  0.1973
  567MOL0     C76473   8.026  10.689   7.714 -1.3217  0.1083  0.0941
  567MOL0     C76474   8.007  10.665   7.829 -1.1612 -1.0114 -0.7213
  567MOL0     C76475   8.494  10.655   7.248  1.1665 -0.3029  0.6627
  567MOL0     C76476   8.613  10.598   7.210  1.1509  0.0389  1.1758
  567MOL0     C76477   8.694  10.529   7.312 -0.1850  0.8216  0.5686
  567MOL0     H76478   8.978  10.703   6.836 -1.3029 -1.4370  0.2641
  567MOL0     H76479   9.173  10.607   6.709 -1.0739  1.5096 -0.0871
  567MOL0     H76480   9.559  10.417   6.804  0.5703 -0.1001  1.8103
  567MOL0     H76481   9.458  10.399   6.952 -1.8724  1.8352  0.2803
  567MOL0     H76482   9.351  10.214   6.884 -0.4834 -1.0605 -0.6495
  567MOL0     H76483   9.528  10.192   6.855 -1.3797 -2.3341  0.8860
  567MOL0     H76484   9.322  10.248   6.632  1.5000 -1.1603 -1.3101
  567MOL0     H76485   9.395  10.091   6.681 -1.3544 -0.5592  0.0922
  567MOL0     H76486   9.541  10.329   6.540  1.3361 -1.3093 -1.3983
  567MOL0     H76487   9.626  10.202   6.613 -0.7492  0.3689  2.0448
  567MOL0     H76488   9.480  10.032   6.456  0.5414 -0.3994 -3.5142
  567MOL0     H76489   9.422  10.168   6.394 -3.6531 -2.5533  3.1300
  567MOL0     H76490   9.641  10.247   6.318  2.7850 -0.6946  0.6515
  567MOL0     H76491   9.727  10.119   6.398  0.5460  0.0996 -0.0821
  567MOL0     H76492   9.614   9.939   6.265 -1.1293  0.0976  0.1320
  567MOL0     H76493   9.718  10.051   6.167 -0.8241 -0.4277 -2.3484
  567MOL0     H76494   9.440   9.984   6.154 -0.6826  0.9290  0.5150
  567MOL0     H76495   9.470  10.156   6.124  0.5608 -0.5146  0.3284
  567MOL0     H76496   9.645  10.232   5.938  0.4617  2.0186 -5.1427
  567MOL0     H76497   9.584  10.141   5.585 -2.1220  0.1349  0.8798
  567MOL0     H76498   9.666  10.258   5.686  0.8707  0.1935 -3.0932
  567MOL0     H76499   9.789  10.021   5.554 -1.4250  0.5729  0.1795
  567MOL0     H76500   9.825  10.194   5.539  2.0390  0.7981  0.6371
  567MOL0     H76501   9.878  10.017   5.785  3.0350 -0.8864  1.3420
  567MOL0     H76502   9.900  10.196   5.785  2.7824 -0.1156  1.1667
  567MOL0     H76503  10.090  10.048   5.754 -3.9231 -1.6802  0.7446
  567MOL0     H76504  10.067  10.179   5.624 -0.3759  1.1475  0.9506
  567MOL0     H76505  10.094   9.753   5.468 -3.5179  3.1425  1.3540
  567MOL0     H76506  10.298   9.700   5.328  1.6960  1.9431 -2.0491
  567MOL0     H76507  10.428  10.050   4.893 -0.4981  0.1514  1.3967
  567MOL0     H76508  10.579  10.030   4.676 -1.9856 -3.2911 -0.1629
  567MOL0     H76509  11.002   9.813   4.688  0.2822 -1.3577 -0.4309
  567MOL0     H76510  10.845   9.727   4.669 -1.1700  0.2948 -0.2351
  567MOL0     H76511  10.859   9.788   4.430  0.5356 -5.5003  0.6982
  567MOL0     H76512  11.009   9.884   4.475  3.3498 -1.9159 -1.2639
  567MOL0     H76513  11.131   9.680   4.510 -0.8964 -0.0367  1.8032
  567MOL0     H76514  10.985   9.576   4.519  1.5449 -0.6159  0.0750
  567MOL0     H76515  11.059   9.739   4.283 -3.6278  2.0122  1.8178
  567MOL0     H76516  10.960   9.584   4.291  0.4202 -2.6805  0.4439
  567MOL0     H76517  11.163   9.462   4.371 -0.4729 -0.1947  0.5445
  567MOL0     H76518  11.252   9.607   4.323  1.2126 -1.0976  1.5298
  567MOL0     H76519  11.114   9.575   4.092  0.5763 -1.3016 -1.4001
  567MOL0     H76520  11.258   9.481   4.118 -0.7778 -0.8793  0.0524
  567MOL0     H76521  10.964   9.426   4.166 -0.0914  1.0301 -1.7710
  567MOL0     H76522  11.081   9.305   4.221 -0.7475  0.6507  0.2024
  567MOL0     H76523  10.948   9.273   4.009  1.0898 -1.0294  0.1030
  567MOL0     H76524  11.030   9.410   3.935 -3.2880 -1.4742 -0.5552
  567MOL0     H76525  10.885   9.861   4.935 -0.6039 -1.8089 -2.1766
  567MOL0     H76526  10.733   9.876   5.126  1.5337 -0.7259 -1.1151
  567MOL0     H76527  10.383  10.109   5.309 -2.1690 -0.2965 -4.2860
  567MOL0     H76528  10.216  10.160   5.466  1.0251  0.2009 -0.0164
  567MOL0     H76529   9.299  10.419   7.073 -0.8843  0.5768  0.1990
  567MOL0     H76530   9.077  10.464   7.177 -1.7111 -1.0593 -0.8590
  567MOL0     H76531   8.608  10.671   6.876  0.2201 -3.8482 -0.4277
  567MOL0     H76532   8.379  10.753   6.939  0.7497  2.3307  0.3514
  567MOL0     H76533   8.139  10.830   7.308  1.0656  2.4508  0.4370
  567MOL0     H76534   8.299  10.839   7.358  0.2558  0.1842 -1.3399
  567MOL0     H76535   8.272  10.552   7.338  2.7052  1.7031 -0.2618
  567MOL0     H76536   8.109  10.603   7.315  0.2317  0.9620 -0.4157
  567MOL0     H76537   8.275  10.660   7.571  0.3128 -1.8970 -0.0011
  567MOL0     H76538   8.169  10.532   7.539 -0.2288 -0.0498 -1.6351
  567MOL0     H76539   8.088  10.827   7.563 -0.0504 -0.5031 -0.9364
  567MOL0     H76540   7.970  10.702   7.512 -0.1924 -0.6680 -0.1433
  567MOL0     H76541   8.010  10.641   7.933  1.6004 -1.5069 -0.8438
  567MOL0     H76542   8.469  10.636   7.352 -0.4016  0.1784  0.3999
  567MOL0     H76543   8.649  10.551   7.409  1.3856  0.8128  1.3255
  567MOL0     H76544   8.689  10.423   7.287 -3.7470  0.9358  0.2144
  567MOL0     H76545   8.800  10.557   7.308 -1.0595  4.7242 -0.0239
  568MOL0     O76546   5.339   9.333   0.925  1.0546  0.1034 -0.6780
  568MOL0     C76547   5.248   9.253   0.968  0.4335 -0.4561  0.2878
  568MOL0     O76548   5.250   9.191   1.087 -0.0234 -0.2824  0.7235
  568MOL0     C76549   5.344   9.217   1.192 -0.0590 -0.2389  0.5604
  568MOL0     C76550   5.379   9.118   1.281  0.8439  1.1973  0.9350
  568MOL0     C76551   5.461   9.152   1.388 -0.3417 -0.6581 -0.2729
  568MOL0     C76552   5.494   9.284   1.419  0.9479 -0.0300 -0.3911
  568MOL0     O76553   5.571   9.324   1.532  0.0476 -0.2934 -0.1094
  568MOL0     C76554   5.689   9.242   1.572 -0.2989 -0.6120 -0.3248
  568MOL0     C76555   5.738   9.270   1.712 -0.2125 -0.8007 -0.0242
  568MOL0     C76556   5.623   9.250   1.818  0.5109  0.3107  0.5301
  568MOL0     C76557   5.654   9.337   1.949  0.2867  0.0995 -0.9517
  568MOL0     C76558   5.541   9.319   2.050  0.3957  0.2292 -0.9166
  568MOL0     C76559   5.567   9.185   2.149 -0.1983  0.2252  0.6795
  568MOL0     C76560   5.479   9.174   2.275 -0.5655  0.5130 -0.1538
  568MOL0     C76561   5.504   9.049   2.342 -0.4248 -0.1329 -0.1196
  568MOL0     N76562   5.496   8.932   2.253  0.3025 -0.7095 -0.0684
  568MOL0     C76563   5.593   8.850   2.196  0.4273  0.2805  0.3404
  568MOL0     C76564   5.536   8.731   2.165 -0.0574 -0.2509  0.8621
  568MOL0     C76565   5.613   8.609   2.101  0.4342 -0.6364  0.3919
  568MOL0     C76566   5.741   8.634   2.022  0.8974  0.2490  0.2594
  568MOL0     C76567   5.866   8.636   2.101  0.3222  0.0106 -0.1256
  568MOL0     C76568   5.910   8.494   2.156 -0.1808 -0.6951  0.8315
  568MOL0     O76569   5.914   8.403   2.047 -0.7419 -0.9476  0.2493
  568MOL0     C76570   5.886   8.277   2.087  0.8716  0.8448  1.4222
  568MOL0     C76571   5.944   8.211   2.192  0.8013  0.4586  0.1060
  568MOL0     C76572   5.892   8.085   2.239 -0.6662 -0.2485 -0.3617
  568MOL0     C76573   5.805   8.013   2.158 -0.8516  0.7981  0.5118
  568MOL0     C76574   5.772   7.874   2.197 -0.1721  0.4303  0.3627
  568MOL0     O76575   5.807   7.834   2.328 -0.5353 -0.6562  0.3290
  568MOL0     C76576   5.749   7.730   2.386 -0.6879  0.8788  0.3034
  568MOL0     C76577   5.817   7.610   2.398  0.3227  0.4268 -1.3052
  568MOL0     C76578   5.751   7.496   2.462 -0.8873 -0.3296  0.3425
  568MOL0     C76579   5.612   7.497   2.490 -1.1656 -0.4464  0.2591
  568MOL0     O76580   5.554   7.385   2.538  0.2769 -0.0179 -0.0705
  568MOL0     C76581   5.608   7.308   2.646 -0.0494  0.9910  0.5575
  568MOL0     C76582   5.571   7.158   2.629 -0.2836 -0.2609 -0.3473
  568MOL0     C76583   5.616   7.123   2.481  0.1245  0.0544 -0.2523
  568MOL0     C76584   5.593   6.973   2.466 -0.0021 -1.1245 -0.5715
  568MOL0     C76585   5.638   6.936   2.323  0.1488 -0.7814  0.3417
  568MOL0     C76586   5.606   6.786   2.301  0.8464 -0.1589  0.4385
  568MOL0     C76587   5.629   6.744   2.147  0.1219 -0.3756  0.2170
  568MOL0     C76588   5.668   6.599   2.128  0.2558  0.0875  0.0232
  568MOL0    Cl76589   5.713   6.552   1.960 -0.5450  0.1959  0.1872
  568MOL0     C76590   5.554   7.621   2.454 -0.2951 -0.0941  0.3519
  568MOL0     C76591   5.617   7.735   2.405  0.2195  0.9626  0.0511
  568MOL0     O76592   5.709   7.809   2.114  0.1351  0.5315 -0.2134
  568MOL0     C76593   5.766   8.072   2.039 -0.3640  0.2547  0.3461
  568MOL0     C76594   5.800   8.203   2.011 -0.1872  0.5378  0.7252
  568MOL0     N76595   5.393   8.760   2.188  0.4619  0.4647  0.1300
  568MOL0     N76596   5.372   8.875   2.245 -0.7985 -0.0576  0.5833
  568MOL0     C76597   5.455   9.381   1.335 -0.4050 -0.2229  0.3203
  568MOL0     C76598   5.383   9.354   1.221 -0.0968  0.3336  0.2948
  568MOL0     C76599   5.158   9.208   0.863 -0.0698 -0.1592  0.7998
  568MOL0     C76600   5.047   9.130   0.906  0.0926 -0.0400 -0.4917
  568MOL0     C76601   4.947   9.091   0.816  0.8184  0.3727 -0.7145
  568MOL0     C76602   4.951   9.129   0.686 -0.8027 -0.6870  1.0662
  568MOL0     O76603   4.854   9.106   0.582 -0.3799 -0.2433  0.2440
  568MOL0     C76604   4.758   9.002   0.603 -0.2205 -0.5878 -0.0019
  568MOL0     C76605   4.653   8.981   0.498 -0.2285  0.0255  0.0744
  568MOL0     C76606   4.579   9.120   0.479  0.4352  0.9271  0.1313
  568MOL0     C76607   4.469   9.147   0.579  0.7529  0.3475  0.5944
  568MOL0     C76608   4.525   9.240   0.674 -0.1727 -1.1198 -0.2405
  568MOL0     C76609   4.576   9.307   0.761  0.3754 -0.8855  0.8811
  568MOL0     C76610   5.059   9.201   0.641 -0.0001  0.0308 -0.1146
  568MOL0     C76611   5.147   9.264   0.732  0.1523  0.4264  0.3845
  568MOL0     C76612   5.251   9.353   0.672 -0.3634 -0.2275 -0.5688
  568MOL0     H76613   5.324   9.025   1.271  0.6076  1.6067 -2.8040
  568MOL0     H76614   5.500   9.069   1.446  0.0250 -0.8645 -0.8032
  568MOL0     H76615   5.671   9.136   1.556 -1.8470 -0.1369 -2.1282
  568MOL0     H76616   5.769   9.266   1.501  0.0937  2.1794  0.9289
  568MOL0     H76617   5.760   9.376   1.721  0.2229 -0.9262  0.4484
  568MOL0     H76618   5.820   9.201   1.733 -2.0801 -3.0008  0.4992
  568MOL0     H76619   5.600   9.146   1.841 -1.9311  0.3618 -1.2906
  568MOL0     H76620   5.529   9.287   1.775  0.1687  0.2880  1.2476
  568MOL0     H76621   5.749   9.313   1.998 -2.0143 -1.1425  3.5002
  568MOL0     H76622   5.645   9.442   1.918 -1.3772  0.6170  1.0483
  568MOL0     H76623   5.530   9.399   2.123  2.2089 -1.1530  0.9965
  568MOL0     H76624   5.449   9.301   1.994  1.3626  0.2879 -2.5796
  568MOL0     H76625   5.565   9.096   2.086 -2.8057  1.2936 -0.8909
  568MOL0     H76626   5.672   9.193   2.180  1.4784 -1.3912 -3.8220
  568MOL0     H76627   5.375   9.155   2.246 -0.1192  1.8309 -3.0395
  568MOL0     H76628   5.492   9.271   2.324 -1.1750 -0.0652  1.1837
  568MOL0     H76629   5.598   9.051   2.398 -1.4432  1.4533  1.6509
  568MOL0     H76630   5.427   9.025   2.415 -0.7852 -0.9291 -0.7424
  568MOL0     H76631   5.700   8.864   2.190  0.9931 -3.4099 -1.1519
  568MOL0     H76632   5.625   8.548   2.191 -1.7812 -0.3199  0.9811
  568MOL0     H76633   5.553   8.553   2.029  0.5536  0.8879 -0.9597
  568MOL0     H76634   5.747   8.560   1.941 -1.8100 -1.0450  1.0938
  568MOL0     H76635   5.740   8.733   1.975  0.9425  0.4582  0.6951
  568MOL0     H76636   5.849   8.704   2.185 -0.8562  1.6826 -1.6380
  568MOL0     H76637   5.944   8.690   2.045 -0.2469  3.3034  1.9887
  568MOL0     H76638   5.833   8.462   2.226  1.9890 -2.8412  2.3964
  568MOL0     H76639   6.008   8.505   2.203 -0.5998  2.8742  1.1379
  568MOL0     H76640   6.010   8.266   2.259  0.8802  2.1069 -1.2610
  568MOL0     H76641   5.914   8.042   2.336 -0.1663 -0.5148 -0.5905
  568MOL0     H76642   5.913   7.589   2.353 -1.1070 -5.8260 -2.2566
  568MOL0     H76643   5.812   7.409   2.481  0.4802  0.9325  2.2522
  568MOL0     H76644   5.717   7.316   2.649 -0.0148  3.0128 -2.0491
  568MOL0     H76645   5.555   7.338   2.737 -0.2707 -0.0234  0.7666
  568MOL0     H76646   5.649   7.103   2.683  2.1417  2.5545 -0.7700
  568MOL0     H76647   5.467   7.135   2.657  1.0236 -1.7403  4.1401
  568MOL0     H76648   5.552   7.180   2.413  1.1646 -0.6878 -1.9046
  568MOL0     H76649   5.725   7.132   2.472  0.3057  0.0299  1.5896
  568MOL0     H76650   5.486   6.962   2.485 -0.0517 -2.2763 -1.4638
  568MOL0     H76651   5.665   6.932   2.537  2.2632  3.4446  0.1670
  568MOL0     H76652   5.744   6.960   2.310 -0.3537  1.4673 -0.0527
  568MOL0     H76653   5.585   6.995   2.248  1.0494  1.0313  1.0492
  568MOL0     H76654   5.653   6.726   2.379 -1.8411  0.5378  2.7449
  568MOL0     H76655   5.500   6.774   2.324  1.0991 -1.5816  0.9722
  568MOL0     H76656   5.712   6.804   2.109  2.5247 -2.2151  2.2265
  568MOL0     H76657   5.535   6.769   2.097 -0.1096 -1.5291  0.0327
  568MOL0     H76658   5.751   6.590   2.199  0.2312  0.4927  0.1056
  568MOL0     H76659   5.590   6.530   2.162 -1.6000  2.0387 -0.0643
  568MOL0     H76660   5.446   7.616   2.451 -0.5143  2.3481  1.6831
  568MOL0     H76661   5.561   7.825   2.382  1.2828  0.9905 -2.6746
  568MOL0     H76662   5.692   8.023   1.976 -1.1475 -2.0046  2.8397
  568MOL0     H76663   5.746   8.258   1.934  1.9975  0.3931 -1.0352
  568MOL0     H76664   5.470   9.483   1.367  0.2381 -1.5620  5.0711
  568MOL0     H76665   5.344   9.432   1.157  3.1412  1.3521 -0.6162
  568MOL0     H76666   5.027   9.102   1.009 -2.9255 -0.0926 -1.0168
  568MOL0     H76667   4.868   9.029   0.856 -0.3823  1.2165 -1.6771
  568MOL0     H76668   4.697   9.025   0.691 -2.2214  1.7364 -1.8691
  568MOL0     H76669   4.814   8.908   0.614  1.9500  0.4344 -1.6399
  568MOL0     H76670   4.575   8.906   0.517  0.0879 -0.5919 -0.9979
  568MOL0     H76671   4.696   8.949   0.403 -2.4230  0.2238 -1.0628
  568MOL0     H76672   4.525   9.110   0.384  2.2556  0.3419 -0.8966
  568MOL0     H76673   4.653   9.200   0.484  4.0168 -1.9951 -1.3021
  568MOL0     H76674   4.386   9.195   0.526 -2.1682 -2.2834  2.4239
  568MOL0     H76675   4.432   9.054   0.624  1.1205 -0.9544 -1.6382
  568MOL0     H76676   4.632   9.369   0.828  1.0860  0.0010 -0.4867
  568MOL0     H76677   5.052   9.224   0.536 -2.2244  1.7186  0.3294
  568MOL0     H76678   5.267   9.452   0.713 -2.5466  0.6528 -1.6930
  568MOL0     H76679   5.351   9.309   0.680  0.5196  2.0428  3.4629
  568MOL0     H76680   5.229   9.374   0.567 -0.3835  2.0946 -0.1397
  569MOL0     O76681   2.924   4.770   3.878  0.1564 -0.3267 -0.1744
  569MOL0     C76682   2.937   4.784   3.998  0.2990 -1.0129 -0.3110
  569MOL0     O76683   2.841   4.857   4.069 -0.0900 -0.3428 -0.5680
  569MOL0     C76684   2.718   4.872   4.014 -0.6939  0.9120  0.3526
  569MOL0     C76685   2.664   4.997   3.984 -0.0927 -0.6252 -1.0491
  569MOL0     C76686   2.540   5.011   3.933  0.8959  0.5712  0.6781
  569MOL0     C76687   2.462   4.902   3.910 -0.1887  0.1962 -1.0978
  569MOL0     O76688   2.329   4.915   3.860 -0.1421  0.4247 -0.2746
  569MOL0     C76689   2.269   5.045   3.856  0.3328  0.4870  0.7345
  569MOL0     C76690   2.141   5.048   3.776  0.0014  0.7730  0.0741
  569MOL0     C76691   2.165   5.041   3.632  0.1994  0.0896  0.6361
  569MOL0     C76692   2.036   5.053   3.546 -0.5583  0.1736 -0.3972
  569MOL0     C76693   2.065   5.096   3.396  0.7091 -0.2719 -0.2438
  569MOL0     C76694   1.941   5.070   3.315  0.2778  1.5226  0.3829
  569MOL0     C76695   1.938   5.122   3.168  0.7072 -0.4769  0.1971
  569MOL0     C76696   1.915   5.267   3.154 -0.3438 -0.8978  0.3678
  569MOL0     N76697   1.774   5.305   3.134 -0.5217 -0.6289 -0.5546
  569MOL0     C76698   1.696   5.307   3.021 -0.1772 -0.6369  0.0197
  569MOL0     C76699   1.575   5.348   3.071 -0.3902  0.9116 -0.3681
  569MOL0     C76700   1.441   5.362   2.991 -1.3584 -0.6585  0.4401
  569MOL0     C76701   1.437   5.256   2.875  0.7017 -0.0149 -0.3310
  569MOL0     C76702   1.303   5.180   2.844 -0.0855 -0.4178 -0.7455
  569MOL0     C76703   1.179   5.266   2.806 -1.5095 -0.3979  0.5495
  569MOL0     O76704   1.183   5.327   2.676 -0.2052  1.1185 -0.5224
  569MOL0     C76705   1.067   5.348   2.599 -0.2067  0.5810  0.1842
  569MOL0     C76706   1.053   5.480   2.550 -1.4620  0.5214  0.5300
  569MOL0     C76707   0.952   5.526   2.482  0.4200  0.3606  0.8242
  569MOL0     C76708   0.843   5.443   2.460  0.3833 -0.7221  0.9414
  569MOL0     C76709   0.728   5.497   2.371  0.9301 -0.3907 -0.2152
  569MOL0     O76710   0.618   5.419   2.381  1.2575  0.0187 -0.1072
  569MOL0     C76711   0.520   5.425   2.283 -0.8020  0.3281 -0.0624
  569MOL0     C76712   0.542   5.396   2.144 -0.7803  0.4264  0.1048
  569MOL0     C76713   0.443   5.378   2.051  0.4432  0.7426  0.5400
  569MOL0     C76714   0.310   5.388   2.098  0.4095 -0.3748  0.2201
  569MOL0     O76715   0.195   5.366   2.020  0.1453 -0.7589 -0.2231
  569MOL0     C76716   0.225   5.344   1.875  0.4373 -0.9647  0.1052
  569MOL0     C76717   0.090   5.340   1.799  0.0616  0.3645  1.0327
  569MOL0     C76718   0.004   5.449   1.839  0.4360 -0.7124 -0.1307
  569MOL0     C76719  -0.081   5.501   1.725  0.2795  0.3507 -0.8208
  569MOL0     C76720  -0.185   5.603   1.781  0.7321  0.8172  0.5903
  569MOL0     C76721  -0.307   5.544   1.854  0.9010 -0.3633 -0.4475
  569MOL0     C76722  -0.312   5.599   1.998  0.2310 -0.3516 -0.7357
  569MOL0     C76723  -0.379   5.504   2.094  0.0704 -0.0548 -0.2359
  569MOL0    Cl76724  -0.338   5.538   2.260  0.3701 -0.1100 -0.1330
  569MOL0     C76725   0.285   5.396   2.235  0.3769 -0.4166 -0.1105
  569MOL0     C76726   0.385   5.422   2.329 -0.5831  0.8430  0.5314
  569MOL0     O76727   0.752   5.582   2.283 -0.2170  0.0530 -0.2839
  569MOL0     C76728   0.843   5.311   2.501  1.1337 -0.0186 -0.0339
  569MOL0     C76729   0.958   5.256   2.577  0.3473 -0.2858  0.3801
  569MOL0     N76730   1.585   5.387   3.200  0.0838 -0.4299  0.1627
  569MOL0     N76731   1.707   5.360   3.241 -0.2098 -0.3307 -0.3161
  569MOL0     C76732   2.523   4.775   3.934 -0.5955  0.6743  0.4763
  569MOL0     C76733   2.656   4.755   3.985 -0.5914 -0.3783 -0.1780
  569MOL0     C76734   3.066   4.761   4.070  0.5289 -0.1989  0.4253
  569MOL0     C76735   3.081   4.783   4.214 -0.7159 -0.3702  0.2639
  569MOL0     C76736   3.191   4.737   4.281 -0.3164 -0.2836 -0.1509
  569MOL0     C76737   3.303   4.685   4.208  0.6585 -0.9927 -0.3731
  569MOL0     O76738   3.423   4.641   4.261  0.0021 -0.4075  0.1331
  569MOL0     C76739   3.438   4.638   4.407 -0.3589 -0.6192  0.0952
  569MOL0     C76740   3.383   4.517   4.481 -0.0610 -0.9148 -0.0150
  569MOL0     C76741   3.404   4.384   4.419  1.1651  0.5991  0.1678
  569MOL0     C76742   3.310   4.291   4.492  1.2105 -0.3750 -0.8465
  569MOL0     C76743   3.333   4.277   4.636 -0.5366  0.4173  0.4821
  569MOL0     C76744   3.350   4.239   4.756 -0.1833 -0.4133  0.4201
  569MOL0     C76745   3.296   4.683   4.074  0.1871 -0.4411 -0.4078
  569MOL0     C76746   3.181   4.706   3.998  0.4157 -0.3687  0.8168
  569MOL0     C76747   3.193   4.661   3.847  0.3848 -1.2872 -0.2169
  569MOL0     H76748   2.720   5.088   4.002 -2.0601  0.2841  0.9397
  569MOL0     H76749   2.513   5.115   3.917  1.0080  0.6262  0.8474
  569MOL0     H76750   2.250   5.060   3.963 -1.4811 -3.1018  1.0808
  569MOL0     H76751   2.336   5.112   3.801  1.8914 -0.1345  1.8002
  569MOL0     H76752   2.089   5.140   3.805  2.7687  1.2573  4.4670
  569MOL0     H76753   2.076   4.961   3.793 -0.4218  0.8841 -0.8638
  569MOL0     H76754   2.201   4.943   3.598  0.1197  0.2402  0.1091
  569MOL0     H76755   2.235   5.116   3.594 -4.1834  3.5386 -1.5694
  569MOL0     H76756   1.990   4.954   3.555  0.6625 -0.5053 -1.2795
  569MOL0     H76757   1.957   5.116   3.588 -1.7649 -1.4912 -0.0701
  569MOL0     H76758   2.081   5.204   3.399  1.1794 -0.2120 -3.0931
  569MOL0     H76759   2.143   5.033   3.352  0.4893 -0.8687  0.1952
  569MOL0     H76760   1.919   4.963   3.320 -0.0589  1.5624 -0.2552
  569MOL0     H76761   1.856   5.126   3.355 -0.8347  1.0249 -1.2329
  569MOL0     H76762   1.850   5.072   3.126 -0.4760  0.5011  1.4143
  569MOL0     H76763   2.022   5.081   3.112 -0.9674 -1.3731 -1.7787
  569MOL0     H76764   1.943   5.319   3.246 -1.0729  0.7258 -0.2873
  569MOL0     H76765   1.979   5.307   3.074 -0.8661  0.6541  0.6972
  569MOL0     H76766   1.725   5.272   2.922  0.6828  3.1513 -1.2033
  569MOL0     H76767   1.356   5.357   3.060 -2.6309  2.1354 -0.7652
  569MOL0     H76768   1.438   5.462   2.947  0.1917 -1.0859 -0.6984
  569MOL0     H76769   1.475   5.303   2.784  4.0222 -5.3775 -2.1937
  569MOL0     H76770   1.504   5.171   2.891 -0.9431 -1.7492 -2.1496
  569MOL0     H76771   1.273   5.142   2.942  0.0866 -2.3832 -1.4148
  569MOL0     H76772   1.319   5.093   2.781  0.6437 -2.7199  2.3526
  569MOL0     H76773   1.173   5.349   2.877  1.5233 -0.0186  0.5017
  569MOL0     H76774   1.092   5.199   2.807 -0.7908 -1.3728  2.6650
  569MOL0     H76775   1.138   5.541   2.577 -0.9709 -0.5958  1.6362
  569MOL0     H76776   0.970   5.623   2.436  1.2489 -0.6365 -1.0570
  569MOL0     H76777   0.646   5.375   2.121 -0.3503  0.4987  1.8198
  569MOL0     H76778   0.477   5.356   1.950  1.3738 -4.6960  1.7368
  569MOL0     H76779   0.295   5.416   1.834  0.9922 -2.6446 -2.0615
  569MOL0     H76780   0.278   5.252   1.849  0.8883 -0.8966  0.7634
  569MOL0     H76781   0.123   5.357   1.696  0.0865  0.6290  1.0856
  569MOL0     H76782   0.050   5.242   1.828  1.1107 -0.4205 -0.0867
  569MOL0     H76783  -0.063   5.412   1.918  0.4983 -2.7042 -0.9502
  569MOL0     H76784   0.056   5.538   1.877  1.5149 -1.1398 -0.5811
  569MOL0     H76785  -0.129   5.415   1.678  0.0691 -0.5975  1.0460
  569MOL0     H76786  -0.013   5.547   1.653 -0.5368  1.3140 -1.0016
  569MOL0     H76787  -0.227   5.654   1.694  1.0440 -1.9457 -1.3144
  569MOL0     H76788  -0.141   5.683   1.842 -1.3367  2.8947 -0.5019
  569MOL0     H76789  -0.396   5.584   1.806 -1.0510 -0.5659  2.6965
  569MOL0     H76790  -0.310   5.435   1.850 -0.1273 -0.2997 -2.9915
  569MOL0     H76791  -0.372   5.690   1.995 -0.1175 -0.5259 -4.7826
  569MOL0     H76792  -0.209   5.623   2.027  0.3666 -0.6635 -0.9523
  569MOL0     H76793  -0.486   5.520   2.082 -0.6356 -1.8767  2.5862
  569MOL0     H76794  -0.369   5.396   2.077 -0.6929  0.0295 -1.3088
  569MOL0     H76795   0.183   5.401   2.273  0.7827 -2.2687  1.3804
  569MOL0     H76796   0.367   5.421   2.436 -3.4652 -2.0656  0.1734
  569MOL0     H76797   0.759   5.249   2.472 -0.6114  1.8543  0.7468
  569MOL0     H76798   0.968   5.154   2.615  0.9838 -0.6368 -0.7075
  569MOL0     H76799   2.452   4.693   3.921  1.4440 -1.2676  0.9016
  569MOL0     H76800   2.700   4.663   4.024  0.5209  1.1644  2.4910
  569MOL0     H76801   2.992   4.821   4.263 -2.0310 -1.0948 -1.4812
  569MOL0     H76802   3.186   4.755   4.388  0.1298  0.0292 -0.1814
  569MOL0     H76803   3.396   4.731   4.448  3.1095  0.2199  2.0909
  569MOL0     H76804   3.545   4.641   4.429 -0.3708 -0.7301  0.1681
  569MOL0     H76805   3.276   4.540   4.480  0.5101  2.2114 -0.7525
  569MOL0     H76806   3.425   4.512   4.582 -0.3744 -1.1037  0.1077
  569MOL0     H76807   3.509   4.355   4.427  0.3117 -2.2567  3.5407
  569MOL0     H76808   3.367   4.397   4.317 -0.9446 -0.6670  0.6902
  569MOL0     H76809   3.205   4.319   4.478  0.8895 -1.2029 -0.1717
  569MOL0     H76810   3.312   4.191   4.448  2.6331 -0.2511 -1.1271
  569MOL0     H76811   3.361   4.222   4.861 -0.9199 -1.0862  0.3975
  569MOL0     H76812   3.388   4.648   4.029  0.5717  2.4499 -2.1206
  569MOL0     H76813   3.120   4.588   3.813  0.2201 -0.9820 -0.5311
  569MOL0     H76814   3.178   4.755   3.793 -1.0906 -1.9850 -1.0669
  569MOL0     H76815   3.295   4.624   3.832  1.0306 -0.5108  1.7944
  570MOL0     O76816   7.470   9.341   3.087 -0.6767  0.1790  0.1675
  570MOL0     C76817   7.473   9.232   3.022  0.2188 -1.6012 -0.4326
  570MOL0     O76818   7.457   9.106   3.065 -0.8729  0.4086  0.3885
  570MOL0     C76819   7.400   9.074   3.185 -0.0653 -0.1834  1.0532
  570MOL0     C76820   7.271   9.019   3.211 -0.3462 -0.0160  0.2805
  570MOL0     C76821   7.234   8.966   3.334 -0.2270  0.5985 -0.8005
  570MOL0     C76822   7.336   8.963   3.436  0.5891 -0.6232 -0.0286
  570MOL0     O76823   7.307   8.908   3.560  0.0867  0.1160 -0.2952
  570MOL0     C76824   7.245   9.010   3.645  0.0370  0.1721  0.6412
  570MOL0     C76825   7.236   8.935   3.776  0.2882 -1.1803 -0.0346
  570MOL0     C76826   7.134   8.993   3.869  0.0828 -0.0728  0.0248
  570MOL0     C76827   7.172   8.996   4.017 -0.1319 -1.1929 -0.5426
  570MOL0     C76828   7.246   9.124   4.055 -0.0846  0.6007  0.0389
  570MOL0     C76829   7.287   9.143   4.205 -0.5682 -0.2430  0.4712
  570MOL0     C76830   7.186   9.107   4.319  0.4022 -0.2091  0.1784
  570MOL0     C76831   7.072   9.199   4.312  0.2735 -0.4765  0.0124
  570MOL0     N76832   7.084   9.337   4.367 -0.0792  0.4290  0.2072
  570MOL0     C76833   7.187   9.418   4.366 -1.1452 -0.3853  0.9085
  570MOL0     C76834   7.155   9.519   4.448  0.4430 -0.4359  0.1810
  570MOL0     C76835   7.250   9.640   4.469 -0.1035 -0.5161 -0.9314
  570MOL0     C76836   7.209   9.768   4.384  0.1541  0.5175 -0.2744
  570MOL0     C76837   7.243   9.770   4.231 -0.2036 -0.0418 -1.2219
  570MOL0     C76838   7.172   9.895   4.176 -0.2451  0.1145 -0.1227
  570MOL0     O76839   7.227   9.915   4.048  0.5818  0.5861  0.1390
  570MOL0     C76840   7.325  10.003   4.040 -0.3734 -0.6353  0.9140
  570MOL0     C76841   7.363  10.033   3.905  0.1540 -0.0119 -1.7288
  570MOL0     C76842   7.457  10.135   3.875 -0.3285 -0.4918  0.3443
  570MOL0     C76843   7.522  10.215   3.974 -0.4600 -0.8672 -0.9254
  570MOL0     C76844   7.624  10.313   3.920  0.5470 -0.3783  0.2056
  570MOL0     O76845   7.683  10.393   4.013  0.6604 -0.3528  0.3553
  570MOL0     C76846   7.793  10.461   3.985  0.8324 -0.3275 -0.8109
  570MOL0     C76847   7.818  10.556   4.084  0.5607  0.0504 -0.0631
  570MOL0     C76848   7.925  10.646   4.079 -0.1412 -0.1288  0.5878
  570MOL0     C76849   8.012  10.629   3.963 -0.2358  0.3916 -1.1169
  570MOL0     O76850   8.115  10.711   3.937  0.2191  0.3419  0.1864
  570MOL0     C76851   8.118  10.844   3.996  0.3387 -0.4523 -0.9961
  570MOL0     C76852   8.200  10.929   3.901  0.6157 -0.5708  0.0866
  570MOL0     C76853   8.118  10.953   3.770  0.2735  0.3392  0.4521
  570MOL0     C76854   8.210  10.982   3.651 -0.1476 -0.2575 -0.7307
  570MOL0     C76855   8.132  10.998   3.515 -0.0616 -0.5560 -1.1938
  570MOL0     C76856   8.214  10.959   3.381  0.4002 -0.2763 -0.8304
  570MOL0     C76857   8.120  10.968   3.257  0.4527 -0.1681  0.1688
  570MOL0     C76858   8.090  11.112   3.216 -0.5704 -0.7007 -0.4367
  570MOL0    Cl76859   8.237  11.205   3.172  0.0838  0.0138 -0.8457
  570MOL0     C76860   7.993  10.524   3.872  1.0878  0.3331 -0.3411
  570MOL0     C76861   7.881  10.443   3.880 -1.1891 -0.5538 -0.5944
  570MOL0     O76862   7.638  10.317   3.796  0.0280  0.9859  0.2620
  570MOL0     C76863   7.478  10.186   4.109 -0.0606 -0.1203  0.0073
  570MOL0     C76864   7.381  10.086   4.135  0.2502  0.5980 -1.2523
  570MOL0     N76865   7.028   9.498   4.499 -0.3242  0.1706  0.8030
  570MOL0     N76866   6.998   9.392   4.447 -0.0379 -0.4015 -0.3732
  570MOL0     C76867   7.455   9.025   3.416  0.1924 -0.2934 -0.5329
  570MOL0     C76868   7.488   9.083   3.294  0.7871 -1.0179  0.0237
  570MOL0     C76869   7.504   9.258   2.879 -0.5849 -0.7086 -0.1734
  570MOL0     C76870   7.595   9.355   2.838  1.6154 -0.1669  0.4058
  570MOL0     C76871   7.637   9.369   2.698 -0.2331  1.0044 -0.2657
  570MOL0     C76872   7.593   9.278   2.600 -0.5314  0.7285  0.5463
  570MOL0     O76873   7.629   9.276   2.464 -0.3784 -0.1235 -0.2823
  570MOL0     C76874   7.767   9.306   2.428  0.2997 -0.3515  0.2672
  570MOL0     C76875   7.818   9.233   2.301  0.6055  0.6766 -0.3442
  570MOL0     C76876   7.787   9.083   2.298  0.0902  0.4529 -0.6039
  570MOL0     C76877   7.847   9.028   2.164 -0.6047  0.9478  1.0063
  570MOL0     C76878   7.758   8.918   2.126 -0.4744  0.0189  0.0770
  570MOL0     C76879   7.695   8.821   2.077  0.4191 -0.2670 -0.5881
  570MOL0     C76880   7.491   9.185   2.643 -0.0296  0.5366  0.0887
  570MOL0     C76881   7.445   9.176   2.774 -0.2354  0.6293  0.2626
  570MOL0     C76882   7.318   9.096   2.813  0.1968  0.6383  0.4275
  570MOL0     H76883   7.220   9.002   3.116  1.5869  3.8929 -1.7089
  570MOL0     H76884   7.137   8.920   3.353  1.2329 -2.0499  0.9183
  570MOL0     H76885   7.309   9.096   3.665  0.7617  0.7693 -3.4054
  570MOL0     H76886   7.151   9.041   3.599  0.3522  0.3606  0.1090
  570MOL0     H76887   7.335   8.923   3.822 -0.6901  0.0562  2.6111
  570MOL0     H76888   7.194   8.839   3.744  1.8324 -1.5653 -1.0015
  570MOL0     H76889   7.042   8.939   3.847  0.0391 -0.1122  0.2955
  570MOL0     H76890   7.117   9.100   3.851  0.0412  0.3840  2.3986
  570MOL0     H76891   7.080   8.996   4.077  0.1999 -1.1126 -0.0240
  570MOL0     H76892   7.226   8.910   4.058  0.8871  0.1973  1.1755
  570MOL0     H76893   7.344   9.141   4.008  0.2844  0.6951  0.8185
  570MOL0     H76894   7.180   9.203   4.020  1.3193  1.9268  0.2627
  570MOL0     H76895   7.369   9.074   4.225 -0.1990  0.3319  0.9469
  570MOL0     H76896   7.319   9.246   4.218 -0.4879 -0.4036  1.6275
  570MOL0     H76897   7.223   9.110   4.422  0.3621 -2.5385  0.3047
  570MOL0     H76898   7.153   9.003   4.310  0.9153 -0.2083 -2.5932
  570MOL0     H76899   7.050   9.221   4.207  1.1462 -0.6993 -0.2219
  570MOL0     H76900   6.982   9.160   4.362 -0.5366  0.3256 -0.8004
  570MOL0     H76901   7.288   9.413   4.327 -2.0486 -0.5449 -1.5656
  570MOL0     H76902   7.244   9.663   4.576 -0.5608  1.3666 -1.3368
  570MOL0     H76903   7.353   9.605   4.459 -0.8312 -3.9427  1.5417
  570MOL0     H76904   7.105   9.788   4.412  0.4594  0.5293  0.9218
  570MOL0     H76905   7.255   9.856   4.429  3.5375  0.2396 -2.8067
  570MOL0     H76906   7.202   9.682   4.180  0.3955  0.2710 -2.2875
  570MOL0     H76907   7.351   9.781   4.220 -0.1596  1.5545  0.3468
  570MOL0     H76908   7.191   9.977   4.245  1.4262 -3.4979  4.1975
  570MOL0     H76909   7.064   9.886   4.163 -0.2482 -1.0554  0.5947
  570MOL0     H76910   7.308   9.973   3.833 -0.2097 -0.3674 -1.1587
  570MOL0     H76911   7.473  10.152   3.769  0.7536 -1.7611  0.2911
  570MOL0     H76912   7.750  10.576   4.166 -1.1880  0.3390 -1.5029
  570MOL0     H76913   7.948  10.706   4.167  1.3570  0.3790 -0.1183
  570MOL0     H76914   8.015  10.876   4.016  0.8085 -0.4302  1.6883
  570MOL0     H76915   8.160  10.836   4.097 -2.3025  4.6457  0.8430
  570MOL0     H76916   8.224  11.029   3.940  0.3883 -1.1657  1.8437
  570MOL0     H76917   8.293  10.880   3.874  0.0124 -1.0296 -1.2489
  570MOL0     H76918   8.069  10.858   3.748 -2.5241  1.6434  0.5883
  570MOL0     H76919   8.045  11.034   3.758 -0.6414 -0.8306 -3.2748
  570MOL0     H76920   8.275  10.894   3.643 -0.7569 -0.6197 -1.9147
  570MOL0     H76921   8.272  11.070   3.667 -1.8544  0.9565 -0.5143
  570MOL0     H76922   8.106  11.104   3.506 -1.5750 -0.7033  0.8565
  570MOL0     H76923   8.047  10.931   3.529  1.4651 -2.4641 -0.7253
  570MOL0     H76924   8.305  11.012   3.352 -0.0952  2.2935  1.8566
  570MOL0     H76925   8.242  10.853   3.389 -0.7367 -0.5591 -0.5027
  570MOL0     H76926   8.029  10.916   3.287 -0.5861  2.4883  2.0226
  570MOL0     H76927   8.166  10.930   3.165 -0.8894  3.8864 -2.4910
  570MOL0     H76928   8.013  11.120   3.139 -1.2367  0.7137  0.3348
  570MOL0     H76929   8.056  11.164   3.306  0.9599  0.3112 -0.4128
  570MOL0     H76930   8.070  10.510   3.797  0.3013 -0.5305 -1.0188
  570MOL0     H76931   7.862  10.369   3.803 -0.9751 -0.5274 -0.6743
  570MOL0     H76932   7.516  10.238   4.196  3.0666 -1.3447 -0.4752
  570MOL0     H76933   7.368  10.073   4.242 -0.5713  0.7660 -1.3234
  570MOL0     H76934   7.530   9.026   3.494  1.7672  0.4968 -1.9814
  570MOL0     H76935   7.590   9.112   3.271  0.0220  1.0802 -0.9630
  570MOL0     H76936   7.642   9.423   2.909  0.8049  1.6126 -0.6977
  570MOL0     H76937   7.707   9.446   2.666  1.8767 -1.4934 -2.0371
  570MOL0     H76938   7.838   9.293   2.510 -0.2056 -2.4304  0.4220
  570MOL0     H76939   7.758   9.414   2.410 -0.7515 -0.8391 -2.8236
  570MOL0     H76940   7.924   9.241   2.276  1.3309  4.2925  2.9614
  570MOL0     H76941   7.752   9.281   2.228  0.0722  0.9250  0.2957
  570MOL0     H76942   7.678   9.078   2.306  0.0950  0.0249 -0.7400
  570MOL0     H76943   7.837   9.026   2.377 -1.2066 -0.4351 -0.3958
  570MOL0     H76944   7.849   9.097   2.079 -4.0173 -0.9358 -0.8019
  570MOL0     H76945   7.950   8.997   2.186 -1.5684 -0.4678  4.0820
  570MOL0     H76946   7.626   8.743   2.055 -1.1537  1.1455 -0.9218
  570MOL0     H76947   7.437   9.115   2.579 -4.4139  1.1427  2.7277
  570MOL0     H76948   7.252   9.078   2.728 -0.7302  1.5039  0.9517
  570MOL0     H76949   7.341   8.992   2.839  1.5605  1.4547  2.8103
  570MOL0     H76950   7.261   9.139   2.895 -0.3319 -4.2386  2.9792
  571MOL0     O76951   6.361  10.918   0.303 -0.1939 -0.7842 -0.4835
  571MOL0     C76952   6.448  10.865   0.365  0.3699 -0.9151 -1.0610
  571MOL0     O76953   6.548  10.790   0.310  0.4279  1.1871  0.2638
  571MOL0     C76954   6.521  10.698   0.203 -0.7046 -0.2831  0.1115
  571MOL0     C76955   6.616  10.692   0.096 -0.4553  0.8024 -0.5614
  571MOL0     C76956   6.608  10.599  -0.011 -0.1125 -1.0196 -0.6319
  571MOL0     C76957   6.494  10.523  -0.036 -0.9227  1.0374 -0.3635
  571MOL0     O76958   6.474  10.441  -0.148  0.0206 -0.4609 -0.2097
  571MOL0     C76959   6.594  10.400  -0.215 -0.4799  0.3035 -0.2207
  571MOL0     C76960   6.663  10.498  -0.309 -0.3148  0.1563 -0.1228
  571MOL0     C76961   6.609  10.485  -0.455  0.5432  0.8307  1.0259
  571MOL0     C76962   6.671  10.372  -0.552 -0.7095  0.5462  0.2417
  571MOL0     C76963   6.636  10.405  -0.705 -0.2313  0.1420 -0.1502
  571MOL0     C76964   6.709  10.543  -0.752 -0.4960  0.4192  0.7833
  571MOL0     C76965   6.727  10.536  -0.901 -1.0371 -0.1055  0.0888
  571MOL0     C76966   6.763  10.673  -0.943 -0.3317 -0.4868 -0.2179
  571MOL0     N76967   6.902  10.686  -0.988 -0.3471 -0.0328  0.7365
  571MOL0     C76968   6.945  10.675  -1.124  0.1605 -0.2110  0.7015
  571MOL0     C76969   7.076  10.647  -1.116 -0.5225 -0.6371 -0.3324
  571MOL0     C76970   7.176  10.621  -1.231  0.8931  0.1209 -1.2945
  571MOL0     C76971   7.151  10.483  -1.302  0.6483  0.6060 -0.8643
  571MOL0     C76972   7.209  10.371  -1.221  0.3102  0.3612  0.9043
  571MOL0     C76973   7.171  10.232  -1.270  0.4182 -1.0923 -0.2750
  571MOL0     O76974   7.251  10.208  -1.387 -0.6194  0.5767 -0.1146
  571MOL0     C76975   7.366  10.131  -1.360 -0.0779 -0.1148  0.0915
  571MOL0     C76976   7.427  10.062  -1.467 -1.1521  0.4200  0.9066
  571MOL0     C76977   7.549   9.994  -1.450  0.1799  0.2993 -0.3558
  571MOL0     C76978   7.607   9.972  -1.325  0.4971  0.5153 -0.4182
  571MOL0     C76979   7.726   9.894  -1.298 -0.5581 -0.5040 -0.0637
  571MOL0     O76980   7.782   9.887  -1.166  0.6343 -0.7126  0.3824
  571MOL0     C76981   7.896   9.833  -1.130  0.2411 -0.6066  0.1717
  571MOL0     C76982   7.965   9.725  -1.194 -0.2050 -0.0752 -0.1758
  571MOL0     C76983   8.091   9.676  -1.148 -1.3540 -0.6174  0.0935
  571MOL0     C76984   8.148   9.729  -1.032 -0.5608 -0.0999  0.1662
  571MOL0     O76985   8.281   9.697  -0.996  0.0926  0.0444 -0.5063
  571MOL0     C76986   8.364   9.646  -1.102 -0.0444 -0.5308 -0.3913
  571MOL0     C76987   8.514   9.642  -1.078  0.0539 -0.5280  0.2873
  571MOL0     C76988   8.545   9.528  -0.984 -0.2257  0.0247 -0.1591
  571MOL0     C76989   8.658   9.553  -0.890  0.8022 -0.7620  0.8935
  571MOL0     C76990   8.690   9.424  -0.812  0.1920 -0.5600  0.0372
  571MOL0     C76991   8.838   9.432  -0.776  0.6516  0.6389 -0.1233
  571MOL0     C76992   8.876   9.305  -0.691  0.0289 -0.3473  0.1602
  571MOL0     C76993   8.831   9.173  -0.754 -1.3499  0.8519 -0.5868
  571MOL0    Cl76994   8.864   9.047  -0.634  0.0840 -0.3246 -0.1403
  571MOL0     C76995   8.078   9.826  -0.954 -0.5310  0.4470  0.3187
  571MOL0     C76996   7.959   9.885  -1.015 -0.7905  0.4143  0.6022
  571MOL0     O76997   7.776   9.848  -1.397  1.1236  0.4947  0.1741
  571MOL0     C76998   7.538  10.035  -1.218 -0.6807  0.1774  0.6752
  571MOL0     C76999   7.421  10.107  -1.234 -0.2522  1.3710 -0.8800
  571MOL0     N77000   7.112  10.644  -0.981  0.5856  0.3730 -0.4730
  571MOL0     N77001   7.006  10.683  -0.908  0.2683  0.3104 -0.0707
  571MOL0     C77002   6.393  10.541   0.067  0.0416  0.2123 -0.2622
  571MOL0     C77003   6.402  10.627   0.185 -0.5224  0.5266 -0.5343
  571MOL0     C77004   6.491  10.913   0.506  0.0428  1.5041  0.0506
  571MOL0     C77005   6.609  10.864   0.559 -0.0506  0.1959  0.3570
  571MOL0     C77006   6.658  10.905   0.684 -0.6412 -0.2027 -0.1675
  571MOL0     C77007   6.589  10.995   0.763  0.0213  1.1743  0.2098
  571MOL0     O77008   6.652  11.024   0.885 -0.3271 -0.4304  0.3515
  571MOL0     C77009   6.608  11.137   0.960 -0.8657  0.1612 -0.4434
  571MOL0     C77010   6.682  11.148   1.090  0.5447 -0.5763 -0.7891
  571MOL0     C77011   6.617  11.261   1.180 -0.9526  1.3615  0.0090
  571MOL0     C77012   6.656  11.403   1.140 -0.4105 -0.4398  0.1907
  571MOL0     C77013   6.579  11.506   1.207 -0.7270  0.2301 -0.8161
  571MOL0     C77014   6.504  11.584   1.264 -0.6066 -1.2621  0.8751
  571MOL0     C77015   6.479  11.052   0.698 -0.1964 -0.2085 -0.1704
  571MOL0     C77016   6.420  11.010   0.579 -1.3049  0.1151 -0.1096
  571MOL0     C77017   6.279  11.073   0.554 -0.6141  0.6176 -0.2395
  571MOL0     H77018   6.704  10.756   0.103 -0.7154  1.0360  0.7886
  571MOL0     H77019   6.693  10.597  -0.078  2.2095  0.4763  2.0387
  571MOL0     H77020   6.663  10.354  -0.143 -0.5849 -2.3108 -1.6516
  571MOL0     H77021   6.582  10.312  -0.280  2.0550 -0.4395  0.2283
  571MOL0     H77022   6.769  10.473  -0.297 -0.8928 -1.2480  3.2987
  571MOL0     H77023   6.653  10.603  -0.281  2.1245  1.6880 -4.1057
  571MOL0     H77024   6.622  10.582  -0.502 -0.7972 -0.0591 -1.3593
  571MOL0     H77025   6.503  10.458  -0.455  1.1130 -1.6325  1.5254
  571MOL0     H77026   6.780  10.365  -0.545 -0.2422  2.8235 -2.7208
  571MOL0     H77027   6.628  10.277  -0.520  1.6582  0.3732  3.3953
  571MOL0     H77028   6.679  10.327  -0.768  1.6875  1.5606 -0.6893
  571MOL0     H77029   6.529  10.414  -0.722 -1.0913 -2.2525  2.9425
  571MOL0     H77030   6.653  10.631  -0.719 -0.2909  0.7054  0.3844
  571MOL0     H77031   6.803  10.536  -0.698 -1.3100 -3.0757  1.9999
  571MOL0     H77032   6.628  10.527  -0.949 -0.5292 -0.0445 -1.0154
  571MOL0     H77033   6.786  10.453  -0.940  1.3150  2.0265 -1.2373
  571MOL0     H77034   6.691  10.712  -1.016  1.5806  0.4105 -1.6917
  571MOL0     H77035   6.733  10.746  -0.867 -0.2242 -0.4094 -0.2489
  571MOL0     H77036   6.903  10.665  -1.224  2.1822 -0.7419 -0.1477
  571MOL0     H77037   7.148  10.699  -1.302 -0.8321 -1.2977 -2.2781
  571MOL0     H77038   7.281  10.628  -1.202  1.1563 -1.4816 -1.7297
  571MOL0     H77039   7.047  10.456  -1.319  0.5342 -0.5455  1.4123
  571MOL0     H77040   7.191  10.483  -1.404  2.4355  0.5672 -0.2059
  571MOL0     H77041   7.173  10.388  -1.119 -2.0833 -0.1364  0.2059
  571MOL0     H77042   7.318  10.382  -1.225  0.1882  1.2998 -1.1088
  571MOL0     H77043   7.063  10.225  -1.285  0.0810 -1.3587  1.9840
  571MOL0     H77044   7.197  10.156  -1.195  2.0847  2.2543  2.8588
  571MOL0     H77045   7.382  10.084  -1.563  0.7193 -0.5551 -0.2669
  571MOL0     H77046   7.586   9.958  -1.545  0.8230 -0.8142  0.2965
  571MOL0     H77047   7.932   9.692  -1.292 -0.7590 -2.7236  0.8284
  571MOL0     H77048   8.140   9.607  -1.216  2.1805  2.1333 -0.4748
  571MOL0     H77049   8.334   9.547  -1.137 -0.4869 -0.5529  0.0553
  571MOL0     H77050   8.343   9.709  -1.189  0.2028 -1.7500 -1.3722
  571MOL0     H77051   8.571   9.620  -1.169 -2.4105 -2.9115 -0.8120
  571MOL0     H77052   8.535   9.745  -1.046 -0.8648 -0.5368  0.9599
  571MOL0     H77053   8.458   9.503  -0.922  0.4654 -0.5116  0.6111
  571MOL0     H77054   8.579   9.443  -1.043 -0.3747 -1.3543  1.6255
  571MOL0     H77055   8.637   9.644  -0.833 -0.4506  1.7848 -3.1636
  571MOL0     H77056   8.741   9.577  -0.957 -0.1445  0.0825 -0.0199
  571MOL0     H77057   8.671   9.339  -0.879 -1.1493 -1.2881  1.2733
  571MOL0     H77058   8.635   9.401  -0.721 -1.1642 -2.9309 -1.2800
  571MOL0     H77059   8.895   9.429  -0.869  0.9730  2.1093 -0.0043
  571MOL0     H77060   8.871   9.527  -0.732  1.0973  0.4466 -0.0344
  571MOL0     H77061   8.831   9.328  -0.594 -0.7540  4.1583 -1.0443
  571MOL0     H77062   8.985   9.312  -0.683  0.4104 -1.1594 -2.8823
  571MOL0     H77063   8.722   9.166  -0.756 -1.2799 -3.5087 -3.9825
  571MOL0     H77064   8.887   9.149  -0.845  1.7968  2.0459  0.9010
  571MOL0     H77065   8.123   9.852  -0.859 -1.2966  0.0933  0.7907
  571MOL0     H77066   7.914   9.969  -0.964 -2.7843 -0.7775  0.8974
  571MOL0     H77067   7.579  10.028  -1.118 -1.4397 -4.2311  0.8424
  571MOL0     H77068   7.398  10.169  -1.149  3.5723  4.8527 -2.0333
  571MOL0     H77069   6.301  10.483   0.066  0.7631 -1.2018  3.2443
  571MOL0     H77070   6.331  10.621   0.266  0.3739  2.5001  0.4949
  571MOL0     H77071   6.677  10.795   0.510  0.2359  2.5243 -2.7528
  571MOL0     H77072   6.750  10.873   0.732  0.2100  1.1278 -0.8533
  571MOL0     H77073   6.502  11.136   0.986 -0.6526 -2.6034  0.6028
  571MOL0     H77074   6.622  11.226   0.898  1.8738  1.0446  1.2371
  571MOL0     H77075   6.787  11.177   1.081  0.1752  1.0374 -0.2341
  571MOL0     H77076   6.682  11.050   1.138  1.2215 -0.8705 -1.3644
  571MOL0     H77077   6.643  11.233   1.282 -1.0088  1.3138  0.0093
  571MOL0     H77078   6.508  11.255   1.174 -0.8327  0.4082 -3.0926
  571MOL0     H77079   6.760  11.433   1.156 -0.8598  0.6554  1.1740
  571MOL0     H77080   6.634  11.427   1.035  2.0498  1.2979 -0.0241
  571MOL0     H77081   6.440  11.664   1.297 -1.4808 -2.1172  1.3027
  571MOL0     H77082   6.440  11.138   0.751  2.3685  0.2360  1.1397
  571MOL0     H77083   6.299  11.177   0.525  0.0686  2.0421  4.4367
  571MOL0     H77084   6.227  11.006   0.485  0.9712 -2.0402  1.0113
  571MOL0     H77085   6.241  11.082   0.656 -1.7029  3.2758 -0.8074
  572MOL0     O77086   5.587   3.807   1.378 -0.7328  0.5650 -0.0675
  572MOL0     C77087   5.565   3.713   1.297  0.5293 -0.3681  0.5265
  572MOL0     O77088   5.611   3.712   1.160 -0.7050  0.8433 -0.1194
  572MOL0     C77089   5.718   3.799   1.123 -0.1325  1.2405  1.0720
  572MOL0     C77090   5.831   3.826   1.199 -1.3802 -0.0918  0.0474
  572MOL0     C77091   5.951   3.898   1.143  0.4025  0.7233  1.3037
  572MOL0     C77092   5.932   3.968   1.021  0.2644  0.1101 -0.0658
  572MOL0     O77093   6.032   4.049   0.960  0.0066 -0.5428  0.5919
  572MOL0     C77094   6.100   3.972   0.859  0.2696 -0.0798  0.0418
  572MOL0     C77095   6.256   3.991   0.871 -0.1570 -0.0126 -0.2730
  572MOL0     C77096   6.347   3.888   0.801 -0.2085 -0.8915 -0.2729
  572MOL0     C77097   6.352   3.760   0.879  0.4108 -0.3156 -0.3462
  572MOL0     C77098   6.415   3.777   1.019 -0.6531  0.4124 -0.0869
  572MOL0     C77099   6.489   3.651   1.062 -0.7238  0.2497  0.3496
  572MOL0     C77100   6.516   3.639   1.215  0.2478  0.5392  1.1967
  572MOL0     C77101   6.611   3.526   1.249  0.3655 -0.3223 -0.6035
  572MOL0     N77102   6.577   3.486   1.394  0.5581  0.1143 -0.1677
  572MOL0     C77103   6.650   3.538   1.496  1.2061 -0.3464 -0.2302
  572MOL0     C77104   6.634   3.451   1.596 -1.3083  0.2979 -0.0156
  572MOL0     C77105   6.717   3.446   1.723 -0.6252  0.3467  0.6668
  572MOL0     C77106   6.875   3.420   1.696 -0.4896 -0.4519 -0.6095
  572MOL0     C77107   6.947   3.423   1.830  1.6054 -0.1254  0.0109
  572MOL0     C77108   7.096   3.462   1.793  0.0045  0.5169  0.4021
  572MOL0     O77109   7.151   3.487   1.925  0.2111  0.6142 -0.3549
  572MOL0     C77110   7.282   3.510   1.936 -0.2911  0.1366 -0.7692
  572MOL0     C77111   7.332   3.484   2.063  0.5521  0.2759  0.0613
  572MOL0     C77112   7.462   3.503   2.088 -0.3276  0.3499 -0.3717
  572MOL0     C77113   7.549   3.547   1.991 -0.6984 -0.8839  0.0862
  572MOL0     C77114   7.696   3.583   2.014 -0.2305  0.2619  0.6424
  572MOL0     O77115   7.746   3.655   1.916  0.0717 -0.2565 -0.9522
  572MOL0     C77116   7.875   3.712   1.922  0.3304 -0.2844 -0.4170
  572MOL0     C77117   7.989   3.634   1.877  0.9487 -0.3044 -0.3778
  572MOL0     C77118   8.117   3.691   1.873 -0.0356  0.5828 -0.4743
  572MOL0     C77119   8.132   3.822   1.925  0.1670 -0.8149  0.3809
  572MOL0     O77120   8.240   3.910   1.941 -0.2634  0.2547  0.2313
  572MOL0     C77121   8.367   3.859   1.900 -0.1471 -0.3184 -0.0735
  572MOL0     C77122   8.413   3.755   2.003  0.1563 -0.2073  0.2129
  572MOL0     C77123   8.516   3.663   1.953  0.3069 -0.3236  0.7137
  572MOL0     C77124   8.640   3.718   1.893 -0.0670 -0.4051 -0.0997
  572MOL0     C77125   8.724   3.598   1.833  0.0620  0.5637 -0.1138
  572MOL0     C77126   8.652   3.530   1.718 -0.8350 -0.1314  0.4374
  572MOL0     C77127   8.757   3.471   1.620 -0.3922  0.5625  0.0278
  572MOL0     C77128   8.678   3.404   1.501  0.2651 -0.7660 -0.2435
  572MOL0    Cl77129   8.799   3.359   1.376  0.2973  0.6278 -0.4252
  572MOL0     C77130   8.016   3.899   1.954 -0.0307 -0.4475 -0.1693
  572MOL0     C77131   7.891   3.846   1.962  0.6417 -0.3794 -0.7617
  572MOL0     O77132   7.755   3.550   2.117 -0.0595  0.1201  0.6358
  572MOL0     C77133   7.508   3.552   1.858 -0.2294  0.0776 -0.1098
  572MOL0     C77134   7.373   3.538   1.828  0.7841  0.0519  0.2634
  572MOL0     N77135   6.546   3.354   1.557 -0.0216 -0.7493 -0.4178
  572MOL0     N77136   6.512   3.370   1.435  0.0000 -0.5223 -0.0115
  572MOL0     C77137   5.812   3.947   0.950 -0.4181 -0.5391  0.3176
  572MOL0     C77138   5.703   3.854   0.991 -0.2407  0.3002  0.1120
  572MOL0     C77139   5.490   3.594   1.354 -0.7955 -1.1229 -0.0155
  572MOL0     C77140   5.532   3.467   1.318  0.0029  0.8207  1.2837
  572MOL0     C77141   5.468   3.353   1.373 -0.8486 -0.3343 -0.4208
  572MOL0     C77142   5.359   3.359   1.454 -0.3199  0.2739  0.0851
  572MOL0     O77143   5.289   3.249   1.496 -0.5924  0.0703  0.5775
  572MOL0     C77144   5.237   3.147   1.411 -0.1782  0.3974 -0.0801
  572MOL0     C77145   5.090   3.155   1.414 -0.6376 -0.3704  0.2380
  572MOL0     C77146   5.041   3.282   1.353  0.5077  0.1119  0.5807
  572MOL0     C77147   4.889   3.265   1.320 -0.2342  0.7962 -0.5223
  572MOL0     C77148   4.866   3.221   1.185  0.0167  0.5862 -0.2247
  572MOL0     C77149   4.835   3.197   1.074 -0.0618 -0.0439  0.6449
  572MOL0     C77150   5.318   3.484   1.494 -0.4124 -1.0000 -0.3918
  572MOL0     C77151   5.372   3.607   1.442  0.0862 -0.6007 -0.8915
  572MOL0     C77152   5.323   3.735   1.493  0.7694 -0.0396  0.3936
  572MOL0     H77153   5.825   3.794   1.303 -3.8514 -2.2013 -0.6634
  572MOL0     H77154   6.045   3.919   1.194  0.1999  2.4152  1.0225
  572MOL0     H77155   6.077   3.866   0.872 -0.4768  0.2100  1.3571
  572MOL0     H77156   6.057   3.995   0.762 -1.2639 -1.2738  0.3976
  572MOL0     H77157   6.284   4.005   0.975 -2.2901 -2.7463  0.7863
  572MOL0     H77158   6.280   4.086   0.822 -2.1071  0.2219 -0.8652
  572MOL0     H77159   6.438   3.939   0.770 -1.9334  3.6810  1.2793
  572MOL0     H77160   6.297   3.863   0.707 -2.5449  0.3583  0.5403
  572MOL0     H77161   6.248   3.725   0.885 -0.5882  2.6123  1.1575
  572MOL0     H77162   6.401   3.678   0.825 -0.2867 -2.4509  2.0627
  572MOL0     H77163   6.484   3.863   1.021  1.0579 -0.8748 -1.1966
  572MOL0     H77164   6.335   3.784   1.093  0.0016 -4.8223  1.5316
  572MOL0     H77165   6.445   3.557   1.029 -2.2322  2.0698 -3.3690
  572MOL0     H77166   6.584   3.653   1.009 -1.8489  0.1350 -1.7810
  572MOL0     H77167   6.414   3.624   1.251 -1.2734  0.5359 -2.5533
  572MOL0     H77168   6.566   3.731   1.245 -1.2718  3.0848 -3.0276
  572MOL0     H77169   6.588   3.443   1.182  2.6934 -1.1432 -0.4605
  572MOL0     H77170   6.716   3.553   1.243  0.1836  0.8260  0.6842
  572MOL0     H77171   6.720   3.621   1.493 -0.5652  1.2378 -3.4283
  572MOL0     H77172   6.712   3.542   1.775 -1.2766  0.8554 -0.2975
  572MOL0     H77173   6.674   3.371   1.789  2.4339 -1.3397  0.9229
  572MOL0     H77174   6.895   3.317   1.663 -1.2478 -1.1539  0.9847
  572MOL0     H77175   6.914   3.489   1.621  2.9843  1.8201  2.9063
  572MOL0     H77176   6.937   3.321   1.867  0.7869 -0.0139  0.1159
  572MOL0     H77177   6.904   3.497   1.899  0.0663  0.7484 -1.7932
  572MOL0     H77178   7.100   3.549   1.726 -1.0473  0.3711  0.1246
  572MOL0     H77179   7.146   3.384   1.736 -2.0793 -0.5438 -0.0719
  572MOL0     H77180   7.282   3.435   2.146  1.2372 -1.4809 -0.5033
  572MOL0     H77181   7.506   3.489   2.186  0.8770  0.8471 -0.8248
  572MOL0     H77182   7.957   3.538   1.839 -2.5546 -0.5026  2.5845
  572MOL0     H77183   8.196   3.621   1.847  1.0439  1.8950 -0.8271
  572MOL0     H77184   8.362   3.811   1.802  1.8529  0.8373 -0.7995
  572MOL0     H77185   8.439   3.940   1.892  0.1319 -0.6529 -1.1002
  572MOL0     H77186   8.451   3.805   2.093  1.1537 -0.4569 -0.0582
  572MOL0     H77187   8.332   3.697   2.050  1.1306 -0.3980  1.7213
  572MOL0     H77188   8.546   3.596   2.034  0.3918 -2.6401 -1.1193
  572MOL0     H77189   8.466   3.591   1.887 -1.1087  2.1434 -1.0604
  572MOL0     H77190   8.709   3.769   1.960  1.0301  1.5690 -2.5514
  572MOL0     H77191   8.624   3.803   1.826 -1.3882  1.4852  2.4278
  572MOL0     H77192   8.732   3.520   1.909 -3.6865 -1.8357 -1.8939
  572MOL0     H77193   8.825   3.632   1.807 -0.2506  0.3289 -1.7453
  572MOL0     H77194   8.590   3.451   1.761  1.0996 -2.9964 -1.6777
  572MOL0     H77195   8.595   3.607   1.666 -0.6978 -2.0722 -2.8863
  572MOL0     H77196   8.798   3.383   1.669 -1.7182 -0.6793 -1.0103
  572MOL0     H77197   8.827   3.549   1.590  1.9653 -1.9428 -1.4051
  572MOL0     H77198   8.627   3.319   1.546 -2.3297  0.6521 -0.3582
  572MOL0     H77199   8.606   3.478   1.464  2.0522  0.5266 -1.3342
  572MOL0     H77200   8.042   3.989   2.010 -0.3287 -0.2831 -0.2935
  572MOL0     H77201   7.809   3.912   1.990  0.6005 -0.4303 -0.7632
  572MOL0     H77202   7.581   3.583   1.784  1.5032  0.9351  1.8434
  572MOL0     H77203   7.337   3.553   1.727 -0.3712 -0.2121  0.6278
  572MOL0     H77204   5.799   3.987   0.850 -0.2409  1.8484  1.2002
  572MOL0     H77205   5.627   3.836   0.915  2.6290 -0.6997 -2.7530
  572MOL0     H77206   5.626   3.453   1.265  0.4788 -1.2521  2.5404
  572MOL0     H77207   5.511   3.258   1.344 -1.8275 -0.3550 -1.9049
  572MOL0     H77208   5.270   3.047   1.442 -0.8580 -0.8574 -3.0869
  572MOL0     H77209   5.285   3.158   1.313  0.4092 -2.0569 -0.1391
  572MOL0     H77210   5.054   3.133   1.515  0.3324 -0.8344  0.4902
  572MOL0     H77211   5.055   3.064   1.365  1.8781 -0.9188 -0.6865
  572MOL0     H77212   5.101   3.318   1.269 -1.2872 -0.5068 -1.0346
  572MOL0     H77213   5.046   3.362   1.428 -2.6762  0.7961  0.1924
  572MOL0     H77214   4.839   3.198   1.390 -2.2958  2.4095 -0.3665
  572MOL0     H77215   4.825   3.352   1.334  1.6291  2.4351 -1.5908
  572MOL0     H77216   4.801   3.171   0.975  2.7842 -0.0259 -0.4530
  572MOL0     H77217   5.238   3.478   1.567  0.6815  1.1100  1.0988
  572MOL0     H77218   5.405   3.779   1.552 -0.0388 -1.3625  2.6118
  572MOL0     H77219   5.290   3.808   1.419  2.3929  0.7261  0.3667
  572MOL0     H77220   5.240   3.716   1.561 -0.7183 -3.8760 -2.1946
  573MOL0     O77221   1.272   4.331   3.825 -0.6388 -0.1533 -0.4726
  573MOL0     C77222   1.320   4.307   3.936 -0.7479  0.6267  0.1819
  573MOL0     O77223   1.276   4.217   4.020 -0.1480  0.2430 -0.2128
  573MOL0     C77224   1.170   4.138   3.977  0.8533  0.0073 -0.4011
  573MOL0     C77225   1.196   4.003   3.969 -1.2124  0.3532  0.9977
  573MOL0     C77226   1.090   3.918   3.929 -0.4985  0.9329  0.0343
  573MOL0     C77227   0.958   3.963   3.915 -0.3875 -0.3087  0.5838
  573MOL0     O77228   0.850   3.897   3.861 -0.1138 -0.6280 -0.4601
  573MOL0     C77229   0.846   3.752   3.867 -1.0161  0.1605 -0.9952
  573MOL0     C77230   0.813   3.701   4.006 -0.6489 -0.0565 -0.1427
  573MOL0     C77231   0.815   3.540   4.028 -0.2312 -0.6006 -0.8182
  573MOL0     C77232   0.825   3.515   4.185 -1.0385  0.1166 -0.1695
  573MOL0     C77233   0.779   3.380   4.233 -0.1245 -0.0945  0.4066
  573MOL0     C77234   0.763   3.360   4.385  0.1304 -0.6616 -0.9068
  573MOL0     C77235   0.716   3.222   4.429  0.3453  1.1588  0.2264
  573MOL0     C77236   0.717   3.212   4.585  0.4120  0.0364 -0.4224
  573MOL0     N77237   0.660   3.320   4.660 -0.2103  0.3793 -0.5228
  573MOL0     C77238   0.534   3.365   4.635 -0.2259  0.3408 -0.5590
  573MOL0     C77239   0.519   3.473   4.716 -0.2486 -0.0660 -0.1917
  573MOL0     C77240   0.390   3.556   4.731  0.2881 -0.1279  0.5260
  573MOL0     C77241   0.313   3.520   4.859 -0.9668  0.4929 -0.6013
  573MOL0     C77242   0.181   3.586   4.849 -0.8049 -1.3895  0.7100
  573MOL0     C77243   0.181   3.740   4.833  0.2231  0.1297  1.0549
  573MOL0     O77244   0.172   3.799   4.967 -1.4619 -0.2870  0.0401
  573MOL0     C77245   0.095   3.906   4.987 -0.3882  0.5486  0.4800
  573MOL0     C77246   0.033   3.906   5.105 -0.7535 -0.6549 -0.3049
  573MOL0     C77247  -0.044   4.013   5.136  0.2334 -0.4607  0.1379
  573MOL0     C77248  -0.045   4.135   5.066 -0.9797  0.1958  0.4379
  573MOL0     C77249  -0.133   4.256   5.106 -0.8148 -0.2976 -0.1684
  573MOL0     O77250  -0.156   4.270   5.245  0.6707 -1.0777 -0.6640
  573MOL0     C77251  -0.210   4.389   5.292 -0.3619  0.7485 -0.6167
  573MOL0     C77252  -0.129   4.453   5.392 -0.8013 -0.8781  0.7770
  573MOL0     C77253  -0.156   4.587   5.439 -0.1934  0.0671 -0.3600
  573MOL0     C77254  -0.275   4.653   5.405  0.7160  0.0512  1.3075
  573MOL0     O77255  -0.323   4.767   5.460 -0.3660  0.7774  0.1171
  573MOL0     C77256  -0.239   4.825   5.557  0.5265  0.0042  0.1817
  573MOL0     C77257  -0.314   4.939   5.627  0.1224 -0.7658  0.4925
  573MOL0     C77258  -0.369   5.050   5.529  0.4608 -0.2163  0.4263
  573MOL0     C77259  -0.445   5.151   5.613  0.0646  0.7413 -0.0155
  573MOL0     C77260  -0.549   5.215   5.528  0.8764 -0.1913 -0.7358
  573MOL0     C77261  -0.593   5.349   5.599  1.1742  1.1832 -0.2662
  573MOL0     C77262  -0.675   5.333   5.720  0.2590 -0.4346 -0.2651
  573MOL0     C77263  -0.647   5.436   5.829  0.2743 -0.8809 -0.5287
  573MOL0    Cl77264  -0.681   5.599   5.750  0.4511  0.2728  0.6343
  573MOL0     C77265  -0.356   4.588   5.307 -0.7427  0.1793 -0.2227
  573MOL0     C77266  -0.313   4.468   5.245  0.1277 -0.3326 -0.2369
  573MOL0     O77267  -0.155   4.345   5.020 -0.1602 -0.3039 -0.0926
  573MOL0     C77268   0.025   4.141   4.941  0.5113  0.6444 -0.3501
  573MOL0     C77269   0.086   4.017   4.898  0.7242 -0.9225 -0.2765
  573MOL0     N77270   0.639   3.480   4.786 -0.1889 -0.2723  0.0438
  573MOL0     N77271   0.725   3.388   4.753  0.0368  0.1485 -0.1014
  573MOL0     C77272   0.924   4.095   3.932 -0.8660 -0.1008 -0.5498
  573MOL0     C77273   1.034   4.182   3.970 -0.2029  0.2955 -0.1897
  573MOL0     C77274   1.434   4.391   3.971  0.0911 -0.1775  1.1307
  573MOL0     C77275   1.436   4.523   3.917 -0.5860  0.0585  0.3035
  573MOL0     C77276   1.532   4.624   3.965 -0.7794  0.0590  0.1884
  573MOL0     C77277   1.627   4.584   4.056 -0.0453  0.7804 -0.7487
  573MOL0     O77278   1.727   4.659   4.117  0.0817  0.8515  0.3725
  573MOL0     C77279   1.764   4.788   4.058  0.9527 -0.3187  0.0375
  573MOL0     C77280   1.886   4.853   4.124 -0.2426  0.7582 -0.8099
  573MOL0     C77281   2.012   4.763   4.115  0.0791 -0.2374 -0.6509
  573MOL0     C77282   2.138   4.841   4.159 -0.5341  0.6909  0.1773
  573MOL0     C77283   2.243   4.741   4.179 -0.0539  0.5425  0.2805
  573MOL0     C77284   2.337   4.666   4.213  0.1255  0.4033 -0.6797
  573MOL0     C77285   1.630   4.450   4.098  0.8358  0.0109 -0.2818
  573MOL0     C77286   1.539   4.355   4.052 -0.5683 -0.0423 -0.2883
  573MOL0     C77287   1.553   4.224   4.106 -0.3958  0.5438  0.0151
  573MOL0     H77288   1.303   3.988   3.956 -1.0358 -1.8819  4.0428
  573MOL0     H77289   1.111   3.812   3.920 -0.7253  0.7101  1.6534
  573MOL0     H77290   0.772   3.712   3.798 -0.7775 -2.4564  0.1468
  573MOL0     H77291   0.947   3.714   3.849 -0.1846  0.7714  1.8630
  573MOL0     H77292   0.722   3.746   4.047 -1.8525 -0.8480 -1.8377
  573MOL0     H77293   0.893   3.754   4.060  0.0076  1.6705 -2.6273
  573MOL0     H77294   0.903   3.488   3.988 -0.4802 -0.9264 -0.9517
  573MOL0     H77295   0.719   3.506   3.987  0.5891 -0.9101 -2.5525
  573MOL0     H77296   0.926   3.522   4.228 -2.3587  3.5469  2.9207
  573MOL0     H77297   0.783   3.607   4.228  0.0438 -0.1207  1.5153
  573MOL0     H77298   0.681   3.374   4.183 -0.4487  0.1614  1.0072
  573MOL0     H77299   0.848   3.299   4.208 -2.3453 -2.2247  0.6947
  573MOL0     H77300   0.858   3.372   4.438 -0.3332  0.4527 -0.2857
  573MOL0     H77301   0.683   3.427   4.418  0.3183 -0.0997 -1.5734
  573MOL0     H77302   0.773   3.147   4.372  0.6800  0.0277  1.9740
  573MOL0     H77303   0.620   3.216   4.378  0.1495  0.1762  0.6833
  573MOL0     H77304   0.679   3.115   4.618  0.3656 -0.1316 -0.9610
  573MOL0     H77305   0.824   3.219   4.608  0.7629  3.7550 -2.3428
  573MOL0     H77306   0.466   3.323   4.561  0.1593  1.3092 -1.4913
  573MOL0     H77307   0.426   3.660   4.729 -1.9209  0.6992 -0.7034
  573MOL0     H77308   0.328   3.557   4.641 -3.0486  0.8483  2.6330
  573MOL0     H77309   0.293   3.413   4.852  0.2888  0.3788 -4.8349
  573MOL0     H77310   0.374   3.543   4.947 -2.1608  4.2555 -0.5636
  573MOL0     H77311   0.128   3.568   4.943 -0.6528 -1.9392  0.6922
  573MOL0     H77312   0.138   3.543   4.758  0.9001 -0.0792 -0.8101
  573MOL0     H77313   0.101   3.778   4.769 -0.8593 -1.6950  1.2835
  573MOL0     H77314   0.276   3.776   4.793  0.6094 -0.7871  1.1260
  573MOL0     H77315   0.035   3.818   5.168  0.1795  0.4099  1.2099
  573MOL0     H77316  -0.097   3.998   5.229  1.1736 -1.8083  0.4776
  573MOL0     H77317  -0.037   4.407   5.427 -0.0841  0.4824  0.7357
  573MOL0     H77318  -0.078   4.633   5.498  0.0111  1.6238 -1.7758
  573MOL0     H77319  -0.218   4.753   5.637 -0.5800  1.0590  1.4531
  573MOL0     H77320  -0.143   4.861   5.519  1.7868 -1.5313  1.7330
  573MOL0     H77321  -0.379   4.893   5.702  3.4747 -1.8342  2.9860
  573MOL0     H77322  -0.239   4.992   5.686  0.2196 -0.0914 -0.2275
  573MOL0     H77323  -0.287   5.099   5.474  0.7834 -3.4285 -2.2363
  573MOL0     H77324  -0.444   5.006   5.463  0.2910  3.4861 -2.2061
  573MOL0     H77325  -0.373   5.225   5.649  0.2430  1.1348 -1.1425
  573MOL0     H77326  -0.482   5.098   5.701  1.1067  2.3359  1.4454
  573MOL0     H77327  -0.635   5.150   5.509 -0.3030  0.6847  1.2411
  573MOL0     H77328  -0.497   5.245   5.436  0.2323  1.0487 -0.7202
  573MOL0     H77329  -0.505   5.409   5.624  0.3417  1.6469  1.7190
  573MOL0     H77330  -0.647   5.415   5.531  3.7999  1.7233 -1.9858
  573MOL0     H77331  -0.642   5.237   5.761  1.8987  0.0600 -0.3465
  573MOL0     H77332  -0.784   5.332   5.706  0.2668  1.1376 -0.6722
  573MOL0     H77333  -0.703   5.420   5.922 -2.3035  2.3975 -1.3266
  573MOL0     H77334  -0.540   5.423   5.847  0.0229 -0.6498  1.3900
  573MOL0     H77335  -0.443   4.646   5.275 -2.2151 -1.9140 -0.1953
  573MOL0     H77336  -0.373   4.413   5.174 -1.3334 -1.9735  2.1156
  573MOL0     H77337   0.039   4.226   4.875 -3.2548 -1.1176 -3.8313
  573MOL0     H77338   0.140   4.004   4.805 -0.5550 -4.1269 -0.6827
  573MOL0     H77339   0.817   4.112   3.937 -1.1642 -1.5780 -1.2222
  573MOL0     H77340   1.013   4.288   3.984 -3.5836 -0.1198 -1.1893
  573MOL0     H77341   1.354   4.562   3.857 -0.3130 -0.5007 -0.4501
  573MOL0     H77342   1.519   4.723   3.922 -0.2299 -0.9827 -2.5303
  573MOL0     H77343   1.690   4.867   4.069  0.6736 -0.3546 -1.3612
  573MOL0     H77344   1.789   4.771   3.953  0.4564 -0.9074  0.0058
  573MOL0     H77345   1.875   4.860   4.233  0.7181 -0.9031 -0.5686
  573MOL0     H77346   1.907   4.949   4.077  2.7758  1.2627  1.2429
  573MOL0     H77347   2.010   4.734   4.010 -3.5057 -2.0339 -0.2393
  573MOL0     H77348   1.994   4.675   4.178 -1.0709  1.7119  1.9083
  573MOL0     H77349   2.169   4.908   4.078  1.3956 -1.7259 -1.2048
  573MOL0     H77350   2.112   4.892   4.252 -1.6757 -0.5025  0.5418
  573MOL0     H77351   2.418   4.598   4.228  0.6219  0.8742 -1.1904
  573MOL0     H77352   1.711   4.428   4.166 -0.3906  1.8321  1.9578
  573MOL0     H77353   1.516   4.213   4.209  0.7092  1.2926  0.5122
  573MOL0     H77354   1.507   4.140   4.053  0.5876 -0.1760  0.2755
  573MOL0     H77355   1.659   4.199   4.106 -0.5824 -0.5247  2.5098
  574MOL0     O77356   0.205   6.222   4.234  0.3847 -0.3447 -0.0550
  574MOL0     C77357   0.244   6.121   4.289 -0.1574  0.4991 -0.7504
  574MOL0     O77358   0.229   6.089   4.425 -0.1230 -0.0096 -0.7674
  574MOL0     C77359   0.161   6.175   4.508 -0.4961 -0.1720 -0.8546
  574MOL0     C77360   0.223   6.212   4.625  1.6437 -0.7195 -0.0377
  574MOL0     C77361   0.147   6.289   4.717  0.6371  0.4768  0.6207
  574MOL0     C77362   0.016   6.328   4.696  1.3337  0.4004 -0.0366
  574MOL0     O77363  -0.056   6.399   4.794 -0.4981  0.2734  0.4054
  574MOL0     C77364  -0.196   6.358   4.815 -0.5986 -0.0410 -0.1169
  574MOL0     C77365  -0.247   6.406   4.952 -0.1088  0.2348 -1.1643
  574MOL0     C77366  -0.355   6.322   5.032 -0.1027 -0.2977  0.3797
  574MOL0     C77367  -0.406   6.396   5.153 -0.1968 -0.8761 -0.1807
  574MOL0     C77368  -0.312   6.376   5.287  0.4360 -0.6889  0.2813
  574MOL0     C77369  -0.353   6.477   5.406 -0.0304 -0.3832  1.2386
  574MOL0     C77370  -0.252   6.464   5.520 -0.7491 -0.1677 -0.4060
  574MOL0     C77371  -0.309   6.364   5.627 -0.4912 -0.2838  2.0125
  574MOL0     N77372  -0.204   6.344   5.726  0.3613 -0.3572  0.1329
  574MOL0     C77373  -0.173   6.429   5.829 -0.3117 -0.8322  0.8525
  574MOL0     C77374  -0.071   6.375   5.895 -0.4462  0.5849 -0.0434
  574MOL0     C77375  -0.012   6.437   6.015 -0.2445  0.0806 -0.1061
  574MOL0     C77376  -0.089   6.406   6.150  0.3973 -0.2344 -0.7807
  574MOL0     C77377  -0.050   6.269   6.208  0.0391  0.7261  0.2471
  574MOL0     C77378   0.101   6.238   6.223 -1.2391  0.4783 -0.6693
  574MOL0     O77379   0.112   6.156   6.341  0.4670  0.6200 -0.4448
  574MOL0     C77380   0.205   6.207   6.426  0.2590  0.9632 -0.7908
  574MOL0     C77381   0.344   6.203   6.407  0.0953 -0.7535  0.2498
  574MOL0     C77382   0.427   6.269   6.496  0.2636 -0.5104 -0.3930
  574MOL0     C77383   0.370   6.334   6.608  0.2792 -0.9703 -0.3824
  574MOL0     C77384   0.464   6.392   6.704  0.2608  0.1799 -0.7284
  574MOL0     O77385   0.598   6.391   6.678  1.3793 -0.6659  0.5282
  574MOL0     C77386   0.681   6.448   6.771  0.0410  0.9097  0.8188
  574MOL0     C77387   0.759   6.554   6.734  0.7526  0.1389 -1.0699
  574MOL0     C77388   0.859   6.602   6.819  0.1941  0.2935  0.6154
  574MOL0     C77389   0.885   6.550   6.950  0.9100 -0.4839 -0.0972
  574MOL0     O77390   0.987   6.609   7.020 -0.1279 -0.0861 -0.0647
  574MOL0     C77391   1.001   6.572   7.164  0.4921 -0.2027  0.7176
  574MOL0     C77392   1.131   6.617   7.220 -0.0545 -0.7853 -0.5279
  574MOL0     C77393   1.151   6.770   7.263 -0.1980  0.3511  0.0023
  574MOL0     C77394   1.152   6.862   7.143 -0.6672 -0.3667  0.4251
  574MOL0     C77395   1.121   7.004   7.186 -0.8242 -0.6541 -0.1388
  574MOL0     C77396   1.225   7.065   7.287 -0.6896  0.2780  1.2223
  574MOL0     C77397   1.171   7.198   7.345  0.1153  0.4538  0.1194
  574MOL0     C77398   1.278   7.273   7.424  0.0176 -0.2184  0.2048
  574MOL0    Cl77399   1.434   7.301   7.341 -0.4925  0.1694  0.4621
  574MOL0     C77400   0.787   6.452   6.986  0.3474 -0.1135  0.1993
  574MOL0     C77401   0.696   6.398   6.899 -0.0641  1.0740 -0.1713
  574MOL0     O77402   0.409   6.443   6.803  0.3506  0.3030 -0.5409
  574MOL0     C77403   0.236   6.345   6.627  0.3699  0.2793  0.4580
  574MOL0     C77404   0.151   6.283   6.532  0.0975  1.4694 -0.4570
  574MOL0     N77405  -0.051   6.248   5.842  0.0023  0.1257  0.4095
  574MOL0     N77406  -0.128   6.238   5.742  0.2305  0.0995 -0.3662
  574MOL0     C77407  -0.041   6.287   4.579  0.5599  0.7319  0.3723
  574MOL0     C77408   0.031   6.206   4.490 -0.3821 -0.2753 -0.4929
  574MOL0     C77409   0.332   6.023   4.209 -0.1236  0.5280 -0.3987
  574MOL0     C77410   0.407   5.923   4.277 -0.2661 -0.1921 -1.3444
  574MOL0     C77411   0.493   5.830   4.221 -0.8900  1.0727  0.2062
  574MOL0     C77412   0.524   5.844   4.084  0.3222 -0.0182 -0.1671
  574MOL0     O77413   0.604   5.763   4.006  0.3725 -0.8428  0.6528
  574MOL0     C77414   0.612   5.775   3.863  0.7303  0.6678  0.5813
  574MOL0     C77415   0.712   5.672   3.818  0.8464  0.8487 -0.3656
  574MOL0     C77416   0.667   5.521   3.828 -0.2337  0.5687 -0.7940
  574MOL0     C77417   0.530   5.496   3.756 -0.5875  0.3962  0.4834
  574MOL0     C77418   0.537   5.515   3.611 -0.0343  0.1766  0.5535
  574MOL0     C77419   0.541   5.531   3.492  0.2628  0.8365 -0.0982
  574MOL0     C77420   0.458   5.945   4.025  0.1482  0.4892  0.0576
  574MOL0     C77421   0.360   6.030   4.074  0.2855 -0.1844 -0.0235
  574MOL0     C77422   0.284   6.113   3.980 -0.3162 -0.2052 -0.4020
  574MOL0     H77423   0.320   6.177   4.660  1.1535 -3.2060 -0.9875
  574MOL0     H77424   0.183   6.323   4.814  0.1458 -1.6717  1.6111
  574MOL0     H77425  -0.264   6.392   4.737 -0.8270  1.1177  0.5538
  574MOL0     H77426  -0.209   6.250   4.826 -1.5338  0.1696  1.0344
  574MOL0     H77427  -0.294   6.502   4.927  0.0781  0.0567 -2.2456
  574MOL0     H77428  -0.156   6.417   5.012  0.2878 -4.6189 -0.4885
  574MOL0     H77429  -0.311   6.228   5.066 -0.9736 -0.6631  0.5212
  574MOL0     H77430  -0.433   6.300   4.960  1.1250 -0.7766 -0.8472
  574MOL0     H77431  -0.428   6.502   5.136  0.9552 -0.2220  2.0603
  574MOL0     H77432  -0.500   6.345   5.177  0.2176 -0.9943  1.2380
  574MOL0     H77433  -0.305   6.272   5.321 -3.7153 -1.6770 -1.2067
  574MOL0     H77434  -0.219   6.414   5.245 -0.6241  2.1923  0.3278
  574MOL0     H77435  -0.356   6.579   5.368 -1.3297 -0.6523  0.5442
  574MOL0     H77436  -0.451   6.450   5.447 -0.3834 -1.9835 -0.5005
  574MOL0     H77437  -0.248   6.566   5.560 -0.7815 -0.7103  1.0284
  574MOL0     H77438  -0.149   6.435   5.497  0.2883  2.8251 -0.0173
  574MOL0     H77439  -0.395   6.408   5.677 -1.2159  1.3162 -0.4537
  574MOL0     H77440  -0.334   6.273   5.572  0.6162  0.2929  0.4516
  574MOL0     H77441  -0.230   6.519   5.852  1.4503  0.1086  1.7136
  574MOL0     H77442   0.096   6.423   6.009 -0.4116 -0.7171 -1.8563
  574MOL0     H77443  -0.024   6.543   5.990  2.7313 -0.4475 -5.4116
  574MOL0     H77444  -0.059   6.479   6.226  2.8009  1.2271 -2.9928
  574MOL0     H77445  -0.198   6.413   6.143  0.1959  1.4668  2.1067
  574MOL0     H77446  -0.096   6.184   6.156  1.0371 -1.0405  2.0922
  574MOL0     H77447  -0.085   6.259   6.311  0.0158 -2.2364  0.0599
  574MOL0     H77448   0.165   6.326   6.232  2.0769 -1.7404 -0.9027
  574MOL0     H77449   0.134   6.191   6.130  1.6759  0.0095  0.4975
  574MOL0     H77450   0.374   6.144   6.320  2.6489  0.0399  0.4997
  574MOL0     H77451   0.534   6.265   6.480  0.3087  0.1048 -0.3004
  574MOL0     H77452   0.744   6.601   6.638 -1.2222 -1.1290 -1.4297
  574MOL0     H77453   0.922   6.690   6.816  0.4406  0.2739  3.1918
  574MOL0     H77454   0.914   6.616   7.211  0.0540  3.3884 -2.9237
  574MOL0     H77455   0.999   6.462   7.168  2.4771 -0.2498  1.6877
  574MOL0     H77456   1.149   6.565   7.314  0.7397  5.0449  3.0496
  574MOL0     H77457   1.215   6.599   7.152 -1.1929 -1.0631 -1.9179
  574MOL0     H77458   1.065   6.797   7.326 -0.0044 -1.7873  1.2902
  574MOL0     H77459   1.241   6.775   7.325 -0.6110  0.1934  0.6241
  574MOL0     H77460   1.069   6.838   7.076  0.6359  0.0545 -1.4177
  574MOL0     H77461   1.249   6.864   7.092 -0.6778  0.7435  0.4237
  574MOL0     H77462   1.019   7.006   7.223 -0.0853  1.0505  2.0231
  574MOL0     H77463   1.126   7.068   7.097 -2.9347 -0.5515 -0.2224
  574MOL0     H77464   1.227   6.997   7.373 -0.6592  0.8740  1.6943
  574MOL0     H77465   1.326   7.075   7.246 -1.3713 -0.0003 -0.6274
  574MOL0     H77466   1.086   7.157   7.400 -1.8901  3.1011 -0.7736
  574MOL0     H77467   1.140   7.257   7.258 -0.1116 -0.7446 -0.6285
  574MOL0     H77468   1.237   7.367   7.462  0.7483  0.3559 -0.3791
  574MOL0     H77469   1.297   7.201   7.503 -2.4250 -1.2267 -0.0477
  574MOL0     H77470   0.790   6.419   7.090 -2.0465  0.8073  0.6222
  574MOL0     H77471   0.640   6.309   6.925  3.3915 -0.7929  1.5933
  574MOL0     H77472   0.187   6.384   6.715  0.1786 -1.1728  1.0235
  574MOL0     H77473   0.046   6.270   6.553  0.2867 -0.5910 -0.6159
  574MOL0     H77474  -0.146   6.303   4.557 -0.1180 -2.6304  0.6321
  574MOL0     H77475  -0.015   6.148   4.410 -0.5868 -0.3180 -0.3426
  574MOL0     H77476   0.407   5.922   4.386 -1.7490 -0.5029 -1.3253
  574MOL0     H77477   0.531   5.750   4.284 -0.0648 -0.6621 -2.3058
  574MOL0     H77478   0.654   5.872   3.835  3.0532 -0.6651 -0.8365
  574MOL0     H77479   0.510   5.760   3.825  0.3410  0.6561  1.5996
  574MOL0     H77480   0.799   5.677   3.885  1.7375 -2.3556 -1.1103
  574MOL0     H77481   0.751   5.690   3.717 -2.1891 -0.2698 -1.8589
  574MOL0     H77482   0.670   5.499   3.935  2.8507 -2.3011 -1.3208
  574MOL0     H77483   0.747   5.463   3.781 -0.3242  0.2320 -0.5382
  574MOL0     H77484   0.494   5.395   3.775  2.7516 -0.3617  4.2206
  574MOL0     H77485   0.453   5.553   3.809 -1.5967 -2.1233  1.9002
  574MOL0     H77486   0.543   5.538   3.385 -1.1767  0.8601 -0.1344
  574MOL0     H77487   0.492   5.962   3.924 -0.7650 -0.9640 -0.5358
  574MOL0     H77488   0.323   6.214   3.991  0.3106 -0.4625 -0.2436
  574MOL0     H77489   0.298   6.075   3.878  0.0632 -2.1584  0.3330
  574MOL0     H77490   0.175   6.113   3.994 -0.1772 -1.0778  0.8140
  575MOL0     O77491   4.879   1.657   9.591 -0.4946 -0.3683  0.2392
  575MOL0     C77492   4.910   1.774   9.596 -0.4450  0.3548  0.3290
  575MOL0     O77493   4.830   1.869   9.537 -0.0073  0.3549 -0.4463
  575MOL0     C77494   4.762   1.819   9.436  0.2188 -0.3556 -0.4700
  575MOL0     C77495   4.643   1.746   9.457 -0.7888  0.3971  0.1888
  575MOL0     C77496   4.554   1.718   9.362  0.1896 -0.3803  1.3198
  575MOL0     C77497   4.574   1.776   9.229 -0.4324  0.5281  0.8684
  575MOL0     O77498   4.481   1.757   9.125 -0.0784  0.3357  0.5758
  575MOL0     C77499   4.346   1.765   9.161  0.0114 -0.9051 -0.3622
  575MOL0     C77500   4.271   1.848   9.070  0.0233  0.4613  0.6156
  575MOL0     C77501   4.221   1.781   8.944  0.6662 -0.0818 -0.1470
  575MOL0     C77502   4.331   1.756   8.836 -0.7190  0.5782 -0.4596
  575MOL0     C77503   4.278   1.721   8.698  0.0866 -0.5905 -0.5443
  575MOL0     C77504   4.186   1.601   8.700  0.1400  0.2897 -0.6464
  575MOL0     C77505   4.114   1.559   8.571  0.0853 -0.0755 -1.0100
  575MOL0     C77506   3.976   1.632   8.550 -1.1383  0.1860 -0.5654
  575MOL0     N77507   3.900   1.566   8.447  0.1735 -1.1110  1.0181
  575MOL0     C77508   3.775   1.506   8.454  0.3336 -0.1803  0.1257
  575MOL0     C77509   3.731   1.489   8.327 -0.0582 -0.2245  0.1347
  575MOL0     C77510   3.610   1.418   8.298  0.4197  0.0679  0.1049
  575MOL0     C77511   3.632   1.271   8.270  0.3521  0.2590 -0.1009
  575MOL0     C77512   3.667   1.245   8.121 -0.6179 -0.7797 -0.4715
  575MOL0     C77513   3.644   1.101   8.067  0.0995  0.5694 -0.5075
  575MOL0     O77514   3.711   1.079   7.934 -0.5950 -0.0841 -0.1364
  575MOL0     C77515   3.848   1.062   7.925 -0.5487  0.1761 -0.3828
  575MOL0     C77516   3.902   1.037   7.800 -0.3733 -0.2732 -0.1136
  575MOL0     C77517   4.024   0.973   7.800 -0.7064 -0.6476 -0.9657
  575MOL0     C77518   4.105   0.943   7.917 -0.5610  0.2327  0.7215
  575MOL0     C77519   4.240   0.884   7.904 -0.0507 -1.0434 -0.0169
  575MOL0     O77520   4.281   0.860   7.778 -0.8041  0.0468  0.2185
  575MOL0     C77521   4.404   0.826   7.731 -0.2009  0.6447  0.1882
  575MOL0     C77522   4.523   0.823   7.808 -0.7088  0.1268  0.6430
  575MOL0     C77523   4.648   0.779   7.761 -0.3216 -0.2993  1.5418
  575MOL0     C77524   4.671   0.773   7.625 -0.2314 -0.7783 -0.4696
  575MOL0     O77525   4.800   0.749   7.580  0.2097  0.9805 -0.1876
  575MOL0     C77526   4.830   0.766   7.440 -0.3839  0.2311 -0.5254
  575MOL0     C77527   4.979   0.764   7.442  0.0461 -0.3240  0.3837
  575MOL0     C77528   5.044   0.787   7.293  0.9281 -0.2021  0.2299
  575MOL0     C77529   4.951   0.741   7.182 -0.9637  0.6445 -0.9261
  575MOL0     C77530   5.031   0.763   7.051 -0.5950  0.1455  0.8294
  575MOL0     C77531   5.178   0.716   7.041 -1.0684 -0.4510 -0.6926
  575MOL0     C77532   5.233   0.719   6.895  0.1781  0.3208  0.2779
  575MOL0     C77533   5.369   0.652   6.890  0.2872  0.6466  0.4257
  575MOL0    Cl77534   5.435   0.591   6.730  0.2429  0.1683 -0.1637
  575MOL0     C77535   4.553   0.778   7.539 -0.4277  0.3483  0.5597
  575MOL0     C77536   4.426   0.795   7.592 -0.3341 -0.7147  0.3965
  575MOL0     O77537   4.306   0.874   8.003  0.4483  0.1354  0.0125
  575MOL0     C77538   4.041   0.963   8.044  0.4988  0.0681  0.7106
  575MOL0     C77539   3.917   1.026   8.049 -0.7257 -0.1642  0.6262
  575MOL0     N77540   3.843   1.515   8.253 -0.7146 -0.2566 -0.3899
  575MOL0     N77541   3.934   1.569   8.317 -0.7145 -0.1790 -0.3279
  575MOL0     C77542   4.699   1.840   9.204  0.2019 -0.0298 -0.9038
  575MOL0     C77543   4.791   1.863   9.304  0.7326  1.2655 -0.3781
  575MOL0     C77544   5.021   1.822   9.676 -0.1425  0.7586  0.2340
  575MOL0     C77545   5.035   1.960   9.689 -0.8512  0.5309  0.2528
  575MOL0     C77546   5.128   2.014   9.779 -0.0593 -0.3730  0.1500
  575MOL0     C77547   5.203   1.938   9.872 -0.1281  0.8398  0.0026
  575MOL0     O77548   5.297   1.986   9.962 -0.7463 -0.5642  0.5463
  575MOL0     C77549   5.334   2.136   9.960 -0.7980 -0.1504  0.2759
  575MOL0     C77550   5.213   2.215  10.024 -1.2163  0.0371 -0.2863
  575MOL0     C77551   5.220   2.199  10.177  1.0759  0.6577 -0.2897
  575MOL0     C77552   5.333   2.270  10.252 -0.0616  0.7550  0.0275
  575MOL0     C77553   5.315   2.416  10.259  0.6964  0.5512  1.0546
  575MOL0     C77554   5.305   2.535  10.278 -0.1453  0.0987 -0.8561
  575MOL0     C77555   5.190   1.801   9.859  0.4147 -0.4885 -0.2654
  575MOL0     C77556   5.113   1.746   9.754  0.4659  0.4890 -0.9743
  575MOL0     C77557   5.110   1.598   9.730  1.1067 -0.3460  0.9115
  575MOL0     H77558   4.619   1.719   9.559  2.5534  2.1388  1.5653
  575MOL0     H77559   4.463   1.661   9.382 -0.7573  0.6409  0.0694
  575MOL0     H77560   4.314   1.661   9.155 -1.5089 -0.3925 -1.7745
  575MOL0     H77561   4.337   1.811   9.260  3.7243  1.6614 -0.9976
  575MOL0     H77562   4.322   1.944   9.059 -0.0384  1.0170  3.9711
  575MOL0     H77563   4.188   1.882   9.133  0.5202  0.4989  1.2661
  575MOL0     H77564   4.138   1.837   8.901 -1.1544 -0.2605  2.8533
  575MOL0     H77565   4.183   1.683   8.974  3.6008 -0.4170  3.1460
  575MOL0     H77566   4.405   1.834   8.813 -1.2168  0.0879 -4.2632
  575MOL0     H77567   4.382   1.667   8.872 -1.7480  0.3164  0.4027
  575MOL0     H77568   4.213   1.801   8.661 -0.0297 -0.5533 -0.2591
  575MOL0     H77569   4.362   1.717   8.628  0.1874 -3.2875 -0.3710
  575MOL0     H77570   4.251   1.516   8.724 -1.0071 -1.7798 -4.1563
  575MOL0     H77571   4.101   1.618   8.767  1.6141  2.6710  0.7670
  575MOL0     H77572   4.091   1.452   8.576 -1.7797  0.1509 -2.9962
  575MOL0     H77573   4.177   1.575   8.483  2.9641  0.7453  1.0426
  575MOL0     H77574   3.919   1.640   8.643 -1.5582 -1.1436 -0.6881
  575MOL0     H77575   4.000   1.739   8.546  2.7963 -0.3611  2.2896
  575MOL0     H77576   3.725   1.488   8.549 -1.1047  4.9232  0.6434
  575MOL0     H77577   3.546   1.427   8.386  0.9621 -5.1966  1.3418
  575MOL0     H77578   3.551   1.462   8.216  1.1999 -1.4366 -1.3209
  575MOL0     H77579   3.702   1.211   8.329  0.0787 -3.6904 -3.3377
  575MOL0     H77580   3.541   1.210   8.276  2.1650 -2.5173  1.7279
  575MOL0     H77581   3.772   1.272   8.107  0.3048 -2.4255  2.6274
  575MOL0     H77582   3.616   1.316   8.055  0.3041  0.4924  0.1445
  575MOL0     H77583   3.539   1.082   8.045  0.3212  1.7814 -2.8642
  575MOL0     H77584   3.667   1.017   8.134  1.1850  0.4627 -0.9994
  575MOL0     H77585   3.847   1.050   7.708  0.3750  1.4098 -0.3475
  575MOL0     H77586   4.076   0.971   7.704  2.4707  2.5433  0.4479
  575MOL0     H77587   4.506   0.842   7.913 -2.1785  4.5863 -0.1671
  575MOL0     H77588   4.736   0.771   7.824  0.2313 -1.5388  0.6590
  575MOL0     H77589   4.792   0.676   7.391 -4.1400  1.3065  0.0872
  575MOL0     H77590   4.796   0.863   7.401 -1.8735  0.4848  1.2714
  575MOL0     H77591   5.013   0.847   7.506 -1.7907  0.8243 -0.0648
  575MOL0     H77592   5.009   0.672   7.494  1.1111  0.3343  0.9824
  575MOL0     H77593   5.082   0.886   7.267  2.2614 -0.2784  1.7037
  575MOL0     H77594   5.136   0.728   7.296  1.1362  0.1435  1.0064
  575MOL0     H77595   4.868   0.812   7.190  1.3346  3.5399 -1.0607
  575MOL0     H77596   4.935   0.634   7.199  1.9388 -0.1627 -2.5681
  575MOL0     H77597   5.021   0.871   7.042 -0.1967  0.1017 -0.3640
  575MOL0     H77598   4.983   0.704   6.972  0.0388 -0.6607  1.0331
  575MOL0     H77599   5.255   0.776   7.090 -0.5159 -1.8908  0.2757
  575MOL0     H77600   5.182   0.617   7.088  0.1172  0.3061  0.8949
  575MOL0     H77601   5.248   0.814   6.844  1.9423 -2.4715 -5.1491
  575MOL0     H77602   5.165   0.662   6.831  0.0214  0.7758  0.0366
  575MOL0     H77603   5.457   0.710   6.921  3.1000 -1.8952 -2.1720
  575MOL0     H77604   5.355   0.559   6.945 -1.9945 -0.1424 -1.3381
  575MOL0     H77605   4.567   0.759   7.433 -1.1352 -1.3548  0.7435
  575MOL0     H77606   4.342   0.785   7.524  0.8535 -2.0637 -0.9440
  575MOL0     H77607   4.089   0.928   8.135 -0.4012  0.3885  1.3117
  575MOL0     H77608   3.868   1.033   8.145  0.9801 -1.1148  1.6126
  575MOL0     H77609   4.727   1.867   9.103 -0.3491 -2.0926 -1.6400
  575MOL0     H77610   4.888   1.912   9.294  1.5797 -0.4158 -0.6365
  575MOL0     H77611   4.972   2.021   9.626  0.3251  1.7800  0.2221
  575MOL0     H77612   5.131   2.122   9.783  0.4630 -0.3533 -0.6284
  575MOL0     H77613   5.354   2.172   9.859 -0.4915 -0.1232  0.3427
  575MOL0     H77614   5.426   2.149  10.019  2.6680  0.3305 -4.5848
  575MOL0     H77615   5.110   2.184  10.002 -1.5490  1.6685 -1.1975
  575MOL0     H77616   5.230   2.319   9.997 -1.1980  0.2026  0.3509
  575MOL0     H77617   5.193   2.097  10.205 -0.2666  0.8765 -0.7046
  575MOL0     H77618   5.130   2.249  10.217 -2.2965 -3.6484 -1.7128
  575MOL0     H77619   5.350   2.229  10.352 -2.8097  0.8438  0.6306
  575MOL0     H77620   5.423   2.249  10.194  1.9765 -2.1076  3.8255
  575MOL0     H77621   5.294   2.638  10.306  0.1114 -0.6276  2.2619
  575MOL0     H77622   5.247   1.741   9.929  0.0501 -0.3951  0.1114
  575MOL0     H77623   5.101   1.582   9.622  2.8135 -0.2958  0.7271
  575MOL0     H77624   5.199   1.543   9.762  2.2133  0.3433 -0.8469
  575MOL0     H77625   5.027   1.558   9.789 -2.1358  2.8752 -1.0128
  576MOL0     O77626   8.660   8.128   7.221 -0.0979 -0.1901  0.4423
  576MOL0     C77627   8.727   8.173   7.116  0.3920  0.0357 -0.5793
  576MOL0     O77628   8.788   8.299   7.118 -0.2999 -0.1765  0.0600
  576MOL0     C77629   8.745   8.385   7.214  0.1009  0.9173  0.4798
  576MOL0     C77630   8.622   8.437   7.180  0.5513  0.9440 -0.0090
  576MOL0     C77631   8.569   8.533   7.264 -0.3869 -0.2110  1.2172
  576MOL0     C77632   8.636   8.572   7.386 -0.7063  0.4894 -0.3911
  576MOL0     O77633   8.558   8.637   7.478 -0.1320 -0.2870  0.1033
  576MOL0     C77634   8.617   8.655   7.609  0.6582  0.4452  1.1632
  576MOL0     C77635   8.528   8.728   7.694 -1.5079 -0.0230  0.2818
  576MOL0     C77636   8.512   8.874   7.658 -0.2670 -0.2948  0.0719
  576MOL0     C77637   8.395   8.930   7.738  0.2456  1.0408  0.3987
  576MOL0     C77638   8.403   9.087   7.767  1.2537  0.0464  0.0739
  576MOL0     C77639   8.301   9.120   7.877  1.0490 -0.3930 -0.4639
  576MOL0     C77640   8.283   9.272   7.909  0.1535  0.1609 -0.4160
  576MOL0     C77641   8.226   9.353   7.788 -0.0564 -0.0750 -0.3866
  576MOL0     N77642   8.178   9.488   7.823  0.0362 -0.4326 -0.0503
  576MOL0     C77643   8.129   9.518   7.951 -0.3628 -0.2654 -0.6767
  576MOL0     C77644   8.099   9.645   7.935  0.3639  0.1390 -0.1134
  576MOL0     C77645   8.036   9.718   8.049  0.4031 -0.4584 -0.8476
  576MOL0     C77646   8.014   9.867   8.029 -0.1438 -0.5234  1.0617
  576MOL0     C77647   7.972   9.927   8.162  0.7919 -1.6946 -0.7946
  576MOL0     C77648   7.949  10.083   8.156 -0.9596  0.9404 -0.7767
  576MOL0     O77649   8.074  10.155   8.136 -0.0222  0.2274 -0.6575
  576MOL0     C77650   8.164  10.143   8.235  0.5541 -0.9750  0.2573
  576MOL0     C77651   8.279  10.067   8.210 -0.0991 -0.3940  0.7039
  576MOL0     C77652   8.380  10.053   8.302  0.1034  0.3001 -0.1587
  576MOL0     C77653   8.374  10.122   8.430  0.0156  0.1372  0.2651
  576MOL0     C77654   8.487  10.132   8.518 -0.2159  0.1347 -0.1103
  576MOL0     O77655   8.588  10.057   8.482 -0.9824  0.3315  0.5053
  576MOL0     C77656   8.687  10.032   8.574 -0.3365 -0.0354  0.2945
  576MOL0     C77657   8.781  10.130   8.608 -0.4245  0.1719  1.1951
  576MOL0     C77658   8.886  10.100   8.698  0.1363 -0.4167 -0.8956
  576MOL0     C77659   8.901   9.976   8.754 -0.9059 -0.5055  0.3053
  576MOL0     O77660   8.990   9.951   8.843 -0.2194  0.2732  0.0936
  576MOL0     C77661   8.947   9.974   8.979 -0.1916 -0.3568  0.2192
  576MOL0     C77662   9.043   9.895   9.073  0.0735  0.1735  0.4690
  576MOL0     C77663   9.014   9.897   9.217  0.8198  0.1258 -0.7830
  576MOL0     C77664   8.887   9.818   9.260  0.2525  0.2115 -0.1901
  576MOL0     C77665   8.905   9.724   9.377  0.3695  0.5523  0.4261
  576MOL0     C77666   8.936   9.778   9.513  0.4235 -0.4928 -0.0473
  576MOL0     C77667   8.811   9.855   9.572 -0.3475 -0.6251  0.2022
  576MOL0     C77668   8.799   9.886   9.724 -0.2201  0.1735  0.5270
  576MOL0    Cl77669   8.891   9.769   9.819  0.4840 -0.1808 -0.1432
  576MOL0     C77670   8.819   9.876   8.711 -0.6274 -0.1433  0.9474
  576MOL0     C77671   8.719   9.905   8.614 -0.5458 -0.0483 -0.7303
  576MOL0     O77672   8.476  10.204   8.609  0.3828 -0.1598 -0.1169
  576MOL0     C77673   8.260  10.204   8.444  0.3914 -0.1534 -0.4732
  576MOL0     C77674   8.154  10.212   8.356 -0.1480 -0.5694 -0.6777
  576MOL0     N77675   8.129   9.695   7.806  0.5073 -0.2029 -1.6607
  576MOL0     N77676   8.165   9.592   7.739 -0.2742 -0.6516  0.2014
  576MOL0     C77677   8.764   8.511   7.422  0.0478 -0.4364  1.6640
  576MOL0     C77678   8.817   8.423   7.327 -0.2279 -0.5545 -0.1763
  576MOL0     C77679   8.754   8.076   7.008 -0.2279  0.4335 -0.4067
  576MOL0     C77680   8.875   8.093   6.937  0.1504  0.3558  0.1099
  576MOL0     C77681   8.922   8.015   6.836  0.0462  0.6927  0.4851
  576MOL0     C77682   8.834   7.903   6.791  0.5620 -0.7665  0.5367
  576MOL0     O77683   8.856   7.819   6.687  0.2760 -0.3448  0.1651
  576MOL0     C77684   8.994   7.803   6.652  0.5644 -0.7994  0.4614
  576MOL0     C77685   9.037   7.917   6.554 -0.1526 -0.0064 -0.2917
  576MOL0     C77686   8.942   7.935   6.432 -1.3314  0.9319  0.3687
  576MOL0     C77687   9.011   8.019   6.328 -1.0317  0.3044  0.7891
  576MOL0     C77688   8.956   7.996   6.196  0.4545 -0.2861 -0.3975
  576MOL0     C77689   8.897   7.973   6.091  0.3645 -0.3861 -0.0799
  576MOL0     C77690   8.719   7.882   6.872  1.3352  0.6214  0.5483
  576MOL0     C77691   8.677   7.958   6.981  0.5259 -0.0209 -0.0239
  576MOL0     C77692   8.549   7.935   7.066 -0.5491  0.3846 -0.0962
  576MOL0     H77693   8.582   8.410   7.082 -0.3568  1.6645  0.1461
  576MOL0     H77694   8.480   8.571   7.214  0.8118 -0.3636 -1.1967
  576MOL0     H77695   8.634   8.556   7.651 -0.2697 -0.2141  0.0419
  576MOL0     H77696   8.710   8.713   7.600 -0.0252  1.2755 -1.9261
  576MOL0     H77697   8.574   8.719   7.793  1.5172 -1.5402 -1.1195
  576MOL0     H77698   8.437   8.668   7.702 -0.9853 -0.6250  2.4234
  576MOL0     H77699   8.493   8.890   7.551  1.1841  0.3410 -0.1126
  576MOL0     H77700   8.603   8.930   7.684 -1.8600  3.3020 -1.3127
  576MOL0     H77701   8.303   8.909   7.682 -0.2726 -1.0604  1.8780
  576MOL0     H77702   8.388   8.869   7.828  0.0327  1.8689  0.9572
  576MOL0     H77703   8.507   9.117   7.787  0.5526  3.2076 -0.3774
  576MOL0     H77704   8.381   9.140   7.674  1.0041  0.8855  0.5942
  576MOL0     H77705   8.203   9.075   7.858  0.2923  0.4186  1.2480
  576MOL0     H77706   8.332   9.067   7.967 -3.7478 -2.0144  0.5530
  576MOL0     H77707   8.373   9.323   7.943 -0.2540 -0.1123  1.1288
  576MOL0     H77708   8.206   9.271   7.986  0.3088 -0.9386 -0.2602
  576MOL0     H77709   8.304   9.364   7.712  0.2111  0.7003 -0.0084
  576MOL0     H77710   8.135   9.301   7.756  1.6286 -3.0797 -0.6958
  576MOL0     H77711   8.116   9.460   8.041  0.9400  2.4368  1.3964
  576MOL0     H77712   7.939   9.674   8.077 -0.6164  1.6317 -0.9196
  576MOL0     H77713   8.102   9.705   8.136  0.7463 -0.2028 -1.0677
  576MOL0     H77714   8.108   9.909   7.994 -0.5776 -0.8223 -0.5456
  576MOL0     H77715   7.940   9.879   7.949  0.2499  0.6891  0.8619
  576MOL0     H77716   8.047   9.906   8.239  3.6574 -0.0071 -2.9272
  576MOL0     H77717   7.879   9.876   8.187 -0.3822  1.6079  2.3646
  576MOL0     H77718   7.904  10.118   8.249 -0.0119 -1.2611  0.6040
  576MOL0     H77719   7.874  10.103   8.079 -2.4806  3.0130  1.0959
  576MOL0     H77720   8.296  10.030   8.110 -0.9141  2.2050 -0.4943
  576MOL0     H77721   8.468   9.993   8.280 -0.4883 -1.8131  2.7128
  576MOL0     H77722   8.766  10.229   8.566  3.8398  1.3182  1.8905
  576MOL0     H77723   8.937  10.177   8.756 -2.9628  0.5416  0.7589
  576MOL0     H77724   8.957  10.082   8.996 -2.6309  0.0053 -0.2541
  576MOL0     H77725   8.845   9.940   8.993  0.0793 -1.3783 -0.2024
  576MOL0     H77726   9.055   9.793   9.035  2.1154 -0.2750  2.1225
  576MOL0     H77727   9.140   9.940   9.050 -0.6238  0.2069 -3.0504
  576MOL0     H77728   9.104   9.847   9.256 -0.5517 -1.2043  0.8832
  576MOL0     H77729   9.009   9.997   9.260 -3.2460 -1.0261  2.0758
  576MOL0     H77730   8.845   9.769   9.172 -0.5526  3.2112 -1.6349
  576MOL0     H77731   8.818   9.894   9.299  1.1087  0.1414  1.5861
  576MOL0     H77732   8.995   9.667   9.354  2.5633  3.7811  0.2435
  576MOL0     H77733   8.821   9.654   9.376  1.9382 -1.4152 -0.0840
  576MOL0     H77734   8.952   9.696   9.584  1.0404  0.7945  1.3592
  576MOL0     H77735   9.028   9.837   9.511 -0.1753  0.4457 -0.4688
  576MOL0     H77736   8.718   9.805   9.541 -2.4266  3.4145 -0.8282
  576MOL0     H77737   8.809   9.950   9.517 -0.0148  1.5073  3.5913
  576MOL0     H77738   8.842   9.983   9.749  1.3721 -0.8230  1.9048
  576MOL0     H77739   8.697   9.876   9.761 -0.5522 -0.1449 -0.4287
  576MOL0     H77740   8.843   9.774   8.739  1.6869 -0.5514 -1.9282
  576MOL0     H77741   8.657   9.824   8.579 -1.2503  0.6609 -1.1532
  576MOL0     H77742   8.242  10.256   8.538 -3.4309 -1.2080 -0.4302
  576MOL0     H77743   8.077  10.282   8.385 -3.1746 -3.0137 -2.2588
  576MOL0     H77744   8.824   8.522   7.512  0.9778 -1.6411  1.2172
  576MOL0     H77745   8.906   8.367   7.350  0.5240  0.2931 -0.9650
  576MOL0     H77746   8.941   8.173   6.969  3.3555 -0.9519 -2.6741
  576MOL0     H77747   9.016   8.038   6.788 -1.4886  1.5172 -2.3957
  576MOL0     H77748   9.014   7.707   6.605  0.9111  1.0302 -3.5707
  576MOL0     H77749   9.048   7.811   6.746 -0.0188  0.2067  0.7315
  576MOL0     H77750   9.133   7.894   6.507 -0.6286 -1.5663 -0.5575
  576MOL0     H77751   9.058   8.014   6.599  0.4041 -0.3139  0.1157
  576MOL0     H77752   8.842   7.968   6.460 -1.8293 -2.2995  3.1091
  576MOL0     H77753   8.930   7.830   6.404 -1.1508  0.0372  3.2811
  576MOL0     H77754   9.012   8.126   6.351  1.2097  0.4010  0.5057
  576MOL0     H77755   9.117   7.997   6.313 -1.4458  0.3624 -3.4274
  576MOL0     H77756   8.816   7.944   6.026 -1.0221 -1.3197  1.9522
  576MOL0     H77757   8.658   7.797   6.842  1.8520  0.8481 -1.3083
  576MOL0     H77758   8.501   7.846   7.024  0.0287 -0.6592  1.3826
  576MOL0     H77759   8.579   7.907   7.167 -0.5740  4.7153  1.3225
  576MOL0     H77760   8.498   8.031   7.074 -2.3200 -0.5859  0.7339
  577MOL0     O77761  10.428   1.541   8.825  0.4560  0.5682  0.0802
  577MOL0     C77762  10.350   1.446   8.816 -0.9631  1.5310 -0.1336
  577MOL0     O77763  10.364   1.322   8.878 -0.2678  0.4646 -0.5073
  577MOL0     C77764  10.481   1.301   8.941 -0.1053 -0.1800  0.3708
  577MOL0     C77765  10.579   1.218   8.876 -0.4759  0.4890 -0.0426
  577MOL0     C77766  10.699   1.183   8.939  0.5702  0.5582 -0.8739
  577MOL0     C77767  10.715   1.208   9.075 -0.3178 -1.2415  0.0325
  577MOL0     O77768  10.815   1.152   9.149  0.0062 -0.3396  0.2982
  577MOL0     C77769  10.825   1.007   9.139 -0.3767  0.0587 -0.6226
  577MOL0     C77770  10.977   0.979   9.148 -0.3191  0.6829  0.5663
  577MOL0     C77771  11.063   1.024   9.021  0.8813  0.0349 -0.9548
  577MOL0     C77772  11.216   1.022   9.062  0.5942 -0.1747  0.6171
  577MOL0     C77773  11.319   1.048   8.959  0.1502  0.3192  0.4550
  577MOL0     C77774  11.460   1.112   8.997 -0.2845 -0.9187 -0.4760
  577MOL0     C77775  11.560   1.020   9.072 -0.5353  0.0649  0.1228
  577MOL0     C77776  11.593   0.881   8.998 -0.6286  0.2984  0.5876
  577MOL0     N77777  11.720   0.826   9.045  0.1683  0.0837  0.0035
  577MOL0     C77778  11.836   0.835   8.979  0.1781  1.0513  0.6897
  577MOL0     C77779  11.916   0.751   9.037 -0.0639 -0.0003 -0.7656
  577MOL0     C77780  12.058   0.727   8.991  0.1013 -0.2758  0.0054
  577MOL0     C77781  12.172   0.822   9.045  0.2164  0.4313  0.3155
  577MOL0     C77782  12.161   0.969   8.990  0.2626  0.4759 -0.5381
  577MOL0     C77783  12.269   1.052   9.042  0.4293  0.3750 -0.1688
  577MOL0     O77784  12.403   0.998   9.054  0.8092  0.7055 -0.0543
  577MOL0     C77785  12.504   1.070   9.110 -1.0890 -0.0337  0.6031
  577MOL0     C77786  12.491   1.181   9.198 -0.4197  1.3438  0.2417
  577MOL0     C77787  12.597   1.251   9.253 -0.8838 -1.0501  0.5690
  577MOL0     C77788  12.730   1.206   9.219 -0.7567 -0.8300  0.6264
  577MOL0     C77789  12.844   1.267   9.300 -0.1768  0.1764 -0.6075
  577MOL0     O77790  12.951   1.193   9.299  0.6609 -0.3513  0.6453
  577MOL0     C77791  13.060   1.243   9.362  0.0758  0.0837  0.6326
  577MOL0     C77792  13.165   1.251   9.270 -0.6007 -0.0801  0.2415
  577MOL0     C77793  13.295   1.289   9.319  0.4318  0.4214 -1.0432
  577MOL0     C77794  13.313   1.337   9.452  0.2942 -0.8107 -0.7763
  577MOL0     O77795  13.429   1.371   9.509  0.4959  0.1399  0.3581
  577MOL0     C77796  13.503   1.482   9.456  0.2398 -0.0428 -0.0235
  577MOL0     C77797  13.656   1.459   9.436 -0.0485  0.6931  0.7728
  577MOL0     C77798  13.735   1.472   9.573 -0.0245  0.1115  0.1587
  577MOL0     C77799  13.882   1.471   9.533  0.0810 -0.1900 -0.5688
  577MOL0     C77800  13.973   1.487   9.658 -0.1718 -0.4146  0.0912
  577MOL0     C77801  14.113   1.422   9.640  0.8358 -0.8207  0.7592
  577MOL0     C77802  14.190   1.523   9.547  0.3628  0.4110 -0.2243
  577MOL0     C77803  14.250   1.647   9.629 -0.7091  0.1890 -0.5988
  577MOL0    Cl77804  14.306   1.767   9.504  0.3160 -0.1988 -0.0256
  577MOL0     C77805  13.194   1.348   9.533  0.5136 -0.1166 -0.5659
  577MOL0     C77806  13.077   1.291   9.489  0.8247  0.0324  0.2191
  577MOL0     O77807  12.819   1.367   9.366  0.3731  0.2895  0.3175
  577MOL0     C77808  12.748   1.088   9.145  0.1544 -0.4390  0.0647
  577MOL0     C77809  12.633   1.018   9.095  0.4567 -0.3453  0.6711
  577MOL0     N77810  11.845   0.696   9.151  0.4306 -0.1569  0.6875
  577MOL0     N77811  11.726   0.750   9.155 -0.0882 -0.3367  0.5160
  577MOL0     C77812  10.613   1.281   9.139  0.1929  0.6190 -0.6467
  577MOL0     C77813  10.500   1.335   9.072  0.4106 -0.3103  0.6327
  577MOL0     C77814  10.246   1.464   8.709 -0.1160  0.6383  0.7669
  577MOL0     C77815  10.225   1.360   8.611  0.3442  0.4866 -0.0607
  577MOL0     C77816  10.116   1.356   8.517 -0.6255 -2.6638 -0.6439
  577MOL0     C77817  10.033   1.475   8.511  1.4366 -0.3918 -0.1221
  577MOL0     O77818   9.925   1.488   8.419  0.7806  0.3405 -0.0472
  577MOL0     C77819   9.938   1.453   8.280  0.1335  0.5934  0.3902
  577MOL0     C77820   9.804   1.371   8.244  0.1043  0.0699 -0.5205
  577MOL0     C77821   9.758   1.379   8.097  0.3970  0.5428 -0.7377
  577MOL0     C77822   9.616   1.342   8.071  0.6666 -0.3660 -0.2275
  577MOL0     C77823   9.570   1.211   8.108  0.8797 -0.0928 -0.2159
  577MOL0     C77824   9.565   1.090   8.138  0.0165  0.7223  0.2617
  577MOL0     C77825  10.061   1.572   8.600 -0.2564 -0.4216 -0.9618
  577MOL0     C77826  10.156   1.575   8.699  0.1899 -0.9646 -0.1788
  577MOL0     C77827  10.159   1.690   8.799 -0.0333  0.8210 -0.0076
  577MOL0     H77828  10.554   1.181   8.777  0.1328 -2.2228  0.7145
  577MOL0     H77829  10.770   1.121   8.886  2.6736  0.2799  2.0259
  577MOL0     H77830  10.783   0.972   9.234 -0.4993  3.6626  0.7849
  577MOL0     H77831  10.791   0.962   9.045  2.3706  0.5027 -1.9366
  577MOL0     H77832  10.983   0.872   9.170 -1.0826  0.9010  1.9998
  577MOL0     H77833  11.023   1.035   9.230  0.9227 -1.7726  1.6637
  577MOL0     H77834  11.032   1.126   8.997  0.8982  0.1248 -0.6047
  577MOL0     H77835  11.054   0.954   8.938  2.1020  1.3610 -2.2563
  577MOL0     H77836  11.240   1.092   9.143 -3.3419 -1.0636  2.8021
  577MOL0     H77837  11.244   0.926   9.106  0.4280 -0.2320  0.5987
  577MOL0     H77838  11.337   0.959   8.897 -3.9105  0.0086 -0.6088
  577MOL0     H77839  11.274   1.117   8.887 -1.2506  0.1568  1.1363
  577MOL0     H77840  11.512   1.148   8.908  1.9523  1.4156  1.5958
  577MOL0     H77841  11.440   1.199   9.061  2.5671  0.0844 -0.7854
  577MOL0     H77842  11.529   0.992   9.174  0.5144 -0.4631  0.3098
  577MOL0     H77843  11.649   1.081   9.087 -1.1404  1.5390 -1.9107
  577MOL0     H77844  11.515   0.806   9.016 -0.8356  0.3311 -0.1303
  577MOL0     H77845  11.591   0.905   8.891  1.0473  0.6732  0.6228
  577MOL0     H77846  11.868   0.906   8.903 -0.2828  0.4065 -0.1308
  577MOL0     H77847  12.081   0.626   9.028  0.3304 -1.7618 -3.6826
  577MOL0     H77848  12.069   0.699   8.885  1.3285  2.4190 -0.6552
  577MOL0     H77849  12.160   0.822   9.153 -3.2508  0.7406  0.0354
  577MOL0     H77850  12.271   0.779   9.025  0.8483  1.6526  0.7658
  577MOL0     H77851  12.066   1.016   9.015  0.0370 -0.9247  1.4803
  577MOL0     H77852  12.174   0.965   8.881  4.5961  4.1811 -0.4114
  577MOL0     H77853  12.240   1.067   9.147  3.7683 -0.9784  1.0804
  577MOL0     H77854  12.268   1.154   9.003  0.5887  0.0605 -1.0204
  577MOL0     H77855  12.390   1.213   9.223  0.1384  3.1783  0.2641
  577MOL0     H77856  12.564   1.341   9.304 -5.0776 -2.0907  0.0790
  577MOL0     H77857  13.135   1.219   9.172  1.2094 -0.2020 -0.3107
  577MOL0     H77858  13.372   1.279   9.243 -0.0296 -2.4374 -1.2617
  577MOL0     H77859  13.452   1.515   9.365  1.4899 -1.5446 -1.3601
  577MOL0     H77860  13.498   1.562   9.530  2.4635  0.6460 -0.5426
  577MOL0     H77861  13.673   1.359   9.395  0.8775  0.5404  1.4901
  577MOL0     H77862  13.690   1.531   9.361 -0.1387  3.2302  3.0097
  577MOL0     H77863  13.697   1.554   9.635  0.5355  1.1557 -0.8566
  577MOL0     H77864  13.715   1.391   9.644  0.7201  0.2862  0.5723
  577MOL0     H77865  13.903   1.544   9.454  0.2756 -0.1891 -0.5193
  577MOL0     H77866  13.908   1.373   9.492  1.6430 -0.5157  1.0792
  577MOL0     H77867  13.937   1.433   9.745  4.9295 -2.9821  1.0128
  577MOL0     H77868  13.988   1.591   9.687  2.1021 -0.7171  0.1734
  577MOL0     H77869  14.163   1.416   9.737  1.0212  1.9703  0.9216
  577MOL0     H77870  14.105   1.323   9.595  1.9077 -0.6084  0.0672
  577MOL0     H77871  14.127   1.544   9.461 -2.1420  2.1718  1.8701
  577MOL0     H77872  14.271   1.459   9.511 -1.0565 -2.1193  0.8119
  577MOL0     H77873  14.184   1.700   9.698  1.7526 -0.1931  2.2836
  577MOL0     H77874  14.323   1.615   9.704 -0.7247 -0.7060 -0.9523
  577MOL0     H77875  13.195   1.412   9.621  0.5190 -0.1282 -0.5580
  577MOL0     H77876  12.987   1.289   9.550 -3.0641 -2.3378 -4.8849
  577MOL0     H77877  12.843   1.041   9.120 -0.6704 -1.4897 -1.2627
  577MOL0     H77878  12.641   0.928   9.035  1.7366  1.8726 -2.7577
  577MOL0     H77879  10.629   1.303   9.244  0.7796 -0.4535 -0.4897
  577MOL0     H77880  10.411   1.379   9.115 -2.0484 -2.6830 -1.6105
  577MOL0     H77881  10.290   1.275   8.599  2.3494  2.1317 -1.5693
  577MOL0     H77882  10.092   1.268   8.458 -1.5101 -1.5736 -1.9659
  577MOL0     H77883  10.023   1.393   8.246 -1.0043  0.1220 -1.8062
  577MOL0     H77884   9.952   1.549   8.229  2.2533 -1.4208 -3.3195
  577MOL0     H77885   9.721   1.391   8.312  0.5079  0.9723 -0.2729
  577MOL0     H77886   9.833   1.266   8.255 -1.5831 -0.4039 -0.4598
  577MOL0     H77887   9.819   1.310   8.040 -1.5091 -4.6157  2.7212
  577MOL0     H77888   9.789   1.478   8.063  2.7259  0.6759  1.4301
  577MOL0     H77889   9.559   1.426   8.113  1.1630  0.8200 -1.8171
  577MOL0     H77890   9.611   1.362   7.964  0.0158 -0.2601 -0.1803
  577MOL0     H77891   9.546   0.988   8.165  0.1809  0.3934 -0.8417
  577MOL0     H77892   9.990   1.655   8.604  0.1209 -0.1135  2.0970
  577MOL0     H77893  10.056   1.723   8.816 -1.0537 -2.9333  2.2887
  577MOL0     H77894  10.193   1.658   8.898 -0.4605 -1.4230 -0.5429
  577MOL0     H77895  10.223   1.775   8.772 -0.6458  0.6119 -2.4243
  578MOL0     O77896   5.475   5.378  10.935  0.6074 -1.0417 -0.0643
  578MOL0     C77897   5.481   5.377  10.810  0.1902  0.5585 -0.1987
  578MOL0     O77898   5.471   5.478  10.731 -0.4100  1.0482  0.0457
  578MOL0     C77899   5.438   5.593  10.794  0.8989 -0.4336  0.9285
  578MOL0     C77900   5.307   5.629  10.811 -0.0943  0.4314 -0.4883
  578MOL0     C77901   5.266   5.741  10.883 -0.9935  0.3769 -1.1982
  578MOL0     C77902   5.365   5.825  10.948  0.6008 -0.1023 -0.1425
  578MOL0     O77903   5.325   5.943  11.008 -1.1199 -0.3701 -0.0619
  578MOL0     C77904   5.392   5.982  11.126 -0.1825  0.4528 -0.7725
  578MOL0     C77905   5.479   6.104  11.093  0.1642 -0.1456 -0.7253
  578MOL0     C77906   5.533   6.174  11.214  0.1618 -0.0712 -0.2712
  578MOL0     C77907   5.656   6.257  11.176  0.4566 -0.0973 -0.3856
  578MOL0     C77908   5.707   6.335  11.297  0.1230 -0.1437  0.3348
  578MOL0     C77909   5.617   6.460  11.350  0.1173  0.4068 -0.1742
  578MOL0     C77910   5.712   6.548  11.438  0.6556 -0.1690  0.3503
  578MOL0     C77911   5.629   6.686  11.476 -0.7768 -0.5917  0.3641
  578MOL0     N77912   5.694   6.801  11.531 -0.5934  0.6509  0.0392
  578MOL0     C77913   5.678   6.849  11.663 -0.8675  0.7321 -0.2634
  578MOL0     C77914   5.720   6.977  11.670  0.4934  0.0513  1.4171
  578MOL0     C77915   5.699   7.070  11.789  0.0718 -0.4828 -1.0446
  578MOL0     C77916   5.740   7.215  11.737  0.1607  0.4933  0.2087
  578MOL0     C77917   5.727   7.317  11.840  0.7840  0.1215 -0.9332
  578MOL0     C77918   5.583   7.325  11.928  0.2970 -0.0976 -0.3314
  578MOL0     O77919   5.579   7.430  12.018  0.4380  0.2762 -0.6215
  578MOL0     C77920   5.453   7.457  12.078 -0.5151  0.8758 -0.5316
  578MOL0     C77921   5.327   7.415  12.037  0.1033 -0.6955 -0.1866
  578MOL0     C77922   5.214   7.452  12.111  0.6653  0.5955 -0.0060
  578MOL0     C77923   5.221   7.536  12.223 -0.3872 -0.0964  0.8795
  578MOL0     C77924   5.111   7.577  12.303 -0.6331  0.0109 -0.9681
  578MOL0     O77925   4.983   7.553  12.265  0.3431  0.4014 -0.2989
  578MOL0     C77926   4.870   7.563  12.343 -0.2371 -0.4907 -0.3845
  578MOL0     C77927   4.754   7.518  12.270 -1.6890  0.2245  0.4714
  578MOL0     C77928   4.627   7.536  12.319 -0.8564  0.2476 -1.0235
  578MOL0     C77929   4.608   7.597  12.449 -0.3033 -0.1235 -0.0229
  578MOL0     O77930   4.477   7.630  12.481  0.4946 -0.2298  0.1047
  578MOL0     C77931   4.465   7.682  12.612 -0.0549 -0.3899  0.4773
  578MOL0     C77932   4.311   7.732  12.630  0.4805  0.5045 -0.7800
  578MOL0     C77933   4.214   7.620  12.659  0.3407  0.4325 -1.6140
  578MOL0     C77934   4.121   7.607  12.543  0.9388 -0.8798 -0.2262
  578MOL0     C77935   4.021   7.501  12.565 -1.6579 -0.4966 -0.9095
  578MOL0     C77936   3.908   7.517  12.472 -0.0038  0.1934  0.5950
  578MOL0     C77937   3.799   7.403  12.490 -1.3000  0.6575  0.3056
  578MOL0     C77938   3.726   7.406  12.622  0.2781 -0.0919 -0.5011
  578MOL0    Cl77939   3.619   7.546  12.617  0.1444  0.2352  0.5758
  578MOL0     C77940   4.724   7.637  12.517 -0.5251 -1.4179  0.4922
  578MOL0     C77941   4.853   7.622  12.459 -0.5768 -0.7743  0.1980
  578MOL0     O77942   5.152   7.603  12.420  0.0619  0.6988 -0.5995
  578MOL0     C77943   5.356   7.581  12.260  0.3809 -0.0059  0.6210
  578MOL0     C77944   5.468   7.530  12.194  0.8885  0.0549 -0.5679
  578MOL0     N77945   5.752   7.016  11.541  0.8968  0.3145  0.0999
  578MOL0     N77946   5.736   6.915  11.451 -0.5641  0.1588 -0.8196
  578MOL0     C77947   5.494   5.784  10.941 -0.3105 -0.6620  0.6776
  578MOL0     C77948   5.527   5.670  10.863 -0.0526 -0.6099 -1.2322
  578MOL0     C77949   5.506   5.241  10.747 -0.0749  0.1756  0.2460
  578MOL0     C77950   5.533   5.250  10.608 -0.5861  0.0406 -0.1080
  578MOL0     C77951   5.527   5.140  10.525 -0.8048  0.4650 -0.8297
  578MOL0     C77952   5.520   5.007  10.572  0.0256  0.6211 -0.1363
  578MOL0     O77953   5.525   4.918  10.478 -0.1209  0.0526 -0.2477
  578MOL0     C77954   5.525   4.778  10.502  0.1387 -0.1627 -0.6641
  578MOL0     C77955   5.661   4.728  10.537 -0.3505 -0.3983  0.5209
  578MOL0     C77956   5.666   4.580  10.530 -0.0851 -0.7205 -0.7680
  578MOL0     C77957   5.808   4.532  10.565  0.0539  0.1188 -0.8405
  578MOL0     C77958   5.838   4.525  10.713 -0.5561 -1.0382  0.3119
  578MOL0     C77959   5.867   4.523  10.826  0.0212  0.1400 -0.8533
  578MOL0     C77960   5.515   4.990  10.714 -0.3698 -0.5258  0.0067
  578MOL0     C77961   5.506   5.107  10.800  0.2914  0.8767 -0.2011
  578MOL0     C77962   5.502   5.086  10.947 -0.6885 -0.5829 -0.1892
  578MOL0     H77963   5.225   5.565  10.782 -0.2819 -0.5153  1.9344
  578MOL0     H77964   5.164   5.776  10.887 -0.2206  2.6618 -0.1909
  578MOL0     H77965   5.329   6.001  11.214 -0.7792 -0.4614 -0.9927
  578MOL0     H77966   5.456   5.901  11.163 -0.6520  0.2776 -0.3217
  578MOL0     H77967   5.414   6.180  11.049 -1.7081  0.7105  3.0815
  578MOL0     H77968   5.564   6.080  11.028  1.9573  3.4102  0.0574
  578MOL0     H77969   5.572   6.102  11.286 -0.6994 -1.6422 -1.3252
  578MOL0     H77970   5.469   6.246  11.267 -1.4212 -1.5647 -0.0500
  578MOL0     H77971   5.735   6.187  11.149 -1.6504 -1.0708 -4.8192
  578MOL0     H77972   5.627   6.325  11.096 -0.4401  0.7602  0.6275
  578MOL0     H77973   5.711   6.268  11.383 -3.5155 -0.3349  0.5336
  578MOL0     H77974   5.807   6.376  11.278 -0.3223  1.0021  0.3420
  578MOL0     H77975   5.572   6.509  11.263 -5.1721 -0.6592  1.6055
  578MOL0     H77976   5.529   6.435  11.408  1.2724  0.1648  1.5345
  578MOL0     H77977   5.812   6.558  11.393  0.9440 -0.9896  0.8033
  578MOL0     H77978   5.720   6.489  11.529  2.8464 -0.9004 -0.2450
  578MOL0     H77979   5.582   6.709  11.380  0.9530 -2.0119 -0.8955
  578MOL0     H77980   5.544   6.667  11.542 -4.0371 -1.3510 -3.6279
  578MOL0     H77981   5.636   6.786  11.741  1.5909  0.8445  1.2727
  578MOL0     H77982   5.593   7.060  11.815  0.0796  0.9539 -0.4304
  578MOL0     H77983   5.761   7.026  11.868 -1.1206 -1.0390 -0.3969
  578MOL0     H77984   5.840   7.200  11.696 -0.6573 -1.1612 -1.3201
  578MOL0     H77985   5.679   7.234  11.648  2.3316 -1.7035 -1.8973
  578MOL0     H77986   5.744   7.417  11.798  2.7022  0.7044  1.0234
  578MOL0     H77987   5.807   7.307  11.914 -1.4670  0.2123  1.6586
  578MOL0     H77988   5.549   7.232  11.974  2.6532 -1.1297 -0.5377
  578MOL0     H77989   5.504   7.352  11.857  0.0482  5.1212  1.4982
  578MOL0     H77990   5.316   7.356  11.947 -0.5060 -0.2191 -0.4324
  578MOL0     H77991   5.122   7.421  12.065  0.5763 -1.1832  1.2771
  578MOL0     H77992   4.795   7.473  12.180  3.1717  0.8158  2.0741
  578MOL0     H77993   4.550   7.493  12.256  1.6821 -2.6564 -2.3979
  578MOL0     H77994   4.493   7.604  12.685 -0.1638 -0.9190 -0.0386
  578MOL0     H77995   4.526   7.771  12.630  0.5813 -0.2422 -2.1237
  578MOL0     H77996   4.315   7.801  12.714  0.2523 -1.3511  0.8206
  578MOL0     H77997   4.269   7.785  12.543 -1.9854 -0.6269 -0.3652
  578MOL0     H77998   4.269   7.526  12.672  0.5672  0.7118 -0.3820
  578MOL0     H77999   4.154   7.647  12.746  0.5524  2.1594 -1.9648
  578MOL0     H78000   4.170   7.591  12.447  2.7699  1.2808  0.2396
  578MOL0     H78001   4.068   7.703  12.543  0.3893 -1.1784 -0.9596
  578MOL0     H78002   3.985   7.503  12.668 -2.4803 -1.4346 -1.1644
  578MOL0     H78003   4.072   7.406  12.551  0.2781  0.0322  1.8329
  578MOL0     H78004   3.857   7.609  12.502 -1.7207 -0.6024  0.2451
  578MOL0     H78005   3.940   7.516  12.368 -2.0971 -0.8098 -0.0908
  578MOL0     H78006   3.859   7.312  12.481 -2.9389 -0.4100 -0.3062
  578MOL0     H78007   3.722   7.402  12.411  0.3406  2.9396 -1.4481
  578MOL0     H78008   3.660   7.324  12.649 -0.9645  1.7739  2.7046
  578MOL0     H78009   3.794   7.413  12.707  2.8717 -0.4338 -2.4268
  578MOL0     H78010   4.721   7.687  12.613 -1.4318 -0.0081 -0.2478
  578MOL0     H78011   4.932   7.672  12.513 -1.9114  2.2561 -0.4626
  578MOL0     H78012   5.380   7.645  12.344  0.2528  0.7940  0.0660
  578MOL0     H78013   5.564   7.573  12.221 -0.0307  1.9155 -0.0848
  578MOL0     H78014   5.571   5.853  10.975 -0.1835  1.4976 -3.3315
  578MOL0     H78015   5.634   5.657  10.856 -0.1688 -1.6575 -1.1601
  578MOL0     H78016   5.554   5.345  10.559 -2.3169  0.6329  0.2353
  578MOL0     H78017   5.541   5.169  10.421 -1.1485  1.0849 -0.7055
  578MOL0     H78018   5.485   4.740  10.407  1.9117 -1.1901 -1.0496
  578MOL0     H78019   5.450   4.757  10.578  0.6431 -4.4695 -1.1216
  578MOL0     H78020   5.686   4.761  10.639  1.1687  0.2694 -0.0395
  578MOL0     H78021   5.734   4.771  10.468  0.0379 -1.8445  0.0059
  578MOL0     H78022   5.632   4.546  10.431  0.0019 -3.1150 -0.0204
  578MOL0     H78023   5.599   4.543  10.608  1.9910 -0.1960  1.3805
  578MOL0     H78024   5.823   4.431  10.527  0.2158  0.4103 -1.5723
  578MOL0     H78025   5.875   4.606  10.519  0.9198 -0.7976 -1.0863
  578MOL0     H78026   5.886   4.511  10.931 -1.1771  2.1912 -0.3514
  578MOL0     H78027   5.516   4.887  10.748 -0.3590 -1.8312 -3.5984
  578MOL0     H78028   5.531   4.982  10.969  0.6035 -0.6518 -1.9731
  578MOL0     H78029   5.575   5.156  10.988  0.9685 -0.2620 -3.3887
  578MOL0     H78030   5.399   5.106  10.977 -1.3845 -3.6678 -0.1890
  579MOL0     O78031   8.783   1.634   9.228 -0.7668  0.0897  0.0187
  579MOL0     C78032   8.874   1.566   9.171  0.1944  0.5330 -0.5445
  579MOL0     O78033   8.873   1.426   9.156  0.4377 -0.5414  0.6151
  579MOL0     C78034   8.757   1.360   9.179 -0.4402  1.3926 -0.8690
  579MOL0     C78035   8.692   1.290   9.076  0.1432 -0.0288  0.1083
  579MOL0     C78036   8.575   1.221   9.102  1.1747 -0.0912 -0.2850
  579MOL0     C78037   8.514   1.216   9.226  0.3766 -1.0696  0.1988
  579MOL0     O78038   8.398   1.156   9.258  0.0946  0.4879  0.9989
  579MOL0     C78039   8.277   1.234   9.240 -1.0535 -0.3117 -0.1370
  579MOL0     C78040   8.146   1.202   9.327  0.4588  0.1461  0.5060
  579MOL0     C78041   8.175   1.223   9.476  0.3898  0.2859 -0.1764
  579MOL0     C78042   8.055   1.186   9.562 -0.0007 -0.9695  0.0514
  579MOL0     C78043   8.056   1.230   9.712 -0.2568  1.0301 -0.2956
  579MOL0     C78044   8.053   1.379   9.732  1.1595 -0.0643 -0.5614
  579MOL0     C78045   7.928   1.452   9.702 -0.6815  0.1088  0.5385
  579MOL0     C78046   7.812   1.423   9.798 -0.3743 -0.3302  0.4451
  579MOL0     N78047   7.709   1.530   9.787  0.2602 -0.3588  0.1558
  579MOL0     C78048   7.617   1.544   9.683  0.1342 -0.0668  0.8248
  579MOL0     C78049   7.556   1.663   9.715 -1.0649  0.3927  0.4773
  579MOL0     C78050   7.472   1.751   9.623 -0.2461  1.1756 -0.4109
  579MOL0     C78051   7.381   1.860   9.676 -0.5315  0.7086  0.3200
  579MOL0     C78052   7.268   1.803   9.763  0.6187 -1.0851  0.8576
  579MOL0     C78053   7.138   1.765   9.682  0.1108 -0.3999  0.2040
  579MOL0     O78054   7.070   1.896   9.666 -0.0817  0.1791 -0.9056
  579MOL0     C78055   6.965   1.901   9.572  0.4031 -0.4396 -0.0449
  579MOL0     C78056   6.900   2.018   9.537 -0.6598  0.3540  0.4778
  579MOL0     C78057   6.785   2.013   9.450  0.0667 -1.2891  0.1654
  579MOL0     C78058   6.727   1.892   9.404  0.8243 -0.2054 -0.6204
  579MOL0     C78059   6.606   1.896   9.314 -0.6963  0.2335  0.3253
  579MOL0     O78060   6.532   2.014   9.302  0.0223  0.5972  0.4194
  579MOL0     C78061   6.410   2.021   9.234  0.3985  0.3797  0.5570
  579MOL0     C78062   6.364   2.137   9.171 -0.0156 -0.2109  0.7535
  579MOL0     C78063   6.240   2.139   9.098  0.2433  0.2899 -0.5254
  579MOL0     C78064   6.159   2.021   9.104  0.9077  0.9648  0.1702
  579MOL0     O78065   6.022   2.004   9.073 -0.5112  0.1914 -0.2857
  579MOL0     C78066   5.928   2.105   9.084 -0.0812 -0.5104 -0.2961
  579MOL0     C78067   5.848   2.137   8.956  0.4600  0.8976 -1.0235
  579MOL0     C78068   5.767   2.028   8.892  0.0419  0.3510 -1.0204
  579MOL0     C78069   5.755   2.042   8.736 -0.2678 -0.0856 -0.4524
  579MOL0     C78070   5.632   2.128   8.704 -1.4383  0.7811 -1.0131
  579MOL0     C78071   5.497   2.071   8.759  0.4597  0.7025  0.3379
  579MOL0     C78072   5.471   1.922   8.739  0.2089 -0.4703 -0.8687
  579MOL0     C78073   5.337   1.867   8.799 -0.1094 -0.3893 -0.0735
  579MOL0    Cl78074   5.357   1.861   8.985 -0.4056  0.0160 -0.1711
  579MOL0     C78075   6.207   1.901   9.164 -0.4501 -1.2097 -0.7674
  579MOL0     C78076   6.327   1.904   9.223 -0.1919 -0.1664 -0.3729
  579MOL0     O78077   6.588   1.791   9.252 -0.0670  0.2233  0.1893
  579MOL0     C78078   6.788   1.772   9.447 -0.6541 -0.4904  0.1440
  579MOL0     C78079   6.904   1.776   9.522  0.2077  0.5725  0.2244
  579MOL0     N78080   7.611   1.716   9.838  0.7631 -0.1426  0.6424
  579MOL0     N78081   7.696   1.638   9.878 -0.3270  0.2989 -0.1870
  579MOL0     C78082   8.590   1.263   9.335 -0.6592 -1.1043  0.7187
  579MOL0     C78083   8.702   1.338   9.307 -0.6635  0.2650  0.9619
  579MOL0     C78084   8.991   1.626   9.113 -0.4230  0.0214 -0.1949
  579MOL0     C78085   9.028   1.567   8.984 -0.3370 -0.2428 -0.3218
  579MOL0     C78086   9.108   1.634   8.898 -0.0582 -0.3090  0.1389
  579MOL0     C78087   9.160   1.764   8.942 -0.7639  1.0677 -0.2914
  579MOL0     O78088   9.244   1.842   8.861  0.0737  0.4643  0.0726
  579MOL0     C78089   9.303   1.772   8.754  0.1910  0.0530  0.1332
  579MOL0     C78090   9.365   1.875   8.651 -0.2652 -1.0981 -0.5391
  579MOL0     C78091   9.497   1.920   8.702  0.8922  0.2155 -1.0399
  579MOL0     C78092   9.612   1.839   8.640 -0.0182 -0.9093 -0.5988
  579MOL0     C78093   9.735   1.864   8.725 -0.5011 -0.2973 -0.2915
  579MOL0     C78094   9.826   1.907   8.785  1.7539  0.1734  0.9353
  579MOL0     C78095   9.130   1.811   9.069 -0.4925 -0.6672 -0.0302
  579MOL0     C78096   9.051   1.745   9.159  0.1012  0.4110  1.3462
  579MOL0     C78097   9.017   1.809   9.290  0.2921  0.3636 -0.1729
  579MOL0     H78098   8.733   1.291   8.975 -2.2125 -1.4463 -0.9450
  579MOL0     H78099   8.533   1.169   9.016 -1.5044  0.1893  0.7610
  579MOL0     H78100   8.310   1.336   9.262 -2.2951 -0.0871  0.7447
  579MOL0     H78101   8.239   1.237   9.137 -1.7440  0.4720  0.1292
  579MOL0     H78102   8.115   1.099   9.307 -3.3491  1.4709 -1.4494
  579MOL0     H78103   8.072   1.271   9.285  0.5258  1.5763  2.6074
  579MOL0     H78104   8.210   1.325   9.491  0.3977  0.3370 -0.5503
  579MOL0     H78105   8.260   1.157   9.496  1.3824  2.2951  3.0464
  579MOL0     H78106   7.978   1.237   9.505  1.6761  1.7939  0.0477
  579MOL0     H78107   8.035   1.079   9.549  0.6673 -1.1029  0.0641
  579MOL0     H78108   7.973   1.181   9.765 -1.6660  3.9572  0.3995
  579MOL0     H78109   8.150   1.186   9.746 -1.3537 -2.2544 -1.1440
  579MOL0     H78110   8.081   1.408   9.834  0.4574 -2.7320  0.4800
  579MOL0     H78111   8.127   1.418   9.661  3.0710  0.9165  1.8057
  579MOL0     H78112   7.881   1.426   9.607 -1.9762 -0.1455  1.2298
  579MOL0     H78113   7.958   1.557   9.711 -1.1172  0.6985 -3.2514
  579MOL0     H78114   7.771   1.327   9.767 -0.6747  1.0211 -4.0461
  579MOL0     H78115   7.851   1.428   9.900  0.7090  0.5453  0.0189
  579MOL0     H78116   7.614   1.492   9.588  4.0690 -0.3551  0.6651
  579MOL0     H78117   7.551   1.803   9.570  0.2749  0.0718 -0.7505
  579MOL0     H78118   7.423   1.683   9.552 -0.1441  1.1403 -0.4472
  579MOL0     H78119   7.452   1.928   9.724  2.1744 -0.2361 -2.0360
  579MOL0     H78120   7.342   1.932   9.602 -3.0737  0.1201  0.9735
  579MOL0     H78121   7.248   1.878   9.840  1.3792  0.6594 -0.5650
  579MOL0     H78122   7.305   1.712   9.811  0.7107 -1.4719  0.0586
  579MOL0     H78123   7.082   1.699   9.748  0.2541  0.6033  1.3504
  579MOL0     H78124   7.164   1.711   9.590  1.1886 -0.6693  0.6392
  579MOL0     H78125   6.945   2.113   9.566  0.0375  1.4028 -3.4678
  579MOL0     H78126   6.757   2.110   9.410  0.6144 -1.4413 -0.6185
  579MOL0     H78127   6.427   2.225   9.175  0.2420 -0.2174 -1.7845
  579MOL0     H78128   6.206   2.227   9.046 -1.9207 -0.1490  0.0517
  579MOL0     H78129   5.848   2.086   9.157  0.2361 -3.3558 -0.6039
  579MOL0     H78130   5.973   2.194   9.130  1.9897 -0.6188 -1.9661
  579MOL0     H78131   5.775   2.203   9.004 -1.2449 -1.7805  0.3194
  579MOL0     H78132   5.921   2.175   8.884  2.7511 -2.1079 -0.5017
  579MOL0     H78133   5.816   1.933   8.915  3.1608  2.1977  0.6539
  579MOL0     H78134   5.663   2.016   8.925 -0.5174 -2.8552 -3.4337
  579MOL0     H78135   5.753   1.945   8.685  0.8576 -0.7489  0.7085
  579MOL0     H78136   5.845   2.091   8.698  0.4131 -1.5921 -0.8812
  579MOL0     H78137   5.635   2.139   8.595 -2.5660  5.3145 -0.7871
  579MOL0     H78138   5.644   2.226   8.752  1.0016  0.9539 -1.8110
  579MOL0     H78139   5.465   2.102   8.859 -2.9477  3.1948 -1.2956
  579MOL0     H78140   5.424   2.111   8.688  0.5594 -1.5031 -1.1073
  579MOL0     H78141   5.560   1.864   8.764  2.7799  2.5524 -2.3685
  579MOL0     H78142   5.456   1.909   8.632  1.0497 -0.7287 -0.9558
  579MOL0     H78143   5.243   1.918   8.774 -1.4094 -3.0814 -1.0955
  579MOL0     H78144   5.328   1.773   8.744 -0.6368 -0.0441 -0.5921
  579MOL0     H78145   6.142   1.815   9.174 -1.4044 -0.8690 -3.3856
  579MOL0     H78146   6.351   1.813   9.277  0.3896  0.7213  0.9280
  579MOL0     H78147   6.742   1.675   9.431  2.2688 -2.0649  0.6371
  579MOL0     H78148   6.953   1.682   9.543 -0.1875  0.5319  0.9893
  579MOL0     H78149   8.555   1.271   9.437  3.2358 -1.6411  2.2494
  579MOL0     H78150   8.759   1.368   9.395  2.2489 -0.6818 -0.4684
  579MOL0     H78151   8.982   1.475   8.950 -2.4482 -0.9651  3.8876
  579MOL0     H78152   9.131   1.607   8.796 -1.3622  1.3485 -0.6449
  579MOL0     H78153   9.230   1.719   8.691  0.1259 -1.4628  1.4254
  579MOL0     H78154   9.376   1.703   8.799  0.6296  0.2342 -0.2926
  579MOL0     H78155   9.296   1.959   8.639  1.2937  0.4088  0.4963
  579MOL0     H78156   9.369   1.825   8.554 -2.2539  0.2342 -1.3674
  579MOL0     H78157   9.493   1.911   8.811 -2.8459 -1.1293 -1.1181
  579MOL0     H78158   9.506   2.028   8.686 -0.5178  1.4835  4.5606
  579MOL0     H78159   9.592   1.731   8.643 -0.6135 -0.7872 -0.0735
  579MOL0     H78160   9.622   1.852   8.532  0.9028 -2.8558 -0.8034
  579MOL0     H78161   9.903   1.946   8.848  1.6906  0.9030  0.5797
  579MOL0     H78162   9.182   1.901   9.100  1.8856 -2.6596  2.2537
  579MOL0     H78163   9.081   1.895   9.311  1.8451 -0.6904 -0.4420
  579MOL0     H78164   8.915   1.849   9.298  0.5115  0.9563 -0.2554
  579MOL0     H78165   9.020   1.732   9.368 -0.6011 -0.6043 -1.0567
  580MOL0     O78166   0.892   8.976   3.843  0.4460 -0.1997 -0.2412
  580MOL0     C78167   0.975   8.888   3.820 -0.4569  0.2653  0.2358
  580MOL0     O78168   1.038   8.878   3.705 -0.8475 -0.8898  0.6516
  580MOL0     C78169   1.036   8.973   3.601 -0.0010 -1.1945 -0.2371
  580MOL0     C78170   1.046   9.112   3.634  0.8759  0.6267  0.0342
  580MOL0     C78171   1.035   9.210   3.543 -0.6484 -0.0622  0.0376
  580MOL0     C78172   1.035   9.177   3.408 -1.0744  0.1161  0.1571
  580MOL0     O78173   1.012   9.283   3.321  0.3504  0.1336  0.2692
  580MOL0     C78174   1.119   9.384   3.317 -1.1788 -0.2954 -0.1899
  580MOL0     C78175   1.087   9.500   3.226  0.0972  0.4825  0.3225
  580MOL0     C78176   1.192   9.608   3.235 -0.1007  0.2924 -0.1693
  580MOL0     C78177   1.199   9.710   3.361  1.4124 -0.3626 -0.1255
  580MOL0     C78178   1.321   9.802   3.380 -0.2067 -0.0643 -0.3555
  580MOL0     C78179   1.300   9.921   3.482 -1.1058 -0.7327 -0.0985
  580MOL0     C78180   1.439   9.997   3.498 -0.0576  0.0972  0.2928
  580MOL0     C78181   1.432  10.085   3.614 -0.0989  0.1223  0.4640
  580MOL0     N78182   1.552  10.174   3.631  0.6591  0.0682 -1.0398
  580MOL0     C78183   1.673  10.129   3.673  0.9925  0.5020 -0.6194
  580MOL0     C78184   1.737  10.249   3.688  0.4712  0.2061 -1.0806
  580MOL0     C78185   1.881  10.248   3.744 -0.8042 -0.6168  0.9023
  580MOL0     C78186   1.873  10.278   3.897 -0.1657  0.0772  0.0012
  580MOL0     C78187   1.809  10.414   3.921 -0.2996  1.3360 -0.2465
  580MOL0     C78188   1.858  10.479   4.057  0.9357  0.1161  1.3099
  580MOL0     O78189   1.769  10.589   4.080 -0.2921  0.0958  0.0274
  580MOL0     C78190   1.635  10.578   4.116  0.3815 -1.1830 -0.6452
  580MOL0     C78191   1.566  10.457   4.155  0.4965 -0.1020  0.1519
  580MOL0     C78192   1.440  10.466   4.206 -0.4085 -0.6425 -0.3690
  580MOL0     C78193   1.364  10.586   4.219  0.0750 -0.3606 -0.0870
  580MOL0     C78194   1.224  10.600   4.250  0.0653  0.1050  0.9550
  580MOL0     O78195   1.169  10.717   4.235  0.7398 -0.6532 -0.5353
  580MOL0     C78196   1.033  10.728   4.273 -0.8123 -1.0802 -0.0801
  580MOL0     C78197   1.000  10.773   4.410  0.5208 -0.7771 -0.2706
  580MOL0     C78198   0.862  10.805   4.426 -0.0022 -0.3683  0.7204
  580MOL0     C78199   0.761  10.796   4.319 -1.5694  0.7661 -0.0049
  580MOL0     O78200   0.630  10.829   4.342  0.8831  0.1313  0.4620
  580MOL0     C78201   0.571  10.820   4.474  0.4430 -0.0712  0.6013
  580MOL0     C78202   0.419  10.870   4.472 -0.2643 -0.7638 -0.1621
  580MOL0     C78203   0.319  10.772   4.400  0.1074 -0.0751 -1.1674
  580MOL0     C78204   0.173  10.813   4.426 -0.4524 -0.4160 -0.4828
  580MOL0     C78205   0.078  10.718   4.359  0.5311 -1.0554 -0.1501
  580MOL0     C78206  -0.074  10.767   4.382 -1.2095  0.6913 -0.6050
  580MOL0     C78207  -0.113  10.713   4.527  0.9901 -1.5733  0.4106
  580MOL0     C78208  -0.225  10.794   4.588  0.2538 -0.1916  0.3335
  580MOL0    Cl78209  -0.262  10.750   4.754  0.4689  0.2753  0.0049
  580MOL0     C78210   0.808  10.735   4.191  0.5751 -0.5074 -0.6572
  580MOL0     C78211   0.945  10.707   4.175  0.6530 -0.8887  1.1710
  580MOL0     O78212   1.171  10.501   4.294 -0.0828 -0.2951 -0.9268
  580MOL0     C78213   1.437  10.693   4.182  0.7092 -1.1376  0.8679
  580MOL0     C78214   1.568  10.696   4.126 -0.0454  0.0210  0.1439
  580MOL0     N78215   1.657  10.359   3.650 -0.3622  0.0675  0.6480
  580MOL0     N78216   1.547  10.307   3.625  0.0777 -0.3809  0.3164
  580MOL0     C78217   1.024   9.044   3.368 -0.0742  0.1281  0.0992
  580MOL0     C78218   1.034   8.941   3.462 -0.0166 -1.0382 -0.5804
  580MOL0     C78219   1.023   8.794   3.930 -0.0782 -0.7798  0.3306
  580MOL0     C78220   1.135   8.721   3.898 -0.4088  0.1577 -1.1192
  580MOL0     C78221   1.204   8.659   4.005 -0.0607 -0.0273 -0.8546
  580MOL0     C78222   1.157   8.655   4.132 -1.0785  0.0532 -0.0529
  580MOL0     O78223   1.226   8.565   4.212 -0.1405 -0.2442  0.0236
  580MOL0     C78224   1.175   8.541   4.347  0.0103  0.8806  0.0215
  580MOL0     C78225   1.235   8.407   4.392 -0.1818  0.1032  0.5633
  580MOL0     C78226   1.214   8.384   4.540  0.3878  0.2230  0.5558
  580MOL0     C78227   1.291   8.256   4.588 -0.9638  0.7582 -0.5797
  580MOL0     C78228   1.248   8.237   4.725  0.3116  0.1851  0.3559
  580MOL0     C78229   1.221   8.218   4.834 -1.3685 -0.2138 -0.8822
  580MOL0     C78230   1.038   8.723   4.166  0.8015  0.4072 -0.0781
  580MOL0     C78231   0.966   8.792   4.063 -0.2564  0.5810  0.2178
  580MOL0     C78232   0.836   8.856   4.098 -0.6781  0.6603 -0.3370
  580MOL0     H78233   1.047   9.130   3.741  0.6641 -0.7949  0.3035
  580MOL0     H78234   1.012   9.313   3.572 -2.1054 -0.8838  2.0429
  580MOL0     H78235   1.133   9.417   3.420 -3.7266 -1.9803  0.7952
  580MOL0     H78236   1.208   9.335   3.275 -2.0244 -1.1274 -1.0804
  580MOL0     H78237   0.992   9.537   3.266 -0.3705 -1.1610  0.7914
  580MOL0     H78238   1.073   9.458   3.125 -2.3955  0.0486  0.7634
  580MOL0     H78239   1.181   9.670   3.146 -5.0403 -0.5779 -0.4541
  580MOL0     H78240   1.289   9.557   3.231  0.6599  1.3733  2.4432
  580MOL0     H78241   1.118   9.784   3.360  0.9212 -0.8800  0.6323
  580MOL0     H78242   1.180   9.662   3.458 -0.7593 -0.6772 -0.6467
  580MOL0     H78243   1.412   9.750   3.411 -1.2365  0.5608  4.6596
  580MOL0     H78244   1.343   9.852   3.285  2.7365 -2.5061 -1.1198
  580MOL0     H78245   1.226   9.991   3.443 -0.6192  0.5772  1.2641
  580MOL0     H78246   1.258   9.882   3.575 -0.2167 -0.2393  0.5211
  580MOL0     H78247   1.457  10.059   3.409 -1.3724 -0.5878 -0.4727
  580MOL0     H78248   1.515   9.922   3.520  0.2613  0.3585  0.0966
  580MOL0     H78249   1.348  10.156   3.607  0.3049  0.9192  2.7093
  580MOL0     H78250   1.411  10.031   3.707 -0.3797 -0.0486  0.3016
  580MOL0     H78251   1.704  10.029   3.698  0.7640  0.9747  1.7770
  580MOL0     H78252   1.929  10.155   3.713 -1.7504 -0.5536 -0.8588
  580MOL0     H78253   1.934  10.333   3.699  1.8951 -1.9241  1.4057
  580MOL0     H78254   1.838  10.190   3.953  2.0699  0.1130  1.6054
  580MOL0     H78255   1.975  10.298   3.933 -0.0153  2.4117 -1.5583
  580MOL0     H78256   1.700  10.405   3.926 -0.1996 -3.3111 -2.0891
  580MOL0     H78257   1.831  10.475   3.833 -0.9138 -2.9583 -3.6885
  580MOL0     H78258   1.957  10.520   4.037  1.1395 -0.0814  1.8972
  580MOL0     H78259   1.857  10.408   4.140  2.1500 -0.9577  0.4225
  580MOL0     H78260   1.611  10.358   4.162 -1.9943 -1.5236 -1.9275
  580MOL0     H78261   1.394  10.369   4.223 -0.6684 -0.2930  1.0087
  580MOL0     H78262   1.082  10.801   4.475 -0.6596 -2.0407  1.8960
  580MOL0     H78263   0.840  10.849   4.522  0.4781 -1.1033  1.1782
  580MOL0     H78264   0.581  10.718   4.511  2.2687  0.6840  2.4594
  580MOL0     H78265   0.630  10.882   4.543 -0.4088  2.8413 -1.0866
  580MOL0     H78266   0.393  10.896   4.575 -3.0300  3.8642 -1.7036
  580MOL0     H78267   0.425  10.963   4.415 -3.2456 -0.4805 -0.1736
  580MOL0     H78268   0.328  10.762   4.291 -2.2745  2.6758 -1.7508
  580MOL0     H78269   0.338  10.673   4.441  0.3683  0.5635  0.3342
  580MOL0     H78270   0.166  10.916   4.390  4.0696  0.4425  0.4633
  580MOL0     H78271   0.154  10.824   4.534 -0.7325  0.7796 -0.6401
  580MOL0     H78272   0.087  10.614   4.390  0.6111 -1.2718 -0.8813
  580MOL0     H78273   0.113  10.728   4.256  0.1129 -1.5502 -0.3443
  580MOL0     H78274  -0.072  10.876   4.374  1.9204  0.5924 -3.2032
  580MOL0     H78275  -0.142  10.724   4.308 -1.1148  0.2417 -0.4318
  580MOL0     H78276  -0.028  10.701   4.595  1.0315 -0.2347  0.6108
  580MOL0     H78277  -0.152  10.612   4.510  0.4619 -1.1840 -0.8568
  580MOL0     H78278  -0.188  10.897   4.596 -1.1047  0.2459  1.4509
  580MOL0     H78279  -0.313  10.792   4.524 -1.9434  0.6685  3.1344
  580MOL0     H78280   0.736  10.711   4.114  1.1983 -2.0555 -0.7828
  580MOL0     H78281   0.983  10.681   4.077 -0.4317  0.5518  0.3262
  580MOL0     H78282   1.403  10.796   4.192 -0.4677 -1.2561 -1.3049
  580MOL0     H78283   1.618  10.792   4.123  1.4291 -0.6489  1.7241
  580MOL0     H78284   1.004   9.018   3.265 -2.6680 -2.3527  1.1132
  580MOL0     H78285   1.042   8.838   3.428  2.6085 -1.3302  0.6713
  580MOL0     H78286   1.178   8.721   3.799 -0.9730 -0.0093 -1.3648
  580MOL0     H78287   1.298   8.605   3.990  0.0851 -1.0308  2.7453
  580MOL0     H78288   1.066   8.545   4.352 -0.2214 -3.0619  2.2106
  580MOL0     H78289   1.211   8.621   4.413 -2.7219  1.0958  1.4169
  580MOL0     H78290   1.344   8.406   4.379 -0.2985  1.0571 -0.6587
  580MOL0     H78291   1.186   8.326   4.336 -1.7463 -0.5700  2.7510
  580MOL0     H78292   1.107   8.367   4.558  0.9109 -1.9849  2.0453
  580MOL0     H78293   1.236   8.463   4.612  0.1699 -1.9625  3.2307
  580MOL0     H78294   1.260   8.169   4.529  0.2956  0.1621 -0.4046
  580MOL0     H78295   1.399   8.269   4.574 -1.6204  5.2101 -3.3173
  580MOL0     H78296   1.196   8.211   4.938 -1.7679  1.6447 -0.8221
  580MOL0     H78297   0.995   8.714   4.265  1.4111 -0.0111  0.1609
  580MOL0     H78298   0.845   8.964   4.086 -0.4924  0.5806 -0.9285
  580MOL0     H78299   0.762   8.815   4.029 -0.7276 -0.9615  0.6197
  580MOL0     H78300   0.809   8.831   4.201  2.5096  1.0301  0.6872
  581MOL0     O78301   8.965  10.579   2.871 -0.0507  1.1636 -0.0016
  581MOL0     C78302   8.954  10.599   2.752  0.1417 -0.2856 -0.3814
  581MOL0     O78303   8.890  10.518   2.657 -0.4372 -0.1511 -0.3794
  581MOL0     C78304   8.842  10.400   2.708  0.4771  0.5925  0.8373
  581MOL0     C78305   8.703  10.375   2.712 -0.5987  1.0858 -0.6912
  581MOL0     C78306   8.646  10.260   2.768 -0.2085  0.1012 -0.5507
  581MOL0     C78307   8.723  10.155   2.827  0.7948 -0.4405 -0.3789
  581MOL0     O78308   8.659  10.052   2.892  0.1618 -0.9488 -0.4664
  581MOL0     C78309   8.724   9.923   2.916  0.7361 -0.3086 -0.1944
  581MOL0     C78310   8.780   9.901   3.061 -0.0387 -0.3332 -0.2882
  581MOL0     C78311   8.663   9.874   3.150  0.0783  0.9013 -0.1791
  581MOL0     C78312   8.593   9.748   3.121 -0.2909  0.6062  0.1390
  581MOL0     C78313   8.675   9.619   3.104  0.7802  0.1278  0.5535
  581MOL0     C78314   8.580   9.493   3.097  0.4126 -0.7373 -0.6225
  581MOL0     C78315   8.596   9.411   3.228  0.5585  0.1668  0.3833
  581MOL0     C78316   8.521   9.488   3.340 -1.7774 -0.1763 -0.5733
  581MOL0     N78317   8.458   9.402   3.443 -0.3141 -0.0732  0.3727
  581MOL0     C78318   8.526   9.335   3.547  0.8418 -0.3122 -0.3575
  581MOL0     C78319   8.427   9.263   3.612 -0.0897 -0.4922 -0.0640
  581MOL0     C78320   8.439   9.182   3.736 -0.1966  0.0212  0.1961
  581MOL0     C78321   8.389   9.043   3.711 -0.1300  0.3531  0.1864
  581MOL0     C78322   8.420   8.982   3.579  0.0320  0.6778 -0.5492
  581MOL0     C78323   8.418   8.827   3.596 -0.6491  0.5644 -0.0991
  581MOL0     O78324   8.425   8.766   3.466  0.5623 -0.5319  0.0845
  581MOL0     C78325   8.386   8.636   3.471 -0.0716 -0.9429 -0.3461
  581MOL0     C78326   8.285   8.594   3.394  0.5408 -0.3957  0.6405
  581MOL0     C78327   8.241   8.463   3.408  0.7140 -0.7001  0.1469
  581MOL0     C78328   8.318   8.360   3.477 -0.3778 -1.0955 -0.0899
  581MOL0     C78329   8.285   8.214   3.467 -0.2636  1.3483 -0.7427
  581MOL0     O78330   8.390   8.129   3.477  1.1166  0.2138 -0.4057
  581MOL0     C78331   8.358   7.990   3.494 -0.3792 -0.8687  0.0729
  581MOL0     C78332   8.294   7.945   3.619 -0.1349 -0.3487  0.0173
  581MOL0     C78333   8.287   7.811   3.661 -0.1213 -0.3209 -0.2005
  581MOL0     C78334   8.325   7.713   3.557 -0.1356 -0.0709 -0.4397
  581MOL0     O78335   8.271   7.585   3.569 -0.1676  0.0410 -0.0827
  581MOL0     C78336   8.355   7.472   3.538  0.2898  1.0576  0.4014
  581MOL0     C78337   8.264   7.352   3.495 -0.5533 -0.3321  0.5548
  581MOL0     C78338   8.298   7.214   3.556  0.6413  0.4534 -0.9504
  581MOL0     C78339   8.286   7.185   3.708 -0.2640  1.0731 -0.3411
  581MOL0     C78340   8.183   7.271   3.785  0.0826  0.0202 -0.1235
  581MOL0     C78341   8.205   7.254   3.934  0.0904 -1.4611  0.4421
  581MOL0     C78342   8.105   7.332   4.025 -0.3835 -0.0525  0.5332
  581MOL0     C78343   8.113   7.480   4.018 -0.3545 -0.3412  0.6321
  581MOL0    Cl78344   8.014   7.549   4.150  0.3799  0.2213  0.3194
  581MOL0     C78345   8.373   7.760   3.437 -0.2118 -0.4100 -0.3439
  581MOL0     C78346   8.397   7.898   3.406 -0.1033  0.1354 -0.6866
  581MOL0     O78347   8.160   8.182   3.478 -0.2951  0.1452  0.5824
  581MOL0     C78348   8.442   8.410   3.531  0.5953  0.0492  0.4503
  581MOL0     C78349   8.469   8.547   3.533 -0.9998  0.8823  0.1482
  581MOL0     N78350   8.296   9.300   3.556 -0.8547  0.6205 -0.3048
  581MOL0     N78351   8.327   9.385   3.456 -0.5458 -0.3809  0.0769
  581MOL0     C78352   8.865  10.181   2.829  0.1202 -0.0240 -0.1539
  581MOL0     C78353   8.926  10.299   2.764 -0.9915  0.2202 -0.5275
  581MOL0     C78354   9.003  10.731   2.711  0.0786 -0.3025  0.1682
  581MOL0     C78355   9.104  10.745   2.609 -0.4611 -0.0682  0.1348
  581MOL0     C78356   9.134  10.870   2.565 -0.0209  0.0621 -0.2604
  581MOL0     C78357   9.086  10.980   2.627 -0.6793  0.4807 -1.0040
  581MOL0     O78358   9.133  11.107   2.590 -0.7684 -0.1404  0.3806
  581MOL0     C78359   9.215  11.168   2.693  0.1444  0.1384  0.3283
  581MOL0     C78360   9.360  11.119   2.686  0.0127  0.2495 -0.8790
  581MOL0     C78361   9.418  11.145   2.544 -0.7334 -0.9572  0.2880
  581MOL0     C78362   9.548  11.230   2.528 -0.6143  0.2521 -0.5543
  581MOL0     C78363   9.665  11.156   2.571  0.3270  0.9099 -0.6416
  581MOL0     C78364   9.735  11.082   2.634 -1.2005 -0.0946 -0.9314
  581MOL0     C78365   8.995  10.970   2.726  0.7027  0.7242 -0.4213
  581MOL0     C78366   8.950  10.847   2.772  1.2360 -0.2591 -0.3617
  581MOL0     C78367   8.829  10.846   2.863  0.4122 -0.2654  0.0087
  581MOL0     H78368   8.639  10.461   2.691 -5.2735 -1.6180  0.8809
  581MOL0     H78369   8.539  10.273   2.764 -0.3858 -0.5975  1.1311
  581MOL0     H78370   8.653   9.848   2.879 -0.0397  0.2965  0.0430
  581MOL0     H78371   8.813   9.921   2.853  0.7856  2.0438 -0.2874
  581MOL0     H78372   8.829   9.992   3.095  2.3660 -0.7487 -2.4160
  581MOL0     H78373   8.853   9.820   3.056  0.6515  0.0316  2.4844
  581MOL0     H78374   8.596   9.959   3.160  0.6212  1.1931  1.2473
  581MOL0     H78375   8.700   9.848   3.250  1.2317 -2.7358 -1.3734
  581MOL0     H78376   8.513   9.736   3.194 -2.9584  0.9854 -2.5376
  581MOL0     H78377   8.540   9.763   3.027  2.1265 -0.0707 -1.4169
  581MOL0     H78378   8.730   9.625   3.010 -0.2042 -1.1072 -0.1348
  581MOL0     H78379   8.742   9.606   3.190  1.5517 -2.1805 -0.3243
  581MOL0     H78380   8.478   9.529   3.082  0.4689  1.2840  2.8315
  581MOL0     H78381   8.627   9.436   3.016  1.2955 -0.1257 -0.5539
  581MOL0     H78382   8.696   9.389   3.265  0.5915  2.1047  1.6061
  581MOL0     H78383   8.549   9.316   3.201 -1.3245  1.5057 -1.4001
  581MOL0     H78384   8.587   9.558   3.393 -2.3717 -0.0788  0.0557
  581MOL0     H78385   8.445   9.560   3.309 -1.5640  1.0056  1.4279
  581MOL0     H78386   8.630   9.342   3.576  0.3227  0.9513  1.3191
  581MOL0     H78387   8.539   9.178   3.780 -1.2300 -1.4547  2.6483
  581MOL0     H78388   8.381   9.228   3.817  0.6905 -1.1116  1.5156
  581MOL0     H78389   8.421   8.986   3.799  2.6223  1.0637 -0.2661
  581MOL0     H78390   8.280   9.050   3.714 -0.0180  3.7985  1.3367
  581MOL0     H78391   8.520   9.012   3.546 -1.2861  2.0350 -3.6964
  581MOL0     H78392   8.351   9.017   3.501  3.6677  6.1543 -1.8709
  581MOL0     H78393   8.340   8.779   3.656 -2.5814  3.5280 -0.0530
  581MOL0     H78394   8.511   8.800   3.646  0.2813 -3.8360 -3.5636
  581MOL0     H78395   8.235   8.669   3.334  1.6588  1.4080  1.8733
  581MOL0     H78396   8.150   8.421   3.367 -0.4842 -0.9047  2.7871
  581MOL0     H78397   8.233   8.015   3.675  0.2606 -1.6524  2.2261
  581MOL0     H78398   8.247   7.789   3.759  0.2374 -1.5475 -0.3146
  581MOL0     H78399   8.415   7.498   3.450 -0.0585 -0.7995 -0.4386
  581MOL0     H78400   8.422   7.443   3.620  1.1970 -0.7431 -0.9089
  581MOL0     H78401   8.160   7.383   3.505 -0.0619  2.2683 -1.3550
  581MOL0     H78402   8.283   7.329   3.390  0.9321  1.9064  0.2631
  581MOL0     H78403   8.237   7.138   3.504  2.7126 -0.2396 -2.5346
  581MOL0     H78404   8.397   7.186   3.520  1.5037  2.3125 -0.1292
  581MOL0     H78405   8.386   7.200   3.750  0.8727  3.4355 -3.5317
  581MOL0     H78406   8.270   7.078   3.719  1.3740  1.0286  2.8962
  581MOL0     H78407   8.076   7.250   3.770  0.4019 -0.9746 -1.2342
  581MOL0     H78408   8.207   7.373   3.755 -1.5474 -0.0295 -1.8300
  581MOL0     H78409   8.193   7.148   3.958 -0.0185 -0.9887  2.6376
  581MOL0     H78410   8.306   7.291   3.951 -1.1300  4.7260 -2.8555
  581MOL0     H78411   8.141   7.305   4.125  2.9378 -3.9738 -1.3979
  581MOL0     H78412   8.004   7.294   4.008 -0.0803 -0.0588 -1.5063
  581MOL0     H78413   8.218   7.505   4.040  0.2292 -1.9070 -0.2495
  581MOL0     H78414   8.088   7.520   3.919  2.8722  1.5581  0.4318
  581MOL0     H78415   8.386   7.686   3.359 -2.4826 -0.2745 -0.9238
  581MOL0     H78416   8.444   7.932   3.314 -0.3929  2.3937 -0.0661
  581MOL0     H78417   8.519   8.345   3.570  1.0532  1.3459  1.7809
  581MOL0     H78418   8.554   8.592   3.584 -2.0840 -0.2214  3.1725
  581MOL0     H78419   8.925  10.100   2.869 -0.5180 -0.7477 -0.6240
  581MOL0     H78420   9.033  10.314   2.757 -0.6781 -1.2538  0.5661
  581MOL0     H78421   9.149  10.663   2.555 -3.9792 -1.9505 -0.2904
  581MOL0     H78422   9.200  10.898   2.485  1.1013  0.3119  0.7291
  581MOL0     H78423   9.175  11.136   2.790 -1.6904 -1.4565 -0.8808
  581MOL0     H78424   9.219  11.275   2.675 -0.0110  0.1307  0.2483
  581MOL0     H78425   9.365  11.010   2.691  3.7322  0.2009 -2.5504
  581MOL0     H78426   9.425  11.161   2.763 -2.0341 -0.0562  1.1267
  581MOL0     H78427   9.341  11.190   2.482  0.4050 -0.7315 -1.0015
  581MOL0     H78428   9.448  11.054   2.492  2.3703  1.3335 -2.3657
  581MOL0     H78429   9.576  11.271   2.430 -1.3217  3.3520  0.4365
  581MOL0     H78430   9.529  11.321   2.586  0.9310  0.5401 -0.4677
  581MOL0     H78431   9.790  11.030   2.708 -0.6092  3.8103  1.6950
  581MOL0     H78432   8.954  11.059   2.772  0.5943  0.2847  0.3672
  581MOL0     H78433   8.795  10.949   2.883  4.2991  0.8600  1.7018
  581MOL0     H78434   8.741  10.798   2.820  1.2576 -0.6728 -1.3063
  581MOL0     H78435   8.846  10.790   2.956  0.4056  1.9025  1.4120
  582MOL0     O78436   8.966   6.220   0.617 -0.3581  0.3092 -0.0334
  582MOL0     C78437   8.911   6.166   0.519 -0.2425  0.6398 -0.3201
  582MOL0     O78438   8.777   6.183   0.489 -0.8412  0.1932 -0.2266
  582MOL0     C78439   8.714   6.286   0.561  0.5448 -0.5561 -0.5805
  582MOL0     C78440   8.654   6.402   0.496 -0.5083 -0.5185  0.3710
  582MOL0     C78441   8.572   6.494   0.564  0.2594 -0.4044 -0.0324
  582MOL0     C78442   8.537   6.460   0.697  0.6215  0.0058 -0.2974
  582MOL0     O78443   8.446   6.549   0.759 -0.4319 -0.7355  0.8761
  582MOL0     C78444   8.337   6.475   0.819  0.1561 -0.2846 -0.0478
  582MOL0     C78445   8.231   6.582   0.869 -0.4862  0.0005  0.2996
  582MOL0     C78446   8.127   6.517   0.958 -0.2796 -0.1593  0.6338
  582MOL0     C78447   8.025   6.605   1.019 -0.3022 -0.7795  0.1333
  582MOL0     C78448   7.877   6.559   1.026 -0.5641 -0.0795 -0.7900
  582MOL0     C78449   7.793   6.654   1.108  0.3649  0.0619  0.0620
  582MOL0     C78450   7.639   6.635   1.127 -0.0645  0.0099  0.8247
  582MOL0     C78451   7.580   6.775   1.138  0.6569  0.2350  0.1533
  582MOL0     N78452   7.428   6.793   1.142 -0.6291 -0.2632  0.4986
  582MOL0     C78453   7.350   6.812   1.026  0.3948 -0.2678 -0.6378
  582MOL0     C78454   7.223   6.786   1.072  0.1292  0.4577 -0.3749
  582MOL0     C78455   7.099   6.760   0.995 -0.1611 -0.3704  1.1289
  582MOL0     C78456   7.001   6.880   1.006 -0.8040  0.1029  0.0776
  582MOL0     C78457   6.874   6.852   0.917 -0.0684 -0.6691 -0.6451
  582MOL0     C78458   6.757   6.944   0.952  1.1022  0.1201 -1.5503
  582MOL0     O78459   6.684   6.986   0.833 -0.0817 -0.3936  0.5826
  582MOL0     C78460   6.591   6.904   0.789  0.0496  0.5714  0.1617
  582MOL0     C78461   6.500   6.962   0.692 -0.8058 -0.6915  0.2134
  582MOL0     C78462   6.390   6.890   0.641  0.2960 -0.3787  0.1567
  582MOL0     C78463   6.358   6.763   0.687  0.0222  1.4417  0.9945
  582MOL0     C78464   6.230   6.693   0.644 -0.1521 -0.2727 -0.3266
  582MOL0     O78465   6.130   6.770   0.597  0.0309 -0.7274 -0.3238
  582MOL0     C78466   6.025   6.717   0.529 -0.5385 -0.3210  0.0561
  582MOL0     C78467   6.030   6.607   0.431  0.0405 -0.8764 -0.1123
  582MOL0     C78468   5.919   6.579   0.354  1.1483 -0.3645  0.2587
  582MOL0     C78469   5.787   6.633   0.392  0.2210  0.1322 -0.3010
  582MOL0     O78470   5.667   6.594   0.346  0.7308  0.2008  0.7027
  582MOL0     C78471   5.660   6.462   0.291  0.1767 -0.2144  0.7408
  582MOL0     C78472   5.518   6.423   0.264  0.3920 -0.1475  0.6502
  582MOL0     C78473   5.490   6.268   0.247  1.1012  0.1835  0.2085
  582MOL0     C78474   5.576   6.194   0.132  1.5975  0.2291 -0.1240
  582MOL0     C78475   5.572   6.043   0.140 -0.6615 -0.0012  0.6873
  582MOL0     C78476   5.436   5.972   0.125  0.6000 -1.4893 -0.2699
  582MOL0     C78477   5.439   5.817   0.110  0.3179  0.6859 -0.4807
  582MOL0     C78478   5.467   5.771   0.251  0.1118  0.6598  0.5396
  582MOL0    Cl78479   5.417   5.598   0.254 -0.4184  0.4950 -0.1352
  582MOL0     C78480   5.791   6.725   0.493  0.3716  0.1377  0.4013
  582MOL0     C78481   5.904   6.764   0.569 -0.0720 -0.2053  0.8556
  582MOL0     O78482   6.216   6.577   0.670 -0.0008  0.6826  0.4088
  582MOL0     C78483   6.440   6.705   0.781  0.3695  0.8792  0.0378
  582MOL0     C78484   6.556   6.773   0.829  1.0058 -0.6100 -0.2888
  582MOL0     N78485   7.225   6.775   1.214  0.4023  0.3347  0.8072
  582MOL0     N78486   7.350   6.771   1.252 -0.2180 -0.4928  1.0266
  582MOL0     C78487   8.584   6.339   0.756  0.4228  0.1410 -0.3157
  582MOL0     C78488   8.662   6.254   0.684 -0.0075  0.4959 -0.6160
  582MOL0     C78489   8.997   6.078   0.429 -0.2152 -0.6230 -0.1474
  582MOL0     C78490   8.925   5.992   0.342  0.0037  0.0623 -0.1848
  582MOL0     C78491   9.003   5.914   0.258 -0.9169  0.0324 -0.5439
  582MOL0     C78492   9.132   5.925   0.233  0.0750  0.0428 -0.9326
  582MOL0     O78493   9.179   5.828   0.148 -0.2141 -0.1585 -0.1165
  582MOL0     C78494   9.312   5.848   0.092 -0.4887 -0.7076  0.2720
  582MOL0     C78495   9.345   5.753  -0.009  0.3615  0.1321 -0.2060
  582MOL0     C78496   9.380   5.615   0.057  0.3358 -1.0913 -0.1201
  582MOL0     C78497   9.530   5.613   0.098 -0.0612 -0.6691 -0.0432
  582MOL0     C78498   9.602   5.560  -0.014 -0.6657  0.2820 -0.0113
  582MOL0     C78499   9.677   5.501  -0.092  0.0099 -0.0136  0.4524
  582MOL0     C78500   9.205   6.009   0.322  0.1145  0.5262 -1.0723
  582MOL0     C78501   9.140   6.091   0.409 -0.6093  0.8787 -0.2623
  582MOL0     C78502   9.219   6.190   0.489 -0.6922  0.4501 -0.1211
  582MOL0     H78503   8.675   6.402   0.390 -1.0725 -0.4116  0.2587
  582MOL0     H78504   8.530   6.578   0.511  0.3938 -0.4173 -0.1603
  582MOL0     H78505   8.281   6.418   0.744  1.4123 -0.6997 -0.7099
  582MOL0     H78506   8.362   6.414   0.906  0.8404  0.1109  0.0418
  582MOL0     H78507   8.190   6.628   0.778  1.4738 -1.0586 -1.1983
  582MOL0     H78508   8.285   6.663   0.919 -0.7126 -1.5678  3.3312
  582MOL0     H78509   8.177   6.459   1.036 -0.6267  0.5639  1.4033
  582MOL0     H78510   8.074   6.445   0.895 -0.7786 -1.7813  2.7877
  582MOL0     H78511   8.051   6.630   1.122  0.9070 -1.1934 -0.0506
  582MOL0     H78512   8.025   6.696   0.959 -0.8805 -1.4474 -0.9198
  582MOL0     H78513   7.830   6.529   0.932 -0.3614 -1.8292 -0.3596
  582MOL0     H78514   7.884   6.458   1.067 -0.2818 -0.4451 -1.7298
  582MOL0     H78515   7.839   6.672   1.205 -1.6981  2.4961  0.6759
  582MOL0     H78516   7.799   6.745   1.048  1.0658  0.4193  0.6703
  582MOL0     H78517   7.618   6.586   1.222  2.5357  2.8891  3.1224
  582MOL0     H78518   7.594   6.582   1.042  0.8627  1.1903 -0.4615
  582MOL0     H78519   7.622   6.834   1.220  0.4799 -1.1801  1.3077
  582MOL0     H78520   7.604   6.843   1.057  1.0898  2.6644  2.2075
  582MOL0     H78521   7.383   6.822   0.923 -0.7252 -4.5237 -1.6050
  582MOL0     H78522   7.118   6.743   0.889  0.9832 -3.1099  1.6789
  582MOL0     H78523   7.051   6.669   1.032 -0.6654 -0.1504  1.0235
  582MOL0     H78524   6.958   6.888   1.107 -1.5635 -1.5730 -0.0758
  582MOL0     H78525   7.055   6.973   0.988 -1.3890  0.0746 -2.0992
  582MOL0     H78526   6.855   6.745   0.923 -2.1974 -0.3317 -0.7016
  582MOL0     H78527   6.904   6.873   0.814  0.2844  3.2381  0.1035
  582MOL0     H78528   6.782   7.032   1.013 -2.7172  0.9292 -0.8943
  582MOL0     H78529   6.693   6.898   1.028  1.3882  1.7615 -0.2263
  582MOL0     H78530   6.523   7.064   0.660  0.5457 -0.4441  1.8175
  582MOL0     H78531   6.330   6.940   0.566  0.7691 -2.9493 -2.0795
  582MOL0     H78532   6.127   6.570   0.397  2.1696  4.6467 -1.2339
  582MOL0     H78533   5.927   6.505   0.275 -2.0703 -1.3151  0.6451
  582MOL0     H78534   5.687   6.454   0.185 -3.3007  0.1945 -0.2928
  582MOL0     H78535   5.708   6.383   0.350  0.6533  0.8339  1.8161
  582MOL0     H78536   5.456   6.454   0.349  1.9393  1.1317  1.3650
  582MOL0     H78537   5.487   6.484   0.178 -2.4372 -0.1606  1.5374
  582MOL0     H78538   5.517   6.226   0.344 -1.8871 -2.1025  0.2330
  582MOL0     H78539   5.385   6.240   0.234  1.5881 -0.5311 -3.0101
  582MOL0     H78540   5.676   6.237   0.135  1.6200  0.5710 -2.8091
  582MOL0     H78541   5.535   6.227   0.036  1.0457 -0.2470 -0.0608
  582MOL0     H78542   5.597   6.007   0.240 -2.3586 -1.1031  0.7475
  582MOL0     H78543   5.642   6.005   0.065 -2.0516 -1.0217 -0.1507
  582MOL0     H78544   5.364   6.001   0.202  0.8716  3.7546 -1.6498
  582MOL0     H78545   5.393   6.004   0.030 -0.1173  0.4133  0.6580
  582MOL0     H78546   5.520   5.783   0.044  2.7590  3.8159  0.6187
  582MOL0     H78547   5.343   5.784   0.070 -0.0253  1.6816 -0.5092
  582MOL0     H78548   5.575   5.780   0.263  0.5037 -1.1596 -1.1144
  582MOL0     H78549   5.420   5.825   0.334  0.7674 -1.6812  2.5565
  582MOL0     H78550   5.693   6.756   0.530 -0.0317 -1.7924  1.0545
  582MOL0     H78551   5.889   6.839   0.646  0.9137  0.6991  0.1864
  582MOL0     H78552   6.424   6.607   0.826 -1.0002  0.6649 -0.8915
  582MOL0     H78553   6.614   6.719   0.903 -0.0636 -4.0447 -1.7527
  582MOL0     H78554   8.573   6.309   0.860  4.0958 -0.6101  0.0037
  582MOL0     H78555   8.692   6.157   0.721 -0.4251 -0.2960 -2.2692
  582MOL0     H78556   8.817   5.985   0.337 -0.2506  2.3868  0.8573
  582MOL0     H78557   8.939   5.856   0.192 -0.8299  0.2446 -0.8156
  582MOL0     H78558   9.369   5.845   0.185 -0.0894 -0.4892  0.0390
  582MOL0     H78559   9.323   5.950   0.054  1.9101 -0.0526  2.4371
  582MOL0     H78560   9.429   5.776  -0.075  0.4102 -2.2104 -1.0652
  582MOL0     H78561   9.259   5.745  -0.075 -2.3939  0.1465  3.1025
  582MOL0     H78562   9.370   5.527  -0.007 -2.7174 -0.1110 -1.1965
  582MOL0     H78563   9.317   5.600   0.145 -1.8512 -1.5088 -1.6815
  582MOL0     H78564   9.563   5.716   0.112 -2.4197  0.2667 -0.8750
  582MOL0     H78565   9.551   5.545   0.182  1.0230  2.9630  2.9008
  582MOL0     H78566   9.738   5.430  -0.145 -1.9546  1.2950 -4.1360
  582MOL0     H78567   9.311   5.990   0.321  0.1241  0.4396  0.1738
  582MOL0     H78568   9.174   6.289   0.475 -1.2635  0.0607 -1.1116
  582MOL0     H78569   9.200   6.165   0.594 -1.9085 -0.3943 -0.5228
  582MOL0     H78570   9.326   6.176   0.472 -0.1136  0.7735  2.6638
  583MOL0     O78571   7.999   9.594   2.469 -0.0409 -0.1565 -0.3912
  583MOL0     C78572   8.045   9.710   2.441  0.2341 -0.0306  0.2850
  583MOL0     O78573   7.964   9.810   2.388  0.5232 -0.0538  0.9267
  583MOL0     C78574   7.824   9.774   2.367 -0.3307 -0.1381  0.3645
  583MOL0     C78575   7.745   9.755   2.478  0.7709  0.5420 -0.0968
  583MOL0     C78576   7.613   9.706   2.459 -0.4816  0.4146  0.7456
  583MOL0     C78577   7.557   9.686   2.332  0.1631 -0.3635 -0.2434
  583MOL0     O78578   7.423   9.646   2.329 -0.0063 -0.0488 -0.2419
  583MOL0     C78579   7.383   9.615   2.200 -0.1883 -0.8579 -1.0688
  583MOL0     C78580   7.237   9.567   2.197 -0.3509  0.1115 -0.2234
  583MOL0     C78581   7.175   9.575   2.066  0.2669  0.3035  0.6405
  583MOL0     C78582   7.162   9.718   2.021  0.7404 -1.3291 -0.4045
  583MOL0     C78583   7.060   9.749   1.914 -0.5238  0.4254  0.9756
  583MOL0     C78584   6.929   9.780   1.978 -0.4400 -0.4889  0.4968
  583MOL0     C78585   6.821   9.775   1.870  0.6640 -0.0916  0.2192
  583MOL0     C78586   6.784   9.627   1.834  0.1866 -0.0088 -0.0400
  583MOL0     N78587   6.690   9.639   1.726  0.5723  0.0392 -0.0692
  583MOL0     C78588   6.560   9.698   1.730  0.2334  0.1942  1.7654
  583MOL0     C78589   6.501   9.674   1.607 -0.2514  0.7704  0.3433
  583MOL0     C78590   6.365   9.725   1.563  0.0217  0.1708  0.5544
  583MOL0     C78591   6.390   9.850   1.487 -0.8613  0.2645 -0.2636
  583MOL0     C78592   6.261   9.922   1.436 -0.3037  0.2148  0.8476
  583MOL0     C78593   6.271  10.040   1.338 -0.2475  0.2998 -0.4790
  583MOL0     O78594   6.141  10.094   1.311  0.0148  0.0829 -0.3045
  583MOL0     C78595   6.101  10.148   1.189  0.6493 -0.7491 -0.0767
  583MOL0     C78596   6.197  10.189   1.091 -0.0254 -0.3498  0.0057
  583MOL0     C78597   6.154  10.252   0.969 -0.1347 -0.2445  0.1302
  583MOL0     C78598   6.014  10.275   0.945 -0.3797 -0.6652 -0.7381
  583MOL0     C78599   5.965  10.354   0.826  0.5377  0.3671 -0.1316
  583MOL0     O78600   6.071  10.409   0.749 -0.1462  0.1011  0.2903
  583MOL0     C78601   6.056  10.495   0.642  0.7991  0.8799 -0.4764
  583MOL0     C78602   6.126  10.616   0.623 -0.0023  0.4978 -0.2466
  583MOL0     C78603   6.106  10.690   0.499 -0.0349  0.7127 -0.7555
  583MOL0     C78604   6.048  10.630   0.389 -0.6301  0.0371 -0.6643
  583MOL0     O78605   6.058  10.699   0.269 -0.7294  0.0494  0.4874
  583MOL0     C78606   5.942  10.742   0.190  0.1947  0.6155 -0.0219
  583MOL0     C78607   5.990  10.827   0.071  0.8237 -0.1351 -0.2996
  583MOL0     C78608   6.106  10.758   0.014  0.3704 -0.2386  0.0965
  583MOL0     C78609   6.167  10.845  -0.093 -0.4993 -0.4646  0.4116
  583MOL0     C78610   6.290  10.782  -0.167 -0.2239  0.1521 -0.5720
  583MOL0     C78611   6.251  10.659  -0.258  0.7492  0.2533  0.6326
  583MOL0     C78612   6.159  10.708  -0.379 -0.5917  0.0099 -0.8134
  583MOL0     C78613   6.017  10.655  -0.337 -0.6042  0.1760  0.1888
  583MOL0    Cl78614   5.912  10.739  -0.456 -0.8516 -0.0483 -0.5385
  583MOL0     C78615   5.981  10.517   0.406 -0.6553  0.6263 -0.6414
  583MOL0     C78616   5.974  10.454   0.537 -0.2944 -1.7622  1.1072
  583MOL0     O78617   5.842  10.365   0.799  0.3037  0.3679 -0.5423
  583MOL0     C78618   5.916  10.230   1.045 -0.8177  0.3221 -0.6288
  583MOL0     C78619   5.965  10.167   1.158 -0.3943  0.3432  0.0182
  583MOL0     N78620   6.600   9.601   1.535  0.9114  0.0484 -0.4709
  583MOL0     N78621   6.709   9.596   1.598  0.5711 -0.2812  1.3016
  583MOL0     C78622   7.638   9.716   2.219  0.0239  0.3943  0.0503
  583MOL0     C78623   7.771   9.759   2.234  0.4979  0.5668 -0.3423
  583MOL0     C78624   8.189   9.727   2.465 -0.9777 -0.0211 -1.2778
  583MOL0     C78625   8.246   9.854   2.429 -0.9802 -0.5086 -0.0405
  583MOL0     C78626   8.380   9.886   2.452 -0.0594  0.2900  0.9454
  583MOL0     C78627   8.462   9.783   2.505  0.7502  0.6098 -0.6240
  583MOL0     O78628   8.592   9.822   2.502  0.0970 -0.1205  0.1209
  583MOL0     C78629   8.685   9.734   2.555 -0.6684  0.1047 -0.7235
  583MOL0     C78630   8.823   9.812   2.591  0.3177  0.5059  0.3986
  583MOL0     C78631   8.901   9.863   2.466  0.3531  0.1126 -0.8734
  583MOL0     C78632   9.005   9.965   2.523  0.2977 -0.9121 -0.4227
  583MOL0     C78633   9.094  10.015   2.417 -0.0960  0.2188  0.2536
  583MOL0     C78634   9.153  10.063   2.321  0.0692 -0.5446  0.4442
  583MOL0     C78635   8.410   9.658   2.530  0.0104 -0.3375 -0.5716
  583MOL0     C78636   8.279   9.625   2.518  0.0562  0.2784  0.6902
  583MOL0     C78637   8.235   9.490   2.560 -0.6573 -0.4558  0.1393
  583MOL0     H78638   7.767   9.769   2.584 -3.5511  3.5230  0.6676
  583MOL0     H78639   7.554   9.684   2.548 -0.3272 -0.9451  0.5275
  583MOL0     H78640   7.411   9.695   2.131  5.2605  1.3358  2.9278
  583MOL0     H78641   7.440   9.526   2.173  2.0001 -0.0655  0.6438
  583MOL0     H78642   7.174   9.624   2.265  0.4412 -0.2346  0.8367
  583MOL0     H78643   7.236   9.463   2.233  0.1098  0.0848 -0.2745
  583MOL0     H78644   7.070   9.547   2.073 -0.4947  2.4641 -1.2142
  583MOL0     H78645   7.223   9.516   1.987  2.2748  2.6626 -0.0310
  583MOL0     H78646   7.152   9.793   2.099 -3.8383  0.2713 -2.1549
  583MOL0     H78647   7.257   9.737   1.970  0.1600 -2.0581 -1.8383
  583MOL0     H78648   7.085   9.844   1.867  0.7681  0.7504  2.2317
  583MOL0     H78649   7.058   9.671   1.837 -4.4704  0.8579  0.4335
  583MOL0     H78650   6.905   9.701   2.050 -0.4275 -2.2013 -1.3129
  583MOL0     H78651   6.943   9.875   2.032 -0.2732 -0.3226  0.1632
  583MOL0     H78652   6.858   9.807   1.772 -2.4160  1.2257 -0.6159
  583MOL0     H78653   6.730   9.829   1.899  2.4475  3.2499  0.0968
  583MOL0     H78654   6.868   9.562   1.810 -2.2469 -3.0774 -0.9651
  583MOL0     H78655   6.741   9.582   1.924  2.3618 -2.0669  0.0650
  583MOL0     H78656   6.503   9.744   1.810  2.2499  2.4706  2.0004
  583MOL0     H78657   6.305   9.652   1.506  3.3470  0.2353 -3.5158
  583MOL0     H78658   6.311   9.749   1.655 -0.1093  0.6584  0.3523
  583MOL0     H78659   6.442   9.927   1.544 -4.2380  0.8031  2.4139
  583MOL0     H78660   6.456   9.823   1.404 -1.5796 -1.7306 -0.2426
  583MOL0     H78661   6.227   9.968   1.529  0.2224 -0.8647  1.5872
  583MOL0     H78662   6.181   9.851   1.414 -1.3973  1.9657 -1.2913
  583MOL0     H78663   6.321   9.996   1.251 -1.0527 -1.7270  0.0116
  583MOL0     H78664   6.337  10.121   1.370  1.6113 -0.5196 -2.0186
  583MOL0     H78665   6.304  10.196   1.105  0.2572 -1.7859 -1.2319
  583MOL0     H78666   6.222  10.283   0.890 -0.9389 -1.6918 -1.1902
  583MOL0     H78667   6.198  10.644   0.699 -1.4214 -1.9212  2.1674
  583MOL0     H78668   6.158  10.783   0.477 -1.2819  1.0818 -2.3695
  583MOL0     H78669   5.880  10.655   0.166  1.2265 -0.5150  1.2427
  583MOL0     H78670   5.876  10.811   0.245 -1.9378 -0.5850 -0.9302
  583MOL0     H78671   5.920  10.850  -0.010  0.9996 -0.0832 -0.4391
  583MOL0     H78672   6.018  10.927   0.106  0.6646 -0.4251  0.7044
  583MOL0     H78673   6.188  10.733   0.081  0.0999 -3.2050 -0.5425
  583MOL0     H78674   6.078  10.656  -0.016  0.4403 -0.7498  1.6484
  583MOL0     H78675   6.201  10.939  -0.049  1.0896 -1.3004  1.0716
  583MOL0     H78676   6.097  10.887  -0.165  0.9973  1.1137 -0.1926
  583MOL0     H78677   6.361  10.758  -0.087  1.6745  3.8739 -0.9138
  583MOL0     H78678   6.331  10.867  -0.222 -1.0294  1.0201  0.1266
  583MOL0     H78679   6.348  10.628  -0.299  0.9218  2.7108 -0.9808
  583MOL0     H78680   6.206  10.575  -0.204 -0.8810  1.6989  1.5982
  583MOL0     H78681   6.202  10.657  -0.466 -2.9798 -0.5599 -1.7332
  583MOL0     H78682   6.167  10.817  -0.385  1.1403 -0.0652 -0.5294
  583MOL0     H78683   6.010  10.545  -0.342  2.7720 -0.3130  2.7219
  583MOL0     H78684   5.989  10.673  -0.233  0.3749  0.3941  0.4258
  583MOL0     H78685   5.911  10.479   0.333 -1.5447 -2.3657  1.5524
  583MOL0     H78686   5.910  10.368   0.545  1.6555 -3.2757  1.1992
  583MOL0     H78687   5.810  10.227   1.019 -1.3219  1.5302  1.1571
  583MOL0     H78688   5.915  10.108   1.234 -2.3087 -1.4826 -2.4687
  583MOL0     H78689   7.604   9.692   2.119 -1.5899 -0.7811  0.8371
  583MOL0     H78690   7.832   9.770   2.145  1.1552  0.5164  0.0961
  583MOL0     H78691   8.187   9.939   2.399  2.9735  2.4755 -0.1483
  583MOL0     H78692   8.414   9.982   2.416 -2.1029  0.6527 -0.2107
  583MOL0     H78693   8.708   9.665   2.473  1.8617  3.0374 -2.7222
  583MOL0     H78694   8.649   9.682   2.644  1.7821  0.6905  0.6953
  583MOL0     H78695   8.885   9.730   2.628  0.5271 -0.4227 -1.8406
  583MOL0     H78696   8.795   9.890   2.662 -0.5898 -0.9127  1.6422
  583MOL0     H78697   8.822   9.904   2.402 -0.3759 -1.5475 -1.1078
  583MOL0     H78698   8.944   9.774   2.419 -2.1033 -3.1682  2.4677
  583MOL0     H78699   8.952  10.055   2.554 -0.0646 -0.3817 -2.4311
  583MOL0     H78700   9.063   9.921   2.605 -3.4857 -0.3571  2.8093
  583MOL0     H78701   9.203  10.109   2.239 -0.5766 -1.1010 -0.2805
  583MOL0     H78702   8.486   9.587   2.559  1.9003  0.8626 -2.3151
  583MOL0     H78703   8.170   9.446   2.484 -1.5389  0.8403  0.1036
  583MOL0     H78704   8.323   9.425   2.556 -0.0841  0.0684  2.5333
  583MOL0     H78705   8.203   9.487   2.664  1.9043  4.4266  1.3744
  584MOL0     O78706   0.980  10.755   7.209 -0.2089  0.1968 -0.0960
  584MOL0     C78707   0.986  10.702   7.095 -0.0141 -0.5692 -0.4286
  584MOL0     O78708   1.034  10.762   6.982 -0.7246 -0.6463 -0.0832
  584MOL0     C78709   1.070  10.897   6.994 -0.6786  0.1145  0.0014
  584MOL0     C78710   1.179  10.935   7.069 -0.5817  0.4085  0.6788
  584MOL0     C78711   1.231  11.061   7.071  0.0386 -1.4448  0.4891
  584MOL0     C78712   1.169  11.159   6.994  1.2980 -0.7509  0.0156
  584MOL0     O78713   1.232  11.284   6.994  0.0672 -0.6387  0.1011
  584MOL0     C78714   1.178  11.399   6.926 -0.2241  0.6008  0.4890
  584MOL0     C78715   1.249  11.529   6.938 -0.7028 -0.7956  0.1450
  584MOL0     C78716   1.188  11.630   6.843 -0.0408 -0.2535  0.7057
  584MOL0     C78717   1.290  11.736   6.811  0.2557 -0.8792 -0.3246
  584MOL0     C78718   1.249  11.827   6.693 -0.7692  0.3420 -0.0030
  584MOL0     C78719   1.356  11.932   6.666  0.5587  0.8885  0.3046
  584MOL0     C78720   1.501  11.885   6.634  0.2990  0.2920 -0.3768
  584MOL0     C78721   1.601  11.875   6.752  0.4663 -0.3338  0.3042
  584MOL0     N78722   1.587  12.007   6.823  0.0672 -0.0448  0.3371
  584MOL0     C78723   1.566  12.028   6.956  0.3491  0.7051 -0.2439
  584MOL0     C78724   1.552  12.157   6.971  0.4888 -0.6784 -0.2473
  584MOL0     C78725   1.522  12.232   7.096 -0.1374  0.2309 -0.1779
  584MOL0     C78726   1.660  12.304   7.153 -0.5457 -0.6024  0.1799
  584MOL0     C78727   1.784  12.212   7.165 -0.6107 -0.7884 -0.3308
  584MOL0     C78728   1.913  12.298   7.135 -0.1633  0.1458 -0.6437
  584MOL0     O78729   2.030  12.216   7.116  0.6516 -0.3476 -0.3879
  584MOL0     C78730   2.052  12.134   7.016 -0.4078  0.0996  0.8523
  584MOL0     C78731   1.969  12.145   6.896 -0.2089 -1.2639  0.4600
  584MOL0     C78732   1.987  12.045   6.794  0.1384  0.8200  0.5685
  584MOL0     C78733   2.086  11.945   6.801  0.9409  0.1176 -0.8853
  584MOL0     C78734   2.103  11.835   6.703  1.1212 -0.6014  0.0067
  584MOL0     O78735   2.205  11.749   6.733  0.3874 -0.1495 -0.1580
  584MOL0     C78736   2.251  11.677   6.623 -1.1145  0.4853  0.4418
  584MOL0     C78737   2.241  11.539   6.610 -0.0224 -0.3187  0.0918
  584MOL0     C78738   2.283  11.468   6.491  0.3687 -0.5484  0.4110
  584MOL0     C78739   2.344  11.535   6.375  0.0269 -0.6520 -0.3410
  584MOL0     O78740   2.399  11.471   6.269 -0.6325 -0.4367 -0.0729
  584MOL0     C78741   2.415  11.326   6.289  0.7348  0.5698 -0.8472
  584MOL0     C78742   2.493  11.265   6.168 -0.0320  0.0225 -0.4771
  584MOL0     C78743   2.486  11.111   6.183 -0.4333  0.2803 -0.4042
  584MOL0     C78744   2.577  11.060   6.071 -0.1821 -0.6522  0.6805
  584MOL0     C78745   2.560  10.910   6.052 -0.1780  0.8479  0.1624
  584MOL0     C78746   2.675  10.860   5.953  0.4384 -0.1817  0.4914
  584MOL0     C78747   2.657  10.708   5.921  0.0524  0.2811 -0.1171
  584MOL0     C78748   2.733  10.653   5.804 -0.4690  0.3056 -0.3375
  584MOL0    Cl78749   2.710  10.483   5.775  0.1860 -0.0133  0.7235
  584MOL0     C78750   2.363  11.673   6.395  0.2221 -0.4947 -0.8920
  584MOL0     C78751   2.313  11.742   6.507  0.5471  0.0318  0.2789
  584MOL0     O78752   2.030  11.834   6.604 -0.0919 -0.1860 -0.3885
  584MOL0     C78753   2.164  11.944   6.916  1.0613 -0.7271 -0.2625
  584MOL0     C78754   2.144  12.024   7.024 -0.5022 -0.5404  0.6185
  584MOL0     N78755   1.590  12.216   6.854 -0.4339  0.4306 -0.1674
  584MOL0     N78756   1.623  12.127   6.771  0.0157 -0.8548  0.1471
  584MOL0     C78757   1.050  11.120   6.914 -0.3985  0.2155  0.3168
  584MOL0     C78758   1.009  10.988   6.913 -0.0502 -1.1454 -0.7459
  584MOL0     C78759   0.919  10.572   7.079 -0.2552  0.1430  0.1466
  584MOL0     C78760   0.964  10.505   6.961 -0.2591 -0.2089  0.0346
  584MOL0     C78761   0.931  10.375   6.935  0.0839  0.4681  0.8022
  584MOL0     C78762   0.836  10.309   7.014  0.3795  0.6581  0.0167
  584MOL0     O78763   0.803  10.183   6.974  0.2589  0.5907  0.6638
  584MOL0     C78764   0.811  10.071   7.065  0.0766 -0.1714  0.8833
  584MOL0     C78765   0.678  10.014   7.112 -0.0203 -0.0751  0.1512
  584MOL0     C78766   0.683   9.888   7.199  0.8905  1.1943 -0.3352
  584MOL0     C78767   0.548   9.823   7.216 -0.7146 -0.8941 -0.5714
  584MOL0     C78768   0.569   9.723   7.330  0.0256 -0.2537  0.8830
  584MOL0     C78769   0.577   9.647   7.419 -0.3520 -0.9207 -0.0983
  584MOL0     C78770   0.778  10.379   7.123  0.6476  0.6369 -0.1494
  584MOL0     C78771   0.825  10.506   7.170  0.8219  0.7323  1.0801
  584MOL0     C78772   0.748  10.578   7.276 -0.0733 -0.3995  0.6157
  584MOL0     H78773   1.230  10.868   7.137 -0.1631  2.1059  2.1132
  584MOL0     H78774   1.322  11.081   7.127  0.8326 -1.0918 -0.8808
  584MOL0     H78775   1.167  11.375   6.820 -0.2425  0.2241  0.5745
  584MOL0     H78776   1.075  11.419   6.956 -2.5401 -4.0571 -3.0952
  584MOL0     H78777   1.354  11.503   6.918  0.9045  2.0007  3.7706
  584MOL0     H78778   1.238  11.575   7.037 -1.2432  0.9728 -0.7015
  584MOL0     H78779   1.105  11.685   6.890 -0.0328  1.0430 -0.7302
  584MOL0     H78780   1.129  11.588   6.761 -2.8135  0.7653  2.0213
  584MOL0     H78781   1.298  11.800   6.900 -0.7218  0.2922 -1.0685
  584MOL0     H78782   1.388  11.689   6.797  0.1921 -1.6793  1.5113
  584MOL0     H78783   1.238  11.763   6.605 -0.7337  0.4867 -0.1115
  584MOL0     H78784   1.147  11.858   6.718 -0.6540  1.4164 -0.8326
  584MOL0     H78785   1.328  11.969   6.567 -4.0891 -4.9496 -1.1223
  584MOL0     H78786   1.349  12.013   6.740 -1.1617  0.3775  0.7413
  584MOL0     H78787   1.534  11.965   6.567 -1.6751  1.4609 -0.0102
  584MOL0     H78788   1.496  11.783   6.594  1.9847  0.8131 -2.0687
  584MOL0     H78789   1.574  11.792   6.819 -1.0085 -1.4892 -1.6314
  584MOL0     H78790   1.699  11.845   6.713  0.0551  2.1466 -3.0938
  584MOL0     H78791   1.566  11.946   7.026 -0.4070 -0.0779 -1.1333
  584MOL0     H78792   1.458  12.315   7.068  1.3276  2.2382  2.0470
  584MOL0     H78793   1.466  12.168   7.165 -0.8900  1.7891  0.6965
  584MOL0     H78794   1.701  12.386   7.093 -0.0729  0.5010  1.9591
  584MOL0     H78795   1.645  12.348   7.252  1.5332  2.3208 -0.6854
  584MOL0     H78796   1.790  12.127   7.097  0.1636 -2.2375  1.4831
  584MOL0     H78797   1.789  12.182   7.270 -2.8110 -1.2681 -0.3250
  584MOL0     H78798   1.938  12.361   7.221 -0.2351 -2.1946  1.1913
  584MOL0     H78799   1.905  12.359   7.045  2.3666  0.2310 -0.8794
  584MOL0     H78800   1.896  12.223   6.878  1.4322 -0.3237 -2.9993
  584MOL0     H78801   1.918  12.059   6.712  2.7054 -3.7340 -2.8608
  584MOL0     H78802   2.190  11.500   6.698  0.2164 -0.5833  0.1161
  584MOL0     H78803   2.276  11.360   6.497 -1.0275 -0.4080  2.3149
  584MOL0     H78804   2.459  11.297   6.385 -2.9189  1.9902  1.4900
  584MOL0     H78805   2.319  11.274   6.289  1.0983 -0.1578 -2.3418
  584MOL0     H78806   2.438  11.291   6.077 -1.0109 -4.8452 -1.5758
  584MOL0     H78807   2.596  11.298   6.153  1.1886 -3.2014 -0.0552
  584MOL0     H78808   2.531  11.072   6.275  3.4809 -1.0720 -2.6440
  584MOL0     H78809   2.381  11.081   6.171 -1.3676  3.4175 -0.9572
  584MOL0     H78810   2.675  11.079   6.114 -2.5264  4.4105  5.0374
  584MOL0     H78811   2.571  11.117   5.978 -1.8940  0.1394  1.2124
  584MOL0     H78812   2.464  10.890   6.004 -0.5454 -0.4648  1.3720
  584MOL0     H78813   2.555  10.853   6.145  0.4977 -3.0996 -1.9937
  584MOL0     H78814   2.665  10.921   5.862 -1.1851  0.0777  0.8060
  584MOL0     H78815   2.768  10.877   6.007  0.4434 -3.2363  1.6019
  584MOL0     H78816   2.554  10.689   5.891  1.2558 -4.0176 -2.2994
  584MOL0     H78817   2.690  10.646   6.005  0.2464 -0.2191 -0.5533
  584MOL0     H78818   2.715  10.716   5.716 -0.9585  1.2674  0.4272
  584MOL0     H78819   2.836  10.676   5.832 -1.4659  3.9420  0.8948
  584MOL0     H78820   2.427  11.726   6.326 -1.2854  2.5597 -0.1199
  584MOL0     H78821   2.320  11.851   6.505 -1.3743  0.1855 -1.3560
  584MOL0     H78822   2.244  11.872   6.923  1.6596  0.0578  1.7217
  584MOL0     H78823   2.205  12.023   7.114  3.5997  3.7947 -1.6065
  584MOL0     H78824   1.006  11.193   6.848 -0.2549  0.5853  0.6252
  584MOL0     H78825   0.938  10.961   6.836 -0.8598 -1.9927  0.2776
  584MOL0     H78826   1.031  10.547   6.887 -3.2006  4.5601 -0.3289
  584MOL0     H78827   0.991  10.344   6.850  0.3788  3.5530 -0.2302
  584MOL0     H78828   0.856  10.099   7.161 -3.5589  2.8903  1.9335
  584MOL0     H78829   0.869   9.988   7.024 -2.6580 -1.5919 -0.3705
  584MOL0     H78830   0.618   9.988   7.024 -2.8883  0.2082  1.8920
  584MOL0     H78831   0.639  10.098   7.170  5.0953  1.1440  2.4240
  584MOL0     H78832   0.724   9.915   7.297 -2.3704 -2.7014  2.4448
  584MOL0     H78833   0.751   9.812   7.158  2.5465  0.6426  3.0416
  584MOL0     H78834   0.484   9.903   7.255  1.7468 -0.1170  2.3459
  584MOL0     H78835   0.514   9.764   7.131  0.7953 -5.0031  1.4033
  584MOL0     H78836   0.573   9.569   7.492  3.0551 -2.1520 -1.0266
  584MOL0     H78837   0.699  10.328   7.177  0.3125  2.3189  1.0338
  584MOL0     H78838   0.663  10.531   7.326 -2.6695  2.6881 -0.5143
  584MOL0     H78839   0.821  10.603   7.352  0.7907  3.1977 -1.1821
  584MOL0     H78840   0.706  10.672   7.237 -1.4850 -1.4025 -0.4303
  585MOL0     O78841  10.545  10.073   3.128  0.2923 -0.1051 -0.4527
  585MOL0     C78842  10.658  10.063   3.178 -0.3226  0.6080 -0.1477
  585MOL0     O78843  10.774  10.107   3.120  0.8359 -0.1271 -0.0636
  585MOL0     C78844  10.762  10.181   3.007 -0.9218 -0.8171 -0.2796
  585MOL0     C78845  10.850  10.149   2.903  0.2316 -0.1863  0.6171
  585MOL0     C78846  10.851  10.218   2.783  1.3124  0.4049  0.4371
  585MOL0     C78847  10.770  10.332   2.769 -0.1102  0.0873  0.4470
  585MOL0     O78848  10.768  10.415   2.659 -0.1994 -1.0081 -0.1166
  585MOL0     C78849  10.802  10.368   2.525 -0.2026 -0.2866 -0.0634
  585MOL0     C78850  10.946  10.386   2.480  0.6115 -0.3573 -0.7321
  585MOL0     C78851  10.952  10.540   2.469 -0.4478 -0.4452 -0.8814
  585MOL0     C78852  10.948  10.591   2.319  0.6487  0.3634 -0.0331
  585MOL0     C78853  10.986  10.735   2.313  0.2989 -0.3799 -0.3868
  585MOL0     C78854  10.884  10.839   2.351 -0.3248 -0.0211  0.2695
  585MOL0     C78855  10.941  10.984   2.331 -0.9162 -0.4133  0.0087
  585MOL0     C78856  10.833  11.090   2.294  0.2521  0.9658 -0.4211
  585MOL0     N78857  10.731  11.111   2.394 -0.2867 -0.1068 -0.6243
  585MOL0     C78858  10.749  11.134   2.525 -0.1666  0.7060 -0.7825
  585MOL0     C78859  10.619  11.150   2.573 -1.2796 -0.7085  0.0828
  585MOL0     C78860  10.583  11.158   2.726 -0.4049  0.3019 -0.6754
  585MOL0     C78861  10.459  11.241   2.754  0.6551  0.0753  1.0954
  585MOL0     C78862  10.439  11.276   2.899  0.8543  0.4027  0.6442
  585MOL0     C78863  10.335  11.396   2.910 -0.0819  0.0241  0.0408
  585MOL0     O78864  10.374  11.498   3.002 -0.8215  0.7032  0.4634
  585MOL0     C78865  10.370  11.476   3.137  0.1666  0.2195 -0.7327
  585MOL0     C78866  10.433  11.565   3.228 -0.4935  0.2284 -0.0085
  585MOL0     C78867  10.432  11.541   3.365 -0.8485  0.4042  0.0070
  585MOL0     C78868  10.352  11.440   3.422  1.1447 -0.6921 -0.0768
  585MOL0     C78869  10.357  11.402   3.560  0.1756 -1.0171 -0.4039
  585MOL0     O78870  10.407  11.492   3.656  0.1379  0.2159  0.3350
  585MOL0     C78871  10.385  11.486   3.786 -0.6764 -0.0049 -0.4636
  585MOL0     C78872  10.428  11.364   3.856 -0.3692 -0.5640 -0.6520
  585MOL0     C78873  10.435  11.362   3.995 -0.6701  0.6988  0.3566
  585MOL0     C78874  10.388  11.470   4.069 -0.2820 -0.5096 -0.6029
  585MOL0     O78875  10.384  11.471   4.206  0.3579  0.3244  0.3252
  585MOL0     C78876  10.302  11.373   4.268 -0.1729  0.2994 -0.1801
  585MOL0     C78877  10.322  11.372   4.420 -0.0185 -0.7210 -0.5168
  585MOL0     C78878  10.470  11.344   4.452  0.2105 -0.3839 -0.8946
  585MOL0     C78879  10.513  11.214   4.406  0.4582 -0.3011 -0.4980
  585MOL0     C78880  10.646  11.173   4.469  0.1503  0.0259 -0.2085
  585MOL0     C78881  10.666  11.029   4.448  0.3801  0.3067 -1.3407
  585MOL0     C78882  10.587  10.945   4.543 -0.4133 -1.0989 -0.3454
  585MOL0     C78883  10.605  10.792   4.520 -0.6131  0.0788  0.9130
  585MOL0    Cl78884  10.472  10.692   4.578 -0.5727  0.8596  0.1239
  585MOL0     C78885  10.343  11.586   3.997  0.9800 -0.4142  0.3601
  585MOL0     C78886  10.352  11.602   3.862 -0.6002 -0.7444 -0.4821
  585MOL0     O78887  10.290  11.304   3.599  0.0757  0.9735 -0.1072
  585MOL0     C78888  10.294  11.348   3.334 -1.3294 -0.7807  1.5504
  585MOL0     C78889  10.310  11.368   3.191 -0.0334  0.8642 -0.3710
  585MOL0     N78890  10.535  11.143   2.465 -0.4775 -0.4941  0.5089
  585MOL0     N78891  10.600  11.115   2.356 -0.2878 -0.0828 -0.6084
  585MOL0     C78892  10.689  10.376   2.877  0.0216 -0.4014  0.4251
  585MOL0     C78893  10.683  10.298   2.997 -0.4819 -0.1152 -0.0652
  585MOL0     C78894  10.665  10.035   3.325 -0.3252 -0.3167  0.5906
  585MOL0     C78895  10.747  10.107   3.412  0.1042 -1.0871  0.6307
  585MOL0     C78896  10.768  10.073   3.543 -0.6749  0.4153 -0.3038
  585MOL0     C78897  10.687   9.975   3.602 -0.3950  0.3993 -0.2010
  585MOL0     O78898  10.706   9.934   3.731  0.8992  0.4199  0.3125
  585MOL0     C78899  10.820   9.968   3.802 -0.7038 -0.6285 -0.2679
  585MOL0     C78900  10.828   9.902   3.944  0.0350 -0.2156 -0.7012
  585MOL0     C78901  10.737   9.785   3.980  0.4464 -0.0708 -0.0687
  585MOL0     C78902  10.756   9.732   4.128 -0.3821 -0.9199 -0.3022
  585MOL0     C78903  10.676   9.616   4.141 -0.7796  0.0493 -0.1437
  585MOL0     C78904  10.611   9.524   4.191 -0.4142  0.2110  0.8763
  585MOL0     C78905  10.608   9.892   3.518 -0.1554 -0.2879 -0.0503
  585MOL0     C78906  10.593   9.924   3.381  0.3618 -0.4246 -0.3819
  585MOL0     C78907  10.524   9.833   3.289  0.7827  0.3020  0.9631
  585MOL0     H78908  10.914  10.062   2.907 -1.7378 -1.9326 -2.2168
  585MOL0     H78909  10.917  10.198   2.699 -1.3297  1.2368 -1.9923
  585MOL0     H78910  10.768  10.265   2.509  2.2079 -1.3363  1.0139
  585MOL0     H78911  10.739  10.431   2.461 -3.4249 -0.6135  2.5453
  585MOL0     H78912  10.967  10.342   2.382  0.2474 -0.3060 -0.8355
  585MOL0     H78913  11.006  10.342   2.560  0.5184  1.8282  0.6155
  585MOL0     H78914  11.043  10.579   2.516 -0.4891 -1.2099 -0.1389
  585MOL0     H78915  10.867  10.596   2.510 -0.5328 -2.8841  2.7669
  585MOL0     H78916  11.028  10.536   2.269 -0.1530 -1.3280  0.4696
  585MOL0     H78917  10.851  10.568   2.275 -0.1913 -0.9745  2.3413
  585MOL0     H78918  11.074  10.744   2.378 -1.4341 -1.6077  2.3239
  585MOL0     H78919  11.021  10.753   2.211 -0.6350  1.7836 -0.3762
  585MOL0     H78920  10.799  10.825   2.284  0.3196  3.0904 -1.3636
  585MOL0     H78921  10.861  10.830   2.458  3.6224  1.8077  1.4555
  585MOL0     H78922  11.006  10.983   2.243 -2.8207 -3.3325 -1.4959
  585MOL0     H78923  10.993  11.019   2.421  2.8232 -0.6191 -1.9020
  585MOL0     H78924  10.877  11.185   2.262  1.5193  1.3094  2.0861
  585MOL0     H78925  10.773  11.057   2.208 -1.6212 -1.3124  1.6191
  585MOL0     H78926  10.837  11.127   2.588 -2.1460 -0.9902  2.0254
  585MOL0     H78927  10.559  11.060   2.767  1.6978  1.1615  3.0486
  585MOL0     H78928  10.671  11.203   2.773  0.9984 -0.8295 -2.1127
  585MOL0     H78929  10.475  11.341   2.713 -0.3876  0.1387  0.8015
  585MOL0     H78930  10.367  11.203   2.709  0.6603 -0.3044  1.4005
  585MOL0     H78931  10.537  11.298   2.943  4.0379 -2.2617 -4.2337
  585MOL0     H78932  10.395  11.190   2.951 -0.1571  1.1040  0.9845
  585MOL0     H78933  10.233  11.358   2.924 -0.8471 -0.1210 -4.4249
  585MOL0     H78934  10.317  11.440   2.812 -1.8956 -0.8312 -0.0557
  585MOL0     H78935  10.479  11.656   3.190  1.3484 -1.3552 -1.8388
  585MOL0     H78936  10.479  11.608   3.436  0.3651  1.4998 -1.7635
  585MOL0     H78937  10.468  11.278   3.804 -0.4545  0.1879 -2.0173
  585MOL0     H78938  10.474  11.265   4.027 -1.4968  0.1111 -0.3764
  585MOL0     H78939  10.196  11.389   4.248 -0.7222  2.6192  3.4254
  585MOL0     H78940  10.322  11.270   4.237  1.7612  1.5077 -3.4682
  585MOL0     H78941  10.305  11.475   4.451 -0.4878 -0.8284 -0.4132
  585MOL0     H78942  10.255  11.304   4.473 -1.9927  0.0174 -1.9607
  585MOL0     H78943  10.533  11.425   4.415 -1.8946  2.1216  0.6459
  585MOL0     H78944  10.495  11.345   4.559  2.2334 -0.4747 -1.3264
  585MOL0     H78945  10.519  11.207   4.297 -1.3673 -0.8971 -0.6031
  585MOL0     H78946  10.437  11.147   4.448  1.5124  1.9403  6.1882
  585MOL0     H78947  10.656  11.191   4.577 -0.7689  2.7649 -0.4877
  585MOL0     H78948  10.727  11.227   4.420 -0.4934  3.5306  2.2178
  585MOL0     H78949  10.633  11.014   4.344  0.1134  1.9676 -1.5113
  585MOL0     H78950  10.771  10.998   4.454  0.5575  0.7118 -2.2005
  585MOL0     H78951  10.480  10.958   4.520 -0.7868  1.1351  2.2022
  585MOL0     H78952  10.602  10.967   4.649  0.3805  0.4221 -0.7518
  585MOL0     H78953  10.606  10.776   4.411 -1.2126  1.7554  0.6360
  585MOL0     H78954  10.696  10.750   4.563 -0.0111  0.7990  0.3688
  585MOL0     H78955  10.325  11.673   4.060 -1.3123 -0.6815  0.1850
  585MOL0     H78956  10.344  11.706   3.830 -0.9288 -1.0221 -1.3306
  585MOL0     H78957  10.225  11.267   3.358 -2.0027 -0.4972  0.6568
  585MOL0     H78958  10.257  11.299   3.126 -1.3422  1.6005 -0.1259
  585MOL0     H78959  10.627  10.464   2.862  0.5297  0.0587  0.9757
  585MOL0     H78960  10.615  10.309   3.081  1.6999 -1.7081  2.0602
  585MOL0     H78961  10.810  10.188   3.375  2.0816 -2.3240  1.1608
  585MOL0     H78962  10.851  10.116   3.598 -2.3040 -0.3838  3.0158
  585MOL0     H78963  10.834  10.076   3.815 -0.2009 -0.8646  1.4083
  585MOL0     H78964  10.917   9.943   3.760 -0.1832  1.7619 -0.6322
  585MOL0     H78965  10.795   9.979   4.015  1.8415  3.0579 -3.1156
  585MOL0     H78966  10.931   9.880   3.973  0.1426  2.2723  1.1222
  585MOL0     H78967  10.756   9.707   3.905  2.5476  0.3801 -0.0448
  585MOL0     H78968  10.634   9.819   3.965  0.7171  1.0990  0.6257
  585MOL0     H78969  10.859   9.703   4.150 -0.6717 -3.7345 -2.1118
  585MOL0     H78970  10.730   9.817   4.192 -1.9363 -0.5758 -1.3277
  585MOL0     H78971  10.557   9.446   4.241 -0.1761 -1.3325 -1.1381
  585MOL0     H78972  10.557   9.808   3.566  0.0824  1.0662  2.7489
  585MOL0     H78973  10.424   9.870   3.265 -0.4171 -3.7968 -1.3832
  585MOL0     H78974  10.577   9.831   3.193  0.2809  3.2209  0.5282
  585MOL0     H78975  10.507   9.735   3.336 -0.1550  0.2779  0.6035
  586MOL0     O78976   0.884   2.329   1.900  0.2788 -0.7993 -0.4564
  586MOL0     C78977   0.875   2.207   1.878 -0.1468 -0.2828 -0.2706
  586MOL0     O78978   0.807   2.120   1.954  0.0714 -0.2615  0.2442
  586MOL0     C78979   0.767   2.141   2.082 -0.0353 -0.8607 -0.6311
  586MOL0     C78980   0.718   2.262   2.134 -0.0414 -0.7284 -1.0992
  586MOL0     C78981   0.681   2.266   2.266 -0.5519  0.0628  0.6999
  586MOL0     C78982   0.679   2.152   2.345 -0.5155  0.0796  0.2986
  586MOL0     O78983   0.625   2.152   2.475 -0.4672 -0.1281  0.5500
  586MOL0     C78984   0.600   2.267   2.548 -0.1690  1.0157 -0.2777
  586MOL0     C78985   0.733   2.325   2.602 -0.1916  0.2677  0.5070
  586MOL0     C78986   0.736   2.407   2.739 -0.2884  0.5503 -0.4327
  586MOL0     C78987   0.877   2.400   2.801  0.4351 -0.0323 -0.1982
  586MOL0     C78988   0.883   2.449   2.935  0.6987  0.5484 -1.3149
  586MOL0     C78989   1.029   2.448   3.005 -0.7358  1.2320 -0.0353
  586MOL0     C78990   1.137   2.521   2.923 -0.6959 -0.7128 -1.0491
  586MOL0     C78991   1.248   2.585   3.008 -0.2526 -0.4577 -0.4580
  586MOL0     N78992   1.233   2.725   3.056 -0.7428  0.1074 -0.3279
  586MOL0     C78993   1.274   2.761   3.184 -0.3609 -0.4887  0.5990
  586MOL0     C78994   1.237   2.892   3.183  0.0467 -0.3634 -0.4928
  586MOL0     C78995   1.235   2.977   3.310  0.5286 -0.1309  0.2271
  586MOL0     C78996   1.121   3.079   3.318  0.0595 -0.7404 -0.1503
  586MOL0     C78997   1.129   3.177   3.448 -0.2658 -0.0486  1.3266
  586MOL0     C78998   1.049   3.111   3.565 -0.4483  0.5947 -0.9517
  586MOL0     O78999   0.910   3.090   3.535  0.6455 -0.6371  0.0829
  586MOL0     C79000   0.807   3.107   3.627  0.4432 -0.2256 -0.3098
  586MOL0     C79001   0.680   3.059   3.574 -0.2408 -0.1030  0.3445
  586MOL0     C79002   0.570   3.067   3.657  0.1041  0.3974 -0.4957
  586MOL0     C79003   0.589   3.106   3.798  0.1302  0.4933  0.2554
  586MOL0     C79004   0.486   3.093   3.898  0.4259 -0.5517  0.3578
  586MOL0     O79005   0.496   3.168   4.004 -0.8716  0.1806 -0.8978
  586MOL0     C79006   0.409   3.171   4.112  0.1083  0.2188  1.0665
  586MOL0     C79007   0.355   3.051   4.156  0.7041 -1.0827 -0.0222
  586MOL0     C79008   0.286   3.045   4.274 -0.3370 -0.2443 -0.2814
  586MOL0     C79009   0.264   3.162   4.348 -0.2920  0.0933 -0.1068
  586MOL0     O79010   0.197   3.174   4.470  1.0861  0.0068  0.6005
  586MOL0     C79011   0.148   3.049   4.522  0.4719 -0.5691  0.3149
  586MOL0     C79012   0.133   3.051   4.678 -0.7342  0.2180  0.0362
  586MOL0     C79013   0.260   3.043   4.736  0.0943  0.1343  0.7634
  586MOL0     C79014   0.249   3.024   4.886 -0.4930 -0.8540 -0.1306
  586MOL0     C79015   0.381   3.025   4.961 -0.8823  0.7476 -0.1840
  586MOL0     C79016   0.485   3.144   4.935 -0.9615  0.3864  0.1491
  586MOL0     C79017   0.609   3.131   5.013  0.5298  0.3414 -0.6219
  586MOL0     C79018   0.599   3.108   5.162 -0.2197  0.6631  0.0787
  586MOL0    Cl79019   0.472   3.214   5.236  0.4120  0.1106 -0.2338
  586MOL0     C79020   0.319   3.288   4.302 -0.2676 -1.0555  0.0061
  586MOL0     C79021   0.402   3.286   4.190 -0.4246  0.3655  0.2914
  586MOL0     O79022   0.399   3.005   3.873  0.6817 -1.0474 -0.5240
  586MOL0     C79023   0.713   3.174   3.834 -0.0974  0.3659 -0.2477
  586MOL0     C79024   0.816   3.170   3.745  0.1316 -0.8970 -0.5047
  586MOL0     N79025   1.187   2.929   3.061  0.1645  0.5064 -0.0823
  586MOL0     N79026   1.184   2.829   2.980  0.0733  0.9327 -0.2522
  586MOL0     C79027   0.729   2.028   2.301  0.2975 -0.1117  0.1248
  586MOL0     C79028   0.773   2.026   2.163  0.5958 -0.8020 -0.1433
  586MOL0     C79029   0.931   2.158   1.747  0.8211 -0.2954  0.0482
  586MOL0     C79030   0.888   2.031   1.704  0.1821 -0.3221  0.0336
  586MOL0     C79031   0.920   1.973   1.581 -0.1651 -1.0608 -0.2612
  586MOL0     C79032   1.009   2.041   1.491 -0.7104  0.2359 -0.7474
  586MOL0     O79033   1.057   1.995   1.374  0.1205  0.0800  0.4012
  586MOL0     C79034   1.015   1.864   1.347 -0.4755  0.2720  1.1724
  586MOL0     C79035   1.070   1.826   1.206  0.0583 -0.6844  0.4869
  586MOL0     C79036   0.989   1.718   1.129  0.1038 -0.7493 -0.0532
  586MOL0     C79037   1.048   1.685   0.992 -0.0184 -0.9069 -1.7418
  586MOL0     C79038   0.958   1.653   0.887 -0.1502 -0.1309 -0.8544
  586MOL0     C79039   0.873   1.634   0.800 -0.3963 -0.0446 -0.3623
  586MOL0     C79040   1.067   2.159   1.540  0.9250 -0.7982 -0.0438
  586MOL0     C79041   1.033   2.217   1.664 -0.0309 -0.2714 -0.2395
  586MOL0     C79042   1.095   2.356   1.682  0.4779  0.0554 -0.6112
  586MOL0     H79043   0.706   2.349   2.070  1.9784  0.3773 -0.0795
  586MOL0     H79044   0.660   2.365   2.307  1.0495  2.0596 -2.8821
  586MOL0     H79045   0.539   2.332   2.485  0.7402  0.3564 -1.8907
  586MOL0     H79046   0.538   2.228   2.629 -0.5887  0.6972 -0.7497
  586MOL0     H79047   0.783   2.395   2.534  2.0401  0.0357  1.8049
  586MOL0     H79048   0.809   2.247   2.607  1.1189  1.5594  2.5303
  586MOL0     H79049   0.668   2.351   2.804  3.2226 -0.9349  2.2368
  586MOL0     H79050   0.695   2.508   2.729  0.5188  0.8133 -1.2556
  586MOL0     H79051   0.903   2.295   2.814  0.9782  0.1172 -0.0459
  586MOL0     H79052   0.950   2.453   2.739 -1.5229  3.3114  0.0830
  586MOL0     H79053   0.838   2.548   2.944 -0.8472 -0.1549 -1.0066
  586MOL0     H79054   0.825   2.385   3.002  1.5957 -0.7998 -1.7738
  586MOL0     H79055   1.027   2.490   3.106 -2.3386  0.8937  0.1080
  586MOL0     H79056   1.062   2.345   3.018 -0.9043  1.4375  2.5270
  586MOL0     H79057   1.097   2.608   2.870  1.4126  0.3371 -0.9912
  586MOL0     H79058   1.185   2.460   2.847  1.6965  0.5793 -0.6624
  586MOL0     H79059   1.294   2.518   3.081 -1.2713 -1.6817 -0.9110
  586MOL0     H79060   1.327   2.592   2.934  0.8351 -1.6752  0.5342
  586MOL0     H79061   1.315   2.694   3.259 -0.3464 -1.5151 -0.2982
  586MOL0     H79062   1.233   2.915   3.400 -1.4856  0.2935  0.5258
  586MOL0     H79063   1.335   3.021   3.304  0.5447 -0.2683 -0.6031
  586MOL0     H79064   1.112   3.135   3.224  1.8200  0.6460  0.4510
  586MOL0     H79065   1.032   3.016   3.309  2.2554 -4.0348 -0.6859
  586MOL0     H79066   1.086   3.275   3.424 -0.2785 -0.2759  0.3959
  586MOL0     H79067   1.235   3.190   3.471 -0.0099  0.2793  0.0534
  586MOL0     H79068   1.066   3.156   3.662 -0.1128 -1.9883  0.2812
  586MOL0     H79069   1.088   3.009   3.577 -2.0292  0.1871  1.2894
  586MOL0     H79070   0.675   3.017   3.474  2.2910 -2.7152  1.1875
  586MOL0     H79071   0.478   3.019   3.623 -0.0755  0.0906  0.3931
  586MOL0     H79072   0.379   2.957   4.106  0.2228 -2.7438  2.6527
  586MOL0     H79073   0.245   2.952   4.313  1.5873 -1.9170 -1.9813
  586MOL0     H79074   0.048   3.035   4.480 -0.6910  1.1519  2.3478
  586MOL0     H79075   0.210   2.961   4.503  0.4996 -0.5283  0.2180
  586MOL0     H79076   0.079   3.137   4.719 -1.4243 -1.0839  1.9689
  586MOL0     H79077   0.083   2.959   4.710 -0.8063 -0.1665 -1.1114
  586MOL0     H79078   0.309   2.954   4.696  1.7016  1.2656  0.0954
  586MOL0     H79079   0.314   3.136   4.717 -0.5160  0.1311 -1.1961
  586MOL0     H79080   0.193   2.937   4.922 -2.8879  0.3011 -0.8837
  586MOL0     H79081   0.192   3.109   4.924  0.6533 -1.6316  3.7546
  586MOL0     H79082   0.442   2.937   4.939 -0.2249  0.3383  2.7508
  586MOL0     H79083   0.356   3.014   5.067 -1.9446  2.9814 -0.1474
  586MOL0     H79084   0.508   3.161   4.830  1.1322  2.3788  0.8476
  586MOL0     H79085   0.437   3.236   4.969 -0.5628 -0.0411  2.0161
  586MOL0     H79086   0.658   3.225   4.988 -0.1353  2.3506  4.4631
  586MOL0     H79087   0.667   3.049   4.969 -0.3711 -0.9435  0.4828
  586MOL0     H79088   0.590   3.000   5.175  1.8517  0.1289 -2.0822
  586MOL0     H79089   0.695   3.127   5.210  0.0697 -2.7634  1.1529
  586MOL0     H79090   0.320   3.385   4.351  1.4647 -2.1653  2.3706
  586MOL0     H79091   0.460   3.374   4.165  0.4392  0.1891  1.5685
  586MOL0     H79092   0.723   3.206   3.938 -0.0730 -2.3030  0.6599
  586MOL0     H79093   0.900   3.230   3.777  1.6590 -3.8374  1.5159
  586MOL0     H79094   0.720   1.937   2.359  2.8877  0.2405  1.2231
  586MOL0     H79095   0.801   1.927   2.126 -0.2254 -0.6090 -1.3286
  586MOL0     H79096   0.819   1.967   1.759 -0.3678 -0.9945 -1.3533
  586MOL0     H79097   0.883   1.881   1.539  1.9077 -1.2741 -1.7514
  586MOL0     H79098   0.908   1.845   1.346 -0.4314 -0.3510 -1.9396
  586MOL0     H79099   1.055   1.797   1.425 -2.2261 -0.1322  1.7581
  586MOL0     H79100   1.178   1.819   1.196  0.5049  4.1643 -0.7667
  586MOL0     H79101   1.051   1.918   1.149  1.4861  1.7150  3.5441
  586MOL0     H79102   0.882   1.740   1.119  0.3407  0.8671  0.6846
  586MOL0     H79103   0.996   1.627   1.190 -2.0235 -1.6360 -1.0131
  586MOL0     H79104   1.094   1.780   0.961 -0.1823 -0.9147 -2.0079
  586MOL0     H79105   1.120   1.604   1.008 -0.8127 -1.1560  1.0431
  586MOL0     H79106   0.790   1.617   0.734 -0.1069 -2.9269 -0.1234
  586MOL0     H79107   1.144   2.213   1.486 -0.3644  0.1491 -0.9844
  586MOL0     H79108   1.186   2.351   1.742 -1.0211 -0.3014  1.7615
  586MOL0     H79109   1.127   2.408   1.591 -0.8471  0.9366 -0.6142
  586MOL0     H79110   1.028   2.424   1.737  0.7623 -0.5510  0.5073
  587MOL0     O79111   7.280   2.131   0.886  1.0366  0.4492  0.0242
  587MOL0     C79112   7.200   2.166   0.796  0.0296 -0.6124 -0.1687
  587MOL0     O79113   7.067   2.194   0.812  1.0091  0.0915  0.0216
  587MOL0     C79114   6.993   2.180   0.928 -0.6802 -0.0507 -0.2049
  587MOL0     C79115   6.880   2.251   0.938  0.1026  0.3271  0.7184
  587MOL0     C79116   6.812   2.281   1.059 -0.1575 -0.6017  0.3103
  587MOL0     C79117   6.851   2.225   1.177 -0.6505  0.1758 -0.3678
  587MOL0     O79118   6.778   2.240   1.282  0.9029  0.4826 -0.4851
  587MOL0     C79119   6.819   2.203   1.410 -1.1946  0.0677  0.6847
  587MOL0     C79120   6.701   2.171   1.494  0.5071 -0.1198 -0.2150
  587MOL0     C79121   6.602   2.066   1.438 -0.2346 -0.3094  0.8186
  587MOL0     C79122   6.614   1.940   1.526 -0.9012  0.2224 -0.1694
  587MOL0     C79123   6.505   1.839   1.497 -0.1455  0.5523  0.7282
  587MOL0     C79124   6.361   1.886   1.538  0.3280 -0.8805 -0.0580
  587MOL0     C79125   6.349   1.902   1.694  0.2354  0.2267  0.5152
  587MOL0     C79126   6.198   1.909   1.738 -0.6491 -0.5467  0.4901
  587MOL0     N79127   6.120   2.024   1.677  0.4187 -0.2292 -0.1191
  587MOL0     C79128   6.057   2.023   1.562 -0.5534  0.2597  1.5509
  587MOL0     C79129   5.976   2.134   1.560 -0.8684 -0.1154  0.4768
  587MOL0     C79130   5.908   2.177   1.436  0.1949  1.0783  0.3784
  587MOL0     C79131   5.929   2.327   1.403  0.1566  0.4724  0.7694
  587MOL0     C79132   5.837   2.363   1.288  0.1024  0.9574  0.5374
  587MOL0     C79133   5.858   2.510   1.233 -0.7534 -0.3825 -0.0520
  587MOL0     O79134   5.982   2.528   1.170 -0.1922  0.2102 -0.2240
  587MOL0     C79135   5.993   2.578   1.037 -0.4762  0.7519 -0.1058
  587MOL0     C79136   5.892   2.621   0.950 -0.3064 -0.3349 -0.7427
  587MOL0     C79137   5.918   2.671   0.823 -0.1300 -0.2258  0.7494
  587MOL0     C79138   6.046   2.654   0.769 -0.5000  0.3362  0.2120
  587MOL0     C79139   6.076   2.686   0.631 -0.1080  0.0115 -0.0384
  587MOL0     O79140   5.979   2.687   0.539  0.3645  0.2757  0.6194
  587MOL0     C79141   5.998   2.746   0.414  0.3683 -0.4983 -0.4886
  587MOL0     C79142   5.937   2.692   0.297  0.4097  0.0988 -0.3364
  587MOL0     C79143   5.950   2.756   0.176  0.0149  0.3251 -0.3188
  587MOL0     C79144   6.010   2.883   0.154  0.3471  0.5106 -1.2998
  587MOL0     O79145   6.025   2.926   0.024  1.0084  0.5431  0.0821
  587MOL0     C79146   6.003   3.072   0.011  0.0998  0.9428 -0.0807
  587MOL0     C79147   5.934   3.101  -0.118  0.0092  0.2746  0.4476
  587MOL0     C79148   5.907   3.245  -0.125  0.9589 -0.2654 -0.5027
  587MOL0     C79149   5.843   3.287  -0.253 -0.5156 -0.3005  0.0210
  587MOL0     C79150   5.815   3.435  -0.246  0.5819  0.6168  0.3160
  587MOL0     C79151   5.772   3.475  -0.387 -0.4073  0.0961 -0.0754
  587MOL0     C79152   5.762   3.625  -0.396 -0.6510 -0.3287  0.5187
  587MOL0     C79153   5.894   3.697  -0.418 -1.0912  0.1160  0.4901
  587MOL0    Cl79154   5.855   3.864  -0.470  0.1101 -0.4467 -0.4824
  587MOL0     C79155   6.061   2.940   0.275  0.6574 -0.2877  0.1107
  587MOL0     C79156   6.052   2.875   0.399 -0.2285 -0.4621  0.9645
  587MOL0     O79157   6.188   2.711   0.605  0.2174 -0.7174  0.4124
  587MOL0     C79158   6.149   2.622   0.853  0.1348  0.0957  0.2359
  587MOL0     C79159   6.121   2.597   0.990 -0.2327 -0.3660 -0.3550
  587MOL0     N79160   6.003   2.202   1.680 -0.5803 -0.9133  1.2070
  587MOL0     N79161   6.085   2.134   1.747 -0.2842 -0.9501 -0.0934
  587MOL0     C79162   6.965   2.135   1.167 -0.7044  0.0358  0.7272
  587MOL0     C79163   7.036   2.120   1.046 -0.3718  0.1558 -0.7001
  587MOL0     C79164   7.250   2.161   0.659 -0.0465 -0.6450 -1.0522
  587MOL0     C79165   7.183   2.245   0.566 -1.0629 -0.7736  0.7461
  587MOL0     C79166   7.242   2.270   0.442  0.4376  0.1526 -0.2906
  587MOL0     C79167   7.338   2.178   0.395  0.9490  0.7754  0.0449
  587MOL0     O79168   7.356   2.158   0.264  0.0023  0.3024 -0.1406
  587MOL0     C79169   7.345   2.276   0.184 -0.2385 -0.8389  0.0181
  587MOL0     C79170   7.456   2.269   0.083  0.4961  0.2948 -0.5440
  587MOL0     C79171   7.484   2.391  -0.003 -0.7367  0.0552  0.8774
  587MOL0     C79172   7.531   2.512   0.083 -0.4525 -0.6982 -0.5927
  587MOL0     C79173   7.677   2.523   0.052  0.2597  0.1166  0.8690
  587MOL0     C79174   7.800   2.539   0.038  0.2470 -0.7168 -0.6802
  587MOL0     C79175   7.392   2.083   0.483 -0.7178  0.0445  0.0144
  587MOL0     C79176   7.353   2.079   0.616  0.0306 -0.8418 -0.0715
  587MOL0     C79177   7.429   1.979   0.709  1.0139  0.4638  0.1838
  587MOL0     H79178   6.859   2.318   0.855 -3.3764  0.1400  1.2880
  587MOL0     H79179   6.732   2.355   1.057 -0.1344 -0.4900  2.0823
  587MOL0     H79180   6.886   2.118   1.425  2.8561  3.0727  1.1617
  587MOL0     H79181   6.882   2.287   1.441  0.6112 -1.2772  0.8177
  587MOL0     H79182   6.661   2.271   1.510 -1.2286 -1.1602  2.4990
  587MOL0     H79183   6.740   2.130   1.588  2.4296  0.0238 -0.8963
  587MOL0     H79184   6.615   2.038   1.333  1.1974 -0.2220  0.9525
  587MOL0     H79185   6.498   2.100   1.433 -0.4542 -1.0481 -0.0361
  587MOL0     H79186   6.711   1.897   1.497 -1.7934 -0.5861 -2.1138
  587MOL0     H79187   6.611   1.968   1.632  1.7468 -1.7227  0.5441
  587MOL0     H79188   6.512   1.802   1.394  1.9278 -0.7816  1.2804
  587MOL0     H79189   6.521   1.746   1.552  0.6247  2.1923  3.4686
  587MOL0     H79190   6.330   1.983   1.499 -1.9046 -1.1103  1.0212
  587MOL0     H79191   6.289   1.808   1.511 -2.2123  1.0223  0.8484
  587MOL0     H79192   6.396   1.994   1.729 -0.5298  1.4241 -1.4819
  587MOL0     H79193   6.400   1.820   1.746  2.2610  0.0662 -1.5355
  587MOL0     H79194   6.156   1.812   1.710  0.8822 -0.7881 -1.1792
  587MOL0     H79195   6.182   1.924   1.845 -1.0979 -1.7231  0.5955
  587MOL0     H79196   6.057   1.945   1.487  0.1821  2.5045 -0.9288
  587MOL0     H79197   5.922   2.119   1.345 -1.9842  1.0325  0.0239
  587MOL0     H79198   5.803   2.157   1.458  0.2457 -1.2720 -1.2123
  587MOL0     H79199   5.900   2.389   1.488  4.7854  2.0712  1.4969
  587MOL0     H79200   6.032   2.354   1.377  0.7881 -0.5880  2.1074
  587MOL0     H79201   5.734   2.348   1.323  0.4998  1.1378  1.8165
  587MOL0     H79202   5.861   2.296   1.205  1.4319 -0.8736  2.2965
  587MOL0     H79203   5.851   2.590   1.307 -2.0034  0.3276 -0.9089
  587MOL0     H79204   5.780   2.524   1.158  1.0336 -3.1162 -2.6763
  587MOL0     H79205   5.793   2.630   0.993 -1.2032  0.6917 -2.8206
  587MOL0     H79206   5.833   2.709   0.767 -0.1059 -0.6952  0.3833
  587MOL0     H79207   5.890   2.594   0.302 -2.2394  1.1979 -1.4220
  587MOL0     H79208   5.919   2.699   0.089  1.7881  0.0731 -0.8200
  587MOL0     H79209   5.926   3.107   0.080 -3.6763  0.3844 -3.5844
  587MOL0     H79210   6.094   3.128   0.034  0.7240 -0.5224  1.1865
  587MOL0     H79211   5.990   3.067  -0.206 -2.2157  0.4345 -1.1322
  587MOL0     H79212   5.842   3.041  -0.121 -0.2456  0.5224  2.1387
  587MOL0     H79213   5.842   3.266  -0.040  3.2462 -0.1312  1.3268
  587MOL0     H79214   6.002   3.298  -0.111  1.3483 -0.7704 -1.1485
  587MOL0     H79215   5.747   3.238  -0.269 -1.4275  0.0503  3.5872
  587MOL0     H79216   5.905   3.261  -0.339  0.7414  1.3952  0.3590
  587MOL0     H79217   5.911   3.481  -0.220  4.2864 -4.7326 -2.0031
  587MOL0     H79218   5.736   3.448  -0.172  0.2946 -4.1155  1.1210
  587MOL0     H79219   5.833   3.433  -0.467 -2.9448 -0.3268 -1.8963
  587MOL0     H79220   5.673   3.429  -0.395  0.4803 -2.0520  0.4929
  587MOL0     H79221   5.701   3.665  -0.314 -3.5737  0.2619 -1.7569
  587MOL0     H79222   5.705   3.658  -0.484  2.4556  3.7104 -0.2754
  587MOL0     H79223   5.947   3.689  -0.322 -1.2999 -0.3210  0.5740
  587MOL0     H79224   5.947   3.635  -0.490 -1.9678 -0.7048  0.5167
  587MOL0     H79225   6.105   3.039   0.272 -1.4760  0.7965  1.6537
  587MOL0     H79226   6.102   2.931   0.478  1.8076  0.1122 -0.6544
  587MOL0     H79227   6.254   2.640   0.831  0.3751  5.2931  3.7655
  587MOL0     H79228   6.204   2.571   1.056  1.8997 -0.8419 -3.0487
  587MOL0     H79229   7.000   2.074   1.250 -0.7481 -0.4775  0.3757
  587MOL0     H79230   7.129   2.066   1.064 -2.3005 -2.8880  1.1682
  587MOL0     H79231   7.100   2.305   0.601  2.4390  3.3979  2.8481
  587MOL0     H79232   7.208   2.352   0.380 -0.6744  0.9771  1.3222
  587MOL0     H79233   7.362   2.365   0.244 -0.8664 -1.6384  1.4290
  587MOL0     H79234   7.253   2.281   0.126 -1.5931 -0.8707  2.0644
  587MOL0     H79235   7.439   2.180   0.021  1.5612 -2.1165  2.4027
  587MOL0     H79236   7.554   2.253   0.128 -0.0616  1.8261  1.3215
  587MOL0     H79237   7.395   2.415  -0.062 -0.3710  0.3597  0.4406
  587MOL0     H79238   7.551   2.364  -0.086  0.6038  1.5279  1.4417
  587MOL0     H79239   7.475   2.600   0.049 -0.8404 -0.7834 -0.1856
  587MOL0     H79240   7.521   2.508   0.192 -1.9043  2.2845 -0.5212
  587MOL0     H79241   7.906   2.538   0.026  0.2264 -1.6114 -0.8787
  587MOL0     H79242   7.471   2.011   0.465  0.7320  0.8655  2.6278
  587MOL0     H79243   7.523   1.957   0.657  1.2949 -0.9472  1.2302
  587MOL0     H79244   7.458   2.012   0.809  0.2045  1.5829  0.0599
  587MOL0     H79245   7.375   1.884   0.706 -1.1004  1.6271 -0.5974
  588MOL0     O79246   6.075   1.178   4.071  0.2158  0.0187 -0.2375
  588MOL0     C79247   6.178   1.128   4.032  0.0847  0.1214  1.2164
  588MOL0     O79248   6.172   1.021   3.943 -0.3863  0.1605  0.0102
  588MOL0     C79249   6.057   0.953   3.922 -0.1645  1.1939  0.5723
  588MOL0     C79250   6.016   0.931   3.786  0.6465 -0.7079 -0.4434
  588MOL0     C79251   5.900   0.856   3.758 -0.8715 -0.5196 -0.0631
  588MOL0     C79252   5.824   0.804   3.870 -1.4851 -0.8346  0.9589
  588MOL0     O79253   5.694   0.766   3.852 -0.5353 -0.6712 -0.5838
  588MOL0     C79254   5.631   0.731   3.730 -0.9172 -0.0978  0.1411
  588MOL0     C79255   5.719   0.619   3.662 -0.0501 -0.3481 -0.2457
  588MOL0     C79256   5.707   0.608   3.513  1.4534 -0.6952 -0.0904
  588MOL0     C79257   5.548   0.579   3.486 -0.5168  0.5843  0.3726
  588MOL0     C79258   5.531   0.573   3.336  0.2844 -0.4791 -0.0096
  588MOL0     C79259   5.385   0.546   3.303  0.0402 -0.2088  0.5101
  588MOL0     C79260   5.299   0.672   3.310  0.1445 -0.6152 -0.7522
  588MOL0     C79261   5.236   0.705   3.173 -0.1052  1.0965  1.0668
  588MOL0     N79262   5.166   0.832   3.191 -0.4825 -0.8973  0.4380
  588MOL0     C79263   5.186   0.933   3.284 -0.0869 -0.1833 -0.1475
  588MOL0     C79264   5.078   1.014   3.257 -0.3003 -0.5723  0.2641
  588MOL0     C79265   5.028   1.145   3.320 -0.4310 -0.3571  0.2173
  588MOL0     C79266   5.126   1.198   3.431 -0.5409  0.5929  0.0024
  588MOL0     C79267   5.102   1.342   3.471  0.3168 -0.4442  1.5213
  588MOL0     C79268   5.163   1.390   3.608 -0.3392  0.2120 -0.3925
  588MOL0     O79269   5.148   1.528   3.627 -0.2473 -0.3290  0.0605
  588MOL0     C79270   5.206   1.620   3.544  0.3250 -0.6401 -0.0253
  588MOL0     C79271   5.317   1.598   3.460  0.0615  0.1645 -1.1738
  588MOL0     C79272   5.374   1.704   3.379 -0.1883  0.0719  0.5777
  588MOL0     C79273   5.306   1.822   3.367  0.0564  0.2359 -0.9388
  588MOL0     C79274   5.362   1.922   3.287 -0.6596  0.2605  0.2071
  588MOL0     O79275   5.273   2.014   3.250  0.6661 -0.0920  0.5251
  588MOL0     C79276   5.296   2.138   3.197 -1.1647 -0.4876  0.6844
  588MOL0     C79277   5.385   2.227   3.261  0.9210  1.0302 -0.7627
  588MOL0     C79278   5.413   2.351   3.196  0.4211 -0.5158 -0.2455
  588MOL0     C79279   5.359   2.378   3.071  0.6078  0.2281 -0.5853
  588MOL0     O79280   5.411   2.483   2.993  0.0036  0.1237  0.6770
  588MOL0     C79281   5.380   2.613   3.044 -0.9849 -0.5743  0.4636
  588MOL0     C79282   5.377   2.704   2.927 -0.2026 -0.2569  1.8482
  588MOL0     C79283   5.240   2.686   2.854 -0.0919  0.0782 -0.1175
  588MOL0     C79284   5.218   2.764   2.721  0.2676  0.3406  0.6976
  588MOL0     C79285   5.080   2.747   2.657  0.2229  0.3657 -0.5475
  588MOL0     C79286   5.055   2.832   2.527  0.2427 -0.0792 -0.0569
  588MOL0     C79287   5.122   2.755   2.409 -0.1376 -0.3768  0.3892
  588MOL0     C79288   5.110   2.838   2.280  0.7142 -0.6540  0.0965
  588MOL0    Cl79289   5.200   2.774   2.141 -0.2846 -0.1315  0.0073
  588MOL0     C79290   5.274   2.284   3.012  0.8616 -0.6474 -0.4162
  588MOL0     C79291   5.242   2.165   3.074  1.3511  0.3380  0.1701
  588MOL0     O79292   5.484   1.932   3.273  0.1475 -0.6022 -1.1524
  588MOL0     C79293   5.192   1.842   3.446  0.3783  0.1322  1.5151
  588MOL0     C79294   5.142   1.747   3.529  0.3528  1.2700  0.4217
  588MOL0     N79295   4.994   0.954   3.165 -0.3722 -0.3256  0.6569
  588MOL0     N79296   5.042   0.840   3.137 -0.0862 -0.2552 -0.1974
  588MOL0     C79297   5.881   0.797   3.995 -0.1025 -0.3687 -0.2584
  588MOL0     C79298   5.993   0.875   4.016 -0.0951 -1.0055  0.1194
  588MOL0     C79299   6.305   1.179   4.075  0.2609  0.0327 -0.4867
  588MOL0     C79300   6.423   1.102   4.046  0.4084 -1.5114 -0.2285
  588MOL0     C79301   6.555   1.144   4.079 -0.0540 -1.0347  1.0611
  588MOL0     C79302   6.568   1.263   4.153 -0.4413  0.8909  0.0883
  588MOL0     O79303   6.697   1.296   4.184 -0.0972 -0.1363 -0.3218
  588MOL0     C79304   6.733   1.403   4.269  0.3360 -0.6962 -0.4025
  588MOL0     C79305   6.889   1.428   4.296 -0.0584 -0.3978 -0.1711
  588MOL0     C79306   6.989   1.393   4.183  0.1600  0.3899  0.4984
  588MOL0     C79307   7.003   1.508   4.080 -0.7739  0.4753 -0.2243
  588MOL0     C79308   6.883   1.590   4.052 -0.1073 -0.3322  0.7253
  588MOL0     C79309   6.799   1.670   4.028 -0.2863 -0.3449 -0.3298
  588MOL0     C79310   6.453   1.333   4.191 -0.2426  0.5482 -0.1927
  588MOL0     C79311   6.324   1.294   4.150  0.2435 -1.2005 -0.3040
  588MOL0     C79312   6.216   1.383   4.213 -0.0725  0.0999  0.1870
  588MOL0     H79313   6.070   0.990   3.713  2.0940 -1.2520  0.1531
  588MOL0     H79314   5.855   0.848   3.659 -0.5788 -1.0736 -0.1560
  588MOL0     H79315   5.528   0.695   3.728  0.3956 -4.4942 -3.5191
  588MOL0     H79316   5.646   0.814   3.660 -0.5208  0.1071  0.4573
  588MOL0     H79317   5.683   0.529   3.714  2.1418  0.4055  2.8610
  588MOL0     H79318   5.824   0.626   3.692 -0.3390  0.9373  0.5418
  588MOL0     H79319   5.761   0.519   3.481  3.1812  1.0811 -2.3777
  588MOL0     H79320   5.755   0.697   3.471  0.6900  0.0472  0.5583
  588MOL0     H79321   5.515   0.487   3.536  1.1152  0.3728  1.0909
  588MOL0     H79322   5.480   0.660   3.513 -2.8612 -0.7594 -1.1104
  588MOL0     H79323   5.564   0.669   3.296  1.4708 -1.0990 -0.5721
  588MOL0     H79324   5.595   0.496   3.291  2.3170 -0.3972  2.5368
  588MOL0     H79325   5.372   0.496   3.206  0.8456  2.0883 -0.8796
  588MOL0     H79326   5.351   0.473   3.377  1.9628  1.2175  2.9633
  588MOL0     H79327   5.368   0.745   3.353  0.3205 -3.0873  3.6905
  588MOL0     H79328   5.221   0.657   3.385  1.9806 -1.7934  0.9961
  588MOL0     H79329   5.314   0.714   3.097  0.6287 -2.4438  1.2677
  588MOL0     H79330   5.162   0.627   3.151  2.1172 -1.3926  2.0499
  588MOL0     H79331   5.276   0.950   3.343  0.2758  1.8782 -1.1990
  588MOL0     H79332   5.013   1.218   3.241  2.6288 -1.6412 -1.7308
  588MOL0     H79333   4.931   1.140   3.370  0.1154  1.2250  1.5355
  588MOL0     H79334   5.138   1.131   3.517  2.6482  1.8405  0.6902
  588MOL0     H79335   5.219   1.195   3.372 -0.4065  1.8446  0.1212
  588MOL0     H79336   4.994   1.358   3.482 -0.0077 -0.2168 -1.2332
  588MOL0     H79337   5.129   1.401   3.383 -5.0066  1.0636  0.5092
  588MOL0     H79338   5.266   1.356   3.616 -0.4099 -0.6084 -2.2912
  588MOL0     H79339   5.102   1.338   3.683 -1.3769 -0.7101 -1.8073
  588MOL0     H79340   5.362   1.499   3.452 -0.2035  0.1804 -4.6835
  588MOL0     H79341   5.470   1.683   3.334  0.3289 -1.1892  2.1493
  588MOL0     H79342   5.420   2.205   3.362 -3.4349 -0.2771  0.7309
  588MOL0     H79343   5.484   2.411   3.252 -1.3718 -0.2451  1.9109
  588MOL0     H79344   5.288   2.629   3.100 -0.4196  2.9112  0.5828
  588MOL0     H79345   5.447   2.645   3.125 -0.5560 -1.3835  0.4407
  588MOL0     H79346   5.402   2.808   2.950  1.2340 -0.1280 -0.0383
  588MOL0     H79347   5.445   2.677   2.845 -3.4281 -2.9215 -0.1870
  588MOL0     H79348   5.227   2.580   2.833  2.8288 -0.6354  1.0842
  588MOL0     H79349   5.162   2.717   2.924  1.0748  4.9510 -0.6201
  588MOL0     H79350   5.289   2.726   2.647 -0.8743  1.8757 -1.2918
  588MOL0     H79351   5.247   2.866   2.749  0.9863  0.4412 -0.3487
  588MOL0     H79352   5.009   2.770   2.737  3.4294 -3.4251  3.9110
  588MOL0     H79353   5.069   2.642   2.628  0.1810  0.3165 -0.3492
  588MOL0     H79354   4.949   2.849   2.506 -0.1543 -1.5407  0.6463
  588MOL0     H79355   5.107   2.928   2.532  1.5177 -0.8140  2.3593
  588MOL0     H79356   5.062   2.664   2.408 -3.5440  1.5868  3.0929
  588MOL0     H79357   5.229   2.735   2.423 -0.1413 -0.4582  0.3068
  588MOL0     H79358   5.002   2.841   2.262  0.9518 -0.6557 -1.5133
  588MOL0     H79359   5.151   2.936   2.304  3.3259 -1.0305 -2.3614
  588MOL0     H79360   5.235   2.319   2.917  0.1131  2.2032  0.8317
  588MOL0     H79361   5.170   2.096   3.031 -0.0574 -0.8692  4.0192
  588MOL0     H79362   5.133   1.931   3.428  0.2039  0.0115  1.4878
  588MOL0     H79363   5.048   1.752   3.582  1.3733 -0.5764  2.5884
  588MOL0     H79364   5.840   0.749   4.083  1.3985  0.7084  1.0661
  588MOL0     H79365   6.021   0.872   4.121 -0.6452 -3.5105  0.2564
  588MOL0     H79366   6.404   1.005   4.000 -1.6512 -0.8618 -0.8937
  588MOL0     H79367   6.655   1.108   4.054 -0.3842 -0.9681 -0.4147
  588MOL0     H79368   6.679   1.398   4.364 -0.9037  0.5661 -1.0047
  588MOL0     H79369   6.691   1.493   4.223  3.9613  1.7080  0.5583
  588MOL0     H79370   6.919   1.382   4.391 -2.0804  0.5939  1.0419
  588MOL0     H79371   6.904   1.536   4.307 -1.8342  0.1735 -2.6202
  588MOL0     H79372   6.941   1.304   4.141 -4.3985  3.0175 -0.5526
  588MOL0     H79373   7.084   1.365   4.228 -0.4691  0.5056  1.9469
  588MOL0     H79374   7.071   1.582   4.124  2.2846 -1.2054 -1.7546
  588MOL0     H79375   7.049   1.482   3.984  0.8233 -0.5734  0.7589
  588MOL0     H79376   6.733   1.752   4.012  0.0849  0.1159  0.3944
  588MOL0     H79377   6.473   1.416   4.257 -2.1284  0.7436  0.1762
  588MOL0     H79378   6.162   1.331   4.293  0.3529  0.4192  0.6932
  588MOL0     H79379   6.232   1.486   4.246 -3.4006  1.5016 -2.0321
  588MOL0     H79380   6.142   1.400   4.134 -0.5246  0.3717  0.6622
  589MOL0     O79381   3.399   1.806   7.207 -0.2148  0.7793 -0.1759
  589MOL0     C79382   3.413   1.768   7.089 -0.4841  0.3162  0.9210
  589MOL0     O79383   3.328   1.785   6.986  0.2324 -0.3347 -0.1470
  589MOL0     C79384   3.201   1.741   6.999 -0.1559  0.4864 -0.0454
  589MOL0     C79385   3.144   1.679   6.879  0.0504 -0.7971 -0.9269
  589MOL0     C79386   3.014   1.625   6.886  0.0917 -0.7943  1.4103
  589MOL0     C79387   2.935   1.656   6.996 -0.8702 -0.1407  0.4661
  589MOL0     O79388   2.805   1.614   6.990 -0.2780 -0.0370 -0.3850
  589MOL0     C79389   2.761   1.514   7.089  0.2089  0.4899 -1.2180
  589MOL0     C79390   2.724   1.384   7.025 -1.0442  0.1695  0.3559
  589MOL0     C79391   2.675   1.396   6.885 -0.5538  0.7523 -0.8559
  589MOL0     C79392   2.542   1.476   6.875  0.0992  0.1735  0.2090
  589MOL0     C79393   2.519   1.508   6.725  0.0266 -0.4775 -0.4203
  589MOL0     C79394   2.387   1.579   6.712 -0.1250 -1.0369 -1.0946
  589MOL0     C79395   2.401   1.732   6.749 -0.5969  0.2042  1.3979
  589MOL0     C79396   2.476   1.803   6.646  0.1119 -0.0733  0.1846
  589MOL0     N79397   2.565   1.899   6.717  0.4137 -0.0218 -0.3111
  589MOL0     C79398   2.692   1.876   6.764 -0.7058 -0.7264  1.4726
  589MOL0     C79399   2.737   1.997   6.786 -0.8810  0.5698 -1.1004
  589MOL0     C79400   2.880   2.019   6.839 -0.1609 -0.5478 -1.0049
  589MOL0     C79401   2.953   2.141   6.783 -0.1716 -0.0851  0.2381
  589MOL0     C79402   3.088   2.150   6.861  0.0952  1.2713 -0.5560
  589MOL0     C79403   3.196   2.241   6.801  0.0877 -0.3276  0.0521
  589MOL0     O79404   3.331   2.231   6.858  0.3902  0.6826  0.1386
  589MOL0     C79405   3.419   2.336   6.856 -0.1040 -1.2691  0.8045
  589MOL0     C79406   3.383   2.466   6.807 -0.8170 -0.2902  0.0864
  589MOL0     C79407   3.477   2.573   6.800  0.7877 -0.7723 -1.2309
  589MOL0     C79408   3.611   2.545   6.834 -0.1021  0.2316  0.7184
  589MOL0     C79409   3.714   2.648   6.846 -0.0686  0.1966 -1.3215
  589MOL0     O79410   3.672   2.779   6.821  0.0566  0.8551 -0.2281
  589MOL0     C79411   3.774   2.876   6.825  0.5388 -0.3445  0.2794
  589MOL0     C79412   3.841   2.912   6.939  0.3652 -0.6662  0.3526
  589MOL0     C79413   3.919   3.022   6.950 -0.2404  0.1452 -0.8041
  589MOL0     C79414   3.951   3.094   6.840  1.0854  0.4681  0.2378
  589MOL0     O79415   4.029   3.209   6.832 -0.3389 -0.2345 -0.1890
  589MOL0     C79416   4.084   3.271   6.951  0.3901  0.3663 -0.4877
  589MOL0     C79417   4.165   3.398   6.942 -0.7290 -0.7369  0.9363
  589MOL0     C79418   4.077   3.509   6.890 -0.5358 -0.2396  0.5465
  589MOL0     C79419   4.161   3.631   6.845  1.1899  1.7705 -0.3193
  589MOL0     C79420   4.077   3.733   6.772 -0.0288  0.3803  0.6156
  589MOL0     C79421   4.010   3.682   6.648  0.3873 -0.2544 -0.2679
  589MOL0     C79422   3.976   3.796   6.553 -0.9151  0.1729 -0.3912
  589MOL0     C79423   3.926   3.756   6.418  0.9828 -0.7937  0.1622
  589MOL0    Cl79424   3.779   3.666   6.426 -0.2852  0.2362  0.4049
  589MOL0     C79425   3.883   3.060   6.722 -0.1462 -0.2931  0.6296
  589MOL0     C79426   3.797   2.953   6.707  0.1453 -0.1625  0.8656
  589MOL0     O79427   3.830   2.618   6.879 -0.0248  0.5547 -0.0809
  589MOL0     C79428   3.650   2.417   6.869 -0.9708  0.9231  0.4440
  589MOL0     C79429   3.551   2.319   6.888 -0.4153  0.9895  0.7061
  589MOL0     N79430   2.648   2.099   6.749  0.1474 -0.0580  0.0786
  589MOL0     N79431   2.538   2.029   6.720 -0.0217 -0.3035  0.2840
  589MOL0     C79432   2.987   1.714   7.105 -0.1302 -0.0330  1.0640
  589MOL0     C79433   3.126   1.746   7.117  0.6566 -0.4173 -0.6967
  589MOL0     C79434   3.547   1.733   7.034  0.1987  0.5770 -0.5898
  589MOL0     C79435   3.583   1.777   6.906  0.1595 -0.0610  0.0487
  589MOL0     C79436   3.707   1.754   6.846  0.9224  0.4269 -0.2207
  589MOL0     C79437   3.798   1.685   6.922 -0.7529  0.4529 -0.6091
  589MOL0     O79438   3.924   1.658   6.874 -0.1670  0.5872 -0.4631
  589MOL0     C79439   3.985   1.750   6.784 -0.5867 -0.5016 -0.9544
  589MOL0     C79440   4.099   1.824   6.866  0.6003 -0.2302 -0.0553
  589MOL0     C79441   4.032   1.915   6.961  0.0460  0.3349 -0.0804
  589MOL0     C79442   3.961   2.040   6.902  0.1417  0.4662 -0.1813
  589MOL0     C79443   3.931   2.143   6.997  0.0135 -0.1325 -1.8058
  589MOL0     C79444   3.891   2.232   7.072 -0.4042  0.3468 -0.6120
  589MOL0     C79445   3.760   1.625   7.043  0.4129 -0.3624  0.7945
  589MOL0     C79446   3.632   1.646   7.102  0.2865 -0.6069  0.1944
  589MOL0     C79447   3.605   1.595   7.243 -1.1770  1.1783  0.2756
  589MOL0     H79448   3.209   1.656   6.795  1.3149 -0.7822  0.0234
  589MOL0     H79449   2.981   1.564   6.803  2.3717 -1.5418  0.9751
  589MOL0     H79450   2.845   1.489   7.154 -2.1667  2.0199  2.7987
  589MOL0     H79451   2.676   1.539   7.152  1.4181 -0.3490  0.8299
  589MOL0     H79452   2.658   1.322   7.086 -1.6263 -0.1325 -0.5700
  589MOL0     H79453   2.818   1.329   7.013 -0.9542  0.0031  1.6831
  589MOL0     H79454   2.653   1.290   6.869 -0.4013  1.0934 -4.0575
  589MOL0     H79455   2.755   1.432   6.819  2.8498 -1.4620  1.7163
  589MOL0     H79456   2.465   1.407   6.909 -1.8267  1.6660 -0.8914
  589MOL0     H79457   2.544   1.568   6.933 -0.2880  0.1311  0.2926
  589MOL0     H79458   2.602   1.566   6.684  0.4108 -1.4780 -1.0788
  589MOL0     H79459   2.514   1.416   6.666  2.4441  0.2497 -1.9180
  589MOL0     H79460   2.356   1.564   6.609 -0.5578 -1.0868 -0.9592
  589MOL0     H79461   2.314   1.553   6.790  2.3841 -1.3823  1.3183
  589MOL0     H79462   2.447   1.756   6.845  2.1081  1.4666 -0.1093
  589MOL0     H79463   2.299   1.773   6.750 -1.8475 -2.6290  1.7650
  589MOL0     H79464   2.535   1.732   6.587 -0.9632 -1.3805  0.6192
  589MOL0     H79465   2.411   1.851   6.572  0.7574  1.2552  0.4549
  589MOL0     H79466   2.749   1.784   6.768  2.3127  1.0248  2.8807
  589MOL0     H79467   2.868   2.037   6.946  3.1001 -2.3900 -0.1832
  589MOL0     H79468   2.939   1.927   6.829  0.3535 -0.2132 -1.0761
  589MOL0     H79469   2.970   2.125   6.677  0.6481  0.7902  0.2310
  589MOL0     H79470   2.896   2.233   6.798  2.4336  1.3810  1.8864
  589MOL0     H79471   3.123   2.047   6.861  2.7521  2.0954 -1.3608
  589MOL0     H79472   3.076   2.180   6.965  2.2047  1.4983 -0.3339
  589MOL0     H79473   3.156   2.342   6.812  1.7519  0.2630  1.0422
  589MOL0     H79474   3.194   2.228   6.693 -0.9670  3.7484 -0.5595
  589MOL0     H79475   3.288   2.480   6.758 -1.0623 -1.6652  0.1105
  589MOL0     H79476   3.432   2.663   6.760 -3.0780 -2.4430 -1.1296
  589MOL0     H79477   3.825   2.849   7.026 -1.6827 -1.2445 -0.3716
  589MOL0     H79478   3.966   3.036   7.048  0.1100  1.7751 -1.1765
  589MOL0     H79479   3.997   3.299   7.011  1.7422 -0.0277  1.7518
  589MOL0     H79480   4.143   3.196   7.004  1.6763  1.1119 -0.8251
  589MOL0     H79481   4.200   3.424   7.042 -2.5058  0.7392  1.2287
  589MOL0     H79482   4.237   3.372   6.864  0.5483  1.8233  1.1580
  589MOL0     H79483   4.002   3.472   6.820 -0.3589 -0.4792  0.4837
  589MOL0     H79484   4.017   3.539   6.977 -2.3495  1.3956 -1.1548
  589MOL0     H79485   4.237   3.600   6.772  0.2729  0.5591 -0.8036
  589MOL0     H79486   4.189   3.682   6.937  0.2964  0.1980  0.8637
  589MOL0     H79487   4.142   3.815   6.740 -1.8284  1.2648 -0.9606
  589MOL0     H79488   4.011   3.783   6.843 -0.5586 -4.0842  3.6455
  589MOL0     H79489   4.076   3.611   6.597  0.1854 -1.1015  0.6264
  589MOL0     H79490   3.923   3.627   6.685 -0.3825 -0.7421 -2.6231
  589MOL0     H79491   4.067   3.852   6.526  2.0049 -3.4238  1.1616
  589MOL0     H79492   3.896   3.856   6.598 -1.2246  1.0020 -1.9940
  589MOL0     H79493   3.916   3.852   6.367 -2.4587 -0.4157  1.2653
  589MOL0     H79494   3.999   3.697   6.363  1.9214  0.7073 -0.2638
  589MOL0     H79495   3.894   3.129   6.638  0.0798 -0.1471  0.7767
  589MOL0     H79496   3.726   2.926   6.629 -1.8723 -0.9657  2.8778
  589MOL0     H79497   3.748   2.395   6.910 -1.7658 -1.8991  1.1137
  589MOL0     H79498   3.594   2.225   6.920  1.4936  0.9459 -1.6309
  589MOL0     H79499   2.929   1.722   7.197  1.5164  0.7427  2.0857
  589MOL0     H79500   3.159   1.786   7.212  2.6253 -3.8471  0.2311
  589MOL0     H79501   3.511   1.826   6.841 -0.1414 -1.6654 -0.8956
  589MOL0     H79502   3.728   1.789   6.746  0.9488  1.2449  0.0605
  589MOL0     H79503   3.913   1.819   6.739 -2.7828 -2.7621 -1.0994
  589MOL0     H79504   4.022   1.685   6.704 -1.3994 -2.4826  0.2091
  589MOL0     H79505   4.150   1.885   6.790 -0.5094  1.7177  0.6847
  589MOL0     H79506   4.155   1.752   6.925 -0.9419 -0.0150  1.7687
  589MOL0     H79507   4.098   1.962   7.035 -3.0969  1.0701  2.5244
  589MOL0     H79508   3.954   1.857   7.012 -0.3497  1.0386  0.1194
  589MOL0     H79509   4.022   2.083   6.823 -0.1362 -0.7229 -1.0714
  589MOL0     H79510   3.862   2.010   6.867 -0.4789 -0.8740  2.4461
  589MOL0     H79511   3.873   2.325   7.123  1.6868 -0.1760  1.2346
  589MOL0     H79512   3.835   1.574   7.103  0.5526 -0.7831  0.2653
  589MOL0     H79513   3.520   1.533   7.213  0.6155 -1.9274  1.2502
  589MOL0     H79514   3.689   1.530   7.269 -0.2044  2.2460 -0.1355
  589MOL0     H79515   3.578   1.659   7.328 -1.0559  0.1517  1.1069
  590MOL0     O79516   2.256   7.710   4.481 -0.0432 -0.2868 -0.3011
  590MOL0     C79517   2.150   7.736   4.543  0.0386 -0.4525  0.5926
  590MOL0     O79518   2.121   7.710   4.664 -0.6118  0.0851  0.6208
  590MOL0     C79519   2.210   7.645   4.761 -0.2086 -0.1637  0.0963
  590MOL0     C79520   2.160   7.610   4.888 -0.5444 -0.6832 -0.4774
  590MOL0     C79521   2.230   7.527   4.985  0.4697  0.2416 -0.0048
  590MOL0     C79522   2.368   7.504   4.955  0.3897  0.1793 -0.2195
  590MOL0     O79523   2.456   7.436   5.036  0.7375 -0.4544 -0.1773
  590MOL0     C79524   2.415   7.405   5.167  0.0544  0.3070 -0.0719
  590MOL0     C79525   2.509   7.305   5.228 -0.1567  0.4922  0.2297
  590MOL0     C79526   2.523   7.311   5.381  0.2442  0.1756 -0.0196
  590MOL0     C79527   2.596   7.197   5.456  0.2578 -0.2102  0.1453
  590MOL0     C79528   2.745   7.180   5.404 -0.3091  0.5975 -0.0587
  590MOL0     C79529   2.764   7.094   5.281 -0.0726 -0.0077  0.3989
  590MOL0     C79530   2.910   7.051   5.275 -0.0614 -0.6727  0.1190
  590MOL0     C79531   2.945   6.936   5.367 -0.0889 -0.7396 -0.3827
  590MOL0     N79532   2.919   6.808   5.321 -0.7269 -0.0879  0.6207
  590MOL0     C79533   2.907   6.762   5.183  0.9055 -0.9261  1.1210
  590MOL0     C79534   2.870   6.636   5.197 -1.2788  0.4580 -0.5957
  590MOL0     C79535   2.825   6.542   5.080  0.4612 -0.7153 -0.4934
  590MOL0     C79536   2.684   6.581   5.011  0.2419 -0.1751  0.2322
  590MOL0     C79537   2.586   6.595   5.126 -0.7486  0.5649  0.3503
  590MOL0     C79538   2.437   6.591   5.073  0.0044 -0.6399 -0.2857
  590MOL0     O79539   2.413   6.445   5.064 -0.4113  0.1884 -1.2958
  590MOL0     C79540   2.351   6.373   5.165 -0.4581 -0.4305 -0.1492
  590MOL0     C79541   2.330   6.429   5.303 -0.1990 -0.0565  1.4560
  590MOL0     C79542   2.284   6.339   5.408 -0.6151  1.0397 -0.4965
  590MOL0     C79543   2.251   6.209   5.372 -0.6291 -0.3691  1.7274
  590MOL0     C79544   2.202   6.111   5.477  0.3308  0.2913  0.7864
  590MOL0     O79545   2.123   6.154   5.587 -0.0614 -0.0576 -0.2681
  590MOL0     C79546   2.073   6.080   5.695  0.7398 -0.1063  0.7212
  590MOL0     C79547   2.033   6.150   5.814 -0.4078  0.2370 -0.1199
  590MOL0     C79548   1.982   6.075   5.921  0.5413  0.0707 -0.2572
  590MOL0     C79549   1.952   5.933   5.918  0.5335  0.2139  0.2375
  590MOL0     O79550   1.907   5.860   6.025  0.5037  0.2221 -0.6642
  590MOL0     C79551   1.896   5.917   6.158  0.4966 -0.1485 -0.5976
  590MOL0     C79552   1.898   5.800   6.257 -0.2964 -0.6631 -0.3794
  590MOL0     C79553   1.784   5.701   6.215 -0.2847  0.4623 -0.4046
  590MOL0     C79554   1.776   5.598   6.316  0.0416 -0.0296  0.0640
  590MOL0     C79555   1.639   5.530   6.326 -0.0822 -0.4258  0.0426
  590MOL0     C79556   1.617   5.425   6.431 -0.3965 -0.6913  0.0977
  590MOL0     C79557   1.599   5.479   6.568 -0.6905  0.7745  0.1547
  590MOL0     C79558   1.459   5.514   6.601  0.2877  0.9122  0.8914
  590MOL0    Cl79559   1.351   5.374   6.625 -0.6312 -0.1678 -0.1691
  590MOL0     C79560   1.984   5.865   5.798 -1.0197  0.2262  0.7000
  590MOL0     C79561   2.037   5.941   5.693 -1.2690 -0.0710 -0.0093
  590MOL0     O79562   2.231   5.994   5.449 -0.4546 -0.2275 -0.3961
  590MOL0     C79563   2.256   6.156   5.240  1.4730  0.3028  0.4844
  590MOL0     C79564   2.316   6.240   5.137  0.0886  0.7955 -0.5928
  590MOL0     N79565   2.856   6.606   5.332 -0.1428 -0.1806  0.4290
  590MOL0     N79566   2.883   6.706   5.403 -0.9172 -0.2436 -0.1643
  590MOL0     C79567   2.422   7.532   4.831 -0.4938 -0.1311  0.6308
  590MOL0     C79568   2.332   7.581   4.733  0.1442  0.1165  0.1756
  590MOL0     C79569   2.056   7.824   4.463 -0.1641 -0.1418  0.4076
  590MOL0     C79570   2.060   7.807   4.327 -0.0777  0.2667  0.3502
  590MOL0     C79571   1.984   7.887   4.238 -1.2386  0.0746 -0.1187
  590MOL0     C79572   1.904   7.986   4.288  0.1758 -0.1445 -0.6004
  590MOL0     O79573   1.853   8.086   4.202  0.3273  0.6530 -0.4276
  590MOL0     C79574   1.811   8.217   4.249  0.7449 -0.4423  0.4874
  590MOL0     C79575   1.671   8.219   4.305 -0.1830 -0.3892  0.6455
  590MOL0     C79576   1.572   8.170   4.189 -0.1119  0.1776 -1.2001
  590MOL0     C79577   1.581   8.219   4.037  0.4886 -0.6206 -0.5082
  590MOL0     C79578   1.443   8.254   4.010 -0.6174 -1.0285  1.0585
  590MOL0     C79579   1.325   8.288   3.992  0.3301 -0.0999  0.3366
  590MOL0     C79580   1.899   8.006   4.428  0.2276  0.0395  0.0271
  590MOL0     C79581   1.968   7.923   4.511  0.8877  0.2825  0.7578
  590MOL0     C79582   1.954   7.954   4.658 -0.3045  0.4157 -0.8796
  590MOL0     H79583   2.057   7.630   4.917 -0.3975 -1.9534  1.0384
  590MOL0     H79584   2.198   7.490   5.082  2.0169 -3.3497 -0.7133
  590MOL0     H79585   2.421   7.500   5.221  1.9317  1.2448 -1.8058
  590MOL0     H79586   2.316   7.358   5.175 -0.4341  1.3983  0.5548
  590MOL0     H79587   2.606   7.336   5.188  0.0035 -2.6157 -2.1194
  590MOL0     H79588   2.482   7.209   5.183 -0.4905  1.3218 -1.4031
  590MOL0     H79589   2.428   7.324   5.432 -1.1488 -1.9011 -1.8799
  590MOL0     H79590   2.574   7.407   5.386 -1.9349  1.4768 -1.2281
  590MOL0     H79591   2.591   7.205   5.565 -1.8647 -2.7539  0.3137
  590MOL0     H79592   2.535   7.108   5.443  0.0186  0.1669 -1.6535
  590MOL0     H79593   2.788   7.281   5.397 -2.4261  1.6825  1.4019
  590MOL0     H79594   2.794   7.132   5.489  4.0208  3.4215 -0.6736
  590MOL0     H79595   2.707   7.001   5.275  1.9235 -1.2346 -0.9288
  590MOL0     H79596   2.743   7.157   5.195  1.3386 -2.9883 -2.3381
  590MOL0     H79597   2.966   7.142   5.299  0.3429 -0.6284 -0.9427
  590MOL0     H79598   2.917   7.023   5.169 -2.7314  1.3431 -0.7234
  590MOL0     H79599   3.052   6.940   5.390 -0.5331  2.7241  1.9121
  590MOL0     H79600   2.896   6.948   5.464 -0.0581  0.1427 -0.4713
  590MOL0     H79601   2.916   6.814   5.088 -1.2172 -2.5106 -0.0457
  590MOL0     H79602   2.896   6.541   4.997 -0.5895  2.2597 -1.5647
  590MOL0     H79603   2.825   6.443   5.127 -0.4666  0.7394  2.8663
  590MOL0     H79604   2.689   6.671   4.949  1.8114 -0.2082  0.2624
  590MOL0     H79605   2.669   6.488   4.955  1.5441 -0.5069  0.3915
  590MOL0     H79606   2.597   6.685   5.187  0.9986 -0.2957  1.3594
  590MOL0     H79607   2.591   6.510   5.195  0.9053  0.5347  0.2334
  590MOL0     H79608   2.418   6.644   4.979 -2.1039 -1.9445 -0.6475
  590MOL0     H79609   2.366   6.636   5.143  0.8837 -0.7677  0.7164
  590MOL0     H79610   2.353   6.533   5.325  0.8189 -0.4848  2.5138
  590MOL0     H79611   2.282   6.370   5.512 -1.0531  4.8476 -1.4640
  590MOL0     H79612   2.047   6.253   5.847  2.8247 -0.6808  1.9675
  590MOL0     H79613   1.955   6.127   6.012  2.3845 -0.7659  0.8380
  590MOL0     H79614   1.987   5.970   6.191  1.4398 -3.9154  4.1025
  590MOL0     H79615   1.806   5.978   6.165 -0.7102 -1.7684 -1.5177
  590MOL0     H79616   1.989   5.742   6.240 -0.4968 -1.1743  0.2651
  590MOL0     H79617   1.893   5.837   6.360  1.0180  0.9174 -0.8512
  590MOL0     H79618   1.683   5.741   6.224 -0.0879  0.6063  1.5560
  590MOL0     H79619   1.804   5.660   6.116  2.6365 -1.7518  0.9516
  590MOL0     H79620   1.789   5.643   6.414 -1.4197  0.5388  0.0208
  590MOL0     H79621   1.863   5.534   6.297 -0.1753  0.2313 -2.1877
  590MOL0     H79622   1.640   5.469   6.236  1.7600  0.2336 -0.4303
  590MOL0     H79623   1.558   5.603   6.321 -0.4557 -0.9262 -3.6445
  590MOL0     H79624   1.529   5.365   6.404 -0.8624  0.0028  0.0504
  590MOL0     H79625   1.710   5.368   6.428 -0.3514 -0.6706  0.8508
  590MOL0     H79626   1.665   5.563   6.588  0.8616 -0.3330 -0.1503
  590MOL0     H79627   1.630   5.403   6.641 -1.1523  0.8423  0.4302
  590MOL0     H79628   1.456   5.575   6.691  0.7869 -0.2833  1.7440
  590MOL0     H79629   1.418   5.574   6.519 -0.5509  1.7543  1.8910
  590MOL0     H79630   1.969   5.758   5.787  5.2169 -1.1175  1.3958
  590MOL0     H79631   2.058   5.880   5.606  0.4426 -3.0715  2.3420
  590MOL0     H79632   2.217   6.058   5.214 -0.6874  0.8037  1.6353
  590MOL0     H79633   2.336   6.200   5.038 -1.7014  2.1386 -1.5479
  590MOL0     H79634   2.526   7.528   4.801 -0.6373  3.4914 -0.8830
  590MOL0     H79635   2.364   7.595   4.630 -1.2718  0.1529 -0.2713
  590MOL0     H79636   2.108   7.728   4.270 -2.5968 -0.9608 -0.2201
  590MOL0     H79637   1.996   7.895   4.131  0.1754  1.2595  0.0972
  590MOL0     H79638   1.824   8.300   4.179 -2.2039 -0.0434  0.2886
  590MOL0     H79639   1.884   8.241   4.326  0.3767  1.8644  0.1762
  590MOL0     H79640   1.638   8.320   4.331 -0.8893  0.0132 -1.5806
  590MOL0     H79641   1.651   8.157   4.393  0.1712 -1.2647  0.1233
  590MOL0     H79642   1.474   8.186   4.235  1.0640  1.8923  0.9086
  590MOL0     H79643   1.593   8.062   4.192  0.9021  0.2171  4.1560
  590MOL0     H79644   1.631   8.317   4.031  0.0854 -0.2801  1.3370
  590MOL0     H79645   1.611   8.138   3.970 -2.6115 -4.1006  1.9033
  590MOL0     H79646   1.219   8.302   3.983  0.4401  0.7079  0.1981
  590MOL0     H79647   1.846   8.081   4.486 -2.4549 -1.7748  0.0814
  590MOL0     H79648   2.049   7.983   4.703 -0.6597  0.0840  0.1293
  590MOL0     H79649   1.899   8.040   4.696 -0.6367 -0.6959  1.3665
  590MOL0     H79650   1.935   7.865   4.720  0.8205 -0.1468 -1.3112
  591MOL0     O79651   4.008   6.350   9.322  0.5116  0.2439  0.2412
  591MOL0     C79652   3.981   6.457   9.383  0.0905  0.4172  0.2432
  591MOL0     O79653   3.959   6.574   9.316 -0.0906 -0.1419 -0.0917
  591MOL0     C79654   3.983   6.569   9.176  0.4249 -0.7327 -0.6568
  591MOL0     C79655   4.100   6.626   9.125  0.0262 -0.1626  0.2652
  591MOL0     C79656   4.145   6.623   8.993 -0.5125  0.4013  1.5966
  591MOL0     C79657   4.057   6.555   8.909 -0.4278 -0.5847  0.5429
  591MOL0     O79658   4.082   6.535   8.774 -0.2715  0.6189  0.4101
  591MOL0     C79659   4.182   6.600   8.700 -0.9035  0.7146  0.2055
  591MOL0     C79660   4.155   6.615   8.550  0.5549  0.3752 -0.4365
  591MOL0     C79661   4.017   6.679   8.526 -0.3112  0.3235 -0.0878
  591MOL0     C79662   4.013   6.725   8.374  0.1611 -0.2395 -0.1288
  591MOL0     C79663   3.891   6.721   8.287  0.5128 -0.2623  0.1758
  591MOL0     C79664   3.902   6.779   8.148  0.2108  0.6150 -1.2265
  591MOL0     C79665   3.787   6.758   8.060 -0.4301 -0.1007 -0.4658
  591MOL0     C79666   3.757   6.621   8.012  0.8734 -0.5228 -0.8011
  591MOL0     N79667   3.810   6.600   7.876 -0.0302  0.5964  0.7834
  591MOL0     C79668   3.728   6.604   7.760  0.0593  0.3966 -1.3538
  591MOL0     C79669   3.799   6.620   7.651  0.4044 -0.6533 -0.2161
  591MOL0     C79670   3.751   6.607   7.511  0.4810  1.2272  0.0288
  591MOL0     C79671   3.736   6.468   7.465  0.9719  0.1884  0.2300
  591MOL0     C79672   3.707   6.464   7.316  0.5879  1.3820 -0.9760
  591MOL0     C79673   3.700   6.321   7.271  0.3674  0.4321  0.0641
  591MOL0     O79674   3.642   6.330   7.147  0.3533 -0.2773  0.5494
  591MOL0     C79675   3.708   6.290   7.028 -0.7713 -0.2574 -0.8355
  591MOL0     C79676   3.640   6.320   6.909 -0.8028  0.1248 -0.1081
  591MOL0     C79677   3.700   6.272   6.784 -0.1772 -0.0484  0.5008
  591MOL0     C79678   3.828   6.218   6.792  0.5350  0.4746  0.9354
  591MOL0     C79679   3.890   6.171   6.661  0.1167  0.1913 -0.1407
  591MOL0     O79680   3.801   6.175   6.562  0.5018  0.2084 -0.0095
  591MOL0     C79681   3.829   6.123   6.436 -0.1302  0.2473 -0.6253
  591MOL0     C79682   3.780   6.190   6.328  0.5096 -0.3565  0.7747
  591MOL0     C79683   3.803   6.139   6.194 -0.1308 -1.1428  0.1254
  591MOL0     C79684   3.857   6.016   6.171  0.0976  0.7721  0.1882
  591MOL0     O79685   3.876   5.959   6.045 -0.0408 -0.1558  0.0774
  591MOL0     C79686   3.789   5.849   6.023 -0.2781 -0.0268 -0.9638
  591MOL0     C79687   3.881   5.733   5.965  1.5694  0.2164  0.0945
  591MOL0     C79688   3.796   5.608   5.915 -0.7354 -0.1527 -0.2063
  591MOL0     C79689   3.730   5.614   5.783 -0.7627  0.4556 -0.1295
  591MOL0     C79690   3.701   5.479   5.712  0.0329 -0.1002  0.5570
  591MOL0     C79691   3.644   5.495   5.564 -0.2779  0.2860 -0.4250
  591MOL0     C79692   3.597   5.361   5.498 -0.2420 -0.7898 -0.9921
  591MOL0     C79693   3.476   5.317   5.584 -0.0919  0.4071  0.1285
  591MOL0    Cl79694   3.433   5.153   5.525 -0.2746  0.1310 -0.5527
  591MOL0     C79695   3.884   5.941   6.282  0.2621 -0.8887 -0.7922
  591MOL0     C79696   3.865   5.987   6.414  0.5926  0.1432 -0.3322
  591MOL0     O79697   4.004   6.123   6.651 -0.7678 -0.2022 -1.0207
  591MOL0     C79698   3.891   6.197   6.908 -0.6012  0.2337 -0.1276
  591MOL0     C79699   3.830   6.235   7.025  0.3249  0.1702 -0.2590
  591MOL0     N79700   3.930   6.623   7.695  0.4997  0.7730 -0.2413
  591MOL0     N79701   3.937   6.624   7.830 -0.4286  0.3295 -0.4952
  591MOL0     C79702   3.955   6.477   8.962 -0.7304  0.2723 -0.3797
  591MOL0     C79703   3.914   6.495   9.086 -0.4606 -0.0812 -0.5366
  591MOL0     C79704   3.977   6.456   9.534 -0.6813  0.4815  0.5335
  591MOL0     C79705   4.014   6.333   9.597 -0.1485  0.2633  0.3294
  591MOL0     C79706   4.033   6.325   9.735 -0.6946  0.0294 -0.2433
  591MOL0     C79707   4.019   6.430   9.818 -0.3122 -0.6285 -0.7149
  591MOL0     O79708   4.026   6.419   9.956 -0.2918 -0.1341 -1.1269
  591MOL0     C79709   3.900   6.435  10.026  0.7293 -0.2159 -0.2225
  591MOL0     C79710   3.783   6.343   9.986  0.0889  0.3380 -1.2567
  591MOL0     C79711   3.657   6.364  10.079  0.3129  1.3732  0.1132
  591MOL0     C79712   3.531   6.328  10.004 -0.2268  0.0463 -1.4318
  591MOL0     C79713   3.493   6.428   9.908  0.0970  0.2366 -0.3633
  591MOL0     C79714   3.457   6.499   9.813  0.0184  1.2585 -0.1401
  591MOL0     C79715   3.980   6.549   9.759 -0.4715 -0.7339  0.1335
  591MOL0     C79716   3.962   6.568   9.620  1.0148 -0.4466  0.6687
  591MOL0     C79717   3.926   6.703   9.569 -0.3118  0.2739 -0.5303
  591MOL0     H79718   4.158   6.670   9.206 -2.0947  0.1545  1.7011
  591MOL0     H79719   4.237   6.672   8.962 -1.3947  1.0525 -0.1102
  591MOL0     H79720   4.205   6.703   8.731 -0.9966  1.6672 -2.5868
  591MOL0     H79721   4.279   6.549   8.702 -1.7258 -0.8958  0.3409
  591MOL0     H79722   4.151   6.513   8.512 -0.0739  0.1835  0.1326
  591MOL0     H79723   4.238   6.682   8.524 -0.2427  3.7341  4.3079
  591MOL0     H79724   4.000   6.764   8.593  3.2614  0.4466  0.9159
  591MOL0     H79725   3.933   6.614   8.551 -1.7625  1.7169 -1.1459
  591MOL0     H79726   4.042   6.830   8.370  0.9747 -0.4091  0.9267
  591MOL0     H79727   4.081   6.659   8.318 -0.3567  0.5654 -1.7833
  591MOL0     H79728   3.828   6.632   8.281 -2.7233  1.8483  0.6111
  591MOL0     H79729   3.821   6.794   8.329 -1.2144 -0.7009 -1.7907
  591MOL0     H79730   3.913   6.888   8.155  1.6975  0.4292 -0.2379
  591MOL0     H79731   3.992   6.740   8.098  3.3080  1.4381  3.1300
  591MOL0     H79732   3.794   6.830   7.978 -1.3445  0.3884 -0.1261
  591MOL0     H79733   3.703   6.792   8.121 -0.9182 -1.5283 -0.3057
  591MOL0     H79734   3.803   6.552   8.083 -1.0127  0.2147  1.2536
  591MOL0     H79735   3.650   6.599   8.015 -0.0702  3.1650 -1.4192
  591MOL0     H79736   3.622   6.581   7.765  0.2336 -0.4536 -1.3406
  591MOL0     H79737   3.650   6.647   7.495  0.2475  0.4068 -0.6781
  591MOL0     H79738   3.821   6.665   7.451 -0.3207  0.9257 -1.2515
  591MOL0     H79739   3.825   6.410   7.493  0.6474  0.7790  2.7343
  591MOL0     H79740   3.647   6.419   7.507  0.3125  0.3313 -0.9452
  591MOL0     H79741   3.774   6.529   7.259  1.5638  1.1304 -0.1493
  591MOL0     H79742   3.605   6.499   7.303 -1.3019 -3.9361 -3.0033
  591MOL0     H79743   3.638   6.257   7.334 -0.0430  1.3491  0.6098
  591MOL0     H79744   3.800   6.277   7.280 -0.0616 -0.6227 -0.2155
  591MOL0     H79745   3.540   6.360   6.920 -0.2678  1.1082  1.5141
  591MOL0     H79746   3.646   6.286   6.691  1.6478 -1.6447 -0.8841
  591MOL0     H79747   3.733   6.286   6.345  0.4391 -0.4904  1.3541
  591MOL0     H79748   3.797   6.208   6.110  1.6082  3.2371  3.2666
  591MOL0     H79749   3.727   5.817   6.107  1.3337 -0.7224 -0.0061
  591MOL0     H79750   3.720   5.883   5.945  1.0715  2.2376 -1.2445
  591MOL0     H79751   3.934   5.778   5.881 -0.4640  3.5100  0.3902
  591MOL0     H79752   3.959   5.702   6.035  1.9730 -0.3437 -0.5911
  591MOL0     H79753   3.870   5.527   5.911 -1.7686 -1.0704 -1.8919
  591MOL0     H79754   3.720   5.593   5.993 -1.4477  1.3209 -0.5942
  591MOL0     H79755   3.811   5.657   5.724  1.3645 -2.0181  0.8295
  591MOL0     H79756   3.646   5.685   5.784 -0.1449  1.3007  2.6921
  591MOL0     H79757   3.634   5.420   5.775  1.1681 -2.7608 -0.6134
  591MOL0     H79758   3.797   5.428   5.705 -1.2538 -2.5087 -0.9525
  591MOL0     H79759   3.558   5.562   5.575 -1.5509 -1.2176 -0.8327
  591MOL0     H79760   3.730   5.540   5.513 -0.5596  1.7349  0.3116
  591MOL0     H79761   3.677   5.287   5.503  0.8720  0.4229  2.8446
  591MOL0     H79762   3.551   5.385   5.402 -0.3661  2.0868 -0.3110
  591MOL0     H79763   3.493   5.305   5.692 -0.7922 -1.0382  0.1016
  591MOL0     H79764   3.388   5.381   5.573 -1.3158 -1.3003 -0.3565
  591MOL0     H79765   3.915   5.837   6.276  2.4620 -0.7381  3.7161
  591MOL0     H79766   3.907   5.936   6.501 -2.3837 -2.1690 -0.1098
  591MOL0     H79767   3.995   6.165   6.900  0.0115  2.1580 -0.2072
  591MOL0     H79768   3.871   6.189   7.114 -2.8343  1.4235  2.0530
  591MOL0     H79769   3.920   6.404   8.890  1.2689  1.0270 -2.2315
  591MOL0     H79770   3.841   6.425   9.126  1.0783 -0.8351  1.0844
  591MOL0     H79771   4.010   6.239   9.542 -4.1361  2.1429 -3.1324
  591MOL0     H79772   4.056   6.233   9.788  3.4684  1.1840  0.2927
  591MOL0     H79773   3.870   6.540  10.024 -0.0526 -0.3883  1.4749
  591MOL0     H79774   3.937   6.408  10.125 -0.3014 -1.2973 -0.1097
  591MOL0     H79775   3.829   6.244   9.988 -0.7317 -0.1864  3.4573
  591MOL0     H79776   3.745   6.355   9.884 -0.8540 -0.8406 -1.0739
  591MOL0     H79777   3.644   6.469  10.106  0.5133  2.2460 -2.8618
  591MOL0     H79778   3.669   6.293  10.161  0.7009 -1.7193 -2.4159
  591MOL0     H79779   3.546   6.228   9.962 -0.1360  0.0418 -1.3883
  591MOL0     H79780   3.450   6.318  10.076  0.5081  1.8260 -0.2797
  591MOL0     H79781   3.432   6.565   9.732  1.0497 -1.7684 -3.1760
  591MOL0     H79782   3.983   6.631   9.830  2.7553 -1.1356  0.5912
  591MOL0     H79783   4.013   6.756   9.530 -0.0044  0.3134  0.1941
  591MOL0     H79784   3.854   6.698   9.486  0.7488 -1.5003 -1.3816
  591MOL0     H79785   3.889   6.762   9.654 -1.5891 -0.7683 -0.3289
  592MOL0     O79786  11.170   4.272   7.001 -0.2200 -0.2368 -0.2043
  592MOL0     C79787  11.256   4.208   7.067  0.9929 -0.9500 -0.5642
  592MOL0     O79788  11.375   4.173   7.015  0.4328 -0.2043  0.1685
  592MOL0     C79789  11.403   4.228   6.890 -0.0392 -0.9857 -0.3660
  592MOL0     C79790  11.397   4.369   6.864  0.2123 -0.7574  0.7327
  592MOL0     C79791  11.431   4.422   6.734  0.1850  0.4424  0.7133
  592MOL0     C79792  11.464   4.336   6.629 -0.1973  0.7874  0.2045
  592MOL0     O79793  11.503   4.377   6.495 -0.2225 -0.5336 -0.6981
  592MOL0     C79794  11.399   4.460   6.442  0.2386 -0.1760  0.6233
  592MOL0     C79795  11.426   4.512   6.291 -0.2366 -0.0895 -0.9491
  592MOL0     C79796  11.297   4.536   6.211 -0.0595 -0.6372  0.3626
  592MOL0     C79797  11.248   4.422   6.119 -0.4256  0.9418  0.7532
  592MOL0     C79798  11.101   4.428   6.081  0.8318 -0.4751 -1.2198
  592MOL0     C79799  11.074   4.505   5.952 -0.5767  0.3111  0.0162
  592MOL0     C79800  10.934   4.482   5.889 -0.0742 -0.1813  0.2073
  592MOL0     C79801  10.819   4.568   5.947  0.6289 -0.0014 -0.2945
  592MOL0     N79802  10.786   4.558   6.090 -0.0506 -0.4680 -0.3598
  592MOL0     C79803  10.787   4.445   6.171  0.3144 -0.2389 -0.3512
  592MOL0     C79804  10.777   4.484   6.301 -0.3350  0.7300  0.3305
  592MOL0     C79805  10.755   4.397   6.428 -0.0841 -0.0423 -0.2086
  592MOL0     C79806  10.869   4.306   6.465 -0.0358  0.8317 -0.0977
  592MOL0     C79807  10.992   4.385   6.523  1.2684  0.3851  1.1686
  592MOL0     C79808  10.952   4.458   6.654  0.3927 -1.0647  0.0717
  592MOL0     O79809  10.948   4.608   6.629 -0.1146 -0.1295  0.3668
  592MOL0     C79810  10.855   4.670   6.710  0.2944  0.0080  0.0056
  592MOL0     C79811  10.846   4.655   6.851  0.9644 -0.1544 -1.3234
  592MOL0     C79812  10.738   4.717   6.921  0.6379  0.7901  0.1418
  592MOL0     C79813  10.641   4.804   6.860 -1.0792  0.0593  0.9174
  592MOL0     C79814  10.527   4.858   6.944 -0.6876  0.1877  1.3402
  592MOL0     O79815  10.417   4.900   6.883 -0.1342  0.0838  0.0583
  592MOL0     C79816  10.319   4.931   6.970  0.7693  0.2467 -0.3971
  592MOL0     C79817  10.329   5.041   7.052  0.2632 -1.2461 -0.1773
  592MOL0     C79818  10.206   5.103   7.106 -0.3422  0.8442  0.3611
  592MOL0     C79819  10.084   5.038   7.102  0.3855 -0.0149  0.0028
  592MOL0     O79820   9.967   5.092   7.147 -0.2629  0.3585 -0.8012
  592MOL0     C79821   9.832   5.037   7.160  0.5111  0.3260 -0.5663
  592MOL0     C79822   9.738   5.147   7.204 -0.7121  0.3595  0.1135
  592MOL0     C79823   9.713   5.268   7.108 -0.0493  0.9840  0.5207
  592MOL0     C79824   9.659   5.388   7.184 -0.0558  0.3156 -0.3413
  592MOL0     C79825   9.643   5.502   7.086  0.7143 -0.6189  0.3335
  592MOL0     C79826   9.568   5.611   7.151  1.0305 -0.4179 -0.6372
  592MOL0     C79827   9.541   5.733   7.069 -0.7178 -0.2621 -0.6040
  592MOL0     C79828   9.403   5.733   7.005  0.4831  0.4303 -0.4107
  592MOL0    Cl79829   9.377   5.906   6.942 -0.1792 -0.4489  0.0441
  592MOL0     C79830  10.081   4.922   7.021 -0.0021  0.3160  0.2053
  592MOL0     C79831  10.198   4.862   6.967  0.6321 -0.5289  0.6483
  592MOL0     O79832  10.539   4.839   7.070 -0.6174  0.3445 -0.3171
  592MOL0     C79833  10.647   4.822   6.722 -1.2127  0.2769 -0.2266
  592MOL0     C79834  10.757   4.757   6.651 -0.9149  0.6327  0.7832
  592MOL0     N79835  10.775   4.623   6.302  0.0952 -0.2264 -0.9921
  592MOL0     N79836  10.786   4.666   6.177  0.4009 -0.4742  0.6412
  592MOL0     C79837  11.491   4.200   6.659 -0.3223  0.0994 -0.1753
  592MOL0     C79838  11.457   4.153   6.790  0.3727 -0.3389  0.9519
  592MOL0     C79839  11.204   4.141   7.200 -0.6380  0.6872  0.4786
  592MOL0     C79840  11.069   4.136   7.227 -0.3083  0.1241 -0.5118
  592MOL0     C79841  11.019   4.069   7.337  0.3805  0.5982 -0.3351
  592MOL0     C79842  11.102   3.993   7.418  0.1542 -0.4776 -0.0759
  592MOL0     O79843  11.047   3.932   7.538 -0.0218 -0.2530 -0.0697
  592MOL0     C79844  11.129   3.849   7.621  0.0195  0.3397 -0.1943
  592MOL0     C79845  11.040   3.766   7.715  0.5559 -0.0472 -0.5083
  592MOL0     C79846  11.121   3.703   7.824 -0.2821 -0.5884  0.4455
  592MOL0     C79847  11.044   3.585   7.881  0.3374 -0.0501  0.5176
  592MOL0     C79848  11.075   3.557   8.025  0.0276 -0.2190 -0.0278
  592MOL0     C79849  11.108   3.535   8.136 -0.4168 -0.0339 -1.1512
  592MOL0     C79850  11.243   3.999   7.391  0.5078 -0.5829 -0.9784
  592MOL0     C79851  11.293   4.067   7.281  0.3388  0.0172 -0.3822
  592MOL0     C79852  11.442   4.070   7.275 -0.7380 -0.7243  0.1714
  592MOL0     H79853  11.372   4.439   6.943  5.0122  2.3291 -0.0556
  592MOL0     H79854  11.431   4.526   6.705  1.4167 -0.4958 -3.3417
  592MOL0     H79855  11.303   4.407   6.447  0.0350  0.1644  0.3964
  592MOL0     H79856  11.382   4.544   6.509 -1.4422 -0.6147  0.7865
  592MOL0     H79857  11.491   4.439   6.241  0.3666 -3.3056  3.8692
  592MOL0     H79858  11.490   4.601   6.289 -1.0113  0.4923 -0.5487
  592MOL0     H79859  11.313   4.624   6.147  1.1810 -0.7851  0.4431
  592MOL0     H79860  11.215   4.560   6.279  1.5370 -1.0334  2.5540
  592MOL0     H79861  11.321   4.412   6.039  1.7073 -0.4572  2.7479
  592MOL0     H79862  11.257   4.329   6.176  0.7002  0.4969 -0.1271
  592MOL0     H79863  11.069   4.324   6.072  0.7441 -0.5402 -0.2565
  592MOL0     H79864  11.056   4.470   6.172  2.6284 -1.6972  0.3252
  592MOL0     H79865  11.095   4.610   5.970 -1.0930  0.5514 -0.7077
  592MOL0     H79866  11.156   4.484   5.882 -0.3599  1.1995 -0.0000
  592MOL0     H79867  10.909   4.376   5.880  1.1935 -0.3519 -2.1800
  592MOL0     H79868  10.932   4.517   5.785 -1.8977  0.9421  0.5770
  592MOL0     H79869  10.841   4.674   5.932 -2.5187  0.7281 -0.3088
  592MOL0     H79870  10.728   4.557   5.887 -0.1318  3.2728  0.1059
  592MOL0     H79871  10.785   4.342   6.136  2.3366 -1.1483  1.9030
  592MOL0     H79872  10.728   4.467   6.508  0.6033  0.6344 -0.5519
  592MOL0     H79873  10.671   4.328   6.417 -2.4901  2.6274  0.0543
  592MOL0     H79874  10.833   4.216   6.516  1.0175 -0.5585 -1.7225
  592MOL0     H79875  10.898   4.259   6.371  0.8023 -1.0827  1.0404
  592MOL0     H79876  11.033   4.464   6.460  1.2941 -1.3248 -1.0925
  592MOL0     H79877  11.079   4.323   6.549  2.9647  1.2735 -1.8936
  592MOL0     H79878  11.019   4.426   6.734 -1.3346 -2.4623  1.0333
  592MOL0     H79879  10.856   4.415   6.684  0.0264 -1.9987 -2.2717
  592MOL0     H79880  10.914   4.594   6.908 -1.3111  0.9714  2.9981
  592MOL0     H79881  10.742   4.686   7.025  1.1902  3.3852  0.9587
  592MOL0     H79882  10.424   5.090   7.073 -0.3704  1.2088 -2.4769
  592MOL0     H79883  10.218   5.197   7.159  1.7599  1.7577 -1.5550
  592MOL0     H79884   9.814   5.008   7.056  0.9495  0.0617 -0.5720
  592MOL0     H79885   9.845   4.952   7.226  0.2421 -1.3251 -2.5295
  592MOL0     H79886   9.639   5.106   7.224 -0.4968 -0.0055  0.4549
  592MOL0     H79887   9.782   5.181   7.299 -1.6802  2.5525 -0.1575
  592MOL0     H79888   9.814   5.292   7.074 -0.4974  1.4717 -0.4987
  592MOL0     H79889   9.644   5.244   7.027  3.3055 -1.2485 -1.9436
  592MOL0     H79890   9.720   5.410   7.273 -2.2983 -1.9290  1.9171
  592MOL0     H79891   9.565   5.358   7.230  0.5606 -0.0855  0.7130
  592MOL0     H79892   9.599   5.475   6.990 -2.4690  0.8682  1.2496
  592MOL0     H79893   9.742   5.536   7.053  0.0616  1.5086  0.3755
  592MOL0     H79894   9.484   5.577   7.213  0.8121  2.9402  1.1625
  592MOL0     H79895   9.625   5.650   7.236 -3.0947  4.7549  0.2976
  592MOL0     H79896   9.611   5.747   6.986  0.6777  0.3627  0.6205
  592MOL0     H79897   9.537   5.816   7.141  0.7602 -3.9435  4.2558
  592MOL0     H79898   9.413   5.667   6.918 -2.4706 -1.8174  0.7908
  592MOL0     H79899   9.315   5.703   7.062 -0.3771  1.4438 -1.1664
  592MOL0     H79900   9.987   4.868   7.014 -1.4769  2.9633 -3.0535
  592MOL0     H79901  10.186   4.771   6.908 -1.3822 -1.2333  2.0378
  592MOL0     H79902  10.583   4.886   6.663  0.2594 -1.2975 -3.8108
  592MOL0     H79903  10.759   4.773   6.544  1.5959  1.4011  0.8780
  592MOL0     H79904  11.550   4.136   6.593  2.0346 -0.9699  2.7239
  592MOL0     H79905  11.473   4.046   6.804  0.8438 -0.2177  1.3858
  592MOL0     H79906  11.004   4.203   7.172 -2.8268 -0.0970  1.9257
  592MOL0     H79907  10.912   4.070   7.349  0.2538 -2.5273 -0.4228
  592MOL0     H79908  11.211   3.907   7.664 -1.2638  0.2982  2.5306
  592MOL0     H79909  11.182   3.783   7.552  0.3541 -0.3912  0.7387
  592MOL0     H79910  10.981   3.690   7.662 -1.7152 -0.0373  1.8585
  592MOL0     H79911  10.959   3.829   7.751 -1.7743 -2.0815 -1.8269
  592MOL0     H79912  11.127   3.788   7.893 -3.4144  2.9098 -3.0726
  592MOL0     H79913  11.220   3.678   7.785 -1.2419 -0.3388 -2.4223
  592MOL0     H79914  10.939   3.615   7.882 -0.5540 -2.8233 -0.6269
  592MOL0     H79915  11.058   3.491   7.827 -0.4976 -0.8227  1.6139
  592MOL0     H79916  11.145   3.522   8.236 -1.0751  0.4592 -0.8406
  592MOL0     H79917  11.313   3.972   7.470 -1.8828 -3.2390  0.4197
  592MOL0     H79918  11.476   4.162   7.225  0.6438 -0.7533  1.0195
  592MOL0     H79919  11.481   4.044   7.374 -2.1879 -0.0996  0.9373
  592MOL0     H79920  11.468   3.991   7.204 -0.4409  0.3427 -0.9561
  593MOL0     O79921  10.285   7.976   4.145  0.0087 -0.6781 -0.2875
  593MOL0     C79922  10.391   8.036   4.162  0.8808  0.4006  0.3879
  593MOL0     O79923  10.443   8.116   4.068 -0.3346 -0.0276 -0.2409
  593MOL0     C79924  10.369   8.140   3.961  0.2211  0.5483  0.2131
  593MOL0     C79925  10.417   8.113   3.838 -0.1961  0.4317  0.2027
  593MOL0     C79926  10.341   8.151   3.724  1.1773 -0.0599 -0.6288
  593MOL0     C79927  10.232   8.233   3.737  0.9052  0.0178 -0.3444
  593MOL0     O79928  10.168   8.281   3.627  0.2555  0.7257  0.9770
  593MOL0     C79929  10.246   8.378   3.555  0.5187 -0.8076 -0.4597
  593MOL0     C79930  10.141   8.457   3.479 -0.7640  0.8114 -1.2060
  593MOL0     C79931  10.038   8.377   3.391 -0.3503 -0.0191  0.3220
  593MOL0     C79932  10.118   8.269   3.303  1.2426 -0.3373 -0.2847
  593MOL0     C79933  10.013   8.196   3.224  0.0097 -0.7814  0.5362
  593MOL0     C79934  10.061   8.049   3.230 -0.0872 -0.1600 -0.9418
  593MOL0     C79935   9.982   7.960   3.140  0.2942 -1.4894  0.1538
  593MOL0     C79936  10.032   7.812   3.149 -0.2685  1.0430 -0.1716
  593MOL0     N79937  10.162   7.787   3.083  0.2265 -0.5286 -0.8327
  593MOL0     C79938  10.286   7.830   3.130  1.2814  0.5199  0.2216
  593MOL0     C79939  10.373   7.784   3.030  0.5059 -0.0336  0.9047
  593MOL0     C79940  10.530   7.800   3.004 -0.1736  0.6824 -0.8429
  593MOL0     C79941  10.574   7.919   2.923 -1.0142 -0.0288  0.0708
  593MOL0     C79942  10.734   7.950   2.917  0.0403 -0.0437  0.5729
  593MOL0     C79943  10.788   7.998   3.045  0.0092 -0.2792  0.2504
  593MOL0     O79944  10.932   8.006   3.038  0.5676 -0.5403 -0.2489
  593MOL0     C79945  10.988   8.110   3.113  0.4925  0.0301  0.2296
  593MOL0     C79946  10.932   8.147   3.233  0.2104  0.4935  0.3224
  593MOL0     C79947  10.997   8.248   3.305  0.0195 -0.5628 -0.7861
  593MOL0     C79948  11.117   8.315   3.264  1.0583  0.2779 -0.7508
  593MOL0     C79949  11.179   8.424   3.345  0.4924 -0.4577  1.0488
  593MOL0     O79950  11.137   8.446   3.472 -0.2023 -1.0249  0.3734
  593MOL0     C79951  11.169   8.576   3.517 -0.5102  0.2281  0.2497
  593MOL0     C79952  11.289   8.589   3.589 -0.3518  0.5214 -0.1482
  593MOL0     C79953  11.327   8.719   3.653 -0.3391  0.2388 -1.0434
  593MOL0     C79954  11.251   8.835   3.611 -0.3612 -0.0163  0.5228
  593MOL0     O79955  11.283   8.966   3.647 -0.1913  0.3466  0.9347
  593MOL0     C79956  11.401   8.988   3.719 -0.6845 -0.3864 -0.2552
  593MOL0     C79957  11.527   9.005   3.629  0.6504 -0.1129 -0.1948
  593MOL0     C79958  11.502   9.060   3.488  0.1235 -0.7876 -0.8982
  593MOL0     C79959  11.625   9.093   3.410 -0.0215 -1.2993  0.2901
  593MOL0     C79960  11.600   9.154   3.257  0.3426  0.5711 -0.3503
  593MOL0     C79961  11.746   9.176   3.223  0.7806 -0.2444 -0.0433
  593MOL0     C79962  11.768   9.225   3.078  0.4697  0.5101  1.0803
  593MOL0     C79963  11.862   9.348   3.061 -0.1779 -0.8568 -0.1453
  593MOL0    Cl79964  12.000   9.337   3.170 -0.3497  0.0318 -0.3364
  593MOL0     C79965  11.135   8.816   3.536  0.5916  0.4841  1.4493
  593MOL0     C79966  11.089   8.686   3.494 -0.1062  0.4335  0.0610
  593MOL0     O79967  11.251   8.498   3.281  0.6323 -0.2456 -0.6322
  593MOL0     C79968  11.168   8.276   3.137 -1.0358  0.6058  0.0857
  593MOL0     C79969  11.103   8.180   3.060  0.5235  1.1948 -0.3267
  593MOL0     N79970  10.294   7.731   2.925  0.0904 -0.1564 -0.2720
  593MOL0     N79971  10.163   7.742   2.951 -0.1222 -0.2549  0.0186
  593MOL0     C79972  10.178   8.251   3.870  0.1784 -0.1862 -0.7816
  593MOL0     C79973  10.254   8.208   3.976 -0.8790 -0.4434 -0.2788
  593MOL0     C79974  10.458   8.035   4.297  0.4619  0.4310  0.1135
  593MOL0     C79975  10.416   7.928   4.382  0.5208 -0.3309 -0.5249
  593MOL0     C79976  10.487   7.901   4.508 -0.0935 -0.1676  0.8475
  593MOL0     C79977  10.593   7.970   4.544  0.6063 -0.7860  0.0962
  593MOL0     O79978  10.644   7.932   4.660  0.1158  0.2643 -0.3423
  593MOL0     C79979  10.746   8.006   4.729  0.0599 -0.5918 -0.2095
  593MOL0     C79980  10.688   8.140   4.787 -0.0738  0.3715 -0.8515
  593MOL0     C79981  10.596   8.108   4.910 -0.3502  0.0747  0.4944
  593MOL0     C79982  10.513   8.230   4.958  0.0921 -0.2260 -0.2138
  593MOL0     C79983  10.491   8.233   5.102  0.9935 -0.1644 -0.0947
  593MOL0     C79984  10.461   8.225   5.219  0.1455 -0.6810 -0.2185
  593MOL0     C79985  10.637   8.078   4.457  0.1626  0.9226 -0.1504
  593MOL0     C79986  10.569   8.108   4.347  0.4760  0.5195  0.4744
  593MOL0     C79987  10.629   8.224   4.253  0.1231  0.4956  1.1493
  593MOL0     H79988  10.510   8.056   3.833 -0.2968  0.1006  1.8386
  593MOL0     H79989  10.384   8.137   3.626  2.7088  2.1915 -0.3354
  593MOL0     H79990  10.293   8.455   3.617 -3.0165  1.6892 -0.5407
  593MOL0     H79991  10.326   8.342   3.489 -0.2660  1.3192 -2.7665
  593MOL0     H79992  10.183   8.536   3.416  0.0186  1.4083  0.0283
  593MOL0     H79993  10.081   8.516   3.549  0.7828 -0.0731  0.9725
  593MOL0     H79994   9.977   8.444   3.329  0.3277  0.9682  0.6990
  593MOL0     H79995   9.968   8.324   3.456 -2.9107  1.8893 -0.6868
  593MOL0     H79996  10.182   8.313   3.226  1.4847 -3.2590 -1.9055
  593MOL0     H79997  10.176   8.200   3.365  0.4697 -1.3117 -0.6055
  593MOL0     H79998   9.911   8.219   3.256 -1.0363 -3.5969 -0.4785
  593MOL0     H79999  10.012   8.220   3.117 -1.9629 -1.8709  0.2548
  593MOL0     H80000  10.164   8.032   3.198 -0.1491 -0.7706 -0.8270
  593MOL0     H80001  10.041   8.015   3.332 -0.9375  0.1604 -0.9939
  593MOL0     H80002   9.999   8.000   3.040 -0.1096 -0.3135  0.5455
  593MOL0     H80003   9.878   7.986   3.165  0.0234  0.9723 -2.9465
  593MOL0     H80004  10.056   7.797   3.254  0.3136  2.5038 -0.0741
  593MOL0     H80005   9.955   7.749   3.103  2.3299  0.4107 -4.1732
  593MOL0     H80006  10.311   7.890   3.218 -0.5563  2.3703 -0.4531
  593MOL0     H80007  10.568   7.809   3.106 -2.2390 -2.0606  0.2966
  593MOL0     H80008  10.568   7.706   2.964 -0.3486 -0.9080  2.3754
  593MOL0     H80009  10.527   7.906   2.825  1.1088  0.5419 -1.0734
  593MOL0     H80010  10.537   8.011   2.970 -2.6189 -1.2690  1.3669
  593MOL0     H80011  10.742   8.035   2.850 -2.5754 -0.0971  0.0745
  593MOL0     H80012  10.795   7.870   2.874 -0.7273 -0.1476 -0.3442
  593MOL0     H80013  10.764   7.938   3.134 -0.2054  1.4425  1.3883
  593MOL0     H80014  10.741   8.094   3.065 -1.2923 -0.7411 -0.4666
  593MOL0     H80015  10.831   8.111   3.251 -0.8506  2.8957 -0.4834
  593MOL0     H80016  10.959   8.293   3.396  0.0914 -0.1093 -0.9796
  593MOL0     H80017  11.345   8.497   3.605  0.4676  1.5732  4.8461
  593MOL0     H80018  11.417   8.714   3.714 -1.5915 -0.4613  0.8319
  593MOL0     H80019  11.385   9.082   3.773 -2.2655  0.7325 -2.4961
  593MOL0     H80020  11.426   8.923   3.803 -0.1365  1.7513  1.3513
  593MOL0     H80021  11.592   9.081   3.674  3.2310 -2.5534  0.4680
  593MOL0     H80022  11.578   8.910   3.615  0.0942 -0.1052 -2.6967
  593MOL0     H80023  11.441   8.989   3.431  0.4006  0.5623 -3.0104
  593MOL0     H80024  11.441   9.149   3.501  0.1499 -0.5807 -2.1002
  593MOL0     H80025  11.675   8.996   3.404 -2.0970 -2.3644 -0.8260
  593MOL0     H80026  11.687   9.160   3.469 -0.5710 -1.9347  1.6344
  593MOL0     H80027  11.551   9.252   3.257  2.3359  1.6229 -0.2930
  593MOL0     H80028  11.543   9.088   3.191 -0.1599 -0.7805  1.3709
  593MOL0     H80029  11.784   9.255   3.289  0.4993 -1.5879  1.7962
  593MOL0     H80030  11.806   9.086   3.238  2.1613  0.8175  1.1851
  593MOL0     H80031  11.674   9.254   3.029  1.4955  3.4149  0.6303
  593MOL0     H80032  11.804   9.139   3.021  2.0130  0.8415  1.5297
  593MOL0     H80033  11.891   9.366   2.958  1.9777  0.1135  0.5728
  593MOL0     H80034  11.818   9.446   3.081  2.5299  0.3210  0.3914
  593MOL0     H80035  11.077   8.903   3.506 -0.2283 -0.8542 -1.0962
  593MOL0     H80036  10.997   8.661   3.442 -1.5156 -0.0161  2.5768
  593MOL0     H80037  11.259   8.330   3.111  0.4166 -1.5568  0.4431
  593MOL0     H80038  11.149   8.162   2.963  1.3328  0.1359  0.2174
  593MOL0     H80039  10.086   8.302   3.896 -0.7216 -1.9745 -0.3074
  593MOL0     H80040  10.218   8.241   4.073  1.4492  0.1262  0.4401
  593MOL0     H80041  10.334   7.862   4.354  1.1432 -1.3595 -0.0024
  593MOL0     H80042  10.443   7.826   4.573  1.1791  0.1717  2.1388
  593MOL0     H80043  10.823   8.024   4.654  0.6586  0.3744  0.6088
  593MOL0     H80044  10.776   7.954   4.820 -0.5453 -0.6297 -0.0233
  593MOL0     H80045  10.630   8.197   4.713  2.1654  2.7508 -0.8881
  593MOL0     H80046  10.771   8.203   4.819  3.9999 -4.6118 -0.3499
  593MOL0     H80047  10.658   8.075   4.994 -0.8365 -2.7813 -0.1855
  593MOL0     H80048  10.526   8.030   4.880 -1.3735  1.4733 -0.8873
  593MOL0     H80049  10.552   8.328   4.929 -3.1073  0.9692 -0.9148
  593MOL0     H80050  10.418   8.219   4.905  0.2095 -1.8666 -0.1344
  593MOL0     H80051  10.422   8.219   5.318 -0.1529  0.9171 -0.2134
  593MOL0     H80052  10.723   8.142   4.474  1.0417 -0.6286  1.6646
  593MOL0     H80053  10.563   8.309   4.232 -1.1086 -0.0976  2.4453
  593MOL0     H80054  10.711   8.271   4.307  1.3818 -1.9671  1.5044
  593MOL0     H80055  10.668   8.173   4.165  0.9258  0.4316  1.5327
  594MOL0     O80056  10.495   0.165   4.669 -0.6410 -0.8893 -0.5490
  594MOL0     C80057  10.379   0.177   4.631 -0.6284 -0.1495  0.1171
  594MOL0     O80058  10.337   0.236   4.516 -0.6966 -0.2431  0.0189
  594MOL0     C80059  10.431   0.304   4.437  0.0545 -0.5386 -0.8780
  594MOL0     C80060  10.458   0.252   4.310  0.2267 -0.4693 -0.7931
  594MOL0     C80061  10.571   0.291   4.238  0.0115 -0.1192 -1.2950
  594MOL0     C80062  10.639   0.409   4.296  0.0954 -0.4530  1.3446
  594MOL0     O80063  10.734   0.483   4.229  1.6060  0.0912 -0.0750
  594MOL0     C80064  10.784   0.437   4.104  0.0834  1.1744  0.4582
  594MOL0     C80065  10.865   0.534   4.035 -0.5385 -0.0797 -0.8394
  594MOL0     C80066  10.869   0.505   3.889  0.6538  0.6122 -0.2688
  594MOL0     C80067  10.970   0.601   3.824  0.4862  0.3001  0.5645
  594MOL0     C80068  10.951   0.596   3.674  0.9464  0.1071 -0.1460
  594MOL0     C80069  10.827   0.683   3.640  0.9283  0.3013 -0.6589
  594MOL0     C80070  10.848   0.729   3.496  0.5742 -0.3033 -0.0889
  594MOL0     C80071  10.721   0.792   3.429 -0.8921 -0.2294 -0.0551
  594MOL0     N80072  10.661   0.912   3.468  0.2261 -0.2426 -0.3762
  594MOL0     C80073  10.527   0.944   3.483  0.4147  0.1286  0.6298
  594MOL0     C80074  10.519   1.080   3.506 -0.4242  0.1652  0.2153
  594MOL0     C80075  10.397   1.172   3.504  0.1622 -0.3795 -0.3999
  594MOL0     C80076  10.383   1.259   3.381  0.7474 -0.5290  0.2085
  594MOL0     C80077  10.287   1.383   3.396 -1.2315  0.3136 -0.3563
  594MOL0     C80078  10.148   1.328   3.400  0.1027 -0.3032 -0.5535
  594MOL0     O80079  10.129   1.267   3.267  0.8518 -0.5307  0.7489
  594MOL0     C80080   9.994   1.225   3.234 -0.5199  0.3075  0.3965
  594MOL0     C80081   9.982   1.139   3.127  0.0449  0.0603  0.7525
  594MOL0     C80082   9.865   1.094   3.091  0.4807  0.8201 -0.1457
  594MOL0     C80083   9.744   1.133   3.157 -0.6812  0.9710 -0.6241
  594MOL0     C80084   9.616   1.074   3.103 -0.4154 -0.5486  0.6525
  594MOL0     O80085   9.620   1.002   2.983  0.3496  0.6380 -0.0435
  594MOL0     C80086   9.493   0.978   2.921  0.2146  0.2979  0.0413
  594MOL0     C80087   9.436   1.063   2.822 -0.0369 -0.1808  0.1623
  594MOL0     C80088   9.313   1.040   2.767  0.4015 -0.7475  0.7355
  594MOL0     C80089   9.232   0.937   2.820 -0.7358 -0.7373  0.4383
  594MOL0     O80090   9.108   0.921   2.768  0.3779 -0.1867  0.1714
  594MOL0     C80091   9.013   0.850   2.841  0.4939  0.7713  0.4152
  594MOL0     C80092   8.881   0.857   2.760  0.2478 -0.0012 -0.3311
  594MOL0     C80093   8.796   0.742   2.808  0.3624  0.5754 -0.2501
  594MOL0     C80094   8.657   0.795   2.855 -0.0080  0.1967 -0.0564
  594MOL0     C80095   8.563   0.694   2.912 -0.2718 -0.9430  0.1389
  594MOL0     C80096   8.502   0.614   2.801  0.3760 -0.8931 -0.1364
  594MOL0     C80097   8.377   0.549   2.849 -0.2887  0.0178  0.6376
  594MOL0     C80098   8.330   0.449   2.739 -0.6181  0.3420 -0.0958
  594MOL0    Cl80099   8.280   0.527   2.596 -0.2601 -0.4745 -0.7649
  594MOL0     C80100   9.276   0.867   2.931 -0.0517  1.2396  1.0200
  594MOL0     C80101   9.406   0.878   2.979 -0.1673  0.7501 -0.0031
  594MOL0     O80102   9.515   1.095   3.158 -0.5541  1.3140 -0.6511
  594MOL0     C80103   9.756   1.225   3.260 -0.7502  0.2308  0.4523
  594MOL0     C80104   9.881   1.268   3.305 -0.0117 -0.2219 -0.3532
  594MOL0     N80105  10.656   1.132   3.526 -0.0388 -0.0525  0.6704
  594MOL0     N80106  10.726   1.028   3.510 -0.8029  0.0310 -0.6182
  594MOL0     C80107  10.608   0.461   4.417 -0.0030  0.5850  0.8503
  594MOL0     C80108  10.499   0.414   4.487  0.4098 -0.4121  0.2530
  594MOL0     C80109  10.268   0.144   4.719 -0.0752  0.3961 -2.0058
  594MOL0     C80110  10.140   0.098   4.673 -0.0166 -0.2988  0.3581
  594MOL0     C80111  10.039   0.044   4.757 -0.0248 -0.7801  0.7387
  594MOL0     C80112  10.065   0.039   4.892 -0.4380 -1.7399 -0.5498
  594MOL0     O80113   9.973   0.019   4.999  0.1286  0.3861  0.5283
  594MOL0     C80114   9.841  -0.027   4.964  0.2312  0.8799  0.4123
  594MOL0     C80115   9.746  -0.063   5.084 -0.6210 -0.6884  0.9171
  594MOL0     C80116   9.803  -0.166   5.185 -0.3501 -0.2752 -1.1272
  594MOL0     C80117   9.719  -0.188   5.317  0.0435 -0.2792  0.4851
  594MOL0     C80118   9.793  -0.255   5.430  0.4791  0.6527  0.3216
  594MOL0     C80119   9.827  -0.317   5.531 -0.0509 -0.3337  0.4220
  594MOL0     C80120  10.188   0.081   4.937 -0.1551 -0.1637 -0.0555
  594MOL0     C80121  10.296   0.130   4.863  0.3754 -0.3699  0.7135
  594MOL0     C80122  10.425   0.172   4.935 -0.2476  0.2307 -0.8350
  594MOL0     H80123  10.389   0.177   4.272 -1.4693  0.5814  0.1398
  594MOL0     H80124  10.602   0.242   4.147 -1.0292 -0.0860 -1.6716
  594MOL0     H80125  10.843   0.345   4.107 -0.5506  0.6883 -0.9538
  594MOL0     H80126  10.701   0.413   4.036  0.0080  4.0606 -0.5909
  594MOL0     H80127  10.963   0.537   4.082 -0.0591  2.3677 -1.8129
  594MOL0     H80128  10.809   0.628   4.045  1.2762  0.7612  3.4153
  594MOL0     H80129  10.771   0.526   3.845 -0.7228 -0.1451  2.2538
  594MOL0     H80130  10.894   0.402   3.863 -1.4487  0.2993 -1.2434
  594MOL0     H80131  10.960   0.703   3.861  1.5655  0.0516  1.6234
  594MOL0     H80132  11.077   0.587   3.844  0.8852  3.3255  1.0712
  594MOL0     H80133  11.042   0.629   3.624  1.2138 -0.8851 -0.3486
  594MOL0     H80134  10.930   0.491   3.651  1.4636 -0.0046 -0.1176
  594MOL0     H80135  10.733   0.628   3.647  0.8806  0.1885 -1.9463
  594MOL0     H80136  10.813   0.771   3.703 -2.2106 -1.9645  2.1291
  594MOL0     H80137  10.888   0.651   3.431 -0.8401 -0.5626 -0.6772
  594MOL0     H80138  10.922   0.810   3.504  1.2925 -1.0423  1.1065
  594MOL0     H80139  10.747   0.806   3.323 -1.4114  0.9456 -0.0389
  594MOL0     H80140  10.646   0.714   3.414  0.4205 -1.3373 -1.1146
  594MOL0     H80141  10.450   0.867   3.471 -0.2401  0.4624  2.4472
  594MOL0     H80142  10.319   1.097   3.489  2.8062 -3.5970  0.6517
  594MOL0     H80143  10.391   1.239   3.590  1.8293  2.2746 -2.2057
  594MOL0     H80144  10.478   1.303   3.351 -1.1737  2.8942 -1.4818
  594MOL0     H80145  10.357   1.198   3.294 -1.1856  0.2127  0.2269
  594MOL0     H80146  10.298   1.451   3.311 -0.5343 -1.0568 -1.4217
  594MOL0     H80147  10.302   1.424   3.496 -2.5041  1.9741 -0.8051
  594MOL0     H80148  10.078   1.407   3.427 -0.1049 -0.5542 -0.3431
  594MOL0     H80149  10.127   1.242   3.465  1.0798 -0.3229 -0.2433
  594MOL0     H80150  10.076   1.109   3.081 -0.6117 -0.5741 -0.2263
  594MOL0     H80151   9.847   1.032   3.004 -0.4771 -0.2693  0.7939
  594MOL0     H80152   9.491   1.143   2.773 -0.9824  0.3747 -0.0395
  594MOL0     H80153   9.265   1.108   2.697 -0.0673 -1.1083  0.6958
  594MOL0     H80154   9.043   0.745   2.849 -0.1271  0.5294 -0.2487
  594MOL0     H80155   9.004   0.890   2.942  1.8776  2.8920 -0.2242
  594MOL0     H80156   8.828   0.952   2.765 -0.6338 -0.5336  1.8734
  594MOL0     H80157   8.910   0.833   2.657  2.2401 -0.7674  0.3542
  594MOL0     H80158   8.784   0.670   2.727  0.6665 -0.2765  0.4483
  594MOL0     H80159   8.836   0.680   2.889  0.2060 -0.7797 -1.1853
  594MOL0     H80160   8.616   0.857   2.774  1.4260  1.3978  0.0968
  594MOL0     H80161   8.678   0.871   2.931  2.3663  1.2655 -1.6631
  594MOL0     H80162   8.488   0.748   2.970  0.6834  1.9526 -1.1776
  594MOL0     H80163   8.627   0.632   2.977  0.3036 -1.4577 -0.8963
  594MOL0     H80164   8.477   0.693   2.730  3.8190 -1.0983 -1.7397
  594MOL0     H80165   8.567   0.543   2.750 -2.0713 -4.0327  0.7883
  594MOL0     H80166   8.299   0.626   2.847 -0.3138  0.0450 -2.6757
  594MOL0     H80167   8.394   0.503   2.946  2.0794 -1.0869 -0.2281
  594MOL0     H80168   8.417   0.386   2.717 -0.9011 -1.0190  2.3340
  594MOL0     H80169   8.247   0.382   2.764 -0.6385 -1.6281 -4.4014
  594MOL0     H80170   9.214   0.797   2.984  1.0237  0.8305  1.7534
  594MOL0     H80171   9.445   0.829   3.068 -1.0084  0.8984  0.4512
  594MOL0     H80172   9.668   1.251   3.320  0.4292 -1.5550  3.1811
  594MOL0     H80173   9.878   1.328   3.396  1.6590 -0.4189 -0.1429
  594MOL0     H80174  10.665   0.535   4.472 -1.6718  0.9272  2.1856
  594MOL0     H80175  10.454   0.461   4.573 -2.1098  1.8526 -2.1008
  594MOL0     H80176  10.124   0.126   4.569  2.9241 -1.4755 -0.5130
  594MOL0     H80177   9.942   0.019   4.716  0.1872  1.3129 -1.1526
  594MOL0     H80178   9.852  -0.120   4.907  0.0466  0.7260  0.6254
  594MOL0     H80179   9.787   0.049   4.907 -0.8759 -0.0173  0.2286
  594MOL0     H80180   9.652  -0.105   5.046  0.5198 -1.4379 -1.2805
  594MOL0     H80181   9.735   0.036   5.129 -0.6053 -1.3027  2.3301
  594MOL0     H80182   9.899  -0.126   5.222 -1.0352 -0.7137  1.3075
  594MOL0     H80183   9.823  -0.262   5.137  2.3364 -0.3535 -0.0511
  594MOL0     H80184   9.697  -0.086   5.350  0.8398 -0.0455  0.3107
  594MOL0     H80185   9.627  -0.239   5.286 -0.6667  1.1693  0.1088
  594MOL0     H80186   9.857  -0.389   5.605 -4.0134 -2.8016 -0.0613
  594MOL0     H80187  10.210   0.074   5.043 -0.7249  0.2104  0.0932
  594MOL0     H80188  10.501   0.095   4.948  0.4624  1.3324  2.3510
  594MOL0     H80189  10.467   0.267   4.902 -2.9429  1.0264 -2.2688
  594MOL0     H80190  10.397   0.193   5.038  1.2098  3.7231 -1.0203
  595MOL0     O80191   4.530   0.463   8.540 -1.4697  0.2233 -0.2709
  595MOL0     C80192   4.651   0.488   8.507  0.9757 -0.9445 -0.3476
  595MOL0     O80193   4.762   0.417   8.550 -0.2536 -0.1396 -0.4067
  595MOL0     C80194   4.752   0.307   8.631  0.4581  0.0240 -0.3786
  595MOL0     C80195   4.815   0.298   8.750 -0.0607 -0.3884  0.5126
  595MOL0     C80196   4.811   0.184   8.837 -0.5691 -0.2375 -0.5460
  595MOL0     C80197   4.725   0.080   8.794  0.0599 -0.0499 -0.3930
  595MOL0     O80198   4.722  -0.031   8.873  0.7967 -0.3796 -0.0128
  595MOL0     C80199   4.593  -0.078   8.897 -0.4938  0.1090 -0.1231
  595MOL0     C80200   4.603  -0.173   9.017 -0.6576 -1.0561  0.8291
  595MOL0     C80201   4.487  -0.261   9.009  0.2390 -1.0941  0.6462
  595MOL0     C80202   4.469  -0.359   8.888 -0.1840  0.9188 -0.1767
  595MOL0     C80203   4.573  -0.473   8.904 -0.1019 -1.3804 -0.3029
  595MOL0     C80204   4.546  -0.598   8.833  0.9201 -0.1623  0.0699
  595MOL0     C80205   4.630  -0.720   8.863  0.8612 -0.6567 -0.2592
  595MOL0     C80206   4.780  -0.707   8.827  0.1358  0.1927  0.1207
  595MOL0     N80207   4.853  -0.627   8.928 -0.2736  0.3129  0.3982
  595MOL0     C80208   4.939  -0.521   8.898  1.1238 -0.1755 -0.6623
  595MOL0     C80209   4.954  -0.445   9.015  0.6938 -0.1414 -0.1865
  595MOL0     C80210   5.056  -0.334   9.048  0.4693  0.6038 -0.3580
  595MOL0     C80211   5.027  -0.218   8.963 -0.4297 -0.2089 -0.4713
  595MOL0     C80212   5.101  -0.084   9.019 -0.0802  1.2961  0.0315
  595MOL0     C80213   5.130   0.005   8.897  0.3519  0.1920 -0.4488
  595MOL0     O80214   5.174   0.130   8.952  0.2194  0.2295 -0.1566
  595MOL0     C80215   5.191   0.233   8.873  0.6944  0.2319 -0.5122
  595MOL0     C80216   5.247   0.343   8.943 -0.1864  0.6185  0.5322
  595MOL0     C80217   5.270   0.459   8.869  0.8273 -0.3233  0.1724
  595MOL0     C80218   5.233   0.460   8.734 -0.1992 -0.1877  0.6584
  595MOL0     C80219   5.262   0.590   8.653 -0.2414 -0.0218 -0.2872
  595MOL0     O80220   5.320   0.688   8.719 -0.4182  0.2536  0.6784
  595MOL0     C80221   5.350   0.813   8.672  0.1311  0.4107 -0.5807
  595MOL0     C80222   5.465   0.866   8.731  0.5017 -0.3538 -0.0690
  595MOL0     C80223   5.489   1.006   8.706 -0.9526  0.2315  0.2945
  595MOL0     C80224   5.424   1.080   8.603  0.0992  0.0378 -0.1338
  595MOL0     O80225   5.438   1.213   8.577  0.2114  0.5801 -0.3344
  595MOL0     C80226   5.545   1.286   8.639 -0.3630  0.1156  0.1944
  595MOL0     C80227   5.574   1.435   8.577 -0.0569  0.5208 -0.8013
  595MOL0     C80228   5.717   1.486   8.604 -0.3388  0.5553  0.0858
  595MOL0     C80229   5.735   1.633   8.580 -0.2122 -0.4320  0.6978
  595MOL0     C80230   5.716   1.651   8.429  0.4968 -0.6168  0.7205
  595MOL0     C80231   5.761   1.799   8.410  0.3335 -0.5234  0.6962
  595MOL0     C80232   5.746   1.827   8.259 -0.0521  0.2746  0.5445
  595MOL0     C80233   5.862   1.779   8.172 -0.1392  1.2906  0.1758
  595MOL0    Cl80234   5.996   1.891   8.211 -0.2271  0.0294  0.3303
  595MOL0     C80235   5.320   1.008   8.541  0.2318 -0.6248 -0.4718
  595MOL0     C80236   5.276   0.887   8.576 -0.6678 -0.8879  0.3713
  595MOL0     O80237   5.233   0.598   8.534  0.6844 -0.5234 -0.2831
  595MOL0     C80238   5.169   0.350   8.673 -0.1163  0.5381  0.1020
  595MOL0     C80239   5.150   0.235   8.742  0.5540  0.6487 -0.8220
  595MOL0     N80240   4.876  -0.505   9.108  0.4097  0.1075  0.4487
  595MOL0     N80241   4.803  -0.606   9.058 -0.3883  0.6680  1.6083
  595MOL0     C80242   4.667   0.091   8.672 -0.1912  1.1337  1.2778
  595MOL0     C80243   4.675   0.198   8.593  0.2773 -1.4835 -0.1720
  595MOL0     C80244   4.666   0.599   8.410 -0.0945 -0.0010  0.3333
  595MOL0     C80245   4.564   0.692   8.388  0.6411  0.3463 -0.1812
  595MOL0     C80246   4.579   0.793   8.295 -1.2824 -0.5755  0.0416
  595MOL0     C80247   4.700   0.813   8.229  0.0081 -0.3402 -0.8059
  595MOL0     O80248   4.719   0.898   8.126 -0.0314 -0.1231 -0.6163
  595MOL0     C80249   4.650   1.027   8.137  0.4416  1.8819 -0.8581
  595MOL0     C80250   4.733   1.123   8.057  0.0789  0.1583 -0.5712
  595MOL0     C80251   4.867   1.161   8.116  0.1559  0.2061  0.0419
  595MOL0     C80252   4.948   1.260   8.040 -0.2396 -1.1149  1.3956
  595MOL0     C80253   4.891   1.390   8.018  0.0781  0.3802  0.2344
  595MOL0     C80254   4.831   1.488   7.987 -0.5172 -0.0672 -0.0525
  595MOL0     C80255   4.812   0.731   8.256  0.2827  1.0207  0.6570
  595MOL0     C80256   4.795   0.629   8.347  0.0831 -0.0715 -0.2892
  595MOL0     C80257   4.922   0.541   8.369 -1.6237 -0.3120 -1.3426
  595MOL0     H80258   4.881   0.378   8.782  2.3201 -0.7542 -2.9783
  595MOL0     H80259   4.868   0.184   8.929 -1.1581  0.2688 -0.1807
  595MOL0     H80260   4.519   0.001   8.916  0.6997  1.1082  0.4939
  595MOL0     H80261   4.569  -0.144   8.813  3.4319 -1.4017 -0.2656
  595MOL0     H80262   4.613  -0.125   9.114  2.1262 -0.7037  0.4494
  595MOL0     H80263   4.690  -0.238   9.010  1.1647  1.4217 -3.9066
  595MOL0     H80264   4.393  -0.205   9.018  1.4397  0.9045  1.4236
  595MOL0     H80265   4.487  -0.324   9.099  2.5620 -1.7430  0.2553
  595MOL0     H80266   4.376  -0.414   8.899  1.8066 -2.4041  1.7946
  595MOL0     H80267   4.470  -0.314   8.788  2.2639  2.6109  0.4975
  595MOL0     H80268   4.673  -0.439   8.877  0.2528 -0.7792  1.6246
  595MOL0     H80269   4.570  -0.502   9.009 -1.5171  0.4290  0.2106
  595MOL0     H80270   4.441  -0.622   8.848  0.7724  1.5433  2.2844
  595MOL0     H80271   4.537  -0.585   8.724 -3.3572  0.3701  0.3264
  595MOL0     H80272   4.585  -0.802   8.805 -3.8362 -1.1910  3.4421
  595MOL0     H80273   4.620  -0.750   8.968  0.9292  2.6907  0.8307
  595MOL0     H80274   4.825  -0.805   8.807  0.0486  0.4618 -1.5418
  595MOL0     H80275   4.781  -0.661   8.727  0.1263  1.4539  0.6908
  595MOL0     H80276   5.005  -0.516   8.813  4.0988 -4.3024  1.0539
  595MOL0     H80277   5.048  -0.326   9.157  2.9059  2.2108 -0.2144
  595MOL0     H80278   5.156  -0.367   9.021 -0.2060 -1.8854 -0.0680
  595MOL0     H80279   5.062  -0.238   8.861  0.0948  0.1400 -0.3649
  595MOL0     H80280   4.919  -0.205   8.963 -1.0716 -4.2100 -1.1852
  595MOL0     H80281   5.202  -0.096   9.060 -0.2008  0.6175  0.1458
  595MOL0     H80282   5.038  -0.043   9.098  1.7666  0.0091  2.2909
  595MOL0     H80283   5.032   0.014   8.851 -0.0787 -0.1594  0.3674
  595MOL0     H80284   5.208  -0.037   8.833  2.9700  3.9426 -0.0681
  595MOL0     H80285   5.281   0.328   9.046  3.2223  0.9464 -0.4033
  595MOL0     H80286   5.332   0.534   8.917  3.8345 -2.2217 -0.4395
  595MOL0     H80287   5.519   0.812   8.809 -1.6551 -1.5846  0.6545
  595MOL0     H80288   5.568   1.051   8.766  0.3501 -0.5576 -0.7640
  595MOL0     H80289   5.513   1.304   8.742 -0.0120  2.3870 -0.0427
  595MOL0     H80290   5.635   1.226   8.624 -1.2321 -1.9384  2.4813
  595MOL0     H80291   5.562   1.421   8.470  0.0192  1.2534 -0.9103
  595MOL0     H80292   5.506   1.509   8.620  1.0109  2.7975 -2.7600
  595MOL0     H80293   5.744   1.466   8.708  2.3985  1.1428 -0.4240
  595MOL0     H80294   5.774   1.413   8.545  1.6587 -0.7034  3.3110
  595MOL0     H80295   5.828   1.682   8.609 -0.4102  1.4718 -1.6638
  595MOL0     H80296   5.653   1.683   8.632  0.2497  0.2936  0.7327
  595MOL0     H80297   5.613   1.636   8.398  0.3486  3.2210 -1.3147
  595MOL0     H80298   5.783   1.580   8.380 -2.5273 -1.1143 -3.1628
  595MOL0     H80299   5.695   1.870   8.462 -0.0122  1.7767 -2.5354
  595MOL0     H80300   5.866   1.814   8.437  0.7825 -2.0708 -0.0669
  595MOL0     H80301   5.724   1.933   8.242 -1.0498 -0.1350 -0.8311
  595MOL0     H80302   5.659   1.780   8.214 -0.8833  4.5269 -2.9666
  595MOL0     H80303   5.898   1.681   8.206 -1.9450  1.3004  2.3619
  595MOL0     H80304   5.834   1.773   8.067 -3.1831  0.4089  0.9336
  595MOL0     H80305   5.269   1.063   8.463 -0.6875 -0.5273  0.1811
  595MOL0     H80306   5.180   0.845   8.546 -1.4601 -1.2591  3.1576
  595MOL0     H80307   5.129   0.364   8.573  4.0841 -2.8609 -2.4017
  595MOL0     H80308   5.102   0.151   8.692  0.1489  0.5039 -0.1898
  595MOL0     H80309   4.609   0.012   8.626 -0.3427  2.1070 -0.2743
  595MOL0     H80310   4.611   0.197   8.506 -2.2885 -1.5221  1.6009
  595MOL0     H80311   4.472   0.677   8.444  0.6453  0.0207 -0.2604
  595MOL0     H80312   4.495   0.852   8.259 -2.8461 -2.8762 -0.3099
  595MOL0     H80313   4.639   1.053   8.242  0.0494  1.6832 -0.8489
  595MOL0     H80314   4.553   1.020   8.087 -0.5701  0.7769  1.1369
  595MOL0     H80315   4.674   1.215   8.058 -1.7064 -0.9255 -1.1201
  595MOL0     H80316   4.751   1.089   7.954 -1.1224  3.9452 -2.2356
  595MOL0     H80317   4.921   1.066   8.117  2.2469  1.3431  1.8744
  595MOL0     H80318   4.838   1.207   8.211 -2.5748 -1.1303 -0.0453
  595MOL0     H80319   5.035   1.284   8.101  1.1132  0.8564 -1.1054
  595MOL0     H80320   4.981   1.228   7.941  0.2938  2.8135  0.1509
  595MOL0     H80321   4.784   1.581   7.962 -1.8052 -0.7024 -0.0850
  595MOL0     H80322   4.908   0.748   8.209  1.2071  1.6943  2.7017
  595MOL0     H80323   4.903   0.435   8.351 -0.6481 -0.8946  0.7682
  595MOL0     H80324   5.005   0.572   8.306  1.1518 -0.3255  2.0000
  595MOL0     H80325   4.960   0.554   8.471  0.4241 -1.5948 -1.8952
  596MOL0     O80326   8.362  10.797   1.180 -0.2129  0.3242 -0.0583
  596MOL0     C80327   8.444  10.700   1.204 -0.7580  0.4576  1.5385
  596MOL0     O80328   8.586  10.709   1.206 -0.8551  0.3542 -0.1147
  596MOL0     C80329   8.633  10.834   1.182  0.3106  0.5567  0.7240
  596MOL0     C80330   8.617  10.941   1.277 -0.1922  0.3903 -0.0783
  596MOL0     C80331   8.687  11.058   1.250 -0.3838  0.0839 -0.2308
  596MOL0     C80332   8.795  11.068   1.157 -0.9654 -0.5379  0.7013
  596MOL0     O80333   8.874  11.180   1.139 -0.2166 -0.0846  0.0591
  596MOL0     C80334   8.806  11.302   1.152 -0.1225 -0.0279 -0.5769
  596MOL0     C80335   8.856  11.393   1.039 -0.4623  0.6975 -0.6127
  596MOL0     C80336   8.749  11.502   0.994 -0.0357  0.9753 -0.1415
  596MOL0     C80337   8.793  11.596   0.883  0.1721 -0.4878 -0.2673
  596MOL0     C80338   8.894  11.702   0.924  0.1011  0.1236 -0.8128
  596MOL0     C80339   8.928  11.806   0.814  0.2983  0.3209  0.4643
  596MOL0     C80340   9.043  11.896   0.861 -0.3199  0.3434  1.7274
  596MOL0     C80341   9.066  12.006   0.752 -0.4773 -0.4960 -0.4643
  596MOL0     N80342   9.183  12.091   0.781 -0.1166 -0.0647 -0.2752
  596MOL0     C80343   9.174  12.225   0.821 -1.3438  0.5560  0.5423
  596MOL0     C80344   9.304  12.271   0.815  0.1369  0.0626 -0.2406
  596MOL0     C80345   9.353  12.408   0.825  0.3480  0.2443  0.6175
  596MOL0     C80346   9.358  12.485   0.963  0.2620  0.1792 -0.0414
  596MOL0     C80347   9.201  12.536   0.977 -0.0170  0.1470  0.5666
  596MOL0     C80348   9.191  12.633   1.093 -1.3046  1.0425  0.5847
  596MOL0     O80349   9.243  12.580   1.215  0.5297  0.6561 -0.2042
  596MOL0     C80350   9.240  12.664   1.318 -0.6967 -0.1311 -0.3226
  596MOL0     C80351   9.155  12.635   1.421 -0.0536  0.9675 -0.6187
  596MOL0     C80352   9.148  12.721   1.535 -0.0400 -0.4646 -0.4397
  596MOL0     C80353   9.231  12.838   1.548  0.2384  0.0869 -0.3151
  596MOL0     C80354   9.211  12.936   1.654 -0.5320 -0.1785  0.6957
  596MOL0     O80355   9.136  12.901   1.765  0.0444 -0.0993 -0.0443
  596MOL0     C80356   9.138  12.991   1.865 -0.5014  0.2920 -0.0566
  596MOL0     C80357   9.253  13.026   1.930 -0.4333 -0.6669 -0.8117
  596MOL0     C80358   9.251  13.135   2.021  0.6092 -0.3452  0.0424
  596MOL0     C80359   9.124  13.190   2.061  0.1767 -0.1471 -0.0371
  596MOL0     O80360   9.106  13.293   2.158  0.8826 -0.1998  0.8288
  596MOL0     C80361   9.217  13.381   2.189 -0.0832  0.0090  0.0695
  596MOL0     C80362   9.227  13.494   2.091 -0.1347 -0.2835 -0.1903
  596MOL0     C80363   9.366  13.552   2.061 -0.5629 -0.7496  0.4362
  596MOL0     C80364   9.444  13.460   1.970  0.0394 -0.2065  0.3961
  596MOL0     C80365   9.577  13.527   1.942  0.2486  1.0532 -0.4927
  596MOL0     C80366   9.648  13.456   1.831  0.2562  0.3057 -0.3027
  596MOL0     C80367   9.791  13.506   1.833  0.6523 -0.4252  0.8466
  596MOL0     C80368   9.876  13.455   1.718 -0.6494  0.3375 -1.2164
  596MOL0    Cl80369  10.036  13.527   1.739  0.4941  0.1963  0.5235
  596MOL0     C80370   9.009  13.128   2.011  0.1757 -0.3059 -0.4166
  596MOL0     C80371   9.020  13.037   1.907 -0.1012 -0.0202 -0.3671
  596MOL0     O80372   9.268  13.046   1.631 -0.3862  0.0154 -0.0189
  596MOL0     C80373   9.329  12.858   1.449 -0.2457  0.5175  0.3817
  596MOL0     C80374   9.340  12.763   1.336  0.4876 -0.7100  0.6821
  596MOL0     N80375   9.386  12.167   0.791  0.0894 -0.8951  0.6972
  596MOL0     N80376   9.319  12.057   0.777 -0.6416  0.4114 -0.4477
  596MOL0     C80377   8.832  10.947   1.086  0.1317 -0.3778  0.1775
  596MOL0     C80378   8.737  10.846   1.084  0.0342  0.7653 -0.4452
  596MOL0     C80379   8.395  10.557   1.212  0.7016  0.9494 -0.8129
  596MOL0     C80380   8.497  10.450   1.215  0.2618 -0.3428 -0.3598
  596MOL0     C80381   8.457  10.323   1.225  0.1826  0.2809 -0.2160
  596MOL0     C80382   8.321  10.288   1.237  0.8780  0.2560  0.3456
  596MOL0     O80383   8.278  10.156   1.242 -0.3053  0.4506  0.0398
  596MOL0     C80384   8.374  10.044   1.261 -0.7893  0.6111  0.6500
  596MOL0     C80385   8.295   9.914   1.252  0.0646 -0.0588  0.0893
  596MOL0     C80386   8.247   9.867   1.393  0.4415  0.8275  0.3029
  596MOL0     C80387   8.354   9.787   1.476 -0.4553  0.4441 -1.1129
  596MOL0     C80388   8.463   9.873   1.527 -0.0075  0.4462  0.0113
  596MOL0     C80389   8.545   9.936   1.580 -0.4950  0.2409  0.3395
  596MOL0     C80390   8.224  10.387   1.226  0.9274 -0.2850  0.5529
  596MOL0     C80391   8.258  10.523   1.206 -0.0234  0.4299 -0.3579
  596MOL0     C80392   8.144  10.624   1.216  0.4432 -0.1630 -0.2674
  596MOL0     H80393   8.555  10.916   1.362 -0.4891 -0.4357 -0.5306
  596MOL0     H80394   8.670  11.150   1.305  1.4157  0.2142  0.1706
  596MOL0     H80395   8.697  11.297   1.144 -0.5194 -0.4720  3.2501
  596MOL0     H80396   8.822  11.343   1.252 -0.2089 -1.9159  0.2483
  596MOL0     H80397   8.880  11.323   0.959 -1.6106  0.9209 -1.1735
  596MOL0     H80398   8.945  11.436   1.085  0.1541 -2.2049  1.1461
  596MOL0     H80399   8.713  11.566   1.075 -2.3720  2.6754 -2.3813
  596MOL0     H80400   8.663  11.447   0.956  2.6658 -2.4336 -1.9231
  596MOL0     H80401   8.835  11.534   0.802 -2.2044 -0.5499 -1.5452
  596MOL0     H80402   8.699  11.633   0.841  0.4549  0.7315  0.1508
  596MOL0     H80403   8.866  11.756   1.014 -1.1765 -0.4539 -0.8452
  596MOL0     H80404   8.986  11.653   0.954  0.9793  1.5753 -1.0087
  596MOL0     H80405   8.954  11.753   0.723 -0.5410  3.0450 -1.4892
  596MOL0     H80406   8.845  11.876   0.797  1.2468  1.3724  0.0691
  596MOL0     H80407   9.136  11.839   0.875  0.7097  0.9076 -1.7995
  596MOL0     H80408   9.016  11.947   0.954 -3.2278  2.5925 -0.1671
  596MOL0     H80409   9.079  11.951   0.659 -0.6019  0.1505 -0.8685
  596MOL0     H80410   8.983  12.075   0.732 -0.2310 -0.4898 -1.4919
  596MOL0     H80411   9.084  12.285   0.808 -0.6366  1.4282 -0.4755
  596MOL0     H80412   9.461  12.404   0.805  0.0243  0.3853 -1.3403
  596MOL0     H80413   9.316  12.472   0.745  2.7634  4.2344  2.4034
  596MOL0     H80414   9.395  12.432   1.051  0.5841  2.2739  1.1628
  596MOL0     H80415   9.414  12.578   0.950 -0.8290  1.1878  2.0984
  596MOL0     H80416   9.138  12.448   0.992  2.0261 -1.4016  0.4518
  596MOL0     H80417   9.163  12.578   0.883  1.1569  1.5858  0.7005
  596MOL0     H80418   9.089  12.664   1.118 -2.4606 -0.0032 -2.3796
  596MOL0     H80419   9.242  12.725   1.064 -0.7260 -0.1996 -2.7053
  596MOL0     H80420   9.091  12.554   1.388 -0.7443  1.1620  0.1996
  596MOL0     H80421   9.075  12.703   1.614  1.0940  1.7284  1.2109
  596MOL0     H80422   9.354  12.999   1.902 -0.6541 -0.9043 -1.4072
  596MOL0     H80423   9.350  13.169   2.050 -0.5875  2.3271  1.3107
  596MOL0     H80424   9.205  13.430   2.287  1.1673 -0.5694  0.5342
  596MOL0     H80425   9.302  13.312   2.199  0.5052  0.7784  0.5354
  596MOL0     H80426   9.193  13.461   1.992 -0.4842 -1.1770  0.2160
  596MOL0     H80427   9.167  13.578   2.127  0.6582 -0.5179  1.8317
  596MOL0     H80428   9.363  13.645   2.003  1.2933 -0.3065  0.9712
  596MOL0     H80429   9.424  13.579   2.149 -3.5352  0.7131  2.0823
  596MOL0     H80430   9.397  13.449   1.872  0.2552 -3.3178  0.5670
  596MOL0     H80431   9.452  13.359   2.010  0.9060 -0.0455  0.6445
  596MOL0     H80432   9.638  13.518   2.032  0.6487 -1.1873 -0.9211
  596MOL0     H80433   9.559  13.634   1.927 -1.7428  0.9597  0.8582
  596MOL0     H80434   9.641  13.347   1.836 -0.4205  0.2229 -2.2136
  596MOL0     H80435   9.610  13.493   1.735  0.9717  3.1623  0.4158
  596MOL0     H80436   9.829  13.490   1.935 -0.3965 -1.2369  1.1311
  596MOL0     H80437   9.787  13.615   1.827 -2.0425 -0.2533  3.2182
  596MOL0     H80438   9.887  13.346   1.718 -0.9583  0.2090  1.8649
  596MOL0     H80439   9.838  13.480   1.619 -0.4880 -0.9361 -1.6168
  596MOL0     H80440   8.911  13.172   2.023  1.3765  2.3456  0.2299
  596MOL0     H80441   8.932  13.004   1.852 -1.6482  0.0200  1.9497
  596MOL0     H80442   9.386  12.949   1.444  0.9170 -0.1618  0.7888
  596MOL0     H80443   9.404  12.778   1.250  0.5558 -2.3893  0.4022
  596MOL0     H80444   8.923  10.953   1.027  0.6974  1.7998  1.1512
  596MOL0     H80445   8.757  10.759   1.022 -0.3438  0.7531 -0.5533
  596MOL0     H80446   8.602  10.477   1.215  0.4130 -0.6921 -2.8210
  596MOL0     H80447   8.536  10.249   1.212 -0.6205 -0.5093 -0.6771
  596MOL0     H80448   8.442  10.057   1.346 -3.2591 -2.3049  3.3068
  596MOL0     H80449   8.445  10.050   1.179  2.4168  2.8118  3.3157
  596MOL0     H80450   8.346   9.832   1.201 -2.0596 -0.0384 -2.2383
  596MOL0     H80451   8.206   9.942   1.195  1.2563 -1.1713 -2.4883
  596MOL0     H80452   8.166   9.796   1.372  2.5742 -1.1369 -1.8979
  596MOL0     H80453   8.211   9.943   1.464 -1.5102 -0.7129  1.0797
  596MOL0     H80454   8.307   9.738   1.562 -0.0891  1.3662 -0.3749
  596MOL0     H80455   8.400   9.707   1.416 -1.8893 -1.8444  0.6474
  596MOL0     H80456   8.616  10.002   1.626  1.2162  0.1543 -1.9817
  596MOL0     H80457   8.120  10.357   1.231  1.2115 -1.5445 -0.5987
  596MOL0     H80458   8.147  10.674   1.119 -2.1465  1.1893  0.2352
  596MOL0     H80459   8.045  10.577   1.222  0.1203  0.4511 -0.5591
  596MOL0     H80460   8.157  10.694   1.299 -1.0299 -0.2362  0.0555
  597MOL0     O80461   6.418   7.712   1.324  0.9091  0.2319 -0.1848
  597MOL0     C80462   6.339   7.631   1.380 -0.4205  0.6257  0.7770
  597MOL0     O80463   6.372   7.558   1.492  0.5238 -0.0787 -0.1214
  597MOL0     C80464   6.487   7.582   1.552 -0.7008 -0.4635  0.2842
  597MOL0     C80465   6.505   7.700   1.630  0.1279 -0.5269 -0.5991
  597MOL0     C80466   6.615   7.711   1.717  1.0462 -0.1761  0.4987
  597MOL0     C80467   6.715   7.611   1.726 -0.3696  0.5091  1.5207
  597MOL0     O80468   6.823   7.628   1.811  0.0574 -1.0754  0.2243
  597MOL0     C80469   6.925   7.708   1.745 -0.8790  0.1821  0.5118
  597MOL0     C80470   7.029   7.760   1.848 -0.2129  0.4044  0.0068
  597MOL0     C80471   6.980   7.895   1.911 -0.2249  0.2079 -0.2136
  597MOL0     C80472   7.080   7.963   2.012  0.3493  0.1056  0.2067
  597MOL0     C80473   7.013   8.092   2.076 -0.6368 -0.1075  0.6988
  597MOL0     C80474   6.929   8.066   2.203  0.8321  0.5331  1.2584
  597MOL0     C80475   6.838   8.189   2.233 -0.7011  0.3716  0.2854
  597MOL0     C80476   6.924   8.319   2.226  0.7824 -0.3800 -0.5463
  597MOL0     N80477   6.871   8.435   2.305 -0.9821 -0.0727 -0.4300
  597MOL0     C80478   6.829   8.425   2.434  0.3487 -0.6350 -0.1254
  597MOL0     C80479   6.760   8.535   2.464  0.0934 -0.7802 -0.6310
  597MOL0     C80480   6.697   8.550   2.599 -0.2438 -0.3462 -0.6667
  597MOL0     C80481   6.602   8.434   2.642 -0.3393  0.1037 -1.2149
  597MOL0     C80482   6.471   8.444   2.567 -0.7698 -0.3414 -0.1479
  597MOL0     C80483   6.374   8.554   2.597 -0.0492  0.3687  0.0214
  597MOL0     O80484   6.249   8.551   2.526  0.8454  0.5910  0.1071
  597MOL0     C80485   6.147   8.461   2.563  0.1916 -0.0879 -0.9030
  597MOL0     C80486   6.151   8.361   2.665 -0.0708 -0.0872  0.2716
  597MOL0     C80487   6.041   8.286   2.696  0.5218 -0.1175 -0.0126
  597MOL0     C80488   5.923   8.311   2.637  0.6162 -0.1729  0.5646
  597MOL0     C80489   5.809   8.213   2.646 -0.9569  0.5741  0.7341
  597MOL0     O80490   5.839   8.110   2.738  0.1109  0.1127  0.0471
  597MOL0     C80491   5.749   8.012   2.770  0.1563  0.4648  0.4583
  597MOL0     C80492   5.640   7.954   2.692  0.7190  0.4312  0.3134
  597MOL0     C80493   5.563   7.849   2.758  0.4167  0.2806 -0.0260
  597MOL0     C80494   5.579   7.812   2.895  0.6592 -0.0964 -0.9189
  597MOL0     O80495   5.497   7.712   2.938  0.2771 -0.0491  0.3193
  597MOL0     C80496   5.560   7.622   3.027 -0.7512  0.6845  0.2695
  597MOL0     C80497   5.456   7.527   3.073  0.0086  1.0231  0.2329
  597MOL0     C80498   5.503   7.394   3.124 -0.0093  0.5758  0.5409
  597MOL0     C80499   5.394   7.315   3.198 -0.9529 -0.2889 -0.1626
  597MOL0     C80500   5.303   7.210   3.116 -0.6245  0.0088  0.3634
  597MOL0     C80501   5.375   7.063   3.119  0.2555  1.0277  1.7051
  597MOL0     C80502   5.280   6.968   3.038 -0.3762 -0.5469 -0.5814
  597MOL0     C80503   5.352   6.842   2.995  0.6081 -0.2893 -0.1498
  597MOL0    Cl80504   5.420   6.766   3.140  0.4688 -0.1138 -0.5522
  597MOL0     C80505   5.687   7.871   2.953 -0.4277 -0.2671  0.1957
  597MOL0     C80506   5.767   7.970   2.907  0.5444 -0.0964  0.3946
  597MOL0     O80507   5.713   8.223   2.569  1.6453  0.0443  0.0787
  597MOL0     C80508   5.915   8.418   2.540 -0.4473  0.8342 -0.5676
  597MOL0     C80509   6.028   8.495   2.506  0.0267 -0.4142  0.7988
  597MOL0     N80510   6.765   8.602   2.349  0.3285 -1.5666  0.1857
  597MOL0     N80511   6.830   8.547   2.255  0.2509 -0.0701  0.4105
  597MOL0     C80512   6.705   7.500   1.639 -1.1858  0.2419 -0.0224
  597MOL0     C80513   6.585   7.484   1.561 -1.1756 -0.0601 -0.8926
  597MOL0     C80514   6.205   7.603   1.321 -0.1959 -0.2265 -0.0995
  597MOL0     C80515   6.186   7.657   1.189 -0.6321 -0.3000 -0.0777
  597MOL0     C80516   6.079   7.620   1.115  0.1104 -1.0912 -1.5740
  597MOL0     C80517   5.983   7.536   1.159  1.0385 -0.7106  0.7328
  597MOL0     O80518   5.869   7.515   1.085 -0.4385  0.2113  0.1970
  597MOL0     C80519   5.817   7.387   1.075  0.0566  0.1235  0.0914
  597MOL0     C80520   5.678   7.394   1.009 -0.3607  0.3209 -0.6777
  597MOL0     C80521   5.593   7.490   1.084  0.4520  0.7260  0.6435
  597MOL0     C80522   5.444   7.478   1.057 -0.3572 -0.6811 -0.1792
  597MOL0     C80523   5.397   7.351   1.091  0.1129  0.6919  0.9650
  597MOL0     C80524   5.343   7.248   1.107  0.5444 -0.1564 -0.4559
  597MOL0     C80525   5.989   7.488   1.292  1.2894 -0.5971  0.0665
  597MOL0     C80526   6.101   7.520   1.376  0.8823 -0.1167 -0.1630
  597MOL0     C80527   6.107   7.467   1.528  1.0832  0.0745 -0.1998
  597MOL0     H80528   6.436   7.784   1.632 -2.1080 -2.2698  0.5358
  597MOL0     H80529   6.615   7.787   1.795 -0.7475  0.2779  0.1048
  597MOL0     H80530   6.972   7.645   1.668  0.0935 -0.2661  1.4395
  597MOL0     H80531   6.894   7.784   1.673 -0.8352 -0.0807  0.2121
  597MOL0     H80532   7.123   7.784   1.798 -0.0914  2.4953  1.1422
  597MOL0     H80533   7.051   7.680   1.920  4.4626 -1.9271 -3.4880
  597MOL0     H80534   6.884   7.871   1.958  0.1219 -2.5197 -0.7475
  597MOL0     H80535   6.971   7.968   1.830  5.1084  3.9078  1.9594
  597MOL0     H80536   7.112   7.893   2.090  0.3652  3.1744  3.2274
  597MOL0     H80537   7.165   8.001   1.955  0.5454 -0.0330  0.4064
  597MOL0     H80538   7.095   8.157   2.109  2.1889 -2.0336 -1.9698
  597MOL0     H80539   6.958   8.135   1.992  0.8066  0.5832  0.0814
  597MOL0     H80540   6.871   7.975   2.186  2.7520 -0.6352  0.5768
  597MOL0     H80541   6.992   8.040   2.289 -1.1753  0.4196  2.7683
  597MOL0     H80542   6.790   8.187   2.331 -0.2482  0.9380  0.5277
  597MOL0     H80543   6.753   8.190   2.164  1.4776  0.5065 -2.5772
  597MOL0     H80544   7.023   8.296   2.267  1.2127 -0.7570 -1.7531
  597MOL0     H80545   6.938   8.368   2.129 -2.7015 -1.5962 -1.8026
  597MOL0     H80546   6.853   8.358   2.515  0.0099  1.9453  2.2318
  597MOL0     H80547   6.773   8.567   2.677 -1.4334  2.4451  0.0131
  597MOL0     H80548   6.650   8.647   2.582  3.6435  1.6924 -0.8773
  597MOL0     H80549   6.651   8.337   2.633  0.4516  0.3581  0.2111
  597MOL0     H80550   6.576   8.442   2.748  1.1727 -4.4274 -0.2700
  597MOL0     H80551   6.414   8.354   2.593 -3.7045  1.6202  0.7430
  597MOL0     H80552   6.479   8.458   2.459 -0.8119  0.8567 -0.0101
  597MOL0     H80553   6.419   8.653   2.583  0.9691 -0.3605 -2.2144
  597MOL0     H80554   6.348   8.551   2.704  0.3256 -1.5096  0.0866
  597MOL0     H80555   6.237   8.318   2.715  0.5687  0.9177  0.0675
  597MOL0     H80556   6.053   8.215   2.777  0.8315  1.1947  1.1192
  597MOL0     H80557   5.614   7.984   2.591  1.0385 -1.9049 -0.5182
  597MOL0     H80558   5.472   7.820   2.707  0.1718  2.8982 -1.1866
  597MOL0     H80559   5.648   7.568   2.989 -1.6190 -2.4807  2.4018
  597MOL0     H80560   5.598   7.676   3.115 -1.3350  0.3269  0.7484
  597MOL0     H80561   5.397   7.580   3.149 -2.0454 -1.3050  0.3845
  597MOL0     H80562   5.378   7.510   2.998 -0.6642 -0.7021  1.2898
  597MOL0     H80563   5.549   7.342   3.040 -1.0584 -0.4382  0.5805
  597MOL0     H80564   5.578   7.409   3.202 -0.2968 -0.1419  0.9671
  597MOL0     H80565   5.337   7.395   3.246  0.5488  0.8422 -0.1904
  597MOL0     H80566   5.436   7.250   3.276  0.5109 -0.7223 -1.2763
  597MOL0     H80567   5.307   7.252   3.015 -0.9835 -0.5778  0.1040
  597MOL0     H80568   5.204   7.201   3.161 -0.6744  2.3619  0.8593
  597MOL0     H80569   5.472   7.057   3.069 -0.6318 -0.7001  0.0236
  597MOL0     H80570   5.372   7.019   3.218  1.2036  1.8128  2.1015
  597MOL0     H80571   5.245   7.016   2.946 -0.4364 -0.8124 -0.6974
  597MOL0     H80572   5.197   6.939   3.103  1.1771 -2.0023  0.8579
  597MOL0     H80573   5.281   6.772   2.950 -0.7311  0.1027  1.2594
  597MOL0     H80574   5.431   6.870   2.924  2.1151 -0.6469  1.3195
  597MOL0     H80575   5.724   7.837   3.049 -1.8978 -1.9215  0.2068
  597MOL0     H80576   5.842   8.033   2.954 -0.2005  0.1117  1.3330
  597MOL0     H80577   5.823   8.432   2.483 -1.6091 -0.3762  0.9410
  597MOL0     H80578   6.019   8.558   2.419  0.7107  0.2870  1.2248
  597MOL0     H80579   6.783   7.424   1.633 -1.1656  0.3477 -1.5611
  597MOL0     H80580   6.569   7.397   1.498 -0.5430 -1.3331  0.6309
  597MOL0     H80581   6.271   7.703   1.139  1.1530 -5.6738 -2.7878
  597MOL0     H80582   6.071   7.657   1.014 -2.5569 -2.4533 -1.9486
  597MOL0     H80583   5.806   7.346   1.177 -1.2434  1.4726  0.5172
  597MOL0     H80584   5.884   7.316   1.025  1.3863 -1.1610  3.3806
  597MOL0     H80585   5.648   7.290   1.017  2.2141 -0.3548  1.6516
  597MOL0     H80586   5.694   7.419   0.904  0.4451 -1.8825 -1.1308
  597MOL0     H80587   5.621   7.593   1.058 -0.6979  0.7857 -0.4530
  597MOL0     H80588   5.620   7.478   1.189  1.2544 -1.2932  0.2553
  597MOL0     H80589   5.382   7.547   1.114  0.5971  0.4773 -0.5189
  597MOL0     H80590   5.435   7.478   0.948 -2.5740  1.4842 -0.0801
  597MOL0     H80591   5.283   7.161   1.126  0.7180  0.1746  1.8630
  597MOL0     H80592   5.917   7.427   1.345  1.7837 -2.4078 -1.2494
  597MOL0     H80593   6.099   7.554   1.593  0.9245 -0.3159  0.3069
  597MOL0     H80594   6.011   7.417   1.543  1.8098 -1.0117  0.9991
  597MOL0     H80595   6.197   7.404   1.531  1.3556  0.4084 -1.0362
  598MOL0     O80596   2.262   5.897   8.150  0.1925  0.8295  0.3658
  598MOL0     C80597   2.217   5.983   8.230 -0.1429 -0.0368  0.1824
  598MOL0     O80598   2.183   5.961   8.361  0.6100 -0.0733 -0.1620
  598MOL0     C80599   2.226   5.845   8.423 -0.1362 -0.0388  0.4431
  598MOL0     C80600   2.157   5.725   8.402 -0.5040 -0.2602  0.7484
  598MOL0     C80601   2.182   5.614   8.482 -0.0843 -0.1001 -0.0945
  598MOL0     C80602   2.302   5.613   8.562  0.1046 -0.8126  0.1540
  598MOL0     O80603   2.334   5.506   8.640 -0.6004 -0.1153 -0.6906
  598MOL0     C80604   2.321   5.381   8.585  0.2600  0.2965 -0.4017
  598MOL0     C80605   2.402   5.273   8.663  0.1343 -0.9686  1.0533
  598MOL0     C80606   2.358   5.137   8.603  0.0381 -0.7409 -0.2004
  598MOL0     C80607   2.224   5.078   8.644  0.0188  0.6656  0.0946
  598MOL0     C80608   2.200   4.920   8.612  0.3000  0.2541 -1.5675
  598MOL0     C80609   2.311   4.820   8.664  0.0921 -0.7966 -0.1525
  598MOL0     C80610   2.344   4.840   8.812  0.5012 -0.9649  0.5589
  598MOL0     C80611   2.440   4.730   8.853 -0.4589  0.7668 -0.0082
  598MOL0     N80612   2.563   4.708   8.782 -0.3079  0.5267  0.6356
  598MOL0     C80613   2.649   4.803   8.726  0.0746  0.3825 -1.0325
  598MOL0     C80614   2.754   4.734   8.678 -0.4603  0.2983  0.5687
  598MOL0     C80615   2.883   4.779   8.610 -0.7256 -1.0647 -0.2517
  598MOL0     C80616   2.936   4.704   8.500  1.0373 -0.1406 -0.3256
  598MOL0     C80617   3.064   4.622   8.541 -0.8299  0.3374  0.9341
  598MOL0     C80618   3.188   4.717   8.569  0.4721  0.0569 -0.2071
  598MOL0     O80619   3.155   4.859   8.561 -0.4695  0.3011 -0.0483
  598MOL0     C80620   3.250   4.930   8.498 -0.0837  0.3529  0.4836
  598MOL0     C80621   3.389   4.917   8.537 -0.4761 -0.2993 -0.0756
  598MOL0     C80622   3.486   4.971   8.459 -1.1153  0.2398 -0.1368
  598MOL0     C80623   3.459   5.044   8.347  0.0655  0.2932  0.5464
  598MOL0     C80624   3.561   5.124   8.274 -0.2126 -0.3501  0.0740
  598MOL0     O80625   3.696   5.101   8.313 -0.0502 -0.9910 -0.1155
  598MOL0     C80626   3.800   5.173   8.255  0.1173 -0.2439  0.5411
  598MOL0     C80627   3.819   5.165   8.119 -0.9898 -0.4161  0.4249
  598MOL0     C80628   3.932   5.232   8.068 -0.7550  0.0342  0.2312
  598MOL0     C80629   4.026   5.294   8.147  0.1628 -0.1558  0.1777
  598MOL0     O80630   4.139   5.343   8.095  0.5254 -0.6481 -0.0590
  598MOL0     C80631   4.147   5.373   7.956  0.3274 -0.1662 -0.3813
  598MOL0     C80632   4.047   5.481   7.909 -0.8735 -0.0221 -0.7944
  598MOL0     C80633   4.092   5.545   7.778 -0.1359  0.7671 -0.8075
  598MOL0     C80634   3.988   5.623   7.697  0.0922 -0.6500 -0.3704
  598MOL0     C80635   4.048   5.713   7.586  0.6423  0.4713  1.0466
  598MOL0     C80636   4.123   5.655   7.463 -0.4368  1.0519  0.4989
  598MOL0     C80637   4.033   5.591   7.354  0.9201  0.2721 -0.0570
  598MOL0     C80638   4.132   5.516   7.267 -0.1806 -0.9507 -0.4072
  598MOL0    Cl80639   4.046   5.445   7.122  0.2417 -0.2500  0.3835
  598MOL0     C80640   4.001   5.310   8.286 -0.3094  0.5377  0.1949
  598MOL0     C80641   3.887   5.252   8.340  0.1969  0.5470 -0.7108
  598MOL0     O80642   3.531   5.205   8.190 -0.5774  0.6611  0.6850
  598MOL0     C80643   3.320   5.050   8.310  0.3285  0.3505 -0.2809
  598MOL0     C80644   3.212   5.006   8.388  0.1081  0.0292  0.2997
  598MOL0     N80645   2.733   4.602   8.706  0.5596  0.5208 -0.1632
  598MOL0     N80646   2.619   4.587   8.767  0.3041  0.0305 -0.1701
  598MOL0     C80647   2.377   5.732   8.570 -0.3885  0.6643 -0.6425
  598MOL0     C80648   2.335   5.849   8.509 -0.0898  0.4456  0.8172
  598MOL0     C80649   2.186   6.120   8.178 -0.6601  0.6527 -0.3990
  598MOL0     C80650   2.110   6.193   8.259  0.1116  0.0103  0.0349
  598MOL0     C80651   2.082   6.325   8.240  0.1558 -0.2769  0.8680
  598MOL0     C80652   2.126   6.389   8.126 -0.0275  0.0010  0.0899
  598MOL0     O80653   2.105   6.527   8.128  1.4133  0.1864 -0.3970
  598MOL0     C80654   2.121   6.601   8.010 -0.3349 -0.4306  1.1770
  598MOL0     C80655   2.002   6.559   7.919 -0.7136 -0.7419  0.1046
  598MOL0     C80656   1.995   6.656   7.802 -0.6020 -1.1662 -0.1268
  598MOL0     C80657   1.894   6.599   7.693 -0.5744  0.6039  0.7186
  598MOL0     C80658   1.756   6.572   7.739  0.6852 -0.4425 -0.3657
  598MOL0     C80659   1.642   6.548   7.789 -0.4587 -0.3607 -0.9098
  598MOL0     C80660   2.196   6.317   8.027  1.4949 -0.8406  0.4782
  598MOL0     C80661   2.235   6.181   8.046  0.7284  0.0945 -0.8054
  598MOL0     C80662   2.328   6.117   7.949  0.1393 -0.2178 -0.4632
  598MOL0     H80663   2.084   5.716   8.322 -0.1006 -0.0663  0.3551
  598MOL0     H80664   2.123   5.522   8.482  1.4640 -1.2055  2.3588
  598MOL0     H80665   2.218   5.353   8.562  0.3347  0.2468 -0.6833
  598MOL0     H80666   2.369   5.377   8.487  3.2701 -3.2499  0.9641
  598MOL0     H80667   2.389   5.274   8.772 -2.6948 -0.3479  0.7952
  598MOL0     H80668   2.507   5.293   8.641 -0.6736  2.8584  0.0018
  598MOL0     H80669   2.433   5.062   8.632 -0.2693 -0.1241  2.3937
  598MOL0     H80670   2.363   5.146   8.494  0.0895 -0.1345 -0.1506
  598MOL0     H80671   2.215   5.094   8.752 -2.3112 -0.1296  0.0804
  598MOL0     H80672   2.141   5.126   8.591  0.3278  0.8920 -0.1928
  598MOL0     H80673   2.104   4.894   8.656  1.4605 -1.3923  0.1640
  598MOL0     H80674   2.185   4.893   8.507 -5.6813  1.0480 -1.2294
  598MOL0     H80675   2.276   4.718   8.647  1.1547 -1.3630  0.9207
  598MOL0     H80676   2.402   4.830   8.605  0.5619 -0.5319  0.5994
  598MOL0     H80677   2.253   4.836   8.871 -1.4021  0.3383 -2.0784
  598MOL0     H80678   2.374   4.942   8.838  0.8886 -1.1664  0.9183
  598MOL0     H80679   2.459   4.758   8.957  0.6763 -3.3673  1.0590
  598MOL0     H80680   2.392   4.634   8.868  1.8070  0.0033  3.3942
  598MOL0     H80681   2.631   4.908   8.703 -1.1565 -0.2798 -3.2824
  598MOL0     H80682   2.866   4.879   8.569  0.7139 -1.4382 -1.8548
  598MOL0     H80683   2.958   4.779   8.690  1.7892 -1.6380 -2.5084
  598MOL0     H80684   2.857   4.631   8.479  1.3721 -1.2265  1.9119
  598MOL0     H80685   2.957   4.771   8.416  0.7141 -0.9655 -1.0812
  598MOL0     H80686   3.090   4.551   8.462 -1.8575  3.1802 -2.2113
  598MOL0     H80687   3.040   4.558   8.627 -3.4467 -1.0749 -0.6876
  598MOL0     H80688   3.266   4.697   8.494 -0.9456  0.8904 -1.9753
  598MOL0     H80689   3.218   4.690   8.671  0.9579 -1.6929 -0.7818
  598MOL0     H80690   3.405   4.857   8.626 -3.0508  0.0121  0.6800
  598MOL0     H80691   3.591   4.974   8.489 -0.7213  2.2768 -1.5191
  598MOL0     H80692   3.748   5.106   8.062  0.2315 -0.4501 -1.1031
  598MOL0     H80693   3.948   5.236   7.960 -2.3867 -1.7506 -0.1395
  598MOL0     H80694   4.244   5.415   7.929 -0.0707  0.3549 -1.0259
  598MOL0     H80695   4.132   5.290   7.886  1.0021 -0.7567  0.1604
  598MOL0     H80696   3.955   5.425   7.893 -2.2527  1.7426  0.5531
  598MOL0     H80697   4.033   5.557   7.987  1.9175 -0.2600  0.0639
  598MOL0     H80698   4.181   5.606   7.797  0.9171 -0.4669 -1.6310
  598MOL0     H80699   4.134   5.464   7.717 -0.3335 -0.5020  0.6865
  598MOL0     H80700   3.940   5.694   7.765  1.9619  0.7246 -0.4205
  598MOL0     H80701   3.910   5.557   7.658  1.8077 -2.3785 -1.0668
  598MOL0     H80702   4.124   5.780   7.628  1.0827  0.4721  0.2643
  598MOL0     H80703   3.967   5.771   7.541 -1.2382 -0.3163  3.2230
  598MOL0     H80704   4.196   5.728   7.425  1.6006 -0.6163  1.0552
  598MOL0     H80705   4.195   5.579   7.493  0.9008  0.6031 -3.3456
  598MOL0     H80706   3.987   5.669   7.293  1.4989 -0.8288 -1.9852
  598MOL0     H80707   3.966   5.517   7.398  5.0651 -3.2513  0.9932
  598MOL0     H80708   4.214   5.581   7.237 -0.8523  1.2876  2.2337
  598MOL0     H80709   4.181   5.431   7.317  2.7041  0.2009 -1.0882
  598MOL0     H80710   4.081   5.364   8.336 -2.0255  0.3347  3.3816
  598MOL0     H80711   3.875   5.246   8.448 -1.0431 -0.6601 -0.8948
  598MOL0     H80712   3.276   5.105   8.227 -2.5568  0.2194  1.0146
  598MOL0     H80713   3.109   5.018   8.356 -0.0345 -2.4192 -0.3322
  598MOL0     H80714   2.465   5.728   8.634  0.0793 -0.8303 -1.3286
  598MOL0     H80715   2.396   5.939   8.515 -1.0072  1.1591 -0.1221
  598MOL0     H80716   2.065   6.172   8.356 -0.3669  0.5280 -0.0669
  598MOL0     H80717   2.031   6.389   8.311 -2.2105 -1.1859  0.1062
  598MOL0     H80718   2.219   6.582   7.965 -0.9952  0.5969 -0.8401
  598MOL0     H80719   2.111   6.708   8.028 -1.2272 -0.4922  1.1041
  598MOL0     H80720   1.906   6.547   7.969 -0.1715  0.3671  1.4834
  598MOL0     H80721   2.017   6.462   7.870  0.1020 -0.6569  0.1698
  598MOL0     H80722   2.089   6.665   7.747 -2.4338  0.8854 -3.2180
  598MOL0     H80723   1.967   6.759   7.823  2.6847  1.2896 -5.6361
  598MOL0     H80724   1.887   6.676   7.616  0.3214  0.8041  0.8224
  598MOL0     H80725   1.928   6.512   7.637  1.9851  1.2827  1.1075
  598MOL0     H80726   1.553   6.513   7.836 -0.6942  1.8878  0.4623
  598MOL0     H80727   2.223   6.383   7.944 -0.3367  3.0962  2.7326
  598MOL0     H80728   2.351   6.181   7.863 -0.3504 -1.7019 -1.7569
  598MOL0     H80729   2.423   6.104   8.001 -1.2072 -1.7404  1.7749
  598MOL0     H80730   2.285   6.024   7.910  1.5479 -1.8874  1.7616
  599MOL0     O80731   2.816   7.744   8.822 -0.0104 -0.5681 -0.1828
  599MOL0     C80732   2.698   7.765   8.861 -0.5810 -0.6482 -0.8011
  599MOL0     O80733   2.669   7.840   8.963 -0.1087 -0.2981  0.4270
  599MOL0     C80734   2.738   7.817   9.085  0.5867  0.1100  0.5096
  599MOL0     C80735   2.829   7.710   9.109  0.1635 -0.6395  1.3274
  599MOL0     C80736   2.894   7.712   9.232 -0.0923  1.2237  0.0409
  599MOL0     C80737   2.880   7.810   9.323 -0.5499  0.0287 -0.4100
  599MOL0     O80738   2.962   7.786   9.433 -0.1871  0.1145 -1.0388
  599MOL0     C80739   2.917   7.835   9.561 -0.2576 -0.7470 -0.1225
  599MOL0     C80740   3.040   7.858   9.655  0.2928  0.0571 -0.3525
  599MOL0     C80741   3.111   7.992   9.646  0.4364 -0.5288 -0.4731
  599MOL0     C80742   3.239   7.989   9.716  0.5797  1.3249 -0.0140
  599MOL0     C80743   3.342   8.077   9.641 -0.6603  0.1913 -0.5749
  599MOL0     C80744   3.404   8.021   9.512  0.3282 -0.3879  0.3204
  599MOL0     C80745   3.472   8.138   9.434 -0.2166 -0.6904  0.2150
  599MOL0     C80746   3.534   8.084   9.306 -1.0244  0.1480  0.1233
  599MOL0     N80747   3.592   8.196   9.229 -0.3145  1.2854  0.2890
  599MOL0     C80748   3.531   8.259   9.117  0.7432  0.1081 -1.0944
  599MOL0     C80749   3.591   8.379   9.120  0.5270  0.2542 -0.1444
  599MOL0     C80750   3.542   8.494   9.035 -0.2980  0.4621  0.5827
  599MOL0     C80751   3.579   8.478   8.889 -0.2457 -0.6897  0.6708
  599MOL0     C80752   3.721   8.532   8.876 -0.1153 -0.6944  0.1539
  599MOL0     C80753   3.765   8.554   8.735 -0.0743  0.3255  0.5857
  599MOL0     O80754   3.696   8.656   8.661 -0.6812  0.2752  0.0119
  599MOL0     C80755   3.771   8.748   8.595 -1.0387  0.2838  0.1028
  599MOL0     C80756   3.772   8.774   8.458  0.1456  0.5707 -0.4760
  599MOL0     C80757   3.863   8.860   8.402 -0.1363 -0.0122 -0.1171
  599MOL0     C80758   3.947   8.935   8.488  0.5496  0.7547 -0.7107
  599MOL0     C80759   4.020   9.052   8.442  0.0552  0.3777 -0.6459
  599MOL0     O80760   4.087   9.124   8.537 -0.8933 -0.6218  0.3604
  599MOL0     C80761   4.159   9.224   8.478  1.2349 -0.7630  0.7564
  599MOL0     C80762   4.117   9.357   8.491  0.0359  0.3099 -1.3782
  599MOL0     C80763   4.190   9.469   8.456  0.4790 -0.3974 -0.0121
  599MOL0     C80764   4.317   9.449   8.399 -0.1684 -0.0299 -0.5002
  599MOL0     O80765   4.401   9.550   8.378 -0.0770  0.5584  0.4014
  599MOL0     C80766   4.414   9.576   8.232  0.7092 -0.6270 -0.5791
  599MOL0     C80767   4.559   9.594   8.205 -1.0633 -0.3240  0.8754
  599MOL0     C80768   4.591   9.604   8.047 -0.7733 -0.0054 -0.4779
  599MOL0     C80769   4.597   9.751   8.008  0.4715  0.0100  0.2279
  599MOL0     C80770   4.547   9.755   7.860  0.4381  0.4940 -0.0354
  599MOL0     C80771   4.562   9.891   7.793  0.4256  0.5061 -0.2577
  599MOL0     C80772   4.472   9.903   7.673 -0.4071 -1.4316 -0.6345
  599MOL0     C80773   4.448  10.047   7.628  0.2667 -1.2934 -0.7272
  599MOL0    Cl80774   4.585  10.165   7.648 -0.1093  0.1208 -0.0174
  599MOL0     C80775   4.356   9.311   8.372  0.1712 -0.2403 -0.3140
  599MOL0     C80776   4.280   9.202   8.409  1.4176  0.0124  0.8235
  599MOL0     O80777   4.010   9.079   8.322 -0.1167  0.4140 -0.1720
  599MOL0     C80778   3.946   8.904   8.628 -0.1964 -0.6819 -0.3899
  599MOL0     C80779   3.862   8.812   8.676  1.3048  0.4373  0.6098
  599MOL0     N80780   3.690   8.384   9.215 -0.6823  0.1211  1.0853
  599MOL0     N80781   3.692   8.266   9.276 -0.5155  0.0694 -0.4723
  599MOL0     C80782   2.784   7.910   9.310 -0.4201  0.0479  0.2273
  599MOL0     C80783   2.710   7.909   9.188 -0.4585  0.8999 -0.5640
  599MOL0     C80784   2.590   7.703   8.782 -0.6359  0.3810  0.1992
  599MOL0     C80785   2.633   7.624   8.677 -0.5215  0.2147  1.3544
  599MOL0     C80786   2.545   7.561   8.586  0.2955  0.8451  1.1772
  599MOL0     C80787   2.410   7.575   8.609 -0.5793  0.4373 -0.5659
  599MOL0     O80788   2.320   7.509   8.532 -0.4755 -0.2459  0.1223
  599MOL0     C80789   2.212   7.433   8.590 -0.2934 -0.5693 -0.3871
  599MOL0     C80790   2.196   7.283   8.546 -0.2254 -0.1115 -0.9293
  599MOL0     C80791   2.316   7.201   8.607 -0.0751  0.2220 -0.2669
  599MOL0     C80792   2.315   7.045   8.595 -0.3829  0.3925  1.0171
  599MOL0     C80793   2.433   6.977   8.663  0.8444 -0.1956  0.9007
  599MOL0     C80794   2.529   6.931   8.730  0.4042  0.6481 -0.1907
  599MOL0     C80795   2.366   7.649   8.719  0.3887  0.7796  0.7496
  599MOL0     C80796   2.449   7.715   8.810  0.7976  0.5887  0.1121
  599MOL0     C80797   2.387   7.771   8.930  0.1988 -0.5848 -0.2782
  599MOL0     H80798   2.846   7.632   9.037  1.2469  1.1262 -0.4162
  599MOL0     H80799   2.966   7.632   9.250  1.7453  2.9522  0.8246
  599MOL0     H80800   2.888   7.940   9.555 -1.3674 -0.9268  1.4152
  599MOL0     H80801   2.839   7.766   9.598 -1.5263 -1.8717 -4.3829
  599MOL0     H80802   3.105   7.772   9.634 -0.9441 -1.2653  0.9881
  599MOL0     H80803   3.024   7.843   9.762  2.7478  3.6901  0.7240
  599MOL0     H80804   3.053   8.072   9.694 -1.7117 -1.7590 -0.9096
  599MOL0     H80805   3.122   8.024   9.543  0.2088 -0.1920 -0.3943
  599MOL0     H80806   3.211   8.017   9.818 -2.4797 -1.5117  0.0774
  599MOL0     H80807   3.282   7.889   9.729 -2.2661  0.0424  0.0925
  599MOL0     H80808   3.286   8.169   9.622  0.2045  0.8973  0.1821
  599MOL0     H80809   3.424   8.092   9.712  0.0081 -3.2498 -0.4643
  599MOL0     H80810   3.478   7.946   9.543  0.0226 -0.3282  1.2289
  599MOL0     H80811   3.342   7.962   9.444  0.8327 -1.3585  0.6757
  599MOL0     H80812   3.537   8.190   9.505  2.1166 -0.7919 -1.7301
  599MOL0     H80813   3.390   8.208   9.413 -0.3803 -0.3844  1.7095
  599MOL0     H80814   3.612   8.008   9.315  2.0017  3.1757  1.7782
  599MOL0     H80815   3.451   8.029   9.260 -2.8381  1.2159  1.9168
  599MOL0     H80816   3.436   8.234   9.070  0.9530  0.3837 -1.6597
  599MOL0     H80817   3.435   8.513   9.039 -0.0095  2.9130 -1.0524
  599MOL0     H80818   3.585   8.586   9.077  2.5795  0.2745 -1.6068
  599MOL0     H80819   3.589   8.373   8.859 -0.3211 -1.2985  2.6291
  599MOL0     H80820   3.512   8.537   8.826  0.1065  0.4082  1.2893
  599MOL0     H80821   3.784   8.450   8.912 -0.7943 -2.2322 -1.9250
  599MOL0     H80822   3.749   8.624   8.928  1.9330  0.3476 -2.5456
  599MOL0     H80823   3.750   8.467   8.669  1.6436  0.5178 -0.0988
  599MOL0     H80824   3.872   8.573   8.745  0.8403 -0.3927 -4.7906
  599MOL0     H80825   3.702   8.723   8.392 -1.6038  0.8700  1.0653
  599MOL0     H80826   3.852   8.885   8.297  2.5613 -3.0053 -1.2748
  599MOL0     H80827   4.022   9.374   8.541  0.7090  0.0232  0.0617
  599MOL0     H80828   4.158   9.570   8.479  0.2289 -0.0262 -1.8908
  599MOL0     H80829   4.363   9.500   8.173 -1.1185 -0.2210  0.4224
  599MOL0     H80830   4.366   9.672   8.214  2.6656  0.5399  0.0508
  599MOL0     H80831   4.600   9.679   8.260 -0.1494  0.0148 -0.2990
  599MOL0     H80832   4.617   9.506   8.235  0.8304  0.8511  0.8021
  599MOL0     H80833   4.692   9.564   8.037 -0.2938  0.9438  0.4008
  599MOL0     H80834   4.518   9.539   7.998 -0.6431  0.6136 -1.5367
  599MOL0     H80835   4.699   9.784   8.032  0.1096  1.0192  0.3907
  599MOL0     H80836   4.523   9.809   8.063  1.8184  1.0484  1.0162
  599MOL0     H80837   4.442   9.727   7.870  0.9664 -0.9862  1.9595
  599MOL0     H80838   4.599   9.678   7.802  1.4954  0.4838  0.8999
  599MOL0     H80839   4.549   9.977   7.860 -1.3698 -0.1289  0.2742
  599MOL0     H80840   4.669   9.892   7.769  0.7939  2.0280  1.2328
  599MOL0     H80841   4.367   9.876   7.686 -1.1673  2.3102  3.7289
  599MOL0     H80842   4.509   9.844   7.588 -1.2549 -2.1920 -0.4915
  599MOL0     H80843   4.450  10.042   7.519 -0.9600  3.6491 -1.2327
  599MOL0     H80844   4.349  10.082   7.661 -0.0780 -0.3850 -2.6242
  599MOL0     H80845   4.454   9.301   8.327 -0.0558  0.1788 -0.9231
  599MOL0     H80846   4.326   9.104   8.399  2.1481  0.3913  0.3790
  599MOL0     H80847   4.013   8.964   8.689  1.0213 -1.9851 -0.4080
  599MOL0     H80848   3.857   8.798   8.783 -1.1004  0.1555  0.5180
  599MOL0     H80849   2.758   7.991   9.376 -3.2448 -1.2910  0.8794
  599MOL0     H80850   2.627   7.979   9.181 -0.4999  1.0542  1.1386
  599MOL0     H80851   2.739   7.610   8.657 -0.5543  0.4128  1.0311
  599MOL0     H80852   2.569   7.494   8.504 -0.3085  2.7083 -0.6107
  599MOL0     H80853   2.111   7.474   8.584 -0.5498 -0.9519  0.9994
  599MOL0     H80854   2.223   7.422   8.699 -3.2752  2.0732  0.3253
  599MOL0     H80855   2.192   7.267   8.438  1.8956 -2.9919 -0.7022
  599MOL0     H80856   2.109   7.240   8.596 -0.4200  0.3256 -0.8865
  599MOL0     H80857   2.333   7.226   8.712  7.0521  2.1873 -1.3581
  599MOL0     H80858   2.407   7.231   8.554 -0.9707  0.5216 -1.6826
  599MOL0     H80859   2.222   7.023   8.648 -2.1366  0.4724 -1.8142
  599MOL0     H80860   2.313   7.029   8.487 -0.5129  4.1634  0.3206
  599MOL0     H80861   2.598   6.881   8.795 -0.6990  1.4833  1.7031
  599MOL0     H80862   2.258   7.640   8.728 -0.0879  2.5000 -2.0576
  599MOL0     H80863   2.399   7.879   8.940 -2.8559 -0.3582  2.6311
  599MOL0     H80864   2.278   7.764   8.936 -0.0382 -1.0027 -3.5725
  599MOL0     H80865   2.433   7.737   9.024  1.5498  1.7872 -0.0023
  600MOL0     O80866   9.216   6.526   7.539  0.0521  0.4608  0.2684
  600MOL0     C80867   9.270   6.427   7.490  0.0415  0.5350 -0.1312
  600MOL0     O80868   9.258   6.299   7.550 -0.0576 -0.0233  0.1125
  600MOL0     C80869   9.267   6.295   7.686 -0.5227 -0.7885  0.0352
  600MOL0     C80870   9.370   6.364   7.752 -0.1170 -0.6789 -0.0548
  600MOL0     C80871   9.356   6.389   7.896 -0.4341  0.0333  0.5642
  600MOL0     C80872   9.246   6.348   7.973 -1.1832 -0.5360  0.9037
  600MOL0     O80873   9.223   6.376   8.104  0.0248 -0.4725 -0.6603
  600MOL0     C80874   9.337   6.397   8.184  0.0006  0.5880 -0.4459
  600MOL0     C80875   9.418   6.270   8.197 -0.1200  0.0028 -0.4669
  600MOL0     C80876   9.561   6.310   8.235  2.1177  0.0338  0.5808
  600MOL0     C80877   9.656   6.183   8.241  0.9879  0.7229  0.5816
  600MOL0     C80878   9.800   6.221   8.261  0.3247 -0.0497  0.1085
  600MOL0     C80879   9.895   6.108   8.304  0.4358 -0.4801  0.1691
  600MOL0     C80880  10.045   6.147   8.318  0.5813 -0.1859  0.0757
  600MOL0     C80881  10.072   6.274   8.397 -0.0658  0.2426 -0.5225
  600MOL0     N80882  10.031   6.261   8.537 -0.3452 -0.6160 -0.1709
  600MOL0     C80883  10.105   6.196   8.630  0.0533  0.4787  0.5438
  600MOL0     C80884  10.036   6.223   8.747 -0.2472 -0.0964  0.1949
  600MOL0     C80885  10.087   6.176   8.884 -1.0211 -1.3001 -0.5775
  600MOL0     C80886  10.011   6.063   8.944 -0.0144 -0.2540  0.0657
  600MOL0     C80887   9.972   5.948   8.836 -0.2563  0.0404  0.0711
  600MOL0     C80888   9.878   5.845   8.903  0.0890  1.2346 -0.0334
  600MOL0     O80889   9.760   5.908   8.945 -1.0175 -0.5104  0.3905
  600MOL0     C80890   9.695   5.834   9.039 -0.3646 -0.0457 -0.2682
  600MOL0     C80891   9.584   5.757   9.014 -0.2123  0.0659  0.9544
  600MOL0     C80892   9.519   5.679   9.106  0.1713  1.4118 -0.2209
  600MOL0     C80893   9.569   5.686   9.239  0.4868 -0.1404 -0.7571
  600MOL0     C80894   9.477   5.618   9.345  0.1131  0.1495 -0.0313
  600MOL0     O80895   9.375   5.537   9.296  0.1812 -0.3515 -0.1076
  600MOL0     C80896   9.282   5.487   9.400 -0.0747  0.0290  1.0824
  600MOL0     C80897   9.262   5.349   9.415 -0.2855  0.9540 -0.0404
  600MOL0     C80898   9.160   5.290   9.492 -0.1904 -0.5452 -0.3023
  600MOL0     C80899   9.068   5.377   9.562 -0.3457  0.2266 -0.2903
  600MOL0     O80900   8.963   5.317   9.627 -0.5490 -0.5444 -0.4021
  600MOL0     C80901   8.870   5.394   9.696  0.1121 -0.0093 -0.2251
  600MOL0     C80902   8.749   5.317   9.741 -0.3527  0.2153 -0.4846
  600MOL0     C80903   8.802   5.210   9.841  0.5875 -1.3768 -0.3670
  600MOL0     C80904   8.695   5.110   9.875  0.6068 -0.4268 -0.4480
  600MOL0     C80905   8.593   5.184   9.969 -0.1250 -0.3175  0.0459
  600MOL0     C80906   8.482   5.077  10.012  0.2205  0.6538 -0.1287
  600MOL0     C80907   8.381   5.148  10.112 -0.2485 -0.1041  0.0896
  600MOL0     C80908   8.299   5.044  10.193 -1.0389 -0.3999 -0.2794
  600MOL0    Cl80909   8.170   5.107  10.300  0.0424  0.0002  0.1083
  600MOL0     C80910   9.080   5.514   9.548 -0.7122  0.5137 -0.1049
  600MOL0     C80911   9.186   5.570   9.459  0.1743 -0.2447 -0.7846
  600MOL0     O80912   9.481   5.661   9.465  0.0422 -0.5322  0.5210
  600MOL0     C80913   9.667   5.774   9.273 -0.1371 -0.0074  0.0649
  600MOL0     C80914   9.735   5.844   9.171  0.5821 -0.3316  0.0217
  600MOL0     N80915   9.927   6.306   8.727  0.0498 -0.3057  1.3730
  600MOL0     N80916   9.928   6.330   8.605 -0.6366 -1.0655 -0.0277
  600MOL0     C80917   9.150   6.283   7.901 -0.6383  0.5240 -0.0487
  600MOL0     C80918   9.166   6.255   7.763 -0.6817  0.8130 -0.8842
  600MOL0     C80919   9.297   6.447   7.353 -1.6026  0.7000  0.3574
  600MOL0     C80920   9.308   6.325   7.277 -0.0424  0.4793 -0.7442
  600MOL0     C80921   9.338   6.327   7.145 -0.2861  1.0109 -0.4270
  600MOL0     C80922   9.348   6.444   7.084 -0.3573 -0.5090 -0.3094
  600MOL0     O80923   9.366   6.431   6.955 -0.2944 -0.1055  0.5217
  600MOL0     C80924   9.380   6.561   6.880  0.9571  1.0626 -0.0800
  600MOL0     C80925   9.414   6.516   6.738  0.6698  0.7922 -0.3894
  600MOL0     C80926   9.359   6.609   6.645 -0.5835  1.0857 -0.4002
  600MOL0     C80927   9.342   6.543   6.506 -0.2235  1.2701 -0.1460
  600MOL0     C80928   9.216   6.586   6.442 -0.3140  0.3817 -0.2034
  600MOL0     C80929   9.105   6.603   6.414  1.2177  0.5935 -0.1253
  600MOL0     C80930   9.349   6.570   7.158  0.7093  0.3470 -0.1075
  600MOL0     C80931   9.336   6.562   7.292 -0.1856 -1.3801 -0.0887
  600MOL0     C80932   9.357   6.692   7.370  0.5400 -1.4820  0.1691
  600MOL0     H80933   9.454   6.401   7.694  0.4178 -0.5809  0.7652
  600MOL0     H80934   9.433   6.451   7.942  0.9190 -0.9419 -0.3198
  600MOL0     H80935   9.401   6.476   8.145  2.2612  0.3117  2.3925
  600MOL0     H80936   9.301   6.424   8.284 -2.8019 -2.2595 -0.5277
  600MOL0     H80937   9.416   6.207   8.107 -0.4272  0.6992 -0.9633
  600MOL0     H80938   9.371   6.216   8.279  2.8880  0.9916  2.1310
  600MOL0     H80939   9.549   6.347   8.338 -0.2878 -4.3994  2.1431
  600MOL0     H80940   9.604   6.378   8.161  2.6297 -3.1435 -2.2917
  600MOL0     H80941   9.631   6.111   8.319  0.1848 -0.8699 -1.0545
  600MOL0     H80942   9.645   6.134   8.144 -3.7096  0.0773  1.2128
  600MOL0     H80943   9.843   6.278   8.178 -0.4366  1.2977  0.6248
  600MOL0     H80944   9.784   6.289   8.345  0.7322 -1.4966  1.3989
  600MOL0     H80945   9.851   6.055   8.390 -0.3068 -1.2599 -0.6672
  600MOL0     H80946   9.885   6.029   8.229 -2.3102 -0.6762  0.6267
  600MOL0     H80947  10.075   6.149   8.213 -0.8611 -0.5213 -0.3591
  600MOL0     H80948  10.107   6.070   8.364  0.5445 -0.2633 -0.0049
  600MOL0     H80949  10.179   6.295   8.389  0.0486  1.0023  2.2109
  600MOL0     H80950  10.018   6.360   8.356  2.1646  1.3529 -1.3114
  600MOL0     H80951  10.192   6.132   8.622 -0.0168  0.3045  1.1297
  600MOL0     H80952  10.193   6.146   8.878  0.3721  2.9275 -0.0729
  600MOL0     H80953  10.083   6.260   8.953  1.8885 -1.4088 -0.1306
  600MOL0     H80954  10.065   6.012   9.024 -0.2900 -0.4056  0.1561
  600MOL0     H80955   9.923   6.113   8.986  0.7732  1.1688  0.1091
  600MOL0     H80956  10.060   5.916   8.779  1.7327  2.1566  1.7568
  600MOL0     H80957   9.905   5.991   8.762 -2.4448 -1.1069  1.3024
  600MOL0     H80958   9.927   5.790   8.984  1.6259  1.9372 -0.4322
  600MOL0     H80959   9.862   5.767   8.829 -0.4315 -0.0913  1.4380
  600MOL0     H80960   9.545   5.761   8.912  0.2272  0.2286  0.7932
  600MOL0     H80961   9.419   5.638   9.097  0.6872 -0.2226  0.9492
  600MOL0     H80962   9.323   5.284   9.353 -3.0492 -0.2967 -1.6261
  600MOL0     H80963   9.175   5.183   9.501  1.5532 -0.5327 -2.0919
  600MOL0     H80964   8.909   5.441   9.787 -1.2157 -1.5601  1.2257
  600MOL0     H80965   8.836   5.467   9.622  2.7019 -1.8968 -3.5711
  600MOL0     H80966   8.679   5.384   9.791  1.9475 -0.1032  3.5884
  600MOL0     H80967   8.705   5.270   9.653  1.7108  3.0768 -3.2894
  600MOL0     H80968   8.883   5.147   9.804 -1.6246 -3.3323 -2.2860
  600MOL0     H80969   8.829   5.260   9.934 -3.0003 -0.6506  0.4431
  600MOL0     H80970   8.749   5.028   9.921  0.0674  1.1043  3.2674
  600MOL0     H80971   8.636   5.081   9.788 -0.0191  1.4291 -0.7019
  600MOL0     H80972   8.542   5.267   9.920 -1.0586 -2.5162 -3.0153
  600MOL0     H80973   8.649   5.223  10.055  0.8717 -2.4557  0.4221
  600MOL0     H80974   8.422   5.031   9.933 -0.1442  0.2195  0.3971
  600MOL0     H80975   8.530   5.000  10.073 -0.2590  1.5745  1.4828
  600MOL0     H80976   8.312   5.221  10.068 -2.5293 -2.5884 -0.7143
  600MOL0     H80977   8.443   5.204  10.183  2.1703 -0.5430 -1.5427
  600MOL0     H80978   8.253   4.974  10.122  0.3662 -0.3010 -1.3029
  600MOL0     H80979   8.365   4.989  10.261 -0.2335 -1.1988 -1.6547
  600MOL0     H80980   9.007   5.583   9.587 -1.8793  0.4359 -2.0057
  600MOL0     H80981   9.199   5.678   9.465 -1.8615 -0.0227  1.3436
  600MOL0     H80982   9.703   5.792   9.374 -1.7644 -1.6080  1.0052
  600MOL0     H80983   9.809   5.919   9.196 -0.6191  0.0781  2.6352
  600MOL0     H80984   9.064   6.239   7.951 -0.1967 -1.1601 -0.6994
  600MOL0     H80985   9.078   6.206   7.721 -0.2760  0.3732 -1.2281
  600MOL0     H80986   9.310   6.231   7.331  2.2790  3.5051  5.4553
  600MOL0     H80987   9.336   6.237   7.084 -1.8088  0.1378  0.8309
  600MOL0     H80988   9.460   6.623   6.921 -1.1001  2.3547  2.2307
  600MOL0     H80989   9.288   6.618   6.892  1.0047  1.4708 -1.4951
  600MOL0     H80990   9.353   6.426   6.722 -0.1173  1.4217 -1.0362
  600MOL0     H80991   9.520   6.493   6.728  0.5513 -2.2430  3.1645
  600MOL0     H80992   9.421   6.699   6.639  0.1367  0.6666  0.3480
  600MOL0     H80993   9.260   6.636   6.683 -1.2237  0.2628 -1.4507
  600MOL0     H80994   9.425   6.589   6.452  1.3360  0.5321  1.5231
  600MOL0     H80995   9.361   6.435   6.505  1.0230  1.4640  0.6626
  600MOL0     H80996   9.005   6.632   6.390  0.0264 -1.6401  1.7230
  600MOL0     H80997   9.356   6.665   7.106 -1.1194  0.0732 -0.9287
  600MOL0     H80998   9.409   6.768   7.311 -2.1844  0.6099  0.2389
  600MOL0     H80999   9.258   6.730   7.396 -0.6464 -3.4360 -1.2104
  600MOL0     H81000   9.414   6.671   7.461 -1.4387 -4.5200  0.8828
  601MOL0     O81001   7.070  10.796   8.834  0.1435  1.1638 -0.3335
  601MOL0     C81002   6.969  10.741   8.863  0.7396 -0.3172  0.3956
  601MOL0     O81003   6.946  10.663   8.970  0.5311 -0.0822 -0.5795
  601MOL0     C81004   6.989  10.691   9.095  0.7277 -0.5867  0.4964
  601MOL0     C81005   6.952  10.603   9.201  0.4739  0.5570 -0.3338
  601MOL0     C81006   6.976  10.645   9.339  0.6901 -0.0924 -0.2232
  601MOL0     C81007   7.035  10.766   9.372 -0.2093  0.3973 -0.6084
  601MOL0     O81008   7.057  10.811   9.498 -0.1143 -1.2158 -0.2448
  601MOL0     C81009   7.024  10.724   9.605 -0.0441  1.1524 -0.0801
  601MOL0     C81010   7.065  10.769   9.738 -0.5725 -0.3740 -0.9538
  601MOL0     C81011   7.206  10.818   9.750  0.0500  0.2429  0.4251
  601MOL0     C81012   7.303  10.728   9.681  0.1353 -1.5776 -0.1094
  601MOL0     C81013   7.441  10.782   9.705  0.4367  0.7310 -1.0289
  601MOL0     C81014   7.556  10.704   9.651 -0.9663 -0.9555 -0.8572
  601MOL0     C81015   7.682  10.736   9.745 -0.5719  0.5741  0.3958
  601MOL0     C81016   7.811  10.681   9.695 -0.2827  0.8948  0.5903
  601MOL0     N81017   7.825  10.532   9.695  0.7760  0.0473  0.0344
  601MOL0     C81018   7.862  10.452   9.592  0.2434 -0.7864  0.0125
  601MOL0     C81019   7.840  10.326   9.631  0.0032  0.4426 -0.1768
  601MOL0     C81020   7.878  10.190   9.579 -0.3665 -0.4631 -0.0248
  601MOL0     C81021   7.773  10.104   9.508  0.7362  0.9009  0.0134
  601MOL0     C81022   7.622  10.128   9.543 -0.0183  1.0077 -0.5293
  601MOL0     C81023   7.593  10.053   9.669 -0.8290  0.1563  1.2008
  601MOL0     O81024   7.463  10.062   9.719  0.8907  0.0570 -0.0501
  601MOL0     C81025   7.355  10.011   9.648  0.5839  0.1209 -0.2766
  601MOL0     C81026   7.232  10.028   9.708  0.0067  0.6640 -0.5705
  601MOL0     C81027   7.107   9.983   9.660 -0.2845  0.1221 -0.4231
  601MOL0     C81028   7.106   9.904   9.535  0.2678  0.6486  0.6397
  601MOL0     C81029   6.985   9.846   9.479  0.1222  0.3283  0.5486
  601MOL0     O81030   6.884   9.834   9.565 -0.2539  0.0495  0.2514
  601MOL0     C81031   6.770   9.776   9.513 -0.3304 -1.1799 -0.4831
  601MOL0     C81032   6.756   9.638   9.519 -0.4996 -0.2842 -0.6878
  601MOL0     C81033   6.627   9.579   9.494 -1.0141  0.2362  0.0890
  601MOL0     C81034   6.522   9.665   9.450  0.0423  0.0516  0.3152
  601MOL0     O81035   6.395   9.623   9.429 -0.2702  0.2232 -1.4299
  601MOL0     C81036   6.359   9.495   9.454  0.1678  0.1469  0.3180
  601MOL0     C81037   6.231   9.476   9.376  0.1940 -0.6153  0.5235
  601MOL0     C81038   6.117   9.583   9.416 -0.3429  1.1602 -0.2202
  601MOL0     C81039   6.101   9.683   9.303 -0.3456  0.6511  0.2730
  601MOL0     C81040   5.992   9.788   9.325 -0.3914  0.1966  0.4530
  601MOL0     C81041   5.843   9.725   9.287  0.1416 -0.1960 -0.1463
  601MOL0     C81042   5.841   9.682   9.139  0.1754  0.2598  0.2259
  601MOL0     C81043   5.735   9.565   9.115  0.8109 -0.2206 -0.2606
  601MOL0    Cl81044   5.580   9.626   9.172  0.0694 -0.0121 -0.4223
  601MOL0     C81045   6.541   9.798   9.455  0.5391 -0.9576 -0.0108
  601MOL0     C81046   6.660   9.860   9.493  0.5434 -0.7917 -0.7348
  601MOL0     O81047   6.994   9.806   9.364  0.1449  0.2617 -0.1482
  601MOL0     C81048   7.232   9.887   9.475  0.2325  0.4213 -0.6864
  601MOL0     C81049   7.358   9.940   9.522 -1.2176 -1.2371 -0.4311
  601MOL0     N81050   7.779  10.330   9.754  0.4828 -0.4152  1.2900
  601MOL0     N81051   7.767  10.452   9.792  0.7174 -0.1213  0.4517
  601MOL0     C81052   7.080  10.852   9.271  0.8913  0.0438 -0.6982
  601MOL0     C81053   7.054  10.818   9.137 -0.2149 -0.6901 -0.0804
  601MOL0     C81054   6.873  10.725   8.752  0.3742  0.4250 -0.1587
  601MOL0     C81055   6.778  10.620   8.744  0.9149 -0.2121 -0.3820
  601MOL0     C81056   6.667  10.616   8.653 -1.5166  0.7166  0.9931
  601MOL0     C81057   6.663  10.711   8.552  0.2017  0.5171 -0.1360
  601MOL0     O81058   6.558  10.701   8.466  0.5000 -0.4637  0.8742
  601MOL0     C81059   6.541  10.802   8.358 -0.2275 -0.1686  0.5022
  601MOL0     C81060   6.421  10.760   8.271  0.3986  0.2138  0.0538
  601MOL0     C81061   6.292  10.746   8.360 -0.6835  0.0161  0.0846
  601MOL0     C81062   6.162  10.715   8.280 -0.2580  0.5329  1.1062
  601MOL0     C81063   6.114  10.836   8.213  0.0866  0.3310 -0.4010
  601MOL0     C81064   6.072  10.944   8.165  0.5010  1.1238  0.9451
  601MOL0     C81065   6.764  10.800   8.539 -0.8629 -0.0250 -1.2170
  601MOL0     C81066   6.869  10.818   8.638 -0.1357 -0.0808 -0.9371
  601MOL0     C81067   6.965  10.933   8.614  1.0492 -0.9090  0.9966
  601MOL0     H81068   6.883  10.525   9.168  1.0782  0.1448 -0.6497
  601MOL0     H81069   6.936  10.572   9.409 -2.3732  1.2180 -0.4424
  601MOL0     H81070   6.916  10.710   9.590 -0.1810  3.9379 -2.7564
  601MOL0     H81071   7.070  10.625   9.591  1.3504  1.3567  2.5676
  601MOL0     H81072   7.051  10.693   9.815  0.4107  1.2912  0.9519
  601MOL0     H81073   7.001  10.853   9.768 -0.9561 -0.3333 -1.8574
  601MOL0     H81074   7.241  10.810   9.854 -0.5059 -2.6281  0.4978
  601MOL0     H81075   7.209  10.920   9.710 -4.1518  1.2315  2.1534
  601MOL0     H81076   7.287  10.628   9.722  1.6578 -1.7026  0.2592
  601MOL0     H81077   7.301  10.736   9.572 -0.1103 -2.6229 -0.1925
  601MOL0     H81078   7.448  10.891   9.696  0.4042  1.0359  1.8477
  601MOL0     H81079   7.458  10.777   9.813 -0.5856 -1.4572 -0.9010
  601MOL0     H81080   7.537  10.596   9.656 -2.1968 -0.7019  1.6904
  601MOL0     H81081   7.571  10.737   9.547 -0.6088  1.0540 -0.2056
  601MOL0     H81082   7.662  10.711   9.850 -2.1435 -1.3380 -0.2992
  601MOL0     H81083   7.687  10.845   9.737 -0.6881  0.9389  3.6497
  601MOL0     H81084   7.837  10.718   9.595 -0.1913 -0.4367  0.1020
  601MOL0     H81085   7.891  10.719   9.760  0.6355 -2.3147  1.5111
  601MOL0     H81086   7.926  10.476   9.507 -2.1145  0.4379 -1.5309
  601MOL0     H81087   7.959  10.192   9.505 -2.3538  0.0206 -2.3131
  601MOL0     H81088   7.912  10.131   9.664  0.8318  1.7606  1.1081
  601MOL0     H81089   7.787  10.095   9.400  0.0491 -2.7515  0.1047
  601MOL0     H81090   7.788  10.000   9.537 -1.6190  1.0628  2.1635
  601MOL0     H81091   7.562  10.095   9.458  0.0585  2.8798 -1.3629
  601MOL0     H81092   7.598  10.233   9.564 -0.1617  1.0001 -0.6598
  601MOL0     H81093   7.660  10.100   9.741  0.0126  3.0437 -1.3121
  601MOL0     H81094   7.624   9.948   9.669 -1.1377  0.0525  2.2317
  601MOL0     H81095   7.223  10.077   9.804 -0.4649  2.9002 -1.6843
  601MOL0     H81096   7.011   9.992   9.710 -0.3087 -0.7059 -0.3027
  601MOL0     H81097   6.847   9.590   9.554  0.3570  0.9042 -1.2134
  601MOL0     H81098   6.621   9.472   9.514  0.1568 -0.4898 -2.9675
  601MOL0     H81099   6.426   9.418   9.417 -1.5808 -1.3476  0.1263
  601MOL0     H81100   6.350   9.470   9.560 -1.1991  1.5407  0.5714
  601MOL0     H81101   6.252   9.475   9.268  1.6631  1.4309  0.7423
  601MOL0     H81102   6.189   9.376   9.392 -0.4795 -0.2979  0.7718
  601MOL0     H81103   6.032   9.518   9.437  1.5430 -1.2285  0.4486
  601MOL0     H81104   6.141   9.634   9.510  0.3030 -1.5430  1.1737
  601MOL0     H81105   6.106   9.642   9.202  3.0561 -0.0038  0.5881
  601MOL0     H81106   6.199   9.731   9.311 -1.3889  2.9226  0.0389
  601MOL0     H81107   6.018   9.880   9.273 -0.5329 -0.6200 -1.1106
  601MOL0     H81108   5.993   9.825   9.428 -1.3713  3.1632 -0.5215
  601MOL0     H81109   5.824   9.638   9.351 -2.1633  1.1850  1.1882
  601MOL0     H81110   5.784   9.809   9.324  3.7717  0.6186  4.9153
  601MOL0     H81111   5.937   9.666   9.090 -0.8588  0.0408 -1.8486
  601MOL0     H81112   5.799   9.764   9.079  1.4090 -0.1147 -1.1813
  601MOL0     H81113   5.733   9.545   9.007  1.4933 -3.3530  0.2133
  601MOL0     H81114   5.762   9.466   9.153  1.0395 -0.6159 -1.4032
  601MOL0     H81115   6.459   9.859   9.420 -1.1723 -2.8343  0.5523
  601MOL0     H81116   6.680   9.967   9.502  1.1701 -1.0835  2.4840
  601MOL0     H81117   7.230   9.828   9.384  0.0505  2.6517 -2.2106
  601MOL0     H81118   7.448   9.916   9.467  0.5035 -3.4587  3.0261
  601MOL0     H81119   7.130  10.946   9.295  1.4012 -0.7612  1.6315
  601MOL0     H81120   7.075  10.886   9.056 -0.4599  0.1091  0.5053
  601MOL0     H81121   6.766  10.541   8.817 -3.5523 -0.2490 -0.8459
  601MOL0     H81122   6.595  10.537   8.674 -1.0899 -0.1259 -0.5924
  601MOL0     H81123   6.628  10.814   8.292 -0.2044 -3.5639 -0.2798
  601MOL0     H81124   6.521  10.899   8.403 -2.6797 -1.0866  1.5427
  601MOL0     H81125   6.443  10.662   8.228 -0.1132  0.8002 -1.6238
  601MOL0     H81126   6.410  10.836   8.193  1.6978  3.2752  2.6481
  601MOL0     H81127   6.272  10.838   8.417 -2.6340 -0.1141 -0.3029
  601MOL0     H81128   6.303  10.673   8.441  1.6935  2.8038  2.5548
  601MOL0     H81129   6.186  10.635   8.209 -0.7875 -0.5736  2.1469
  601MOL0     H81130   6.087  10.673   8.348 -1.3973  2.1810  0.9117
  601MOL0     H81131   6.036  11.031   8.115  0.2609  0.3615 -0.2767
  601MOL0     H81132   6.765  10.880   8.465  0.5003  1.6510  0.5139
  601MOL0     H81133   7.056  10.886   8.574  1.0918 -1.6042  1.8835
  601MOL0     H81134   6.935  11.008   8.539  1.9311 -0.2650  1.2616
  601MOL0     H81135   6.977  10.993   8.704 -1.0279  1.0041  0.1013
  602MOL0     O81136  10.372   5.965   2.338 -0.4837 -0.8113  0.0408
  602MOL0     C81137  10.451   5.869   2.354  0.2763  0.0692  0.5499
  602MOL0     O81138  10.552   5.840   2.270  0.1610  0.1727  0.1684
  602MOL0     C81139  10.542   5.880   2.139 -0.2129 -0.5163  0.6784
  602MOL0     C81140  10.630   5.981   2.090 -0.7547  0.1860 -0.2558
  602MOL0     C81141  10.628   6.010   1.962  0.4805  0.2166  0.5988
  602MOL0     C81142  10.542   5.946   1.866  0.4610 -0.4974 -0.1096
  602MOL0     O81143  10.532   5.987   1.737 -0.2429 -0.7806 -0.6855
  602MOL0     C81144  10.615   6.093   1.692  0.4825 -0.1166  0.2380
  602MOL0     C81145  10.588   6.128   1.552  0.0031  0.2621  0.4248
  602MOL0     C81146  10.605   5.996   1.463 -0.1432  0.1591  0.2519
  602MOL0     C81147  10.570   6.038   1.321  1.2714  0.1205 -0.0071
  602MOL0     C81148  10.517   5.910   1.247 -0.2831 -0.0566 -0.1762
  602MOL0     C81149  10.485   5.929   1.108  0.3458 -0.0925  0.3897
  602MOL0     C81150  10.427   5.807   1.046 -0.3231 -1.2678  0.0735
  602MOL0     C81151  10.515   5.693   1.026 -0.5697 -0.1415  0.6444
  602MOL0     N81152  10.557   5.712   0.890 -0.2929 -0.9296 -0.1054
  602MOL0     C81153  10.499   5.660   0.781  0.1441  0.4456  0.1187
  602MOL0     C81154  10.550   5.729   0.678 -0.9479 -0.2261 -0.9937
  602MOL0     C81155  10.518   5.733   0.539  0.1674 -0.0247 -0.1100
  602MOL0     C81156  10.617   5.648   0.457 -0.6171  0.1242 -0.9687
  602MOL0     C81157  10.588   5.660   0.307  0.0841  0.1087 -0.2671
  602MOL0     C81158  10.678   5.582   0.209 -0.4668  0.6225  0.1713
  602MOL0     O81159  10.630   5.579   0.074 -0.0985 -0.0315  0.2422
  602MOL0     C81160  10.696   5.502  -0.015 -0.1629  0.5362  0.1040
  602MOL0     C81161  10.819   5.437   0.007 -0.3513 -0.0108 -0.1286
  602MOL0     C81162  10.877   5.368  -0.108 -0.3829 -0.2658 -1.1262
  602MOL0     C81163  10.813   5.365  -0.235  0.4963  0.2284 -0.3506
  602MOL0     C81164  10.864   5.273  -0.341  0.1783 -0.8188  0.6368
  602MOL0     O81165  10.953   5.169  -0.298 -0.3792 -0.7102 -0.2196
  602MOL0     C81166  11.027   5.098  -0.384  0.6377 -0.1324  0.4990
  602MOL0     C81167  11.090   5.156  -0.496 -0.5694  0.3917  0.3720
  602MOL0     C81168  11.172   5.082  -0.579  0.1203 -0.0938  0.8490
  602MOL0     C81169  11.187   4.942  -0.550 -0.3407  0.1129  0.6288
  602MOL0     O81170  11.275   4.862  -0.616  0.7026 -0.6027 -0.1869
  602MOL0     C81171  11.298   4.887  -0.756 -0.5393 -0.1955  0.6871
  602MOL0     C81172  11.407   4.782  -0.784 -0.0398  0.5386 -0.0060
  602MOL0     C81173  11.442   4.781  -0.927 -0.8994 -1.3531 -0.3619
  602MOL0     C81174  11.568   4.700  -0.962 -0.1869  0.6304  0.1310
  602MOL0     C81175  11.574   4.666  -1.117 -0.9013 -0.5067  0.5397
  602MOL0     C81176  11.714   4.607  -1.141  0.4336  0.1676 -0.0847
  602MOL0     C81177  11.828   4.704  -1.134 -0.3922  0.3227  0.4626
  602MOL0     C81178  11.960   4.640  -1.183  0.0481  0.5560  0.1678
  602MOL0    Cl81179  12.104   4.757  -1.179  0.2809 -0.2284 -0.0169
  602MOL0     C81180  11.118   4.890  -0.442 -0.2044  0.5630  0.5827
  602MOL0     C81181  11.029   4.970  -0.365 -0.3930 -0.0944  0.3654
  602MOL0     O81182  10.825   5.290  -0.455  0.2290 -0.0900  0.7629
  602MOL0     C81183  10.681   5.414  -0.246 -0.2132  1.3754  0.6923
  602MOL0     C81184  10.634   5.487  -0.140  0.5867  1.3315  0.6796
  602MOL0     N81185  10.652   5.813   0.730 -0.3760 -0.6638 -0.1339
  602MOL0     N81186  10.665   5.795   0.858  0.2517 -0.1370  0.4748
  602MOL0     C81187  10.450   5.853   1.919 -0.0170  0.6335  0.6415
  602MOL0     C81188  10.452   5.817   2.052  0.7820  0.6453  1.2804
  602MOL0     C81189  10.444   5.771   2.472  0.5460  0.2961 -0.0519
  602MOL0     C81190  10.507   5.648   2.454 -1.1824 -0.1150  0.8338
  602MOL0     C81191  10.511   5.553   2.557  0.1399 -0.4473  1.1643
  602MOL0     C81192  10.439   5.583   2.680 -0.1805 -0.8517  1.1888
  602MOL0     O81193  10.433   5.495   2.783 -0.6102  0.1224  0.8466
  602MOL0     C81194  10.336   5.394   2.777 -0.0652  0.3700  0.2928
  602MOL0     C81195  10.391   5.270   2.864  0.2210 -1.4367  0.4601
  602MOL0     C81196  10.491   5.177   2.784  0.2220 -0.6344 -0.4514
  602MOL0     C81197  10.521   5.040   2.842 -0.0977  0.3154 -0.1424
  602MOL0     C81198  10.584   5.047   2.969  0.9666  0.2760  0.1321
  602MOL0     C81199  10.638   5.061   3.073 -0.2836 -0.9167  0.0399
  602MOL0     C81200  10.378   5.706   2.706  0.4215  0.8254  0.2609
  602MOL0     C81201  10.379   5.799   2.596  0.0436 -0.3046 -1.2599
  602MOL0     C81202  10.284   5.912   2.617  0.5712 -0.3572  0.4182
  602MOL0     H81203  10.702   6.038   2.148 -1.3151 -0.8173  1.5065
  602MOL0     H81204  10.704   6.084   1.937  3.3659 -2.3120  1.2680
  602MOL0     H81205  10.619   6.186   1.749  2.5129  0.5534 -0.8932
  602MOL0     H81206  10.710   6.044   1.716 -0.2322 -0.5796  2.3082
  602MOL0     H81207  10.665   6.198   1.518  2.2403 -2.3485 -0.2777
  602MOL0     H81208  10.491   6.178   1.540  0.3970  0.8771 -0.3001
  602MOL0     H81209  10.537   5.923   1.508  0.8002 -1.0926 -0.3172
  602MOL0     H81210  10.710   5.971   1.478 -0.7178 -0.8447  3.3440
  602MOL0     H81211  10.497   6.120   1.320  1.8894  0.7051  0.8686
  602MOL0     H81212  10.661   6.058   1.263  0.8958  0.6413 -0.4275
  602MOL0     H81213  10.600   5.838   1.256 -1.2554 -1.0827  1.0074
  602MOL0     H81214  10.439   5.856   1.301 -0.5967  0.1429 -0.4317
  602MOL0     H81215  10.408   6.007   1.102  0.7614  0.3378  0.5903
  602MOL0     H81216  10.568   5.976   1.055 -1.0298  0.5643 -1.2717
  602MOL0     H81217  10.387   5.849   0.953  1.0762  3.2067  1.2489
  602MOL0     H81218  10.345   5.767   1.106  0.3655 -0.1301  1.8370
  602MOL0     H81219  10.601   5.689   1.094  3.5959  0.1545 -3.9976
  602MOL0     H81220  10.464   5.597   1.017 -2.3487  0.7770  0.5494
  602MOL0     H81221  10.409   5.600   0.781  0.8802 -0.7190  1.6240
  602MOL0     H81222  10.413   5.714   0.516  0.2061 -1.6325  0.8668
  602MOL0     H81223  10.537   5.834   0.501  0.1730 -0.7281 -2.1014
  602MOL0     H81224  10.721   5.676   0.478 -0.3457 -1.5324  0.0205
  602MOL0     H81225  10.593   5.551   0.499 -1.3196  0.3044 -0.9501
  602MOL0     H81226  10.590   5.765   0.276 -1.3035  0.4277  0.6279
  602MOL0     H81227  10.487   5.622   0.287  0.6566 -0.7700 -1.6366
  602MOL0     H81228  10.676   5.477   0.239  0.0426 -0.2781 -2.6185
  602MOL0     H81229  10.782   5.615   0.211 -0.3529  0.3754 -0.8516
  602MOL0     H81230  10.865   5.428   0.105  1.2798 -1.2613 -0.9622
  602MOL0     H81231  10.973   5.320  -0.092 -0.1249 -0.2520 -2.4693
  602MOL0     H81232  11.079   5.263  -0.505 -2.3109  0.0803 -2.0736
  602MOL0     H81233  11.226   5.144  -0.650  0.0862 -0.1387  0.7840
  602MOL0     H81234  11.210   4.858  -0.814  0.6864 -3.7701  0.3644
  602MOL0     H81235  11.331   4.988  -0.784  1.2969 -1.7430 -3.4305
  602MOL0     H81236  11.495   4.791  -0.720  0.3372  1.6025 -0.6559
  602MOL0     H81237  11.363   4.683  -0.766 -4.3972  2.3540  0.3812
  602MOL0     H81238  11.357   4.746  -0.986 -0.8716 -1.7064 -0.1963
  602MOL0     H81239  11.469   4.878  -0.969  0.8690 -2.5907 -2.2778
  602MOL0     H81240  11.561   4.610  -0.900  2.6497  2.3861  3.3385
  602MOL0     H81241  11.654   4.749  -0.915 -0.2039 -1.7012  2.8580
  602MOL0     H81242  11.577   4.755  -1.182  4.7917  0.7448  1.9923
  602MOL0     H81243  11.493   4.601  -1.150 -2.0567  1.2929 -0.3562
  602MOL0     H81244  11.735   4.518  -1.080 -1.9961 -1.9273 -2.0778
  602MOL0     H81245  11.717   4.572  -1.245  3.1841 -1.4299  0.4367
  602MOL0     H81246  11.833   4.731  -1.028 -2.3195 -2.9818  1.5355
  602MOL0     H81247  11.796   4.788  -1.196 -1.6183  0.4487  1.2133
  602MOL0     H81248  11.987   4.550  -1.127 -4.3398 -0.9588  0.2159
  602MOL0     H81249  11.957   4.608  -1.287 -0.0350  0.6816  0.1312
  602MOL0     H81250  11.129   4.784  -0.424  1.7056  0.5067 -0.6633
  602MOL0     H81251  10.971   4.930  -0.283 -1.7675  1.3087  0.1158
  602MOL0     H81252  10.626   5.405  -0.339  1.3111  0.5267 -0.1563
  602MOL0     H81253  10.536   5.532  -0.155 -0.8081 -1.3259  1.3172
  602MOL0     H81254  10.374   5.816   1.850  0.9011 -0.4153  0.1704
  602MOL0     H81255  10.382   5.745   2.093  0.5836 -1.9898 -3.0107
  602MOL0     H81256  10.582   5.636   2.376  0.3299  1.6662  1.9239
  602MOL0     H81257  10.573   5.464   2.557 -0.1575 -0.7809  4.6983
  602MOL0     H81258  10.309   5.362   2.676  1.6523  2.5359 -0.9311
  602MOL0     H81259  10.243   5.431   2.821  0.0761 -2.4167  3.3479
  602MOL0     H81260  10.306   5.202   2.875 -3.2311  2.4836  0.3311
  602MOL0     H81261  10.418   5.314   2.961  0.4210 -0.0526 -0.2038
  602MOL0     H81262  10.587   5.230   2.777  0.2244 -0.6768 -0.7905
  602MOL0     H81263  10.452   5.153   2.685 -0.2747  0.1357 -0.4422
  602MOL0     H81264  10.429   4.981   2.843  1.2968 -1.9978 -1.1703
  602MOL0     H81265  10.588   4.995   2.768  2.8964  2.3566  1.1086
  602MOL0     H81266  10.692   5.075   3.164  2.7640 -2.5709 -1.3549
  602MOL0     H81267  10.325   5.720   2.799  2.7062 -2.7972  2.3774
  602MOL0     H81268  10.330   6.004   2.656 -3.1446  2.1506 -0.5780
  602MOL0     H81269  10.228   5.928   2.524 -2.6313 -5.4014  1.1330
  602MOL0     H81270  10.205   5.872   2.680 -1.8753  2.7959 -0.4007
  603MOL0     O81271   3.526   4.656  10.271 -0.0304 -1.6446 -0.0698
  603MOL0     C81272   3.613   4.749  10.255 -0.0111 -0.1166  0.6042
  603MOL0     O81273   3.643   4.856  10.340  0.3354 -0.1646  0.1217
  603MOL0     C81274   3.598   4.882  10.467  0.2091 -0.2473 -0.3220
  603MOL0     C81275   3.492   4.817  10.535 -0.2519 -0.0140 -0.0427
  603MOL0     C81276   3.463   4.833  10.680 -0.9965 -0.5161  0.1716
  603MOL0     C81277   3.544   4.923  10.750  0.4347 -0.6081  0.5378
  603MOL0     O81278   3.545   4.947  10.887  0.5493  0.6622  0.4922
  603MOL0     C81279   3.438   4.890  10.973  0.1671  0.2331  0.2301
  603MOL0     C81280   3.446   4.927  11.125 -0.2507  0.2053 -0.3716
  603MOL0     C81281   3.450   5.074  11.147  0.6425  1.0157 -0.2042
  603MOL0     C81282   3.479   5.105  11.293 -1.0809 -0.6063 -0.0599
  603MOL0     C81283   3.621   5.080  11.347 -0.6043  0.4124  0.7583
  603MOL0     C81284   3.611   5.067  11.491  0.3267 -0.3669 -0.8232
  603MOL0     C81285   3.747   5.024  11.552  0.2860 -0.0800 -0.0007
  603MOL0     C81286   3.730   4.965  11.696 -0.5749  0.6395 -0.0597
  603MOL0     N81287   3.674   4.826  11.675  0.3327 -0.5469  0.3017
  603MOL0     C81288   3.540   4.794  11.698  0.2891 -1.0335  0.6304
  603MOL0     C81289   3.517   4.662  11.677 -0.6320  0.7204  0.1878
  603MOL0     C81290   3.387   4.586  11.680 -0.7322 -0.7813  0.0397
  603MOL0     C81291   3.344   4.496  11.558 -0.1532 -1.2500 -0.2426
  603MOL0     C81292   3.338   4.589  11.434 -0.5270 -0.8123  0.0640
  603MOL0     C81293   3.299   4.522  11.301 -0.5986  0.2258  0.6801
  603MOL0     O81294   3.421   4.472  11.243  0.3205  0.4021  0.4864
  603MOL0     C81295   3.425   4.445  11.101 -0.5988  0.4825 -0.5064
  603MOL0     C81296   3.328   4.486  11.008 -0.1458  0.4870  0.3472
  603MOL0     C81297   3.333   4.450  10.874 -0.1270  0.1194 -0.3186
  603MOL0     C81298   3.429   4.360  10.825 -0.2342 -1.1288  0.2177
  603MOL0     C81299   3.447   4.323  10.680  0.4848 -0.7052  0.0753
  603MOL0     O81300   3.544   4.242  10.657  0.0708  0.7433  0.5186
  603MOL0     C81301   3.573   4.212  10.521  0.7372  0.4739 -1.4260
  603MOL0     C81302   3.647   4.095  10.504 -0.2749 -0.5483  0.9567
  603MOL0     C81303   3.691   4.048  10.383  0.0886 -0.7127 -0.6229
  603MOL0     C81304   3.658   4.110  10.270 -0.3636  1.1391 -0.1457
  603MOL0     O81305   3.716   4.058  10.158 -0.1471 -0.4912 -0.5919
  603MOL0     C81306   3.654   4.090  10.028  0.1200 -0.5761 -0.4931
  603MOL0     C81307   3.712   4.011   9.920 -0.0814 -0.5672  0.1744
  603MOL0     C81308   3.652   4.051   9.785  0.3801 -0.5676  0.3460
  603MOL0     C81309   3.641   3.922   9.702  0.2898 -0.2682  0.1648
  603MOL0     C81310   3.659   3.933   9.550 -0.2303 -0.4046 -0.2703
  603MOL0     C81311   3.685   3.809   9.472  1.0843 -0.3679 -0.3061
  603MOL0     C81312   3.731   3.841   9.332 -0.4231 -0.0689 -1.6160
  603MOL0     C81313   3.624   3.869   9.230  0.5426  0.3098  0.4430
  603MOL0    Cl81314   3.701   3.934   9.073  0.2773 -0.0863 -0.2258
  603MOL0     C81315   3.575   4.223  10.280  0.9015  0.1413 -0.4992
  603MOL0     C81316   3.549   4.288  10.403 -0.6346 -0.7408 -1.0956
  603MOL0     O81317   3.363   4.366  10.596 -0.6495 -0.3577 -0.0640
  603MOL0     C81318   3.526   4.322  10.927  0.0199 -0.2816 -0.3185
  603MOL0     C81319   3.517   4.353  11.060 -0.0346 -1.1122 -0.3112
  603MOL0     N81320   3.640   4.609  11.647 -0.0274 -1.3564 -0.3935
  603MOL0     N81321   3.735   4.710  11.652  0.8455 -0.1951 -0.6037
  603MOL0     C81322   3.644   4.998  10.678 -1.1252  0.3482 -0.0946
  603MOL0     C81323   3.676   4.973  10.541 -0.1362 -0.0131  0.4123
  603MOL0     C81324   3.702   4.750  10.141 -0.7240  0.3992 -1.1453
  603MOL0     C81325   3.701   4.862  10.057  0.0213  0.4849  0.1250
  603MOL0     C81326   3.793   4.884   9.957  0.3843  0.8925 -0.1371
  603MOL0     C81327   3.873   4.779   9.916  0.1824  0.6792  0.9201
  603MOL0     O81328   3.955   4.782   9.803  0.1326 -0.7019  1.2363
  603MOL0     C81329   3.907   4.710   9.690  0.0180  0.1395 -0.5342
  603MOL0     C81330   3.920   4.798   9.562  0.3708 -0.3346 -0.2548
  603MOL0     C81331   3.807   4.899   9.538 -0.1794  0.6003  0.2235
  603MOL0     C81332   3.870   5.014   9.469 -0.8322  0.2278  0.6662
  603MOL0     C81333   3.854   4.998   9.328 -0.7164  0.1609  0.2289
  603MOL0     C81334   3.851   4.996   9.203 -0.1019 -0.6323 -0.6066
  603MOL0     C81335   3.853   4.654   9.979 -0.4114 -0.8754  0.5034
  603MOL0     C81336   3.784   4.645  10.101  0.5594  0.1321  0.1580
  603MOL0     C81337   3.795   4.522  10.177  0.7042  0.5074  0.4738
  603MOL0     H81338   3.428   4.749  10.480  3.0043 -2.7484 -0.8126
  603MOL0     H81339   3.382   4.778  10.727 -2.6732 -0.0946 -2.0080
  603MOL0     H81340   3.342   4.929  10.940  0.7593 -0.6075 -2.8768
  603MOL0     H81341   3.431   4.782  10.960 -0.1551  0.4593 -1.7453
  603MOL0     H81342   3.542   4.886  11.156 -1.3624 -1.2993  1.2497
  603MOL0     H81343   3.368   4.863  11.169  3.8797 -4.6696  0.7915
  603MOL0     H81344   3.352   5.120  11.131  0.9197  1.9076  0.5408
  603MOL0     H81345   3.532   5.116  11.087  2.1500 -0.3893  0.7758
  603MOL0     H81346   3.481   5.211  11.319  0.2463 -0.5110 -0.4919
  603MOL0     H81347   3.406   5.051  11.355 -0.9672 -0.0233  0.5959
  603MOL0     H81348   3.665   4.995  11.294 -2.7390 -1.1654  1.3862
  603MOL0     H81349   3.687   5.160  11.313  2.4249 -1.3019  2.2291
  603MOL0     H81350   3.591   5.161  11.543 -0.7133  0.0549 -1.9693
  603MOL0     H81351   3.528   4.998  11.506  1.3555 -1.7529 -1.2562
  603MOL0     H81352   3.809   5.115  11.553 -1.1759  0.9686 -0.6818
  603MOL0     H81353   3.789   4.953  11.481  0.3860 -0.1446  0.1209
  603MOL0     H81354   3.828   4.943  11.739 -1.0814 -3.4034 -0.5839
  603MOL0     H81355   3.672   5.031  11.760 -0.2522 -0.0741  1.0013
  603MOL0     H81356   3.470   4.875  11.716  1.0210 -0.0050 -0.9312
  603MOL0     H81357   3.395   4.535  11.776  2.0601 -3.3693 -1.4111
  603MOL0     H81358   3.306   4.660  11.690  1.0681  0.9629  3.5342
  603MOL0     H81359   3.417   4.416  11.553  0.8458 -0.3830  0.1208
  603MOL0     H81360   3.239   4.472  11.578 -1.7542  3.2338 -1.8957
  603MOL0     H81361   3.439   4.630  11.422 -0.0866 -1.3684  1.6164
  603MOL0     H81362   3.278   4.675  11.462  0.1790  0.0061 -0.8581
  603MOL0     H81363   3.273   4.600  11.229  1.2527 -1.7791 -2.3649
  603MOL0     H81364   3.216   4.452  11.308  0.3218 -1.6266 -3.6039
  603MOL0     H81365   3.252   4.552  11.049  1.6368  2.4771  0.6495
  603MOL0     H81366   3.267   4.502  10.805  0.2126  1.6806  0.4725
  603MOL0     H81367   3.691   4.047  10.591  0.0492 -1.1234  0.4811
  603MOL0     H81368   3.742   3.953  10.368 -0.1238 -0.6711 -1.7475
  603MOL0     H81369   3.546   4.079  10.046  0.2901 -0.9994  0.3405
  603MOL0     H81370   3.676   4.193  10.000 -1.9882 -0.5800 -2.4874
  603MOL0     H81371   3.818   4.040   9.916 -0.3690  0.7554  1.2929
  603MOL0     H81372   3.709   3.902   9.937  0.6435 -0.3586  1.9287
  603MOL0     H81373   3.551   4.090   9.804  0.4346  0.0678 -0.6136
  603MOL0     H81374   3.712   4.125   9.733 -0.7190 -2.0735 -3.4173
  603MOL0     H81375   3.545   3.874   9.721  1.4929 -2.9123 -0.0568
  603MOL0     H81376   3.723   3.861   9.740  0.5246  1.3181  2.3859
  603MOL0     H81377   3.743   4.000   9.529 -0.7719  0.8333  1.2225
  603MOL0     H81378   3.572   3.977   9.500 -0.3141 -0.6457 -0.3336
  603MOL0     H81379   3.764   3.756   9.526  0.0084 -3.2995 -1.3923
  603MOL0     H81380   3.592   3.753   9.460  0.3805  0.9796 -1.4615
  603MOL0     H81381   3.792   3.756   9.300 -1.6620  0.2791 -5.3703
  603MOL0     H81382   3.801   3.924   9.324 -3.2692  2.4975 -1.4542
  603MOL0     H81383   3.556   3.786   9.209 -0.4585  0.9752  1.0307
  603MOL0     H81384   3.571   3.956   9.270  1.4481  1.3130 -0.4749
  603MOL0     H81385   3.558   4.284  10.191  0.4680  0.3825 -0.2602
  603MOL0     H81386   3.500   4.385  10.408 -2.5363 -1.7181  1.7679
  603MOL0     H81387   3.597   4.247  10.894 -1.5255 -3.6211  3.1552
  603MOL0     H81388   3.584   4.320  11.140 -0.4172  4.2053  2.7300
  603MOL0     H81389   3.703   5.071  10.731 -2.2876  0.9171  0.4421
  603MOL0     H81390   3.751   5.037  10.496 -4.2113  3.9566 -1.6253
  603MOL0     H81391   3.655   4.949  10.103  1.1591  0.2032  1.9080
  603MOL0     H81392   3.808   4.985   9.921 -0.5630  0.4555 -1.8443
  603MOL0     H81393   3.806   4.673   9.710 -0.5104  1.3645 -0.8910
  603MOL0     H81394   3.956   4.613   9.674 -1.8985 -0.8349 -0.7866
  603MOL0     H81395   3.924   4.724   9.482  1.6210 -1.1318  0.5072
  603MOL0     H81396   4.016   4.847   9.579 -0.0359 -0.7645  4.8259
  603MOL0     H81397   3.748   4.933   9.624 -2.2239 -1.5829 -0.2046
  603MOL0     H81398   3.740   4.841   9.474  0.0103  0.4264  0.1820
  603MOL0     H81399   3.828   5.107   9.509 -0.1154 -0.8881  4.4793
  603MOL0     H81400   3.980   5.019   9.473 -0.8863  1.5013  1.0938
  603MOL0     H81401   3.839   4.975   9.098 -1.9022  0.1212 -0.5980
  603MOL0     H81402   3.917   4.581   9.931  0.1036  1.0255 -1.9215
  603MOL0     H81403   3.785   4.542  10.284  1.6463  0.0559  0.6655
  603MOL0     H81404   3.722   4.449  10.141  1.7085 -0.3915  0.2041
  603MOL0     H81405   3.894   4.476  10.163  0.8758  1.4243 -1.5619
  604MOL0     O81406   5.993   9.224   6.355  0.0248 -0.1895 -0.4119
  604MOL0     C81407   5.958   9.318   6.280 -0.6229 -0.7072  0.4778
  604MOL0     O81408   5.990   9.321   6.146  0.5035 -1.0279 -0.1465
  604MOL0     C81409   6.035   9.204   6.088  0.9340 -0.1151  1.2403
  604MOL0     C81410   6.170   9.200   6.056  0.0000  0.0627 -0.8020
  604MOL0     C81411   6.219   9.072   6.017 -0.2806 -0.7049  0.0535
  604MOL0     C81412   6.125   8.976   5.960 -0.5278 -0.7276 -0.1720
  604MOL0     O81413   6.180   8.874   5.889 -0.1449  0.2711  0.1731
  604MOL0     C81414   6.107   8.830   5.772 -0.0838 -0.9860  0.0825
  604MOL0     C81415   6.198   8.723   5.710 -0.6921  0.4456  0.3903
  604MOL0     C81416   6.180   8.679   5.560 -0.1344 -0.3449 -0.3342
  604MOL0     C81417   6.224   8.798   5.471  1.1056  0.6312  0.9081
  604MOL0     C81418   6.374   8.803   5.478 -0.1342 -0.3356  0.8572
  604MOL0     C81419   6.433   8.915   5.386 -0.2661 -0.2368 -0.7968
  604MOL0     C81420   6.411   9.065   5.430 -0.5759  0.8007 -0.7361
  604MOL0     C81421   6.420   9.097   5.581 -0.1170 -0.1681 -0.2325
  604MOL0     N81422   6.372   9.221   5.626 -0.1611 -0.3056 -0.4737
  604MOL0     C81423   6.276   9.248   5.723  0.3965 -0.3063  0.0804
  604MOL0     C81424   6.240   9.371   5.703 -0.2991 -1.0014  0.8379
  604MOL0     C81425   6.128   9.448   5.766 -0.5527 -0.3613 -0.2544
  604MOL0     C81426   5.999   9.376   5.775  1.1775  1.1741 -0.2369
  604MOL0     C81427   5.884   9.450   5.859  0.3403  0.2641 -0.0239
  604MOL0     C81428   5.757   9.365   5.884 -0.9511 -0.1750 -0.4672
  604MOL0     O81429   5.677   9.367   5.754 -0.2347 -0.0173 -0.2646
  604MOL0     C81430   5.560   9.438   5.762 -0.5802 -1.0198 -0.3064
  604MOL0     C81431   5.444   9.355   5.739 -0.5496 -0.2663 -0.5181
  604MOL0     C81432   5.322   9.416   5.709 -0.7417 -0.6847 -0.9322
  604MOL0     C81433   5.307   9.554   5.711  0.7251  0.7051  0.1802
  604MOL0     C81434   5.178   9.615   5.706  1.1842  0.5107  0.1102
  604MOL0     O81435   5.163   9.739   5.770  0.2796  0.2050 -0.3560
  604MOL0     C81436   5.057   9.830   5.745 -1.0326  0.6910 -0.0224
  604MOL0     C81437   4.987   9.841   5.631 -0.1346 -0.3269  0.1765
  604MOL0     C81438   4.864   9.900   5.636  0.3218 -0.7587  0.1479
  604MOL0     C81439   4.811   9.968   5.741  0.6863 -0.1664 -0.9885
  604MOL0     O81440   4.697  10.030   5.729  0.1267  0.4765 -0.1444
  604MOL0     C81441   4.669  10.145   5.816 -0.6313  0.2346 -0.0733
  604MOL0     C81442   4.611  10.113   5.958 -0.1472 -0.2076 -0.4144
  604MOL0     C81443   4.488  10.023   5.952  0.0277  0.0768 -0.1050
  604MOL0     C81444   4.472   9.956   6.091  0.7804  0.4646 -0.1344
  604MOL0     C81445   4.396  10.053   6.192 -0.0452 -1.8597  0.9450
  604MOL0     C81446   4.377   9.983   6.320  0.4030  0.2577  1.1505
  604MOL0     C81447   4.505   9.972   6.408  0.0634  0.2036  0.4298
  604MOL0     C81448   4.490   9.899   6.543  0.3219  0.4427 -0.6209
  604MOL0    Cl81449   4.661   9.858   6.585  0.3317  0.1416 -0.3462
  604MOL0     C81450   4.893   9.972   5.860  0.5227 -0.4430  1.4537
  604MOL0     C81451   5.016   9.901   5.856 -0.0913 -1.2038  0.1880
  604MOL0     O81452   5.086   9.560   5.643 -0.2730 -0.2286  0.6881
  604MOL0     C81453   5.414   9.633   5.755  0.6381 -0.3285  0.0959
  604MOL0     C81454   5.543   9.574   5.777  0.2711  0.0100  0.8993
  604MOL0     N81455   6.312   9.425   5.596  0.0918 -0.1149 -0.6634
  604MOL0     N81456   6.389   9.333   5.550  0.1358 -0.1676 -0.4646
  604MOL0     C81457   5.989   8.984   5.999  0.1177 -1.6153  0.0930
  604MOL0     C81458   5.947   9.094   6.077  1.1895  0.3841 -0.3404
  604MOL0     C81459   5.854   9.408   6.312 -0.8514 -0.8253 -0.2481
  604MOL0     C81460   5.723   9.382   6.272 -0.0163  0.8631  0.4423
  604MOL0     C81461   5.626   9.472   6.295 -0.1152 -0.4533 -0.7738
  604MOL0     C81462   5.641   9.587   6.373 -0.5962  0.3832  0.7101
  604MOL0     O81463   5.538   9.679   6.366 -0.2512  0.6687 -0.0872
  604MOL0     C81464   5.563   9.824   6.384 -1.3684  1.2278 -0.1939
  604MOL0     C81465   5.543   9.906   6.249  0.0708  0.0160 -1.1785
  604MOL0     C81466   5.660   9.863   6.158 -0.1085  0.0481  0.7131
  604MOL0     C81467   5.677   9.957   6.030  0.2322  0.1166 -0.4007
  604MOL0     C81468   5.558   9.973   5.949  0.1925 -0.1173  0.0280
  604MOL0     C81469   5.462   9.987   5.893  1.3173  0.4103  0.7749
  604MOL0     C81470   5.772   9.610   6.416 -0.3943 -0.4700  1.3951
  604MOL0     C81471   5.877   9.525   6.387  0.2111 -0.3669 -0.3575
  604MOL0     C81472   6.014   9.555   6.443 -0.3381 -0.6522  0.3682
  604MOL0     H81473   6.249   9.260   6.099  1.4649 -1.9705 -0.4972
  604MOL0     H81474   6.326   9.075   6.000 -0.2884  0.8633  0.1071
  604MOL0     H81475   6.009   8.790   5.800 -0.6105  1.6447  2.3645
  604MOL0     H81476   6.094   8.914   5.704  0.9126 -1.3206 -0.5400
  604MOL0     H81477   6.185   8.630   5.767  0.9253  0.7251  1.2685
  604MOL0     H81478   6.304   8.745   5.727 -0.3291  1.5310 -2.7245
  604MOL0     H81479   6.082   8.636   5.540 -0.2863 -0.3259  0.3372
  604MOL0     H81480   6.236   8.588   5.536 -0.6582 -1.2417  1.6997
  604MOL0     H81481   6.191   8.771   5.370  1.4039 -0.1740  1.0131
  604MOL0     H81482   6.183   8.896   5.494 -0.8485  0.6091 -1.9155
  604MOL0     H81483   6.409   8.813   5.581 -1.1271 -2.2025  1.4308
  604MOL0     H81484   6.417   8.709   5.442 -2.4280 -0.4972 -1.7786
  604MOL0     H81485   6.538   8.886   5.387 -0.1343  0.2399 -0.0867
  604MOL0     H81486   6.399   8.934   5.284 -0.0810  0.5185 -0.7236
  604MOL0     H81487   6.305   9.086   5.413 -1.3386  1.2434  3.4054
  604MOL0     H81488   6.473   9.134   5.373 -1.5873  1.8036 -0.6472
  604MOL0     H81489   6.390   9.010   5.641  4.5462 -1.5706  0.4324
  604MOL0     H81490   6.528   9.086   5.591 -0.0536  0.0494 -0.6549
  604MOL0     H81491   6.246   9.176   5.798  1.6685  0.3897  1.3220
  604MOL0     H81492   6.177   9.454   5.864 -2.4887 -2.4836  0.9266
  604MOL0     H81493   6.106   9.545   5.720 -3.3884 -1.8393 -2.2621
  604MOL0     H81494   5.968   9.351   5.673  3.6370  1.0917 -1.0320
  604MOL0     H81495   6.013   9.284   5.832  0.1408  2.3773  2.1091
  604MOL0     H81496   5.854   9.537   5.801  0.1704  0.1499 -0.1077
  604MOL0     H81497   5.922   9.479   5.957 -0.8046  0.5590  0.3516
  604MOL0     H81498   5.698   9.405   5.967  1.6751  0.6919  1.0888
  604MOL0     H81499   5.792   9.263   5.900 -0.9422 -0.3567 -1.5637
  604MOL0     H81500   5.452   9.248   5.724 -1.0385 -0.1544 -1.6698
  604MOL0     H81501   5.228   9.367   5.683 -2.7641  1.3323  1.9872
  604MOL0     H81502   5.022   9.792   5.540 -1.6662  1.6283 -1.5932
  604MOL0     H81503   4.796   9.907   5.552 -3.4729  0.9148  3.0462
  604MOL0     H81504   4.755  10.213   5.817 -0.5129  0.0888 -0.3332
  604MOL0     H81505   4.581  10.202   5.784 -1.9681  0.6423  3.7304
  604MOL0     H81506   4.687  10.080   6.029  0.3865 -0.5398 -1.1266
  604MOL0     H81507   4.592  10.212   5.999  1.1103  0.3533 -1.1303
  604MOL0     H81508   4.396  10.078   5.931 -1.2980 -1.8278  0.4993
  604MOL0     H81509   4.492   9.942   5.879 -2.2828 -0.3262  0.1529
  604MOL0     H81510   4.574   9.939   6.127 -0.1446 -0.7736  2.1530
  604MOL0     H81511   4.422   9.859   6.096  0.0215  0.8459 -0.2716
  604MOL0     H81512   4.309  10.098   6.144  3.9152  3.4526 -2.4775
  604MOL0     H81513   4.458  10.142   6.208 -1.6206 -0.3011 -1.0993
  604MOL0     H81514   4.292  10.027   6.374 -0.6689 -0.6364  0.2564
  604MOL0     H81515   4.336   9.883   6.305 -1.0655  0.9586  0.2200
  604MOL0     H81516   4.555  10.068   6.425 -0.2083  0.4619 -0.1931
  604MOL0     H81517   4.582   9.916   6.354  1.4541 -1.4378  3.8534
  604MOL0     H81518   4.430   9.955   6.616 -0.3393  2.2569 -2.4240
  604MOL0     H81519   4.434   9.805   6.534  0.8368 -0.6812  4.7457
  604MOL0     H81520   4.871  10.026   5.952  2.9542  2.3196  0.5898
  604MOL0     H81521   5.081   9.897   5.943 -1.7182 -1.3681  1.4361
  604MOL0     H81522   5.409   9.740   5.774  1.4185 -0.0326 -1.2474
  604MOL0     H81523   5.630   9.627   5.816  0.3709  0.7693 -0.3087
  604MOL0     H81524   5.921   8.902   5.979 -1.5480  0.0872 -1.8051
  604MOL0     H81525   5.841   9.093   6.099  1.6014  0.8733  2.0556
  604MOL0     H81526   5.719   9.289   6.217 -1.2800  2.5855 -2.6479
  604MOL0     H81527   5.530   9.441   6.255  0.0561  0.3355 -1.8326
  604MOL0     H81528   5.664   9.835   6.423 -0.5745  1.9468 -2.3763
  604MOL0     H81529   5.500   9.879   6.455  0.1287  1.0314  1.3384
  604MOL0     H81530   5.542  10.012   6.276 -4.4619 -0.0833  0.0318
  604MOL0     H81531   5.448   9.895   6.196  1.2309  1.2377 -3.6878
  604MOL0     H81532   5.637   9.762   6.123 -0.5154  1.3063 -3.0242
  604MOL0     H81533   5.755   9.871   6.213  1.6874 -3.0278 -1.6454
  604MOL0     H81534   5.717  10.053   6.064  2.6841 -0.4754 -1.4200
  604MOL0     H81535   5.747   9.911   5.959  2.1746  2.0976  0.1408
  604MOL0     H81536   5.370   9.996   5.839  2.4696  1.4175 -1.1559
  604MOL0     H81537   5.799   9.695   6.478 -1.3974 -0.5269  1.9431
  604MOL0     H81538   6.038   9.505   6.537  4.3577  2.2544  1.0229
  604MOL0     H81539   6.101   9.543   6.377  2.8239  2.1961  3.6370
  604MOL0     H81540   6.021   9.660   6.471  1.9591 -0.9945  1.2729
  605MOL0     O81541   3.078  11.434  10.007 -0.1571 -0.1316  0.0136
  605MOL0     C81542   3.078  11.547   9.953 -0.4049 -1.3568  0.9774
  605MOL0     O81543   3.034  11.567   9.817  0.8211  0.4228  0.7487
  605MOL0     C81544   3.013  11.455   9.741 -0.3686 -0.2520  0.1926
  605MOL0     C81545   2.884  11.439   9.689  0.5308 -0.4562  0.4234
  605MOL0     C81546   2.864  11.341   9.582 -0.1380 -0.5667  0.4921
  605MOL0     C81547   2.980  11.261   9.540  0.6242  0.0730  0.4242
  605MOL0     O81548   2.945  11.170   9.447 -0.1405 -0.1868 -0.4534
  605MOL0     C81549   3.050  11.121   9.354 -0.4774 -0.5626  0.2005
  605MOL0     C81550   2.992  11.045   9.228  1.1437  0.8849  0.6903
  605MOL0     C81551   2.878  10.930   9.264  0.1877 -0.2543 -0.5352
  605MOL0     C81552   2.855  10.833   9.139 -0.1456 -0.0017 -0.2105
  605MOL0     C81553   2.759  10.718   9.155  0.1172  0.4248  0.3619
  605MOL0     C81554   2.615  10.762   9.176 -0.7239  0.4469  0.5717
  605MOL0     C81555   2.538  10.637   9.223 -0.1775 -0.0966 -0.4722
  605MOL0     C81556   2.532  10.515   9.120  0.1370  0.7872 -0.0850
  605MOL0     N81557   2.501  10.535   8.975 -0.9259 -0.5056 -0.0540
  605MOL0     C81558   2.402  10.472   8.902 -0.3208  1.0090  1.2077
  605MOL0     C81559   2.412  10.534   8.780  0.1635 -0.2029 -0.0479
  605MOL0     C81560   2.327  10.492   8.663  0.3933 -0.2109  0.5401
  605MOL0     C81561   2.381  10.362   8.599  0.1196 -0.5892 -0.4472
  605MOL0     C81562   2.414  10.378   8.439  0.7771 -0.9465  0.1041
  605MOL0     C81563   2.291  10.393   8.346 -0.7417 -1.0883 -0.2398
  605MOL0     O81564   2.195  10.493   8.400  0.4024 -0.5913  1.1833
  605MOL0     C81565   2.088  10.526   8.322  0.2861 -0.2867 -0.0192
  605MOL0     C81566   2.005  10.619   8.377 -0.4786  0.4798 -0.5025
  605MOL0     C81567   1.896  10.671   8.317 -0.4069 -0.2998 -0.7626
  605MOL0     C81568   1.871  10.634   8.183  0.8656  0.5073 -1.1447
  605MOL0     C81569   1.781  10.713   8.096  0.6164 -0.4998 -0.3898
  605MOL0     O81570   1.719  10.830   8.149 -0.2960 -0.8355  0.0959
  605MOL0     C81571   1.665  10.917   8.053  0.2578 -0.5665  0.1098
  605MOL0     C81572   1.739  10.983   7.953 -0.3374  0.2169  0.8668
  605MOL0     C81573   1.683  11.081   7.865 -0.9116  0.8126  0.2970
  605MOL0     C81574   1.547  11.112   7.880 -1.1103 -0.0904 -0.2260
  605MOL0     O81575   1.492  11.208   7.800  0.6988  0.1484 -0.5433
  605MOL0     C81576   1.407  11.152   7.695 -1.1919  1.0934  0.0631
  605MOL0     C81577   1.411  11.239   7.566  0.9678  0.8308 -0.8645
  605MOL0     C81578   1.292  11.202   7.478 -1.1923 -0.2936 -0.6999
  605MOL0     C81579   1.182  11.307   7.491  0.6022 -0.0902 -0.4237
  605MOL0     C81580   1.070  11.258   7.398  0.6367  0.1304 -0.2974
  605MOL0     C81581   0.979  11.135   7.445 -0.5916  0.0458 -0.3028
  605MOL0     C81582   0.900  11.054   7.345 -0.5276 -0.5856 -0.2116
  605MOL0     C81583   0.833  10.933   7.405 -1.0056  1.0723 -0.9025
  605MOL0    Cl81584   0.736  10.969   7.546  0.0153  0.2113  0.0722
  605MOL0     C81585   1.470  11.052   7.980 -0.2051 -0.1986 -0.7648
  605MOL0     C81586   1.539  10.968   8.072  0.9706  0.0735 -0.1411
  605MOL0     O81587   1.753  10.674   7.984  0.4582 -0.0384 -0.1747
  605MOL0     C81588   1.952  10.535   8.123 -0.3577  0.2515  0.0148
  605MOL0     C81589   2.055  10.470   8.193  0.0039  0.6188  0.0614
  605MOL0     N81590   2.499  10.630   8.779 -0.5356 -0.6382  0.6603
  605MOL0     N81591   2.556  10.631   8.894  0.3730 -0.2215  0.4362
  605MOL0     C81592   3.106  11.286   9.597  0.3495  0.1933  0.2614
  605MOL0     C81593   3.119  11.386   9.684  0.2405 -0.3775 -1.3946
  605MOL0     C81594   3.129  11.671  10.016  0.5400 -0.1226 -0.0489
  605MOL0     C81595   3.137  11.784   9.937  0.3220 -0.3761 -0.2464
  605MOL0     C81596   3.181  11.903   9.991 -1.3805  0.8234  0.1318
  605MOL0     C81597   3.216  11.911  10.124  0.1648  0.8043  0.7629
  605MOL0     O81598   3.251  12.034  10.172 -0.1749  0.1865 -0.1664
  605MOL0     C81599   3.383  12.038  10.217  0.3327 -0.1350  0.4032
  605MOL0     C81600   3.486  12.032  10.105 -0.0620  0.1974  0.8714
  605MOL0     C81601   3.635  12.039  10.166  0.2208 -0.4854 -1.1168
  605MOL0     C81602   3.706  12.171  10.158  0.1518  0.7936  0.2623
  605MOL0     C81603   3.856  12.153  10.175 -0.4096  0.2600  0.9175
  605MOL0     C81604   3.974  12.143  10.206 -1.0096 -1.5849 -0.2870
  605MOL0     C81605   3.219  11.790  10.201 -0.4635  1.3034  1.2500
  605MOL0     C81606   3.174  11.676  10.141  1.2770  0.9685  1.1888
  605MOL0     C81607   3.173  11.560  10.238  0.1213 -0.6490  0.0763
  605MOL0     H81608   2.799  11.497   9.724  0.7853  0.2388 -0.0983
  605MOL0     H81609   2.764  11.336   9.540  0.2337  0.1792 -0.4948
  605MOL0     H81610   3.092  11.209   9.304 -2.1897 -0.0447 -0.4111
  605MOL0     H81611   3.108  11.059   9.423 -2.2233 -0.5631  1.7706
  605MOL0     H81612   3.077  11.005   9.171  0.0436 -2.4742  1.2053
  605MOL0     H81613   2.944  11.122   9.167 -0.2244 -0.3241  0.1660
  605MOL0     H81614   2.785  10.980   9.294 -0.4591 -1.3731 -0.6057
  605MOL0     H81615   2.911  10.883   9.357 -1.1595  0.9441  0.6101
  605MOL0     H81616   2.828  10.886   9.048 -0.0131 -1.6894 -1.2874
  605MOL0     H81617   2.953  10.794   9.108 -0.2127 -0.8417  0.5630
  605MOL0     H81618   2.760  10.641   9.078 -0.8892 -0.3307  1.0767
  605MOL0     H81619   2.789  10.671   9.249 -0.4961  0.4689  0.5843
  605MOL0     H81620   2.598  10.845   9.246 -1.0805  0.2444  0.7275
  605MOL0     H81621   2.574  10.795   9.081 -1.7795 -1.6419  0.2490
  605MOL0     H81622   2.436  10.659   9.254 -1.3736 -2.0768 -2.6949
  605MOL0     H81623   2.584  10.610   9.318  0.1695  4.1350  0.7680
  605MOL0     H81624   2.635  10.478   9.120  0.6373  2.0938  0.0204
  605MOL0     H81625   2.465  10.437   9.155 -0.0556  1.3197  0.7607
  605MOL0     H81626   2.347  10.385   8.937  2.3872  0.0368  3.5283
  605MOL0     H81627   2.229  10.488   8.711  0.0579  2.4107  0.1784
  605MOL0     H81628   2.329  10.572   8.589  1.1133  1.0726  1.8849
  605MOL0     H81629   2.470  10.336   8.657  2.1116  3.8733 -1.0956
  605MOL0     H81630   2.303  10.286   8.612 -1.6860  0.4854 -3.7493
  605MOL0     H81631   2.460  10.289   8.393  4.0579  0.5658  0.1436
  605MOL0     H81632   2.481  10.464   8.427  0.0032 -0.6669 -3.0664
  605MOL0     H81633   2.244  10.295   8.334  3.2056 -3.1096 -0.7461
  605MOL0     H81634   2.314  10.416   8.242  0.5015  1.8635  0.5836
  605MOL0     H81635   2.035  10.669   8.469  0.7645  0.9068 -1.1248
  605MOL0     H81636   1.841  10.744   8.376  0.1947 -0.6787  0.2950
  605MOL0     H81637   1.841  10.946   7.959 -1.0318 -2.5168 -1.4974
  605MOL0     H81638   1.747  11.127   7.791 -1.2581  1.9988  0.7193
  605MOL0     H81639   1.455  11.057   7.668 -2.5306  0.3552  0.2116
  605MOL0     H81640   1.307  11.141   7.738 -0.5533  0.8615  1.5159
  605MOL0     H81641   1.407  11.344   7.594 -0.7225  0.1594  1.8685
  605MOL0     H81642   1.503  11.208   7.516  0.4362 -2.3776 -0.0748
  605MOL0     H81643   1.336  11.189   7.379 -0.8793 -2.7017 -0.3088
  605MOL0     H81644   1.241  11.111   7.509 -0.7778 -0.9801 -1.9914
  605MOL0     H81645   1.221  11.406   7.464  2.1999 -1.0016 -1.6787
  605MOL0     H81646   1.150  11.315   7.595 -1.6285  0.9854 -1.1239
  605MOL0     H81647   1.101  11.234   7.296 -1.1422  2.8882 -1.5816
  605MOL0     H81648   0.993  11.335   7.388  0.1858 -0.2953 -0.1628
  605MOL0     H81649   1.049  11.081   7.510  1.1243  3.7537  1.1634
  605MOL0     H81650   0.907  11.178   7.516 -0.8451 -0.5952 -0.1624
  605MOL0     H81651   0.960  11.019   7.260  1.5327  0.6583  0.6609
  605MOL0     H81652   0.813  11.107   7.305 -2.6401 -3.0656  0.7898
  605MOL0     H81653   0.775  10.892   7.321 -0.9151 -0.4225 -0.2683
  605MOL0     H81654   0.904  10.855   7.434 -3.2662 -1.6123 -2.1247
  605MOL0     H81655   1.364  11.072   7.995  0.0124 -0.2304  1.0665
  605MOL0     H81656   1.479  10.931   8.155 -0.1806  1.4134 -0.3428
  605MOL0     H81657   1.921  10.510   8.022  0.2148  1.4984 -0.4934
  605MOL0     H81658   2.116  10.393   8.147  0.2932  0.7355  0.2509
  605MOL0     H81659   3.188  11.228   9.557 -0.7984 -1.4282  0.1514
  605MOL0     H81660   3.219  11.413   9.716  0.6383 -1.3241 -1.8047
  605MOL0     H81661   3.116  11.788   9.830  1.5681 -1.1644 -0.5317
  605MOL0     H81662   3.197  11.992   9.930  6.2986  1.2146  1.7478
  605MOL0     H81663   3.395  11.951  10.283 -2.7465 -0.6293  0.4873
  605MOL0     H81664   3.402  12.132  10.269  1.9163  0.1640 -0.6509
  605MOL0     H81665   3.470  12.115  10.035 -1.2192 -1.9711 -1.6227
  605MOL0     H81666   3.458  11.936  10.061 -0.9978  0.3851  1.0487
  605MOL0     H81667   3.682  11.969  10.097 -1.5840 -0.2138 -2.7206
  605MOL0     H81668   3.634  11.998  10.268 -0.9059 -1.9175 -1.6599
  605MOL0     H81669   3.674  12.235  10.075  1.7672 -2.5566 -3.2139
  605MOL0     H81670   3.668  12.226  10.245 -0.6758 -2.3018  1.9843
  605MOL0     H81671   4.075  12.123  10.236 -0.7723 -2.5424 -1.6007
  605MOL0     H81672   3.225  11.802  10.309 -0.5739 -3.6092  2.0498
  605MOL0     H81673   3.078  11.507  10.231  0.2778 -0.7787 -1.2594
  605MOL0     H81674   3.259  11.496  10.214  2.5311  2.8640 -1.5892
  605MOL0     H81675   3.186  11.600  10.339  1.1893 -1.3710  0.2384
  606MOL0     O81676   1.747   1.715   4.236 -0.5668  0.5580 -0.4397
  606MOL0     C81677   1.692   1.783   4.324 -0.0723  1.0325  0.0416
  606MOL0     O81678   1.701   1.913   4.339  1.3675  0.2245  0.4876
  606MOL0     C81679   1.783   1.983   4.257  0.7303 -0.9609  1.5072
  606MOL0     C81680   1.924   1.954   4.253  0.1554 -0.1261  0.7350
  606MOL0     C81681   1.997   2.036   4.179 -0.1235  0.7261 -0.3737
  606MOL0     C81682   1.962   2.148   4.115  0.2034 -0.9565 -0.0570
  606MOL0     O81683   2.053   2.234   4.054 -0.0159 -0.8291 -0.0695
  606MOL0     C81684   2.009   2.312   3.930 -0.0151  0.0518 -0.8486
  606MOL0     C81685   2.138   2.349   3.848  0.2670 -0.2865  0.0300
  606MOL0     C81686   2.236   2.430   3.933  0.2012  0.3865  0.2435
  606MOL0     C81687   2.341   2.497   3.848  0.4063 -0.2168  0.2601
  606MOL0     C81688   2.453   2.565   3.928 -0.6230  0.4498  0.4093
  606MOL0     C81689   2.406   2.712   3.973 -0.4994 -0.2451  0.0824
  606MOL0     C81690   2.521   2.788   4.051 -1.2481  0.7701  0.5317
  606MOL0     C81691   2.471   2.925   4.098  0.1038  0.1069 -0.5060
  606MOL0     N81692   2.394   2.914   4.219  0.2882  0.7677  0.4177
  606MOL0     C81693   2.459   2.893   4.336 -0.2830 -0.1508  0.3949
  606MOL0     C81694   2.365   2.877   4.430 -0.2401 -0.6005 -0.0450
  606MOL0     C81695   2.385   2.840   4.578  0.8381  0.2614 -0.1083
  606MOL0     C81696   2.266   2.763   4.648 -0.6205 -0.4120  0.3189
  606MOL0     C81697   2.283   2.794   4.800 -0.1573  0.2440  0.3369
  606MOL0     C81698   2.182   2.716   4.882  0.1651 -0.8689 -0.2667
  606MOL0     O81699   2.214   2.576   4.897  0.3908 -1.2577 -0.0596
  606MOL0     C81700   2.131   2.507   4.965  1.1182 -0.3570 -0.3863
  606MOL0     C81701   2.136   2.373   4.960  0.1746  0.7072  0.0299
  606MOL0     C81702   2.046   2.289   5.027  0.0430 -0.5747  0.2068
  606MOL0     C81703   1.939   2.345   5.095 -0.6300  0.0912  0.5186
  606MOL0     C81704   1.828   2.258   5.143  0.2611 -0.0610  0.0698
  606MOL0     O81705   1.855   2.127   5.172  0.8618 -0.1293 -0.5014
  606MOL0     C81706   1.748   2.038   5.183  0.2231 -0.4038 -0.1850
  606MOL0     C81707   1.713   1.979   5.300  0.4131 -1.0608 -0.2590
  606MOL0     C81708   1.588   1.917   5.315  0.0962 -0.5431 -0.5687
  606MOL0     C81709   1.501   1.897   5.212 -0.0117 -0.6933 -0.4277
  606MOL0     O81710   1.375   1.835   5.226 -0.0152 -0.3553 -0.0024
  606MOL0     C81711   1.306   1.812   5.347  0.5770  1.0582 -0.6688
  606MOL0     C81712   1.158   1.812   5.319  0.8377 -0.6349 -0.0896
  606MOL0     C81713   1.129   1.681   5.236 -0.4662 -0.4039  0.1558
  606MOL0     C81714   1.148   1.563   5.330  0.5917 -0.3925  0.6003
  606MOL0     C81715   1.050   1.452   5.292  0.5801  0.3729 -0.2019
  606MOL0     C81716   1.049   1.423   5.145 -0.0026  0.1844  0.5870
  606MOL0     C81717   1.181   1.339   5.090 -0.3065 -0.0479  0.0996
  606MOL0     C81718   1.179   1.332   4.941  1.1567  0.2091  0.9816
  606MOL0    Cl81719   1.335   1.253   4.878  0.1611 -0.2454  0.0633
  606MOL0     C81720   1.542   1.952   5.087 -0.0643 -0.6738 -0.0647
  606MOL0     C81721   1.659   2.018   5.079  0.1095  0.3267  0.6607
  606MOL0     O81722   1.715   2.306   5.149 -0.4877 -0.4280 -0.3736
  606MOL0     C81723   1.930   2.487   5.102  0.0327  0.8890  0.2878
  606MOL0     C81724   2.016   2.568   5.028 -1.3309  1.0752  0.1229
  606MOL0     N81725   2.244   2.879   4.363  0.0122 -0.3835 -0.7032
  606MOL0     N81726   2.259   2.908   4.237  0.1523  0.2503 -0.4573
  606MOL0     C81727   1.821   2.180   4.122 -0.0859  0.1142  0.2427
  606MOL0     C81728   1.730   2.098   4.193 -0.1500 -0.1271 -0.2381
  606MOL0     C81729   1.617   1.714   4.442 -0.5913 -0.5283 -0.6773
  606MOL0     C81730   1.634   1.770   4.560  0.7750  1.2276 -0.2128
  606MOL0     C81731   1.569   1.724   4.675 -0.4546 -0.4694  0.3984
  606MOL0     C81732   1.493   1.614   4.666  1.1233  0.4435 -0.0655
  606MOL0     O81733   1.405   1.574   4.761 -0.0618  0.9434 -0.1984
  606MOL0     C81734   1.385   1.660   4.885  0.6244  0.2015  0.2768
  606MOL0     C81735   1.490   1.636   4.995 -0.1744 -0.1168  0.4922
  606MOL0     C81736   1.594   1.519   4.991  0.1891  0.5115  0.2136
  606MOL0     C81737   1.680   1.497   5.112 -0.1195 -0.0434  0.2565
  606MOL0     C81738   1.771   1.612   5.103 -0.1261 -0.9345 -0.3473
  606MOL0     C81739   1.858   1.698   5.081 -0.2292  0.1289 -0.3792
  606MOL0     C81740   1.487   1.537   4.549  0.3227 -0.6774  0.8769
  606MOL0     C81741   1.550   1.595   4.435 -0.6195 -0.3114 -0.0617
  606MOL0     C81742   1.528   1.519   4.311 -0.3475  0.0781 -0.6631
  606MOL0     H81743   1.967   1.861   4.290  0.8977  0.2889  0.9391
  606MOL0     H81744   2.104   2.018   4.177 -0.1532  0.2928  1.0287
  606MOL0     H81745   1.965   2.233   3.869  2.8330 -1.4610 -1.1625
  606MOL0     H81746   1.939   2.393   3.951 -0.9194 -1.3076  1.8648
  606MOL0     H81747   2.106   2.411   3.763 -3.1309 -1.2085  0.4761
  606MOL0     H81748   2.182   2.255   3.814 -0.2944 -0.9358  1.0509
  606MOL0     H81749   2.285   2.368   4.009  1.5116  1.9726  0.7501
  606MOL0     H81750   2.181   2.509   3.986  2.0251  4.3848 -3.2822
  606MOL0     H81751   2.387   2.418   3.788 -0.9611 -0.7167 -0.1530
  606MOL0     H81752   2.305   2.569   3.774 -0.2524 -1.0125 -0.2001
  606MOL0     H81753   2.488   2.507   4.014  1.3924 -0.4973 -0.9591
  606MOL0     H81754   2.538   2.575   3.860 -2.7524  2.3603 -2.1836
  606MOL0     H81755   2.372   2.773   3.889  2.7990 -1.4285 -2.3288
  606MOL0     H81756   2.313   2.702   4.029  0.0221  0.2241  1.0569
  606MOL0     H81757   2.608   2.790   3.984  0.0290 -1.2302  1.9967
  606MOL0     H81758   2.555   2.728   4.137 -0.9618 -0.6695 -0.5561
  606MOL0     H81759   2.558   2.991   4.106 -0.1448  0.4100 -0.2784
  606MOL0     H81760   2.399   2.968   4.028 -0.7720  3.0242  1.9599
  606MOL0     H81761   2.566   2.885   4.355  0.0758  0.9438 -1.0378
  606MOL0     H81762   2.476   2.781   4.583  0.3867 -0.3551  1.0689
  606MOL0     H81763   2.407   2.934   4.630 -1.2658  0.1806  1.0495
  606MOL0     H81764   2.171   2.803   4.610  1.4420  2.2163 -2.5008
  606MOL0     H81765   2.280   2.656   4.635 -2.2285 -0.4586 -1.5357
  606MOL0     H81766   2.262   2.901   4.811  0.8879  0.7724 -2.1494
  606MOL0     H81767   2.387   2.776   4.831 -0.6337 -2.7735  0.4593
  606MOL0     H81768   2.082   2.739   4.843 -1.6545  1.4598  4.7691
  606MOL0     H81769   2.185   2.765   4.980  1.8132 -3.6080  1.1642
  606MOL0     H81770   2.198   2.318   4.890  0.2858  0.7645  0.0834
  606MOL0     H81771   2.048   2.180   5.019 -0.2009 -0.7334  1.8101
  606MOL0     H81772   1.770   2.012   5.386 -3.2936  0.1655  1.9463
  606MOL0     H81773   1.545   1.869   5.403 -0.1046  1.2860  0.3696
  606MOL0     H81774   1.337   1.720   5.395 -1.3440 -0.7316 -2.6376
  606MOL0     H81775   1.324   1.902   5.407 -2.2698  0.9237  0.5428
  606MOL0     H81776   1.093   1.836   5.404  2.6385  1.1500  0.8662
  606MOL0     H81777   1.137   1.894   5.249  3.0308  0.7706  0.7880
  606MOL0     H81778   1.026   1.676   5.200 -0.6088 -0.2122  0.5316
  606MOL0     H81779   1.198   1.670   5.152 -1.9431 -3.3396 -0.8259
  606MOL0     H81780   1.124   1.589   5.434  2.3780 -0.4190  1.0538
  606MOL0     H81781   1.249   1.522   5.334  1.7811  1.7748 -2.7723
  606MOL0     H81782   0.946   1.484   5.292  0.0961 -1.0568 -2.1139
  606MOL0     H81783   1.062   1.364   5.356  0.8324  0.5136 -0.0545
  606MOL0     H81784   0.962   1.360   5.126  1.5993 -2.0172  0.0642
  606MOL0     H81785   1.033   1.515   5.089  0.9654  0.3291  0.5215
  606MOL0     H81786   1.186   1.239   5.136  0.6011 -1.4780 -2.8658
  606MOL0     H81787   1.272   1.396   5.110  0.0295  0.0099 -1.4995
  606MOL0     H81788   1.090   1.271   4.922  1.0515  0.8310 -0.7027
  606MOL0     H81789   1.165   1.430   4.896  0.0789  1.1805  3.2903
  606MOL0     H81790   1.479   1.938   4.999 -1.1907  1.5831  0.2992
  606MOL0     H81791   1.690   2.056   4.982  0.0239  0.5692  0.7262
  606MOL0     H81792   1.857   2.530   5.169 -1.2822 -0.7793 -0.0120
  606MOL0     H81793   1.996   2.673   5.014  2.6692  2.0466  0.7295
  606MOL0     H81794   1.795   2.279   4.084  1.9991  0.1896 -1.1492
  606MOL0     H81795   1.623   2.114   4.206 -0.7592 -0.6762 -3.6045
  606MOL0     H81796   1.690   1.863   4.567  1.0268  0.9580  2.1541
  606MOL0     H81797   1.584   1.764   4.775 -4.5809 -1.2189  1.4730
  606MOL0     H81798   1.292   1.622   4.927  0.5604 -1.0478 -0.9317
  606MOL0     H81799   1.361   1.765   4.865  1.1018  0.0069 -1.4676
  606MOL0     H81800   1.438   1.632   5.091 -0.7463  1.5867  0.2860
  606MOL0     H81801   1.546   1.729   4.984  0.2442 -0.5769 -2.0073
  606MOL0     H81802   1.664   1.535   4.908  1.3429  0.3865  1.1432
  606MOL0     H81803   1.540   1.429   4.961  2.3539 -0.3631 -1.3245
  606MOL0     H81804   1.622   1.500   5.204  0.8335 -0.9180  0.9062
  606MOL0     H81805   1.734   1.403   5.094 -1.6256 -0.7028 -1.0537
  606MOL0     H81806   1.935   1.772   5.079  0.3523 -0.4741 -0.5166
  606MOL0     H81807   1.415   1.456   4.548  2.6393 -2.8541  0.1700
  606MOL0     H81808   1.524   1.411   4.324  1.3461 -0.3005 -2.7132
  606MOL0     H81809   1.432   1.556   4.273 -0.0228  2.2632  0.4403
  606MOL0     H81810   1.610   1.537   4.240  1.7124  0.3355  1.6383
  607MOL0     O81811   4.554   6.289   6.350  0.8541 -0.1086  0.3156
  607MOL0     C81812   4.473   6.203   6.322  0.8367  0.2583  0.2607
  607MOL0     O81813   4.463   6.082   6.376  0.5402  0.2325 -0.0930
  607MOL0     C81814   4.549   6.042   6.476  1.2623  0.0955 -0.4101
  607MOL0     C81815   4.508   5.936   6.553 -0.0896 -0.3399 -0.6553
  607MOL0     C81816   4.587   5.890   6.659 -0.0832  1.1561 -1.3837
  607MOL0     C81817   4.706   5.941   6.692  0.2604  0.1875 -0.7334
  607MOL0     O81818   4.778   5.886   6.798  0.2158  0.1128  0.2620
  607MOL0     C81819   4.922   5.902   6.806  0.0971  0.2854  0.6540
  607MOL0     C81820   4.988   5.838   6.930  0.8990  0.0867  0.0058
  607MOL0     C81821   4.897   5.851   7.053  0.9783  0.1811 -0.6743
  607MOL0     C81822   4.812   5.729   7.070 -0.1863 -0.3082 -0.4233
  607MOL0     C81823   4.742   5.727   7.205 -0.5158 -0.5697 -0.0856
  607MOL0     C81824   4.661   5.601   7.228 -0.4803  0.7331 -0.3058
  607MOL0     C81825   4.590   5.603   7.363  0.4334 -0.3545  0.4125
  607MOL0     C81826   4.533   5.466   7.411  0.3991 -0.5087  0.5728
  607MOL0     N81827   4.513   5.463   7.554 -0.3582  0.1344 -0.7120
  607MOL0     C81828   4.611   5.424   7.638 -0.6886 -0.2829 -0.0068
  607MOL0     C81829   4.559   5.440   7.765 -0.3478 -0.7897  0.0450
  607MOL0     C81830   4.631   5.406   7.887 -0.2076 -0.6432 -0.0185
  607MOL0     C81831   4.542   5.407   8.018 -0.1496 -1.1463  0.5622
  607MOL0     C81832   4.622   5.398   8.152  0.3119 -0.0653 -0.2957
  607MOL0     C81833   4.536   5.357   8.262 -0.0185  1.1608  0.0139
  607MOL0     O81834   4.572   5.383   8.403  0.0960 -0.0333  0.5029
  607MOL0     C81835   4.692   5.343   8.450  0.2812  0.4663 -0.5109
  607MOL0     C81836   4.813   5.409   8.427  0.5081  0.3912  0.9909
  607MOL0     C81837   4.928   5.354   8.480 -0.7243 -0.5487  0.4529
  607MOL0     C81838   4.933   5.234   8.546 -0.2665  0.1705  0.1379
  607MOL0     C81839   5.058   5.193   8.607  0.6897 -0.8984  0.1505
  607MOL0     O81840   5.171   5.216   8.524 -0.2618 -0.2144  0.9499
  607MOL0     C81841   5.292   5.155   8.544 -0.4112  0.6204 -0.3104
  607MOL0     C81842   5.378   5.142   8.429  0.4643 -1.0409  0.1120
  607MOL0     C81843   5.492   5.068   8.431  0.0069 -0.4966 -0.5268
  607MOL0     C81844   5.542   5.018   8.550 -0.1273 -0.0395  0.4699
  607MOL0     O81845   5.671   4.976   8.556 -0.0171  0.7854  0.2985
  607MOL0     C81846   5.687   4.852   8.623 -1.0289  0.1424 -0.6849
  607MOL0     C81847   5.821   4.799   8.569 -0.2314  0.6740 -0.0123
  607MOL0     C81848   5.830   4.764   8.420  1.0805 -0.8195 -0.1421
  607MOL0     C81849   5.952   4.678   8.385 -0.0936 -0.2099 -1.3823
  607MOL0     C81850   5.946   4.535   8.425 -0.0519  0.4632 -0.4302
  607MOL0     C81851   6.067   4.457   8.383  0.8204  0.7574  0.1478
  607MOL0     C81852   6.196   4.500   8.449 -0.9959 -0.4415 -0.1796
  607MOL0     C81853   6.319   4.423   8.389  0.7338 -0.3542 -0.1042
  607MOL0    Cl81854   6.466   4.492   8.458  0.3516 -0.0554 -0.8635
  607MOL0     C81855   5.471   5.046   8.669  0.7533  0.3420 -0.1980
  607MOL0     C81856   5.346   5.110   8.661  0.3630 -0.4885 -0.2143
  607MOL0     O81857   5.057   5.149   8.724  0.2808  0.4871  0.0609
  607MOL0     C81858   4.814   5.170   8.574 -0.4856  0.0402 -0.0097
  607MOL0     C81859   4.700   5.226   8.526 -0.0517  0.3387 -0.0951
  607MOL0     N81860   4.424   5.453   7.754 -0.7999 -0.2703  0.2612
  607MOL0     N81861   4.392   5.459   7.624 -0.3944  1.7278  0.1638
  607MOL0     C81862   4.749   6.051   6.621  0.5673 -0.2973  1.0318
  607MOL0     C81863   4.677   6.109   6.510  0.0930  0.2964 -0.4956
  607MOL0     C81864   4.380   6.216   6.203 -0.0138 -0.5903  0.3292
  607MOL0     C81865   4.428   6.283   6.088 -0.9834  0.1052 -0.6145
  607MOL0     C81866   4.341   6.316   5.979 -0.0969  0.5438 -0.3877
  607MOL0     C81867   4.210   6.290   5.991 -0.1022 -0.7476  0.4303
  607MOL0     O81868   4.112   6.339   5.912  0.1489 -0.3078 -0.4303
  607MOL0     C81869   4.102   6.305   5.772 -0.2537 -0.1806 -0.0313
  607MOL0     C81870   3.985   6.384   5.702 -0.9181  0.1039 -1.0389
  607MOL0     C81871   3.856   6.325   5.774  0.4438 -1.1173  0.6874
  607MOL0     C81872   3.732   6.365   5.695 -0.4234  0.4794  0.5310
  607MOL0     C81873   3.736   6.502   5.622  0.4674  0.1270  0.7922
  607MOL0     C81874   3.733   6.616   5.576 -0.3825  0.8641  0.7813
  607MOL0     C81875   4.171   6.212   6.091 -0.6399  0.5460  0.0102
  607MOL0     C81876   4.249   6.179   6.205 -0.3821 -0.7250  0.1135
  607MOL0     C81877   4.186   6.118   6.331  0.0637  1.0999  0.6512
  607MOL0     H81878   4.411   5.886   6.551  0.2350 -0.9798 -0.6318
  607MOL0     H81879   4.552   5.801   6.711  2.6210 -0.1334 -1.5631
  607MOL0     H81880   4.965   5.848   6.721  0.8616  1.1507  0.4767
  607MOL0     H81881   4.947   6.006   6.781 -4.8215  1.1505 -2.0750
  607MOL0     H81882   5.091   5.871   6.949  1.3757 -1.8371  1.0181
  607MOL0     H81883   4.999   5.731   6.910  5.3521 -0.1810  2.4718
  607MOL0     H81884   4.836   5.942   7.043  1.5757  1.1776  3.1096
  607MOL0     H81885   4.961   5.860   7.141 -0.6625 -1.9639  0.8600
  607MOL0     H81886   4.737   5.718   6.992 -0.4816 -0.0200 -0.1815
  607MOL0     H81887   4.875   5.640   7.079  0.9467  0.5112  0.0266
  607MOL0     H81888   4.813   5.735   7.287 -2.5572  1.4515  1.6373
  607MOL0     H81889   4.668   5.808   7.213  0.6349  0.3103  4.0506
  607MOL0     H81890   4.600   5.582   7.139  4.0277  0.4901 -3.6972
  607MOL0     H81891   4.727   5.514   7.234 -0.6186  0.6892  1.1700
  607MOL0     H81892   4.506   5.673   7.364 -0.2755 -1.1784  1.8593
  607MOL0     H81893   4.665   5.636   7.436  1.7051  0.9630 -1.4027
  607MOL0     H81894   4.436   5.459   7.361  0.2492 -0.0130  0.7916
  607MOL0     H81895   4.587   5.378   7.374  0.6955 -0.0731 -0.0603
  607MOL0     H81896   4.711   5.388   7.613 -0.4747 -0.1952  0.6863
  607MOL0     H81897   4.678   5.307   7.879  0.3578 -0.3473 -0.4503
  607MOL0     H81898   4.706   5.485   7.899  0.1354 -0.8672 -0.6300
  607MOL0     H81899   4.479   5.497   8.012  1.8914  0.3690  0.7164
  607MOL0     H81900   4.477   5.321   8.003 -2.1003 -0.3844  3.7119
  607MOL0     H81901   4.672   5.495   8.159  1.3419 -0.5607 -0.4741
  607MOL0     H81902   4.698   5.319   8.149  3.7086  2.6694  3.2131
  607MOL0     H81903   4.521   5.249   8.254 -1.9649  1.2244  1.8803
  607MOL0     H81904   4.437   5.401   8.249 -0.5383 -0.4068 -1.8976
  607MOL0     H81905   4.800   5.497   8.366 -2.2555 -0.5926 -0.0345
  607MOL0     H81906   5.025   5.402   8.470  1.1743 -3.5787  2.6465
  607MOL0     H81907   5.333   5.187   8.341  3.0697 -0.5157 -1.0317
  607MOL0     H81908   5.543   5.062   8.335 -2.8595  0.1205 -2.2128
  607MOL0     H81909   5.694   4.870   8.731 -2.6949 -2.4060 -0.0627
  607MOL0     H81910   5.600   4.791   8.597 -1.9337  1.3912 -0.6278
  607MOL0     H81911   5.902   4.870   8.591  0.3935  0.5131 -1.6526
  607MOL0     H81912   5.838   4.705   8.622 -2.4639 -0.7279 -1.5937
  607MOL0     H81913   5.737   4.712   8.393  1.8657 -2.2263 -0.1776
  607MOL0     H81914   5.843   4.851   8.354  2.6723  0.5168  1.8045
  607MOL0     H81915   6.044   4.718   8.429  0.1210 -0.8209 -1.2645
  607MOL0     H81916   5.962   4.682   8.276  0.7327 -0.6590 -1.3293
  607MOL0     H81917   5.851   4.489   8.396  2.4240 -4.1722 -2.0915
  607MOL0     H81918   5.941   4.538   8.535 -3.3649  2.9021 -0.4895
  607MOL0     H81919   6.057   4.355   8.421 -2.3751 -0.8050 -4.0982
  607MOL0     H81920   6.073   4.451   8.274 -2.9298  1.0946 -0.2135
  607MOL0     H81921   6.180   4.494   8.557 -2.8693 -1.1361 -0.4679
  607MOL0     H81922   6.212   4.605   8.424 -2.0351  0.3729  2.2835
  607MOL0     H81923   6.301   4.319   8.419  0.2586 -0.0284  0.7704
  607MOL0     H81924   6.345   4.447   8.286  0.4372  0.7557  0.0697
  607MOL0     H81925   5.526   5.040   8.763  1.5521  0.8310 -0.6286
  607MOL0     H81926   5.294   5.132   8.754  0.3074 -0.2872 -0.2912
  607MOL0     H81927   4.802   5.082   8.636  1.5722 -0.3760 -0.1220
  607MOL0     H81928   4.614   5.163   8.548  0.0579  0.1719 -0.1430
  607MOL0     H81929   4.841   6.105   6.639 -1.8226  5.0099 -0.5085
  607MOL0     H81930   4.719   6.179   6.439  0.3545 -0.6565 -1.3018
  607MOL0     H81931   4.527   6.318   6.061 -1.3882  0.3743 -1.8229
  607MOL0     H81932   4.385   6.375   5.900 -0.5226 -0.3848 -1.3320
  607MOL0     H81933   4.082   6.198   5.765 -0.9481  0.0421 -3.3121
  607MOL0     H81934   4.188   6.317   5.705  0.0718  0.7467  0.5288
  607MOL0     H81935   3.981   6.354   5.597 -0.9370  1.5852 -1.4763
  607MOL0     H81936   3.988   6.493   5.708  0.3963  0.3110 -3.6935
  607MOL0     H81937   3.848   6.369   5.874 -0.1392  0.3631  0.0230
  607MOL0     H81938   3.866   6.217   5.784 -0.3366 -1.3712 -0.9067
  607MOL0     H81939   3.708   6.291   5.618 -2.2142  1.9941 -0.4385
  607MOL0     H81940   3.646   6.371   5.761 -1.1378 -0.3672 -0.3009
  607MOL0     H81941   3.732   6.716   5.536  0.5750  0.8971  0.8051
  607MOL0     H81942   4.077   6.159   6.081  1.4689 -3.1125 -2.4702
  607MOL0     H81943   4.081   6.136   6.309 -0.3959 -2.2944 -0.4744
  607MOL0     H81944   4.203   6.010   6.338  0.8999  1.1338 -0.4710
  607MOL0     H81945   4.215   6.172   6.422 -1.2102  1.6400  0.7600
  608MOL0     O81946   1.423   5.924   1.546  0.0170  0.2475  0.5011
  608MOL0     C81947   1.509   5.873   1.615  0.2019 -0.2631 -0.1305
  608MOL0     O81948   1.582   5.757   1.581 -0.3110 -0.4470 -0.1024
  608MOL0     C81949   1.587   5.739   1.442  0.5111 -1.0406 -0.0026
  608MOL0     C81950   1.479   5.720   1.357 -0.2296  0.9584 -0.5705
  608MOL0     C81951   1.502   5.712   1.226 -0.8849 -0.5949  0.4997
  608MOL0     C81952   1.631   5.733   1.162 -0.2895  0.5102 -0.1489
  608MOL0     O81953   1.656   5.745   1.029 -0.2431 -0.0580  0.3211
  608MOL0     C81954   1.598   5.656   0.938 -0.9406  0.8845  0.5210
  608MOL0     C81955   1.668   5.517   0.959  0.2423 -0.6292  1.1637
  608MOL0     C81956   1.646   5.419   0.844  0.8426 -0.2056  0.1807
  608MOL0     C81957   1.492   5.408   0.819 -0.1173  0.3096  0.1264
  608MOL0     C81958   1.454   5.283   0.749 -0.3133  0.5443  0.4440
  608MOL0     C81959   1.517   5.265   0.604 -0.3057 -0.5171  0.9503
  608MOL0     C81960   1.506   5.114   0.564 -0.8074 -0.2226 -0.7710
  608MOL0     C81961   1.375   5.073   0.488  0.2659 -0.5096  0.6676
  608MOL0     N81962   1.313   4.969   0.568 -0.7300  0.5424  0.1383
  608MOL0     C81963   1.244   4.991   0.683 -0.1527 -0.1580 -1.8840
  608MOL0     C81964   1.219   4.864   0.735  0.0319 -0.1941 -0.5397
  608MOL0     C81965   1.124   4.814   0.841  0.1664 -0.2367  0.0141
  608MOL0     C81966   1.192   4.723   0.936  0.0855  0.2879 -0.2431
  608MOL0     C81967   1.101   4.656   1.041 -1.1716  0.4201  0.2701
  608MOL0     C81968   1.171   4.569   1.142 -0.4308 -1.0910 -0.3129
  608MOL0     O81969   1.203   4.648   1.257  0.1881 -0.0951  0.0885
  608MOL0     C81970   1.258   4.596   1.372 -0.2262 -0.7103  0.7466
  608MOL0     C81971   1.306   4.679   1.477 -0.5472  0.1612  0.9567
  608MOL0     C81972   1.359   4.618   1.593  0.5074 -0.6995  0.1740
  608MOL0     C81973   1.374   4.481   1.597 -0.8795  0.3077 -0.3209
  608MOL0     C81974   1.437   4.422   1.719  0.7929  0.3988 -0.6572
  608MOL0     O81975   1.490   4.502   1.826 -0.1370 -0.1057 -0.0288
  608MOL0     C81976   1.523   4.455   1.947 -0.7712  0.1979  0.0772
  608MOL0     C81977   1.459   4.505   2.059  0.6332  0.1988 -0.1997
  608MOL0     C81978   1.514   4.483   2.187  0.0355  0.2498 -0.9105
  608MOL0     C81979   1.625   4.395   2.217  0.3524  0.9276  0.9386
  608MOL0     O81980   1.683   4.372   2.340 -0.7474  0.0944  0.4784
  608MOL0     C81981   1.634   4.448   2.453  0.7279 -0.5055  0.6227
  608MOL0     C81982   1.687   4.387   2.575 -0.5066  0.2284 -0.1548
  608MOL0     C81983   1.640   4.235   2.598  0.0194 -0.2967 -0.0080
  608MOL0     C81984   1.703   4.197   2.735  0.0874  0.4133  0.5396
  608MOL0     C81985   1.670   4.057   2.793 -0.6079 -0.4009  0.7100
  608MOL0     C81986   1.526   4.053   2.848 -0.1337 -0.5445  0.3661
  608MOL0     C81987   1.492   3.920   2.895  0.3809 -0.2651 -0.4699
  608MOL0     C81988   1.349   3.924   2.935 -0.1358 -0.7407 -0.4030
  608MOL0    Cl81989   1.236   3.973   2.800  0.3238 -0.0159  0.3470
  608MOL0     C81990   1.680   4.330   2.103  0.2027  0.0560  0.6716
  608MOL0     C81991   1.635   4.363   1.972  0.3914 -0.2116 -0.7134
  608MOL0     O81992   1.419   4.296   1.728  0.5262  0.5293 -0.8505
  608MOL0     C81993   1.348   4.395   1.482 -0.3042 -1.3816  0.1868
  608MOL0     C81994   1.297   4.463   1.373  0.0734  0.1086  0.2304
  608MOL0     N81995   1.268   4.768   0.648  0.4877  0.6644  0.6277
  608MOL0     N81996   1.330   4.832   0.546  0.2248 -0.1193  0.2139
  608MOL0     C81997   1.739   5.770   1.241  0.5865 -0.0685  0.9968
  608MOL0     C81998   1.708   5.776   1.386  0.6051  0.0613 -0.1961
  608MOL0     C81999   1.525   5.912   1.761 -0.0509 -0.4960 -0.3071
  608MOL0     C82000   1.599   5.822   1.851 -0.5068 -0.6109  0.7315
  608MOL0     C82001   1.624   5.847   1.992 -0.4388 -0.1522  0.5716
  608MOL0     C82002   1.601   5.967   2.043 -0.0559  0.1493 -0.7953
  608MOL0     O82003   1.637   5.982   2.175  0.0518  0.8924  0.1987
  608MOL0     C82004   1.599   6.098   2.252 -1.0874  0.1534 -0.4299
  608MOL0     C82005   1.703   6.111   2.363  0.0846 -0.0268  0.2106
  608MOL0     C82006   1.708   5.984   2.446  0.6163  0.1245  0.1521
  608MOL0     C82007   1.594   5.949   2.550 -0.9154 -0.2415 -0.0363
  608MOL0     C82008   1.647   5.846   2.657  0.9270 -0.5762  0.4168
  608MOL0     C82009   1.689   5.758   2.717 -0.6148  0.1599 -0.7949
  608MOL0     C82010   1.534   6.056   1.959 -1.0547 -0.3970  0.2614
  608MOL0     C82011   1.506   6.045   1.825  0.4904  0.9278 -0.5998
  608MOL0     C82012   1.449   6.160   1.734  0.0072 -0.6121 -0.4186
  608MOL0     H82013   1.383   5.718   1.407 -0.3990  1.5939 -0.8595
  608MOL0     H82014   1.418   5.684   1.163 -0.6167 -1.5001  0.5283
  608MOL0     H82015   1.491   5.645   0.959 -0.7630  0.5477  1.2830
  608MOL0     H82016   1.618   5.688   0.835 -0.3138 -3.2027 -0.8214
  608MOL0     H82017   1.624   5.476   1.050  0.9523 -0.8369  1.4140
  608MOL0     H82018   1.776   5.533   0.959 -0.0567  4.0369 -3.0966
  608MOL0     H82019   1.692   5.325   0.876 -0.1630 -0.2449  1.6217
  608MOL0     H82020   1.694   5.458   0.754 -0.0842 -0.5391 -0.4804
  608MOL0     H82021   1.437   5.407   0.914 -1.6916 -1.7724 -0.7151
  608MOL0     H82022   1.452   5.488   0.756  1.1625 -0.5418 -1.8520
  608MOL0     H82023   1.491   5.195   0.803 -2.1013 -0.0512  0.7726
  608MOL0     H82024   1.347   5.267   0.732  0.0749 -1.4920 -0.3962
  608MOL0     H82025   1.446   5.316   0.539 -1.4637 -1.2675  1.5876
  608MOL0     H82026   1.619   5.303   0.604 -0.3127 -0.4645  2.2573
  608MOL0     H82027   1.520   5.048   0.650  2.2414  0.7555 -0.4002
  608MOL0     H82028   1.592   5.085   0.503  1.2501  1.5149  1.1134
  608MOL0     H82029   1.309   5.158   0.466 -1.3082 -1.6554  0.8166
  608MOL0     H82030   1.393   5.038   0.386  0.3626  1.8098 -0.1752
  608MOL0     H82031   1.189   5.075   0.723 -1.4340 -2.0696  0.6346
  608MOL0     H82032   1.073   4.901   0.883 -1.0629 -0.7711 -0.2977
  608MOL0     H82033   1.042   4.760   0.792 -0.1905  1.1003 -0.9152
  608MOL0     H82034   1.232   4.636   0.883 -0.6765  0.1752 -0.6562
  608MOL0     H82035   1.267   4.784   0.987 -2.7771  1.1793  3.3360
  608MOL0     H82036   1.014   4.603   1.000 -1.0568 -2.2574  3.0617
  608MOL0     H82037   1.049   4.735   1.097 -1.4390  0.1083  0.4735
  608MOL0     H82038   1.266   4.546   1.092  0.4037  0.9484  0.2459
  608MOL0     H82039   1.110   4.481   1.164 -2.6184  1.2284  4.2327
  608MOL0     H82040   1.280   4.785   1.480 -1.7085  0.0677 -2.2009
  608MOL0     H82041   1.389   4.676   1.680 -1.2200  1.6085 -0.6639
  608MOL0     H82042   1.373   4.567   2.037  0.3520 -0.8189 -2.1174
  608MOL0     H82043   1.466   4.534   2.269 -0.5106 -1.2101 -0.2906
  608MOL0     H82044   1.671   4.551   2.449  0.6653 -0.5225 -0.5385
  608MOL0     H82045   1.525   4.451   2.461  0.8186  0.9287  1.7853
  608MOL0     H82046   1.796   4.394   2.570 -0.5076 -0.4609 -1.6617
  608MOL0     H82047   1.650   4.454   2.653 -0.6534  0.1578 -0.1620
  608MOL0     H82048   1.531   4.239   2.599  0.0147  0.8266 -1.4584
  608MOL0     H82049   1.667   4.165   2.518  0.2680 -1.2465  0.8848
  608MOL0     H82050   1.664   4.273   2.802 -0.4531 -1.8865  3.0238
  608MOL0     H82051   1.812   4.189   2.725 -0.1170 -0.8885 -1.1805
  608MOL0     H82052   1.736   4.027   2.875 -1.6940 -2.1461  1.0004
  608MOL0     H82053   1.682   3.992   2.706  0.5081  0.8071 -0.0876
  608MOL0     H82054   1.517   4.125   2.930 -0.4464 -0.3998  0.2042
  608MOL0     H82055   1.457   4.090   2.772  1.8929 -0.1824 -1.3997
  608MOL0     H82056   1.560   3.866   2.962 -0.6662 -0.9221  0.0760
  608MOL0     H82057   1.493   3.846   2.814  1.4358 -0.1181 -0.6173
  608MOL0     H82058   1.303   3.837   2.982  1.7524 -1.2685  0.5928
  608MOL0     H82059   1.344   3.998   3.015 -0.0155  0.5686 -1.5791
  608MOL0     H82060   1.761   4.258   2.095 -0.4770 -0.6772  0.1394
  608MOL0     H82061   1.679   4.316   1.884 -2.4356 -1.0003 -1.8231
  608MOL0     H82062   1.367   4.289   1.469 -1.7802 -2.0252  2.6308
  608MOL0     H82063   1.279   4.399   1.287  3.8600 -0.4624 -0.2898
  608MOL0     H82064   1.836   5.793   1.199 -1.0279  0.2482 -2.9147
  608MOL0     H82065   1.789   5.806   1.451 -0.5013  2.6857  0.0650
  608MOL0     H82066   1.646   5.729   1.822  0.4338 -1.2237  3.8674
  608MOL0     H82067   1.672   5.761   2.038 -0.7599 -1.1534 -0.8932
  608MOL0     H82068   1.499   6.079   2.294 -0.9296 -2.7270 -1.1341
  608MOL0     H82069   1.601   6.188   2.191  0.6266  0.8131  0.5303
  608MOL0     H82070   1.674   6.192   2.431  4.0543 -0.5343  2.8115
  608MOL0     H82071   1.801   6.135   2.322 -0.2900  1.7805  0.2880
  608MOL0     H82072   1.799   5.974   2.505  1.2796 -0.5980 -0.9602
  608MOL0     H82073   1.718   5.892   2.388 -2.0271 -1.3269  1.7698
  608MOL0     H82074   1.550   6.040   2.591 -2.0011 -0.6732 -0.1976
  608MOL0     H82075   1.519   5.895   2.492 -0.7187 -1.3924  0.7453
  608MOL0     H82076   1.735   5.687   2.784  2.7552  2.6462 -0.1866
  608MOL0     H82077   1.515   6.152   2.006  1.5267  0.3723 -0.1448
  608MOL0     H82078   1.369   6.118   1.672  1.0028 -1.2258 -1.3091
  608MOL0     H82079   1.410   6.240   1.798  0.9092 -0.0641 -0.5419
  608MOL0     H82080   1.532   6.191   1.669 -0.9302  0.3145 -1.2226
  609MOL0     O82081  10.061   3.543  10.041  0.2694 -0.7943 -0.0727
  609MOL0     C82082   9.971   3.458  10.045 -0.2349  0.0543  0.4170
  609MOL0     O82083   9.850   3.482  10.089 -0.4398  0.1571 -0.3778
  609MOL0     C82084   9.812   3.604  10.139  0.7238 -0.1091 -0.3302
  609MOL0     C82085   9.872   3.673  10.248  0.1086  0.7009  0.0644
  609MOL0     C82086   9.833   3.803  10.285 -0.5983  0.4000  0.7973
  609MOL0     C82087   9.725   3.859  10.219  0.2435 -0.7020 -0.1092
  609MOL0     O82088   9.704   3.991  10.243  0.0245  1.0095 -0.0023
  609MOL0     C82089   9.624   4.062  10.144 -0.3002  0.5821  0.8571
  609MOL0     C82090   9.614   4.209  10.165  0.1367  0.2355 -0.1851
  609MOL0     C82091   9.511   4.240  10.268 -0.6179 -0.1149  0.0003
  609MOL0     C82092   9.490   4.387  10.295 -0.0589 -0.2750  0.4868
  609MOL0     C82093   9.408   4.413  10.425  0.3272 -0.3687 -0.0926
  609MOL0     C82094   9.261   4.452  10.395 -0.1115  1.2646 -0.8225
  609MOL0     C82095   9.164   4.464  10.524 -0.5035  0.9748 -0.0894
  609MOL0     C82096   9.197   4.587  10.618  0.3407  0.7107  0.9905
  609MOL0     N82097   9.122   4.605  10.743 -0.1188 -0.9459  0.3232
  609MOL0     C82098   9.139   4.547  10.868 -0.5693 -0.4467  0.2057
  609MOL0     C82099   9.041   4.581  10.945  0.0695  0.0891 -0.5104
  609MOL0     C82100   9.024   4.548  11.101  0.1002 -0.1682  0.5982
  609MOL0     C82101   9.131   4.592  11.198 -0.5273  0.1549 -0.7171
  609MOL0     C82102   9.156   4.736  11.222  0.0699 -1.2073  0.2740
  609MOL0     C82103   9.031   4.822  11.199 -0.0559 -0.3259 -0.1980
  609MOL0     O82104   9.071   4.960  11.207 -0.9003 -0.0019  0.3283
  609MOL0     C82105   9.116   5.028  11.094 -0.8306  0.7234 -0.6368
  609MOL0     C82106   9.179   5.144  11.131 -0.7819 -0.3359  0.6411
  609MOL0     C82107   9.238   5.218  11.030 -1.4879 -0.1152  1.0314
  609MOL0     C82108   9.239   5.172  10.898 -0.0440  0.5750  0.8844
  609MOL0     C82109   9.312   5.250  10.799 -0.0906  0.4910  0.4273
  609MOL0     O82110   9.354   5.191  10.682 -0.0185  0.1703 -0.8073
  609MOL0     C82111   9.415   5.257  10.584 -0.4367 -0.6592  0.1150
  609MOL0     C82112   9.547   5.236  10.557  0.5844  0.5686 -0.9415
  609MOL0     C82113   9.622   5.311  10.471 -0.6707  0.0605  0.2298
  609MOL0     C82114   9.557   5.409  10.389 -0.5507 -0.1770 -0.0127
  609MOL0     O82115   9.603   5.479  10.280 -0.0640 -0.4785 -0.3444
  609MOL0     C82116   9.711   5.429  10.202 -0.0958 -0.1946 -0.4317
  609MOL0     C82117   9.818   5.532  10.220 -0.6208 -0.0582 -0.9758
  609MOL0     C82118   9.936   5.506  10.127  0.2074 -0.5086  0.2710
  609MOL0     C82119  10.049   5.617  10.151 -0.3946 -0.4102 -0.3418
  609MOL0     C82120  10.161   5.595  10.048 -0.5201 -0.0335 -1.0870
  609MOL0     C82121  10.268   5.703  10.037 -0.0326  0.1661 -0.6916
  609MOL0     C82122  10.351   5.731  10.162  0.6741 -0.2951  0.1308
  609MOL0     C82123  10.493   5.747  10.120 -1.1563 -0.7533  0.0446
  609MOL0    Cl82124  10.499   5.867   9.988 -0.1475 -0.0562  0.3935
  609MOL0     C82125   9.422   5.436  10.419 -0.9914 -0.7371  0.3927
  609MOL0     C82126   9.356   5.354  10.508  0.1825  0.5402 -0.2558
  609MOL0     O82127   9.334   5.365  10.834 -0.3676  0.3552  0.2983
  609MOL0     C82128   9.165   5.058  10.868 -0.4932 -0.4611  0.7351
  609MOL0     C82129   9.104   4.983  10.960 -0.7357  0.5088  0.0597
  609MOL0     N82130   8.948   4.651  10.871 -0.6533 -0.0797  0.0307
  609MOL0     N82131   9.002   4.671  10.753 -0.2007 -0.4828  0.3694
  609MOL0     C82132   9.657   3.791  10.118 -0.0326 -0.2494 -0.6709
  609MOL0     C82133   9.701   3.664  10.078 -0.2739 -1.0231 -0.7311
  609MOL0     C82134  10.010   3.324   9.984 -0.2942 -0.7013 -0.4038
  609MOL0     C82135   9.898   3.247   9.944 -0.3678 -0.2400 -0.6428
  609MOL0     C82136   9.914   3.145   9.858 -0.5254  0.7921 -1.4189
  609MOL0     C82137  10.043   3.090   9.845 -0.0038 -0.8277  0.0708
  609MOL0     O82138  10.059   2.976   9.767  0.4531 -0.3679  0.5003
  609MOL0     C82139   9.963   2.956   9.662 -0.1379 -0.3584  0.2496
  609MOL0     C82140  10.014   2.830   9.593  1.5125  0.0628  0.2565
  609MOL0     C82141  10.002   2.701   9.680 -0.1291 -0.5147 -0.3400
  609MOL0     C82142   9.859   2.651   9.681 -0.6572 -0.0705 -0.5955
  609MOL0     C82143   9.854   2.535   9.769 -0.2424  0.0320  1.1206
  609MOL0     C82144   9.851   2.435   9.832  0.3142  0.5196  0.0637
  609MOL0     C82145  10.159   3.156   9.891 -0.7750 -0.3825  0.6440
  609MOL0     C82146  10.144   3.277   9.962  0.1018  0.4154 -0.0229
  609MOL0     C82147  10.277   3.336  10.016 -0.2175  1.0220 -0.0981
  609MOL0     H82148   9.961   3.637  10.299  0.0027 -0.7680 -0.7432
  609MOL0     H82149   9.895   3.867  10.347  0.4970 -2.3039  2.6884
  609MOL0     H82150   9.691   4.056  10.058  1.1559  1.4896  1.8799
  609MOL0     H82151   9.522   4.027  10.123 -0.8080  2.9330 -0.9618
  609MOL0     H82152   9.575   4.254  10.073  3.1895  3.0820 -0.2397
  609MOL0     H82153   9.718   4.235  10.183  0.8233 -2.0667 -0.4879
  609MOL0     H82154   9.535   4.191  10.363 -0.8898 -1.3578 -0.5515
  609MOL0     H82155   9.416   4.193  10.240 -1.8521  0.9097  2.2552
  609MOL0     H82156   9.585   4.437  10.317 -0.3232 -0.3867  2.0426
  609MOL0     H82157   9.447   4.437  10.208 -0.5033 -0.0006  0.8585
  609MOL0     H82158   9.394   4.324  10.488 -0.7766 -1.0892 -1.2862
  609MOL0     H82159   9.466   4.490  10.476  1.0774  0.3957 -2.0166
  609MOL0     H82160   9.259   4.556  10.361 -0.2165  1.5240 -0.0356
  609MOL0     H82161   9.212   4.386  10.322  0.3561  3.2369 -3.0636
  609MOL0     H82162   9.177   4.373  10.584  1.1482  0.9681 -0.4000
  609MOL0     H82163   9.059   4.455  10.493  0.2585  0.6955 -2.8604
  609MOL0     H82164   9.300   4.564  10.646  1.0387 -1.2225 -2.5102
  609MOL0     H82165   9.205   4.681  10.563  0.6828 -0.6297 -1.3952
  609MOL0     H82166   9.224   4.488  10.900 -0.3762 -1.1319 -1.4816
  609MOL0     H82167   8.927   4.585  11.137 -1.0710 -3.1013  0.7537
  609MOL0     H82168   9.018   4.439  11.100  4.7135 -0.5899 -0.7521
  609MOL0     H82169   9.121   4.524  11.284  3.0747 -4.1761 -3.2817
  609MOL0     H82170   9.228   4.555  11.162  0.8703 -0.9759  3.5132
  609MOL0     H82171   9.241   4.760  11.157 -0.0981 -1.6005 -0.0995
  609MOL0     H82172   9.183   4.758  11.325 -1.8730 -1.2270  0.8272
  609MOL0     H82173   8.965   4.810  11.286  1.1893  1.1328  1.0044
  609MOL0     H82174   8.980   4.802  11.105  2.8273 -0.7996 -1.7772
  609MOL0     H82175   9.205   5.173  11.233  0.4911  0.6668  0.0693
  609MOL0     H82176   9.308   5.300  11.048  1.7075 -2.2802 -0.5677
  609MOL0     H82177   9.589   5.166  10.629  2.7638  0.4717 -2.2313
  609MOL0     H82178   9.724   5.276  10.463 -1.1184 -1.4568  0.8234
  609MOL0     H82179   9.742   5.326  10.220 -2.4032 -0.7787  0.6162
  609MOL0     H82180   9.670   5.428  10.100 -1.2945  1.3559  0.0077
  609MOL0     H82181   9.766   5.624  10.194 -1.2499 -0.8152 -2.4610
  609MOL0     H82182   9.842   5.519  10.326  3.0206  0.2354 -1.6171
  609MOL0     H82183   9.974   5.405  10.146  0.6874 -0.3210  0.3342
  609MOL0     H82184   9.896   5.521  10.026  1.8184  2.8122  0.0016
  609MOL0     H82185  10.102   5.611  10.247 -2.0081 -1.8420  0.5063
  609MOL0     H82186   9.999   5.713  10.135 -0.3725  0.0466  1.9699
  609MOL0     H82187  10.118   5.584   9.948 -1.2170  1.9383 -1.0542
  609MOL0     H82188  10.208   5.500  10.077  0.1044  1.3417  3.0947
  609MOL0     H82189  10.338   5.678   9.957  1.3810  0.7444  0.3150
  609MOL0     H82190  10.216   5.798  10.022  2.6167  1.1417 -5.6214
  609MOL0     H82191  10.332   5.651  10.234  2.3679 -1.1329 -0.3087
  609MOL0     H82192  10.309   5.827  10.193  4.5957  1.1664  1.4874
  609MOL0     H82193  10.561   5.794  10.193  2.3262  1.5423 -4.1755
  609MOL0     H82194  10.534   5.650  10.090  0.6463  0.6200 -2.3040
  609MOL0     H82195   9.381   5.529  10.381  2.4602  1.0935  0.7453
  609MOL0     H82196   9.255   5.386  10.529 -0.2049 -2.3717  3.4258
  609MOL0     H82197   9.169   5.037  10.761  1.2359  0.3103  0.6084
  609MOL0     H82198   9.052   4.891  10.936  0.0944 -1.0828  3.6334
  609MOL0     H82199   9.575   3.833  10.060  0.7421  1.4829 -0.5730
  609MOL0     H82200   9.661   3.615   9.990 -2.8508 -1.3677  0.5434
  609MOL0     H82201   9.799   3.273   9.979 -1.0205 -3.0012 -0.1946
  609MOL0     H82202   9.823   3.094   9.828 -0.9472 -2.7805  4.3692
  609MOL0     H82203   9.970   3.039   9.591 -1.1402  1.4019  2.0920
  609MOL0     H82204   9.857   2.939   9.681 -0.1431 -1.3602 -0.5877
  609MOL0     H82205  10.117   2.837   9.556  1.0557 -0.9295 -1.3211
  609MOL0     H82206   9.948   2.814   9.508 -1.5137  2.6105  1.9388
  609MOL0     H82207  10.036   2.736   9.778  2.1709 -0.2315 -1.1822
  609MOL0     H82208  10.072   2.625   9.644  1.0769  0.5370 -0.2939
  609MOL0     H82209   9.788   2.731   9.702  2.7999  3.1612 -0.0272
  609MOL0     H82210   9.830   2.603   9.587 -1.7299 -3.1757  1.1853
  609MOL0     H82211   9.832   2.344   9.885  3.8198 -0.2599  0.2301
  609MOL0     H82212  10.258   3.122   9.861 -1.2889 -0.7335 -0.7456
  609MOL0     H82213  10.265   3.405  10.099  0.6543 -1.4088  2.2117
  609MOL0     H82214  10.334   3.257  10.067 -1.5830  1.1202  1.6850
  609MOL0     H82215  10.323   3.376   9.925 -1.9662  2.3559 -0.4470
  610MOL0     O82216   0.093   4.893   4.149 -0.5459 -0.6477 -0.3118
  610MOL0     C82217   0.129   4.795   4.197 -0.3144  0.4608 -0.0743
  610MOL0     O82218   0.226   4.796   4.295  0.3961 -0.4864 -0.3771
  610MOL0     C82219   0.265   4.903   4.370 -0.3479  0.0206 -0.2849
  610MOL0     C82220   0.373   4.885   4.461  0.8167  0.7712  0.9210
  610MOL0     C82221   0.407   4.968   4.563 -0.3364 -0.3229  0.8236
  610MOL0     C82222   0.366   5.102   4.560 -0.0861  0.5917  0.6745
  610MOL0     O82223   0.427   5.204   4.624 -0.3670  0.1471 -0.3063
  610MOL0     C82224   0.482   5.196   4.755 -0.0495  0.1976  0.5560
  610MOL0     C82225   0.635   5.211   4.744  0.9184 -0.3276  0.1199
  610MOL0     C82226   0.702   5.101   4.799 -0.9372  0.2974 -0.4937
  610MOL0     C82227   0.849   5.092   4.755 -0.2131  0.7089  0.4259
  610MOL0     C82228   0.867   5.090   4.599 -0.8896  0.9726  0.3046
  610MOL0     C82229   1.003   5.037   4.546  0.1257 -0.6196 -0.9923
  610MOL0     C82230   1.051   4.901   4.608 -0.4031 -0.4180  0.3638
  610MOL0     C82231   1.204   4.874   4.592 -0.0581  0.3145 -0.2732
  610MOL0     N82232   1.243   4.893   4.453  0.2588 -0.2969  0.8514
  610MOL0     C82233   1.187   4.841   4.344  0.1185  1.3898 -0.2213
  610MOL0     C82234   1.261   4.869   4.234  0.6526  0.5464 -0.9291
  610MOL0     C82235   1.240   4.833   4.080 -0.0814  0.3731 -1.1089
  610MOL0     C82236   1.105   4.898   4.032  0.3083  0.4356  0.7557
  610MOL0     C82237   1.098   5.049   4.037 -0.0448  0.2473  0.8578
  610MOL0     C82238   1.215   5.110   3.965  0.3462 -0.6201  0.0028
  610MOL0     O82239   1.254   5.049   3.842  0.0713 -0.3089 -0.2576
  610MOL0     C82240   1.208   5.110   3.732 -1.0243 -0.2051  0.3272
  610MOL0     C82241   1.283   5.106   3.615 -0.2481  0.6950  0.9209
  610MOL0     C82242   1.232   5.140   3.492 -0.3218  1.0475 -0.0387
  610MOL0     C82243   1.106   5.199   3.476 -0.1573 -0.1077 -0.5638
  610MOL0     C82244   1.071   5.242   3.340  0.6447 -0.2923 -0.9232
  610MOL0     O82245   0.941   5.274   3.317  0.1872 -0.6605 -0.0725
  610MOL0     C82246   0.881   5.345   3.210 -0.8095  0.1088 -0.4589
  610MOL0     C82247   0.737   5.347   3.219 -0.7672 -0.3381  0.0625
  610MOL0     C82248   0.658   5.415   3.128 -0.7102  0.8034 -0.5066
  610MOL0     C82249   0.717   5.459   3.008 -0.0561  0.3883 -0.5086
  610MOL0     O82250   0.634   5.504   2.903 -0.8661  0.1713  0.1822
  610MOL0     C82251   0.625   5.411   2.793  0.6200 -0.2028  0.7385
  610MOL0     C82252   0.511   5.305   2.805  0.4998 -0.3997  0.0224
  610MOL0     C82253   0.543   5.201   2.697 -0.8523 -1.1371  0.6154
  610MOL0     C82254   0.442   5.094   2.688  0.1658  0.1816 -0.3728
  610MOL0     C82255   0.464   4.984   2.582  0.2515 -0.2542  0.5819
  610MOL0     C82256   0.460   5.037   2.438  0.9697  0.5195 -0.2819
  610MOL0     C82257   0.436   4.919   2.334  0.0449 -0.9952  0.3505
  610MOL0     C82258   0.550   4.811   2.339  0.5120 -0.6587 -0.5478
  610MOL0    Cl82259   0.711   4.867   2.281 -0.0128 -0.0384  0.4139
  610MOL0     C82260   0.859   5.455   2.997  0.1162  0.4808  0.2592
  610MOL0     C82261   0.942   5.412   3.099 -0.4075  1.3426 -1.0865
  610MOL0     O82262   1.161   5.246   3.255  0.2420  0.3956 -0.2775
  610MOL0     C82263   1.037   5.216   3.593  0.8439  1.1273 -0.0315
  610MOL0     C82264   1.079   5.161   3.716 -0.4287 -0.9223  1.2689
  610MOL0     N82265   1.364   4.947   4.283 -0.2987  0.0891 -0.4551
  610MOL0     N82266   1.357   4.950   4.415  0.1817 -0.6711  0.4674
  610MOL0     C82267   0.266   5.136   4.464  0.5784 -0.2623 -0.9089
  610MOL0     C82268   0.214   5.034   4.377  0.4404 -0.8701 -0.5685
  610MOL0     C82269   0.084   4.667   4.145  0.9490 -0.4769 -0.5900
  610MOL0     C82270   0.101   4.562   4.233  0.0256  1.4058 -0.6723
  610MOL0     C82271   0.093   4.430   4.196 -0.0260  0.2713 -0.4856
  610MOL0     C82272   0.052   4.398   4.072  0.0760  0.4444  0.6062
  610MOL0     O82273   0.035   4.265   4.034 -0.9590  0.0830  0.6015
  610MOL0     C82274   0.149   4.174   4.034 -0.2292  0.2605  0.0769
  610MOL0     C82275   0.096   4.055   3.957  0.0371 -0.3997  0.1265
  610MOL0     C82276  -0.023   3.976   4.007  0.3240 -0.4680 -0.9163
  610MOL0     C82277  -0.134   3.962   3.904 -0.7555  0.0865  0.0430
  610MOL0     C82278  -0.209   3.841   3.928  0.5035 -0.0761 -0.4683
  610MOL0     C82279  -0.280   3.744   3.957  0.8292 -0.0069  0.0229
  610MOL0     C82280   0.006   4.492   3.986 -0.1177 -0.4365  0.2434
  610MOL0     C82281   0.022   4.625   4.024 -0.1865 -0.3970  0.3458
  610MOL0     C82282  -0.019   4.730   3.928  0.4655  0.0544  0.4274
  610MOL0     H82283   0.420   4.787   4.459 -1.9739 -0.7754 -3.6529
  610MOL0     H82284   0.469   4.927   4.643  1.2457 -0.9443 -0.6441
  610MOL0     H82285   0.447   5.276   4.821  1.5290  0.8949  0.6046
  610MOL0     H82286   0.450   5.100   4.796 -1.4746  1.0422  1.5308
  610MOL0     H82287   0.658   5.307   4.792 -4.7835  1.6678 -0.3866
  610MOL0     H82288   0.646   5.211   4.635 -0.9565  0.9637 -0.1340
  610MOL0     H82289   0.653   5.009   4.767 -1.2788  0.0552  0.6742
  610MOL0     H82290   0.700   5.106   4.908  0.9694  0.9161 -0.4633
  610MOL0     H82291   0.903   5.179   4.795 -0.3522  0.5714  0.9093
  610MOL0     H82292   0.891   5.000   4.795  2.3868  0.7496 -1.9026
  610MOL0     H82293   0.789   5.023   4.562  1.1438 -0.4534 -1.6151
  610MOL0     H82294   0.849   5.191   4.560 -2.3746 -0.1813 -2.2138
  610MOL0     H82295   0.999   5.029   4.437 -0.1507 -0.1826 -1.0192
  610MOL0     H82296   1.075   5.114   4.577 -0.8953 -0.6554  1.7328
  610MOL0     H82297   0.997   4.822   4.554 -1.7276  0.4682  0.3408
  610MOL0     H82298   1.039   4.889   4.716 -1.1695  1.3015  0.5060
  610MOL0     H82299   1.265   4.945   4.649 -0.8352  0.4258  0.4317
  610MOL0     H82300   1.222   4.777   4.640 -2.1843  1.2011  2.6458
  610MOL0     H82301   1.106   4.770   4.354  0.6852  0.8370  0.6106
  610MOL0     H82302   1.317   4.874   4.015  0.0131  4.0011  1.0306
  610MOL0     H82303   1.223   4.725   4.081 -3.3990  0.7304  1.6632
  610MOL0     H82304   1.089   4.861   3.931  0.8660 -2.5289  1.6459
  610MOL0     H82305   1.013   4.871   4.084 -1.6304  0.4149 -2.4534
  610MOL0     H82306   1.097   5.087   4.139  1.5436  5.3567 -0.7490
  610MOL0     H82307   0.999   5.072   3.996 -1.4335 -2.3575  2.4572
  610MOL0     H82308   1.306   5.115   4.025  0.8510 -3.8656 -0.2995
  610MOL0     H82309   1.199   5.216   3.943  1.3853 -0.7794 -1.7117
  610MOL0     H82310   1.377   5.051   3.613 -0.0829  0.9594 -1.9021
  610MOL0     H82311   1.293   5.139   3.402  0.8179  1.2708  0.7080
  610MOL0     H82312   0.695   5.305   3.310 -0.2690 -0.4028  0.2676
  610MOL0     H82313   0.553   5.407   3.152 -0.6111 -3.5070 -0.6756
  610MOL0     H82314   0.611   5.473   2.704  2.0025 -0.1520  0.5443
  610MOL0     H82315   0.724   5.368   2.782  3.2142  5.3751 -1.5129
  610MOL0     H82316   0.503   5.274   2.910 -1.6194  0.9404  0.3314
  610MOL0     H82317   0.416   5.354   2.779  0.8902 -0.0074 -0.6787
  610MOL0     H82318   0.542   5.250   2.600 -3.0970  0.7131  1.4765
  610MOL0     H82319   0.644   5.161   2.713 -1.2940 -2.5111  0.1499
  610MOL0     H82320   0.350   5.149   2.663  0.5634  0.2615 -1.7115
  610MOL0     H82321   0.426   5.054   2.789  1.1902  3.3278  1.1681
  610MOL0     H82322   0.396   4.898   2.593  0.4536 -0.7331 -1.4817
  610MOL0     H82323   0.570   4.963   2.600  0.7458  2.7584  1.6960
  610MOL0     H82324   0.378   5.109   2.432 -1.0061 -1.1206  3.3671
  610MOL0     H82325   0.554   5.084   2.408  1.0905 -0.1694 -1.0369
  610MOL0     H82326   0.427   4.962   2.234 -2.2303  1.9412  1.6709
  610MOL0     H82327   0.342   4.867   2.356  1.4886 -3.7272  0.5960
  610MOL0     H82328   0.561   4.781   2.444 -0.1669  1.1828  0.0969
  610MOL0     H82329   0.526   4.725   2.276 -1.2638  0.8181 -2.0087
  610MOL0     H82330   0.918   5.470   2.907  3.2547  3.5410  2.5346
  610MOL0     H82331   1.047   5.441   3.097  0.4799 -1.2603  1.5805
  610MOL0     H82332   0.934   5.250   3.583 -1.0884 -3.1191  2.8005
  610MOL0     H82333   1.009   5.155   3.798 -3.1092  3.3284 -0.3802
  610MOL0     H82334   0.228   5.237   4.448  0.7717 -0.1222 -0.4892
  610MOL0     H82335   0.131   5.075   4.321  2.0686  3.1034 -0.4432
  610MOL0     H82336   0.119   4.578   4.339  1.4717 -1.9531 -0.2527
  610MOL0     H82337   0.109   4.347   4.264  3.3261  2.8288  2.2136
  610MOL0     H82338   0.166   4.140   4.136 -1.2230 -1.3017 -0.2424
  610MOL0     H82339   0.239   4.207   3.981  0.9582 -2.6477  0.0858
  610MOL0     H82340   0.187   4.000   3.933 -0.5905 -1.8126  0.8542
  610MOL0     H82341   0.061   4.101   3.864 -1.6342  0.6011  1.1951
  610MOL0     H82342  -0.058   4.050   4.080  1.4373 -0.0942 -0.7445
  610MOL0     H82343   0.010   3.879   4.046  2.3370  0.7330  0.5953
  610MOL0     H82344  -0.204   4.044   3.923 -0.7217  0.4784 -1.4098
  610MOL0     H82345  -0.090   3.975   3.804 -1.8650 -2.7668 -0.9004
  610MOL0     H82346  -0.351   3.665   3.970  2.0847 -0.9980  1.0457
  610MOL0     H82347  -0.045   4.463   3.895 -0.9624 -1.4083  1.0037
  610MOL0     H82348   0.065   4.750   3.860  1.1274  1.0280  1.4923
  610MOL0     H82349  -0.097   4.684   3.866  0.9767  0.7343 -0.7700
  610MOL0     H82350  -0.053   4.823   3.974 -0.1406  0.0648 -0.0247
  611MOL0     O82351   4.621   3.402   5.232 -0.0056  0.7543 -0.8602
  611MOL0     C82352   4.592   3.508   5.279  1.0933 -1.8546 -0.7861
  611MOL0     O82353   4.545   3.535   5.404  0.8063  0.6349  0.0121
  611MOL0     C82354   4.522   3.442   5.500 -0.3796 -0.0124  0.3639
  611MOL0     C82355   4.573   3.306   5.507  0.7639  0.3406 -0.4634
  611MOL0     C82356   4.546   3.214   5.600  0.4800  0.3843  0.4258
  611MOL0     C82357   4.452   3.236   5.698  0.4023 -1.6010 -0.2949
  611MOL0     O82358   4.447   3.143   5.799  1.2828  0.3030  0.2451
  611MOL0     C82359   4.328   3.146   5.889 -0.5903 -0.4731  0.1973
  611MOL0     C82360   4.318   3.020   5.981  1.5754  0.8361  0.0898
  611MOL0     C82361   4.435   2.978   6.060  0.7327 -0.3132  0.3190
  611MOL0     C82362   4.516   3.091   6.125  0.5246 -0.5975  0.6506
  611MOL0     C82363   4.634   3.040   6.212 -0.6456 -0.6896 -0.5994
  611MOL0     C82364   4.729   2.943   6.147 -0.1134 -0.4192  0.9169
  611MOL0     C82365   4.810   3.038   6.048 -0.9757 -0.0364  1.0601
  611MOL0     C82366   4.794   3.009   5.898 -0.1208 -0.9837 -0.0074
  611MOL0     N82367   4.909   3.044   5.810  0.7172 -0.4339 -0.4067
  611MOL0     C82368   4.951   3.169   5.778  0.2602 -0.5816 -0.3317
  611MOL0     C82369   5.050   3.155   5.687 -0.3654 -0.9833 -0.1710
  611MOL0     C82370   5.118   3.249   5.607 -0.9162 -0.2265  0.7120
  611MOL0     C82371   5.008   3.338   5.531  0.1126 -1.1312  0.1813
  611MOL0     C82372   5.058   3.431   5.420  0.3303  0.1026 -0.8560
  611MOL0     C82373   4.948   3.539   5.405 -0.1816  0.3570  0.8118
  611MOL0     O82374   4.968   3.608   5.272  1.0694  0.2310  0.3676
  611MOL0     C82375   4.952   3.544   5.150 -0.6728 -0.0409 -0.0775
  611MOL0     C82376   4.982   3.608   5.029 -0.8649  1.0428  0.4142
  611MOL0     C82377   4.963   3.542   4.908 -0.4161 -0.2858 -0.0421
  611MOL0     C82378   4.904   3.416   4.903  0.4731 -0.2676  0.5917
  611MOL0     C82379   4.872   3.358   4.763  0.0908 -0.4535  0.2748
  611MOL0     O82380   4.861   3.438   4.650  0.1038 -0.6133  0.4726
  611MOL0     C82381   4.889   3.378   4.528  0.3650 -0.4972  0.4414
  611MOL0     C82382   5.004   3.301   4.516  0.1633 -0.4709  0.3830
  611MOL0     C82383   5.028   3.237   4.393 -0.3200  0.8053  0.1952
  611MOL0     C82384   4.948   3.259   4.284 -0.2880  0.0024 -0.2504
  611MOL0     O82385   4.988   3.207   4.163  1.0165 -0.1281  1.0294
  611MOL0     C82386   5.053   3.077   4.172 -0.4566 -0.1315  0.0183
  611MOL0     C82387   4.976   2.989   4.071 -0.8648 -0.1926 -0.1689
  611MOL0     C82388   5.043   2.986   3.932 -0.4353 -0.0291  0.6943
  611MOL0     C82389   4.997   2.872   3.838 -0.4614  0.0926 -0.0329
  611MOL0     C82390   5.051   2.884   3.700 -0.2016 -0.3450 -0.2182
  611MOL0     C82391   5.007   2.757   3.633 -0.7846 -0.2927 -0.6410
  611MOL0     C82392   5.041   2.752   3.489  0.8559  0.0907  0.3416
  611MOL0     C82393   5.016   2.617   3.426 -0.0969  0.0264 -0.2590
  611MOL0    Cl82394   5.113   2.607   3.278  0.1508 -0.4240  0.2331
  611MOL0     C82395   4.835   3.338   4.296  0.7919  0.0175 -0.2281
  611MOL0     C82396   4.804   3.405   4.418 -0.3424 -1.1589  0.1144
  611MOL0     O82397   4.845   3.240   4.772  0.3511  0.2584  0.1991
  611MOL0     C82398   4.880   3.348   5.016 -0.1292  0.4427 -0.6090
  611MOL0     C82399   4.909   3.408   5.141  1.1510 -0.5306 -0.1013
  611MOL0     N82400   5.088   3.028   5.687  0.0518 -0.6615  0.0396
  611MOL0     N82401   4.995   2.956   5.753  0.2663  0.3784 -0.1739
  611MOL0     C82402   4.391   3.366   5.692 -0.6304  0.7946 -0.4312
  611MOL0     C82403   4.428   3.470   5.600  0.8309 -0.3390 -0.9969
  611MOL0     C82404   4.614   3.636   5.202  0.0375  0.5668  1.3059
  611MOL0     C82405   4.663   3.756   5.252 -0.3276 -0.1526 -0.1244
  611MOL0     C82406   4.676   3.878   5.175 -0.8433  0.3486  0.9275
  611MOL0     C82407   4.657   3.864   5.035  0.6445 -0.0647 -0.3830
  611MOL0     O82408   4.672   3.974   4.967  0.5948 -0.1801 -1.3067
  611MOL0     C82409   4.607   4.095   5.018  1.0273  0.5231 -0.7983
  611MOL0     C82410   4.608   4.215   4.914 -0.6607  0.1083 -0.4212
  611MOL0     C82411   4.760   4.262   4.875 -0.9527  0.0363  0.3101
  611MOL0     C82412   4.757   4.362   4.764 -0.1556  0.6982 -0.6324
  611MOL0     C82413   4.686   4.316   4.645 -0.1629  1.3271 -0.0775
  611MOL0     C82414   4.655   4.255   4.542  0.1037 -0.3574  0.4494
  611MOL0     C82415   4.613   3.740   4.980  0.4525  0.0477  0.1180
  611MOL0     C82416   4.580   3.631   5.060  0.1106 -0.9387 -1.2909
  611MOL0     C82417   4.520   3.513   4.998  0.3367 -0.4875  0.3806
  611MOL0     H82418   4.649   3.276   5.434  0.2871  1.8662 -1.6397
  611MOL0     H82419   4.583   3.112   5.603 -0.4501  0.0152  4.0177
  611MOL0     H82420   4.347   3.234   5.951 -2.8553  0.3806 -0.2116
  611MOL0     H82421   4.231   3.160   5.839 -0.4256  3.4544  0.6462
  611MOL0     H82422   4.260   2.943   5.928 -1.9030  3.3176 -0.0469
  611MOL0     H82423   4.250   3.053   6.060  5.2157  3.4317  2.4460
  611MOL0     H82424   4.500   2.924   5.992  1.8586 -2.1259  2.6747
  611MOL0     H82425   4.407   2.911   6.142  0.6351 -0.3239  0.2765
  611MOL0     H82426   4.552   3.148   6.040 -1.1024 -2.9518 -1.7678
  611MOL0     H82427   4.450   3.148   6.191  0.3605 -1.8920  1.6439
  611MOL0     H82428   4.683   3.125   6.260 -0.7315 -1.5298  1.0567
  611MOL0     H82429   4.593   2.980   6.293  1.6325  0.2977  1.3993
  611MOL0     H82430   4.788   2.896   6.225 -0.9022 -1.0899  1.1233
  611MOL0     H82431   4.681   2.859   6.095 -0.9557  1.4409 -1.5129
  611MOL0     H82432   4.914   3.007   6.061  0.1975  3.7667  1.9286
  611MOL0     H82433   4.808   3.140   6.088  1.0264 -0.5056  2.5333
  611MOL0     H82434   4.772   2.905   5.872 -1.7468 -0.6590 -0.0256
  611MOL0     H82435   4.699   3.056   5.872 -0.4426 -1.0314  1.0159
  611MOL0     H82436   4.900   3.264   5.797 -0.2750 -1.2091  1.6255
  611MOL0     H82437   5.174   3.323   5.666  0.4990 -1.8245  1.4470
  611MOL0     H82438   5.181   3.186   5.544  0.2903  1.4463  0.1592
  611MOL0     H82439   4.931   3.269   5.494 -2.6570  0.4623  2.5457
  611MOL0     H82440   4.964   3.406   5.604 -1.1305 -1.6966 -0.0106
  611MOL0     H82441   5.081   3.378   5.327  1.4460 -1.3182  0.1763
  611MOL0     H82442   5.145   3.485   5.460 -0.0288  0.1191 -0.0841
  611MOL0     H82443   4.958   3.600   5.495  1.9589 -3.9130  3.8279
  611MOL0     H82444   4.845   3.505   5.420  0.2550 -0.6338  1.6688
  611MOL0     H82445   5.009   3.713   5.024  0.6884  0.6128 -1.4958
  611MOL0     H82446   4.992   3.591   4.816 -1.5279  1.1691  0.3478
  611MOL0     H82447   5.087   3.307   4.586  1.5897  1.7730 -1.3415
  611MOL0     H82448   5.113   3.171   4.407 -1.0918  0.2199  2.5832
  611MOL0     H82449   5.160   3.078   4.151 -0.8156 -2.0517 -2.2649
  611MOL0     H82450   5.052   3.026   4.269 -0.7998 -2.1752 -0.9903
  611MOL0     H82451   4.959   2.896   4.126  1.7802  0.3098  1.7009
  611MOL0     H82452   4.883   3.042   4.049  0.1964  1.3660 -1.1111
  611MOL0     H82453   5.017   3.075   3.874 -1.0958 -0.4045  0.4043
  611MOL0     H82454   5.148   2.960   3.952 -0.1431 -1.9066 -2.5492
  611MOL0     H82455   4.889   2.883   3.820 -0.1913  1.3540 -0.9780
  611MOL0     H82456   5.014   2.782   3.897  0.7285 -0.4392 -1.1543
  611MOL0     H82457   5.159   2.895   3.713 -0.2907 -1.2205  1.5149
  611MOL0     H82458   5.009   2.979   3.665  0.8266  0.2515  0.1266
  611MOL0     H82459   5.059   2.676   3.685  2.6456  1.7972 -0.5548
  611MOL0     H82460   4.900   2.738   3.647 -0.4950 -0.4142  1.8842
  611MOL0     H82461   5.145   2.784   3.479  0.8794  1.7939  4.2454
  611MOL0     H82462   5.000   2.840   3.437  1.3390  0.0440 -0.1262
  611MOL0     H82463   5.031   2.536   3.499  0.8701 -0.8390 -1.3716
  611MOL0     H82464   4.913   2.614   3.391 -0.3425  0.7793  0.3613
  611MOL0     H82465   4.792   3.354   4.198  3.4912  1.2144 -1.3268
  611MOL0     H82466   4.728   3.480   4.435  1.4775  1.2137 -1.6267
  611MOL0     H82467   4.840   3.247   5.010  4.0624 -1.4848  0.5373
  611MOL0     H82468   4.896   3.342   5.226 -3.7848 -0.7351 -0.7389
  611MOL0     H82469   4.319   3.389   5.770 -0.9672 -0.6048 -0.2916
  611MOL0     H82470   4.382   3.569   5.599 -2.5621 -1.7464  0.9675
  611MOL0     H82471   4.699   3.760   5.355  1.9651 -1.0348 -0.8380
  611MOL0     H82472   4.723   3.964   5.222  0.9144 -0.8527  1.4995
  611MOL0     H82473   4.665   4.138   5.101 -0.9216 -2.6646  2.4530
  611MOL0     H82474   4.506   4.099   5.059  1.4983 -0.9880  0.6083
  611MOL0     H82475   4.556   4.300   4.960 -2.4615  0.8046 -3.4555
  611MOL0     H82476   4.556   4.184   4.823  1.6573 -1.0697 -1.4397
  611MOL0     H82477   4.814   4.172   4.845  0.0604  0.3729  1.0593
  611MOL0     H82478   4.808   4.320   4.955  0.8242 -0.1756 -0.5386
  611MOL0     H82479   4.728   4.462   4.797  1.7482  2.7867 -4.5838
  611MOL0     H82480   4.861   4.382   4.740  0.0263 -0.3101 -0.7459
  611MOL0     H82481   4.618   4.218   4.449 -2.7946  0.0127  1.3481
  611MOL0     H82482   4.592   3.732   4.873 -2.3845 -1.6139  0.6987
  611MOL0     H82483   4.432   3.479   5.054  1.1472 -0.9872  1.4118
  611MOL0     H82484   4.504   3.534   4.892 -0.5285 -0.4828  0.5076
  611MOL0     H82485   4.593   3.431   5.002 -0.3744 -1.0955  1.9225
  612MOL0     O82486   0.266   5.532   4.404 -0.0213  0.2238 -0.1700
  612MOL0     C82487   0.202   5.629   4.427  0.6375  0.1378  0.4263
  612MOL0     O82488   0.129   5.701   4.334 -0.6289 -0.3114  0.3037
  612MOL0     C82489   0.118   5.687   4.198 -0.4983  0.0483 -0.8283
  612MOL0     C82490   0.200   5.606   4.120  0.3055 -0.0191  0.9439
  612MOL0     C82491   0.206   5.629   3.978 -0.0148 -0.7762 -0.2692
  612MOL0     C82492   0.116   5.721   3.919 -1.1761 -0.3592  1.0366
  612MOL0     O82493   0.140   5.742   3.782  0.4678  0.3834  0.3348
  612MOL0     C82494   0.072   5.850   3.725 -0.6488  1.4282  0.6462
  612MOL0     C82495   0.107   5.852   3.577 -1.6569 -1.2475  0.0636
  612MOL0     C82496   0.255   5.880   3.552  0.7695  0.1544  0.2864
  612MOL0     C82497   0.288   5.854   3.413  0.2098  0.9435  0.1366
  612MOL0     C82498   0.446   5.882   3.401  0.0300 -0.2362  0.8383
  612MOL0     C82499   0.489   5.841   3.256  0.0716 -0.2776  0.8304
  612MOL0     C82500   0.448   5.945   3.155  0.5042 -0.0113 -0.5112
  612MOL0     C82501   0.500   6.088   3.163 -0.6166 -0.3795  0.2350
  612MOL0     N82502   0.423   6.178   3.251  0.3692 -0.0927  0.0289
  612MOL0     C82503   0.466   6.295   3.311  0.9068  0.1355 -0.1972
  612MOL0     C82504   0.365   6.337   3.386  0.5932  0.8444 -0.3130
  612MOL0     C82505   0.357   6.449   3.481  0.0934 -0.3157  0.0606
  612MOL0     C82506   0.416   6.420   3.616 -0.3355 -0.4171 -0.4690
  612MOL0     C82507   0.389   6.529   3.716 -0.4788 -0.3495 -1.2778
  612MOL0     C82508   0.468   6.517   3.848  0.0397 -0.0076  0.0441
  612MOL0     O82509   0.419   6.602   3.958  0.3922 -0.4279  0.1958
  612MOL0     C82510   0.508   6.652   4.048  0.5458 -0.2683 -0.1501
  612MOL0     C82511   0.501   6.790   4.091 -0.7906  0.2265 -0.5754
  612MOL0     C82512   0.600   6.834   4.180 -0.0456  0.0839 -0.0138
  612MOL0     C82513   0.708   6.755   4.222  1.0531  0.0027  0.0112
  612MOL0     C82514   0.806   6.802   4.326  0.0986  0.3507 -0.5522
  612MOL0     O82515   0.883   6.705   4.391  0.3817 -0.4042  0.2147
  612MOL0     C82516   0.950   6.747   4.499  0.6036 -1.4459  0.2048
  612MOL0     C82517   1.079   6.801   4.497  0.1289 -0.9551 -0.7661
  612MOL0     C82518   1.151   6.823   4.605 -0.3155  0.0124 -1.6157
  612MOL0     C82519   1.098   6.786   4.743  0.1627  0.8208  0.3872
  612MOL0     O82520   1.170   6.777   4.860 -0.4212  0.3598 -0.1325
  612MOL0     C82521   1.313   6.801   4.851  0.7536 -0.3270  0.0228
  612MOL0     C82522   1.354   6.803   4.998 -0.0661 -0.5295 -0.2342
  612MOL0     C82523   1.306   6.693   5.090 -0.3583 -0.0980 -0.0611
  612MOL0     C82524   1.378   6.679   5.232  0.4794  0.5780  0.4760
  612MOL0     C82525   1.348   6.545   5.309 -0.2125  0.3647  1.1400
  612MOL0     C82526   1.445   6.530   5.424 -0.8940  0.1659  0.1766
  612MOL0     C82527   1.413   6.628   5.545  0.0482  0.5311  0.6616
  612MOL0     C82528   1.505   6.589   5.662  0.0388 -0.4348 -1.1339
  612MOL0    Cl82529   1.677   6.613   5.618 -0.1660  0.4056 -0.0478
  612MOL0     C82530   0.971   6.714   4.743  0.7659  0.0449 -0.9350
  612MOL0     C82531   0.892   6.712   4.623 -0.1137 -0.4842 -0.2444
  612MOL0     O82532   0.795   6.931   4.357 -0.4417  0.1066 -0.6369
  612MOL0     C82533   0.697   6.619   4.190 -0.2331  0.0553  0.8390
  612MOL0     C82534   0.609   6.567   4.098 -0.1026  0.2460  0.2301
  612MOL0     N82535   0.257   6.243   3.377 -0.9818 -1.4344 -0.0439
  612MOL0     N82536   0.293   6.160   3.285 -0.0122  0.0764  0.0767
  612MOL0     C82537   0.035   5.796   4.000  0.6192 -0.2705  0.4132
  612MOL0     C82538   0.032   5.777   4.141  0.2539 -0.1809  0.3029
  612MOL0     C82539   0.191   5.677   4.566 -0.3775  0.0538 -0.2953
  612MOL0     C82540   0.104   5.778   4.595  1.2431  0.3478 -0.2566
  612MOL0     C82541   0.087   5.836   4.722 -0.1892 -0.8255  0.1328
  612MOL0     C82542   0.161   5.788   4.824  0.1557  0.1666  0.5470
  612MOL0     O82543   0.161   5.837   4.956  0.5532 -0.3036 -1.3825
  612MOL0     C82544   0.090   5.958   4.972 -0.9763  0.1271 -0.8407
  612MOL0     C82545   0.076   5.991   5.120  0.3400  0.7074 -0.1409
  612MOL0     C82546   0.022   6.137   5.147  0.5935  0.2609 -0.5120
  612MOL0     C82547   0.022   6.178   5.297 -0.5912 -0.0279  1.4396
  612MOL0     C82548  -0.076   6.112   5.380  0.2999 -0.1866 -1.0837
  612MOL0     C82549  -0.148   6.056   5.465  0.4619  0.1542  0.8638
  612MOL0     C82550   0.250   5.686   4.796  0.2568  0.7116 -0.5719
  612MOL0     C82551   0.267   5.631   4.669 -0.3652 -0.0536 -0.4898
  612MOL0     C82552   0.383   5.535   4.670  1.0539  0.6966 -0.0967
  612MOL0     H82553   0.272   5.540   4.168 -0.8291 -0.4857  2.0624
  612MOL0     H82554   0.279   5.578   3.915 -1.4711 -0.0525 -2.6686
  612MOL0     H82555  -0.037   5.846   3.723 -0.6562  1.7585 -0.9578
  612MOL0     H82556   0.113   5.941   3.772  1.5702 -0.4647  2.6346
  612MOL0     H82557   0.052   5.934   3.531  1.7210  0.8493 -0.5470
  612MOL0     H82558   0.065   5.760   3.535 -1.0326 -0.3713 -2.6835
  612MOL0     H82559   0.317   5.820   3.618  0.5574  0.5281  0.8314
  612MOL0     H82560   0.274   5.987   3.563  2.8427 -0.2163  0.8150
  612MOL0     H82561   0.265   5.752   3.381 -1.4810  1.1401  0.6647
  612MOL0     H82562   0.232   5.916   3.343 -0.1229  0.2330 -0.2371
  612MOL0     H82563   0.475   5.986   3.423 -2.3441  0.5838  0.4142
  612MOL0     H82564   0.486   5.819   3.481 -3.9003 -2.2427  1.4346
  612MOL0     H82565   0.597   5.830   3.249  0.0521  0.5928 -2.9414
  612MOL0     H82566   0.439   5.747   3.230  0.6271 -1.0323  2.3453
  612MOL0     H82567   0.339   5.945   3.141  0.4421 -1.0490 -0.0931
  612MOL0     H82568   0.472   5.902   3.058  2.1760  1.0701 -0.6028
  612MOL0     H82569   0.602   6.086   3.202 -1.1319  1.6231  1.8252
  612MOL0     H82570   0.501   6.132   3.063  0.3210 -0.5094  0.1771
  612MOL0     H82571   0.565   6.339   3.312  1.8212 -1.8299  0.6538
  612MOL0     H82572   0.421   6.521   3.429 -1.9369  0.2739 -1.7592
  612MOL0     H82573   0.256   6.487   3.496 -0.0509 -1.1079  1.2657
  612MOL0     H82574   0.373   6.325   3.650 -1.1628 -1.3313 -3.7422
  612MOL0     H82575   0.523   6.419   3.594  0.1418  1.4507  1.4351
  612MOL0     H82576   0.281   6.538   3.733 -0.6044 -1.3982 -1.4736
  612MOL0     H82577   0.422   6.617   3.660  2.7183 -2.6804 -3.4119
  612MOL0     H82578   0.573   6.537   3.824  1.1750 -2.6920  2.2718
  612MOL0     H82579   0.463   6.416   3.890 -2.7797 -0.7274 -1.7785
  612MOL0     H82580   0.426   6.866   4.070  1.4491  1.7678 -3.9757
  612MOL0     H82581   0.605   6.938   4.210 -0.6519  1.1861 -3.3759
  612MOL0     H82582   1.114   6.841   4.403  1.0588 -0.3249 -0.1738
  612MOL0     H82583   1.254   6.854   4.593 -0.2892  0.3299 -0.6566
  612MOL0     H82584   1.367   6.732   4.786 -0.9614 -2.1515  0.4188
  612MOL0     H82585   1.333   6.902   4.813 -0.6649  0.1211  0.4024
  612MOL0     H82586   1.463   6.807   5.006 -0.2115  3.9472  3.5889
  612MOL0     H82587   1.315   6.892   5.048  1.2005  0.5721 -1.1386
  612MOL0     H82588   1.198   6.690   5.107 -0.4239  0.9710 -0.2036
  612MOL0     H82589   1.329   6.608   5.025  4.4189  1.8142 -1.2815
  612MOL0     H82590   1.368   6.770   5.292 -4.0958  1.6211 -1.4495
  612MOL0     H82591   1.486   6.677   5.215  0.5692  2.6535  0.5387
  612MOL0     H82592   1.364   6.454   5.251  2.0175  0.5016  1.4696
  612MOL0     H82593   1.243   6.551   5.339 -1.8882 -1.6005 -3.4050
  612MOL0     H82594   1.446   6.429   5.464 -1.9135  0.5734  1.2886
  612MOL0     H82595   1.541   6.538   5.372  1.0481 -0.0181  3.4946
  612MOL0     H82596   1.315   6.599   5.583 -0.4607 -2.0085 -2.2012
  612MOL0     H82597   1.414   6.731   5.507 -1.7853  0.6690  0.9036
  612MOL0     H82598   1.477   6.655   5.745 -3.6555 -1.9683 -0.9481
  612MOL0     H82599   1.481   6.488   5.696 -3.7967  0.5371 -0.4803
  612MOL0     H82600   0.935   6.686   4.841  1.7868  0.5344 -0.3987
  612MOL0     H82601   0.787   6.684   4.619 -0.4475  0.6286  0.2537
  612MOL0     H82602   0.772   6.554   4.233 -0.0253 -1.3689 -1.5178
  612MOL0     H82603   0.622   6.463   4.069  1.3071  0.8366 -1.4287
  612MOL0     H82604  -0.011   5.889   3.969 -0.3966 -1.4121 -1.7333
  612MOL0     H82605  -0.025   5.849   4.199 -0.7844  1.5522 -2.6357
  612MOL0     H82606   0.033   5.817   4.523 -0.8246  0.2899  1.6452
  612MOL0     H82607   0.044   5.935   4.732  2.5578  0.4114  0.5592
  612MOL0     H82608  -0.014   5.949   4.943 -0.5264 -4.4405 -1.6680
  612MOL0     H82609   0.145   6.037   4.919 -0.3089  0.3826  0.2011
  612MOL0     H82610   0.171   5.974   5.171 -1.1768 -0.7963  2.4404
  612MOL0     H82611   0.005   5.916   5.158  0.9261  0.1811 -0.0670
  612MOL0     H82612  -0.075   6.155   5.099  1.4817  0.6351 -2.2637
  612MOL0     H82613   0.093   6.196   5.089  1.5194 -0.0027  0.3367
  612MOL0     H82614   0.123   6.158   5.332  0.3465  2.1800  0.1535
  612MOL0     H82615   0.014   6.285   5.317  2.2092  0.6168 -0.3570
  612MOL0     H82616  -0.220   6.007   5.528  0.9582 -1.2267  0.4117
  612MOL0     H82617   0.305   5.645   4.879 -1.1943 -0.0072  0.0643
  612MOL0     H82618   0.471   5.587   4.632  0.0156  1.7315 -1.1636
  612MOL0     H82619   0.401   5.490   4.768  1.6544  1.8566  0.3377
  612MOL0     H82620   0.361   5.451   4.603  0.8529  1.1193 -0.5665
  613MOL0     O82621   7.433   3.127   6.435  0.3216  0.2652 -0.1821
  613MOL0     C82622   7.392   3.169   6.547 -0.5420  0.0308 -0.2713
  613MOL0     O82623   7.377   3.095   6.664  0.0068  0.8364  0.1415
  613MOL0     C82624   7.394   2.954   6.653 -0.3945 -0.5790 -0.5143
  613MOL0     C82625   7.317   2.894   6.743 -1.6855 -0.3597  0.3505
  613MOL0     C82626   7.319   2.764   6.756  0.5359  0.4268 -0.2037
  613MOL0     C82627   7.409   2.678   6.686 -0.3169 -0.2740  0.3307
  613MOL0     O82628   7.401   2.538   6.698 -0.7264  0.1725 -0.6330
  613MOL0     C82629   7.525   2.462   6.679  0.3563 -0.4000 -0.2138
  613MOL0     C82630   7.504   2.310   6.709  0.7870 -0.8330  0.7896
  613MOL0     C82631   7.639   2.257   6.678 -0.4091  0.9710 -0.2387
  613MOL0     C82632   7.647   2.114   6.727 -0.5341 -0.8782 -0.9180
  613MOL0     C82633   7.789   2.077   6.707 -0.0467 -0.2181  0.6537
  613MOL0     C82634   7.790   1.926   6.748 -0.7442  0.6029 -0.7464
  613MOL0     C82635   7.922   1.852   6.706  0.2949 -0.1758  0.7630
  613MOL0     C82636   8.028   1.871   6.808  0.0417 -0.0727  0.1179
  613MOL0     N82637   8.150   1.817   6.747 -0.2883  0.5009  0.5700
  613MOL0     C82638   8.175   1.686   6.701  0.3660 -0.4932 -0.7014
  613MOL0     C82639   8.295   1.702   6.632  0.3427  1.2384 -0.2305
  613MOL0     C82640   8.353   1.586   6.558 -0.5348  0.5546  0.6369
  613MOL0     C82641   8.449   1.513   6.655  0.7066  0.6648 -0.6893
  613MOL0     C82642   8.470   1.371   6.605  1.3409  0.1115  1.1445
  613MOL0     C82643   8.490   1.266   6.720 -0.1121 -0.1548 -0.3398
  613MOL0     O82644   8.474   1.134   6.679 -0.2997 -0.2585 -0.4411
  613MOL0     C82645   8.355   1.081   6.711 -0.0428  0.5213  0.4653
  613MOL0     C82646   8.249   1.084   6.622  0.4330 -0.2018 -0.4523
  613MOL0     C82647   8.134   1.018   6.654  0.8117 -0.2189 -0.0362
  613MOL0     C82648   8.120   0.944   6.776  1.0839  0.2292 -0.2590
  613MOL0     C82649   8.019   0.843   6.778 -1.1380 -0.5818 -0.5637
  613MOL0     O82650   7.923   0.848   6.679 -0.1962 -0.1156 -0.7017
  613MOL0     C82651   7.811   0.766   6.705 -0.8173 -0.1242 -0.5465
  613MOL0     C82652   7.790   0.648   6.632 -0.4995 -0.1603 -1.3060
  613MOL0     C82653   7.659   0.589   6.639 -0.1510  0.4702  0.3155
  613MOL0     C82654   7.548   0.650   6.709 -0.2752 -0.4916  0.1682
  613MOL0     O82655   7.427   0.596   6.703 -0.4437  0.0701 -0.6127
  613MOL0     C82656   7.381   0.547   6.833  0.0278 -0.6668 -0.1004
  613MOL0     C82657   7.253   0.463   6.810  0.5698  0.1858 -0.6145
  613MOL0     C82658   7.279   0.339   6.717 -0.0258 -1.0501  0.3768
  613MOL0     C82659   7.388   0.241   6.766 -0.3739 -0.4444 -0.0740
  613MOL0     C82660   7.471   0.172   6.649  0.4466  0.4033  0.1194
  613MOL0     C82661   7.395   0.150   6.522 -0.2210  0.2089 -0.0321
  613MOL0     C82662   7.460   0.048   6.427 -0.0575  0.1873 -0.7282
  613MOL0     C82663   7.376   0.005   6.318  0.6174 -0.0870 -0.1877
  613MOL0    Cl82664   7.388   0.120   6.182 -0.6067 -0.2530 -0.1439
  613MOL0     C82665   7.590   0.756   6.793 -0.3500 -0.2330 -0.1690
  613MOL0     C82666   7.722   0.819   6.791  0.3571  0.5517 -0.4649
  613MOL0     O82667   8.032   0.761   6.869 -0.3517  0.1153  0.0493
  613MOL0     C82668   8.214   0.959   6.876  0.2136 -0.6092 -0.2203
  613MOL0     C82669   8.333   1.019   6.836 -0.7184 -0.2200 -0.2171
  613MOL0     N82670   8.345   1.832   6.651 -0.1657  0.3306 -0.1810
  613MOL0     N82671   8.253   1.901   6.718 -0.6739  0.2938 -0.0863
  613MOL0     C82672   7.511   2.749   6.609  0.9127  0.1448 -0.3448
  613MOL0     C82673   7.500   2.891   6.595 -0.4390  0.1641 -0.3602
  613MOL0     C82674   7.375   3.320   6.562 -0.1666 -0.2873 -0.3259
  613MOL0     C82675   7.316   3.364   6.681 -0.2749  0.4875 -0.1556
  613MOL0     C82676   7.304   3.499   6.720  0.0132 -0.0972  0.5431
  613MOL0     C82677   7.351   3.601   6.629 -0.1521  0.6667 -0.3763
  613MOL0     O82678   7.334   3.728   6.673  1.4482 -0.1967 -0.4554
  613MOL0     C82679   7.431   3.833   6.628  0.2537 -0.1506 -0.3079
  613MOL0     C82680   7.428   3.954   6.728  0.3139 -0.0346 -0.1815
  613MOL0     C82681   7.541   4.054   6.713 -0.6099  0.1469 -0.5527
  613MOL0     C82682   7.579   4.098   6.855  0.6734  0.4819 -0.2473
  613MOL0     C82683   7.690   4.194   6.857  0.0504 -0.9660 -0.6991
  613MOL0     C82684   7.777   4.285   6.853  0.6874  0.0896  0.3109
  613MOL0     C82685   7.417   3.558   6.515  0.2910 -0.2837  0.7695
  613MOL0     C82686   7.431   3.422   6.480 -0.1563  0.5043 -0.0193
  613MOL0     C82687   7.519   3.393   6.357  1.0645 -0.3773  0.2398
  613MOL0     H82688   7.251   2.956   6.803 -1.5782 -1.1451  1.3108
  613MOL0     H82689   7.252   2.719   6.829  0.3820 -0.3273 -0.7942
  613MOL0     H82690   7.548   2.477   6.573 -0.4727 -0.5743 -0.4256
  613MOL0     H82691   7.598   2.516   6.740 -0.5506  2.0582 -1.1743
  613MOL0     H82692   7.432   2.261   6.643 -0.5633  1.0651  0.7849
  613MOL0     H82693   7.476   2.299   6.814 -0.4272  2.6275  0.9335
  613MOL0     H82694   7.714   2.325   6.721 -0.6677  1.7202 -0.9584
  613MOL0     H82695   7.648   2.254   6.569 -1.7460  0.1300 -0.3494
  613MOL0     H82696   7.626   2.111   6.834 -2.0196  3.6608 -0.8512
  613MOL0     H82697   7.572   2.056   6.672  0.4633  0.0195 -3.3795
  613MOL0     H82698   7.826   2.094   6.605  0.6830 -0.4898  0.8679
  613MOL0     H82699   7.863   2.124   6.772  0.8378  2.0684 -1.8087
  613MOL0     H82700   7.778   1.900   6.853  0.7114 -2.8121 -1.2842
  613MOL0     H82701   7.715   1.877   6.685  3.2722 -2.2991 -3.7987
  613MOL0     H82702   7.955   1.890   6.609 -3.2401  2.1373  0.2526
  613MOL0     H82703   7.898   1.745   6.702 -2.9181  0.4391  0.9453
  613MOL0     H82704   8.048   1.971   6.848 -0.4898 -0.7316  2.1365
  613MOL0     H82705   8.000   1.805   6.890 -0.2002  0.5807  0.5749
  613MOL0     H82706   8.104   1.604   6.704 -2.6546  1.9174 -0.7260
  613MOL0     H82707   8.272   1.525   6.516 -0.4656  0.0493  1.2386
  613MOL0     H82708   8.416   1.616   6.473 -2.8016  0.0928 -1.3293
  613MOL0     H82709   8.545   1.564   6.657  2.3854 -2.1433  2.9040
  613MOL0     H82710   8.406   1.509   6.755  1.6619 -5.1800 -0.1519
  613MOL0     H82711   8.563   1.376   6.547  1.1450  1.6746  0.9334
  613MOL0     H82712   8.400   1.343   6.525  2.0170 -0.0907  0.6115
  613MOL0     H82713   8.413   1.292   6.793  1.1958  3.0455  0.0661
  613MOL0     H82714   8.587   1.274   6.769  0.2095 -4.1105  0.0217
  613MOL0     H82715   8.247   1.140   6.529  0.8429  0.8148  0.1338
  613MOL0     H82716   8.059   1.004   6.577 -0.9119 -0.0534  1.5431
  613MOL0     H82717   7.861   0.593   6.571 -1.4525 -4.6608  1.2195
  613MOL0     H82718   7.635   0.505   6.574  0.9377  1.2466 -1.1511
  613MOL0     H82719   7.462   0.491   6.881  0.8255 -0.4108 -1.1332
  613MOL0     H82720   7.350   0.622   6.907  0.2355 -1.3605  0.7148
  613MOL0     H82721   7.210   0.425   6.903 -0.5572  0.4357 -1.0058
  613MOL0     H82722   7.185   0.536   6.763  1.0799  0.5541 -0.7891
  613MOL0     H82723   7.185   0.286   6.698  0.0094 -0.7673 -0.6519
  613MOL0     H82724   7.301   0.382   6.619  1.0702 -0.2670  0.9397
  613MOL0     H82725   7.348   0.157   6.824  0.9266 -1.4187 -0.5219
  613MOL0     H82726   7.462   0.293   6.828 -3.9216  0.7379  3.5652
  613MOL0     H82727   7.509   0.074   6.682  1.9899  0.5513 -1.1232
  613MOL0     H82728   7.548   0.245   6.623 -1.0770  1.8034 -0.6224
  613MOL0     H82729   7.290   0.124   6.542 -0.1803  1.7086  2.6448
  613MOL0     H82730   7.397   0.248   6.474 -1.2870 -0.9670 -2.6691
  613MOL0     H82731   7.492  -0.043   6.480  0.4042  0.4099 -0.6200
  613MOL0     H82732   7.554   0.084   6.384  0.2128  1.0543  0.5471
  613MOL0     H82733   7.410  -0.097   6.300 -1.2656 -0.9736  0.8588
  613MOL0     H82734   7.271  -0.003   6.348  1.0327 -3.3498  0.8638
  613MOL0     H82735   7.516   0.806   6.855 -0.6704 -2.3767  1.3046
  613MOL0     H82736   7.733   0.907   6.852 -0.7355 -0.3692  1.1163
  613MOL0     H82737   8.205   0.912   6.974 -0.8799  0.6680  0.3137
  613MOL0     H82738   8.422   1.021   6.898  0.3396  1.5590 -1.6999
  613MOL0     H82739   7.597   2.708   6.558 -0.5400 -0.0372 -2.8214
  613MOL0     H82740   7.589   2.939   6.553  1.8300 -2.3701  1.2203
  613MOL0     H82741   7.286   3.293   6.757  3.1010 -0.5412  0.4072
  613MOL0     H82742   7.249   3.536   6.805 -2.6104  1.2373 -1.5989
  613MOL0     H82743   7.400   3.874   6.531  0.3563 -0.6017 -0.5354
  613MOL0     H82744   7.535   3.802   6.616  0.8970  2.3774 -2.1355
  613MOL0     H82745   7.438   3.911   6.828  0.7745  2.9702  1.1512
  613MOL0     H82746   7.325   3.991   6.727 -1.0351 -3.2806  1.6746
  613MOL0     H82747   7.527   4.133   6.639  2.6186  1.7497  0.3858
  613MOL0     H82748   7.627   3.996   6.678  1.6868  1.3019  2.6617
  613MOL0     H82749   7.492   4.153   6.891  1.6332  0.3136  2.5781
  613MOL0     H82750   7.592   4.009   6.918 -3.5528 -0.4818 -0.4371
  613MOL0     H82751   7.836   4.371   6.877  0.6897  0.3488 -0.6086
  613MOL0     H82752   7.467   3.629   6.450  0.2334 -1.6834 -0.8771
  613MOL0     H82753   7.598   3.320   6.378  2.1357  0.0695 -1.9760
  613MOL0     H82754   7.456   3.349   6.279  0.8318  2.3309 -1.2190
  613MOL0     H82755   7.561   3.483   6.311  3.7768 -0.6041  2.0098
  614MOL0     O82756   4.086   5.680   1.296 -0.7316 -0.1505 -0.2474
  614MOL0     C82757   4.160   5.772   1.281 -0.7540 -0.2724  0.5748
  614MOL0     O82758   4.296   5.760   1.256 -0.5811  0.4976 -0.2104
  614MOL0     C82759   4.339   5.637   1.248 -0.4198  0.5548 -0.8021
  614MOL0     C82760   4.373   5.560   1.358  0.0264  0.4472 -1.0312
  614MOL0     C82761   4.429   5.437   1.347 -0.5993 -0.5252  0.3673
  614MOL0     C82762   4.442   5.379   1.218 -0.2255  0.2372 -0.3406
  614MOL0     O82763   4.509   5.261   1.235 -0.9905  0.4796  0.2388
  614MOL0     C82764   4.558   5.197   1.115 -0.5977  0.7224  0.2758
  614MOL0     C82765   4.693   5.243   1.074  0.4331 -0.8782 -0.4287
  614MOL0     C82766   4.730   5.171   0.940 -0.5519  0.4534  0.0856
  614MOL0     C82767   4.876   5.212   0.919 -0.3878 -0.1828 -1.0641
  614MOL0     C82768   4.942   5.146   0.799 -0.0796 -0.5396 -1.3225
  614MOL0     C82769   4.881   5.175   0.658 -0.3516 -0.5404  0.9312
  614MOL0     C82770   4.917   5.057   0.557  0.3644 -0.5562 -0.3292
  614MOL0     C82771   4.820   5.072   0.447  1.5956  1.4832  0.2827
  614MOL0     N82772   4.841   4.979   0.348 -0.1623 -0.5763 -0.8659
  614MOL0     C82773   4.874   4.850   0.369  0.7246  0.1891  0.4223
  614MOL0     C82774   4.873   4.796   0.247  0.0109 -0.1386  0.1858
  614MOL0     C82775   4.898   4.654   0.203 -0.3978 -0.4915  0.5167
  614MOL0     C82776   4.918   4.623   0.053  0.1481  0.2640  0.5390
  614MOL0     C82777   4.954   4.478   0.043  0.5899  0.8320  0.4186
  614MOL0     C82778   4.938   4.418  -0.097 -0.6349  0.2006 -0.1719
  614MOL0     O82779   5.004   4.291  -0.097 -0.0409 -0.6069  0.9897
  614MOL0     C82780   5.001   4.234  -0.213 -0.6793  0.5343 -0.8454
  614MOL0     C82781   4.991   4.092  -0.212 -0.6500 -0.0171 -1.8611
  614MOL0     C82782   4.979   4.018  -0.329 -0.0949  0.6157 -1.0206
  614MOL0     C82783   4.959   4.082  -0.456 -0.1880  0.4541  0.5035
  614MOL0     C82784   4.957   3.997  -0.587 -0.9016  0.9324 -0.4489
  614MOL0     O82785   4.897   3.872  -0.576  0.6865 -0.1473 -0.1398
  614MOL0     C82786   4.884   3.784  -0.683 -0.2574  0.0556  0.6804
  614MOL0     C82787   4.870   3.643  -0.656  0.1299 -1.1955  0.6826
  614MOL0     C82788   4.863   3.545  -0.753 -0.2215 -0.6832  0.1322
  614MOL0     C82789   4.863   3.582  -0.892  0.1475 -0.2802  0.4942
  614MOL0     O82790   4.846   3.492  -0.985  0.4219  0.3023  0.0328
  614MOL0     C82791   4.840   3.347  -0.956  0.1428  0.6412  0.0728
  614MOL0     C82792   4.852   3.275  -1.099 -0.0896 -0.9081 -0.1862
  614MOL0     C82793   4.756   3.343  -1.205  0.1903  0.2555  0.3553
  614MOL0     C82794   4.746   3.288  -1.348 -0.8097  0.4345 -1.0317
  614MOL0     C82795   4.628   3.210  -1.386  0.6300  0.8116 -0.6733
  614MOL0     C82796   4.628   3.068  -1.318 -0.5588 -0.1517 -0.1856
  614MOL0     C82797   4.494   2.990  -1.338  0.2884 -0.1915  0.4964
  614MOL0     C82798   4.487   2.836  -1.338 -0.7216  1.3166  0.2064
  614MOL0    Cl82799   4.575   2.770  -1.482 -0.2089 -0.4054 -0.1800
  614MOL0     C82800   4.882   3.717  -0.922  0.7842  0.3559  0.0550
  614MOL0     C82801   4.882   3.814  -0.819 -0.1451  0.8451  0.4035
  614MOL0     O82802   5.008   4.039  -0.693  0.2030 -0.4804 -0.4107
  614MOL0     C82803   4.961   4.222  -0.457 -0.9836  0.7702 -0.2799
  614MOL0     C82804   5.001   4.290  -0.346  0.1682  0.6766  0.3612
  614MOL0     N82805   4.826   4.890   0.152 -0.5979 -0.4951 -0.7498
  614MOL0     N82806   4.811   4.999   0.214  0.1506  0.8552 -0.1036
  614MOL0     C82807   4.400   5.444   1.106  0.3870  0.4042  0.0833
  614MOL0     C82808   4.347   5.575   1.124 -1.2742 -0.3014 -0.1976
  614MOL0     C82809   4.100   5.905   1.290  0.3636 -0.4657  0.5601
  614MOL0     C82810   4.203   6.007   1.286  0.1327 -1.1350  1.5933
  614MOL0     C82811   4.170   6.140   1.305  0.4017 -0.0300  0.6206
  614MOL0     C82812   4.040   6.178   1.324  0.4813 -0.8062 -0.2814
  614MOL0     O82813   4.022   6.317   1.337 -0.1534 -0.1170 -0.2853
  614MOL0     C82814   3.966   6.379   1.218 -0.3852  0.0571 -0.5300
  614MOL0     C82815   3.983   6.524   1.226 -0.1668  0.8634 -0.1113
  614MOL0     C82816   3.905   6.585   1.353  0.1820 -0.2040  0.3539
  614MOL0     C82817   3.920   6.737   1.371 -0.2135 -0.9866  0.2447
  614MOL0     C82818   3.821   6.826   1.310  0.5390 -1.1990 -0.5062
  614MOL0     C82819   3.742   6.907   1.268 -1.2105 -0.5715 -0.5227
  614MOL0     C82820   3.932   6.078   1.316 -1.0639  0.4311  0.2161
  614MOL0     C82821   3.964   5.946   1.314  0.0763 -0.9573 -0.1449
  614MOL0     C82822   3.851   5.861   1.357  0.1271 -0.5408 -0.3684
  614MOL0     H82823   4.377   5.608   1.455 -0.4339 -2.4346  0.5299
  614MOL0     H82824   4.476   5.390   1.433 -1.0072 -0.3361  0.6959
  614MOL0     H82825   4.563   5.089   1.133  1.4606  0.3474 -2.0751
  614MOL0     H82826   4.484   5.193   1.035 -1.1798 -0.3218  0.8514
  614MOL0     H82827   4.770   5.223   1.149  0.8639  0.9346 -0.3298
  614MOL0     H82828   4.689   5.352   1.064  1.0958 -0.6333  1.5109
  614MOL0     H82829   4.671   5.209   0.855 -3.4202  0.6124  2.0075
  614MOL0     H82830   4.719   5.062   0.942  2.1491  0.0559 -1.8974
  614MOL0     H82831   4.883   5.321   0.920 -2.9321  0.0441 -0.4013
  614MOL0     H82832   4.926   5.190   1.013 -1.5478  0.6440 -0.2184
  614MOL0     H82833   5.042   5.189   0.794 -0.5154  0.4802 -1.6297
  614MOL0     H82834   4.957   5.042   0.828  2.3562 -0.2364 -1.2929
  614MOL0     H82835   4.774   5.196   0.663  0.0283  1.4775  1.7264
  614MOL0     H82836   4.924   5.265   0.614 -1.6811 -0.5657 -0.4833
  614MOL0     H82837   4.895   4.963   0.608  2.9195 -1.5242 -0.8711
  614MOL0     H82838   5.023   5.067   0.530  0.3468 -2.1440 -1.0986
  614MOL0     H82839   4.719   5.070   0.490  1.8293 -0.0165  0.8127
  614MOL0     H82840   4.834   5.169   0.399  1.0232  1.4703  0.0797
  614MOL0     H82841   4.901   4.788   0.454  6.8451  1.6892  0.0065
  614MOL0     H82842   4.991   4.627   0.253  0.5471  1.9625  0.2248
  614MOL0     H82843   4.814   4.590   0.231  1.3490 -2.4860  1.4519
  614MOL0     H82844   4.831   4.647  -0.008 -0.1643 -2.6578 -0.3343
  614MOL0     H82845   5.001   4.690   0.029 -0.3439  1.4110  1.8894
  614MOL0     H82846   4.905   4.417   0.119 -1.7943 -4.2097 -4.4622
  614MOL0     H82847   5.059   4.458   0.068  0.0745 -0.0863  1.9261
  614MOL0     H82848   4.973   4.489  -0.173  0.5785 -0.7289 -0.5095
  614MOL0     H82849   4.832   4.401  -0.118 -0.8089 -3.6347  2.7696
  614MOL0     H82850   4.991   4.038  -0.118  4.3237  1.9336 -0.4473
  614MOL0     H82851   4.961   3.911  -0.332 -2.4657  0.9568 -1.2965
  614MOL0     H82852   4.873   3.623  -0.549  1.4660  0.1167  0.9157
  614MOL0     H82853   4.852   3.443  -0.719  0.8483  0.1945  3.4425
  614MOL0     H82854   4.930   3.314  -0.903  0.0086 -0.5619 -0.4296
  614MOL0     H82855   4.742   3.312  -0.922 -0.3031 -1.5793 -3.0513
  614MOL0     H82856   4.956   3.299  -1.121  0.3063 -1.4675  0.9885
  614MOL0     H82857   4.840   3.167  -1.093  1.5793 -1.1837 -1.2295
  614MOL0     H82858   4.656   3.333  -1.162  0.2959 -0.3952  0.4600
  614MOL0     H82859   4.772   3.451  -1.215 -3.3044  0.7153 -1.8037
  614MOL0     H82860   4.833   3.222  -1.358 -1.0384 -0.3989  1.7604
  614MOL0     H82861   4.745   3.369  -1.422 -0.4178 -0.9706 -2.6691
  614MOL0     H82862   4.617   3.198  -1.495  1.4197 -1.3749 -0.5476
  614MOL0     H82863   4.539   3.259  -1.344  0.1766  0.0683 -0.7528
  614MOL0     H82864   4.720   3.020  -1.353  0.6630  1.0591  1.2202
  614MOL0     H82865   4.652   3.086  -1.213 -2.6746  0.9765  0.1440
  614MOL0     H82866   4.454   3.023  -1.434  1.9055  1.7814  0.4573
  614MOL0     H82867   4.425   3.008  -1.255 -2.9123 -0.8192 -1.8383
  614MOL0     H82868   4.528   2.793  -1.246 -3.8698 -1.7753  0.3854
  614MOL0     H82869   4.388   2.791  -1.349 -1.0959  2.3196 -0.7416
  614MOL0     H82870   4.895   3.743  -1.026  1.0906 -2.0661 -0.5688
  614MOL0     H82871   4.870   3.920  -0.840  0.7302  1.0303  0.8069
  614MOL0     H82872   4.952   4.278  -0.550 -2.9061  1.0636  0.0436
  614MOL0     H82873   5.024   4.396  -0.349  1.1079  0.5313  1.5772
  614MOL0     H82874   4.402   5.396   1.009 -0.9657 -0.5080  0.4863
  614MOL0     H82875   4.316   5.635   1.039  2.5321  0.8939 -0.9365
  614MOL0     H82876   4.310   5.993   1.276  0.1801  0.8216 -2.8064
  614MOL0     H82877   4.247   6.217   1.302 -0.1709  0.6519  2.1575
  614MOL0     H82878   3.860   6.350   1.214 -0.6563  0.3550  2.3208
  614MOL0     H82879   4.019   6.335   1.134  0.5955  0.1045  0.0569
  614MOL0     H82880   3.947   6.575   1.136  0.9561  0.7423 -0.6507
  614MOL0     H82881   4.090   6.547   1.226 -0.2612  1.3195 -0.1373
  614MOL0     H82882   3.940   6.536   1.445 -3.0113 -1.3911  1.0817
  614MOL0     H82883   3.798   6.562   1.348 -0.4813  2.7198 -0.5734
  614MOL0     H82884   3.930   6.758   1.478  0.6001  2.3480 -0.3919
  614MOL0     H82885   4.007   6.784   1.325 -0.6176  1.4069  1.7497
  614MOL0     H82886   3.664   6.975   1.243 -1.9619 -1.5848 -0.9922
  614MOL0     H82887   3.831   6.116   1.306 -0.7253  1.9016  1.8520
  614MOL0     H82888   3.889   5.763   1.384  0.2090  0.4419  3.9085
  614MOL0     H82889   3.795   5.900   1.443  0.6318  0.9399 -0.6741
  614MOL0     H82890   3.785   5.860   1.270  1.3541  1.1174 -1.3810
  615MOL0     O82891   0.204   8.962   9.383 -0.6189 -0.4521 -1.1869
  615MOL0     C82892   0.199   8.874   9.305  0.3518 -0.9838  0.6389
  615MOL0     O82893   0.257   8.749   9.321  0.4564  0.2788 -0.0665
  615MOL0     C82894   0.315   8.711   9.448  0.5737 -0.0737  0.6969
  615MOL0     C82895   0.279   8.756   9.576 -0.2369  0.0722  0.0556
  615MOL0     C82896   0.338   8.700   9.690  0.1498 -1.3878 -0.4006
  615MOL0     C82897   0.422   8.593   9.674 -0.0940  0.7627  1.0636
  615MOL0     O82898   0.466   8.535   9.786 -0.4463  0.1913  0.1189
  615MOL0     C82899   0.461   8.593   9.919 -0.6758  0.0286  0.8802
  615MOL0     C82900   0.468   8.490  10.032 -0.4127  0.0802 -0.6852
  615MOL0     C82901   0.443   8.554  10.166  0.9119  1.1706  0.0194
  615MOL0     C82902   0.412   8.447  10.274 -0.3031  0.9463  0.6331
  615MOL0     C82903   0.513   8.332  10.284  0.1346  0.4118 -0.6279
  615MOL0     C82904   0.461   8.244  10.406 -0.5216  0.3684 -1.0952
  615MOL0     C82905   0.526   8.286  10.533 -0.2302 -0.7404 -0.1349
  615MOL0     C82906   0.502   8.190  10.652 -1.0906  0.3520  0.4822
  615MOL0     N82907   0.550   8.244  10.780  0.6485 -0.2899  0.7024
  615MOL0     C82908   0.679   8.287  10.808 -0.5889  0.0896 -1.0196
  615MOL0     C82909   0.689   8.306  10.939  1.4818 -0.0368  0.3789
  615MOL0     C82910   0.806   8.348  11.025  0.3468  0.1496  0.5719
  615MOL0     C82911   0.751   8.441  11.128  0.3981 -0.7743  0.1863
  615MOL0     C82912   0.857   8.479  11.228 -0.1594 -0.3468 -1.0355
  615MOL0     C82913   0.804   8.539  11.360 -0.3364 -0.8466  0.2600
  615MOL0     O82914   0.817   8.681  11.353  0.1432  0.0530 -0.9437
  615MOL0     C82915   0.767   8.764  11.449  0.4237  1.1356  0.6055
  615MOL0     C82916   0.735   8.891  11.401 -0.2320 -0.6572 -0.4869
  615MOL0     C82917   0.703   8.996  11.499 -0.5700  0.2383 -0.6690
  615MOL0     C82918   0.679   8.961  11.628  0.5895  0.2413  0.3436
  615MOL0     C82919   0.646   9.066  11.737  1.0394 -0.0013  0.2395
  615MOL0     O82920   0.693   9.059  11.869 -0.9129 -0.2168  0.1471
  615MOL0     C82921   0.637   9.152  11.951  0.1235 -0.3257  0.5916
  615MOL0     C82922   0.506   9.152  12.008 -0.0878  0.2981  0.7363
  615MOL0     C82923   0.470   9.244  12.100 -0.1160 -0.1540  0.2683
  615MOL0     C82924   0.549   9.347  12.147  0.0061 -1.0762  0.7021
  615MOL0     O82925   0.520   9.455  12.224  0.4783 -0.1057 -0.8850
  615MOL0     C82926   0.412   9.425  12.320 -0.4101 -0.1880 -0.4234
  615MOL0     C82927   0.412   9.541  12.427 -0.8415 -0.2977 -0.5155
  615MOL0     C82928   0.357   9.683  12.384  0.5297 -0.3207 -0.1915
  615MOL0     C82929   0.282   9.747  12.497 -0.1397  0.7035  0.4622
  615MOL0     C82930   0.201   9.881  12.458  1.1889  0.2477  0.8001
  615MOL0     C82931   0.078   9.838  12.362 -0.1174 -0.3588 -0.5214
  615MOL0     C82932   0.022   9.968  12.294  0.2229 -0.3026 -0.4836
  615MOL0     C82933  -0.049  10.070  12.389 -0.5844  0.5023 -0.7962
  615MOL0    Cl82934  -0.053  10.234  12.321 -0.1724  0.0872 -0.1362
  615MOL0     C82935   0.681   9.341  12.103 -0.6427  0.5028  0.4860
  615MOL0     C82936   0.726   9.250  12.005 -0.3513 -0.0577  0.3416
  615MOL0     O82937   0.585   9.166  11.698 -0.4128  0.2402  0.3018
  615MOL0     C82938   0.692   8.820  11.661 -0.0136  0.6825  0.5988
  615MOL0     C82939   0.733   8.722  11.569 -0.1720 -0.0726 -0.3990
  615MOL0     N82940   0.565   8.264  10.993  0.3482  0.7082  0.0620
  615MOL0     N82941   0.485   8.228  10.897 -0.1292 -0.5325  0.1978
  615MOL0     C82942   0.462   8.546   9.556  0.2788  1.2149  0.9114
  615MOL0     C82943   0.402   8.604   9.440 -0.7282 -0.0746  0.0723
  615MOL0     C82944   0.134   8.888   9.174  0.2528 -0.4340 -0.3300
  615MOL0     C82945   0.134   8.772   9.084 -0.5310 -0.0885 -0.4517
  615MOL0     C82946   0.062   8.778   8.964  0.2405  0.2985 -0.2845
  615MOL0     C82947   0.007   8.899   8.919 -0.5400 -1.0938  0.4712
  615MOL0     O82948  -0.053   8.901   8.790  0.4236 -0.8071 -0.3799
  615MOL0     C82949  -0.111   9.027   8.745  0.0784 -0.3106 -0.4683
  615MOL0     C82950  -0.140   9.017   8.602  1.1293  0.0967 -0.0139
  615MOL0     C82951  -0.198   9.140   8.537  0.2896  0.1147  0.2120
  615MOL0     C82952  -0.125   9.268   8.565  0.2402 -0.3153  0.6509
  615MOL0     C82953   0.012   9.278   8.546 -0.6082  0.4229 -0.0413
  615MOL0     C82954   0.134   9.269   8.537 -0.4532 -0.0090  0.0109
  615MOL0     C82955   0.008   9.008   9.007  0.8294 -0.2775  0.8220
  615MOL0     C82956   0.064   9.007   9.130 -0.7197  0.2526 -0.3448
  615MOL0     C82957   0.073   9.152   9.195 -0.3440  0.0812 -0.5476
  615MOL0     H82958   0.207   8.835   9.594  2.0987  2.1014  1.1636
  615MOL0     H82959   0.301   8.753   9.778 -0.7184 -2.9724  0.2363
  615MOL0     H82960   0.549   8.658   9.922 -1.8476  1.9263 -2.0849
  615MOL0     H82961   0.386   8.670   9.940  1.5490  3.1146 -1.6064
  615MOL0     H82962   0.568   8.449  10.047 -0.2842  0.3292 -0.8436
  615MOL0     H82963   0.381   8.426  10.015 -0.3845 -0.6770  1.7214
  615MOL0     H82964   0.359   8.624  10.168  0.5489  0.7424 -0.0614
  615MOL0     H82965   0.527   8.613  10.204  0.4002  0.0921  3.0994
  615MOL0     H82966   0.413   8.507  10.365 -2.6745 -0.1919  1.5036
  615MOL0     H82967   0.309   8.416  10.255 -1.2302  5.1079 -2.5946
  615MOL0     H82968   0.521   8.274  10.191 -2.1962  0.5114 -0.9692
  615MOL0     H82969   0.614   8.366  10.305 -0.1328 -0.6567  3.1963
  615MOL0     H82970   0.352   8.232  10.413 -0.3392 -0.2661  2.8914
  615MOL0     H82971   0.493   8.142  10.384 -0.4689 -0.1831  1.2808
  615MOL0     H82972   0.495   8.387  10.561  0.0913 -1.0561  1.4604
  615MOL0     H82973   0.631   8.308  10.511 -0.7974  0.4711 -1.8429
  615MOL0     H82974   0.395   8.172  10.663 -1.1022  0.2824  0.2696
  615MOL0     H82975   0.539   8.089  10.635  0.1248  1.1185 -2.0185
  615MOL0     H82976   0.759   8.316  10.740 -0.4932 -0.8550 -1.3195
  615MOL0     H82977   0.842   8.258  11.075  0.2556  1.0760  2.4245
  615MOL0     H82978   0.893   8.388  10.972  1.0453 -3.5536 -1.3443
  615MOL0     H82979   0.715   8.532  11.078  0.0595 -0.4779  0.9534
  615MOL0     H82980   0.666   8.397  11.180  2.2536 -1.3819  2.9134
  615MOL0     H82981   0.920   8.549  11.171 -0.3620  0.1538 -0.6555
  615MOL0     H82982   0.908   8.387  11.258  0.1358  0.0848 -0.1764
  615MOL0     H82983   0.866   8.508  11.445  0.0955  0.6552  0.5368
  615MOL0     H82984   0.703   8.508  11.388 -0.8649  1.9405  1.7988
  615MOL0     H82985   0.757   8.917  11.297  3.1743  3.1744  0.8950
  615MOL0     H82986   0.673   9.091  11.456 -2.2698  0.2726  0.4923
  615MOL0     H82987   0.438   9.070  11.986 -1.9275  1.9120  0.0503
  615MOL0     H82988   0.374   9.226  12.148 -1.8127 -1.3045 -3.2169
  615MOL0     H82989   0.315   9.433  12.271 -1.1118  2.2041  1.1850
  615MOL0     H82990   0.438   9.325  12.358  2.1070  0.5551  0.0209
  615MOL0     H82991   0.354   9.516  12.516 -0.7733  2.2158  0.3157
  615MOL0     H82992   0.517   9.558  12.453 -0.5116  1.0517 -2.5091
  615MOL0     H82993   0.433   9.759  12.363 -0.3677  1.3129  2.0269
  615MOL0     H82994   0.290   9.663  12.300  2.6638 -2.9237 -1.4003
  615MOL0     H82995   0.354   9.779  12.573 -0.4668  1.2155  0.5634
  615MOL0     H82996   0.222   9.669  12.545  1.5246 -0.8608  0.1141
  615MOL0     H82997   0.263   9.954  12.405  0.0997 -1.2189 -2.8336
  615MOL0     H82998   0.159   9.905  12.556 -2.2143 -0.5828 -0.3214
  615MOL0     H82999   0.121   9.782  12.279 -1.2607 -1.8778 -0.1335
  615MOL0     H83000  -0.001   9.776  12.406  1.0951 -0.8666  1.0206
  615MOL0     H83001  -0.046   9.942  12.212 -0.0503 -1.3416  0.0523
  615MOL0     H83002   0.111  10.021  12.261 -0.7818  1.9514  0.2180
  615MOL0     H83003  -0.148  10.028  12.412  0.6374 -1.8668  0.5499
  615MOL0     H83004   0.006  10.073  12.483 -0.7310  0.0011 -0.6900
  615MOL0     H83005   0.747   9.420  12.139 -0.2698  0.4393 -0.0481
  615MOL0     H83006   0.821   9.269  11.957 -0.5676 -2.1328 -1.0514
  615MOL0     H83007   0.675   8.795  11.765 -0.1039  0.4070  0.5191
  615MOL0     H83008   0.751   8.619  11.596 -1.3686 -0.0158  0.6951
  615MOL0     H83009   0.538   8.469   9.545 -0.8621 -0.1471  2.2036
  615MOL0     H83010   0.437   8.570   9.343  4.5818  0.9227  1.3350
  615MOL0     H83011   0.177   8.678   9.117 -1.6062 -0.2190  0.6250
  615MOL0     H83012   0.053   8.696   8.893 -1.1779 -2.7924  3.1122
  615MOL0     H83013  -0.039   9.107   8.764 -0.1587 -0.6959  2.4430
  615MOL0     H83014  -0.204   9.047   8.800  0.4077 -0.0119 -0.0154
  615MOL0     H83015  -0.209   8.933   8.589 -0.9401  1.8400 -0.8926
  615MOL0     H83016  -0.045   8.992   8.554 -0.2910 -1.4373 -2.2264
  615MOL0     H83017  -0.303   9.150   8.566  0.4001  3.4506 -0.1744
  615MOL0     H83018  -0.207   9.139   8.428 -2.4866  0.7735  0.3697
  615MOL0     H83019  -0.161   9.342   8.493  1.7079 -1.1819 -1.0603
  615MOL0     H83020  -0.151   9.305   8.665 -1.9072  0.7458 -0.2394
  615MOL0     H83021   0.240   9.257   8.532 -0.2607  1.3887  0.2855
  615MOL0     H83022  -0.017   9.107   8.970 -0.8172 -1.0924 -0.3170
  615MOL0     H83023   0.176   9.185   9.212 -0.0882  0.3308 -2.4007
  615MOL0     H83024   0.024   9.231   9.137  0.3047  0.2354 -0.8915
  615MOL0     H83025   0.023   9.150   9.292 -2.5563  1.9031 -1.5793
  616MOL0     O83026   5.278   7.689   3.652 -0.3022  0.4354  0.7443
  616MOL0     C83027   5.165   7.676   3.702 -0.6885 -0.0614  0.0940
  616MOL0     O83028   5.051   7.653   3.626 -0.0785  0.1375 -0.0930
  616MOL0     C83029   5.065   7.652   3.483  0.1989  0.2363  0.8829
  616MOL0     C83030   5.009   7.543   3.423 -0.0395  0.2982 -0.3228
  616MOL0     C83031   5.019   7.507   3.288  0.9049  0.1759  0.1371
  616MOL0     C83032   5.092   7.600   3.209  0.6028  0.0658 -0.2760
  616MOL0     O83033   5.096   7.577   3.077  0.2269  0.3540 -0.1356
  616MOL0     C83034   5.095   7.688   2.984  0.0584 -0.4161 -0.1426
  616MOL0     C83035   5.159   7.667   2.843  0.1628 -0.5483 -0.3750
  616MOL0     C83036   5.072   7.601   2.744 -0.0032 -0.0346 -0.0007
  616MOL0     C83037   5.021   7.461   2.773 -0.0496  0.0525  0.0613
  616MOL0     C83038   4.990   7.373   2.644  0.1129  0.0120 -0.1647
  616MOL0     C83039   4.993   7.221   2.680  0.1293 -0.9716 -0.5358
  616MOL0     C83040   4.935   7.130   2.573  0.0690 -0.0459  0.4022
  616MOL0     C83041   4.924   6.979   2.610  0.2210 -1.0199 -0.2397
  616MOL0     N83042   4.903   6.961   2.746  0.7610 -0.4239 -0.7251
  616MOL0     C83043   4.782   6.945   2.808  0.0870 -0.2511  0.0806
  616MOL0     C83044   4.804   6.926   2.933  0.6709  0.3829  0.4970
  616MOL0     C83045   4.691   6.903   3.030 -0.1220  1.2813 -0.1849
  616MOL0     C83046   4.666   6.751   3.062 -0.2899 -0.8550  0.9503
  616MOL0     C83047   4.538   6.741   3.134  0.6865 -0.8889 -0.8641
  616MOL0     C83048   4.514   6.591   3.180  0.7287  0.2279  1.3591
  616MOL0     O83049   4.589   6.568   3.297  0.8114  0.8428 -0.3443
  616MOL0     C83050   4.561   6.447   3.358  0.0293  0.2291 -0.2400
  616MOL0     C83051   4.605   6.437   3.492 -0.8022 -0.0720  0.4430
  616MOL0     C83052   4.592   6.320   3.561 -1.0128 -0.4312  0.8961
  616MOL0     C83053   4.529   6.214   3.508  0.4480 -0.1462  0.0842
  616MOL0     C83054   4.510   6.093   3.585  0.5986 -0.1860 -0.1722
  616MOL0     O83055   4.521   5.968   3.522 -0.1427 -0.1245 -1.2714
  616MOL0     C83056   4.533   5.849   3.592 -1.1391 -0.0711  0.3702
  616MOL0     C83057   4.613   5.750   3.530 -0.4170 -0.4895  0.6754
  616MOL0     C83058   4.632   5.630   3.601 -0.6751 -0.5686  0.3232
  616MOL0     C83059   4.582   5.606   3.726  0.2020 -0.3591  0.2909
  616MOL0     O83060   4.606   5.475   3.774 -0.7361 -1.0310  0.2803
  616MOL0     C83061   4.539   5.428   3.894  0.2271  0.8310 -0.1819
  616MOL0     C83062   4.388   5.399   3.896  0.8950 -0.8518  0.8141
  616MOL0     C83063   4.338   5.363   3.750  0.0160 -0.5147 -0.7693
  616MOL0     C83064   4.207   5.287   3.751  0.2935 -0.5079  0.2686
  616MOL0     C83065   4.174   5.241   3.608 -0.2842  0.3093  0.4624
  616MOL0     C83066   4.046   5.150   3.598  0.6675 -0.1628 -0.5195
  616MOL0     C83067   4.068   5.008   3.660  0.5479 -0.0517 -0.7703
  616MOL0     C83068   3.947   4.957   3.757 -0.3315  0.3851  0.7764
  616MOL0    Cl83069   3.800   4.973   3.666  0.0414  0.4097  0.0905
  616MOL0     C83070   4.491   5.700   3.775  1.3610 -0.4035 -0.5779
  616MOL0     C83071   4.463   5.821   3.712  0.5646 -0.1300 -0.5463
  616MOL0     O83072   4.483   6.111   3.700 -0.2582  0.1171 -0.9036
  616MOL0     C83073   4.476   6.218   3.383  0.1367 -0.6859  1.3415
  616MOL0     C83074   4.490   6.339   3.308  1.0073  0.4027 -0.5739
  616MOL0     N83075   4.948   6.922   2.954  0.2966 -0.0655 -0.1229
  616MOL0     N83076   5.005   6.945   2.835 -1.1655 -0.0123 -0.0493
  616MOL0     C83077   5.157   7.712   3.268  0.6698 -0.5892  0.7825
  616MOL0     C83078   5.147   7.740   3.404  0.0037 -1.2140 -0.6158
  616MOL0     C83079   5.145   7.677   3.848 -0.2627 -0.5201 -0.5960
  616MOL0     C83080   5.062   7.574   3.902  0.7391 -0.9792 -0.0608
  616MOL0     C83081   5.055   7.553   4.038  0.1042 -0.1790 -0.5664
  616MOL0     C83082   5.112   7.630   4.127  0.3255  0.1553 -0.3393
  616MOL0     O83083   5.085   7.614   4.257 -0.4934  0.0001 -0.7234
  616MOL0     C83084   5.086   7.730   4.344 -0.0062 -0.8160  0.6730
  616MOL0     C83085   4.971   7.715   4.444 -1.0244 -0.0450 -0.3248
  616MOL0     C83086   5.009   7.610   4.548 -0.7201  0.4349 -0.1432
  616MOL0     C83087   5.065   7.674   4.687  0.5484  0.0060 -0.2247
  616MOL0     C83088   4.957   7.708   4.773  0.1843 -0.1779 -1.0035
  616MOL0     C83089   4.871   7.754   4.851 -0.2247 -0.1165  0.0841
  616MOL0     C83090   5.199   7.723   4.082 -0.3368 -0.1038  0.4634
  616MOL0     C83091   5.220   7.749   3.946 -0.1388  0.7726  1.0808
  616MOL0     C83092   5.322   7.844   3.909  0.4124  0.4344 -0.8493
  616MOL0     H83093   4.962   7.478   3.496 -0.3089  1.4526  0.5631
  616MOL0     H83094   4.979   7.412   3.254 -1.4208  0.7865  0.9758
  616MOL0     H83095   4.993   7.724   2.969  0.4067  0.3691 -0.7317
  616MOL0     H83096   5.159   7.773   3.011 -0.1779  1.3656 -4.3749
  616MOL0     H83097   5.255   7.617   2.857  0.3479  0.1857  1.3665
  616MOL0     H83098   5.191   7.765   2.807  1.2257 -0.0778  1.6455
  616MOL0     H83099   5.141   7.599   2.659 -0.0236 -1.6813 -0.0097
  616MOL0     H83100   4.987   7.669   2.728  0.7808  0.7558 -0.9737
  616MOL0     H83101   5.100   7.399   2.818  0.6292  0.8145 -0.0748
  616MOL0     H83102   4.942   7.478   2.846 -0.4320  2.5756 -0.8567
  616MOL0     H83103   4.891   7.397   2.605 -0.8332 -1.9035  0.9025
  616MOL0     H83104   5.070   7.401   2.575  2.7211 -0.6320  2.3800
  616MOL0     H83105   5.099   7.200   2.701  0.0270 -0.9600  0.0012
  616MOL0     H83106   4.932   7.207   2.770 -3.3982  1.6594 -2.2782
  616MOL0     H83107   4.994   7.130   2.481  2.9104  0.9413  2.1087
  616MOL0     H83108   4.836   7.162   2.539 -0.3466 -1.3513  0.3325
  616MOL0     H83109   4.843   6.926   2.560  1.7636 -0.1832 -3.9436
  616MOL0     H83110   5.022   6.936   2.587  0.4858  0.4421 -2.1087
  616MOL0     H83111   4.681   6.961   2.771  0.6327  0.1516 -1.3029
  616MOL0     H83112   4.701   6.967   3.119 -0.1023  1.0030  0.0167
  616MOL0     H83113   4.606   6.934   2.968 -0.8051 -0.4142 -0.1382
  616MOL0     H83114   4.675   6.693   2.970  2.2605 -0.0030  0.5718
  616MOL0     H83115   4.746   6.711   3.126  0.2781 -1.1629  0.0705
  616MOL0     H83116   4.461   6.776   3.065  0.6473 -0.5346 -0.6407
  616MOL0     H83117   4.535   6.814   3.216  1.2740 -2.9416  1.1057
  616MOL0     H83118   4.549   6.524   3.101  0.3291 -1.4008  2.5083
  616MOL0     H83119   4.408   6.573   3.202  0.6898  1.6062  2.3828
  616MOL0     H83120   4.671   6.514   3.530  1.0886 -1.6454  0.5826
  616MOL0     H83121   4.651   6.308   3.652  1.9377  3.3885 -0.2345
  616MOL0     H83122   4.650   5.790   3.437 -2.0862  1.1158  0.6370
  616MOL0     H83123   4.705   5.559   3.563 -1.2685 -2.0595  1.8502
  616MOL0     H83124   4.583   5.330   3.913 -0.7237  0.1453 -1.4520
  616MOL0     H83125   4.568   5.491   3.979  3.0091  0.1022 -0.4856
  616MOL0     H83126   4.370   5.316   3.965 -1.5262 -1.3674 -0.3364
  616MOL0     H83127   4.341   5.489   3.938  0.3949  0.0134 -1.4164
  616MOL0     H83128   4.321   5.456   3.695  3.3814  0.6935 -0.0226
  616MOL0     H83129   4.405   5.292   3.701 -1.8245 -2.2428 -0.9204
  616MOL0     H83130   4.128   5.356   3.783  1.8358  0.5840  1.9421
  616MOL0     H83131   4.218   5.203   3.820  3.5177  0.2701  0.8646
  616MOL0     H83132   4.255   5.175   3.575 -1.0973 -1.8085  2.4830
  616MOL0     H83133   4.170   5.333   3.548 -2.9284  1.7581  2.6212
  616MOL0     H83134   3.962   5.199   3.647  0.6029  0.2507 -1.0272
  616MOL0     H83135   4.015   5.149   3.493 -2.0540 -0.3863  0.2257
  616MOL0     H83136   4.169   4.994   3.700  0.1096  0.7262  0.6804
  616MOL0     H83137   4.065   4.946   3.569  0.3851  4.6475 -4.3360
  616MOL0     H83138   3.967   4.851   3.779 -2.0319 -0.0321  0.4285
  616MOL0     H83139   3.942   5.017   3.848  0.3636 -2.1770  2.6430
  616MOL0     H83140   4.450   5.673   3.872  0.0561  0.4335 -0.8687
  616MOL0     H83141   4.410   5.881   3.785  1.1924 -1.3012  0.9351
  616MOL0     H83142   4.430   6.132   3.335  0.3016 -0.7721  1.3362
  616MOL0     H83143   4.447   6.341   3.209 -0.4988  1.9565  0.0561
  616MOL0     H83144   5.206   7.789   3.210 -5.5713  3.6057  0.1425
  616MOL0     H83145   5.187   7.825   3.459  0.0073 -3.2581  2.8207
  616MOL0     H83146   4.979   7.533   3.845 -1.1231  1.4116  0.7558
  616MOL0     H83147   4.994   7.476   4.085  1.0743 -0.7669 -0.2402
  616MOL0     H83148   5.071   7.823   4.289  1.1079 -1.7606 -1.3303
  616MOL0     H83149   5.182   7.742   4.396  0.3504  0.7156 -0.2891
  616MOL0     H83150   4.880   7.681   4.393 -1.6923  2.4887 -1.0080
  616MOL0     H83151   4.952   7.810   4.496  0.4728  0.2771 -0.3300
  616MOL0     H83152   5.075   7.538   4.498 -1.2265  0.6732 -1.1872
  616MOL0     H83153   4.922   7.545   4.564  0.8799 -3.3408 -4.4646
  616MOL0     H83154   5.127   7.598   4.736 -2.2787 -3.1815 -1.1636
  616MOL0     H83155   5.139   7.748   4.654  0.4554 -1.0135 -3.0737
  616MOL0     H83156   4.786   7.784   4.909  0.0207  0.7570  0.0052
  616MOL0     H83157   5.255   7.784   4.153  0.0732  0.8580 -0.6578
  616MOL0     H83158   5.415   7.788   3.915 -1.6384 -3.1987 -0.0875
  616MOL0     H83159   5.290   7.892   3.816  1.1460  1.3196 -0.6596
  616MOL0     H83160   5.315   7.918   3.990  5.1418 -0.5745  0.7933
  617MOL0     O83161   5.193   9.055   5.770  0.3368 -0.6766  0.1556
  617MOL0     C83162   5.190   9.004   5.883 -0.7936 -0.2572  0.2354
  617MOL0     O83163   5.167   9.061   5.996 -0.0134 -0.6577 -0.0526
  617MOL0     C83164   5.108   9.187   5.987  0.3136  1.3370  0.0256
  617MOL0     C83165   4.966   9.201   6.012 -0.5178  0.1508 -1.2869
  617MOL0     C83166   4.902   9.327   6.009  1.1394 -0.6593  0.0563
  617MOL0     C83167   4.985   9.439   5.996  0.4131  0.3698 -0.9040
  617MOL0     O83168   4.938   9.567   6.014 -0.3927 -0.2364  0.0917
  617MOL0     C83169   4.830   9.594   5.923 -0.7388  0.0591 -0.4323
  617MOL0     C83170   4.725   9.686   5.979  0.1220  0.9944  0.3158
  617MOL0     C83171   4.628   9.609   6.077 -0.4304 -0.3053  0.9656
  617MOL0     C83172   4.674   9.587   6.223  0.2637 -0.2015 -0.3267
  617MOL0     C83173   4.558   9.508   6.303  0.4358  0.5453 -0.3468
  617MOL0     C83174   4.577   9.480   6.452  0.4288  0.2006  0.3169
  617MOL0     C83175   4.462   9.418   6.524 -0.0326  0.3411 -0.5639
  617MOL0     C83176   4.397   9.291   6.458  0.1460 -0.7248 -0.5691
  617MOL0     N83177   4.299   9.227   6.546 -0.3111 -0.5465  0.2953
  617MOL0     C83178   4.163   9.259   6.561  0.0415  0.6567  0.7420
  617MOL0     C83179   4.126   9.175   6.663  0.4366 -0.2615  0.1966
  617MOL0     C83180   3.986   9.180   6.720 -0.3652 -1.1230  0.3481
  617MOL0     C83181   3.948   9.052   6.800  0.6302  0.2581  0.6818
  617MOL0     C83182   3.805   9.048   6.847  0.3483  0.0290 -1.4504
  617MOL0     C83183   3.768   8.914   6.923 -0.5168  0.1441  0.0634
  617MOL0     O83184   3.645   8.856   6.878  0.2074  0.2976  0.3395
  617MOL0     C83185   3.639   8.722   6.868 -0.1092  0.4751  0.5025
  617MOL0     C83186   3.559   8.654   6.969 -0.0123  0.5198 -0.2074
  617MOL0     C83187   3.541   8.512   6.969 -0.4693  0.0653 -0.6364
  617MOL0     C83188   3.612   8.437   6.881  0.7270  0.3627 -0.0444
  617MOL0     C83189   3.584   8.284   6.886  0.5805  0.0909  0.2593
  617MOL0     O83190   3.462   8.249   6.938 -0.1508 -0.5266 -0.5580
  617MOL0     C83191   3.421   8.118   6.922  0.9519 -0.5328  0.0935
  617MOL0     C83192   3.342   8.077   6.819 -1.0794 -0.2460 -0.2619
  617MOL0     C83193   3.285   7.953   6.821 -0.8519  0.7653  0.3424
  617MOL0     C83194   3.319   7.859   6.925 -0.9326 -0.7051 -0.1347
  617MOL0     O83195   3.264   7.732   6.946  0.0752  0.5345 -0.0281
  617MOL0     C83196   3.156   7.699   6.857  0.9359 -0.2488 -0.7235
  617MOL0     C83197   3.088   7.589   6.938  0.3940 -0.2026  0.0042
  617MOL0     C83198   2.975   7.541   6.858 -1.1821  0.4753  0.6890
  617MOL0     C83199   3.020   7.466   6.728  1.0345  0.1242 -0.5469
  617MOL0     C83200   2.899   7.375   6.680 -0.2655  0.1670 -0.1997
  617MOL0     C83201   2.926   7.352   6.536 -0.1379  0.6369 -0.0684
  617MOL0     C83202   2.796   7.312   6.464  0.0601  1.4642 -0.5493
  617MOL0     C83203   2.714   7.442   6.434 -0.1020 -0.4731  0.1790
  617MOL0    Cl83204   2.560   7.400   6.365 -0.4532 -0.5514 -0.0992
  617MOL0     C83205   3.407   7.902   7.019 -0.9827  0.6971  0.8863
  617MOL0     C83206   3.455   8.030   7.021 -0.2346 -0.5010  0.3254
  617MOL0     O83207   3.660   8.209   6.827 -0.3383 -0.6133  0.8490
  617MOL0     C83208   3.701   8.497   6.791 -0.3189  0.1564 -0.0823
  617MOL0     C83209   3.704   8.639   6.778  0.5190  0.8407  0.4798
  617MOL0     N83210   4.235   9.098   6.707 -0.1092 -0.7534 -0.2627
  617MOL0     N83211   4.334   9.137   6.642  0.9606 -0.7927 -0.0076
  617MOL0     C83212   5.127   9.421   5.980  0.4026  0.3433 -0.4594
  617MOL0     C83213   5.190   9.298   5.980 -0.0532 -0.6386  0.4658
  617MOL0     C83214   5.237   8.864   5.894  0.1144  0.0083 -0.0903
  617MOL0     C83215   5.312   8.816   5.788 -0.4968  0.0265  0.4037
  617MOL0     C83216   5.363   8.682   5.783 -0.0079  0.2298 -0.3261
  617MOL0     C83217   5.335   8.594   5.889  0.1939  0.3249 -0.0373
  617MOL0     O83218   5.372   8.463   5.894 -0.3097  0.4517 -0.5276
  617MOL0     C83219   5.471   8.410   5.800  0.2840  0.0863  0.1233
  617MOL0     C83220   5.503   8.270   5.838  0.1307 -0.3684  0.7528
  617MOL0     C83221   5.586   8.263   5.967 -0.3608 -0.8209  0.4128
  617MOL0     C83222   5.602   8.123   6.029 -0.2522 -0.8026  0.3639
  617MOL0     C83223   5.642   8.023   5.929  0.7326 -0.3636 -0.6607
  617MOL0     C83224   5.678   7.935   5.858 -0.3502  0.4142  0.8165
  617MOL0     C83225   5.251   8.649   5.991  0.3387 -0.0743 -0.2744
  617MOL0     C83226   5.199   8.779   5.997 -0.5634 -0.0114 -0.1026
  617MOL0     C83227   5.093   8.809   6.100 -0.7758 -0.7610  0.5215
  617MOL0     H83228   4.905   9.111   6.016 -2.0857  1.1782  2.6256
  617MOL0     H83229   4.796   9.342   6.025  1.6383  0.5224  3.0206
  617MOL0     H83230   4.881   9.644   5.840  3.4159  0.9805  2.3588
  617MOL0     H83231   4.777   9.510   5.877 -1.0731 -0.8138  1.4581
  617MOL0     H83232   4.672   9.710   5.887  0.6688 -1.6771 -0.7792
  617MOL0     H83233   4.759   9.781   6.021 -1.7292  2.2219 -0.7850
  617MOL0     H83234   4.607   9.514   6.026  0.9608 -0.1864  0.1178
  617MOL0     H83235   4.531   9.658   6.072 -1.2547 -1.8119  1.3914
  617MOL0     H83236   4.758   9.518   6.213  1.0616  0.4160  1.5760
  617MOL0     H83237   4.701   9.686   6.263  3.0683 -0.8261 -0.4913
  617MOL0     H83238   4.468   9.570   6.308 -2.5542 -3.5866  2.4290
  617MOL0     H83239   4.520   9.424   6.245 -2.2330  0.2766  1.6446
  617MOL0     H83240   4.644   9.395   6.463 -0.3079 -0.3658  0.5096
  617MOL0     H83241   4.607   9.572   6.503  1.3735  2.2393 -3.5142
  617MOL0     H83242   4.390   9.497   6.547 -1.2254 -0.4992 -1.2748
  617MOL0     H83243   4.506   9.389   6.620  0.5502 -0.1690 -0.9765
  617MOL0     H83244   4.344   9.322   6.367  0.3354 -0.0742 -0.4642
  617MOL0     H83245   4.481   9.223   6.442  0.3750 -0.5696 -0.0407
  617MOL0     H83246   4.105   9.346   6.531 -1.5040 -0.7128 -0.4807
  617MOL0     H83247   3.967   9.263   6.788 -0.8614 -0.0178 -1.0727
  617MOL0     H83248   3.920   9.204   6.636  2.5312  0.0595 -1.7283
  617MOL0     H83249   3.959   8.979   6.719  3.3198  1.1021  0.1846
  617MOL0     H83250   4.015   9.032   6.884 -0.7261  0.7216  1.9168
  617MOL0     H83251   3.735   9.068   6.765  0.4262  3.2939 -0.8566
  617MOL0     H83252   3.771   9.123   6.919 -1.3467 -0.8063 -1.3131
  617MOL0     H83253   3.763   8.933   7.030  1.3824 -0.6547  0.3327
  617MOL0     H83254   3.858   8.854   6.906  0.8024  2.5601 -2.0990
  617MOL0     H83255   3.506   8.715   7.041  1.7706  1.4673  0.3619
  617MOL0     H83256   3.467   8.475   7.038  0.8071 -2.8214 -0.7002
  617MOL0     H83257   3.312   8.150   6.744 -3.4975 -0.9414 -0.0388
  617MOL0     H83258   3.200   7.931   6.758 -1.8259  2.0407  1.1540
  617MOL0     H83259   3.085   7.783   6.864  1.8116  0.3603  2.9982
  617MOL0     H83260   3.194   7.675   6.758  3.5844  0.2557  0.0888
  617MOL0     H83261   3.162   7.511   6.960  0.2341  0.2269  2.2566
  617MOL0     H83262   3.047   7.629   7.031 -0.1703  0.2344 -0.4237
  617MOL0     H83263   2.909   7.479   6.919 -2.5726  0.8109 -0.4107
  617MOL0     H83264   2.906   7.618   6.822  0.5611 -0.1756 -5.1366
  617MOL0     H83265   3.097   7.398   6.764  0.7059 -0.9954 -1.8900
  617MOL0     H83266   3.056   7.525   6.643  0.8763 -3.9026 -3.7183
  617MOL0     H83267   2.813   7.442   6.688  0.3606  0.9717  0.0893
  617MOL0     H83268   2.871   7.292   6.745 -1.5327  0.3787 -0.4553
  617MOL0     H83269   2.976   7.426   6.472 -1.2945  0.0991 -1.6617
  617MOL0     H83270   2.989   7.262   6.545 -0.4053  0.6644  3.2774
  617MOL0     H83271   2.731   7.247   6.523  0.8457  2.6035  1.6998
  617MOL0     H83272   2.814   7.255   6.373  0.9443 -2.0450  1.6353
  617MOL0     H83273   2.682   7.500   6.521  2.0953  3.3347 -1.3160
  617MOL0     H83274   2.764   7.510   6.365  1.9233 -1.2488  0.7818
  617MOL0     H83275   3.416   7.823   7.093 -5.4229  0.7405  1.7211
  617MOL0     H83276   3.505   8.048   7.116  1.5260 -0.7080 -0.5192
  617MOL0     H83277   3.774   8.449   6.726  2.9370 -0.3654  3.5623
  617MOL0     H83278   3.770   8.681   6.703  1.5971 -0.5872  0.5877
  617MOL0     H83279   5.196   9.504   5.977  0.9996 -0.0601  1.2459
  617MOL0     H83280   5.298   9.289   5.987 -0.1552 -1.1458  1.7120
  617MOL0     H83281   5.340   8.876   5.702 -0.5363 -0.4296  0.0702
  617MOL0     H83282   5.433   8.665   5.702 -1.2512  2.3276 -1.9427
  617MOL0     H83283   5.561   8.471   5.805  2.4335 -2.8737  0.2703
  617MOL0     H83284   5.435   8.401   5.697 -1.5824 -0.4599  0.7641
  617MOL0     H83285   5.560   8.225   5.757  0.0936  0.5079  0.2203
  617MOL0     H83286   5.417   8.204   5.847 -1.2435  0.7999 -2.5189
  617MOL0     H83287   5.550   8.337   6.039  1.0588  1.1326 -0.7740
  617MOL0     H83288   5.691   8.292   5.952  0.0067 -0.8560  2.5276
  617MOL0     H83289   5.668   8.122   6.116 -2.2436  0.3954  1.9911
  617MOL0     H83290   5.513   8.103   6.089 -0.9307  2.0805  0.4642
  617MOL0     H83291   5.694   7.867   5.777  0.1575  1.3627  0.0955
  617MOL0     H83292   5.222   8.578   6.067  0.2922  0.5221  0.2713
  617MOL0     H83293   5.040   8.715   6.115  0.5242 -1.6814 -0.4568
  617MOL0     H83294   5.144   8.848   6.189 -2.4196  0.0036  1.1735
  617MOL0     H83295   5.015   8.873   6.056 -1.6783 -1.6376  0.8199
  618MOL0     O83296   8.186   8.318   5.372  0.4139  0.6460 -0.5829
  618MOL0     C83297   8.146   8.228   5.301  0.7160  0.1063 -0.6946
  618MOL0     O83298   8.023   8.201   5.274 -0.1413 -0.3716  0.5824
  618MOL0     C83299   7.914   8.267   5.327 -0.2397 -0.3655 -0.2501
  618MOL0     C83300   7.908   8.280   5.466 -0.0031  0.3593  0.3767
  618MOL0     C83301   7.785   8.311   5.518 -0.4521 -0.5780  0.0263
  618MOL0     C83302   7.682   8.362   5.439 -0.2864 -0.0764 -0.6942
  618MOL0     O83303   7.563   8.412   5.493 -0.2829  0.2327 -0.4984
  618MOL0     C83304   7.533   8.439   5.640 -0.6833  0.3409  0.2668
  618MOL0     C83305   7.380   8.451   5.643 -0.6166  0.3951 -0.0588
  618MOL0     C83306   7.302   8.338   5.574 -1.4239  0.5933 -0.0921
  618MOL0     C83307   7.342   8.195   5.637  0.6221  0.2471 -0.3072
  618MOL0     C83308   7.295   8.086   5.545 -0.2335  0.2510 -1.4083
  618MOL0     C83309   7.254   7.950   5.615 -0.3597  0.2408  0.2837
  618MOL0     C83310   7.383   7.885   5.668 -0.2549 -0.2946  0.7228
  618MOL0     C83311   7.383   7.854   5.823 -0.5597 -1.7758  0.2225
  618MOL0     N83312   7.400   7.984   5.905  0.5180 -0.0427  0.8381
  618MOL0     C83313   7.519   8.051   5.929 -0.1435 -1.0523  0.8524
  618MOL0     C83314   7.477   8.171   5.991 -0.8106 -0.0703 -0.4782
  618MOL0     C83315   7.568   8.274   6.035  0.3028 -0.0569 -0.2695
  618MOL0     C83316   7.682   8.226   6.120 -0.5660 -0.1281  0.4929
  618MOL0     C83317   7.645   8.131   6.237  0.3639  0.5824  0.1276
  618MOL0     C83318   7.551   8.202   6.330 -0.2605 -0.7695  0.4177
  618MOL0     O83319   7.536   8.112   6.443  0.2927 -0.0605 -0.4078
  618MOL0     C83320   7.562   8.178   6.560  0.8272  0.1029 -0.9582
  618MOL0     C83321   7.471   8.270   6.622  0.2783 -0.4613  0.1638
  618MOL0     C83322   7.510   8.345   6.730  1.0712  0.5542 -0.5020
  618MOL0     C83323   7.623   8.311   6.802  0.5306  0.1494  0.1936
  618MOL0     C83324   7.641   8.381   6.930  1.4919  0.0667  0.7909
  618MOL0     O83325   7.540   8.458   6.970 -0.7873 -0.0471  0.1970
  618MOL0     C83326   7.518   8.462   7.104  0.1154  0.1809  0.1007
  618MOL0     C83327   7.406   8.405   7.164 -0.3568  1.0812 -0.6332
  618MOL0     C83328   7.400   8.408   7.306 -0.0935 -0.1233  0.2418
  618MOL0     C83329   7.486   8.488   7.380  0.9227  0.0756 -1.4718
  618MOL0     O83330   7.468   8.489   7.514 -0.5163 -0.7516  0.6387
  618MOL0     C83331   7.347   8.563   7.541  0.3871 -0.4091  0.2044
  618MOL0     C83332   7.369   8.712   7.535  0.2212 -0.0233 -1.1065
  618MOL0     C83333   7.457   8.758   7.661  0.2295 -0.5198  0.1084
  618MOL0     C83334   7.500   8.895   7.641 -0.4789 -0.1781 -0.5408
  618MOL0     C83335   7.599   8.920   7.764  0.4709  0.0383 -0.3457
  618MOL0     C83336   7.627   9.066   7.759 -1.3756  0.0223 -0.8945
  618MOL0     C83337   7.726   9.112   7.867 -0.7798  0.2991  0.1897
  618MOL0     C83338   7.783   9.247   7.833 -0.5048  0.1061  0.9514
  618MOL0    Cl83339   7.877   9.308   7.974  0.0220  0.1661 -0.0789
  618MOL0     C83340   7.588   8.552   7.319  0.6299 -0.0353  0.1412
  618MOL0     C83341   7.604   8.537   7.181 -0.1611 -0.9566 -0.0645
  618MOL0     O83342   7.732   8.336   7.002  0.4349 -0.7076  0.7873
  618MOL0     C83343   7.705   8.210   6.752 -0.6599  0.1685 -0.1436
  618MOL0     C83344   7.680   8.150   6.631 -0.0200 -0.5360 -0.6176
  618MOL0     N83345   7.339   8.158   6.018  0.0222 -0.2044  0.3144
  618MOL0     N83346   7.294   8.056   5.959 -0.1407 -0.6287  0.0352
  618MOL0     C83347   7.700   8.355   5.302  0.9131 -0.2262  0.5397
  618MOL0     C83348   7.813   8.303   5.243 -0.0824  0.4699 -0.0101
  618MOL0     C83349   8.239   8.148   5.227  0.9826  1.1053  0.6282
  618MOL0     C83350   8.216   8.137   5.092 -0.1369  0.2018  1.0986
  618MOL0     C83351   8.314   8.064   5.019 -0.1178 -0.3635  0.2960
  618MOL0     C83352   8.427   8.012   5.071  0.6706 -0.5486 -1.3648
  618MOL0     O83353   8.507   7.939   4.987 -1.1754 -0.4447  0.1270
  618MOL0     C83354   8.650   7.957   5.000  0.1534  0.3296  0.1305
  618MOL0     C83355   8.690   8.047   4.886  0.1250  0.8393  0.7075
  618MOL0     C83356   8.756   7.967   4.771 -0.3308  0.3987  0.4728
  618MOL0     C83357   8.741   8.025   4.629 -0.1555 -1.7017 -0.1593
  618MOL0     C83358   8.768   8.170   4.626 -0.7962 -0.5039  0.7298
  618MOL0     C83359   8.800   8.291   4.627 -0.1364  1.1829  0.1909
  618MOL0     C83360   8.448   8.023   5.210  0.3078  0.0385  0.8288
  618MOL0     C83361   8.362   8.100   5.290  0.4391 -0.5136  0.2439
  618MOL0     C83362   8.372   8.094   5.435 -0.5163 -0.3812  0.5854
  618MOL0     H83363   7.979   8.239   5.537 -1.4812 -3.8829 -0.2822
  618MOL0     H83364   7.779   8.313   5.627 -1.9198  0.2195 -0.0424
  618MOL0     H83365   7.563   8.357   5.706  1.3758  1.7034  1.1114
  618MOL0     H83366   7.591   8.530   5.657  1.7838 -0.4610 -2.8062
  618MOL0     H83367   7.350   8.543   5.592  1.6463  0.1036 -2.0940
  618MOL0     H83368   7.369   8.468   5.751  4.2219 -2.9448  1.3091
  618MOL0     H83369   7.343   8.335   5.473 -1.3846 -1.3775 -0.0529
  618MOL0     H83370   7.193   8.347   5.570 -1.5236 -0.7127 -0.6425
  618MOL0     H83371   7.448   8.181   5.661 -0.5999 -1.8130  5.2565
  618MOL0     H83372   7.289   8.189   5.732 -2.9521  3.0827 -1.8934
  618MOL0     H83373   7.217   8.118   5.475 -0.6517  1.7081 -0.3282
  618MOL0     H83374   7.386   8.074   5.485 -0.6271 -0.7498 -1.8237
  618MOL0     H83375   7.176   7.985   5.683 -3.0897 -2.4561 -1.2287
  618MOL0     H83376   7.206   7.885   5.541  2.4098 -0.4074 -1.0739
  618MOL0     H83377   7.469   7.946   5.642 -0.0535  1.1219  4.1125
  618MOL0     H83378   7.408   7.790   5.619  0.1231  0.7937 -1.2879
  618MOL0     H83379   7.298   7.798   5.863 -0.0532 -1.6360  1.5243
  618MOL0     H83380   7.467   7.788   5.846 -0.2701 -2.8216 -3.2135
  618MOL0     H83381   7.619   8.021   5.899  0.6266  2.0875 -0.0521
  618MOL0     H83382   7.612   8.327   5.950 -0.2383 -1.6168 -1.5495
  618MOL0     H83383   7.520   8.352   6.096 -0.8679 -2.7749  2.5467
  618MOL0     H83384   7.740   8.160   6.056 -2.1931  0.0300 -1.2575
  618MOL0     H83385   7.751   8.307   6.145  0.4597 -1.6412  3.0012
  618MOL0     H83386   7.736   8.130   6.299  0.7882 -1.9455 -0.4289
  618MOL0     H83387   7.610   8.031   6.212  1.2643  0.8502 -2.5588
  618MOL0     H83388   7.454   8.213   6.279  0.3212 -0.6774 -0.6921
  618MOL0     H83389   7.593   8.298   6.360 -0.1697 -0.8174  0.4424
  618MOL0     H83390   7.369   8.282   6.588 -0.9768 -5.2533  1.4680
  618MOL0     H83391   7.453   8.433   6.759  0.9378  0.1218  0.5831
  618MOL0     H83392   7.329   8.356   7.104  1.2342  1.6709 -3.3408
  618MOL0     H83393   7.332   8.346   7.363 -0.0991 -0.1358  0.2214
  618MOL0     H83394   7.268   8.544   7.468 -0.1328  1.8608  0.0976
  618MOL0     H83395   7.301   8.556   7.640 -0.5889  1.0428 -0.1146
  618MOL0     H83396   7.422   8.747   7.446  3.6926  0.7825  1.0620
  618MOL0     H83397   7.270   8.759   7.543 -0.7016 -1.9310 -0.8052
  618MOL0     H83398   7.394   8.745   7.749 -2.2772 -2.0999 -1.7982
  618MOL0     H83399   7.538   8.685   7.658 -1.1758 -2.2484  1.9404
  618MOL0     H83400   7.414   8.963   7.644 -0.2131  0.3378 -2.8056
  618MOL0     H83401   7.549   8.914   7.545 -1.9366  4.3809 -0.6127
  618MOL0     H83402   7.691   8.861   7.758  1.9358  2.1605  0.0700
  618MOL0     H83403   7.547   8.895   7.857  0.9432 -1.4871 -0.4697
  618MOL0     H83404   7.673   9.087   7.662 -1.5140 -0.6495 -1.1055
  618MOL0     H83405   7.535   9.123   7.776 -0.0461  1.9631  0.2296
  618MOL0     H83406   7.804   9.035   7.867  1.6881  2.6654 -0.5185
  618MOL0     H83407   7.679   9.129   7.964  0.9411  0.1985  1.0689
  618MOL0     H83408   7.846   9.234   7.744  0.5413 -1.6266  1.8929
  618MOL0     H83409   7.695   9.309   7.818 -0.4806 -0.3424 -1.4206
  618MOL0     H83410   7.663   8.615   7.367  0.7033 -0.1441  0.1697
  618MOL0     H83411   7.691   8.588   7.142 -0.3160 -0.0988  0.6584
  618MOL0     H83412   7.796   8.200   6.811 -2.2550  1.3224  2.7484
  618MOL0     H83413   7.762   8.087   6.598  1.0841 -0.7116  2.1725
  618MOL0     H83414   7.620   8.381   5.233 -0.9653  0.3420  2.7911
  618MOL0     H83415   7.819   8.280   5.137 -0.8121 -3.7156  0.6914
  618MOL0     H83416   8.134   8.190   5.046  0.6779 -0.5358 -1.3947
  618MOL0     H83417   8.303   8.061   4.911  3.0639 -0.7862 -0.0949
  618MOL0     H83418   8.713   7.867   4.994 -3.3214 -2.2638 -0.4423
  618MOL0     H83419   8.668   8.021   5.086 -2.0400  2.2850 -0.7849
  618MOL0     H83420   8.770   8.113   4.921  1.5159 -0.0510 -0.6705
  618MOL0     H83421   8.601   8.110   4.872 -0.6455 -0.3031  0.2911
  618MOL0     H83422   8.709   7.868   4.772  0.5298 -0.1490  4.6341
  618MOL0     H83423   8.862   7.961   4.797 -0.7681 -3.3234  1.9465
  618MOL0     H83424   8.822   7.983   4.568 -0.7297 -0.2426 -2.0165
  618MOL0     H83425   8.641   7.994   4.597 -0.4964 -0.9483  0.1637
  618MOL0     H83426   8.838   8.390   4.643 -0.5755  1.7018 -1.7851
  618MOL0     H83427   8.526   7.967   5.260  0.3513 -1.8104 -1.1623
  618MOL0     H83428   8.397   8.197   5.463  0.5403  0.0725 -1.7787
  618MOL0     H83429   8.274   8.080   5.483 -2.4056  0.1460 -2.8036
  618MOL0     H83430   8.446   8.027   5.480 -0.0123 -0.9241 -0.9691
  619MOL0     O83431   6.571   8.136   8.245 -0.0000 -0.2949  0.1617
  619MOL0     C83432   6.519   8.087   8.349  0.3095 -0.7777 -0.0441
  619MOL0     O83433   6.557   7.977   8.400  0.1163 -0.5962 -0.6240
  619MOL0     C83434   6.630   7.884   8.324  0.1115 -1.1582 -0.3654
  619MOL0     C83435   6.747   7.833   8.382 -0.9022  0.1693  0.9288
  619MOL0     C83436   6.809   7.724   8.316 -0.6308  0.0346 -0.0787
  619MOL0     C83437   6.756   7.669   8.201 -0.0223  0.0768  0.4780
  619MOL0     O83438   6.810   7.557   8.144 -0.3202  0.5267 -0.4988
  619MOL0     C83439   6.954   7.554   8.122  0.1874 -0.3860  0.4608
  619MOL0     C83440   6.987   7.414   8.098  0.8717 -0.1136  1.0412
  619MOL0     C83441   6.947   7.312   8.212  0.1503 -0.2346  0.5643
  619MOL0     C83442   7.039   7.312   8.333  0.3010  0.0874  0.1815
  619MOL0     C83443   7.012   7.421   8.437  0.4785 -0.5597 -0.7435
  619MOL0     C83444   7.069   7.379   8.580 -0.7783 -0.8851 -0.2801
  619MOL0     C83445   7.053   7.497   8.679  0.1689  0.2444 -0.7823
  619MOL0     C83446   7.131   7.620   8.650  0.0298  0.0270 -0.2805
  619MOL0     N83447   7.261   7.615   8.729  0.1547 -1.2560  0.0704
  619MOL0     C83448   7.272   7.656   8.858 -0.0841  0.2688  0.9678
  619MOL0     C83449   7.405   7.676   8.878 -0.5701 -0.1254 -0.1750
  619MOL0     C83450   7.464   7.725   9.013 -0.1103 -0.4026 -0.2217
  619MOL0     C83451   7.479   7.878   9.001  0.3809  0.5552  0.1761
  619MOL0     C83452   7.596   7.899   8.904 -1.1048 -0.9375 -0.1792
  619MOL0     C83453   7.633   8.052   8.889 -0.3574  0.6389 -0.2812
  619MOL0     O83454   7.539   8.126   8.817  0.7347 -0.0176  0.6592
  619MOL0     C83455   7.535   8.127   8.679 -0.0111  0.2629  1.1719
  619MOL0     C83456   7.624   8.048   8.591  0.2776  1.1285  0.7613
  619MOL0     C83457   7.629   8.081   8.453 -0.3376 -0.5019 -0.0204
  619MOL0     C83458   7.525   8.158   8.393  1.3278  0.4899 -0.0440
  619MOL0     C83459   7.508   8.190   8.247  0.2828  0.0353  0.9440
  619MOL0     O83460   7.380   8.217   8.199 -0.5439 -0.4122 -0.3456
  619MOL0     C83461   7.380   8.228   8.066 -0.6451 -0.4370 -0.0155
  619MOL0     C83462   7.400   8.350   7.998  0.3984 -0.3934 -0.3158
  619MOL0     C83463   7.406   8.355   7.861  0.7146 -0.9457  0.3485
  619MOL0     C83464   7.373   8.244   7.782  0.0780  0.1442 -1.2553
  619MOL0     O83465   7.371   8.262   7.646  0.3226  0.1501  0.1239
  619MOL0     C83466   7.462   8.170   7.577 -0.5901 -0.0855  0.9043
  619MOL0     C83467   7.400   8.045   7.520 -1.0344 -0.6561  0.7030
  619MOL0     C83468   7.442   8.006   7.383  0.1525 -0.8233 -0.2686
  619MOL0     C83469   7.600   7.973   7.391  0.1436 -0.3528 -0.0359
  619MOL0     C83470   7.649   7.918   7.251 -0.2280  0.0169  0.1709
  619MOL0     C83471   7.801   7.894   7.271 -0.0729  0.5701 -0.2332
  619MOL0     C83472   7.881   7.847   7.155 -0.8333  0.5364  0.1525
  619MOL0     C83473   7.888   7.949   7.044  0.2701 -0.5852  0.0549
  619MOL0    Cl83474   7.953   7.876   6.897  0.0593  0.1645  0.4134
  619MOL0     C83475   7.347   8.124   7.848  0.3683 -0.9376  0.2400
  619MOL0     C83476   7.361   8.113   7.987 -0.2161 -0.4375 -0.4385
  619MOL0     O83477   7.610   8.173   8.173  0.3491  0.1649  0.8380
  619MOL0     C83478   7.437   8.221   8.483 -0.1616  0.8899  0.7987
  619MOL0     C83479   7.443   8.216   8.619 -0.3315  0.1652  0.0755
  619MOL0     N83480   7.473   7.632   8.771 -1.1138  0.0414 -0.1197
  619MOL0     N83481   7.386   7.605   8.677  0.3582 -0.3760  0.4485
  619MOL0     C83482   6.642   7.728   8.136 -0.0691  0.3354 -0.1967
  619MOL0     C83483   6.572   7.829   8.200 -0.3704 -0.2464 -0.2272
  619MOL0     C83484   6.410   8.174   8.410  0.6950 -0.9916  0.8010
  619MOL0     C83485   6.357   8.132   8.543  0.1614  0.3433  0.3289
  619MOL0     C83486   6.243   8.193   8.598 -0.2790  0.3119  0.7976
  619MOL0     C83487   6.188   8.300   8.533  0.1128 -0.6291  0.6159
  619MOL0     O83488   6.076   8.383   8.564 -0.5594  0.9022 -0.4376
  619MOL0     C83489   5.971   8.313   8.639 -0.3699  0.1639  0.4412
  619MOL0     C83490   5.969   8.367   8.781 -0.2452 -0.1625  0.1193
  619MOL0     C83491   5.880   8.482   8.793 -0.3414 -0.6374 -0.6226
  619MOL0     C83492   5.889   8.536   8.942 -0.4497  0.1474 -0.5656
  619MOL0     C83493   5.802   8.455   9.028  0.2324 -0.2714  0.3019
  619MOL0     C83494   5.729   8.387   9.107 -0.1300  0.2351 -0.0213
  619MOL0     C83495   6.252   8.349   8.413  0.5495 -1.0291 -0.8394
  619MOL0     C83496   6.357   8.293   8.352 -0.4915 -0.4203  0.5343
  619MOL0     C83497   6.421   8.366   8.235 -0.0359 -0.3052  0.6005
  619MOL0     H83498   6.784   7.875   8.475  0.2108 -0.5692  0.8344
  619MOL0     H83499   6.903   7.703   8.366 -2.4323 -2.4948  2.5288
  619MOL0     H83500   6.975   7.617   8.035 -2.6204  3.0737  2.0213
  619MOL0     H83501   7.003   7.603   8.206  0.4117  0.1537  0.0248
  619MOL0     H83502   7.095   7.405   8.080  0.6384 -1.2679  0.1185
  619MOL0     H83503   6.936   7.388   8.005  1.0867  1.5461  0.4350
  619MOL0     H83504   6.945   7.214   8.165 -1.4748  1.5067 -3.4305
  619MOL0     H83505   6.846   7.327   8.251 -0.2186  1.6823 -0.9532
  619MOL0     H83506   7.027   7.215   8.382  3.9449  0.6601  2.5419
  619MOL0     H83507   7.142   7.322   8.299 -0.0324  3.3334 -0.2015
  619MOL0     H83508   7.047   7.515   8.395 -4.5044  1.5138 -0.9798
  619MOL0     H83509   6.903   7.431   8.440  0.6205  1.0828  0.8791
  619MOL0     H83510   7.005   7.302   8.625 -2.6422  0.9842  0.4140
  619MOL0     H83511   7.175   7.358   8.563 -0.0436  0.4921  2.1412
  619MOL0     H83512   7.091   7.463   8.776  0.9941 -2.4280 -1.9536
  619MOL0     H83513   6.946   7.514   8.694  0.2544  2.6213 -2.2954
  619MOL0     H83514   7.165   7.617   8.546 -0.6271 -2.0690 -0.4671
  619MOL0     H83515   7.076   7.713   8.670 -0.8062 -0.0176 -2.1072
  619MOL0     H83516   7.195   7.686   8.928  3.1486  3.4512  3.5794
  619MOL0     H83517   7.406   7.704   9.103  1.4223  1.5255  1.3010
  619MOL0     H83518   7.566   7.686   9.022  0.2821  0.2589 -1.4749
  619MOL0     H83519   7.389   7.923   8.960  2.6381  2.8305 -2.7719
  619MOL0     H83520   7.520   7.933   9.086  0.3872  0.5388  0.1831
  619MOL0     H83521   7.577   7.863   8.802 -0.8966  1.6007 -1.1695
  619MOL0     H83522   7.684   7.863   8.959 -0.1303  1.4369 -0.0793
  619MOL0     H83523   7.720   8.059   8.823  2.0297 -3.9328  1.9309
  619MOL0     H83524   7.654   8.098   8.986  0.8374 -3.6681  1.7770
  619MOL0     H83525   7.696   7.980   8.635  1.9164  1.5278 -1.1725
  619MOL0     H83526   7.708   8.048   8.387 -1.3780 -0.2028 -1.4490
  619MOL0     H83527   7.407   8.445   8.050 -2.3900  0.5661 -1.5104
  619MOL0     H83528   7.429   8.449   7.811 -0.9415  0.9145  2.8277
  619MOL0     H83529   7.511   8.228   7.498  2.5364 -0.6000  2.3135
  619MOL0     H83530   7.541   8.141   7.648  0.1522  1.4250  0.7353
  619MOL0     H83531   7.428   7.963   7.586  0.8004 -2.6423 -2.3006
  619MOL0     H83532   7.291   8.043   7.518 -1.2403 -6.2066  1.4443
  619MOL0     H83533   7.394   7.908   7.369  0.0675 -1.0510  1.3543
  619MOL0     H83534   7.408   8.078   7.308 -1.8272 -3.3782 -2.0060
  619MOL0     H83535   7.612   7.899   7.471 -0.5996  0.9992  1.3874
  619MOL0     H83536   7.654   8.065   7.415  0.6059 -0.9359  1.2769
  619MOL0     H83537   7.625   7.981   7.165  0.8364 -1.9293 -1.6372
  619MOL0     H83538   7.605   7.819   7.238  1.8431 -0.8938 -0.2012
  619MOL0     H83539   7.856   7.977   7.317  1.3188  0.1273 -1.0112
  619MOL0     H83540   7.810   7.813   7.343  3.0860  0.0416 -1.0406
  619MOL0     H83541   7.847   7.750   7.119  0.7083  0.0956 -0.1603
  619MOL0     H83542   7.979   7.832   7.199 -0.0360 -1.2587 -2.0588
  619MOL0     H83543   7.788   7.979   7.013 -0.0570 -2.0185 -0.3397
  619MOL0     H83544   7.929   8.049   7.060 -0.3310 -0.3335  0.0495
  619MOL0     H83545   7.334   8.032   7.791  2.1785 -2.0501  1.5163
  619MOL0     H83546   7.354   8.021   8.045  0.0205 -0.4226 -0.3833
  619MOL0     H83547   7.364   8.285   8.436 -0.8372 -0.7391 -0.4711
  619MOL0     H83548   7.368   8.278   8.666 -0.5643  0.3068 -0.4745
  619MOL0     H83549   6.619   7.666   8.050  5.9781 -1.8949 -0.6691
  619MOL0     H83550   6.472   7.861   8.173 -0.6280 -0.8543 -0.0253
  619MOL0     H83551   6.411   8.053   8.594  0.8786  1.6240  1.6430
  619MOL0     H83552   6.221   8.173   8.702 -0.3873  0.0537  0.7270
  619MOL0     H83553   5.993   8.206   8.639 -2.6644 -0.3540  0.8827
  619MOL0     H83554   5.873   8.303   8.590  0.1023 -1.6334 -0.2111
  619MOL0     H83555   6.074   8.379   8.808 -0.4551 -0.7406  1.2689
  619MOL0     H83556   5.925   8.289   8.845 -0.9619  0.0265 -0.1280
  619MOL0     H83557   5.774   8.460   8.778 -1.8338  1.3235  4.6229
  619MOL0     H83558   5.912   8.555   8.719 -1.7509 -1.2766 -1.9242
  619MOL0     H83559   5.993   8.535   8.976 -0.4746 -0.7933 -0.4791
  619MOL0     H83560   5.853   8.639   8.940  1.6272  0.9189 -1.5202
  619MOL0     H83561   5.668   8.341   9.182  1.0222  2.2392  2.2773
  619MOL0     H83562   6.222   8.440   8.362  2.5223 -1.0221 -2.0935
  619MOL0     H83563   6.404   8.474   8.237  3.4269  0.5507 -2.7724
  619MOL0     H83564   6.530   8.370   8.238  0.0244  2.8621 -1.3330
  619MOL0     H83565   6.385   8.317   8.144  0.7515 -1.0042  0.6521
  620MOL0     O83566   7.367   2.249   3.966  0.5136  0.4025  0.0107
  620MOL0     C83567   7.436   2.229   4.066  0.2564  0.3827  0.5687
  620MOL0     O83568   7.392   2.180   4.186 -0.5039 -0.1683 -0.1133
  620MOL0     C83569   7.283   2.101   4.215  0.3814 -0.7469 -0.3034
  620MOL0     C83570   7.187   2.058   4.118  1.2862  0.8115  0.1427
  620MOL0     C83571   7.089   1.964   4.161 -0.7635  0.2473 -0.2268
  620MOL0     C83572   7.079   1.923   4.296  0.2266 -0.4475  0.4850
  620MOL0     O83573   6.985   1.825   4.321 -0.0291 -0.9480 -0.7175
  620MOL0     C83574   6.912   1.848   4.438 -0.2283  0.6497 -0.3209
  620MOL0     C83575   6.807   1.727   4.463 -0.0178  0.0848  1.2758
  620MOL0     C83576   6.705   1.753   4.574 -0.0581  0.3642  0.6042
  620MOL0     C83577   6.607   1.638   4.585  0.2414  0.3793  0.0423
  620MOL0     C83578   6.490   1.675   4.678 -0.5044 -0.0447 -0.4305
  620MOL0     C83579   6.395   1.779   4.605 -0.4667  0.9677  0.0449
  620MOL0     C83580   6.285   1.833   4.701  0.2580  0.4785 -0.1456
  620MOL0     C83581   6.193   1.935   4.639 -0.7121 -0.4984 -0.4318
  620MOL0     N83582   6.246   2.063   4.604  0.0230 -0.1098 -0.1679
  620MOL0     C83583   6.189   2.167   4.533  0.1777 -0.7212  0.0214
  620MOL0     C83584   6.285   2.259   4.518  1.4291 -0.0483 -0.2087
  620MOL0     C83585   6.285   2.385   4.444 -0.0373 -0.2593 -0.3523
  620MOL0     C83586   6.156   2.420   4.368 -0.1117  0.9716  0.0622
  620MOL0     C83587   6.176   2.521   4.261  0.9018  0.3850 -0.2575
  620MOL0     C83588   6.037   2.580   4.224 -1.0969 -0.0106  0.0109
  620MOL0     O83589   5.937   2.482   4.188 -0.0457  0.0725 -0.4456
  620MOL0     C83590   5.895   2.471   4.059 -0.8417 -1.1459  0.4331
  620MOL0     C83591   5.842   2.344   4.026 -0.1366 -0.1396 -0.4841
  620MOL0     C83592   5.812   2.316   3.898  1.1899 -0.5548 -0.9444
  620MOL0     C83593   5.826   2.413   3.794  0.1231 -0.0774  0.4174
  620MOL0     C83594   5.797   2.387   3.656  0.0495  0.4711  0.8963
  620MOL0     O83595   5.796   2.265   3.608  0.1076  0.6000 -0.2913
  620MOL0     C83596   5.821   2.250   3.475 -0.5396  0.1085  0.2784
  620MOL0     C83597   5.946   2.270   3.428 -0.3573 -0.1904  0.8138
  620MOL0     C83598   5.982   2.231   3.302 -1.4173 -0.2379  0.4419
  620MOL0     C83599   5.899   2.164   3.216  0.1026  0.1628  0.0235
  620MOL0     O83600   5.937   2.121   3.087 -0.8382 -0.3427  0.3905
  620MOL0     C83601   5.882   2.005   3.023 -1.4232 -0.1269 -0.4402
  620MOL0     C83602   5.788   2.046   2.916  0.3878  0.8537  0.6899
  620MOL0     C83603   5.727   1.921   2.859  0.5383 -1.3344  1.6958
  620MOL0     C83604   5.591   1.896   2.928 -0.5641 -0.1608  0.1256
  620MOL0     C83605   5.550   1.751   2.893  0.3185 -0.4540 -0.4462
  620MOL0     C83606   5.409   1.724   2.956 -0.1540 -0.1811 -0.4602
  620MOL0     C83607   5.359   1.582   2.945 -1.4197  1.3859  0.0375
  620MOL0     C83608   5.240   1.577   3.030 -0.3175  0.6765 -1.0528
  620MOL0    Cl83609   5.104   1.659   2.956 -0.0498  0.2907  0.2384
  620MOL0     C83610   5.767   2.150   3.257 -0.0594 -0.4487 -0.6012
  620MOL0     C83611   5.730   2.180   3.391  0.0747  0.1850  0.5576
  620MOL0     O83612   5.795   2.493   3.591  0.8394 -0.2959  0.2572
  620MOL0     C83613   5.886   2.541   3.826  0.0173 -0.1348  0.8159
  620MOL0     C83614   5.920   2.567   3.959  0.2965  0.2549 -0.1183
  620MOL0     N83615   6.399   2.205   4.583  0.2690 -0.2382  0.0081
  620MOL0     N83616   6.373   2.095   4.638  0.4615 -0.6412  0.0564
  620MOL0     C83617   7.168   1.971   4.387 -0.5546 -0.6010  0.4233
  620MOL0     C83618   7.273   2.055   4.347  0.1855 -1.0405  0.2262
  620MOL0     C83619   7.572   2.290   4.052 -0.3108  0.4258  0.0748
  620MOL0     C83620   7.617   2.382   4.155  0.8098  0.1033  0.8717
  620MOL0     C83621   7.747   2.438   4.157 -0.1550  0.4521 -0.2438
  620MOL0     C83622   7.831   2.410   4.048 -0.1399  0.2417 -0.4781
  620MOL0     O83623   7.953   2.466   4.036 -0.4844 -0.3114 -0.2373
  620MOL0     C83624   8.031   2.520   4.150 -0.9454 -0.3260 -0.2093
  620MOL0     C83625   8.138   2.614   4.106 -0.6448  0.1819 -0.2955
  620MOL0     C83626   8.122   2.730   4.005 -0.0759  0.2042  0.3817
  620MOL0     C83627   8.227   2.822   3.975  0.5211 -0.2674 -0.1738
  620MOL0     C83628   8.316   2.770   3.872  0.0573  0.0240 -0.3178
  620MOL0     C83629   8.381   2.730   3.780 -0.2745  0.1944 -0.6021
  620MOL0     C83630   7.787   2.321   3.944 -0.1068  0.0875 -0.0399
  620MOL0     C83631   7.663   2.253   3.951  0.2793  0.1419  0.2070
  620MOL0     C83632   7.630   2.142   3.853  0.0890 -0.6523 -0.1921
  620MOL0     H83633   7.186   2.085   4.013  0.5248 -1.8387 -0.5966
  620MOL0     H83634   7.014   1.942   4.086 -0.9510  0.2452 -0.0401
  620MOL0     H83635   6.979   1.848   4.525  1.3039 -2.1896 -1.3707
  620MOL0     H83636   6.850   1.937   4.427 -1.6259 -0.4753 -2.1802
  620MOL0     H83637   6.863   1.638   4.495  2.3682  1.3518  0.8273
  620MOL0     H83638   6.755   1.704   4.369  0.9803  0.2432  0.6801
  620MOL0     H83639   6.658   1.846   4.539  1.5142  1.8101  2.1523
  620MOL0     H83640   6.745   1.778   4.673  3.0234  0.4140 -0.5713
  620MOL0     H83641   6.567   1.602   4.490  0.6707 -3.5719  1.1814
  620MOL0     H83642   6.665   1.555   4.626 -0.6609 -0.6590 -0.7096
  620MOL0     H83643   6.427   1.589   4.705  2.1574 -2.5948 -1.7957
  620MOL0     H83644   6.525   1.723   4.769  0.7794  0.0061 -0.9391
  620MOL0     H83645   6.451   1.871   4.585 -1.3292  1.5027  0.0694
  620MOL0     H83646   6.364   1.738   4.508  0.6164 -1.3920  0.6219
  620MOL0     H83647   6.336   1.864   4.793  2.3916 -2.1039 -0.3455
  620MOL0     H83648   6.227   1.746   4.735  2.8455 -1.2429  0.1759
  620MOL0     H83649   6.158   1.895   4.543 -1.0767  1.4078 -1.1354
  620MOL0     H83650   6.110   1.951   4.709 -0.1349 -2.8069  0.8807
  620MOL0     H83651   6.089   2.161   4.491  0.8993 -1.2017 -1.7358
  620MOL0     H83652   6.299   2.473   4.507  3.8854 -0.2541 -1.0036
  620MOL0     H83653   6.375   2.381   4.382 -0.1034  2.0772 -0.7102
  620MOL0     H83654   6.132   2.326   4.318 -2.8081 -0.0201  2.8411
  620MOL0     H83655   6.083   2.464   4.437  2.8328  5.4798  0.7471
  620MOL0     H83656   6.222   2.470   4.176 -0.4471 -0.7887 -0.3230
  620MOL0     H83657   6.243   2.602   4.294 -1.0866  1.8284  0.4748
  620MOL0     H83658   6.052   2.649   4.140 -2.1989 -1.3753 -1.3839
  620MOL0     H83659   5.999   2.634   4.310  0.8920  0.7025  0.4885
  620MOL0     H83660   5.847   2.277   4.111  1.3132 -0.8228 -1.0558
  620MOL0     H83661   5.782   2.217   3.866 -0.3926 -0.5628  0.4124
  620MOL0     H83662   6.026   2.315   3.486  1.1896 -2.3589  0.4820
  620MOL0     H83663   6.084   2.249   3.270 -1.1200 -0.4167  1.2626
  620MOL0     H83664   5.960   1.939   2.986 -0.9725  0.4475 -0.5266
  620MOL0     H83665   5.829   1.947   3.099  1.4921 -2.7228 -0.2283
  620MOL0     H83666   5.714   2.116   2.956  0.1478  0.7956  0.3566
  620MOL0     H83667   5.844   2.097   2.837  2.4172 -1.5059  0.4867
  620MOL0     H83668   5.708   1.940   2.753 -2.5004 -0.9975  2.2099
  620MOL0     H83669   5.793   1.834   2.856  0.5560 -1.3216  1.7090
  620MOL0     H83670   5.511   1.957   2.884 -0.0440 -0.3750 -1.1728
  620MOL0     H83671   5.609   1.915   3.034  1.3902  3.7821 -0.7395
  620MOL0     H83672   5.617   1.678   2.939  1.5940  1.4050  0.7795
  620MOL0     H83673   5.566   1.740   2.785  0.9196 -3.3920 -0.1264
  620MOL0     H83674   5.402   1.760   3.059 -0.6503 -0.1596 -0.4991
  620MOL0     H83675   5.341   1.783   2.894 -0.1975 -0.9204 -1.1282
  620MOL0     H83676   5.445   1.524   2.980 -0.1815  1.9596 -1.9001
  620MOL0     H83677   5.343   1.547   2.842  2.7864 -3.1254  0.5566
  620MOL0     H83678   5.210   1.475   3.052  0.5606  0.5423 -0.3882
  620MOL0     H83679   5.265   1.610   3.132 -1.6112 -0.4626 -0.3377
  620MOL0     H83680   5.695   2.098   3.195 -2.1586 -0.1562  1.4760
  620MOL0     H83681   5.635   2.152   3.437 -1.1940 -0.4681 -2.2293
  620MOL0     H83682   5.927   2.614   3.756 -1.4589  1.2497  1.3422
  620MOL0     H83683   5.966   2.663   3.981  0.4455  0.0906  0.3059
  620MOL0     H83684   7.159   1.936   4.489  2.7816 -3.3591 -0.0265
  620MOL0     H83685   7.349   2.075   4.421  0.0580 -1.0900  0.3737
  620MOL0     H83686   7.547   2.429   4.223  0.6233  1.9908 -0.5355
  620MOL0     H83687   7.779   2.514   4.227  4.8390  0.5262 -2.2115
  620MOL0     H83688   8.072   2.444   4.218 -0.6946  1.2871  1.5367
  620MOL0     H83689   7.970   2.582   4.216  0.0009 -0.6444  1.0161
  620MOL0     H83690   8.216   2.543   4.075  1.2756  0.5742  3.0943
  620MOL0     H83691   8.168   2.659   4.201 -0.9368  0.0508 -0.1417
  620MOL0     H83692   8.049   2.799   4.049  1.3998  3.1232 -1.4056
  620MOL0     H83693   8.093   2.680   3.912  2.8712  1.6708 -1.4598
  620MOL0     H83694   8.173   2.911   3.942 -0.5746 -1.1943 -0.9773
  620MOL0     H83695   8.280   2.845   4.067 -1.6101  0.2513  0.9933
  620MOL0     H83696   8.457   2.724   3.704  1.1737  1.0387  0.7077
  620MOL0     H83697   7.850   2.299   3.858 -0.5185  1.1845 -0.6450
  620MOL0     H83698   7.701   2.139   3.770  0.0724 -2.3309 -0.1890
  620MOL0     H83699   7.640   2.042   3.898  1.7686 -1.5064 -2.3046
  620MOL0     H83700   7.524   2.136   3.826 -0.2987 -3.8522  1.5084
  621MOL0     O83701   7.394   3.384   3.965  0.2321  0.0194 -0.0047
  621MOL0     C83702   7.468   3.356   4.058 -0.2152  0.1969 -0.9170
  621MOL0     O83703   7.565   3.436   4.106  0.4017  0.4059  0.2034
  621MOL0     C83704   7.544   3.564   4.079 -0.3939 -0.9155 -0.1074
  621MOL0     C83705   7.453   3.648   4.146  0.1616  0.7292  0.0657
  621MOL0     C83706   7.458   3.786   4.138 -0.7785 -1.2319  0.7346
  621MOL0     C83707   7.549   3.852   4.043  0.5247 -0.6523  0.2566
  621MOL0     O83708   7.547   3.979   4.000  0.6770 -0.2418  0.7280
  621MOL0     C83709   7.436   4.064   4.025 -0.0384 -0.2762  0.7952
  621MOL0     C83710   7.453   4.130   4.160  0.1173  0.5755 -0.7355
  621MOL0     C83711   7.455   4.282   4.152  1.3450  0.0636 -0.8326
  621MOL0     C83712   7.508   4.344   4.283 -0.4198 -0.8152 -0.4267
  621MOL0     C83713   7.490   4.497   4.297 -0.7420  0.4885 -1.0743
  621MOL0     C83714   7.559   4.570   4.416 -1.7002 -0.2185  0.0200
  621MOL0     C83715   7.708   4.578   4.396  0.0334 -0.0430 -1.1347
  621MOL0     C83716   7.779   4.663   4.506  0.2279  0.1904  0.5133
  621MOL0     N83717   7.922   4.632   4.510 -0.4809 -0.2368 -0.3873
  621MOL0     C83718   8.012   4.644   4.401 -0.4717  0.5115 -0.6731
  621MOL0     C83719   8.131   4.591   4.444 -0.0027 -0.1151  0.4126
  621MOL0     C83720   8.255   4.573   4.363 -0.3236  0.0376  0.1392
  621MOL0     C83721   8.276   4.443   4.288 -0.0015 -0.0742 -0.3668
  621MOL0     C83722   8.423   4.399   4.288  0.3432  0.1275  0.9523
  621MOL0     C83723   8.456   4.265   4.213 -0.1265  0.3645 -0.1934
  621MOL0     O83724   8.596   4.251   4.190  0.5161 -0.3919  0.7563
  621MOL0     C83725   8.665   4.149   4.257 -0.3566  0.2493  0.6413
  621MOL0     C83726   8.624   4.088   4.370  1.1741  0.6293  0.0317
  621MOL0     C83727   8.720   4.001   4.438 -0.8307 -0.4981  0.3132
  621MOL0     C83728   8.847   3.977   4.377  0.6742  0.2794 -0.1390
  621MOL0     C83729   8.933   3.884   4.445 -0.5714  0.1600  0.3382
  621MOL0     O83730   8.886   3.834   4.563 -0.6649  0.4623  0.0283
  621MOL0     C83731   8.974   3.763   4.629 -0.4873  0.3897  0.2308
  621MOL0     C83732   9.081   3.827   4.686  0.8925 -0.7213  0.4349
  621MOL0     C83733   9.182   3.752   4.753 -0.2128  0.2176 -0.1149
  621MOL0     C83734   9.178   3.609   4.769  0.6134 -0.1408 -0.0857
  621MOL0     O83735   9.277   3.534   4.822 -0.8972 -0.1726  0.2017
  621MOL0     C83736   9.411   3.589   4.812  0.0932 -0.0554  0.1365
  621MOL0     C83737   9.515   3.485   4.842 -0.1081  0.5989 -0.1744
  621MOL0     C83738   9.563   3.403   4.721 -0.3770  0.0192  0.2671
  621MOL0     C83739   9.471   3.287   4.678 -0.0186  0.1222 -0.1649
  621MOL0     C83740   9.529   3.203   4.558 -0.3071 -0.3806 -0.1880
  621MOL0     C83741   9.636   3.118   4.614 -0.0953 -0.1314 -0.6826
  621MOL0     C83742   9.674   3.018   4.505  0.3500 -0.1242 -0.7140
  621MOL0     C83743   9.829   3.000   4.498 -0.1906  0.6142 -0.0666
  621MOL0    Cl83744   9.895   2.946   4.664  0.0970 -0.4031  0.0121
  621MOL0     C83745   9.069   3.546   4.702 -0.0392 -0.2423  0.2781
  621MOL0     C83746   8.973   3.623   4.640 -0.1312  1.1672 -0.2759
  621MOL0     O83747   9.040   3.857   4.391  0.5149  0.5231 -0.2536
  621MOL0     C83748   8.870   4.032   4.254  0.9153 -0.2253 -0.0464
  621MOL0     C83749   8.790   4.133   4.201  0.7576 -0.2729 -0.0952
  621MOL0     N83750   8.111   4.559   4.575 -0.2638 -0.8216  0.2014
  621MOL0     N83751   7.990   4.585   4.617 -0.0251  0.3089 -0.8447
  621MOL0     C83752   7.638   3.772   3.979  0.2741 -0.4492  1.0511
  621MOL0     C83753   7.633   3.631   3.997  0.7674  0.2982 -0.1149
  621MOL0     C83754   7.463   3.218   4.106  0.7330 -0.1875  0.7242
  621MOL0     C83755   7.355   3.134   4.069  0.0777  0.5340  0.8558
  621MOL0     C83756   7.326   3.009   4.130 -0.5420  0.0986  0.2438
  621MOL0     C83757   7.421   2.948   4.215  0.7203  0.9707  0.2493
  621MOL0     O83758   7.410   2.814   4.258 -0.1162  0.2012 -0.3415
  621MOL0     C83759   7.290   2.769   4.325  0.7529 -0.4322  1.1302
  621MOL0     C83760   7.328   2.640   4.396 -0.0170  0.1987  0.1009
  621MOL0     C83761   7.215   2.559   4.467 -1.0561  0.1470  0.1151
  621MOL0     C83762   7.258   2.465   4.573  0.8653  0.7627  0.1095
  621MOL0     C83763   7.146   2.419   4.651  0.1037  0.9726 -0.2465
  621MOL0     C83764   7.060   2.365   4.725 -0.1935 -1.2850  0.0555
  621MOL0     C83765   7.535   3.018   4.236 -0.5627 -0.2735  0.8259
  621MOL0     C83766   7.560   3.153   4.187 -0.1847 -0.3763 -0.6375
  621MOL0     C83767   7.701   3.203   4.212 -0.7651 -0.3233 -0.0019
  621MOL0     H83768   7.389   3.600   4.219  1.5026  0.7089  1.2780
  621MOL0     H83769   7.388   3.848   4.193 -0.0752  1.0745 -0.8181
  621MOL0     H83770   7.441   4.138   3.944  0.6471 -0.4831  0.6389
  621MOL0     H83771   7.346   4.003   4.013  1.7696 -2.8626 -0.5915
  621MOL0     H83772   7.545   4.085   4.200 -0.3279 -0.3320 -0.7026
  621MOL0     H83773   7.369   4.101   4.223  1.2775 -1.4596 -0.0022
  621MOL0     H83774   7.348   4.299   4.137  0.2450 -3.2310  2.0206
  621MOL0     H83775   7.509   4.324   4.067  3.2231  2.9444  1.5650
  621MOL0     H83776   7.458   4.300   4.370  3.1260 -0.2201  2.1484
  621MOL0     H83777   7.614   4.319   4.295 -0.0605 -0.1058 -1.9013
  621MOL0     H83778   7.547   4.535   4.212  0.0118 -1.5062 -1.5078
  621MOL0     H83779   7.383   4.518   4.293 -0.5883  2.1717  1.4168
  621MOL0     H83780   7.518   4.671   4.425 -1.7448 -0.2386  0.0396
  621MOL0     H83781   7.554   4.520   4.513  1.0970 -0.0983  0.3071
  621MOL0     H83782   7.733   4.623   4.299 -2.4340  0.6477 -1.5050
  621MOL0     H83783   7.745   4.475   4.397 -1.1244 -0.7578  5.0727
  621MOL0     H83784   7.781   4.771   4.490  1.2992  0.3992  1.8251
  621MOL0     H83785   7.728   4.642   4.600 -0.7307  0.7005  0.1229
  621MOL0     H83786   7.977   4.693   4.310 -2.1324  1.4970  0.4354
  621MOL0     H83787   8.262   4.644   4.280 -1.4786 -0.6714 -0.5906
  621MOL0     H83788   8.342   4.582   4.429 -0.3410  0.6992  0.0754
  621MOL0     H83789   8.222   4.356   4.326 -0.4933 -0.1575 -1.2385
  621MOL0     H83790   8.241   4.453   4.185 -1.0601  0.2040 -0.0016
  621MOL0     H83791   8.441   4.370   4.392 -0.5756 -0.5980  0.9201
  621MOL0     H83792   8.493   4.475   4.252  2.6661 -0.4566  3.8728
  621MOL0     H83793   8.403   4.270   4.117  0.0688 -1.0429 -0.3985
  621MOL0     H83794   8.414   4.182   4.271 -0.6316 -0.0328 -1.1044
  621MOL0     H83795   8.533   4.127   4.414 -0.7956 -1.2346 -2.1260
  621MOL0     H83796   8.681   3.961   4.532  1.7124  0.7748  2.0331
  621MOL0     H83797   9.097   3.933   4.671 -1.5828 -0.2820  0.5842
  621MOL0     H83798   9.266   3.811   4.790 -0.7968  0.3521  1.0400
  621MOL0     H83799   9.415   3.624   4.709 -2.3607  3.3276  1.0272
  621MOL0     H83800   9.423   3.674   4.879  2.7072  0.2287 -0.5854
  621MOL0     H83801   9.599   3.544   4.880 -1.1037  0.6346  2.1761
  621MOL0     H83802   9.482   3.425   4.927  1.9027  2.3705  2.0146
  621MOL0     H83803   9.580   3.472   4.638  1.8502  1.4048  1.7709
  621MOL0     H83804   9.667   3.375   4.743 -0.0078  1.7994  0.9720
  621MOL0     H83805   9.372   3.322   4.648  0.1884 -0.4109 -1.5505
  621MOL0     H83806   9.462   3.214   4.759  0.1980 -2.0745 -2.0220
  621MOL0     H83807   9.576   3.267   4.483 -0.6444  0.3733  0.2312
  621MOL0     H83808   9.456   3.138   4.508 -1.9894  2.0947 -1.1920
  621MOL0     H83809   9.714   3.189   4.641  0.4732 -1.4693  1.4118
  621MOL0     H83810   9.613   3.062   4.705  0.3874  0.9058  0.0969
  621MOL0     H83811   9.633   3.041   4.407 -0.7803 -0.1028 -0.2527
  621MOL0     H83812   9.637   2.920   4.538  1.2010 -1.9284 -4.5394
  621MOL0     H83813   9.865   2.918   4.435 -1.6945 -1.0348  1.1553
  621MOL0     H83814   9.881   3.094   4.475  0.5535 -0.3212 -2.5179
  621MOL0     H83815   9.071   3.438   4.690 -1.4150 -0.2253 -0.1939
  621MOL0     H83816   8.888   3.587   4.583 -1.6380  1.7716  1.4904
  621MOL0     H83817   8.961   4.003   4.201  2.2976  0.7715  1.6638
  621MOL0     H83818   8.812   4.182   4.106 -0.2458  0.3371 -0.0297
  621MOL0     H83819   7.693   3.829   3.906 -1.6107 -1.5370 -1.4015
  621MOL0     H83820   7.684   3.560   3.933 -0.7761  0.8716 -2.0773
  621MOL0     H83821   7.277   3.171   4.003 -0.4684 -2.0640 -0.0457
  621MOL0     H83822   7.235   2.955   4.106  0.9067 -2.1839 -0.4020
  621MOL0     H83823   7.208   2.748   4.255 -1.8278 -0.7087  4.0271
  621MOL0     H83824   7.254   2.845   4.395 -0.6662 -2.2063  2.4177
  621MOL0     H83825   7.403   2.656   4.475  0.2397  2.1631 -0.4856
  621MOL0     H83826   7.369   2.572   4.321 -1.3915 -0.4679 -0.0731
  621MOL0     H83827   7.173   2.492   4.392 -2.1670  2.6205 -1.6076
  621MOL0     H83828   7.136   2.627   4.498 -0.9629  0.7217 -0.8781
  621MOL0     H83829   7.303   2.376   4.528 -2.0522 -0.0118 -1.4935
  621MOL0     H83830   7.328   2.517   4.639 -0.5897  3.0473 -0.0215
  621MOL0     H83831   6.981   2.321   4.782 -2.5822 -1.4178 -3.0968
  621MOL0     H83832   7.598   2.953   4.296  0.8521  0.6962  0.4316
  621MOL0     H83833   7.743   3.149   4.297 -4.4534 -1.1562  1.4871
  621MOL0     H83834   7.753   3.185   4.117 -1.7276  4.3020 -1.6892
  621MOL0     H83835   7.711   3.311   4.224 -0.9482  0.1452 -3.2396
  622MOL0     O83836   7.936   8.781   7.220  0.1178  0.2111 -0.0589
  622MOL0     C83837   7.932   8.851   7.321 -0.3924 -1.3465 -0.0875
  622MOL0     O83838   7.882   8.982   7.331  0.2991  0.0959  0.6030
  622MOL0     C83839   7.848   9.031   7.206  1.0435 -0.6028 -0.0311
  622MOL0     C83840   7.942   9.118   7.140 -0.0655 -0.0341 -0.1405
  622MOL0     C83841   7.923   9.187   7.015  0.3493  0.1754  0.4334
  622MOL0     C83842   7.799   9.153   6.954 -0.2687  0.2890  0.2303
  622MOL0     O83843   7.773   9.164   6.815 -0.0042  0.6366  0.2724
  622MOL0     C83844   7.862   9.221   6.717 -0.4352  0.4599 -1.7661
  622MOL0     C83845   7.892   9.375   6.730  0.5352 -0.1597  0.7827
  622MOL0     C83846   8.030   9.404   6.667  0.1651 -0.4601  0.3073
  622MOL0     C83847   8.067   9.555   6.677  0.4323 -0.1221 -0.4798
  622MOL0     C83848   8.218   9.570   6.693 -0.2766  0.1550 -0.8085
  622MOL0     C83849   8.266   9.717   6.711 -0.5773  0.9445 -0.6520
  622MOL0     C83850   8.411   9.729   6.784  0.4246 -0.6520  0.3680
  622MOL0     C83851   8.456   9.870   6.779 -0.1592 -0.5372 -0.0982
  622MOL0     N83852   8.595   9.903   6.817  0.3997 -0.2191 -0.2105
  622MOL0     C83853   8.632  10.027   6.860 -1.1980 -0.0919 -0.2397
  622MOL0     C83854   8.764  10.010   6.891  0.3986  0.6462 -0.8961
  622MOL0     C83855   8.861  10.107   6.952 -0.7393  0.1163  0.1512
  622MOL0     C83856   9.000  10.129   6.880 -0.2721 -0.4240 -0.1195
  622MOL0     C83857   8.997  10.150   6.731  0.3939  0.4475  0.2278
  622MOL0     C83858   8.916  10.282   6.711  0.7052 -0.3464  0.6187
  622MOL0     O83859   8.898  10.292   6.568  0.2495 -0.3226 -0.6141
  622MOL0     C83860   8.985  10.358   6.489  0.1143  1.5019  0.0261
  622MOL0     C83861   9.112  10.402   6.521  0.7046 -0.2580  0.2097
  622MOL0     C83862   9.197  10.470   6.422 -0.6750  0.6720 -0.9767
  622MOL0     C83863   9.144  10.504   6.298  0.3873 -1.7368  0.8974
  622MOL0     C83864   9.221  10.581   6.192 -0.2517 -0.0414 -0.4915
  622MOL0     O83865   9.151  10.630   6.077 -0.1213  0.2359 -0.5128
  622MOL0     C83866   9.220  10.666   5.962  0.2681  0.8505  1.2429
  622MOL0     C83867   9.183  10.778   5.891  0.6532  0.3658  0.2261
  622MOL0     C83868   9.252  10.807   5.769 -0.1262 -0.6051  0.8742
  622MOL0     C83869   9.356  10.730   5.712  0.4728 -0.6112 -0.0356
  622MOL0     O83870   9.407  10.765   5.589  0.3943  0.4232  0.2612
  622MOL0     C83871   9.518  10.697   5.544 -0.8732  0.7239  0.4337
  622MOL0     C83872   9.554  10.747   5.393 -0.5751 -0.0948 -0.6811
  622MOL0     C83873   9.618  10.884   5.398  0.8102  0.2340  0.6221
  622MOL0     C83874   9.646  10.930   5.258 -0.4785 -0.3609 -0.2936
  622MOL0     C83875   9.522  10.990   5.199  0.2953  1.0097  0.0542
  622MOL0     C83876   9.536  11.078   5.075 -0.1563  0.5613  1.1468
  622MOL0     C83877   9.583  11.009   4.948 -0.4685 -0.3256  0.6733
  622MOL0     C83878   9.547  11.085   4.828  0.2902 -0.0784  0.4543
  622MOL0    Cl83879   9.633  11.061   4.689 -0.3041 -0.0214  0.4051
  622MOL0     C83880   9.388  10.617   5.787 -0.2619  0.0033 -0.2354
  622MOL0     C83881   9.323  10.588   5.913  0.1661 -0.7673 -0.0650
  622MOL0     O83882   9.340  10.603   6.218 -0.0595  0.1223 -0.1848
  622MOL0     C83883   9.015  10.478   6.272  0.2077  0.6995  1.2713
  622MOL0     C83884   8.932  10.404   6.363  0.1119 -0.1535  0.4194
  622MOL0     N83885   8.795   9.880   6.860 -0.1809  1.0975  0.8980
  622MOL0     N83886   8.690   9.810   6.821 -0.0851 -0.2208 -0.2199
  622MOL0     C83887   7.701   9.077   7.020  0.1740  1.3154  1.3342
  622MOL0     C83888   7.722   9.019   7.145 -0.1473 -0.0183 -0.2492
  622MOL0     C83889   7.991   8.802   7.448 -0.3272 -0.5040  0.1535
  622MOL0     C83890   7.928   8.850   7.568 -1.2722  0.3871  0.3092
  622MOL0     C83891   7.967   8.804   7.697  0.1398 -0.6773 -0.3427
  622MOL0     C83892   8.090   8.730   7.705  0.2277 -0.8613  0.7727
  622MOL0     O83893   8.155   8.696   7.824 -0.0404 -0.2502  0.8806
  622MOL0     C83894   8.085   8.721   7.941  0.8446 -0.9329 -1.0582
  622MOL0     C83895   8.147   8.631   8.054  0.1445  0.0072  0.2868
  622MOL0     C83896   8.142   8.474   8.023  1.1130 -0.7054 -0.2895
  622MOL0     C83897   8.155   8.381   8.144  0.2522  0.7572 -0.1015
  622MOL0     C83898   8.078   8.422   8.262 -0.6120  0.5702 -0.5916
  622MOL0     C83899   8.009   8.465   8.356 -0.8732 -0.2961 -0.3263
  622MOL0     C83900   8.168   8.709   7.590  0.2712 -0.4046 -1.0734
  622MOL0     C83901   8.112   8.734   7.462  0.8801  0.1989  0.5133
  622MOL0     C83902   8.195   8.694   7.337 -0.0215  0.1607 -0.2268
  622MOL0     H83903   8.036   9.138   7.190 -0.0415 -2.5350  1.0176
  622MOL0     H83904   7.993   9.254   6.967  1.7541 -2.1819 -1.0262
  622MOL0     H83905   7.958   9.167   6.724 -2.1894 -2.8094 -0.7538
  622MOL0     H83906   7.816   9.199   6.621 -1.2062 -0.4144 -1.2166
  622MOL0     H83907   7.868   9.397   6.835 -1.3964 -1.4194  0.6610
  622MOL0     H83908   7.816   9.425   6.670 -0.1790 -1.1922  0.8047
  622MOL0     H83909   8.020   9.378   6.561 -4.7838 -1.9759  0.9219
  622MOL0     H83910   8.111   9.345   6.711  1.2059 -1.9384 -3.1904
  622MOL0     H83911   8.037   9.630   6.603 -0.1419  0.0351 -0.0962
  622MOL0     H83912   8.010   9.580   6.767 -2.2290  0.1557 -2.1189
  622MOL0     H83913   8.245   9.510   6.780 -0.1539 -2.7467 -2.6811
  622MOL0     H83914   8.259   9.515   6.607  1.7660  0.1585  0.0883
  622MOL0     H83915   8.280   9.753   6.608  1.5724 -0.4509 -0.9116
  622MOL0     H83916   8.197   9.759   6.784  0.6147 -2.2901  2.6268
  622MOL0     H83917   8.477   9.666   6.723 -0.0293 -0.5330 -0.2551
  622MOL0     H83918   8.410   9.697   6.888 -1.7530  0.1907  0.6588
  622MOL0     H83919   8.451   9.903   6.675  0.2671  0.9431  0.3294
  622MOL0     H83920   8.387   9.928   6.841  1.9713 -0.8862  2.7636
  622MOL0     H83921   8.572  10.115   6.878  3.2697  3.1026  0.9719
  622MOL0     H83922   8.808  10.202   6.951  1.5354  1.5021  1.3890
  622MOL0     H83923   8.868  10.085   7.059 -0.4574  1.1085  0.3539
  622MOL0     H83924   9.045  10.210   6.939 -0.8184  0.8587 -1.3959
  622MOL0     H83925   9.069  10.044   6.888  1.8535  0.8086 -3.4511
  622MOL0     H83926   8.938  10.074   6.680 -1.6181  1.4797  0.9017
  622MOL0     H83927   9.101  10.161   6.700  1.5959 -2.9590  2.4342
  622MOL0     H83928   8.960  10.371   6.759 -1.1655  1.4877 -0.8631
  622MOL0     H83929   8.815  10.272   6.754  0.9980  1.8344  2.0304
  622MOL0     H83930   9.145  10.380   6.622  0.2334 -0.2133  0.3766
  622MOL0     H83931   9.297  10.505   6.449 -0.4076 -0.0872 -0.9671
  622MOL0     H83932   9.090  10.828   5.917  0.2097  0.9956 -2.3203
  622MOL0     H83933   9.213  10.902   5.733  2.8068  0.3718  0.0262
  622MOL0     H83934   9.603  10.720   5.609 -1.0899  4.1031 -0.2562
  622MOL0     H83935   9.498  10.590   5.539 -3.8493  1.2252 -1.0281
  622MOL0     H83936   9.641  10.691   5.357 -0.0610  0.9182 -1.0520
  622MOL0     H83937   9.462  10.733   5.337 -0.5381  0.1398 -0.7984
  622MOL0     H83938   9.546  10.950   5.448  0.0517 -0.6877  0.7589
  622MOL0     H83939   9.701  10.868   5.468  0.7316 -1.5386  0.3382
  622MOL0     H83940   9.697  10.861   5.190 -2.2008 -0.8562 -1.1411
  622MOL0     H83941   9.714  11.014   5.243 -4.3207  3.3253  0.7588
  622MOL0     H83942   9.488  11.062   5.274  3.4644 -0.1857  2.8760
  622MOL0     H83943   9.440  10.917   5.193  0.7351  0.5843 -0.9186
  622MOL0     H83944   9.442  11.132   5.067 -1.4679 -1.0254  4.3200
  622MOL0     H83945   9.600  11.165   5.092  1.0015  0.4523 -1.9504
  622MOL0     H83946   9.556  10.904   4.932  0.2201 -0.0666 -3.4191
  622MOL0     H83947   9.692  10.999   4.951 -0.5473 -1.2536  0.7732
  622MOL0     H83948   9.439  11.070   4.818  0.3702  0.4740 -1.8548
  622MOL0     H83949   9.563  11.192   4.844  2.4638 -0.1408 -0.8160
  622MOL0     H83950   9.466  10.550   5.753 -1.4587 -0.3570 -2.4446
  622MOL0     H83951   9.363  10.499   5.960 -2.6693 -2.1084 -0.0405
  622MOL0     H83952   8.964  10.507   6.181 -0.8791 -2.0356  0.8947
  622MOL0     H83953   8.827  10.382   6.346 -0.2715 -0.3039  2.7363
  622MOL0     H83954   7.616   9.044   6.961  2.0367 -2.5700  0.5149
  622MOL0     H83955   7.657   8.940   7.181  1.5247 -1.0760  0.5562
  622MOL0     H83956   7.837   8.908   7.560 -1.8061 -0.2979  1.2695
  622MOL0     H83957   7.904   8.829   7.782 -0.3283  2.3664 -1.4565
  622MOL0     H83958   7.981   8.687   7.940  0.3707  0.4405 -0.6717
  622MOL0     H83959   8.097   8.824   7.977  1.5962 -1.1346 -0.7138
  622MOL0     H83960   8.096   8.649   8.149  2.3054  1.3093  1.2918
  622MOL0     H83961   8.255   8.651   8.062  0.3539 -0.3530 -1.3140
  622MOL0     H83962   8.226   8.449   7.957  2.8336  0.5530  1.3209
  622MOL0     H83963   8.051   8.446   7.970 -0.2486 -0.3204  1.7539
  622MOL0     H83964   8.119   8.282   8.115 -2.1472  1.6991 -0.5785
  622MOL0     H83965   8.261   8.381   8.174  1.0986  2.7960 -2.7130
  622MOL0     H83966   7.937   8.483   8.433 -1.7679 -1.5253 -0.8441
  622MOL0     H83967   8.257   8.648   7.584  0.8557  0.5271 -2.4041
  622MOL0     H83968   8.138   8.641   7.259  0.8983  2.6564 -2.7833
  622MOL0     H83969   8.232   8.784   7.287  1.6977  0.2097  1.0524
  622MOL0     H83970   8.284   8.633   7.355 -0.1903  0.1822  0.6916
  623MOL0     O83971  11.160   8.128   8.627 -0.2607  0.0235 -0.2142
  623MOL0     C83972  11.180   8.008   8.659 -0.3810  0.1958 -0.0492
  623MOL0     O83973  11.073   7.916   8.687 -0.3040 -0.2245 -0.0410
  623MOL0     C83974  10.943   7.940   8.656  0.8335  0.5121 -0.1626
  623MOL0     C83975  10.887   8.010   8.554  0.4193  0.2979 -0.0100
  623MOL0     C83976  10.745   8.027   8.530 -0.0282  0.3037 -0.0113
  623MOL0     C83977  10.660   7.983   8.629  0.6065  0.8353  0.1480
  623MOL0     O83978  10.526   7.992   8.631 -0.4208 -0.9611  0.7224
  623MOL0     C83979  10.449   8.050   8.519  0.5500 -0.8311 -1.0154
  623MOL0     C83980  10.301   8.040   8.560  1.3377 -0.4148  0.1343
  623MOL0     C83981  10.218   8.164   8.531 -0.9731  0.4790 -0.1328
  623MOL0     C83982  10.218   8.264   8.647 -0.2681 -0.4441  0.3300
  623MOL0     C83983  10.149   8.393   8.601  0.5575  0.5288 -0.2316
  623MOL0     C83984  10.199   8.508   8.688  0.7413  0.4919  0.0509
  623MOL0     C83985  10.159   8.486   8.831  0.2068  1.8664  0.5533
  623MOL0     C83986  10.226   8.604   8.902  0.0500 -0.3266 -0.4119
  623MOL0     N83987  10.241   8.586   9.051 -0.3906 -0.5717  0.0246
  623MOL0     C83988  10.307   8.490   9.115 -0.8380 -1.1651 -0.4097
  623MOL0     C83989  10.297   8.526   9.240 -0.3853  0.9391 -0.7027
  623MOL0     C83990  10.362   8.489   9.365 -0.9823 -0.1302 -0.3368
  623MOL0     C83991  10.503   8.444   9.353 -0.0522 -0.1560 -1.1663
  623MOL0     C83992  10.580   8.443   9.491  0.2546 -0.5523  0.9260
  623MOL0     C83993  10.686   8.333   9.513  0.5395 -0.1017 -0.1291
  623MOL0     O83994  10.727   8.343   9.649 -0.1067  0.8673  0.2542
  623MOL0     C83995  10.827   8.257   9.676 -0.2357  0.6178  0.2575
  623MOL0     C83996  10.940   8.244   9.594  0.6352  0.3933  0.0979
  623MOL0     C83997  11.046   8.157   9.622  0.1836 -0.5211  0.3592
  623MOL0     C83998  11.042   8.072   9.732  0.8637  0.2297 -0.3393
  623MOL0     C83999  11.149   7.970   9.759  0.5147  0.1620 -0.0497
  623MOL0     O84000  11.265   7.993   9.695  0.5973 -0.4237  0.4402
  623MOL0     C84001  11.367   7.904   9.716 -0.5150 -0.4940  0.1617
  623MOL0     C84002  11.427   7.848   9.596  0.7609 -0.1660 -0.4337
  623MOL0     C84003  11.538   7.761   9.607 -0.7504  0.0509 -0.2069
  623MOL0     C84004  11.580   7.713   9.727 -0.8097  0.1414  0.0957
  623MOL0     O84005  11.690   7.627   9.727 -0.2305  0.1074  0.3494
  623MOL0     C84006  11.755   7.574   9.842 -0.5992 -0.0044 -1.2959
  623MOL0     C84007  11.867   7.477   9.792 -0.0399 -0.3859 -0.8669
  623MOL0     C84008  11.824   7.332   9.767 -1.2297 -0.4368  0.1929
  623MOL0     C84009  11.951   7.253   9.741  0.9054 -0.1481 -1.9230
  623MOL0     C84010  11.994   7.274   9.593  0.1589 -0.2781 -0.7451
  623MOL0     C84011  12.103   7.179   9.552 -0.5046 -0.3905 -0.6524
  623MOL0     C84012  12.231   7.167   9.636 -0.6564 -0.1994  0.2196
  623MOL0     C84013  12.316   7.298   9.634 -0.6484  0.7729 -0.1715
  623MOL0    Cl84014  12.466   7.283   9.734  0.3828  0.1554 -0.0980
  623MOL0     C84015  11.528   7.767   9.842  0.7251  0.7023 -0.4100
  623MOL0     C84016  11.407   7.844   9.834 -1.2340 -0.4930 -0.2170
  623MOL0     O84017  11.117   7.884   9.843 -0.6269 -0.9947  0.5770
  623MOL0     C84018  10.922   8.072   9.808 -1.1689  1.1062  0.0334
  623MOL0     C84019  10.819   8.163   9.780  0.0623  0.3050 -0.7848
  623MOL0     N84020  10.210   8.627   9.264  0.2071 -0.8038 -0.2854
  623MOL0     N84021  10.191   8.668   9.145 -0.3296  0.8434  0.5210
  623MOL0     C84022  10.714   7.908   8.731 -0.7019  0.1111 -0.9416
  623MOL0     C84023  10.852   7.886   8.740  0.2960 -0.1421  0.3246
  623MOL0     C84024  11.323   7.962   8.669 -0.3133 -0.4036  1.0336
  623MOL0     C84025  11.352   7.844   8.745 -0.2286  0.0961 -0.5883
  623MOL0     C84026  11.481   7.804   8.777 -0.4932  0.0013 -0.5053
  623MOL0     C84027  11.592   7.866   8.717 -0.5257  0.0688 -0.2972
  623MOL0     O84028  11.722   7.820   8.729 -0.0955  0.1646 -0.1279
  623MOL0     C84029  11.830   7.907   8.753  0.3222  0.0464 -0.6107
  623MOL0     C84030  11.840   7.947   8.901 -0.3303  0.3728  0.2721
  623MOL0     C84031  11.876   7.823   8.980 -1.6571  0.0817 -1.4135
  623MOL0     C84032  11.916   7.862   9.130  0.0343  0.1296  1.2207
  623MOL0     C84033  11.964   7.742   9.206  0.8663 -0.3199  0.2598
  623MOL0     C84034  11.987   7.633   9.258 -0.2785 -0.4324 -0.0825
  623MOL0     C84035  11.571   7.973   8.634 -0.3797  0.1043 -0.8753
  623MOL0     C84036  11.444   8.025   8.619  0.5663 -0.1739  0.5485
  623MOL0     C84037  11.442   8.152   8.539 -0.3118  0.6208 -0.0437
  623MOL0     H84038  10.951   8.073   8.493  1.7335  2.2690  3.1538
  623MOL0     H84039  10.729   8.083   8.438  2.5734  0.5453 -0.4064
  623MOL0     H84040  10.472   8.156   8.525  0.0055 -0.7345 -0.6469
  623MOL0     H84041  10.468   8.018   8.416  0.5431  3.2798 -2.4441
  623MOL0     H84042  10.303   8.026   8.669  0.7314 -0.6519  0.1173
  623MOL0     H84043  10.248   7.953   8.521  0.1217  0.6530 -0.6943
  623MOL0     H84044  10.116   8.137   8.502 -0.0948 -1.3231 -1.7338
  623MOL0     H84045  10.254   8.217   8.442  0.1234  2.8643  1.6125
  623MOL0     H84046  10.153   8.225   8.726  2.8911  0.2681  3.5431
  623MOL0     H84047  10.319   8.265   8.688 -0.4498 -0.0120  0.7713
  623MOL0     H84048  10.182   8.425   8.502  1.0100  2.8807  0.6330
  623MOL0     H84049  10.040   8.381   8.609  0.7516  0.1723  4.4704
  623MOL0     H84050  10.306   8.518   8.669  0.4394  2.6756 -0.7481
  623MOL0     H84051  10.150   8.597   8.648 -0.3608 -0.7507 -1.4854
  623MOL0     H84052  10.198   8.393   8.874 -0.3226  2.1470  1.6935
  623MOL0     H84053  10.051   8.490   8.849  0.1082 -2.8478  2.4958
  623MOL0     H84054  10.328   8.617   8.867  0.2433  1.6400  0.7493
  623MOL0     H84055  10.184   8.700   8.870  4.3347  1.5434 -1.0454
  623MOL0     H84056  10.366   8.407   9.077 -0.7323 -0.3614 -2.1371
  623MOL0     H84057  10.371   8.578   9.427  3.1461  1.4026 -2.7118
  623MOL0     H84058  10.295   8.417   9.412 -0.5771 -0.5444 -0.3847
  623MOL0     H84059  10.501   8.338   9.322  1.1240 -0.0518 -1.6270
  623MOL0     H84060  10.558   8.494   9.273 -2.3846  1.4852 -1.8730
  623MOL0     H84061  10.511   8.426   9.575 -1.2482 -2.6548 -0.6352
  623MOL0     H84062  10.631   8.539   9.504  0.9592 -0.9521  1.1793
  623MOL0     H84063  10.765   8.345   9.438  1.8976 -0.3150  1.2351
  623MOL0     H84064  10.647   8.232   9.493 -2.3426  1.2623 -2.1656
  623MOL0     H84065  10.961   8.312   9.513 -1.7840 -0.0189 -0.9874
  623MOL0     H84066  11.125   8.152   9.547 -0.5267  0.5188 -0.4973
  623MOL0     H84067  11.398   7.874   9.495  0.0019 -0.2121 -0.2356
  623MOL0     H84068  11.590   7.732   9.516 -0.7469  2.5620 -1.0849
  623MOL0     H84069  11.795   7.654   9.905 -2.4967  1.8665 -2.3248
  623MOL0     H84070  11.689   7.516   9.907 -1.4464 -1.0112 -2.9754
  623MOL0     H84071  11.919   7.520   9.706  1.3936  0.9035  0.5758
  623MOL0     H84072  11.950   7.473   9.863 -1.0966  2.8757  0.7310
  623MOL0     H84073  11.780   7.277   9.850 -0.9339 -1.2764 -0.1944
  623MOL0     H84074  11.762   7.325   9.677  0.8871  0.8997 -1.5011
  623MOL0     H84075  11.926   7.148   9.761 -4.0389  1.1766  0.3490
  623MOL0     H84076  12.018   7.287   9.820 -0.7530 -0.7315 -0.1849
  623MOL0     H84077  12.028   7.378   9.587 -5.0941  1.7560 -1.0301
  623MOL0     H84078  11.909   7.259   9.527 -0.7592 -1.9751  0.7369
  623MOL0     H84079  12.060   7.078   9.547  0.0849 -0.7604  1.1055
  623MOL0     H84080  12.144   7.208   9.455  1.9240 -0.2071  0.3685
  623MOL0     H84081  12.298   7.083   9.612 -0.6874  0.4961 -2.6022
  623MOL0     H84082  12.189   7.145   9.735 -0.6150 -3.0357 -0.2963
  623MOL0     H84083  12.352   7.321   9.534  0.3499 -2.2138 -0.5777
  623MOL0     H84084  12.247   7.373   9.674 -2.1245  0.5887 -2.2489
  623MOL0     H84085  11.555   7.726   9.938 -0.5510 -3.0726 -1.4965
  623MOL0     H84086  11.351   7.860   9.926 -0.2561  0.2308  0.2663
  623MOL0     H84087  10.938   8.014   9.899  0.5091  4.2215  1.9085
  623MOL0     H84088  10.728   8.164   9.840  0.7532  2.1747  0.2915
  623MOL0     H84089  10.665   7.872   8.821  0.2641 -0.3749 -0.5949
  623MOL0     H84090  10.896   7.837   8.826  0.8831 -0.7879 -0.3349
  623MOL0     H84091  11.270   7.796   8.798  0.9877 -2.1494 -0.6140
  623MOL0     H84092  11.506   7.716   8.834 -0.6180 -0.0464 -0.5263
  623MOL0     H84093  11.828   8.000   8.695  4.1134  2.4648  2.6601
  623MOL0     H84094  11.916   7.842   8.735 -1.5177 -2.5413 -0.7166
  623MOL0     H84095  11.742   7.990   8.926 -1.1650 -1.3076  0.1035
  623MOL0     H84096  11.919   8.020   8.920 -2.5345  2.7997  0.7122
  623MOL0     H84097  11.950   7.762   8.927  1.2533 -0.0945  2.3849
  623MOL0     H84098  11.796   7.749   8.989  0.4513 -2.2141 -0.2087
  623MOL0     H84099  11.992   7.939   9.121  0.2519 -0.3238 -4.1402
  623MOL0     H84100  11.818   7.886   9.174 -1.6480 -1.5506 -1.3384
  623MOL0     H84101  12.016   7.550   9.318 -3.7468 -0.6171  1.5798
  623MOL0     H84102  11.649   8.028   8.584 -1.3871  0.7904 -1.7251
  623MOL0     H84103  11.539   8.202   8.546 -0.9155  1.7153  0.9768
  623MOL0     H84104  11.415   8.129   8.436 -1.1725  1.1691  0.0513
  623MOL0     H84105  11.370   8.224   8.580 -0.0261  0.8290  0.0937
  624MOL0     O84106   8.497   2.360   3.467  0.0550  0.3311 -0.8346
  624MOL0     C84107   8.376   2.389   3.467  0.6161  0.5344 -1.0930
  624MOL0     O84108   8.320   2.513   3.439 -0.1265 -0.9771 -0.1624
  624MOL0     C84109   8.392   2.631   3.398  0.2992  0.1124 -0.5055
  624MOL0     C84110   8.527   2.656   3.420 -1.0153  0.0093  0.9303
  624MOL0     C84111   8.589   2.775   3.366  0.6819  0.4789  0.4958
  624MOL0     C84112   8.510   2.875   3.310 -0.4727  0.5442 -1.3636
  624MOL0     O84113   8.552   2.997   3.271  1.2035  0.0860 -0.6639
  624MOL0     C84114   8.691   3.031   3.272 -0.5701 -0.9100  0.1417
  624MOL0     C84115   8.717   3.180   3.266  0.8066 -0.7404  0.7040
  624MOL0     C84116   8.674   3.238   3.129  0.4479  1.0151  0.4670
  624MOL0     C84117   8.746   3.173   3.013  0.2315  1.0328  0.4033
  624MOL0     C84118   8.749   3.266   2.889  0.5648 -0.4704 -0.4152
  624MOL0     C84119   8.620   3.306   2.818 -0.5142 -0.5276  0.2770
  624MOL0     C84120   8.560   3.183   2.745  1.2316 -0.5746  0.5249
  624MOL0     C84121   8.422   3.234   2.693  0.5946 -0.4317 -0.6566
  624MOL0     N84122   8.320   3.238   2.809  0.0450  0.6099  0.4342
  624MOL0     C84123   8.214   3.320   2.782 -0.6665 -0.2888 -0.3006
  624MOL0     C84124   8.147   3.332   2.900 -0.3237 -0.3349 -0.5950
  624MOL0     C84125   8.030   3.419   2.930  0.9656  0.2256 -0.0263
  624MOL0     C84126   8.075   3.561   2.950 -0.5186 -0.7637  0.0621
  624MOL0     C84127   7.968   3.664   2.928  0.4399  0.9578 -0.0949
  624MOL0     C84128   7.864   3.654   3.045 -0.4795 -0.0230  0.8200
  624MOL0     O84129   7.897   3.607   3.173  0.4345  0.9281 -0.8775
  624MOL0     C84130   7.785   3.550   3.233 -0.4758 -0.0989  0.1259
  624MOL0     C84131   7.673   3.618   3.278 -0.6286 -0.1278  0.1198
  624MOL0     C84132   7.562   3.564   3.340 -0.0914  0.3452  0.5992
  624MOL0     C84133   7.556   3.433   3.369 -0.4100 -0.4754 -0.2558
  624MOL0     C84134   7.437   3.362   3.424 -0.2498  0.3181  0.3369
  624MOL0     O84135   7.348   3.439   3.491 -0.1669  0.0036 -0.3338
  624MOL0     C84136   7.247   3.378   3.560  0.4041 -0.2638  0.5999
  624MOL0     C84137   7.154   3.308   3.484  0.1415  0.0198  0.8669
  624MOL0     C84138   7.038   3.255   3.533 -0.0005 -0.0978 -1.1014
  624MOL0     C84139   7.018   3.257   3.663  0.4595  0.2151 -1.0901
  624MOL0     O84140   6.897   3.203   3.710  0.0233 -0.7924 -0.4557
  624MOL0     C84141   6.902   3.163   3.854  0.6952 -0.5893 -0.2903
  624MOL0     C84142   6.778   3.103   3.896 -0.4922  0.0333  0.0494
  624MOL0     C84143   6.739   2.973   3.842  0.7337  0.8407  0.4977
  624MOL0     C84144   6.628   2.884   3.895 -0.1901 -0.0215  0.3076
  624MOL0     C84145   6.647   2.746   3.847  0.2786 -0.0810 -0.7567
  624MOL0     C84146   6.519   2.677   3.908 -0.0222  0.1263  0.2675
  624MOL0     C84147   6.546   2.524   3.885  1.2167  0.3515 -0.0427
  624MOL0     C84148   6.440   2.429   3.942  0.6496  0.2826  0.1987
  624MOL0    Cl84149   6.276   2.466   3.879 -0.3105  0.1597  0.1561
  624MOL0     C84150   7.109   3.322   3.748 -0.4650  0.4754  0.1424
  624MOL0     C84151   7.222   3.385   3.694 -0.1551 -0.0337 -0.2155
  624MOL0     O84152   7.427   3.247   3.379 -0.6353 -0.5910 -0.0693
  624MOL0     C84153   7.674   3.356   3.321  0.2746 -0.1349  0.0549
  624MOL0     C84154   7.785   3.414   3.267 -0.0220 -0.2654 -0.4073
  624MOL0     N84155   8.228   3.263   2.994 -0.2726  0.5470  0.2098
  624MOL0     N84156   8.329   3.205   2.939  0.3415 -0.2144 -0.6330
  624MOL0     C84157   8.372   2.847   3.301 -0.5502  0.8837 -0.4818
  624MOL0     C84158   8.305   2.726   3.334 -0.5117 -0.1914  0.2557
  624MOL0     C84159   8.276   2.278   3.496 -0.3334  0.3529  0.4465
  624MOL0     C84160   8.301   2.155   3.444  0.3174  0.4990  0.3652
  624MOL0     C84161   8.201   2.057   3.413  1.0774 -0.1482 -0.5111
  624MOL0     C84162   8.072   2.088   3.460 -0.3223 -1.7728 -1.5220
  624MOL0     O84163   7.963   2.001   3.446 -0.2330  0.0256 -0.2204
  624MOL0     C84164   7.941   1.946   3.311  0.0084 -2.1904 -2.0661
  624MOL0     C84165   7.793   1.904   3.306  0.4201  1.0050  0.6570
  624MOL0     C84166   7.690   2.022   3.344  0.0683 -0.3457 -1.3855
  624MOL0     C84167   7.555   1.992   3.280 -0.1077  0.3493  0.5765
  624MOL0     C84168   7.552   1.988   3.136 -0.6637  0.0313 -0.1638
  624MOL0     C84169   7.552   1.978   3.016  0.2830 -0.3168 -0.8148
  624MOL0     C84170   8.050   2.205   3.540 -0.5656 -0.6046  0.7902
  624MOL0     C84171   8.155   2.303   3.560  0.1024  1.0402 -0.1666
  624MOL0     C84172   8.136   2.428   3.649 -0.3016 -0.1505 -0.0608
  624MOL0     H84173   8.581   2.572   3.463 -3.5209 -1.0889  2.1536
  624MOL0     H84174   8.697   2.780   3.353  0.5833 -1.0129 -1.4720
  624MOL0     H84175   8.723   2.992   3.370 -0.6950  3.5545  2.1841
  624MOL0     H84176   8.745   2.982   3.191 -1.3505 -2.5870  0.5779
  624MOL0     H84177   8.821   3.213   3.276  0.0253  2.4191 -0.4399
  624MOL0     H84178   8.658   3.224   3.346  0.7749 -0.2239  0.3990
  624MOL0     H84179   8.683   3.347   3.123  3.1184  0.8051 -0.9850
  624MOL0     H84180   8.568   3.216   3.112 -0.1272  3.3454  0.6718
  624MOL0     H84181   8.851   3.151   3.031 -0.7233 -2.0127  2.9741
  624MOL0     H84182   8.698   3.076   2.997  0.8899  0.9936 -1.7072
  624MOL0     H84183   8.816   3.352   2.898  0.3996 -0.5880  3.0030
  624MOL0     H84184   8.799   3.201   2.817  2.6935  0.0972  0.4622
  624MOL0     H84185   8.547   3.352   2.886 -0.6792 -0.9323  0.3766
  624MOL0     H84186   8.635   3.374   2.733  1.3146  0.2232  1.1461
  624MOL0     H84187   8.549   3.090   2.801 -0.8103 -0.0710  1.0332
  624MOL0     H84188   8.613   3.154   2.654 -2.4853 -0.0626 -2.0495
  624MOL0     H84189   8.430   3.328   2.639  0.4124  0.2604  0.4854
  624MOL0     H84190   8.388   3.147   2.637  2.4866 -2.8166  1.6176
  624MOL0     H84191   8.189   3.377   2.693 -0.4005 -1.7181 -1.3263
  624MOL0     H84192   7.967   3.414   2.841  1.5252 -0.1353 -0.4071
  624MOL0     H84193   7.971   3.375   3.012 -1.9825 -1.0944 -2.6126
  624MOL0     H84194   8.131   3.581   3.042 -1.4367 -0.6410  0.6083
  624MOL0     H84195   8.151   3.573   2.873  0.2940 -1.3165  0.7518
  624MOL0     H84196   7.913   3.665   2.834 -1.1060  0.7706  0.7809
  624MOL0     H84197   8.010   3.763   2.952  0.2562  0.3386  3.1355
  624MOL0     H84198   7.779   3.597   3.007  0.7268  0.2344 -2.5641
  624MOL0     H84199   7.809   3.745   3.067 -2.0628  0.0051 -2.6353
  624MOL0     H84200   7.691   3.725   3.269  2.4993 -0.6311 -0.6874
  624MOL0     H84201   7.491   3.635   3.380 -0.5094 -0.3958  1.1849
  624MOL0     H84202   7.169   3.299   3.377 -3.7691 -2.4069  0.3409
  624MOL0     H84203   6.966   3.203   3.471  0.5875 -2.1198 -0.1802
  624MOL0     H84204   6.976   3.086   3.877  0.5077 -0.5537  0.4489
  624MOL0     H84205   6.914   3.253   3.915 -2.3493 -0.4834  0.3240
  624MOL0     H84206   6.766   3.109   4.004  3.9326  0.6761  0.6952
  624MOL0     H84207   6.701   3.166   3.849 -1.3055 -0.8101  0.2327
  624MOL0     H84208   6.706   2.996   3.740  1.3724  0.7813  0.2760
  624MOL0     H84209   6.829   2.912   3.830  3.1361  4.2462 -0.4476
  624MOL0     H84210   6.526   2.916   3.875 -0.5752  0.0797  2.2195
  624MOL0     H84211   6.630   2.890   4.004 -0.3928 -0.0121  0.3111
  624MOL0     H84212   6.735   2.696   3.887  1.7621  2.2729 -0.8634
  624MOL0     H84213   6.645   2.735   3.739  2.4686 -0.5412 -0.7767
  624MOL0     H84214   6.504   2.691   4.016 -0.5182 -0.4864  0.2845
  624MOL0     H84215   6.429   2.709   3.855  0.9203  1.1008 -0.7939
  624MOL0     H84216   6.636   2.482   3.930  0.1410 -5.0293 -2.1819
  624MOL0     H84217   6.555   2.507   3.777 -1.1537  2.0169 -0.5868
  624MOL0     H84218   6.463   2.322   3.933  2.8554  0.7832 -0.7983
  624MOL0     H84219   6.437   2.440   4.051 -0.7467 -2.9444  0.6014
  624MOL0     H84220   7.094   3.326   3.856  0.4381  0.4530  0.2753
  624MOL0     H84221   7.288   3.439   3.761 -1.9930 -0.4114  2.0564
  624MOL0     H84222   7.682   3.251   3.346 -1.3286 -0.4879 -0.7851
  624MOL0     H84223   7.863   3.353   3.223 -0.8998 -2.1437  0.4984
  624MOL0     H84224   8.321   2.928   3.250  1.1580  2.7552  0.5890
  624MOL0     H84225   8.202   2.697   3.314 -0.6423  0.1808  0.3832
  624MOL0     H84226   8.401   2.131   3.409 -0.8458 -0.6989 -2.5011
  624MOL0     H84227   8.235   1.968   3.360  0.9208 -2.9567  3.6134
  624MOL0     H84228   8.007   1.861   3.292 -0.4413 -3.5891  1.7684
  624MOL0     H84229   7.951   2.027   3.238  0.4144 -0.5233 -0.2356
  624MOL0     H84230   7.771   1.818   3.370 -0.2356  2.7146  2.8725
  624MOL0     H84231   7.763   1.865   3.208 -2.0450 -2.9434  2.7223
  624MOL0     H84232   7.730   2.119   3.314 -1.6275  0.7253 -0.3126
  624MOL0     H84233   7.676   2.023   3.453  2.2539  0.5813 -1.0606
  624MOL0     H84234   7.511   1.898   3.314 -2.5257 -1.0337 -5.1144
  624MOL0     H84235   7.480   2.066   3.309  0.3879  1.2196 -0.3065
  624MOL0     H84236   7.531   1.980   2.911 -1.1488  0.2056 -0.5398
  624MOL0     H84237   7.956   2.223   3.590 -0.3226  0.2850  0.9390
  624MOL0     H84238   8.035   2.418   3.689 -0.8136  2.8057 -0.3640
  624MOL0     H84239   8.213   2.452   3.723 -0.8931 -0.4138  0.6455
  624MOL0     H84240   8.126   2.517   3.586  0.8650  1.7367  2.2484
  625MOL0     O84241  10.337   5.820   4.189  0.8066  0.0635  0.1019
  625MOL0     C84242  10.446   5.869   4.176 -0.7125  0.3967  0.3712
  625MOL0     O84243  10.518   5.924   4.279 -0.8093  0.8698 -0.0328
  625MOL0     C84244  10.444   5.973   4.387 -0.1224 -0.1734  0.0092
  625MOL0     C84245  10.333   6.061   4.375  0.6241  0.3029  0.2374
  625MOL0     C84246  10.254   6.101   4.486  0.3064  1.7494 -0.8011
  625MOL0     C84247  10.283   6.050   4.606  0.7374  1.0829 -0.4686
  625MOL0     O84248  10.212   6.087   4.708  0.0473 -0.5648 -0.4951
  625MOL0     C84249  10.231   6.216   4.773 -0.5153  0.2517 -0.1393
  625MOL0     C84250  10.376   6.245   4.820 -0.5301  0.8620 -0.3223
  625MOL0     C84251  10.430   6.144   4.935  0.4895  0.1168 -0.7598
  625MOL0     C84252  10.549   6.207   5.024  0.5234  0.3374 -0.0409
  625MOL0     C84253  10.627   6.092   5.092  0.2310 -0.0707  0.2490
  625MOL0     C84254  10.547   6.009   5.193 -0.1199 -0.4204  0.2350
  625MOL0     C84255  10.618   5.875   5.210 -0.1051 -0.5319 -0.8461
  625MOL0     C84256  10.555   5.775   5.303  0.1428  0.8555 -0.3024
  625MOL0     N84257  10.426   5.740   5.251  0.7192 -0.4988  0.1190
  625MOL0     C84258  10.308   5.789   5.311  0.2909  0.5093 -0.4619
  625MOL0     C84259  10.211   5.744   5.235  0.5602 -0.2532  1.2127
  625MOL0     C84260  10.058   5.780   5.235  1.0130 -0.4882 -0.4361
  625MOL0     C84261  10.021   5.925   5.195  0.5666 -0.5334 -0.0621
  625MOL0     C84262  10.073   5.978   5.067 -0.0655 -0.3156  1.5369
  625MOL0     C84263  10.032   5.891   4.937 -0.6472 -0.5208 -0.4403
  625MOL0     O84264   9.887   5.889   4.940 -0.1555 -0.0134  0.1321
  625MOL0     C84265   9.822   5.796   4.864  0.3775  0.7237 -0.2573
  625MOL0     C84266   9.796   5.820   4.736  0.2721 -0.1754  0.5681
  625MOL0     C84267   9.723   5.736   4.656 -0.0431 -0.0434  0.1273
  625MOL0     C84268   9.676   5.610   4.712 -0.5870  0.0203  0.2980
  625MOL0     C84269   9.594   5.518   4.637  0.5696  0.9396  0.4834
  625MOL0     O84270   9.577   5.544   4.501 -0.8878  0.3677 -0.5124
  625MOL0     C84271   9.489   5.471   4.440 -0.7265  0.3756  0.0994
  625MOL0     C84272   9.370   5.528   4.400 -0.0843  0.6729 -0.5613
  625MOL0     C84273   9.285   5.476   4.307 -0.3344  0.4606  0.2847
  625MOL0     C84274   9.311   5.344   4.269 -0.6040 -0.3371 -1.4017
  625MOL0     O84275   9.226   5.292   4.179 -0.6727  0.4968  0.2028
  625MOL0     C84276   9.138   5.191   4.231 -0.2960 -0.8520 -0.3437
  625MOL0     C84277   9.044   5.124   4.135  0.0011 -0.5824  1.1950
  625MOL0     C84278   9.118   5.048   4.018  0.5086 -0.1172  0.2032
  625MOL0     C84279   9.044   5.072   3.880  0.2998 -0.3130  0.1800
  625MOL0     C84280   9.096   4.962   3.783 -0.3563 -0.2926 -0.2387
  625MOL0     C84281   9.014   4.945   3.657  0.2818  0.1734 -0.3148
  625MOL0     C84282   9.092   4.871   3.551  0.4608 -0.2226 -0.2947
  625MOL0     C84283   9.005   4.778   3.472 -0.0149 -0.5131 -0.5265
  625MOL0    Cl84284   8.851   4.860   3.410 -0.4334 -0.2586 -0.4401
  625MOL0     C84285   9.428   5.276   4.317 -0.1343 -0.2824 -0.1363
  625MOL0     C84286   9.520   5.341   4.403  0.2897  0.5426  0.8264
  625MOL0     O84287   9.526   5.429   4.701  0.0293 -0.2683 -0.2174
  625MOL0     C84288   9.692   5.595   4.854 -0.2192  0.4449  0.6174
  625MOL0     C84289   9.777   5.682   4.924 -0.3852 -0.0729 -0.0952
  625MOL0     N84290  10.270   5.669   5.132  0.2034 -0.2373 -0.0216
  625MOL0     N84291  10.400   5.667   5.144  0.0780 -0.3298 -0.9742
  625MOL0     C84292  10.385   5.952   4.623  0.7543  0.0389 -0.3496
  625MOL0     C84293  10.457   5.917   4.509  1.0486  0.1564 -0.9293
  625MOL0     C84294  10.519   5.863   4.043 -0.2609  0.2615  0.3780
  625MOL0     C84295  10.506   5.741   3.972 -0.2540  0.3131  1.0418
  625MOL0     C84296  10.568   5.713   3.848  0.0015 -0.5784  0.2600
  625MOL0     C84297  10.642   5.819   3.792 -0.4774 -0.2368  0.9197
  625MOL0     O84298  10.729   5.809   3.677  0.1191 -0.0597 -0.1794
  625MOL0     C84299  10.747   5.679   3.624 -0.3460  0.0875 -0.7249
  625MOL0     C84300  10.838   5.701   3.497 -0.3172 -0.3209 -0.1837
  625MOL0     C84301  10.866   5.578   3.407  0.3653 -0.4487 -0.6951
  625MOL0     C84302  10.829   5.609   3.269  1.5035 -0.2751 -0.3040
  625MOL0     C84303  10.802   5.478   3.195  0.2473 -0.4194 -1.1035
  625MOL0     C84304  10.792   5.374   3.153 -0.8216 -0.0527 -0.8422
  625MOL0     C84305  10.652   5.943   3.851  0.6458  0.0004  0.1441
  625MOL0     C84306  10.595   5.967   3.974  0.4772  0.1431 -0.1103
  625MOL0     C84307  10.616   6.110   4.019 -0.1401 -0.5407  0.1220
  625MOL0     H84308  10.318   6.119   4.285  1.2692 -0.2464 -0.2369
  625MOL0     H84309  10.176   6.176   4.475 -3.3014 -1.5556  0.1722
  625MOL0     H84310  10.208   6.297   4.702  2.3824  1.1415 -0.2037
  625MOL0     H84311  10.165   6.220   4.859  1.0578 -0.0852  1.1292
  625MOL0     H84312  10.370   6.347   4.860 -0.1763  0.1223  1.7545
  625MOL0     H84313  10.439   6.245   4.731  1.0977  3.6625  0.6786
  625MOL0     H84314  10.460   6.055   4.880  3.0532  2.0148 -2.6519
  625MOL0     H84315  10.349   6.119   5.004  1.5619  0.4334  0.6590
  625MOL0     H84316  10.621   6.260   4.961  0.6370 -0.3177 -0.4636
  625MOL0     H84317  10.503   6.272   5.100  1.4884 -1.0076  1.7797
  625MOL0     H84318  10.661   6.034   5.005 -0.3418  2.0782 -1.4817
  625MOL0     H84319  10.717   6.131   5.140  1.7314  1.9204 -3.7273
  625MOL0     H84320  10.529   6.041   5.296 -0.8336 -2.7515  0.9098
  625MOL0     H84321  10.447   5.999   5.149 -0.2302  1.7332 -0.1109
  625MOL0     H84322  10.716   5.906   5.245 -0.6704  2.2701 -1.5414
  625MOL0     H84323  10.640   5.814   5.122  3.2464 -1.3376  0.4165
  625MOL0     H84324  10.617   5.685   5.312 -0.1970  0.4820 -1.4655
  625MOL0     H84325  10.531   5.814   5.402  1.1166  0.4070  0.1203
  625MOL0     H84326  10.305   5.842   5.405 -0.6408  0.5869 -0.5278
  625MOL0     H84327  10.004   5.705   5.177 -1.0946 -1.2243  2.2350
  625MOL0     H84328  10.017   5.776   5.337  0.0772  1.6186 -0.6819
  625MOL0     H84329   9.913   5.920   5.180  0.2894  4.1586 -1.1456
  625MOL0     H84330  10.058   5.986   5.278  2.1992 -2.8735  1.0627
  625MOL0     H84331  10.180   5.984   5.085  0.6411 -2.2194 -1.3181
  625MOL0     H84332  10.033   6.077   5.042  3.2523  0.9122  0.6213
  625MOL0     H84333  10.073   5.790   4.927 -2.0439 -1.0268 -1.1635
  625MOL0     H84334  10.072   5.938   4.847  0.5818 -1.8550 -0.6268
  625MOL0     H84335   9.827   5.918   4.701 -0.8506  0.0757  0.2159
  625MOL0     H84336   9.692   5.785   4.565  0.2672  5.3113  2.5087
  625MOL0     H84337   9.352   5.630   4.431  0.2173  0.5837 -0.0812
  625MOL0     H84338   9.195   5.530   4.280 -0.6490 -1.5990 -3.4486
  625MOL0     H84339   9.197   5.118   4.287 -2.9342 -2.9424 -0.1315
  625MOL0     H84340   9.071   5.234   4.306 -1.3022 -3.1931  0.1862
  625MOL0     H84341   8.987   5.048   4.188  0.8238 -1.3318  1.0200
  625MOL0     H84342   8.978   5.203   4.096 -1.0265 -2.0652 -0.1906
  625MOL0     H84343   9.223   5.078   4.012  0.2919  1.0223  1.6395
  625MOL0     H84344   9.132   4.942   4.041  1.3544 -0.3298 -1.1608
  625MOL0     H84345   9.068   5.174   3.848  0.9230  0.2276  2.1847
  625MOL0     H84346   8.936   5.061   3.892  0.4104 -1.9628 -0.0753
  625MOL0     H84347   9.094   4.865   3.832 -0.8789 -0.0731  0.1841
  625MOL0     H84348   9.195   4.994   3.750 -1.1802  0.4284 -2.1881
  625MOL0     H84349   8.921   4.893   3.681 -0.7045  0.8431 -2.4296
  625MOL0     H84350   8.996   5.037   3.601 -2.1997  0.6397  1.1096
  625MOL0     H84351   9.171   4.804   3.588 -1.7666 -1.6173  2.2986
  625MOL0     H84352   9.130   4.950   3.485  2.0348  2.1066  3.0995
  625MOL0     H84353   9.061   4.742   3.385  0.7999 -1.3271  0.3067
  625MOL0     H84354   8.974   4.688   3.526  1.8896 -1.0624 -0.2631
  625MOL0     H84355   9.453   5.173   4.294 -0.2139 -0.7870  1.8732
  625MOL0     H84356   9.597   5.287   4.458 -3.7076  0.3665  7.2374
  625MOL0     H84357   9.666   5.497   4.893 -0.2162 -0.6710 -1.9867
  625MOL0     H84358   9.811   5.663   5.026 -1.1766 -0.6579  0.0714
  625MOL0     H84359  10.408   5.908   4.719  1.2194  2.1773  0.5520
  625MOL0     H84360  10.512   5.823   4.505 -2.1040 -1.7671 -3.1327
  625MOL0     H84361  10.458   5.661   4.027 -0.0106  0.6780  1.8041
  625MOL0     H84362  10.566   5.610   3.814  0.7364 -0.8732  1.0521
  625MOL0     H84363  10.656   5.626   3.593 -0.7997  1.8222 -2.6279
  625MOL0     H84364  10.798   5.621   3.702 -2.1558 -0.4259  0.1169
  625MOL0     H84365  10.936   5.732   3.534  0.5633 -1.7999 -1.2216
  625MOL0     H84366  10.807   5.793   3.446 -1.6705 -0.3955  0.4431
  625MOL0     H84367  10.806   5.492   3.439 -2.3608 -0.2137 -4.5905
  625MOL0     H84368  10.969   5.545   3.420  0.8167  1.6969  2.3207
  625MOL0     H84369  10.736   5.665   3.269  2.4232  1.3116 -0.7785
  625MOL0     H84370  10.909   5.668   3.224  1.9864 -2.1530 -2.0723
  625MOL0     H84371  10.807   5.274   3.118 -0.8741 -1.3295  2.4332
  625MOL0     H84372  10.699   6.023   3.796  1.5649 -1.8212 -1.8649
  625MOL0     H84373  10.706   6.158   3.978  1.2294 -1.4118  1.9412
  625MOL0     H84374  10.528   6.164   3.985  1.3973  0.8424 -1.8460
  625MOL0     H84375  10.632   6.116   4.127  2.8433 -1.0069 -0.1954
  626MOL0     O84376   0.698   4.833   9.476  0.1315  0.0542  0.3379
  626MOL0     C84377   0.761   4.771   9.562  0.9204  0.6835 -0.7553
  626MOL0     O84378   0.885   4.807   9.616 -0.0307 -0.0452  0.1490
  626MOL0     C84379   0.941   4.928   9.589 -0.1997  0.6641  1.4224
  626MOL0     C84380   0.942   5.022   9.693 -1.2083  0.0511 -0.0594
  626MOL0     C84381   1.000   5.145   9.675  0.0669  0.4263  0.1905
  626MOL0     C84382   1.042   5.177   9.548 -0.3713 -0.0285 -0.3188
  626MOL0     O84383   1.087   5.302   9.516  0.1589  0.4649  0.3673
  626MOL0     C84384   1.224   5.310   9.466 -0.1522  0.3237  0.6451
  626MOL0     C84385   1.303   5.426   9.529 -0.2318 -0.8789 -1.0669
  626MOL0     C84386   1.446   5.372   9.556 -0.1862 -0.3043  0.0481
  626MOL0     C84387   1.554   5.473   9.562 -0.3762 -1.3755  0.2630
  626MOL0     C84388   1.678   5.407   9.615 -0.5666  0.5436 -0.5377
  626MOL0     C84389   1.795   5.505   9.616  0.4408  0.2552  0.0765
  626MOL0     C84390   1.815   5.567   9.475  0.0450  0.3486  0.1066
  626MOL0     C84391   1.950   5.642   9.450 -0.8378  0.0224  0.0702
  626MOL0     N84392   1.974   5.750   9.541  0.5311  0.0171  0.0992
  626MOL0     C84393   1.942   5.879   9.508  1.1204  0.0726 -1.1002
  626MOL0     C84394   1.975   5.948   9.611  0.1924 -0.1027 -0.3464
  626MOL0     C84395   1.982   6.098   9.641 -0.9018 -1.1433 -0.1566
  626MOL0     C84396   1.847   6.117   9.726  1.1019 -0.2872  0.0531
  626MOL0     C84397   1.781   6.250   9.722 -0.8766  0.0514  1.0216
  626MOL0     C84398   1.875   6.369   9.738  0.0004  0.0639  0.5101
  626MOL0     O84399   1.788   6.485   9.726 -0.2271  0.7054 -0.5451
  626MOL0     C84400   1.823   6.590   9.814 -0.6783 -0.4178 -0.6433
  626MOL0     C84401   1.724   6.684   9.840 -0.2271  0.9551  0.5048
  626MOL0     C84402   1.759   6.799   9.906  0.0356 -0.1330 -0.1090
  626MOL0     C84403   1.890   6.826   9.953  0.2089 -0.0617 -0.1697
  626MOL0     C84404   1.911   6.949  10.036 -1.1483 -0.9019  0.1059
  626MOL0     O84405   2.043   6.982  10.088  0.3708  0.1607  0.0557
  626MOL0     C84406   2.062   7.090  10.166  0.2008 -0.5531  0.3177
  626MOL0     C84407   2.044   7.080  10.305 -0.1206  0.4949 -1.0103
  626MOL0     C84408   2.069   7.202  10.379  0.3475 -0.3364  0.6397
  626MOL0     C84409   2.135   7.321  10.317  1.0845  0.2879 -0.3101
  626MOL0     O84410   2.155   7.437  10.382  0.2163  0.0129 -0.5611
  626MOL0     C84411   2.108   7.421  10.518 -0.0948 -0.5409 -0.2861
  626MOL0     C84412   2.124   7.551  10.599  0.1091  0.0009  0.0965
  626MOL0     C84413   2.273   7.563  10.621  0.1299  0.0005 -0.2355
  626MOL0     C84414   2.300   7.706  10.672  0.3491 -0.1812  0.3281
  626MOL0     C84415   2.450   7.713  10.725 -0.0763  0.0036  0.1561
  626MOL0     C84416   2.482   7.834  10.800 -0.2323 -1.3768 -0.1060
  626MOL0     C84417   2.397   7.845  10.928  0.0376 -0.2911  0.6014
  626MOL0     C84418   2.441   7.958  11.012  0.3418 -0.4882  0.3477
  626MOL0    Cl84419   2.409   8.114  10.944  0.1657 -0.1608 -0.1448
  626MOL0     C84420   2.153   7.305  10.184  0.2139 -0.9253  0.1523
  626MOL0     C84421   2.113   7.204  10.108  0.5003  1.1114  0.1897
  626MOL0     O84422   1.811   7.020  10.053  0.1600  0.3717 -0.5693
  626MOL0     C84423   1.985   6.729   9.927  0.8066  0.3393 -1.1512
  626MOL0     C84424   1.954   6.614   9.862  0.2776  0.6639  0.3498
  626MOL0     N84425   2.023   5.863   9.701 -0.0878 -0.1367 -0.0533
  626MOL0     N84426   2.012   5.739   9.671  0.1771 -0.2100 -0.0318
  626MOL0     C84427   1.038   5.093   9.437  0.6420 -0.0145 -0.1219
  626MOL0     C84428   0.994   4.965   9.460 -0.8321 -0.1242 -0.3017
  626MOL0     C84429   0.710   4.638   9.590 -0.8853  0.1188  0.9370
  626MOL0     C84430   0.798   4.555   9.662 -0.0129  0.0118 -0.6069
  626MOL0     C84431   0.763   4.430   9.703  0.4356 -1.2521  0.2638
  626MOL0     C84432   0.640   4.380   9.683 -0.4232 -0.0376  0.9603
  626MOL0     O84433   0.607   4.262   9.743 -0.4953 -0.3453 -0.6012
  626MOL0     C84434   0.469   4.225   9.762 -0.6252  0.3147  0.5792
  626MOL0     C84435   0.450   4.154   9.895 -0.8230 -0.1409  0.3521
  626MOL0     C84436   0.538   4.200  10.022  0.4952 -0.2676 -0.1390
  626MOL0     C84437   0.509   4.341  10.082  0.0824  0.0828  0.2656
  626MOL0     C84438   0.364   4.344  10.114 -0.1824 -0.5962 -0.4189
  626MOL0     C84439   0.248   4.342  10.129  0.5747 -0.3076 -0.1390
  626MOL0     C84440   0.539   4.469   9.616 -0.4120  0.5303  0.1370
  626MOL0     C84441   0.576   4.594   9.563 -0.3671 -0.8767 -1.0372
  626MOL0     C84442   0.467   4.675   9.498  0.9332  0.7129  0.5250
  626MOL0     H84443   0.891   5.004   9.787  0.0610 -5.8513 -0.1472
  626MOL0     H84444   1.003   5.225   9.750 -1.6446  2.1333 -1.4386
  626MOL0     H84445   1.268   5.217   9.502 -1.9341 -0.9783 -0.4037
  626MOL0     H84446   1.237   5.311   9.358  2.2630  0.6748  0.8686
  626MOL0     H84447   1.257   5.457   9.624  0.2477  2.7118 -1.8333
  626MOL0     H84448   1.308   5.519   9.471  0.5746 -0.4596 -0.3552
  626MOL0     H84449   1.471   5.299   9.479  3.7811  0.6040  0.2521
  626MOL0     H84450   1.433   5.310   9.645  1.2100 -1.7885 -0.7380
  626MOL0     H84451   1.553   5.519   9.463  0.4803  1.9192  1.6429
  626MOL0     H84452   1.532   5.553   9.633 -1.0883 -0.0309 -1.4041
  626MOL0     H84453   1.657   5.369   9.715 -0.3655 -0.2039 -0.7764
  626MOL0     H84454   1.694   5.332   9.537  0.9462  0.2242  0.0448
  626MOL0     H84455   1.768   5.589   9.681  0.9312  2.5303 -2.5219
  626MOL0     H84456   1.893   5.468   9.648  0.9582  0.3376 -1.3844
  626MOL0     H84457   1.756   5.659   9.463  0.4232  0.6649  0.6259
  626MOL0     H84458   1.802   5.489   9.401 -1.8666 -2.1627  2.8640
  626MOL0     H84459   2.035   5.574   9.467  0.3330  1.3275 -0.3805
  626MOL0     H84460   1.950   5.681   9.348  2.5761 -1.6283 -0.7222
  626MOL0     H84461   1.872   5.903   9.429  0.0769 -0.1247 -0.2445
  626MOL0     H84462   2.060   6.138   9.707 -2.9438 -2.3924  3.3004
  626MOL0     H84463   1.989   6.151   9.546  2.5149 -1.3555 -0.1682
  626MOL0     H84464   1.767   6.054   9.685  1.5988  0.5507 -2.3097
  626MOL0     H84465   1.877   6.097   9.830  1.9208 -1.3934 -0.3742
  626MOL0     H84466   1.710   6.255   9.805  0.2300  2.3751  1.8922
  626MOL0     H84467   1.722   6.279   9.635 -2.1177 -0.5457  1.6336
  626MOL0     H84468   1.956   6.372   9.665  0.1062 -2.8425  0.3842
  626MOL0     H84469   1.911   6.357   9.840 -0.0577  3.4698  1.0618
  626MOL0     H84470   1.621   6.685   9.807 -0.0879  1.6577  0.0789
  626MOL0     H84471   1.682   6.867   9.939 -0.6612 -1.2610  0.6968
  626MOL0     H84472   2.025   6.980  10.342  2.8849  0.4232  0.6158
  626MOL0     H84473   2.044   7.182  10.482 -2.7571 -1.1158 -0.1503
  626MOL0     H84474   2.001   7.400  10.519 -0.2471  0.1783 -0.4985
  626MOL0     H84475   2.158   7.337  10.567  0.8952  0.9193  1.3170
  626MOL0     H84476   2.080   7.632  10.540 -1.8929 -0.1346  1.3244
  626MOL0     H84477   2.084   7.549  10.700  2.7862 -1.7192  1.2187
  626MOL0     H84478   2.294   7.493  10.702 -0.5403 -1.5621 -1.3779
  626MOL0     H84479   2.333   7.531  10.535  1.9275 -0.0591  0.9842
  626MOL0     H84480   2.231   7.712  10.757 -0.3248 -0.2946 -0.2048
  626MOL0     H84481   2.289   7.783  10.595 -0.4950  0.5169  1.1224
  626MOL0     H84482   2.527   7.718  10.648  0.8082  2.3586  1.1184
  626MOL0     H84483   2.460   7.628  10.794 -1.1211 -0.8807 -0.7431
  626MOL0     H84484   2.589   7.828  10.820 -0.4115 -1.0841  0.9763
  626MOL0     H84485   2.477   7.926  10.741  2.4200 -0.3829  1.0690
  626MOL0     H84486   2.411   7.748  10.977  0.8773  0.3589  1.6840
  626MOL0     H84487   2.291   7.850  10.900 -1.1163 -3.5815  3.6088
  626MOL0     H84488   2.377   7.952  11.101 -0.1638  1.6784  0.1636
  626MOL0     H84489   2.546   7.956  11.043  0.0169  2.0889  1.8837
  626MOL0     H84490   2.206   7.383  10.131  0.3334 -0.8670  0.3567
  626MOL0     H84491   2.142   7.218  10.004 -1.7468 -0.9474 -0.8283
  626MOL0     H84492   2.081   6.738   9.975  0.7676 -0.3288 -0.9399
  626MOL0     H84493   2.036   6.545   9.876 -0.0807  0.5718  2.2646
  626MOL0     H84494   1.074   5.118   9.338 -0.3996 -3.2964 -1.4460
  626MOL0     H84495   0.983   4.889   9.383  0.4256 -1.9889  1.2518
  626MOL0     H84496   0.895   4.588   9.697 -0.6017 -1.4854  2.7669
  626MOL0     H84497   0.841   4.369   9.749  1.8784 -0.7179 -1.3520
  626MOL0     H84498   0.441   4.156   9.682  1.9309  0.0133 -0.1442
  626MOL0     H84499   0.402   4.311   9.753  0.5577  1.2547  0.3939
  626MOL0     H84500   0.476   4.048   9.886 -0.5222 -0.5812  4.4655
  626MOL0     H84501   0.346   4.152   9.930 -1.9602  2.2496 -2.4819
  626MOL0     H84502   0.641   4.204   9.986  0.3642 -3.0125 -1.0524
  626MOL0     H84503   0.535   4.122  10.098  0.4333  0.2869  0.4374
  626MOL0     H84504   0.568   4.372  10.169  2.4895  0.7015 -1.4800
  626MOL0     H84505   0.540   4.416  10.009  0.2315  2.6133  2.7728
  626MOL0     H84506   0.145   4.370  10.136  0.1173 -2.2384  2.6993
  626MOL0     H84507   0.432   4.452   9.609  0.0217 -2.5420 -0.3841
  626MOL0     H84508   0.461   4.770   9.552 -1.0786  0.9414 -0.0136
  626MOL0     H84509   0.486   4.703   9.393 -1.8312 -0.3698 -0.3495
  626MOL0     H84510   0.370   4.626   9.489  1.0869  0.7305 -1.8416
  627MOL0     O84511   7.376   6.821   8.321  0.2952 -0.0955  0.5683
  627MOL0     C84512   7.299   6.849   8.235  0.0325  0.8204 -1.1402
  627MOL0     O84513   7.327   6.842   8.105  0.3692  0.6377 -0.0814
  627MOL0     C84514   7.444   6.789   8.058 -0.3107 -0.4944  0.9919
  627MOL0     C84515   7.507   6.860   7.950 -0.1152 -0.8908 -0.3440
  627MOL0     C84516   7.628   6.821   7.901  0.0546  0.2014 -0.0954
  627MOL0     C84517   7.692   6.704   7.951  1.2189  1.1014  0.0890
  627MOL0     O84518   7.811   6.663   7.891 -0.4898  0.0118 -0.0701
  627MOL0     C84519   7.884   6.556   7.950 -0.2815  0.4218 -0.0393
  627MOL0     C84520   8.014   6.514   7.876  0.1746 -0.0207  0.4887
  627MOL0     C84521   7.970   6.463   7.737 -0.9799  0.0928 -0.1507
  627MOL0     C84522   8.079   6.406   7.649 -0.9233  0.4671 -0.4928
  627MOL0     C84523   8.016   6.405   7.510  0.0322  0.1080 -0.4966
  627MOL0     C84524   8.112   6.387   7.391  0.5812  0.5111  0.4852
  627MOL0     C84525   8.041   6.435   7.260  0.3415 -0.6892 -0.8340
  627MOL0     C84526   8.047   6.584   7.223 -0.2963  0.2824 -0.0157
  627MOL0     N84527   7.993   6.632   7.098 -0.7789 -0.0807 -1.2479
  627MOL0     C84528   8.033   6.606   6.968  0.6429 -0.5755 -0.0904
  627MOL0     C84529   7.941   6.650   6.880  0.6499  0.1887  0.3678
  627MOL0     C84530   7.932   6.619   6.736 -0.9018  0.0627  0.1708
  627MOL0     C84531   7.857   6.485   6.708 -0.5186 -0.0745  0.5372
  627MOL0     C84532   7.812   6.481   6.556 -1.0644  0.5599 -0.7888
  627MOL0     C84533   7.718   6.365   6.543  0.7120  0.7425  0.3547
  627MOL0     O84534   7.796   6.244   6.532  0.5994 -0.4958 -0.6952
  627MOL0     C84535   7.742   6.143   6.466 -0.3623 -0.5388  0.4848
  627MOL0     C84536   7.833   6.052   6.405  0.2028 -0.0114 -0.5329
  627MOL0     C84537   7.791   5.943   6.324 -0.6258 -0.4133 -0.8503
  627MOL0     C84538   7.655   5.920   6.301 -0.2050 -0.3949 -0.6753
  627MOL0     C84539   7.602   5.812   6.223 -0.5527  0.2192  0.0789
  627MOL0     O84540   7.483   5.827   6.157  0.0570  0.1704  0.7107
  627MOL0     C84541   7.452   5.721   6.081  0.6556  1.0503  0.4351
  627MOL0     C84542   7.487   5.722   5.941  0.5031 -0.2798 -0.3922
  627MOL0     C84543   7.457   5.621   5.863 -0.7256  0.6408 -0.7097
  627MOL0     C84544   7.396   5.505   5.918 -0.0278  0.2347  0.0702
  627MOL0     O84545   7.371   5.389   5.845 -0.4588  0.1434  0.1997
  627MOL0     C84546   7.341   5.410   5.707 -0.7423  0.1998  0.4937
  627MOL0     C84547   7.456   5.352   5.622 -0.1317 -0.8042  0.2988
  627MOL0     C84548   7.431   5.345   5.466  0.2633  0.6860 -1.1453
  627MOL0     C84549   7.352   5.221   5.432 -0.1694 -0.2069  0.4938
  627MOL0     C84550   7.294   5.238   5.296  0.0923  0.5654  0.0073
  627MOL0     C84551   7.171   5.148   5.262 -0.1291 -0.3552  0.8782
  627MOL0     C84552   7.108   5.173   5.121 -0.1285 -0.0742 -0.5933
  627MOL0     C84553   7.063   5.328   5.105  0.3922  0.2132  0.1394
  627MOL0    Cl84554   6.971   5.395   5.239  0.2705 -0.6699 -0.3068
  627MOL0     C84555   7.380   5.491   6.059  0.1807 -1.0511 -0.1385
  627MOL0     C84556   7.404   5.607   6.140 -0.2865 -0.1662  0.3235
  627MOL0     O84557   7.678   5.706   6.230  0.1662  0.0910 -0.2792
  627MOL0     C84558   7.568   6.014   6.363  0.2844  0.2234  0.2997
  627MOL0     C84559   7.607   6.123   6.442 -0.6119  0.2234  0.0122
  627MOL0     N84560   7.843   6.710   6.959 -0.4522  0.7225  0.2272
  627MOL0     N84561   7.885   6.709   7.086  0.9141  1.1208 -0.7864
  627MOL0     C84562   7.632   6.634   8.054  0.5139 -0.2504 -0.2809
  627MOL0     C84563   7.507   6.672   8.109 -0.0436 -0.6260  0.9691
  627MOL0     C84564   7.159   6.877   8.281  0.9057 -0.1018 -0.0741
  627MOL0     C84565   7.055   6.855   8.198 -0.0277 -0.0233  0.6560
  627MOL0     C84566   6.915   6.887   8.227  1.3418  0.0970 -0.9413
  627MOL0     C84567   6.887   6.941   8.351  0.7784 -0.5401  0.6446
  627MOL0     O84568   6.756   6.953   8.386 -0.2151  0.0362  0.2607
  627MOL0     C84569   6.680   6.876   8.487  0.3554 -0.7423 -0.2766
  627MOL0     C84570   6.581   6.779   8.429 -0.8778  0.3683  1.1991
  627MOL0     C84571   6.649   6.669   8.347  0.5583 -0.0823  0.0343
  627MOL0     C84572   6.555   6.548   8.322  0.6905  0.6323  0.4229
  627MOL0     C84573   6.442   6.571   8.232 -0.3657  0.7565 -0.1269
  627MOL0     C84574   6.335   6.573   8.177 -0.1190 -0.2450 -0.3567
  627MOL0     C84575   6.991   6.953   8.442  0.0254  0.8233 -1.1124
  627MOL0     C84576   7.123   6.936   8.404 -0.0167 -0.0023 -0.8932
  627MOL0     C84577   7.220   6.963   8.515 -0.0957  0.7562  0.6856
  627MOL0     H84578   7.460   6.948   7.908  0.1416 -1.9029 -2.9425
  627MOL0     H84579   7.687   6.874   7.827 -0.6909 -0.1454 -0.9502
  627MOL0     H84580   7.909   6.584   8.053  1.7020 -0.4672 -0.2138
  627MOL0     H84581   7.824   6.465   7.961  2.0112 -1.1491  0.3187
  627MOL0     H84582   8.056   6.439   7.943  2.1445  0.8920  0.3391
  627MOL0     H84583   8.084   6.597   7.872 -1.5166  1.5098  1.1628
  627MOL0     H84584   7.926   6.548   7.685  2.2518 -0.4475 -4.2974
  627MOL0     H84585   7.892   6.387   7.745 -0.1161 -1.0289 -1.7907
  627MOL0     H84586   8.164   6.475   7.648  1.1460 -1.9562 -0.6322
  627MOL0     H84587   8.119   6.310   7.683  0.7509  0.6554 -1.7756
  627MOL0     H84588   7.946   6.320   7.514  0.1193  0.0992  1.6714
  627MOL0     H84589   7.953   6.494   7.499 -0.5194 -0.2540 -0.3150
  627MOL0     H84590   8.202   6.444   7.415 -0.3348  1.9770  0.5992
  627MOL0     H84591   8.145   6.285   7.368  0.4935  0.9459 -1.8063
  627MOL0     H84592   7.936   6.408   7.269 -0.9269  3.3147 -1.6309
  627MOL0     H84593   8.081   6.385   7.171  0.3206  0.4998 -1.5382
  627MOL0     H84594   8.009   6.640   7.309  0.1585  0.1991  0.2431
  627MOL0     H84595   8.150   6.620   7.219 -0.2204  0.0692 -0.0018
  627MOL0     H84596   8.103   6.529   6.936 -2.0070 -2.9156 -0.6306
  627MOL0     H84597   7.884   6.700   6.680  0.3380 -0.3874 -1.6348
  627MOL0     H84598   8.032   6.609   6.692  0.1666  2.6233  1.7308
  627MOL0     H84599   7.901   6.390   6.739  0.3483  0.6871  1.7319
  627MOL0     H84600   7.764   6.487   6.766 -0.1371  2.8279  1.2091
  627MOL0     H84601   7.889   6.465   6.479 -3.4901 -2.5247 -2.8375
  627MOL0     H84602   7.770   6.581   6.545 -0.9946  0.7195  0.3743
  627MOL0     H84603   7.661   6.386   6.452 -2.8956 -3.6926  1.2156
  627MOL0     H84604   7.651   6.355   6.629  1.1553  2.8171  1.0031
  627MOL0     H84605   7.939   6.077   6.409 -0.1558  1.4553  2.5664
  627MOL0     H84606   7.856   5.869   6.279 -0.0605 -0.9001  0.7042
  627MOL0     H84607   7.518   5.818   5.900  0.4283 -0.2046 -0.2740
  627MOL0     H84608   7.498   5.626   5.763 -1.0420 -2.4054 -1.0988
  627MOL0     H84609   7.245   5.360   5.700 -1.2203  1.3417 -1.8899
  627MOL0     H84610   7.335   5.513   5.671  2.0648 -0.3074 -1.8438
  627MOL0     H84611   7.546   5.413   5.637  0.4862 -2.0397  1.8726
  627MOL0     H84612   7.494   5.257   5.659 -0.3778 -1.5407 -1.2423
  627MOL0     H84613   7.374   5.436   5.442  3.5330  2.7928 -1.5038
  627MOL0     H84614   7.518   5.347   5.400  0.5902 -0.7359 -0.7916
  627MOL0     H84615   7.270   5.211   5.504  1.1163 -2.8879  1.7126
  627MOL0     H84616   7.409   5.128   5.433  0.1697 -0.0136  2.1483
  627MOL0     H84617   7.368   5.228   5.215 -1.8231 -1.9534 -1.6032
  627MOL0     H84618   7.261   5.342   5.294  0.2212  0.6017 -0.4582
  627MOL0     H84619   7.213   5.047   5.258  2.3937  0.5267  2.9185
  627MOL0     H84620   7.097   5.152   5.343  1.1069  2.5041  1.9698
  627MOL0     H84621   7.021   5.106   5.122 -0.4438 -0.2001  5.6483
  627MOL0     H84622   7.171   5.139   5.039 -0.1123  1.1593 -1.1013
  627MOL0     H84623   7.151   5.391   5.095 -1.1151  2.4234  0.0560
  627MOL0     H84624   7.001   5.326   5.015 -0.4731 -0.1724  0.7223
  627MOL0     H84625   7.337   5.403   6.107 -2.1582 -0.1291 -0.4245
  627MOL0     H84626   7.391   5.595   6.247  3.2779 -3.2574  0.6356
  627MOL0     H84627   7.463   6.016   6.336  0.0866 -4.0838  0.0342
  627MOL0     H84628   7.529   6.182   6.489  0.5495  1.6713  0.1920
  627MOL0     H84629   7.671   6.546   8.104 -1.3319 -1.4793 -0.8967
  627MOL0     H84630   7.464   6.626   8.197  1.4885  1.5760  3.0169
  627MOL0     H84631   7.067   6.817   8.097 -0.1737 -3.0768  1.6715
  627MOL0     H84632   6.835   6.891   8.153 -0.0999  3.2340  0.5952
  627MOL0     H84633   6.631   6.941   8.560 -0.3305 -0.9816 -0.5218
  627MOL0     H84634   6.740   6.808   8.548  0.5631  0.7405  1.2546
  627MOL0     H84635   6.513   6.829   8.360 -1.2877 -0.7926  0.7386
  627MOL0     H84636   6.519   6.733   8.506  0.7578 -1.4147  1.5466
  627MOL0     H84637   6.743   6.632   8.390  0.1961 -0.5771  0.4143
  627MOL0     H84638   6.661   6.705   8.244 -1.4884  0.1538 -0.1634
  627MOL0     H84639   6.618   6.464   8.291 -2.1823 -1.3129 -0.5565
  627MOL0     H84640   6.508   6.520   8.416  1.1010  0.4359  0.5696
  627MOL0     H84641   6.245   6.589   8.123  1.2759  3.1385 -1.9845
  627MOL0     H84642   6.977   6.990   8.543  3.3927  2.8824 -1.2480
  627MOL0     H84643   7.317   6.995   8.475 -0.0103  0.9247  1.0218
  627MOL0     H84644   7.193   7.046   8.581  1.3989  0.5099  1.6632
  627MOL0     H84645   7.223   6.866   8.566 -2.2353 -0.5888 -1.5229
  628MOL0     O84646   4.673   3.078  10.924  0.4351  0.0087 -0.0372
  628MOL0     C84647   4.784   3.087  10.865  0.3396  0.5023 -0.7046
  628MOL0     O84648   4.905   3.121  10.927  0.2828  0.7739  0.3969
  628MOL0     C84649   4.905   3.115  11.063 -0.2428  1.5039 -0.9785
  628MOL0     C84650   4.896   2.981  11.125  1.9456  0.8845 -0.4595
  628MOL0     C84651   4.889   2.970  11.267 -0.2041  0.6796 -0.1797
  628MOL0     C84652   4.902   3.082  11.350 -0.2251 -0.7504  0.5465
  628MOL0     O84653   4.908   3.079  11.491  0.5315 -0.1341  0.1009
  628MOL0     C84654   4.944   2.956  11.555  0.1741  0.4265 -0.3023
  628MOL0     C84655   5.034   2.989  11.672 -0.3197  0.8264  0.3115
  628MOL0     C84656   5.175   3.048  11.639  0.7667 -0.0298  0.5355
  628MOL0     C84657   5.274   2.944  11.598 -0.6951  0.7074  1.0268
  628MOL0     C84658   5.409   2.995  11.576 -0.0803 -0.8122 -0.3121
  628MOL0     C84659   5.522   2.906  11.524 -0.0727 -0.3536 -0.1221
  628MOL0     C84660   5.568   2.803  11.628  0.0926  0.1560 -0.1664
  628MOL0     C84661   5.483   2.678  11.616 -0.4020 -0.8386 -0.5995
  628MOL0     N84662   5.541   2.568  11.699  0.4981  0.1027  0.2333
  628MOL0     C84663   5.624   2.467  11.658 -0.8300  0.5386 -0.9392
  628MOL0     C84664   5.649   2.391  11.766 -0.1974 -0.9479 -0.1439
  628MOL0     C84665   5.737   2.270  11.782 -0.5667  0.0857  0.8063
  628MOL0     C84666   5.762   2.231  11.932  0.6095 -0.7698 -0.4182
  628MOL0     C84667   5.837   2.339  12.008  0.0319 -0.3775  0.3614
  628MOL0     C84668   5.861   2.295  12.153  0.4522  0.1014 -0.1629
  628MOL0     O84669   5.778   2.182  12.198  0.2320  0.3533  1.1169
  628MOL0     C84670   5.824   2.115  12.306 -0.7622  0.3417  0.2134
  628MOL0     C84671   5.807   1.980  12.297 -0.0167  0.4660 -0.4668
  628MOL0     C84672   5.831   1.891  12.402  0.6703  0.1682 -0.1121
  628MOL0     C84673   5.895   1.936  12.519 -0.5994 -1.0669 -1.1076
  628MOL0     C84674   5.917   1.847  12.630  1.1330  1.5701 -0.3069
  628MOL0     O84675   6.006   1.889  12.724 -0.5187  0.0531 -0.3250
  628MOL0     C84676   6.059   1.792  12.807  0.8302  0.0686 -0.2542
  628MOL0     C84677   5.975   1.737  12.906 -0.2915  0.1351  0.0798
  628MOL0     C84678   6.027   1.641  12.988  0.1879  0.0273  0.7046
  628MOL0     C84679   6.157   1.587  12.972  0.1229  1.1711 -0.6871
  628MOL0     O84680   6.213   1.490  13.056  0.0253  1.2269 -0.4625
  628MOL0     C84681   6.157   1.454  13.179 -0.4319 -0.1416 -0.5779
  628MOL0     C84682   6.258   1.389  13.268  0.1485  0.2429  0.0853
  628MOL0     C84683   6.365   1.498  13.305  0.1224  1.4560  0.3294
  628MOL0     C84684   6.461   1.444  13.417 -1.2477 -0.1921  0.3064
  628MOL0     C84685   6.563   1.349  13.369 -0.6256 -0.1690 -0.8457
  628MOL0     C84686   6.653   1.292  13.486  0.1305 -0.0053  0.3055
  628MOL0     C84687   6.753   1.190  13.432 -0.2710 -0.5147  0.6284
  628MOL0     C84688   6.862   1.166  13.532  0.1925 -0.1409  0.3360
  628MOL0    Cl84689   6.952   1.026  13.465 -0.2936  0.3280  0.0812
  628MOL0     C84690   6.223   1.629  12.861 -0.5412 -0.0710 -0.5654
  628MOL0     C84691   6.183   1.732  12.776 -0.3199 -0.0716  0.6618
  628MOL0     O84692   5.852   1.744  12.626 -0.1532 -0.2574  0.4742
  628MOL0     C84693   5.924   2.082  12.525  0.9241 -0.0121  0.2611
  628MOL0     C84694   5.890   2.164  12.417  0.2791  0.3098  0.7802
  628MOL0     N84695   5.577   2.446  11.864 -1.4185 -0.2878 -0.1532
  628MOL0     N84696   5.521   2.558  11.832 -0.7557 -1.6836 -0.0015
  628MOL0     C84697   4.903   3.215  11.280 -1.0766  0.0167 -1.2873
  628MOL0     C84698   4.914   3.232  11.141  0.2553  0.6853  0.0258
  628MOL0     C84699   4.793   3.020  10.728 -0.6418  0.3694 -0.7293
  628MOL0     C84700   4.917   2.988  10.682  0.3368  0.1286  0.7206
  628MOL0     C84701   4.940   2.920  10.563  0.7200 -0.3146 -0.2435
  628MOL0     C84702   4.832   2.883  10.482 -0.2292  1.0480 -0.5492
  628MOL0     O84703   4.834   2.803  10.367  0.4492 -0.2434  0.6857
  628MOL0     C84704   4.967   2.759  10.318  0.9064  0.5326  0.3331
  628MOL0     C84705   4.967   2.681  10.186  0.1037 -1.1243 -0.4452
  628MOL0     C84706   4.915   2.547  10.206  0.1077 -0.5252 -0.4620
  628MOL0     C84707   4.863   2.481  10.087 -0.6667 -0.3920  0.1047
  628MOL0     C84708   4.959   2.468   9.977  0.0249  0.7318 -0.2833
  628MOL0     C84709   5.039   2.481   9.896 -0.5955  0.5330 -0.0669
  628MOL0     C84710   4.715   2.925  10.525  0.3386  0.3238 -0.7309
  628MOL0     C84711   4.685   2.994  10.639 -1.2312  0.5364 -0.0325
  628MOL0     C84712   4.545   3.043  10.668 -0.0554 -0.1243 -0.2510
  628MOL0     H84713   4.895   2.888  11.070 -1.0102  2.3338 -3.1528
  628MOL0     H84714   4.873   2.870  11.307 -2.1888  0.1805 -2.0216
  628MOL0     H84715   4.862   2.899  11.599  0.9597  1.2220  2.4045
  628MOL0     H84716   5.003   2.897  11.483  0.6706 -1.1142  1.2885
  628MOL0     H84717   5.039   2.896  11.729 -2.5508  2.0024  2.6007
  628MOL0     H84718   4.989   3.064  11.738  1.9857  1.1424  1.6542
  628MOL0     H84719   5.209   3.089  11.734 -0.7019  0.3513  0.9186
  628MOL0     H84720   5.165   3.128  11.565  0.5118 -1.1470 -0.6685
  628MOL0     H84721   5.275   2.869  11.677  1.3599 -1.7568 -1.1487
  628MOL0     H84722   5.245   2.893  11.506  1.8526 -0.5811  0.8365
  628MOL0     H84723   5.410   3.084  11.512 -0.9003  0.9541  1.9885
  628MOL0     H84724   5.430   3.030  11.677 -1.0975 -0.4070 -0.2304
  628MOL0     H84725   5.481   2.851  11.439  0.3256 -2.4764  0.9794
  628MOL0     H84726   5.615   2.955  11.496 -1.2882  2.4076  0.4038
  628MOL0     H84727   5.560   2.845  11.728 -1.8232  1.5262 -0.8307
  628MOL0     H84728   5.674   2.783  11.614  0.4147  1.5559  0.1813
  628MOL0     H84729   5.382   2.701  11.650 -0.1270 -0.1837 -0.2001
  628MOL0     H84730   5.488   2.640  11.513 -0.8875  1.1248 -1.4115
  628MOL0     H84731   5.678   2.455  11.565  2.8730 -0.2747  1.1068
  628MOL0     H84732   5.705   2.190  11.715  1.1398  1.8762 -2.3648
  628MOL0     H84733   5.836   2.281  11.739 -0.6836 -2.5758 -0.3828
  628MOL0     H84734   5.665   2.223  11.983 -0.8504 -1.5900 -3.1242
  628MOL0     H84735   5.823   2.141  11.928  1.4503 -0.1775 -1.3621
  628MOL0     H84736   5.777   2.430  12.005  3.9238  2.4581 -0.0515
  628MOL0     H84737   5.930   2.352  11.951  0.1224 -2.8685 -0.1715
  628MOL0     H84738   5.824   2.378  12.214 -1.8716 -1.1874  0.2839
  628MOL0     H84739   5.971   2.294  12.151  0.4590 -0.7862  0.1150
  628MOL0     H84740   5.767   1.925  12.213  1.7017  0.9111 -1.6253
  628MOL0     H84741   5.816   1.786  12.380  0.0095  0.7019 -2.5070
  628MOL0     H84742   5.879   1.787  12.916  1.8139  4.6243  0.5704
  628MOL0     H84743   5.977   1.605  13.077 -0.5822 -3.0240 -0.7868
  628MOL0     H84744   6.109   1.540  13.225  1.5648  1.0560 -0.6327
  628MOL0     H84745   6.075   1.382  13.167  0.6398 -1.4093 -0.6245
  628MOL0     H84746   6.224   1.347  13.363 -2.3525 -1.0166 -1.2693
  628MOL0     H84747   6.289   1.291  13.230 -1.6424  0.4792 -2.2635
  628MOL0     H84748   6.432   1.519  13.221  1.0800  0.5519  0.8417
  628MOL0     H84749   6.312   1.584  13.347  0.5576  0.8750  2.1531
  628MOL0     H84750   6.410   1.436  13.514 -2.8976  0.5939 -0.4472
  628MOL0     H84751   6.515   1.538  13.429 -1.8998  0.3836 -1.0413
  628MOL0     H84752   6.625   1.411  13.302  1.5857  1.7412  2.6810
  628MOL0     H84753   6.512   1.265  13.320 -2.5911  0.1318  0.5760
  628MOL0     H84754   6.713   1.371  13.532 -0.2901  1.8609 -2.1754
  628MOL0     H84755   6.596   1.244  13.567 -0.7463  1.7876  0.7973
  628MOL0     H84756   6.792   1.213  13.332  4.0205 -2.0280  1.7476
  628MOL0     H84757   6.685   1.105  13.429 -1.1850  0.2264 -0.5393
  628MOL0     H84758   6.924   1.256  13.542  2.5290 -1.6149 -0.0536
  628MOL0     H84759   6.837   1.143  13.636  1.2986 -1.8416  0.2693
  628MOL0     H84760   6.305   1.559  12.851  0.7399  0.6414  3.2115
  628MOL0     H84761   6.240   1.772  12.692 -2.6743  0.7814 -0.6405
  628MOL0     H84762   5.973   2.119  12.615  2.0438  0.9719 -0.7270
  628MOL0     H84763   5.907   2.271  12.417 -0.2324  0.3937 -0.0891
  628MOL0     H84764   4.917   3.294  11.353  1.4435 -1.3355 -0.2059
  628MOL0     H84765   4.938   3.324  11.088 -2.1116  0.5731 -1.3506
  628MOL0     H84766   5.007   3.001  10.742 -0.6809 -0.5693  2.4469
  628MOL0     H84767   5.037   2.889  10.525  1.2511  0.7319  0.2474
  628MOL0     H84768   5.016   2.698  10.395  0.0183  1.3470  1.5786
  628MOL0     H84769   5.022   2.853  10.310 -1.9355  2.4855  1.9129
  628MOL0     H84770   5.069   2.666  10.149  0.2025  1.2021 -1.2381
  628MOL0     H84771   4.914   2.746  10.116 -1.8696  0.5830  2.4479
  628MOL0     H84772   4.832   2.558  10.276  2.3207  3.1012  1.9402
  628MOL0     H84773   5.000   2.496  10.253  0.7832  0.2672 -0.7995
  628MOL0     H84774   4.819   2.382  10.101 -0.2521 -1.0904 -2.8444
  628MOL0     H84775   4.775   2.533  10.049  2.0018  2.5116 -2.8144
  628MOL0     H84776   5.105   2.454   9.817  2.6432  0.0476  2.5514
  628MOL0     H84777   4.624   2.900  10.471 -1.4372  2.9749  0.7965
  628MOL0     H84778   4.491   2.967  10.725  0.4033  1.4859  2.5034
  628MOL0     H84779   4.541   3.143  10.713 -1.6858  1.5964 -3.7646
  628MOL0     H84780   4.495   3.056  10.572 -0.6530 -0.8489 -0.0423
  629MOL0     O84781   0.533   9.237  10.523  0.1157 -0.1593  0.1852
  629MOL0     C84782   0.586   9.334  10.584 -0.0980  0.2685  0.0935
  629MOL0     O84783   0.690   9.415  10.536 -0.7202 -0.4743 -0.2491
  629MOL0     C84784   0.770   9.359  10.435 -1.0345 -0.1400  0.8647
  629MOL0     C84785   0.847   9.247  10.474  0.6207  0.5421 -0.0962
  629MOL0     C84786   0.940   9.199  10.378 -0.5535  0.6778 -0.2475
  629MOL0     C84787   0.948   9.248  10.247  1.1750 -0.7253  0.0080
  629MOL0     O84788   1.055   9.203  10.166  1.5469  0.4857 -0.1508
  629MOL0     C84789   1.061   9.063  10.169 -0.4811  0.4151 -0.2632
  629MOL0     C84790   1.144   9.007  10.052 -0.2272  0.7752 -0.7291
  629MOL0     C84791   1.056   8.988   9.927  0.2834  0.3071  0.4514
  629MOL0     C84792   1.141   8.919   9.814 -0.2256  0.0953 -0.2811
  629MOL0     C84793   1.052   8.887   9.686 -0.4398  0.4179 -0.9157
  629MOL0     C84794   0.907   8.829   9.717 -0.8440 -0.6436 -0.5197
  629MOL0     C84795   0.937   8.701   9.800  1.8839  0.8272  0.2887
  629MOL0     C84796   0.837   8.590   9.746 -0.6664  0.2286 -0.1768
  629MOL0     N84797   0.857   8.540   9.613  0.4203 -0.3911 -0.3871
  629MOL0     C84798   0.863   8.403   9.583  0.4622 -0.8996  0.8483
  629MOL0     C84799   0.856   8.398   9.451 -0.8452  0.2039  0.2837
  629MOL0     C84800   0.843   8.265   9.374 -0.8998  0.2797  0.7649
  629MOL0     C84801   0.763   8.286   9.250 -0.6022  0.4293 -0.4216
  629MOL0     C84802   0.688   8.160   9.200 -0.1784 -0.1042  0.3749
  629MOL0     C84803   0.611   8.185   9.068 -0.5319 -0.2532 -0.4445
  629MOL0     O84804   0.499   8.265   9.098 -0.6871  0.0959  1.0545
  629MOL0     C84805   0.431   8.307   8.986 -0.1966  0.8524  0.2532
  629MOL0     C84806   0.459   8.273   8.843  0.3410 -0.6769 -0.0256
  629MOL0     C84807   0.377   8.327   8.743 -0.0389 -0.2093 -0.6229
  629MOL0     C84808   0.256   8.398   8.766 -0.5760  0.1507 -0.0703
  629MOL0     C84809   0.181   8.464   8.657 -0.3679  0.5890  0.6438
  629MOL0     O84810   0.104   8.572   8.675  0.5842 -0.3147 -0.6975
  629MOL0     C84811   0.033   8.621   8.570 -0.5199  0.0810  0.4193
  629MOL0     C84812   0.076   8.734   8.507 -0.9461  0.4553 -0.9499
  629MOL0     C84813   0.023   8.775   8.386 -0.2496 -1.3890 -0.1038
  629MOL0     C84814  -0.088   8.705   8.338  1.1057 -0.1585 -0.0188
  629MOL0     O84815  -0.162   8.766   8.240 -0.6299  0.1316  0.6464
  629MOL0     C84816  -0.234   8.689   8.140 -1.7168  0.3135 -0.0384
  629MOL0     C84817  -0.271   8.786   8.026 -0.9935 -0.6459 -0.2856
  629MOL0     C84818  -0.169   8.799   7.923 -1.0593 -0.2519 -0.4273
  629MOL0     C84819  -0.066   8.899   7.978  1.6577  0.8511 -0.3307
  629MOL0     C84820   0.022   8.945   7.863 -0.7496  0.7110 -0.9681
  629MOL0     C84821   0.128   9.039   7.899 -0.2159  0.0662 -0.7852
  629MOL0     C84822   0.218   9.076   7.779 -0.3007 -0.0586  0.6126
  629MOL0     C84823   0.329   9.168   7.819 -1.0292  0.7992 -0.1906
  629MOL0    Cl84824   0.274   9.310   7.929  0.2606  0.2090 -0.0244
  629MOL0     C84825  -0.129   8.584   8.403 -0.4057  0.5352  0.3336
  629MOL0     C84826  -0.067   8.534   8.515 -0.4288  0.6924 -0.9801
  629MOL0     O84827   0.202   8.409   8.545  0.5468  0.1525 -0.0048
  629MOL0     C84828   0.226   8.423   8.903  0.2015  0.2844  0.1669
  629MOL0     C84829   0.310   8.378   9.010  0.2719  0.7516  0.3187
  629MOL0     N84830   0.872   8.526   9.408  0.4188  0.8791  1.2567
  629MOL0     N84831   0.862   8.613   9.506  0.2130  0.7255  0.2421
  629MOL0     C84832   0.862   9.356  10.206  0.7709  0.9587 -0.0801
  629MOL0     C84833   0.782   9.412  10.303  0.2164 -0.4382  0.2633
  629MOL0     C84834   0.517   9.385  10.714 -0.1897  0.0765  0.1882
  629MOL0     C84835   0.517   9.517  10.748  0.0176 -0.4846 -0.5510
  629MOL0     C84836   0.446   9.569  10.856 -0.4116  0.5460 -1.0817
  629MOL0     C84837   0.379   9.487  10.935  0.2127  0.0187 -0.7294
  629MOL0     O84838   0.284   9.527  11.030  0.3204 -0.5858  0.2657
  629MOL0     C84839   0.184   9.620  10.969  0.6269  0.4384 -0.6516
  629MOL0     C84840   0.099   9.550  10.866  0.3223  0.1957  0.4109
  629MOL0     C84841   0.021   9.658  10.790 -0.9554 -0.6026  0.4320
  629MOL0     C84842  -0.025   9.636  10.651  1.1446  0.4861  0.7374
  629MOL0     C84843  -0.071   9.499  10.635  0.4093  0.0474  0.3538
  629MOL0     C84844  -0.117   9.384  10.627 -0.5533 -0.3493 -0.9308
  629MOL0     C84845   0.382   9.355  10.911  0.6079 -0.6935 -0.3884
  629MOL0     C84846   0.449   9.300  10.805 -0.0073  0.4111  0.8027
  629MOL0     C84847   0.445   9.146  10.800 -0.7563 -0.1994 -1.0714
  629MOL0     H84848   0.845   9.204  10.573 -0.9500  0.7199 -0.0267
  629MOL0     H84849   1.003   9.119  10.418 -0.5137 -0.3614 -2.2666
  629MOL0     H84850   1.126   9.039  10.254 -2.8593  0.3231  1.6553
  629MOL0     H84851   0.963   9.015  10.175  0.2128 -0.9353  1.5067
  629MOL0     H84852   1.168   8.903  10.079  0.7526  1.1157 -0.2146
  629MOL0     H84853   1.234   9.068  10.039  0.7964 -0.0908  1.5540
  629MOL0     H84854   1.018   9.087   9.899  0.9775  0.4179 -0.1409
  629MOL0     H84855   0.972   8.923   9.953 -1.0824  2.5515  2.0620
  629MOL0     H84856   1.229   8.977   9.788 -0.5020  0.7354  0.1971
  629MOL0     H84857   1.175   8.822   9.853  0.8449 -0.1315 -1.6930
  629MOL0     H84858   1.036   8.982   9.634  2.2943 -0.4600 -3.6680
  629MOL0     H84859   1.115   8.826   9.620  1.2020 -0.0609  0.9950
  629MOL0     H84860   0.842   8.888   9.781  0.4663 -0.5445  0.7662
  629MOL0     H84861   0.846   8.802   9.630 -0.3233 -1.2787 -0.6951
  629MOL0     H84862   0.906   8.729   9.901 -0.5855  0.1775 -0.2245
  629MOL0     H84863   1.039   8.660   9.802  1.3134 -0.6408  0.8128
  629MOL0     H84864   0.843   8.506   9.816  4.5188 -0.1574 -0.6714
  629MOL0     H84865   0.740   8.640   9.747 -1.3915 -0.9873 -2.8011
  629MOL0     H84866   0.868   8.322   9.655  2.4060 -0.8149  0.8771
  629MOL0     H84867   0.945   8.238   9.345  0.3231  2.4768  2.6149
  629MOL0     H84868   0.797   8.184   9.431 -3.1322  2.2613  1.9611
  629MOL0     H84869   0.694   8.367   9.274  1.2275  1.5784  1.3296
  629MOL0     H84870   0.830   8.334   9.178  0.4080  0.5370  0.5536
  629MOL0     H84871   0.612   8.130   9.273 -0.3456  1.9716  1.1253
  629MOL0     H84872   0.764   8.083   9.185 -0.6503 -0.5479  0.2414
  629MOL0     H84873   0.584   8.088   9.028 -1.1659  0.3228 -1.4463
  629MOL0     H84874   0.681   8.230   8.996 -1.7861  3.3708  0.3768
  629MOL0     H84875   0.548   8.223   8.807  1.4469  0.5150  0.9344
  629MOL0     H84876   0.414   8.323   8.641  1.0055  0.8318 -0.3149
  629MOL0     H84877   0.152   8.800   8.549  1.6199 -2.3132 -0.8436
  629MOL0     H84878   0.027   8.867   8.328 -1.5182 -1.8429 -0.9653
  629MOL0     H84879  -0.177   8.607   8.095  0.3061  1.2880  0.6311
  629MOL0     H84880  -0.324   8.639   8.176 -2.5733 -2.0875 -4.6859
  629MOL0     H84881  -0.351   8.744   7.964 -2.1572  3.8127 -2.2139
  629MOL0     H84882  -0.314   8.881   8.059 -0.0477 -0.3278  0.0554
  629MOL0     H84883  -0.123   8.701   7.909  1.1333  0.4737  1.1933
  629MOL0     H84884  -0.213   8.834   7.829 -3.5506  2.9277  1.6511
  629MOL0     H84885  -0.000   8.859   8.055  2.3147 -0.4761 -1.5420
  629MOL0     H84886  -0.120   8.982   8.025  3.5404  0.5297  2.6254
  629MOL0     H84887  -0.048   8.988   7.790 -0.9502 -1.1538 -1.9412
  629MOL0     H84888   0.069   8.856   7.819 -0.4450 -0.2995  1.2772
  629MOL0     H84889   0.088   9.135   7.931  3.1149 -0.0766  5.3276
  629MOL0     H84890   0.181   8.995   7.984 -2.2396  0.2109  0.6147
  629MOL0     H84891   0.157   9.128   7.705  0.0989 -1.6636 -0.9076
  629MOL0     H84892   0.258   8.987   7.729  1.1680 -0.3390  2.1808
  629MOL0     H84893   0.410   9.102   7.852  1.0322  1.2783 -3.7771
  629MOL0     H84894   0.376   9.208   7.729  0.6729  2.4707  1.3523
  629MOL0     H84895  -0.211   8.528   8.360  1.3284 -0.6713 -1.6392
  629MOL0     H84896  -0.091   8.443   8.568  2.7901  1.3864  2.0135
  629MOL0     H84897   0.136   8.482   8.923 -0.8776 -1.0177 -0.6644
  629MOL0     H84898   0.280   8.392   9.114 -1.3539  1.0981 -0.1642
  629MOL0     H84899   0.862   9.408  10.111  1.1901  1.7375  0.3390
  629MOL0     H84900   0.726   9.503  10.284 -0.9253 -1.1733  0.0083
  629MOL0     H84901   0.569   9.577  10.674  1.0391 -1.0344 -0.3026
  629MOL0     H84902   0.442   9.674  10.884 -1.9248  0.3395 -0.4628
  629MOL0     H84903   0.231   9.703  10.916 -1.7007  3.3732  1.5559
  629MOL0     H84904   0.121   9.661  11.049  1.0748  0.1375 -0.1316
  629MOL0     H84905   0.034   9.471  10.906 -0.2487  0.6190  0.3317
  629MOL0     H84906   0.163   9.496  10.796 -2.4378 -2.0873 -0.5546
  629MOL0     H84907   0.080   9.749  10.776  1.6307 -2.2968 -0.3727
  629MOL0     H84908  -0.071   9.677  10.848 -3.0091 -2.2601 -2.0706
  629MOL0     H84909  -0.110   9.702  10.635  1.4931  0.6939 -0.3235
  629MOL0     H84910   0.061   9.657  10.586  2.5009  0.1147  2.3313
  629MOL0     H84911  -0.151   9.282  10.627  0.6791 -1.0468  4.2336
  629MOL0     H84912   0.337   9.287  10.983 -0.4318  2.4829  2.2266
  629MOL0     H84913   0.406   9.096  10.889  1.4705  0.4206  0.3493
  629MOL0     H84914   0.397   9.105  10.711 -0.7948  1.5217 -1.8664
  629MOL0     H84915   0.547   9.106  10.793 -1.0202 -0.7384 -2.0523
  630MOL0     O84916   1.613   5.359  10.238  0.9550  0.4188  0.1634
  630MOL0     C84917   1.557   5.334  10.133  0.7839 -0.9004  0.5513
  630MOL0     O84918   1.610   5.257  10.027  0.0646  0.0953  0.2778
  630MOL0     C84919   1.738   5.205  10.044  0.4900  0.4111 -0.1991
  630MOL0     C84920   1.839   5.231   9.954 -0.2659 -0.5611  0.2194
  630MOL0     C84921   1.955   5.158   9.942  0.6839  0.0700  0.0465
  630MOL0     C84922   1.979   5.052  10.013  0.5997  0.3401  0.3812
  630MOL0     O84923   2.081   4.960  10.004  0.2838 -0.2440  0.0427
  630MOL0     C84924   2.217   5.018  10.011  0.2833 -0.5001 -0.3849
  630MOL0     C84925   2.239   5.116  10.119 -0.5850  0.3969  0.0036
  630MOL0     C84926   2.382   5.153  10.127 -0.7552  0.7933 -1.2481
  630MOL0     C84927   2.472   5.036  10.172  0.5246  0.0649 -0.3476
  630MOL0     C84928   2.580   5.079  10.262 -0.6149  0.1371  0.1452
  630MOL0     C84929   2.684   4.970  10.304 -0.5770  0.5448 -0.3832
  630MOL0     C84930   2.612   4.843  10.363 -0.7217  0.4645  0.4173
  630MOL0     C84931   2.537   4.883  10.494 -0.5679  0.2232 -0.2438
  630MOL0     N84932   2.492   4.778  10.586 -0.7661  0.0637 -0.8640
  630MOL0     C84933   2.378   4.703  10.575 -0.1907  0.0645  0.4719
  630MOL0     C84934   2.370   4.630  10.689 -0.6329  0.1679  0.1934
  630MOL0     C84935   2.290   4.505  10.716 -0.2152  0.5677 -0.2994
  630MOL0     C84936   2.343   4.381  10.651  0.7568 -0.0329 -0.2347
  630MOL0     C84937   2.243   4.264  10.648  0.5486  0.0970  1.1166
  630MOL0     C84938   2.244   4.180  10.516 -0.8387  0.0582  0.1843
  630MOL0     O84939   2.144   4.072  10.539 -0.0229 -0.0129  0.2421
  630MOL0     C84940   2.167   3.952  10.469  0.3080 -0.3720 -0.1499
  630MOL0     C84941   2.252   3.940  10.357  0.0812 -0.3452 -0.2764
  630MOL0     C84942   2.258   3.816  10.287  0.6534 -0.7379  0.0064
  630MOL0     C84943   2.190   3.704  10.329  0.0273  0.5225  0.5351
  630MOL0     C84944   2.189   3.576  10.263 -0.1627  0.2920  0.6266
  630MOL0     O84945   2.095   3.488  10.303  0.5324  0.5021 -0.2122
  630MOL0     C84946   2.118   3.357  10.268  0.3523 -0.8537  0.8391
  630MOL0     C84947   2.197   3.278  10.354 -0.2367 -0.0818  0.8541
  630MOL0     C84948   2.205   3.142  10.327 -0.4248  0.0800  0.6021
  630MOL0     C84949   2.129   3.065  10.234 -0.3287 -0.7508  0.5621
  630MOL0     O84950   2.151   2.938  10.200 -0.9390  0.4615  0.1013
  630MOL0     C84951   2.238   2.846  10.276  0.3176  0.2267  0.6976
  630MOL0     C84952   2.171   2.798  10.413  0.6081 -0.7946 -0.5591
  630MOL0     C84953   2.031   2.736  10.398  0.8012 -0.0064 -0.5840
  630MOL0     C84954   1.958   2.676  10.526 -0.0218 -0.6963  0.2920
  630MOL0     C84955   1.815   2.633  10.491 -0.4054 -0.1387 -0.2160
  630MOL0     C84956   1.765   2.596  10.626 -0.1269  0.0832 -0.0349
  630MOL0     C84957   1.619   2.553  10.628  0.4582  0.5240  0.3398
  630MOL0     C84958   1.569   2.431  10.545 -0.1425  1.3241  0.0500
  630MOL0    Cl84959   1.389   2.411  10.575 -0.6751  0.1134 -0.1121
  630MOL0     C84960   2.028   3.140  10.163  0.1698  0.0638 -0.4900
  630MOL0     C84961   2.030   3.286  10.180  0.7977  0.4095 -0.4255
  630MOL0     O84962   2.277   3.554  10.184 -1.0692  0.6730 -0.7275
  630MOL0     C84963   2.095   3.723  10.435  0.5040 -0.6468  0.6659
  630MOL0     C84964   2.087   3.847  10.497  0.6679 -0.0142 -0.3216
  630MOL0     N84965   2.478   4.672  10.772 -0.6284 -0.0289 -0.6073
  630MOL0     N84966   2.553   4.760  10.715  0.0933  0.1075  0.0111
  630MOL0     C84967   1.887   5.022  10.117 -0.7342 -0.5356  0.3713
  630MOL0     C84968   1.765   5.095  10.121 -0.7223 -0.6733  1.1133
  630MOL0     C84969   1.430   5.410  10.100  0.0644 -0.0582  0.0146
  630MOL0     C84970   1.384   5.405   9.966 -0.0569  0.5276  0.3526
  630MOL0     C84971   1.265   5.459   9.927  0.3132  0.6141 -0.3072
  630MOL0     C84972   1.180   5.519  10.021 -1.1006 -0.1733  0.5059
  630MOL0     O84973   1.068   5.565   9.968 -0.3808 -0.1210 -0.4191
  630MOL0     C84974   1.017   5.691  10.023 -0.0210  0.1415  0.3236
  630MOL0     C84975   0.929   5.767   9.927 -0.3714  0.6496 -0.6533
  630MOL0     C84976   0.811   5.683   9.900  0.3261 -0.3818  0.5548
  630MOL0     C84977   0.716   5.747   9.804 -0.2906  0.0121 -0.4736
  630MOL0     C84978   0.631   5.854   9.864  0.8078  0.5251 -0.3410
  630MOL0     C84979   0.552   5.935   9.917 -0.0574 -0.3477 -0.6702
  630MOL0     C84980   1.216   5.509  10.155  0.1863 -0.1298  1.0167
  630MOL0     C84981   1.341   5.457  10.196  0.0547 -0.5706 -0.1407
  630MOL0     C84982   1.361   5.450  10.350 -0.2906 -0.9051  0.3287
  630MOL0     H84983   1.825   5.301   9.873 -1.5597  1.7190  2.3042
  630MOL0     H84984   2.026   5.170   9.860  0.1682 -3.1694 -0.9982
  630MOL0     H84985   2.277   4.930  10.037  0.5959 -0.4878 -1.0404
  630MOL0     H84986   2.234   5.056   9.910 -1.0042 -0.0927 -0.4707
  630MOL0     H84987   2.208   5.073  10.215  0.0457  0.9375  0.4597
  630MOL0     H84988   2.183   5.207  10.097  0.5911  0.6899 -2.0086
  630MOL0     H84989   2.370   5.231  10.203  3.4783 -0.3726  0.9093
  630MOL0     H84990   2.414   5.201  10.033 -1.6998  1.3851 -1.2835
  630MOL0     H84991   2.402   4.975  10.229 -0.5726  2.2600  0.7491
  630MOL0     H84992   2.519   5.001  10.079 -0.4500  2.7060 -1.9604
  630MOL0     H84993   2.628   5.165  10.214 -4.1189  0.7925 -2.5953
  630MOL0     H84994   2.531   5.104  10.356  1.5196 -1.8006  1.8988
  630MOL0     H84995   2.719   4.940  10.205 -3.1880  0.1800 -1.2614
  630MOL0     H84996   2.763   5.000  10.374 -1.2074 -1.5356  1.3515
  630MOL0     H84997   2.675   4.756  10.384  2.8062  1.8103 -3.2012
  630MOL0     H84998   2.542   4.810  10.286 -0.7483  1.9132 -0.2126
  630MOL0     H84999   2.606   4.934  10.562  1.2486 -2.5046  0.1224
  630MOL0     H85000   2.449   4.940  10.464  0.1255  2.0183  0.9767
  630MOL0     H85001   2.312   4.700  10.489  1.1815 -1.6795 -0.5731
  630MOL0     H85002   2.270   4.492  10.823 -0.3752  0.2018 -0.3726
  630MOL0     H85003   2.196   4.529  10.664  0.1827  2.0618 -0.3805
  630MOL0     H85004   2.366   4.410  10.548 -2.2822  4.0534 -0.0057
  630MOL0     H85005   2.437   4.353  10.698 -0.4778  0.5570  2.8619
  630MOL0     H85006   2.136   4.288  10.659  0.2121 -0.8147  0.0453
  630MOL0     H85007   2.274   4.190  10.722 -1.5178 -0.6798  1.2860
  630MOL0     H85008   2.345   4.139  10.501 -1.0869 -0.4768 -0.0671
  630MOL0     H85009   2.219   4.252  10.438 -0.4417 -0.6151 -0.5719
  630MOL0     H85010   2.312   4.018  10.312  0.9366  0.5991  2.3231
  630MOL0     H85011   2.324   3.821  10.201 -0.5887  1.0251 -0.9143
  630MOL0     H85012   2.242   3.319  10.444  1.1396 -0.1339  0.2191
  630MOL0     H85013   2.281   3.096  10.390  2.3824  3.6285  0.0834
  630MOL0     H85014   2.266   2.755  10.221 -1.3066 -0.3506  0.7529
  630MOL0     H85015   2.332   2.898  10.295 -0.2392  1.1011  1.1086
  630MOL0     H85016   2.235   2.736  10.476 -0.1952 -2.1559 -1.0472
  630MOL0     H85017   2.168   2.881  10.485  2.4851 -0.5404 -0.7072
  630MOL0     H85018   1.956   2.799  10.349  0.5678  2.2997  2.4279
  630MOL0     H85019   2.048   2.651  10.331  0.3218 -0.6470  0.1004
  630MOL0     H85020   1.967   2.745  10.610  1.3080 -1.2318  0.6082
  630MOL0     H85021   2.014   2.588  10.558 -1.8888 -2.3727 -0.8374
  630MOL0     H85022   1.829   2.542  10.433  1.0223  1.3327 -2.3521
  630MOL0     H85023   1.757   2.718  10.454  3.1274  2.0635 -1.1831
  630MOL0     H85024   1.827   2.513  10.661 -0.1047 -0.4462 -1.2790
  630MOL0     H85025   1.772   2.685  10.690  1.5351  0.3629 -0.5475
  630MOL0     H85026   1.563   2.637  10.585  0.3287  0.1333 -0.2679
  630MOL0     H85027   1.607   2.537  10.735 -1.2143  3.4121  0.6869
  630MOL0     H85028   1.589   2.430  10.437 -2.2875 -1.2456 -0.4235
  630MOL0     H85029   1.607   2.337  10.586 -0.8154  0.9183 -0.2308
  630MOL0     H85030   1.952   3.093  10.102  2.1038 -2.7797 -0.8949
  630MOL0     H85031   1.942   3.342  10.151 -0.2840 -0.1788  1.5303
  630MOL0     H85032   2.033   3.642  10.471 -3.1398  0.8199 -1.6927
  630MOL0     H85033   2.014   3.866  10.575  0.3673  2.8885 -1.1662
  630MOL0     H85034   1.909   4.939  10.184  1.7076  0.6166  1.0801
  630MOL0     H85035   1.695   5.065  10.199 -0.4518  0.6854  1.9154
  630MOL0     H85036   1.444   5.360   9.887  0.3161  0.6019  0.5883
  630MOL0     H85037   1.226   5.431   9.829 -0.3930 -0.8377  0.3550
  630MOL0     H85038   1.107   5.753  10.030  0.2344  0.1475 -2.1334
  630MOL0     H85039   0.968   5.674  10.119  1.3644  1.3145  1.2815
  630MOL0     H85040   0.985   5.777   9.834 -0.4103 -0.8535 -0.8696
  630MOL0     H85041   0.899   5.860   9.976 -3.0238  0.8803 -2.4977
  630MOL0     H85042   0.753   5.652   9.987 -1.4481  2.5840  0.5648
  630MOL0     H85043   0.845   5.590   9.853  2.4194  1.2281 -1.3275
  630MOL0     H85044   0.768   5.792   9.719  1.6771  1.8155  1.5628
  630MOL0     H85045   0.653   5.662   9.775 -2.3260  2.0081 -2.2602
  630MOL0     H85046   0.486   6.012   9.951 -0.0095 -0.5978 -0.0018
  630MOL0     H85047   1.142   5.537  10.229 -0.2003 -0.5041  0.7762
  630MOL0     H85048   1.440   5.517  10.385 -1.9555  2.2516 -1.4899
  630MOL0     H85049   1.273   5.484  10.405  1.0006  1.2544  1.2054
  630MOL0     H85050   1.393   5.350  10.381  0.0728 -0.7548  0.4386
  631MOL0     O85051   0.246   8.581   3.557  0.5907 -0.4358  0.5293
  631MOL0     C85052   0.291   8.623   3.448 -0.5490  0.4204  0.6575
  631MOL0     O85053   0.426   8.606   3.409  0.4250  0.0249 -0.9431
  631MOL0     C85054   0.523   8.557   3.494  0.3408 -0.7751 -1.0106
  631MOL0     C85055   0.633   8.637   3.538  0.1660 -0.1437  0.4492
  631MOL0     C85056   0.723   8.587   3.636  0.0422  0.1028  0.2942
  631MOL0     C85057   0.712   8.460   3.679  0.2165  0.1491 -0.8232
  631MOL0     O85058   0.785   8.402   3.777  0.0130 -0.7095  0.0524
  631MOL0     C85059   0.868   8.468   3.874  0.7665  0.0797  0.4838
  631MOL0     C85060   0.885   8.376   3.990 -0.2826 -0.4189 -0.1327
  631MOL0     C85061   0.770   8.401   4.084  0.6611 -0.7352  0.1687
  631MOL0     C85062   0.806   8.326   4.210  1.0295  0.3192 -0.0740
  631MOL0     C85063   0.676   8.325   4.300 -0.6235 -0.6285  0.2086
  631MOL0     C85064   0.693   8.253   4.436  0.3384  0.0220 -1.0238
  631MOL0     C85065   0.803   8.332   4.517 -0.6315 -0.4354 -0.2097
  631MOL0     C85066   0.789   8.302   4.666  0.3459 -0.3371 -0.1310
  631MOL0     N85067   0.783   8.159   4.698  0.7261  0.4725  0.6067
  631MOL0     C85068   0.894   8.077   4.713 -0.4056 -0.1644 -0.2246
  631MOL0     C85069   0.843   7.961   4.772 -0.7523  0.3896 -0.5344
  631MOL0     C85070   0.932   7.844   4.805  0.6651  0.1232  0.4975
  631MOL0     C85071   1.046   7.875   4.887 -0.3813 -0.3766  1.1800
  631MOL0     C85072   1.108   7.756   4.948 -0.0073  0.7115 -0.2590
  631MOL0     C85073   1.231   7.793   5.018 -0.0936 -0.0101  0.2145
  631MOL0     O85074   1.263   7.676   5.090  0.1212 -0.0556  0.9205
  631MOL0     C85075   1.341   7.689   5.201 -0.0396 -0.5360 -0.4559
  631MOL0     C85076   1.394   7.805   5.260  0.1006 -1.4363  0.0551
  631MOL0     C85077   1.475   7.791   5.376 -0.1097 -0.2506 -0.1031
  631MOL0     C85078   1.499   7.672   5.441 -0.3979  0.1682  0.5456
  631MOL0     C85079   1.580   7.654   5.567  0.2787 -0.5025 -0.1288
  631MOL0     O85080   1.575   7.530   5.629  0.2183  0.3594 -0.1171
  631MOL0     C85081   1.644   7.505   5.738  0.3148 -0.1854  1.1019
  631MOL0     C85082   1.560   7.484   5.855  0.4648  0.3600 -1.2715
  631MOL0     C85083   1.621   7.465   5.979 -1.3204 -0.1583 -0.6978
  631MOL0     C85084   1.762   7.435   5.986 -0.5828 -0.9479 -0.7132
  631MOL0     O85085   1.827   7.412   6.104  0.1741  0.0028  0.5627
  631MOL0     C85086   1.862   7.522   6.195 -1.1585  1.6439 -0.2143
  631MOL0     C85087   1.746   7.602   6.257  0.3016 -0.1064 -0.0218
  631MOL0     C85088   1.798   7.674   6.387 -0.0393  0.8313  0.6278
  631MOL0     C85089   1.678   7.705   6.478  0.3000  0.3514 -1.1220
  631MOL0     C85090   1.726   7.766   6.613  1.7961  0.6264  0.8902
  631MOL0     C85091   1.708   7.922   6.603  0.9704  0.8299  0.8995
  631MOL0     C85092   1.747   7.987   6.726 -0.1222 -0.2873 -0.8296
  631MOL0     C85093   1.898   7.972   6.773  0.3661  0.0328 -0.6268
  631MOL0    Cl85094   2.012   8.073   6.676 -0.1345 -0.0299 -0.3696
  631MOL0     C85095   1.833   7.439   5.868 -0.5271  0.1100 -0.0039
  631MOL0     C85096   1.783   7.476   5.743  0.4120 -0.0863  0.6494
  631MOL0     O85097   1.615   7.759   5.616 -0.0707  1.0884  0.3653
  631MOL0     C85098   1.438   7.562   5.388 -0.3213 -0.9381  1.0366
  631MOL0     C85099   1.367   7.572   5.269 -0.1735  0.7824  0.0335
  631MOL0     N85100   0.711   7.981   4.802 -0.0863 -0.4748  1.0930
  631MOL0     N85101   0.673   8.096   4.749  0.2090  0.2685  0.6857
  631MOL0     C85102   0.601   8.386   3.642  0.0437  0.2164 -0.0175
  631MOL0     C85103   0.513   8.431   3.540  0.5813 -0.1561 -0.2352
  631MOL0     C85104   0.187   8.694   3.365  0.8557 -0.3853 -0.1188
  631MOL0     C85105   0.041   8.682   3.388  0.1786  0.1441 -0.3047
  631MOL0     C85106  -0.052   8.729   3.290 -0.2783  1.2817 -0.0865
  631MOL0     C85107  -0.009   8.801   3.177  0.3955  0.1484  0.2603
  631MOL0     O85108  -0.095   8.851   3.075  0.5149 -0.3245 -0.6918
  631MOL0     C85109  -0.218   8.898   3.118 -0.2511  0.4653 -0.6405
  631MOL0     C85110  -0.262   9.025   3.045 -0.6647 -0.4078  0.1318
  631MOL0     C85111  -0.319   8.986   2.905  0.0759 -1.1331 -0.5673
  631MOL0     C85112  -0.357   9.119   2.836  0.4415 -0.9866  0.3497
  631MOL0     C85113  -0.240   9.197   2.794  0.1289 -0.2299 -0.3440
  631MOL0     C85114  -0.139   9.255   2.748  0.1454 -0.1292 -0.3762
  631MOL0     C85115   0.124   8.822   3.159  1.0030  0.7220  0.1792
  631MOL0     C85116   0.223   8.771   3.246 -0.5300 -0.0883  0.0040
  631MOL0     C85117   0.376   8.786   3.200 -1.2421  0.4369  0.1638
  631MOL0     H85118   0.637   8.740   3.504 -0.1371 -0.5106 -0.7484
  631MOL0     H85119   0.798   8.659   3.667 -1.7329  1.4262  1.7749
  631MOL0     H85120   0.963   8.500   3.829  1.4573 -0.7852  1.2778
  631MOL0     H85121   0.825   8.565   3.898 -1.5077 -0.7979  0.2731
  631MOL0     H85122   0.983   8.393   4.036  1.0611  1.0796 -3.2346
  631MOL0     H85123   0.884   8.268   3.968 -1.3104 -0.7675  1.4296
  631MOL0     H85124   0.674   8.365   4.046  1.5726 -1.3691 -1.6573
  631MOL0     H85125   0.749   8.506   4.107 -2.0044 -1.3999  1.0632
  631MOL0     H85126   0.826   8.221   4.186 -0.0345  0.0678  0.0754
  631MOL0     H85127   0.888   8.373   4.265 -0.2588  1.7250  0.7324
  631MOL0     H85128   0.654   8.429   4.327 -2.0286 -1.5180  2.8737
  631MOL0     H85129   0.585   8.284   4.255 -1.5746 -1.2971  2.5749
  631MOL0     H85130   0.599   8.266   4.490  0.3619 -2.6443 -0.1817
  631MOL0     H85131   0.706   8.148   4.407 -0.9175  0.2313 -2.5136
  631MOL0     H85132   0.796   8.438   4.492  1.6089 -0.5649 -1.6503
  631MOL0     H85133   0.902   8.301   4.482 -0.2108  0.3918  0.2247
  631MOL0     H85134   0.881   8.342   4.709 -1.4102 -1.1147  5.0072
  631MOL0     H85135   0.701   8.354   4.704 -1.6741 -1.1725 -3.3209
  631MOL0     H85136   1.000   8.093   4.691 -0.1935 -0.5858  0.4629
  631MOL0     H85137   0.875   7.768   4.858 -0.3469  1.2452  1.0670
  631MOL0     H85138   0.962   7.804   4.708  1.3871 -0.8607  1.1027
  631MOL0     H85139   1.121   7.932   4.830 -0.3399  1.0467  2.5923
  631MOL0     H85140   1.013   7.960   4.947  0.8828  1.2889 -0.3319
  631MOL0     H85141   1.122   7.680   4.871  2.2145 -0.1902  0.9421
  631MOL0     H85142   1.043   7.711   5.023  2.1402  1.5757  2.2902
  631MOL0     H85143   1.211   7.873   5.090 -1.7860 -1.3895  1.3569
  631MOL0     H85144   1.308   7.819   4.945  0.3249 -1.9539 -0.0931
  631MOL0     H85145   1.392   7.898   5.205 -3.0236 -2.9485 -2.8010
  631MOL0     H85146   1.519   7.885   5.409  1.3554 -1.6995  2.4157
  631MOL0     H85147   1.452   7.491   5.846  0.2155 -1.2132  0.0536
  631MOL0     H85148   1.557   7.449   6.064 -2.5829  0.2060 -1.5457
  631MOL0     H85149   1.929   7.470   6.264 -0.7771 -0.3857 -1.9995
  631MOL0     H85150   1.923   7.603   6.153 -2.1731  3.4435  1.6185
  631MOL0     H85151   1.696   7.672   6.189 -1.1733  0.2014  1.3285
  631MOL0     H85152   1.666   7.537   6.294  1.6486 -1.7874  0.0562
  631MOL0     H85153   1.855   7.598   6.441 -0.6196 -1.6575 -1.9986
  631MOL0     H85154   1.862   7.761   6.367 -0.6538  0.6870 -2.5399
  631MOL0     H85155   1.626   7.610   6.495  2.4219 -1.1012 -2.2369
  631MOL0     H85156   1.601   7.765   6.430 -0.9205 -1.6071 -1.7448
  631MOL0     H85157   1.828   7.735   6.636  1.7026 -0.7457 -0.3972
  631MOL0     H85158   1.652   7.737   6.688  1.1104 -1.2488 -0.4483
  631MOL0     H85159   1.774   7.963   6.526  3.0259 -0.2417  2.0009
  631MOL0     H85160   1.604   7.947   6.582  0.9905  2.4589  2.4860
  631MOL0     H85161   1.687   7.952   6.810  1.0754  1.5008  0.8697
  631MOL0     H85162   1.725   8.094   6.721  0.0136 -0.3017 -3.5769
  631MOL0     H85163   1.905   8.006   6.877 -0.6421  2.6841 -1.3569
  631MOL0     H85164   1.941   7.872   6.777  3.1703  1.1236 -1.1077
  631MOL0     H85165   1.939   7.417   5.873 -0.8110 -0.9708  3.0490
  631MOL0     H85166   1.856   7.482   5.663  1.4550  0.8628  1.6195
  631MOL0     H85167   1.476   7.461   5.401  1.7926 -0.6364 -1.7915
  631MOL0     H85168   1.343   7.477   5.222 -0.7929  0.0993  1.6570
  631MOL0     H85169   0.584   8.297   3.701 -1.7587  0.0437 -0.7184
  631MOL0     H85170   0.432   8.364   3.514  3.1548 -3.2589 -0.9327
  631MOL0     H85171   0.016   8.625   3.477 -0.4579 -5.0722 -3.3981
  631MOL0     H85172  -0.156   8.700   3.304 -0.5308  1.9583 -0.5093
  631MOL0     H85173  -0.211   8.918   3.225  0.2377 -2.0271 -0.1569
  631MOL0     H85174  -0.286   8.817   3.091 -1.1259  1.5375 -1.7869
  631MOL0     H85175  -0.185   9.103   3.047 -1.2239  0.1673 -0.1009
  631MOL0     H85176  -0.341   9.061   3.112 -0.9654 -1.5594  0.4128
  631MOL0     H85177  -0.414   8.933   2.911 -0.4581 -0.0680  1.2057
  631MOL0     H85178  -0.245   8.941   2.837 -0.9904  0.1689 -2.7028
  631MOL0     H85179  -0.409   9.085   2.746  1.5616 -2.4596  0.2236
  631MOL0     H85180  -0.426   9.180   2.895  1.1376  2.1202 -1.8042
  631MOL0     H85181  -0.046   9.296   2.713 -0.8579  3.7817  0.9869
  631MOL0     H85182   0.164   8.876   3.074 -0.4638  1.7486  0.1191
  631MOL0     H85183   0.440   8.823   3.281 -0.7330 -0.9455  0.4226
  631MOL0     H85184   0.411   8.695   3.150 -0.4998  0.8280 -0.0422
  631MOL0     H85185   0.391   8.869   3.131 -1.8784 -0.1979 -0.7628
  632MOL0     O85186  10.556   2.510   8.322  0.2384 -0.4986 -0.3691
  632MOL0     C85187  10.617   2.400   8.339 -0.4116 -0.5314  0.6679
  632MOL0     O85188  10.580   2.301   8.432  0.0941 -0.0186 -0.3606
  632MOL0     C85189  10.444   2.302   8.462 -0.2799  0.3265 -0.0914
  632MOL0     C85190  10.396   2.368   8.571  0.6219 -0.3671 -0.3221
  632MOL0     C85191  10.255   2.376   8.585 -0.0567  0.0713 -0.5096
  632MOL0     C85192  10.168   2.299   8.505 -1.1253  0.2176 -0.3496
  632MOL0     O85193  10.038   2.318   8.528 -0.4597  0.2740 -1.0183
  632MOL0     C85194   9.944   2.275   8.428  0.8610  0.1867  0.5550
  632MOL0     C85195   9.798   2.296   8.487  0.2298 -0.0905 -0.0475
  632MOL0     C85196   9.782   2.232   8.626 -0.0310  1.1340  0.0894
  632MOL0     C85197   9.791   2.347   8.737  0.8303 -0.6218  0.2749
  632MOL0     C85198   9.719   2.301   8.867  0.2458  0.4185 -1.2470
  632MOL0     C85199   9.563   2.292   8.874 -0.6923 -0.6717 -0.7654
  632MOL0     C85200   9.531   2.218   9.010  0.4588  0.0065 -0.3347
  632MOL0     C85201   9.376   2.202   9.021 -0.6001  0.1875  0.2668
  632MOL0     N85202   9.339   2.158   9.157 -0.0840 -0.3357 -0.2479
  632MOL0     C85203   9.216   2.193   9.217  0.3512 -0.6315  0.7713
  632MOL0     C85204   9.227   2.166   9.350  0.0511 -0.2999  0.7434
  632MOL0     C85205   9.110   2.203   9.445  0.2522 -0.0468 -0.1426
  632MOL0     C85206   9.132   2.142   9.576  0.5551  0.2583 -0.2826
  632MOL0     C85207   9.101   1.990   9.582  0.1939  0.1192 -0.7110
  632MOL0     C85208   9.060   1.940   9.725  0.5067  0.2331  1.2941
  632MOL0     O85209   9.094   2.020   9.843 -0.5012 -0.0484  0.6205
  632MOL0     C85210   9.228   2.011   9.880 -0.3780 -0.4805 -0.5107
  632MOL0     C85211   9.328   1.922   9.831 -0.7025 -0.2307 -0.0220
  632MOL0     C85212   9.458   1.954   9.881 -0.5247  0.0430  1.1484
  632MOL0     C85213   9.493   2.063   9.963  0.4738  0.7490 -0.4761
  632MOL0     C85214   9.635   2.085   9.996 -0.3532 -0.3710 -0.5644
  632MOL0     O85215   9.724   1.981  10.011  0.4242 -0.4824  0.8516
  632MOL0     C85216   9.842   2.015  10.076 -0.1593 -0.5747  0.2388
  632MOL0     C85217   9.965   2.041  10.013 -0.3740  0.0914 -0.1327
  632MOL0     C85218  10.084   2.066  10.098  0.3565 -0.8007  0.2730
  632MOL0     C85219  10.077   2.046  10.235 -0.0964 -0.5672  0.6922
  632MOL0     O85220  10.193   2.079  10.305 -0.5346  0.0064  0.2163
  632MOL0     C85221  10.186   2.208  10.378  0.6026  0.0008  0.3845
  632MOL0     C85222  10.236   2.319  10.290  0.3231  0.6523  0.4170
  632MOL0     C85223  10.385   2.329  10.274  0.4420 -0.7985  0.2186
  632MOL0     C85224  10.439   2.471  10.238  0.9239 -0.0659 -0.2465
  632MOL0     C85225  10.593   2.485  10.239  0.3110  0.6014  0.6522
  632MOL0     C85226  10.625   2.623  10.197  0.3887  0.1371  0.5203
  632MOL0     C85227  10.777   2.656  10.214  0.4913  0.3542 -0.2101
  632MOL0     C85228  10.782   2.805  10.217 -0.0475 -0.6434  0.5662
  632MOL0    Cl85229  10.735   2.885  10.369  0.1645 -0.1875 -0.7330
  632MOL0     C85230   9.951   2.024  10.290  0.0542  0.3408  0.6649
  632MOL0     C85231   9.837   1.994  10.216  0.3145 -0.4358 -0.6634
  632MOL0     O85232   9.660   2.199  10.032  0.4255  0.3295 -0.5973
  632MOL0     C85233   9.390   2.133  10.021  0.4873 -0.0178  0.3806
  632MOL0     C85234   9.258   2.101   9.980 -0.4238 -1.0163  0.2875
  632MOL0     N85235   9.355   2.120   9.372  0.2504  1.1560 -0.0033
  632MOL0     N85236   9.423   2.118   9.257 -0.3012  0.1228 -0.1832
  632MOL0     C85237  10.220   2.227   8.390 -0.0789 -0.9231 -1.1725
  632MOL0     C85238  10.358   2.227   8.374  0.1828  0.3019  0.1941
  632MOL0     C85239  10.729   2.380   8.251  0.2911  0.6798  0.3539
  632MOL0     C85240  10.764   2.244   8.209  0.0310  0.4278  0.1842
  632MOL0     C85241  10.858   2.208   8.124 -0.0464  0.0954  0.1431
  632MOL0     C85242  10.942   2.307   8.077 -0.3864 -0.3659  0.2476
  632MOL0     O85243  11.050   2.282   7.996 -0.0752  0.4868 -0.5577
  632MOL0     C85244  11.038   2.205   7.872  0.5342 -0.6221 -0.7932
  632MOL0     C85245  10.940   2.285   7.780  0.4761  0.4021 -0.1751
  632MOL0     C85246  11.016   2.421   7.746  0.6348 -0.1350  0.9435
  632MOL0     C85247  10.898   2.515   7.702  0.7475  0.2323  0.6297
  632MOL0     C85248  10.825   2.577   7.806  0.3837 -0.1480  0.6268
  632MOL0     C85249  10.763   2.622   7.907 -0.0513  0.1632  0.1244
  632MOL0     C85250  10.934   2.434   8.125  0.0571 -0.2644  0.3608
  632MOL0     C85251  10.825   2.472   8.212  0.1938  0.0463 -0.5985
  632MOL0     C85252  10.839   2.609   8.275 -0.7484 -0.3449  0.4428
  632MOL0     H85253  10.464   2.428   8.631  0.1746  0.4372 -0.6072
  632MOL0     H85254  10.213   2.440   8.662  1.3837 -1.1461  1.3428
  632MOL0     H85255   9.962   2.334   8.338 -1.5141  0.4999  0.2134
  632MOL0     H85256   9.968   2.168   8.426 -0.2366 -0.0611 -1.2610
  632MOL0     H85257   9.722   2.258   8.418 -2.4249  6.1033 -1.2225
  632MOL0     H85258   9.777   2.404   8.493  1.5796  0.1167  2.3447
  632MOL0     H85259   9.860   2.159   8.649 -2.8538 -1.6356  1.5891
  632MOL0     H85260   9.691   2.171   8.629 -0.6513  1.7502 -2.9124
  632MOL0     H85261   9.894   2.372   8.761  0.3528 -0.3536  2.2027
  632MOL0     H85262   9.736   2.430   8.692 -2.4040 -3.6216 -1.9773
  632MOL0     H85263   9.752   2.203   8.905 -2.1306  0.8622  2.4729
  632MOL0     H85264   9.760   2.381   8.929  1.2949 -0.5694 -0.6217
  632MOL0     H85265   9.505   2.383   8.856 -4.5324 -2.6010  0.7112
  632MOL0     H85266   9.552   2.218   8.795  2.9977 -2.5418  0.2711
  632MOL0     H85267   9.585   2.275   9.086  1.8267  1.1381 -2.0812
  632MOL0     H85268   9.576   2.119   8.995  0.2979 -0.1683  0.3094
  632MOL0     H85269   9.325   2.298   9.010  1.2248  1.4319  1.8971
  632MOL0     H85270   9.352   2.128   8.945 -1.8043 -0.9741  1.7156
  632MOL0     H85271   9.134   2.243   9.167  1.0503  4.4497  4.0458
  632MOL0     H85272   9.100   2.312   9.456 -1.4328 -0.4161  3.0387
  632MOL0     H85273   9.024   2.162   9.393  0.4511  1.7056 -1.9942
  632MOL0     H85274   9.236   2.159   9.604  0.2610  2.6667 -0.4118
  632MOL0     H85275   9.069   2.195   9.649  1.2294  2.0889 -0.9620
  632MOL0     H85276   9.186   1.930   9.548 -0.2395  1.2247 -4.1062
  632MOL0     H85277   9.010   1.967   9.526 -1.5258 -0.9582  2.3271
  632MOL0     H85278   9.105   1.842   9.742 -0.4342 -0.0144  2.5130
  632MOL0     H85279   8.951   1.939   9.729  0.4664  0.1943  0.2561
  632MOL0     H85280   9.317   1.850   9.751  0.7590  1.0893 -1.4867
  632MOL0     H85281   9.529   1.906   9.816  0.4512  4.1944 -1.2223
  632MOL0     H85282   9.971   2.060   9.907 -1.3305 -1.2503 -0.4514
  632MOL0     H85283  10.171   2.094  10.040  0.2014 -2.1510 -0.6660
  632MOL0     H85284  10.083   2.225  10.410  0.5540 -2.0391  1.4281
  632MOL0     H85285  10.237   2.203  10.474  2.7116  0.5360 -0.6496
  632MOL0     H85286  10.188   2.322  10.192 -1.1618 -1.4619  1.0118
  632MOL0     H85287  10.206   2.417  10.328 -3.6840 -0.2421 -0.0601
  632MOL0     H85288  10.441   2.308  10.365  0.2180  0.8602  0.7673
  632MOL0     H85289  10.409   2.266  10.187 -3.4294 -0.0321 -1.6099
  632MOL0     H85290  10.395   2.551  10.298 -0.8674 -0.5543 -0.8191
  632MOL0     H85291  10.391   2.498  10.143 -3.2780 -2.2336  0.9947
  632MOL0     H85292  10.634   2.415  10.166  1.8568  0.0145  2.0266
  632MOL0     H85293  10.630   2.463  10.339  3.6765  3.4341  0.2176
  632MOL0     H85294  10.592   2.644  10.095  0.8626 -1.4772  0.0025
  632MOL0     H85295  10.572   2.692  10.263  0.7374  2.9716 -1.9271
  632MOL0     H85296  10.837   2.617  10.130  0.5462  0.7014 -0.3312
  632MOL0     H85297  10.811   2.622  10.312 -0.2182  0.3241  0.0299
  632MOL0     H85298  10.884   2.844  10.207 -0.3706 -0.2420 -2.1605
  632MOL0     H85299  10.731   2.848  10.130  0.5291 -2.5298 -0.7648
  632MOL0     H85300   9.943   2.016  10.398 -2.5613  1.2420  0.6172
  632MOL0     H85301   9.747   1.975  10.273 -0.7320  1.6294 -1.4952
  632MOL0     H85302   9.390   2.215  10.093  3.1166 -1.2380  1.9090
  632MOL0     H85303   9.181   2.163  10.023 -0.4687 -1.8009  1.3775
  632MOL0     H85304  10.158   2.181   8.313 -0.6640  0.6555 -1.6983
  632MOL0     H85305  10.407   2.180   8.289  0.3021  0.8987 -0.0751
  632MOL0     H85306  10.684   2.174   8.231 -2.0109  3.2542  2.5174
  632MOL0     H85307  10.868   2.106   8.089  2.3510  0.5791 -0.7894
  632MOL0     H85308  10.992   2.112   7.905 -1.0093  1.5273  3.9337
  632MOL0     H85309  11.136   2.196   7.824 -0.3743 -0.1244 -2.8877
  632MOL0     H85310  10.845   2.293   7.833  0.2274 -3.7252  0.3155
  632MOL0     H85311  10.910   2.230   7.690  0.0990  1.7438 -0.8931
  632MOL0     H85312  11.082   2.395   7.663  0.5953  0.6647  0.6547
  632MOL0     H85313  11.079   2.463   7.825 -1.3141 -0.6218  2.8814
  632MOL0     H85314  10.952   2.598   7.656  1.6797  0.7072  2.4743
  632MOL0     H85315  10.843   2.450   7.634  2.0043 -0.2569  0.0356
  632MOL0     H85316  10.712   2.652   7.996 -0.2172  0.3999 -0.0496
  632MOL0     H85317  11.014   2.500   8.090 -1.6565  0.3955 -2.6215
  632MOL0     H85318  10.936   2.653   8.247 -1.4741  0.1880 -1.3968
  632MOL0     H85319  10.752   2.673   8.260 -0.6544  0.8511  4.0302
  632MOL0     H85320  10.856   2.571   8.376  2.0000 -2.7156 -0.7465
  633MOL0     O85321   8.837   3.541   9.993  0.1231  0.8253 -0.0031
  633MOL0     C85322   8.933   3.613  10.011 -0.3647 -0.5254  0.0940
  633MOL0     O85323   8.956   3.715  10.105  0.3073  0.2020  0.5478
  633MOL0     C85324   8.870   3.724  10.207 -0.2524 -0.3050 -0.1228
  633MOL0     C85325   8.750   3.797  10.190  0.8884 -0.4066 -0.2540
  633MOL0     C85326   8.671   3.818  10.297  0.0137  0.4650  0.5462
  633MOL0     C85327   8.685   3.755  10.420 -1.1109 -0.4028  0.0622
  633MOL0     O85328   8.618   3.793  10.530 -0.0093  0.3944  0.2427
  633MOL0     C85329   8.478   3.792  10.509  0.0919 -0.2802 -0.1678
  633MOL0     C85330   8.414   3.701  10.610  0.3620  0.0105  0.3520
  633MOL0     C85331   8.431   3.551  10.568  0.0936 -0.4760 -0.4170
  633MOL0     C85332   8.371   3.470  10.682 -1.0304 -0.4839 -0.7614
  633MOL0     C85333   8.409   3.327  10.655  0.0417  0.1702 -0.0636
  633MOL0     C85334   8.336   3.226  10.741  1.1051 -0.8896  0.4399
  633MOL0     C85335   8.346   3.077  10.685  0.5412 -0.2123 -1.6709
  633MOL0     C85336   8.266   2.970  10.756 -0.3149 -1.1454 -1.6487
  633MOL0     N85337   8.233   2.858  10.685 -0.0386 -0.2303 -0.0895
  633MOL0     C85338   8.295   2.734  10.679  0.6889 -1.2191  0.4717
  633MOL0     C85339   8.230   2.655  10.600 -0.4658  0.8291 -0.0910
  633MOL0     C85340   8.255   2.507  10.552 -0.6452  1.1941  0.2474
  633MOL0     C85341   8.345   2.434  10.645  0.2703  0.9372  1.1623
  633MOL0     C85342   8.267   2.384  10.770  0.4751  0.8118  0.6697
  633MOL0     C85343   8.363   2.316  10.869  0.3598 -0.0359 -0.4294
  633MOL0     O85344   8.492   2.371  10.898  0.5588 -0.2879 -0.1078
  633MOL0     C85345   8.488   2.506  10.923 -0.1622 -0.3391 -0.6181
  633MOL0     C85346   8.600   2.589  10.898 -0.2573  0.1791  1.1597
  633MOL0     C85347   8.598   2.723  10.940 -0.6123  0.2679  0.0403
  633MOL0     C85348   8.491   2.786  11.011 -0.1069 -0.5753 -0.2830
  633MOL0     C85349   8.487   2.928  11.036 -0.3123 -0.0781 -0.8235
  633MOL0     O85350   8.596   3.008  10.998  0.3544  0.7093 -0.5873
  633MOL0     C85351   8.603   3.133  11.057  1.3638 -0.0694 -0.3411
  633MOL0     C85352   8.568   3.165  11.189  0.9102 -0.1030  0.3457
  633MOL0     C85353   8.592   3.287  11.254 -0.1285  0.1201  0.3248
  633MOL0     C85354   8.661   3.385  11.176  0.1773 -0.1275 -0.1717
  633MOL0     O85355   8.680   3.503  11.237  0.4344 -0.7350 -0.1247
  633MOL0     C85356   8.812   3.561  11.243  0.6331 -0.3187  0.2475
  633MOL0     C85357   8.829   3.671  11.344  0.6490 -0.2644 -0.3437
  633MOL0     C85358   8.969   3.719  11.345 -1.1888 -0.1242 -0.4556
  633MOL0     C85359   8.995   3.850  11.417  0.0831 -0.2614 -0.0650
  633MOL0     C85360   8.968   3.968  11.327 -0.5745  0.7076 -0.1416
  633MOL0     C85361   9.000   4.108  11.403  0.0247 -0.5959  0.2599
  633MOL0     C85362   9.129   4.185  11.352 -0.2368 -0.2508 -0.2532
  633MOL0     C85363   9.258   4.108  11.362 -0.5450 -0.2970 -0.2335
  633MOL0    Cl85364   9.392   4.226  11.310 -0.1764 -0.4407 -0.1941
  633MOL0     C85365   8.713   3.349  11.049 -0.0322 -0.3604 -0.6243
  633MOL0     C85366   8.676   3.228  10.995  0.0994 -0.8167  0.2675
  633MOL0     O85367   8.396   2.956  11.111  0.2067 -0.6009  0.9686
  633MOL0     C85368   8.386   2.699  11.032 -0.2655  0.4352  0.5438
  633MOL0     C85369   8.386   2.564  10.990 -0.3108 -0.1318  0.2885
  633MOL0     N85370   8.134   2.735  10.544  0.0575 -0.6196 -0.0710
  633MOL0     N85371   8.130   2.860  10.597 -0.4749 -0.4940 -0.9430
  633MOL0     C85372   8.799   3.673  10.437  0.1246  0.2435  0.1475
  633MOL0     C85373   8.890   3.657  10.335  0.7845 -0.3648  1.3077
  633MOL0     C85374   9.030   3.607   9.907 -0.0110  0.7652  0.4609
  633MOL0     C85375   9.002   3.662   9.780 -0.2693  0.3062 -0.2630
  633MOL0     C85376   9.106   3.665   9.686  0.2588  0.3783  0.4268
  633MOL0     C85377   9.233   3.619   9.714 -0.0347  0.5600  0.0764
  633MOL0     O85378   9.348   3.628   9.642 -0.1729  0.3412 -0.2911
  633MOL0     C85379   9.377   3.769   9.613 -0.1994 -0.1540 -0.9808
  633MOL0     C85380   9.341   3.801   9.471 -0.3469  0.9900  0.0017
  633MOL0     C85381   9.470   3.785   9.397  0.2040 -0.5021  0.9133
  633MOL0     C85382   9.461   3.814   9.249 -0.2931  0.0345 -0.8664
  633MOL0     C85383   9.400   3.945   9.230 -0.3349  1.7376  0.0591
  633MOL0     C85384   9.335   4.041   9.214  0.1209  0.4151 -0.0313
  633MOL0     C85385   9.261   3.557   9.843  0.7425  0.4134 -0.1474
  633MOL0     C85386   9.160   3.552   9.933  0.1576  0.3701 -0.5202
  633MOL0     C85387   9.202   3.496  10.067 -0.4361  0.2811 -0.3835
  633MOL0     H85388   8.714   3.835  10.095 -3.7996  0.3272  1.5448
  633MOL0     H85389   8.593   3.892  10.288 -0.8097 -0.5487 -0.8999
  633MOL0     H85390   8.446   3.896  10.522 -1.4820 -0.5391 -1.5952
  633MOL0     H85391   8.449   3.760  10.409 -0.6280 -3.3578  0.9285
  633MOL0     H85392   8.305   3.710  10.613  0.0250 -2.6769 -0.9856
  633MOL0     H85393   8.455   3.723  10.709 -0.0946 -0.5486  0.6671
  633MOL0     H85394   8.536   3.535  10.541  1.4296 -1.8196  4.6013
  633MOL0     H85395   8.366   3.531  10.482  0.1254 -1.5422 -0.2032
  633MOL0     H85396   8.400   3.498  10.784 -0.1282  1.3570 -1.4846
  633MOL0     H85397   8.264   3.487  10.667 -0.9475 -0.0809 -0.9185
  633MOL0     H85398   8.379   3.318  10.550  0.9089  2.9372 -0.6445
  633MOL0     H85399   8.514   3.301  10.667  0.7089  2.4020 -0.5594
  633MOL0     H85400   8.372   3.217  10.844  0.6917  0.3454  0.7145
  633MOL0     H85401   8.232   3.257  10.739  1.5547  0.7635 -1.9088
  633MOL0     H85402   8.450   3.045  10.675  1.4922  0.9974  2.4610
  633MOL0     H85403   8.312   3.098  10.583  1.6010  0.9875 -1.8016
  633MOL0     H85404   8.327   2.946  10.843  2.0090  3.0167 -1.8430
  633MOL0     H85405   8.172   3.018  10.786 -1.5312 -2.4061 -3.2781
  633MOL0     H85406   8.371   2.702  10.751  0.5370 -1.9918  0.2960
  633MOL0     H85407   8.161   2.453  10.539 -0.3743 -0.8296  4.7125
  633MOL0     H85408   8.298   2.516  10.452 -0.4092  0.0516  0.2373
  633MOL0     H85409   8.404   2.351  10.604 -3.4764 -1.1575 -0.4653
  633MOL0     H85410   8.424   2.509  10.662  1.9907 -0.0295 -1.8495
  633MOL0     H85411   8.189   2.315  10.738  1.5824  0.6428 -1.9589
  633MOL0     H85412   8.216   2.464  10.825 -0.1658  1.2561 -0.5354
  633MOL0     H85413   8.382   2.214  10.836 -0.8891 -1.0833  1.8433
  633MOL0     H85414   8.305   2.299  10.961  1.1746  1.9424  0.5038
  633MOL0     H85415   8.698   2.549  10.877  0.0961  0.6454  1.8749
  633MOL0     H85416   8.676   2.789  10.902 -2.8236  3.2307  0.2375
  633MOL0     H85417   8.531   3.082  11.248  0.3131  0.4450  0.7578
  633MOL0     H85418   8.546   3.313  11.349 -2.5283 -1.6274 -0.2379
  633MOL0     H85419   8.888   3.484  11.260  1.3203  0.5282  1.0915
  633MOL0     H85420   8.826   3.607  11.144  0.5901 -1.3571 -0.2516
  633MOL0     H85421   8.758   3.752  11.324 -1.0374 -1.2216  1.4867
  633MOL0     H85422   8.811   3.624  11.441  2.3195 -1.6304 -0.6555
  633MOL0     H85423   9.025   3.638  11.394  0.0847  0.9196 -0.1144
  633MOL0     H85424   9.017   3.727  11.247  0.8326  0.2730  0.5164
  633MOL0     H85425   9.098   3.856  11.456 -0.4891 -1.4885  1.7929
  633MOL0     H85426   8.928   3.861  11.503 -0.1221 -0.2179 -0.2329
  633MOL0     H85427   8.865   3.966  11.290 -0.1546  1.6100 -1.4080
  633MOL0     H85428   9.036   3.977  11.242 -0.3992  0.5706 -0.0156
  633MOL0     H85429   8.921   4.174  11.368 -1.3144 -2.9384 -1.4015
  633MOL0     H85430   9.003   4.104  11.513  0.7890 -2.4134  0.2207
  633MOL0     H85431   9.140   4.281  11.403  0.7030  0.3331 -1.5018
  633MOL0     H85432   9.116   4.224  11.251 -1.0563  3.0094  0.9822
  633MOL0     H85433   9.264   4.098  11.471 -1.2159  3.6144  0.3247
  633MOL0     H85434   9.255   4.012  11.311 -2.5213 -0.0758 -0.6176
  633MOL0     H85435   8.762   3.430  10.996 -3.6072  0.9276 -2.3492
  633MOL0     H85436   8.702   3.195  10.895 -0.7596 -5.0836  1.2553
  633MOL0     H85437   8.302   2.744  11.084 -1.7656 -1.3522 -0.2270
  633MOL0     H85438   8.307   2.506  11.036 -1.3890  2.1034  1.4179
  633MOL0     H85439   8.812   3.627  10.535 -1.9800 -1.6312 -0.3711
  633MOL0     H85440   8.981   3.597  10.336  2.7569  2.3172 -0.5662
  633MOL0     H85441   8.901   3.699   9.764 -0.3298 -0.1126 -0.8645
  633MOL0     H85442   9.099   3.727   9.597  3.8904 -0.4535 -0.6152
  633MOL0     H85443   9.479   3.787   9.647 -0.6411 -1.6151  1.4040
  633MOL0     H85444   9.312   3.824   9.682  0.7612 -1.9525  1.5195
  633MOL0     H85445   9.292   3.898   9.457  0.0092  1.0921 -0.5802
  633MOL0     H85446   9.290   3.722   9.414 -0.9871  2.1789 -1.1382
  633MOL0     H85447   9.513   3.686   9.416  1.5415 -1.2933 -4.4830
  633MOL0     H85448   9.542   3.860   9.429  3.2428 -1.5032 -2.7194
  633MOL0     H85449   9.564   3.819   9.213  0.0622  0.7441  0.1953
  633MOL0     H85450   9.398   3.737   9.203 -0.3705 -1.3095  1.3098
  633MOL0     H85451   9.268   4.124   9.204 -1.0843 -0.4950  0.1930
  633MOL0     H85452   9.358   3.520   9.872  0.2924 -1.2703 -0.6441
  633MOL0     H85453   9.310   3.476  10.076  0.5171  3.3743 -3.0387
  633MOL0     H85454   9.176   3.562  10.150  0.5911 -2.5532  2.4066
  633MOL0     H85455   9.150   3.401  10.080 -0.4315  0.1296 -1.4053
  634MOL0     O85456   5.665   0.042   0.410  0.3007 -0.3047  0.0150
  634MOL0     C85457   5.642   0.005   0.294  1.0492  0.0854 -0.8438
  634MOL0     O85458   5.519  -0.028   0.251  0.2774  0.7187 -0.2875
  634MOL0     C85459   5.414  -0.046   0.341 -0.1323 -1.4564 -0.1594
  634MOL0     C85460   5.278  -0.011   0.312 -0.3451  0.5568  0.1587
  634MOL0     C85461   5.180  -0.027   0.402  0.2611 -0.0927 -0.3070
  634MOL0     C85462   5.192  -0.090   0.520 -0.0065  0.0401  0.2927
  634MOL0     O85463   5.080  -0.090   0.596  0.5428 -0.5006  0.3239
  634MOL0     C85464   5.092  -0.119   0.744 -0.1237 -0.4482  0.5111
  634MOL0     C85465   4.954  -0.111   0.807  0.0409 -0.0268  0.9025
  634MOL0     C85466   4.955  -0.202   0.934 -0.2750  0.5122  0.6694
  634MOL0     C85467   4.816  -0.197   1.013 -0.5027 -0.0264  0.3509
  634MOL0     C85468   4.813  -0.292   1.144 -0.0340  0.2407 -0.0456
  634MOL0     C85469   4.858  -0.433   1.113 -0.0107 -0.2860  0.3307
  634MOL0     C85470   4.856  -0.528   1.226  0.4429 -0.4080 -0.2659
  634MOL0     C85471   4.969  -0.520   1.327  0.4574 -0.0172  0.2617
  634MOL0     N85472   4.974  -0.644   1.415 -0.3279  0.2634  0.1929
  634MOL0     C85473   4.903  -0.664   1.538 -0.1182  0.4539 -0.6051
  634MOL0     C85474   4.928  -0.786   1.573  0.2012 -0.0939  0.9130
  634MOL0     C85475   4.874  -0.860   1.692  0.0643  0.7710 -0.3381
  634MOL0     C85476   4.992  -0.904   1.777  0.3568 -0.2905  0.1490
  634MOL0     C85477   4.956  -0.956   1.920  1.4339  0.9797  0.9123
  634MOL0     C85478   4.952  -0.852   2.032 -1.2834  0.1411  0.1798
  634MOL0     O85479   4.867  -0.737   2.000 -0.2610 -0.2405  0.3930
  634MOL0     C85480   4.735  -0.759   2.024 -0.7618  0.0237 -0.7585
  634MOL0     C85481   4.650  -0.665   1.958  0.8847  0.0419  0.1273
  634MOL0     C85482   4.509  -0.681   1.974 -0.1703 -0.1759  0.0628
  634MOL0     C85483   4.458  -0.792   2.037  0.9307 -0.5394 -1.5389
  634MOL0     C85484   4.317  -0.826   2.029 -0.2600 -0.4798  0.5932
  634MOL0     O85485   4.245  -0.740   1.950  0.5422  0.7221 -0.0805
  634MOL0     C85486   4.116  -0.782   1.929  0.4003 -0.2637  0.2233
  634MOL0     C85487   4.074  -0.848   1.812 -1.1436 -0.2882  0.1782
  634MOL0     C85488   3.943  -0.863   1.786 -0.1013 -0.1326  1.2788
  634MOL0     C85489   3.845  -0.808   1.875 -0.4414 -0.0885  0.5220
  634MOL0     O85490   3.711  -0.828   1.840  0.0725  1.0106  0.2946
  634MOL0     C85491   3.613  -0.854   1.935  1.1661  0.4988  0.2038
  634MOL0     C85492   3.479  -0.854   1.865  0.1020 -0.2243  0.7304
  634MOL0     C85493   3.367  -0.884   1.961 -0.9350  0.6937 -0.9502
  634MOL0     C85494   3.336  -0.773   2.067  0.5693 -0.6062 -0.1707
  634MOL0     C85495   3.198  -0.759   2.123 -0.0145 -0.1810  0.1115
  634MOL0     C85496   3.164  -0.881   2.221 -0.1782 -0.3195  0.7512
  634MOL0     C85497   3.019  -0.864   2.279 -0.3293  0.0465 -0.2234
  634MOL0     C85498   2.935  -0.986   2.303 -0.0241  0.1084  0.2682
  634MOL0    Cl85499   2.994  -1.056   2.451  0.2957  0.2998  0.1727
  634MOL0     C85500   3.881  -0.742   1.993  0.3752  0.0443  0.9058
  634MOL0     C85501   4.018  -0.736   2.014  1.3418  0.4914 -0.5203
  634MOL0     O85502   4.275  -0.928   2.085 -0.5208 -0.0043  1.3763
  634MOL0     C85503   4.542  -0.887   2.103  0.5746  1.0856 -0.0822
  634MOL0     C85504   4.680  -0.876   2.082 -0.9466 -0.4570 -0.8531
  634MOL0     N85505   5.015  -0.837   1.471  0.2547 -0.7258 -0.3164
  634MOL0     N85506   5.052  -0.754   1.380  0.4437  0.2464 -0.0944
  634MOL0     C85507   5.327  -0.128   0.552  0.3288  0.0330 -0.1948
  634MOL0     C85508   5.430  -0.099   0.468 -0.5621  0.2343 -0.0493
  634MOL0     C85509   5.750   0.014   0.193 -1.2754  0.9985  0.1870
  634MOL0     C85510   5.880   0.006   0.243  0.7550  0.2125  0.2810
  634MOL0     C85511   5.991   0.003   0.165  0.1948  0.5658 -0.3789
  634MOL0     C85512   5.990  -0.014   0.025  1.3900 -0.4992 -0.1686
  634MOL0     O85513   6.112  -0.025  -0.028  0.2522 -0.4580 -0.0291
  634MOL0     C85514   6.117   0.042  -0.156 -0.0917 -0.7325 -0.0115
  634MOL0     C85515   6.115  -0.058  -0.265  0.2637  0.7195 -0.2039
  634MOL0     C85516   6.258  -0.125  -0.259 -0.3261  0.0171  0.1036
  634MOL0     C85517   6.289  -0.204  -0.388  0.5991  0.1155  0.1928
  634MOL0     C85518   6.301  -0.121  -0.504 -0.3809 -0.1175 -0.4408
  634MOL0     C85519   6.286  -0.058  -0.600  0.7413  0.8340  0.3607
  634MOL0     C85520   5.861  -0.015  -0.029  0.3100 -0.0351 -0.2469
  634MOL0     C85521   5.748   0.007   0.048 -0.0567  1.2638  0.2522
  634MOL0     C85522   5.610   0.003  -0.013 -1.1055 -0.2525 -0.0464
  634MOL0     H85523   5.248   0.044   0.223  1.2295  0.5598 -0.3997
  634MOL0     H85524   5.083   0.015   0.377  0.5663 -0.1720 -1.7344
  634MOL0     H85525   5.128  -0.221   0.755  0.3348 -0.1584  1.8950
  634MOL0     H85526   5.169  -0.055   0.788 -1.6899  0.8891  1.3966
  634MOL0     H85527   4.883  -0.145   0.732 -1.4953  2.0261  1.3287
  634MOL0     H85528   4.926  -0.009   0.836 -2.7654 -0.3878 -0.2364
  634MOL0     H85529   5.041  -0.165   0.992  0.7223 -0.0726 -0.3929
  634MOL0     H85530   4.982  -0.305   0.909  1.1069  0.9943  0.0550
  634MOL0     H85531   4.785  -0.093   1.025 -0.8412 -0.0968  0.1017
  634MOL0     H85532   4.738  -0.224   0.941  2.3921  0.3607 -3.2129
  634MOL0     H85533   4.886  -0.251   1.214 -0.4244  1.1997 -0.1826
  634MOL0     H85534   4.717  -0.279   1.195 -0.2525  3.0303 -0.9708
  634MOL0     H85535   4.788  -0.476   1.041 -0.2650 -2.2164  1.6519
  634MOL0     H85536   4.954  -0.432   1.060 -0.9567 -0.9199 -1.4624
  634MOL0     H85537   4.885  -0.622   1.177  2.6912  1.0667 -1.9849
  634MOL0     H85538   4.757  -0.521   1.272 -0.7461  1.1913 -2.8228
  634MOL0     H85539   5.068  -0.503   1.284  0.8380 -0.1759  1.0482
  634MOL0     H85540   4.942  -0.439   1.396 -2.4131 -3.4408  3.5731
  634MOL0     H85541   4.832  -0.604   1.594 -1.8438 -0.9964 -1.1260
  634MOL0     H85542   4.804  -0.794   1.745  1.5295  1.4237  0.8785
  634MOL0     H85543   4.819  -0.952   1.670  2.0227 -0.7362  0.7128
  634MOL0     H85544   5.034  -0.979   1.709 -1.2178 -2.2481  1.2495
  634MOL0     H85545   5.071  -0.828   1.787  2.6563 -1.9773 -3.1079
  634MOL0     H85546   5.024  -1.029   1.965 -1.8825 -1.1821  2.8743
  634MOL0     H85547   4.856  -0.998   1.908  0.5728  2.7201  1.6660
  634MOL0     H85548   5.055  -0.821   2.052 -1.7529  0.6687  1.8944
  634MOL0     H85549   4.939  -0.897   2.130  1.3842 -0.4953  0.3292
  634MOL0     H85550   4.677  -0.579   1.898 -1.2252 -2.2532 -4.6095
  634MOL0     H85551   4.447  -0.602   1.933 -2.4842 -1.4484  0.8842
  634MOL0     H85552   4.148  -0.895   1.747 -3.0857 -2.3597 -0.7011
  634MOL0     H85553   3.911  -0.919   1.699  0.6966 -0.9042  1.4653
  634MOL0     H85554   3.626  -0.949   1.986 -2.1364 -1.2308 -1.8249
  634MOL0     H85555   3.606  -0.784   2.019  3.4086 -1.9396  2.6101
  634MOL0     H85556   3.462  -0.763   1.807 -1.5397  0.6054  2.4190
  634MOL0     H85557   3.493  -0.936   1.794  2.1773 -0.6336  1.5244
  634MOL0     H85558   3.282  -0.889   1.893 -3.7645  2.6559  2.1105
  634MOL0     H85559   3.386  -0.973   2.021 -1.6086  1.2123  0.0772
  634MOL0     H85560   3.355  -0.688   2.000 -1.3529  0.0604  0.0695
  634MOL0     H85561   3.402  -0.777   2.154  0.8566  3.8824  0.0394
  634MOL0     H85562   3.127  -0.752   2.040 -0.8271  3.9279  0.9347
  634MOL0     H85563   3.192  -0.666   2.180 -0.1300 -0.8023  1.1491
  634MOL0     H85564   3.164  -0.973   2.162 -0.5186 -0.0531  0.3344
  634MOL0     H85565   3.239  -0.892   2.301 -0.6950 -1.2773  1.1170
  634MOL0     H85566   2.954  -0.812   2.208 -0.1056  0.0258 -0.4465
  634MOL0     H85567   3.039  -0.798   2.364 -1.8266  0.8409 -0.4466
  634MOL0     H85568   2.833  -0.953   2.324  0.4086 -0.1961  3.2759
  634MOL0     H85569   2.939  -1.056   2.220  1.5896  0.0217  0.3867
  634MOL0     H85570   3.808  -0.700   2.061 -0.4250 -2.0703  1.4334
  634MOL0     H85571   4.047  -0.683   2.104  1.0050 -0.0053 -0.1075
  634MOL0     H85572   4.514  -0.978   2.155  2.4468  1.4367  1.6364
  634MOL0     H85573   4.743  -0.956   2.121 -0.4863  0.2248 -0.1648
  634MOL0     H85574   5.349  -0.186   0.641  1.0371  0.8966  0.2058
  634MOL0     H85575   5.533  -0.128   0.488  0.1088  2.6298  0.2917
  634MOL0     H85576   5.915   0.016   0.345 -2.2291  1.5507  1.3142
  634MOL0     H85577   6.083  -0.002   0.223  0.5642 -0.2803 -1.0116
  634MOL0     H85578   6.209   0.099  -0.170 -1.6597  2.1013  0.4633
  634MOL0     H85579   6.038   0.117  -0.167  0.6790 -0.2278 -2.6784
  634MOL0     H85580   6.088  -0.003  -0.356  0.4041  0.9722 -0.0967
  634MOL0     H85581   6.045  -0.138  -0.240  0.8798 -0.1996 -1.3379
  634MOL0     H85582   6.269  -0.203  -0.183 -2.1261 -1.2284 -0.8713
  634MOL0     H85583   6.341  -0.053  -0.252 -0.0091  0.3005 -4.0180
  634MOL0     H85584   6.378  -0.267  -0.379  0.0742 -1.6015 -4.3179
  634MOL0     H85585   6.203  -0.270  -0.405  0.5175  0.0574  0.7938
  634MOL0     H85586   6.262   0.010  -0.680 -5.1984 -0.7614  0.3354
  634MOL0     H85587   5.840  -0.032  -0.135  0.5533  0.8849 -0.4573
  634MOL0     H85588   5.549   0.083   0.030  0.3352  1.4218 -0.9482
  634MOL0     H85589   5.591   0.018  -0.119 -1.7332 -1.8494 -0.1844
  634MOL0     H85590   5.573  -0.098   0.007  2.4003 -1.4390  1.2852
  635MOL0     O85591   2.214   7.878   1.290  0.3742  0.0509  0.2307
  635MOL0     C85592   2.185   7.763   1.286 -0.3120  0.2690  0.6896
  635MOL0     O85593   2.233   7.664   1.373  0.3704 -0.1438  0.3092
  635MOL0     C85594   2.327   7.710   1.466  0.0214 -0.1097 -0.0340
  635MOL0     C85595   2.448   7.636   1.468  1.0146 -0.3353  1.0694
  635MOL0     C85596   2.555   7.666   1.549  0.1001  0.3164 -0.5913
  635MOL0     C85597   2.542   7.780   1.634  0.6238  0.3283  0.6514
  635MOL0     O85598   2.643   7.809   1.724 -0.5199 -0.1406 -0.5381
  635MOL0     C85599   2.664   7.942   1.760  0.4747  0.1536  0.1123
  635MOL0     C85600   2.805   7.964   1.779 -0.1481 -0.8904 -0.4828
  635MOL0     C85601   2.815   8.114   1.820  0.1167 -0.0183 -0.3478
  635MOL0     C85602   2.963   8.139   1.854 -0.2704  0.5225  0.0600
  635MOL0     C85603   2.968   8.267   1.945 -0.9323  0.4925 -0.4864
  635MOL0     C85604   3.113   8.313   1.965 -0.2704  0.1955  0.4638
  635MOL0     C85605   3.115   8.430   2.063 -1.0515 -0.0600 -0.3040
  635MOL0     C85606   3.250   8.443   2.121 -0.8227 -0.0713 -0.0819
  635MOL0     N85607   3.304   8.341   2.208 -0.1777 -0.4899  0.2547
  635MOL0     C85608   3.249   8.287   2.331  0.4134  0.2031  0.8358
  635MOL0     C85609   3.345   8.208   2.378  0.5745 -0.2632 -0.5989
  635MOL0     C85610   3.339   8.120   2.498 -0.1390  0.8756  0.4605
  635MOL0     C85611   3.435   8.151   2.608  0.1845 -0.5923 -0.3565
  635MOL0     C85612   3.361   8.243   2.712  0.0094  0.3035 -0.7545
  635MOL0     C85613   3.449   8.284   2.822 -0.5823 -0.3921  0.0552
  635MOL0     O85614   3.393   8.342   2.944 -0.6885  0.4351  0.1872
  635MOL0     C85615   3.471   8.423   3.020 -0.0356  0.2902 -0.7687
  635MOL0     C85616   3.414   8.530   3.090  0.7240 -1.0190  0.0975
  635MOL0     C85617   3.490   8.612   3.158 -0.0023 -0.6966 -0.0558
  635MOL0     C85618   3.628   8.598   3.170 -0.2989  0.5698  0.2098
  635MOL0     C85619   3.707   8.701   3.249  0.7820 -0.0869  0.0899
  635MOL0     O85620   3.654   8.760   3.359 -0.4704 -0.0470 -0.6315
  635MOL0     C85621   3.728   8.861   3.422  0.3034 -0.0796  0.6849
  635MOL0     C85622   3.834   8.841   3.507 -0.4414  0.8165  0.2521
  635MOL0     C85623   3.894   8.945   3.568 -0.9981 -1.2133 -0.1445
  635MOL0     C85624   3.845   9.074   3.558  0.2405  0.1238 -0.3321
  635MOL0     O85625   3.893   9.187   3.616  0.0273  0.5057 -0.4536
  635MOL0     C85626   4.029   9.207   3.671 -0.0681 -0.0696  1.0516
  635MOL0     C85627   4.037   9.352   3.711 -0.4632 -0.2286  0.2011
  635MOL0     C85628   4.053   9.434   3.576  0.2514  1.3246  0.2872
  635MOL0     C85629   4.074   9.579   3.613  0.3641 -1.5126  0.1529
  635MOL0     C85630   4.085   9.660   3.492  0.5374  0.2263  0.0661
  635MOL0     C85631   4.227   9.633   3.423  0.4592 -0.0264 -0.0745
  635MOL0     C85632   4.275   9.761   3.351  0.0481  0.8624  0.2199
  635MOL0     C85633   4.417   9.751   3.305  0.1901  0.6194 -0.0091
  635MOL0    Cl85634   4.531   9.695   3.436  0.5315 -0.3079  0.3590
  635MOL0     C85635   3.727   9.096   3.487  0.8267  0.2541  0.5989
  635MOL0     C85636   3.668   8.989   3.424 -0.0321  0.0529  0.9587
  635MOL0     O85637   3.818   8.711   3.212  0.1847 -0.9275 -0.4549
  635MOL0     C85638   3.685   8.487   3.113  0.0924 -1.6506  0.0606
  635MOL0     C85639   3.605   8.393   3.033 -0.9601 -0.3917 -0.5059
  635MOL0     N85640   3.454   8.219   2.293 -0.6289  0.7043  0.2568
  635MOL0     N85641   3.432   8.301   2.195  0.9571  1.2457  0.4260
  635MOL0     C85642   2.423   7.860   1.630 -0.2307  0.3121 -0.3748
  635MOL0     C85643   2.312   7.820   1.554  0.1654  0.2416  0.2916
  635MOL0     C85644   2.088   7.706   1.175  0.0142 -0.4746 -0.4734
  635MOL0     C85645   2.039   7.574   1.181  0.2434  0.2627 -0.2025
  635MOL0     C85646   1.987   7.506   1.074 -1.3555  1.0556 -0.7859
  635MOL0     C85647   1.976   7.575   0.948 -0.2299  0.1619  0.2184
  635MOL0     O85648   1.923   7.521   0.837  0.7300  0.8290  0.1335
  635MOL0     C85649   1.983   7.394   0.792 -0.5923  0.8066 -0.4758
  635MOL0     C85650   1.868   7.289   0.770  0.7177 -0.7999  1.0837
  635MOL0     C85651   1.865   7.254   0.631 -0.6029  1.4501  0.7073
  635MOL0     C85652   1.745   7.168   0.604  0.2089 -0.4649 -0.0559
  635MOL0     C85653   1.715   7.156   0.463  0.1815 -1.2347 -0.2907
  635MOL0     C85654   1.678   7.155   0.347  0.5167 -0.5261  0.3731
  635MOL0     C85655   2.006   7.710   0.947 -0.2034  0.6249  0.0669
  635MOL0     C85656   2.067   7.773   1.053  0.4524  0.0081 -0.2540
  635MOL0     C85657   2.103   7.918   1.034 -0.3571  0.1005 -0.5098
  635MOL0     H85658   2.450   7.557   1.393 -0.4661 -1.2368  1.9156
  635MOL0     H85659   2.646   7.607   1.545  0.8726  1.5129 -1.1848
  635MOL0     H85660   2.624   8.012   1.686 -0.3514 -0.0069  0.3986
  635MOL0     H85661   2.609   7.965   1.852 -3.4719  2.3715 -2.4908
  635MOL0     H85662   2.861   7.960   1.685 -0.5122  0.3015 -0.7740
  635MOL0     H85663   2.834   7.898   1.861  1.1747 -0.3336 -0.4836
  635MOL0     H85664   2.743   8.135   1.900  2.2998 -0.2083  1.7655
  635MOL0     H85665   2.797   8.178   1.733 -2.6909  0.6795  0.6276
  635MOL0     H85666   3.011   8.060   1.913 -2.7989 -0.2908  1.1927
  635MOL0     H85667   3.020   8.152   1.762 -1.4073 -0.8613 -0.8960
  635MOL0     H85668   2.913   8.348   1.894 -0.0965 -0.5412 -3.2394
  635MOL0     H85669   2.923   8.244   2.042  2.2981  0.3569  1.1011
  635MOL0     H85670   3.175   8.231   2.001  3.0023 -0.0419 -4.7031
  635MOL0     H85671   3.154   8.345   1.869  3.4187 -1.1501  1.4388
  635MOL0     H85672   3.048   8.417   2.148 -0.9680  4.3862  0.6871
  635MOL0     H85673   3.100   8.532   2.026 -0.9439  1.2212  2.8475
  635MOL0     H85674   3.322   8.491   2.053 -0.1056 -0.8876  0.0859
  635MOL0     H85675   3.237   8.535   2.179 -2.7833  0.9712 -2.0253
  635MOL0     H85676   3.147   8.290   2.370 -1.8231 -1.1404 -4.1507
  635MOL0     H85677   3.241   8.129   2.546 -0.0748 -0.1300  0.7992
  635MOL0     H85678   3.354   8.015   2.471 -1.4684  1.3033 -2.3619
  635MOL0     H85679   3.452   8.057   2.662 -2.3450 -0.4900  0.7681
  635MOL0     H85680   3.529   8.190   2.567 -0.3058  2.9221  1.5328
  635MOL0     H85681   3.281   8.179   2.752 -0.8558  2.4372  1.1350
  635MOL0     H85682   3.313   8.323   2.655  0.5990  1.9027  0.9206
  635MOL0     H85683   3.520   8.357   2.783 -1.9037  2.1468  2.1158
  635MOL0     H85684   3.526   8.210   2.846  1.6792  1.0760 -2.1123
  635MOL0     H85685   3.307   8.545   3.078  0.9153  2.5559  1.6070
  635MOL0     H85686   3.447   8.697   3.210  1.8236 -1.1658  2.4196
  635MOL0     H85687   3.869   8.739   3.515 -2.6692  0.0100  0.6239
  635MOL0     H85688   3.987   8.915   3.616 -0.1712  0.2603 -0.7422
  635MOL0     H85689   4.056   9.158   3.765  0.9232  4.5770  3.5330
  635MOL0     H85690   4.106   9.189   3.596  0.7549 -0.8816  2.0726
  635MOL0     H85691   3.948   9.382   3.767 -0.5772  1.6187 -0.9220
  635MOL0     H85692   4.120   9.372   3.780 -0.7491  0.2883  0.3994
  635MOL0     H85693   4.148   9.401   3.535  1.0345  0.5995  2.5208
  635MOL0     H85694   3.972   9.436   3.503  1.1791 -3.6392 -1.2637
  635MOL0     H85695   4.163   9.595   3.675 -0.3402  0.1755  0.8069
  635MOL0     H85696   3.982   9.618   3.658  0.2235  0.4250 -1.6871
  635MOL0     H85697   4.088   9.763   3.528  1.6569 -0.3834  1.8366
  635MOL0     H85698   4.002   9.624   3.430  1.3649  1.2993 -1.7528
  635MOL0     H85699   4.303   9.605   3.496  1.4706 -1.1657 -1.5169
  635MOL0     H85700   4.228   9.550   3.352 -0.1276  2.0734 -2.7125
  635MOL0     H85701   4.267   9.856   3.406  1.2828  0.4793  1.1027
  635MOL0     H85702   4.204   9.784   3.271  0.6503  0.5416 -0.4143
  635MOL0     H85703   4.421   9.679   3.223 -0.1913  1.6041 -0.9281
  635MOL0     H85704   4.444   9.854   3.277 -1.1581  0.9404 -0.1873
  635MOL0     H85705   3.696   9.198   3.468 -0.9566 -0.5444 -1.1220
  635MOL0     H85706   3.583   9.022   3.365  0.5307 -1.4993 -0.8494
  635MOL0     H85707   3.791   8.467   3.128  0.1779 -0.7850  0.6695
  635MOL0     H85708   3.651   8.308   2.985  2.2540  0.6790  0.4523
  635MOL0     H85709   2.419   7.954   1.685  0.6541  0.0581  0.1282
  635MOL0     H85710   2.210   7.857   1.558 -0.1614 -0.4831 -0.7371
  635MOL0     H85711   2.064   7.524   1.274  1.0936  1.3888  0.1948
  635MOL0     H85712   1.981   7.398   1.086  3.5422  0.6606  0.1172
  635MOL0     H85713   2.060   7.348   0.854 -1.6390 -0.6893 -0.2543
  635MOL0     H85714   2.039   7.406   0.698 -3.9719  2.1251 -2.4859
  635MOL0     H85715   1.777   7.340   0.800 -0.7524 -1.8079 -1.3851
  635MOL0     H85716   1.883   7.198   0.830 -4.2684 -2.6493  0.0453
  635MOL0     H85717   1.942   7.178   0.616 -0.8865  1.3628 -0.4289
  635MOL0     H85718   1.882   7.344   0.572 -0.7352  3.0602  3.0005
  635MOL0     H85719   1.767   7.068   0.640  1.4616  1.3472  5.0904
  635MOL0     H85720   1.656   7.221   0.641 -0.8268 -1.8724 -0.4770
  635MOL0     H85721   1.646   7.144   0.245  2.2100 -2.3550 -0.0227
  635MOL0     H85722   1.998   7.770   0.857  1.9894 -0.5911 -1.0135
  635MOL0     H85723   2.052   7.962   1.120  4.3428  0.5398  2.3650
  635MOL0     H85724   2.207   7.952   1.031 -0.4285  0.3657 -0.0818
  635MOL0     H85725   2.052   7.966   0.949 -2.8921  1.8594  1.8426
  636MOL0     O85726  11.267   3.089   5.532 -0.2245  0.2293  0.3444
  636MOL0     C85727  11.173   3.164   5.522 -0.7522  0.5669  0.3236
  636MOL0     O85728  11.170   3.279   5.457  0.4383 -0.0140  0.8380
  636MOL0     C85729  11.262   3.373   5.476  0.1582  0.0970 -0.7384
  636MOL0     C85730  11.228   3.494   5.420 -0.1840 -0.0464 -0.2337
  636MOL0     C85731  11.305   3.614   5.435 -0.0865 -0.1274 -0.1515
  636MOL0     C85732  11.408   3.616   5.530 -0.0605  0.1521  0.2090
  636MOL0     O85733  11.466   3.738   5.550 -1.7713  0.3384  0.9930
  636MOL0     C85734  11.577   3.748   5.641  0.1218 -0.6883 -0.4463
  636MOL0     C85735  11.598   3.905   5.658 -0.0827 -0.0676 -0.2582
  636MOL0     C85736  11.664   3.961   5.543 -0.4681  0.1624  1.1614
  636MOL0     C85737  11.814   3.931   5.514 -1.7535  0.3026  0.5385
  636MOL0     C85738  11.875   4.041   5.434 -0.1291  0.4551  0.0492
  636MOL0     C85739  11.815   4.054   5.293  0.6972 -0.2453 -1.0705
  636MOL0     C85740  11.870   4.172   5.217 -0.4696  0.2333  1.5093
  636MOL0     C85741  11.819   4.305   5.252 -0.4511  0.2127  1.0183
  636MOL0     N85742  11.900   4.409   5.191 -0.5000  0.7289 -0.2423
  636MOL0     C85743  11.905   4.461   5.066  0.1255  0.6908  1.0080
  636MOL0     C85744  12.010   4.546   5.064  0.4290  0.4489  0.1076
  636MOL0     C85745  12.065   4.621   4.953 -0.3897 -0.2581 -0.7198
  636MOL0     C85746  12.071   4.531   4.829 -0.6370 -0.6320  0.2921
  636MOL0     C85747  12.080   4.617   4.697  0.1856  0.6704  0.7793
  636MOL0     C85748  12.216   4.675   4.661  0.8083 -0.4594  0.0517
  636MOL0     O85749  12.199   4.767   4.546 -0.0885 -0.8366 -0.4792
  636MOL0     C85750  12.247   4.720   4.428 -0.5909  0.1519 -0.1535
  636MOL0     C85751  12.246   4.819   4.330 -0.7044 -0.3668  0.2812
  636MOL0     C85752  12.276   4.791   4.197 -0.0551  0.4523 -0.2939
  636MOL0     C85753  12.327   4.654   4.168 -0.0561  0.2592  0.6334
  636MOL0     C85754  12.369   4.627   4.026  0.1205 -1.5401 -0.3036
  636MOL0     O85755  12.383   4.737   3.937 -0.2042 -0.5449 -1.1667
  636MOL0     C85756  12.442   4.713   3.814 -0.3214 -0.2175  0.7802
  636MOL0     C85757  12.557   4.635   3.805 -0.2406  0.4400 -0.1352
  636MOL0     C85758  12.600   4.601   3.672  0.0061 -0.0975 -0.0906
  636MOL0     C85759  12.545   4.670   3.562 -0.0623  0.1408 -0.1189
  636MOL0     O85760  12.604   4.661   3.433  0.0985 -0.3921 -0.3825
  636MOL0     C85761  12.700   4.747   3.397 -0.7511 -0.8673 -0.1446
  636MOL0     C85762  12.693   4.779   3.247  0.5558  0.0443  0.0949
  636MOL0     C85763  12.577   4.857   3.217  0.3737 -0.3159  0.1274
  636MOL0     C85764  12.581   4.915   3.070 -0.6904 -0.1137  0.5573
  636MOL0     C85765  12.451   5.004   3.027 -0.6849  0.4016  0.1710
  636MOL0     C85766  12.329   4.918   3.051  0.4880  0.0081 -0.1393
  636MOL0     C85767  12.207   5.007   3.026 -0.0851  1.1080 -0.5164
  636MOL0     C85768  12.083   4.919   3.033 -0.2179 -0.3651 -0.7647
  636MOL0    Cl85769  12.089   4.798   2.895 -0.2243 -0.3423 -0.0435
  636MOL0     C85770  12.448   4.763   3.579  0.5642 -0.6223  0.1327
  636MOL0     C85771  12.391   4.781   3.705 -0.5830 -0.1812  0.4175
  636MOL0     O85772  12.375   4.511   3.996 -0.5925  0.2762 -0.3913
  636MOL0     C85773  12.324   4.555   4.267 -0.9074  0.0052 -0.4330
  636MOL0     C85774  12.273   4.585   4.391 -0.7010 -1.0303 -0.4336
  636MOL0     N85775  12.063   4.550   5.193  0.9255  0.7697  0.4860
  636MOL0     N85776  11.995   4.472   5.264 -0.7022  0.8484 -0.2734
  636MOL0     C85777  11.448   3.490   5.583  0.6416  0.0014  0.3097
  636MOL0     C85778  11.372   3.368   5.566  0.3621  0.2368 -0.4425
  636MOL0     C85779  11.041   3.126   5.575 -0.0816  0.1543  0.5682
  636MOL0     C85780  10.928   3.198   5.535  0.0814 -0.2595 -0.1657
  636MOL0     C85781  10.800   3.146   5.564 -0.0317  0.0956 -0.9728
  636MOL0     C85782  10.777   3.043   5.659  0.7016  0.1598  0.3763
  636MOL0     O85783  10.657   3.006   5.722  0.5563  0.2173 -0.7274
  636MOL0     C85784  10.535   3.058   5.656 -0.3113  0.3065 -0.4029
  636MOL0     C85785  10.403   3.011   5.721 -0.0926  0.1215 -0.4676
  636MOL0     C85786  10.394   3.065   5.861 -0.1351  0.6795 -0.4738
  636MOL0     C85787  10.272   3.022   5.936  0.5769  0.1764 -0.0137
  636MOL0     C85788  10.159   3.071   5.860 -0.1996 -0.4747 -1.2065
  636MOL0     C85789  10.058   3.135   5.825 -0.0160  0.1387  0.6965
  636MOL0     C85790  10.884   2.967   5.696 -0.8383 -0.0745  0.0947
  636MOL0     C85791  11.019   3.009   5.652  0.7228  0.6568 -0.3416
  636MOL0     C85792  11.115   2.901   5.700 -0.5746  0.1897 -1.0664
  636MOL0     H85793  11.132   3.491   5.369 -1.2861  2.5857  1.4875
  636MOL0     H85794  11.271   3.700   5.379 -1.3522 -1.5777 -1.7282
  636MOL0     H85795  11.555   3.701   5.737 -0.2620 -2.2215 -1.2583
  636MOL0     H85796  11.661   3.708   5.584  2.6719  2.2084  0.9564
  636MOL0     H85797  11.664   3.927   5.742  1.7437  0.4934 -1.7649
  636MOL0     H85798  11.500   3.951   5.677 -1.0087 -1.3300 -1.6788
  636MOL0     H85799  11.656   4.070   5.540  5.1274  0.8609  0.0277
  636MOL0     H85800  11.611   3.926   5.454  1.6607 -1.6780  0.5246
  636MOL0     H85801  11.870   3.900   5.603  2.1430  2.6932 -0.8573
  636MOL0     H85802  11.812   3.848   5.442 -1.5448  2.5250 -2.1911
  636MOL0     H85803  11.868   4.130   5.497  0.8084  0.7393 -0.2328
  636MOL0     H85804  11.982   4.020   5.425  0.0594  1.7776 -1.2862
  636MOL0     H85805  11.834   3.963   5.236  1.3014  0.3640 -1.8629
  636MOL0     H85806  11.714   4.091   5.311  1.7348  0.9452  3.8000
  636MOL0     H85807  11.839   4.158   5.112 -2.3919 -1.3200  2.2206
  636MOL0     H85808  11.977   4.158   5.231  0.1407  3.0874  0.3074
  636MOL0     H85809  11.714   4.308   5.221 -0.6089 -1.1400  1.3250
  636MOL0     H85810  11.822   4.318   5.361  1.5918  0.0628  1.0258
  636MOL0     H85811  11.834   4.430   4.989 -1.4097 -2.1333  3.3552
  636MOL0     H85812  11.990   4.697   4.932 -0.6666 -0.7982 -1.7313
  636MOL0     H85813  12.165   4.661   4.973  0.2097 -1.7277 -0.6540
  636MOL0     H85814  12.166   4.475   4.832  0.7056  1.3926 -1.5435
  636MOL0     H85815  11.979   4.473   4.814  0.7596 -2.6930 -0.8752
  636MOL0     H85816  12.006   4.697   4.711  1.4933  1.8521  1.1966
  636MOL0     H85817  12.055   4.552   4.613  0.4801  2.0195 -0.3856
  636MOL0     H85818  12.293   4.598   4.657  0.3658 -0.8812 -0.5506
  636MOL0     H85819  12.257   4.733   4.745  1.1553 -0.8676  0.1657
  636MOL0     H85820  12.231   4.923   4.358 -2.2196  0.1379 -2.1041
  636MOL0     H85821  12.283   4.865   4.117  2.4914 -0.4343 -0.9966
  636MOL0     H85822  12.606   4.577   3.883 -0.6990 -0.6727 -0.6489
  636MOL0     H85823  12.686   4.537   3.652 -1.4473 -2.4668  0.8763
  636MOL0     H85824  12.687   4.837   3.458 -2.8353 -0.8751 -0.5128
  636MOL0     H85825  12.798   4.701   3.413  0.3355  1.3852  0.1342
  636MOL0     H85826  12.786   4.832   3.222  0.7576  0.5634  1.8379
  636MOL0     H85827  12.696   4.690   3.183  2.3045  0.4137 -0.3997
  636MOL0     H85828  12.493   4.787   3.220 -0.9868  1.1018 -2.0966
  636MOL0     H85829  12.573   4.942   3.286  0.3108  2.1451 -2.7122
  636MOL0     H85830  12.597   4.835   2.996 -0.7512  0.1329  0.2747
  636MOL0     H85831  12.668   4.980   3.053 -1.3743  0.7261  0.2148
  636MOL0     H85832  12.461   5.021   2.919  1.1893  0.2399  0.2867
  636MOL0     H85833  12.444   5.103   3.073  5.5452  0.7418  1.2256
  636MOL0     H85834  12.330   4.843   2.972  0.4060 -0.8730  0.6875
  636MOL0     H85835  12.328   4.881   3.154  2.5588  0.3395  0.0388
  636MOL0     H85836  12.219   5.037   2.921 -0.2282 -1.4096 -1.3165
  636MOL0     H85837  12.214   5.085   3.102  2.7307 -0.9537  1.5403
  636MOL0     H85838  12.085   4.854   3.122  0.6527 -0.6663 -0.9962
  636MOL0     H85839  11.995   4.980   3.013 -0.0810  0.6174  1.3197
  636MOL0     H85840  12.409   4.826   3.499  1.5982  1.4457  1.1642
  636MOL0     H85841  12.305   4.847   3.701 -1.6633 -1.5817 -2.1109
  636MOL0     H85842  12.347   4.452   4.244 -1.2058 -0.7119  2.1410
  636MOL0     H85843  12.259   4.496   4.451  0.9355 -0.0107  1.5737
  636MOL0     H85844  11.531   3.475   5.651  2.1543  0.5703 -1.3242
  636MOL0     H85845  11.407   3.276   5.611 -1.2737 -1.9726 -3.3512
  636MOL0     H85846  10.930   3.285   5.470 -2.9280  0.4816  0.5669
  636MOL0     H85847  10.713   3.203   5.532  0.1702  1.0216  0.0449
  636MOL0     H85848  10.539   3.031   5.550 -3.4618 -1.4504 -0.2183
  636MOL0     H85849  10.542   3.167   5.653 -1.3825  0.4009  0.0030
  636MOL0     H85850  10.411   2.902   5.717 -1.2645  0.0451 -1.1251
  636MOL0     H85851  10.315   3.039   5.662  1.3051 -0.2204 -2.8372
  636MOL0     H85852  10.395   3.175   5.857  2.2907  0.7201  0.2671
  636MOL0     H85853  10.487   3.052   5.916 -1.6545  0.1474  2.1148
  636MOL0     H85854  10.260   2.917   5.964  3.4789 -0.0202  0.7923
  636MOL0     H85855  10.274   3.067   6.035  2.3557  0.2913 -0.0695
  636MOL0     H85856   9.972   3.193   5.799 -1.0717  0.4525  4.4393
  636MOL0     H85857  10.877   2.879   5.760  4.5948 -1.8233 -1.2045
  636MOL0     H85858  11.109   2.901   5.809 -0.8426  2.5087 -1.0274
  636MOL0     H85859  11.107   2.801   5.656  3.1201 -1.2511  1.0882
  636MOL0     H85860  11.219   2.930   5.683 -0.4493  1.4706  1.4407
  637MOL0     O85861   9.348   1.143  10.738  0.1190  0.3479 -0.2636
  637MOL0     C85862   9.296   1.146  10.631  0.5306 -0.5807 -0.4416
  637MOL0     O85863   9.349   1.205  10.523 -0.1926  0.3660  0.1594
  637MOL0     C85864   9.460   1.287  10.532 -0.7667 -0.0484 -0.9925
  637MOL0     C85865   9.443   1.431  10.552  0.3359  0.5503 -0.3579
  637MOL0     C85866   9.555   1.516  10.569  0.3879 -0.2405  0.0121
  637MOL0     C85867   9.687   1.462  10.565  0.3160 -0.0134 -0.2416
  637MOL0     O85868   9.805   1.537  10.586 -0.2828 -0.0001  0.0443
  637MOL0     C85869   9.803   1.677  10.543  0.1952 -0.5040  0.5472
  637MOL0     C85870   9.801   1.676  10.392  0.3829  0.1926  0.5207
  637MOL0     C85871   9.923   1.602  10.330  0.9785  0.0315 -0.5432
  637MOL0     C85872   9.945   1.671  10.193  0.5264  0.0375  0.1313
  637MOL0     C85873   9.837   1.676  10.090 -0.6512  0.1592  0.6329
  637MOL0     C85874   9.829   1.546  10.016 -0.1406  0.6499  0.2370
  637MOL0     C85875   9.954   1.483   9.932 -0.3257 -1.0168  0.0056
  637MOL0     C85876   9.943   1.335   9.889  0.4705  0.3048 -0.0953
  637MOL0     N85877   9.851   1.297   9.779  0.2458  0.0120  0.1332
  637MOL0     C85878   9.868   1.322   9.648 -0.6107  0.0496 -0.5747
  637MOL0     C85879   9.743   1.301   9.602  0.4857 -0.1998  0.3656
  637MOL0     C85880   9.703   1.294   9.452 -0.1924  0.0005 -0.9327
  637MOL0     C85881   9.728   1.154   9.395 -0.7536  0.0213 -0.6245
  637MOL0     C85882   9.607   1.060   9.423 -0.0226 -0.0649  0.3195
  637MOL0     C85883   9.628   0.908   9.398  0.2715 -0.5649  0.0781
  637MOL0     O85884   9.682   0.895   9.268 -0.2512 -0.5493  0.1652
  637MOL0     C85885   9.606   0.872   9.156  0.3131 -1.3160  0.4251
  637MOL0     C85886   9.670   0.844   9.032 -0.1637  0.2009 -0.3571
  637MOL0     C85887   9.589   0.832   8.914 -0.0104  0.0349  0.8708
  637MOL0     C85888   9.440   0.843   8.918 -0.2611  0.4797  0.4711
  637MOL0     C85889   9.358   0.830   8.789 -0.1246 -0.4795  1.1409
  637MOL0     O85890   9.221   0.847   8.798  0.0771 -0.4998  0.0599
  637MOL0     C85891   9.126   0.819   8.696 -0.3133 -0.2093 -0.2457
  637MOL0     C85892   9.000   0.794   8.752  0.1022  0.0423  0.5477
  637MOL0     C85893   8.901   0.766   8.660  0.7312  0.3029 -0.7841
  637MOL0     C85894   8.925   0.771   8.518  0.2773  0.2210  0.8500
  637MOL0     O85895   8.839   0.746   8.410 -1.3932  0.5242  0.2140
  637MOL0     C85896   8.709   0.702   8.464 -0.4187 -0.2839 -0.2018
  637MOL0     C85897   8.608   0.667   8.358  0.4796 -0.6155  0.5995
  637MOL0     C85898   8.639   0.520   8.313 -0.5309  1.2327 -0.2822
  637MOL0     C85899   8.574   0.477   8.191 -0.0089 -0.6764 -0.2439
  637MOL0     C85900   8.604   0.332   8.140  1.0756  0.2216 -0.8382
  637MOL0     C85901   8.504   0.297   8.022  0.9185  0.3705 -0.0441
  637MOL0     C85902   8.476   0.145   8.022  0.5199  1.0016 -0.3159
  637MOL0     C85903   8.590   0.065   7.957 -0.6287  0.1545 -0.3906
  637MOL0    Cl85904   8.577  -0.120   7.985 -0.6964  0.3887 -0.3438
  637MOL0     C85905   9.041   0.830   8.479  0.2138 -0.0541 -0.6699
  637MOL0     C85906   9.145   0.845   8.562 -0.2171  0.6945  0.1972
  637MOL0     O85907   9.414   0.802   8.680 -0.1194 -0.6403 -0.4599
  637MOL0     C85908   9.391   0.862   9.042  0.4980 -0.0857 -0.4575
  637MOL0     C85909   9.464   0.870   9.157  0.6700  0.6129  0.9326
  637MOL0     N85910   9.657   1.260   9.704 -0.8399  0.0983 -0.4504
  637MOL0     N85911   9.727   1.255   9.800 -0.3131 -0.6294 -0.2582
  637MOL0     C85912   9.704   1.324  10.555 -0.3633 -0.4578 -0.2215
  637MOL0     C85913   9.595   1.235  10.526 -0.1857 -0.1702  0.0663
  637MOL0     C85914   9.157   1.098  10.629  0.9491 -0.1320 -0.0708
  637MOL0     C85915   9.118   0.985  10.701 -1.1338 -0.4921 -0.0961
  637MOL0     C85916   9.010   0.897  10.683 -0.2028  0.0433 -0.2190
  637MOL0     C85917   8.919   0.940  10.583 -0.3853  0.8821  0.2006
  637MOL0     O85918   8.815   0.863  10.544  0.0909  0.0834  0.7879
  637MOL0     C85919   8.829   0.719  10.534  1.0838 -0.0489 -1.3780
  637MOL0     C85920   8.687   0.640  10.513  1.3120  0.2483 -0.1049
  637MOL0     C85921   8.590   0.658  10.637 -0.6315 -0.1763 -0.2290
  637MOL0     C85922   8.450   0.582  10.607  0.3702 -0.2391 -0.3291
  637MOL0     C85923   8.443   0.470  10.705  0.7419  0.3885 -0.1021
  637MOL0     C85924   8.409   0.384  10.777  0.0065  0.5738 -0.1074
  637MOL0     C85925   8.934   1.057  10.514  0.5183  0.3093 -0.2457
  637MOL0     C85926   9.048   1.138  10.533 -0.2339  0.4096  0.3307
  637MOL0     C85927   9.051   1.272  10.475 -0.1017  0.1059  0.2109
  637MOL0     H85928   9.352   1.491  10.549 -0.1138  0.1085  2.2761
  637MOL0     H85929   9.528   1.619  10.586 -1.7708  0.2113 -4.5535
  637MOL0     H85930   9.711   1.718  10.587 -0.3196 -0.4018 -0.5801
  637MOL0     H85931   9.884   1.742  10.578 -1.6266  1.5630  1.2021
  637MOL0     H85932   9.780   1.777  10.355  0.4912 -0.9007 -2.9013
  637MOL0     H85933   9.709   1.621  10.370  0.9033 -0.5315  0.1178
  637MOL0     H85934   9.888   1.500  10.309 -0.5570  0.9464 -2.8035
  637MOL0     H85935  10.013   1.601  10.392  1.4077  0.1895 -1.1570
  637MOL0     H85936   9.968   1.773  10.224  1.6657 -0.3863  0.7298
  637MOL0     H85937  10.030   1.634  10.135 -0.6512 -0.4915 -1.3685
  637MOL0     H85938   9.737   1.688  10.134 -2.6050  0.0639 -3.3427
  637MOL0     H85939   9.844   1.755  10.014 -4.0998 -0.5128 -0.5654
  637MOL0     H85940   9.807   1.465  10.086  2.0372 -0.1261  0.0912
  637MOL0     H85941   9.743   1.562   9.951 -0.4246 -0.0989  0.4249
  637MOL0     H85942  10.043   1.485   9.996 -1.2763 -2.2400  1.4647
  637MOL0     H85943   9.970   1.540   9.840 -0.9002  3.4897  2.4011
  637MOL0     H85944  10.043   1.309   9.853  0.2542 -0.1813 -0.3519
  637MOL0     H85945   9.933   1.269   9.976  0.4275 -2.6278 -2.1636
  637MOL0     H85946   9.961   1.340   9.595 -2.2362 -0.7649 -3.9820
  637MOL0     H85947   9.605   1.337   9.432  1.1826  2.5054 -2.7508
  637MOL0     H85948   9.768   1.368   9.405  1.0322 -0.2246  0.3216
  637MOL0     H85949   9.768   1.156   9.293  3.2492  0.4097  0.7649
  637MOL0     H85950   9.813   1.113   9.451 -1.7853 -1.9210 -0.4031
  637MOL0     H85951   9.524   1.092   9.361 -1.2279 -2.5350  0.5270
  637MOL0     H85952   9.566   1.076   9.523 -1.2706  2.0298 -0.4795
  637MOL0     H85953   9.526   0.874   9.413 -0.4866  1.9118  0.9984
  637MOL0     H85954   9.704   0.873   9.469  1.7630  1.5361 -0.3721
  637MOL0     H85955   9.777   0.827   9.026  0.2466  2.7937 -2.4882
  637MOL0     H85956   9.647   0.806   8.826 -0.3729  3.1274 -0.4215
  637MOL0     H85957   8.985   0.787   8.860  1.4013  3.0336  1.0080
  637MOL0     H85958   8.809   0.728   8.702  1.6540 -0.9314  0.2129
  637MOL0     H85959   8.726   0.629   8.544  2.1145  2.7652  2.2884
  637MOL0     H85960   8.670   0.778   8.532 -0.8269 -2.0078  1.5850
  637MOL0     H85961   8.511   0.670   8.408  1.7606 -0.3946  3.2595
  637MOL0     H85962   8.610   0.743   8.280  0.3273 -0.9693  0.2447
  637MOL0     H85963   8.746   0.506   8.292 -0.3897  1.3600  0.3172
  637MOL0     H85964   8.613   0.454   8.396  1.8309 -0.0920 -0.5023
  637MOL0     H85965   8.593   0.552   8.114  1.6215  1.7439  2.3329
  637MOL0     H85966   8.471   0.480   8.229  0.0026  0.0642 -0.2628
  637MOL0     H85967   8.593   0.259   8.221 -1.2077  0.4235 -0.8798
  637MOL0     H85968   8.703   0.314   8.098  1.5506  0.6328  0.0782
  637MOL0     H85969   8.417   0.359   8.045  1.1246  0.5696  0.2087
  637MOL0     H85970   8.544   0.334   7.927  2.2560  0.3877  0.5018
  637MOL0     H85971   8.382   0.124   7.970  0.7880 -3.2702  0.5937
  637MOL0     H85972   8.463   0.113   8.125 -0.7986 -0.2409 -0.8415
  637MOL0     H85973   8.596   0.090   7.851 -1.0603  5.7327  0.6357
  637MOL0     H85974   8.684   0.094   8.004 -1.0206 -2.9384  2.7947
  637MOL0     H85975   9.059   0.842   8.372  0.8543  1.1291 -0.4475
  637MOL0     H85976   9.242   0.872   8.521 -0.8293 -0.6380 -2.3381
  637MOL0     H85977   9.284   0.851   9.053  0.6624  0.3579  2.1432
  637MOL0     H85978   9.416   0.883   9.253  0.5705  1.1039  0.8171
  637MOL0     H85979   9.807   1.291  10.560 -0.4428 -0.5442  1.1390
  637MOL0     H85980   9.601   1.130  10.495 -0.7925 -0.1418 -0.1534
  637MOL0     H85981   9.191   0.950  10.774 -0.2770 -1.4641 -1.3813
  637MOL0     H85982   9.014   0.812  10.751 -1.3834 -0.2673 -0.5250
  637MOL0     H85983   8.874   0.673  10.622 -0.8641  1.7998  0.7053
  637MOL0     H85984   8.887   0.692  10.445 -1.7148 -4.5257 -2.1089
  637MOL0     H85985   8.706   0.536  10.484 -1.2786 -0.5483  0.7951
  637MOL0     H85986   8.647   0.684  10.421  0.6513  0.9200  0.4910
  637MOL0     H85987   8.575   0.766  10.639  4.4350  0.7962 -0.3060
  637MOL0     H85988   8.636   0.609  10.723 -0.6491  1.0403  0.4869
  637MOL0     H85989   8.361   0.646  10.610  1.8794  1.9552  0.5065
  637MOL0     H85990   8.448   0.554  10.502  1.3920 -1.1358 -0.1307
  637MOL0     H85991   8.374   0.315  10.851 -0.8799  1.7535  0.6074
  637MOL0     H85992   8.851   1.080  10.449 -0.4114 -1.0135  0.4359
  637MOL0     H85993   8.956   1.303  10.429  0.9515  1.2443 -1.3119
  637MOL0     H85994   9.055   1.340  10.561 -0.3217 -0.1598  0.4340
  637MOL0     H85995   9.131   1.282  10.402  0.9570  1.7310  1.5138
  638MOL0     O85996   5.170   9.735   8.143  0.3798  0.5031 -0.4562
  638MOL0     C85997   5.084   9.662   8.105 -0.2862 -0.5426 -0.0366
  638MOL0     O85998   4.963   9.629   8.173 -0.3423  0.4095  0.3538
  638MOL0     C85999   4.950   9.630   8.313 -0.3558  0.5863  0.4114
  638MOL0     C86000   5.013   9.712   8.401 -0.1747  0.0239  0.4541
  638MOL0     C86001   4.984   9.700   8.533  1.0292  0.7086 -0.4036
  638MOL0     C86002   4.875   9.615   8.575  0.4517  0.4183 -0.0731
  638MOL0     O86003   4.849   9.631   8.704  0.1980 -0.5101 -0.1115
  638MOL0     C86004   4.714   9.593   8.756 -0.2425  0.0576  0.2270
  638MOL0     C86005   4.708   9.644   8.902 -0.8575 -1.2321  0.6058
  638MOL0     C86006   4.577   9.597   8.969 -1.2893 -1.1103 -0.3133
  638MOL0     C86007   4.579   9.451   9.026  0.9554  0.3455 -0.8330
  638MOL0     C86008   4.486   9.445   9.139 -0.6830  0.4222 -0.4763
  638MOL0     C86009   4.464   9.301   9.194 -1.3789  0.8794  0.3355
  638MOL0     C86010   4.409   9.204   9.087  0.8079  0.1885  0.9780
  638MOL0     C86011   4.251   9.216   9.079 -0.5746  0.0097  0.1098
  638MOL0     N86012   4.182   9.102   9.035  0.2556 -0.4651  0.3164
  638MOL0     C86013   4.089   9.035   9.103  0.4837  0.3066 -0.3787
  638MOL0     C86014   4.060   8.920   9.037  0.7822 -0.8638 -0.4807
  638MOL0     C86015   3.954   8.821   9.068  0.5594 -0.5827 -0.3101
  638MOL0     C86016   3.956   8.773   9.209  0.4418 -0.0237 -0.2026
  638MOL0     C86017   3.858   8.659   9.231  0.4552  1.1669 -0.0391
  638MOL0     C86018   3.858   8.611   9.384  0.6146  0.4022 -0.6498
  638MOL0     O86019   3.971   8.530   9.408  0.4780 -0.5073 -0.6236
  638MOL0     C86020   3.961   8.454   9.521 -0.1837 -0.8454 -0.7114
  638MOL0     C86021   4.015   8.503   9.642  0.3954  0.1278  0.5021
  638MOL0     C86022   4.023   8.431   9.758 -0.8157 -0.4682 -0.4450
  638MOL0     C86023   3.969   8.303   9.760 -0.4835 -0.7695  0.9180
  638MOL0     C86024   3.983   8.216   9.876 -0.0724 -0.3407 -0.1384
  638MOL0     O86025   4.069   8.249   9.962  0.1964  0.1678  0.4246
  638MOL0     C86026   4.095   8.160  10.063  0.3200  0.9566  0.0085
  638MOL0     C86027   4.084   8.017  10.063 -0.1531  0.1767 -0.6051
  638MOL0     C86028   4.126   7.939  10.174  0.3447 -0.4510 -0.7090
  638MOL0     C86029   4.172   8.013  10.286 -0.4231  0.6254 -0.8114
  638MOL0     O86030   4.211   7.925  10.391  0.0836 -0.2130  0.3291
  638MOL0     C86031   4.245   7.999  10.515 -0.0741  0.1717  0.4623
  638MOL0     C86032   4.121   8.040  10.596 -0.1514  0.2793  0.4876
  638MOL0     C86033   4.176   8.105  10.723  1.1091 -0.1452  0.7515
  638MOL0     C86034   4.076   8.058  10.830  1.1576 -0.2957  0.3557
  638MOL0     C86035   4.075   8.150  10.942 -0.1499  0.1251 -0.0504
  638MOL0     C86036   3.987   8.089  11.058  1.1715  0.1714  0.6684
  638MOL0     C86037   4.017   8.164  11.189 -0.3508  0.5838  0.2633
  638MOL0     C86038   4.124   8.104  11.285  0.5488  0.3969 -0.3319
  638MOL0    Cl86039   4.255   8.026  11.185  0.1718  0.1708  0.0088
  638MOL0     C86040   4.181   8.156  10.291 -0.4267 -0.0972 -0.2456
  638MOL0     C86041   4.140   8.225  10.178  0.5347 -0.0381  0.2534
  638MOL0     O86042   3.901   8.125   9.885  0.5037  0.5112 -0.2117
  638MOL0     C86043   3.907   8.249   9.648  0.5824 -0.7609  0.5110
  638MOL0     C86044   3.898   8.334   9.533  0.2390  0.5838 -0.3070
  638MOL0     N86045   4.144   8.922   8.923 -0.0263 -0.2351 -0.3843
  638MOL0     N86046   4.214   9.035   8.923 -0.2328  0.1799 -0.3486
  638MOL0     C86047   4.814   9.527   8.488  0.6866  0.1978  0.6230
  638MOL0     C86048   4.858   9.537   8.357 -0.3761 -1.3409  0.1308
  638MOL0     C86049   5.105   9.590   7.975  0.3433 -0.6502  0.0487
  638MOL0     C86050   4.996   9.509   7.929 -0.0423 -0.6475 -0.4054
  638MOL0     C86051   5.019   9.432   7.813 -0.5907  0.4528  0.7536
  638MOL0     C86052   5.121   9.458   7.719 -0.4158 -0.8336 -0.7447
  638MOL0     O86053   5.121   9.382   7.601  0.0770 -0.6516 -0.3150
  638MOL0     C86054   5.205   9.442   7.497  0.2938  0.6284 -1.1644
  638MOL0     C86055   5.155   9.574   7.441 -0.0469 -0.0744 -0.0878
  638MOL0     C86056   5.005   9.576   7.391  0.2934  1.0225 -0.4648
  638MOL0     C86057   4.946   9.715   7.380  0.1002 -0.1835  0.0434
  638MOL0     C86058   4.803   9.711   7.335 -0.1505  1.3350  0.2526
  638MOL0     C86059   4.683   9.722   7.308  0.0633 -0.9852  0.0895
  638MOL0     C86060   5.228   9.544   7.768 -0.3166 -0.5744  0.4345
  638MOL0     C86061   5.224   9.609   7.885  0.2358 -0.3917 -0.8240
  638MOL0     C86062   5.350   9.690   7.926  0.2976  0.5941 -0.1156
  638MOL0     H86063   5.085   9.787   8.372  1.8323 -1.1368  2.1981
  638MOL0     H86064   5.036   9.755   8.611  1.0918 -1.5262  1.2250
  638MOL0     H86065   4.641   9.639   8.688 -4.2588 -2.0157  2.7437
  638MOL0     H86066   4.708   9.484   8.745  2.5643 -0.0884 -0.5720
  638MOL0     H86067   4.710   9.754   8.900  0.4454 -1.1896 -2.6857
  638MOL0     H86068   4.794   9.612   8.961  1.2873  1.4072 -0.7995
  638MOL0     H86069   4.503   9.611   8.889 -0.2067  1.8421 -0.9031
  638MOL0     H86070   4.545   9.660   9.051 -1.5646 -3.2511  1.3181
  638MOL0     H86071   4.550   9.390   8.940  0.5273 -0.7166  0.0479
  638MOL0     H86072   4.681   9.425   9.055  1.2330  3.0209  0.8260
  638MOL0     H86073   4.532   9.497   9.224  0.8461 -1.3962 -0.1336
  638MOL0     H86074   4.395   9.492   9.100 -1.2861 -1.3564 -1.3232
  638MOL0     H86075   4.563   9.268   9.228 -1.1158  1.2727 -0.0296
  638MOL0     H86076   4.394   9.299   9.278  0.9733  2.5624  2.4881
  638MOL0     H86077   4.440   9.105   9.122  2.7520  0.4346  0.1012
  638MOL0     H86078   4.447   9.200   8.984 -2.3602 -1.0816 -0.2908
  638MOL0     H86079   4.205   9.245   9.174  1.6598  3.0132  0.4167
  638MOL0     H86080   4.216   9.296   9.013 -3.4291 -1.4904 -0.3594
  638MOL0     H86081   4.039   9.083   9.187  1.7242  2.3899 -0.7519
  638MOL0     H86082   3.859   8.875   9.062  2.6171  3.4885  0.4932
  638MOL0     H86083   3.954   8.740   8.994  3.7132  0.1403 -1.2644
  638MOL0     H86084   4.060   8.744   9.225  0.3447 -0.3706 -0.1860
  638MOL0     H86085   3.951   8.849   9.287  4.2811  0.4320 -0.2107
  638MOL0     H86086   3.881   8.574   9.166  1.4503 -2.0757  4.1325
  638MOL0     H86087   3.752   8.684   9.219  0.1186  0.3891  1.0883
  638MOL0     H86088   3.767   8.557   9.413  1.0244  0.5639  1.0588
  638MOL0     H86089   3.864   8.697   9.451 -1.9275 -1.0303  1.6293
  638MOL0     H86090   4.059   8.602   9.636  1.3537 -0.2438  1.1052
  638MOL0     H86091   4.064   8.475   9.848 -1.3633 -2.1841  0.6745
  638MOL0     H86092   4.041   7.966   9.977 -1.5062  1.1302 -0.5408
  638MOL0     H86093   4.129   7.832  10.192  0.4675  0.0040  2.6956
  638MOL0     H86094   4.290   7.914  10.567 -1.6682  0.7631  2.9713
  638MOL0     H86095   4.324   8.073  10.506  0.6178 -0.7177 -1.3921
  638MOL0     H86096   4.041   8.097  10.548 -0.8634  0.9512  2.3676
  638MOL0     H86097   4.059   7.953  10.619  0.2942 -0.3455 -0.5749
  638MOL0     H86098   4.276   8.068  10.742  2.0417 -1.1229 -4.5927
  638MOL0     H86099   4.182   8.213  10.702  0.9985 -0.5078 -1.3347
  638MOL0     H86100   4.092   7.954  10.860 -0.0853 -0.1279  1.6977
  638MOL0     H86101   3.972   8.065  10.799  0.5854 -3.5118  1.1291
  638MOL0     H86102   4.022   8.237  10.901 -1.9822 -0.3958  1.0720
  638MOL0     H86103   4.179   8.171  10.966  0.6329 -3.5935  0.4126
  638MOL0     H86104   3.881   8.100  11.033  1.2632  0.7849  0.5303
  638MOL0     H86105   4.002   7.981  11.068 -6.2352 -1.6149 -1.3287
  638MOL0     H86106   3.927   8.196  11.242  0.3009 -1.8009  3.0114
  638MOL0     H86107   4.061   8.263  11.171 -3.4705  2.1783  0.5801
  638MOL0     H86108   4.164   8.174  11.359  1.3366 -0.6943  0.3018
  638MOL0     H86109   4.068   8.037  11.351 -0.6853  0.7519 -0.9811
  638MOL0     H86110   4.219   8.212  10.376  0.1733 -1.0561  0.1323
  638MOL0     H86111   4.125   8.331  10.163  0.3445 -0.2435 -1.1760
  638MOL0     H86112   3.872   8.147   9.646  0.0292 -0.5905  1.4068
  638MOL0     H86113   3.859   8.287   9.443  1.4881  0.7498 -0.9518
  638MOL0     H86114   4.733   9.464   8.524 -0.7323  1.3144 -0.4563
  638MOL0     H86115   4.813   9.464   8.290  2.0686 -1.4337 -1.5467
  638MOL0     H86116   4.899   9.498   7.977 -0.4280  2.9657 -0.0741
  638MOL0     H86117   4.941   9.366   7.776 -0.1469  0.5983 -0.4754
  638MOL0     H86118   5.202   9.374   7.411  0.3954 -2.9159  1.3986
  638MOL0     H86119   5.312   9.447   7.515  0.2863  1.7957 -1.3923
  638MOL0     H86120   5.213   9.601   7.352 -3.3732  0.8371 -2.1595
  638MOL0     H86121   5.157   9.641   7.527 -2.7572 -2.3258  1.8892
  638MOL0     H86122   4.947   9.527   7.470  0.0316 -0.3351 -1.4596
  638MOL0     H86123   5.004   9.513   7.302  1.0852 -1.0352  0.9000
  638MOL0     H86124   4.944   9.759   7.481 -1.4550 -1.3364  0.5551
  638MOL0     H86125   5.002   9.778   7.311 -1.4074  0.1188 -0.9531
  638MOL0     H86126   4.579   9.726   7.282  0.3232  2.3800 -0.9353
  638MOL0     H86127   5.311   9.564   7.702  1.2350 -0.6074  2.2910
  638MOL0     H86128   5.325   9.793   7.952  1.9465  1.1077 -0.4085
  638MOL0     H86129   5.403   9.642   8.009  0.4636  0.6309 -0.1987
  638MOL0     H86130   5.435   9.695   7.858  1.3183  3.1345  1.1900
  639MOL0     O86131  10.604  10.066   7.620  0.6059 -0.0303  0.4832
  639MOL0     C86132  10.499  10.100   7.564 -0.2545  0.4768 -0.6637
  639MOL0     O86133  10.440  10.045   7.445 -0.5011  0.7660  0.5804
  639MOL0     C86134  10.528   9.950   7.378  0.1488 -0.4096  0.2433
  639MOL0     C86135  10.561   9.968   7.239 -0.2327 -0.5967  0.3879
  639MOL0     C86136  10.649   9.884   7.175 -0.7699 -0.8327 -0.2173
  639MOL0     C86137  10.723   9.787   7.247 -0.2743  0.4029 -1.3484
  639MOL0     O86138  10.814   9.705   7.192 -0.5665  1.3497  0.2857
  639MOL0     C86139  10.840   9.703   7.056 -0.4496  1.5035  0.7265
  639MOL0     C86140  10.914   9.574   7.025  1.1662  0.1041  0.3613
  639MOL0     C86141  10.915   9.548   6.878 -0.5002  0.2137 -0.4753
  639MOL0     C86142  11.013   9.446   6.823 -1.1943  0.7734  0.5894
  639MOL0     C86143  10.981   9.308   6.879 -0.0091  0.1177  0.2079
  639MOL0     C86144  11.101   9.210   6.860  0.4635  0.4370 -0.5819
  639MOL0     C86145  11.076   9.062   6.899 -0.0663 -0.5288 -0.4458
  639MOL0     C86146  11.048   8.967   6.785  0.5601  0.7472 -0.1099
  639MOL0     N86147  11.166   8.945   6.688  0.2479  0.2250 -1.2109
  639MOL0     C86148  11.275   8.874   6.718  0.5113 -0.0213  0.2475
  639MOL0     C86149  11.362   8.893   6.620 -0.1555 -0.1994  0.1074
  639MOL0     C86150  11.496   8.821   6.613 -1.0305  0.3746  1.0873
  639MOL0     C86151  11.578   8.818   6.476 -0.6855 -0.5203  0.6605
  639MOL0     C86152  11.529   8.720   6.373 -0.1866  0.4452 -0.1786
  639MOL0     C86153  11.416   8.761   6.275  0.0797 -1.6727  0.7700
  639MOL0     O86154  11.394   8.659   6.180 -0.1158 -0.3624 -0.4417
  639MOL0     C86155  11.289   8.672   6.096  0.0581 -1.3514 -0.2231
  639MOL0     C86156  11.254   8.557   6.031  0.1776  0.7966  0.4754
  639MOL0     C86157  11.136   8.538   5.960 -0.2379 -0.2395  0.0292
  639MOL0     C86158  11.042   8.644   5.949 -0.6623 -0.1078 -0.1402
  639MOL0     C86159  10.921   8.631   5.872  0.1887 -0.6204  0.3016
  639MOL0     O86160  10.829   8.732   5.883  0.4895 -0.2657  0.0692
  639MOL0     C86161  10.689   8.704   5.888 -0.5753 -0.1420 -0.4921
  639MOL0     C86162  10.611   8.795   5.825 -0.2864  0.3388 -0.1415
  639MOL0     C86163  10.469   8.779   5.830  0.2031 -0.2436  0.5046
  639MOL0     C86164  10.405   8.677   5.898 -1.5152 -0.2239  0.1845
  639MOL0     O86165  10.269   8.679   5.893 -0.5540  0.9564 -0.5682
  639MOL0     C86166  10.202   8.625   6.008  0.0572  0.6174  0.3296
  639MOL0     C86167  10.058   8.692   6.016 -0.6041  0.5785  0.1181
  639MOL0     C86168  10.083   8.848   6.019  0.1535  1.6619 -0.0346
  639MOL0     C86169   9.952   8.922   6.000 -0.4894 -1.4432  0.3245
  639MOL0     C86170   9.950   9.051   6.076  0.0454 -0.0478 -0.6832
  639MOL0     C86171   9.810   9.070   6.133  0.8248 -0.1687  0.5373
  639MOL0     C86172   9.766   8.978   6.255 -1.6550 -0.8187 -0.5998
  639MOL0     C86173   9.698   9.069   6.349 -0.3070  0.0949 -0.7776
  639MOL0    Cl86174   9.811   9.175   6.432 -0.5773  0.2776  0.4963
  639MOL0     C86175  10.487   8.575   5.960 -0.0525  0.2933  0.1477
  639MOL0     C86176  10.625   8.595   5.953  0.5325  0.3962  0.0141
  639MOL0     O86177  10.893   8.524   5.831 -0.7698  0.2665  0.5381
  639MOL0     C86178  11.077   8.772   6.010 -0.0077  0.5498 -0.3948
  639MOL0     C86179  11.198   8.781   6.078  0.7185  0.3856  0.9442
  639MOL0     N86180  11.307   8.987   6.534 -0.1730 -0.0434  0.1063
  639MOL0     N86181  11.186   9.010   6.573 -0.7070  0.0997  0.1870
  639MOL0     C86182  10.690   9.762   7.378 -0.2305  0.1906 -0.2499
  639MOL0     C86183  10.589   9.832   7.447 -0.3994 -0.4603  0.2350
  639MOL0     C86184  10.414  10.196   7.637 -0.3842 -1.0953 -0.6125
  639MOL0     C86185  10.310  10.264   7.562  0.3807  0.3809 -0.8054
  639MOL0     C86186  10.237  10.360   7.638  0.1401 -0.2658  0.4276
  639MOL0     C86187  10.257  10.402   7.770 -0.0350  1.1345  0.4373
  639MOL0     O86188  10.159  10.485   7.821  0.2637 -0.3156  0.2482
  639MOL0     C86189  10.169  10.537   7.953 -0.1527  1.0228  0.3156
  639MOL0     C86190  10.080  10.654   7.999  0.2070 -0.5882 -0.0589
  639MOL0     C86191  10.092  10.664   8.155  0.6076  0.8025  0.2016
  639MOL0     C86192  10.013  10.794   8.199 -0.0493 -0.1019 -0.1598
  639MOL0     C86193   9.862  10.777   8.177  0.3062 -0.3304  0.3190
  639MOL0     C86194   9.744  10.753   8.160 -0.6444 -0.3773 -0.0518
  639MOL0     C86195  10.355  10.333   7.834 -1.2880  0.2922  0.3680
  639MOL0     C86196  10.442  10.237   7.774  1.3436 -0.0175  0.1432
  639MOL0     C86197  10.559  10.190   7.867 -0.4423  0.0470 -0.3713
  639MOL0     H86198  10.503  10.046   7.193  2.4200  0.8215 -0.8081
  639MOL0     H86199  10.659   9.888   7.067 -0.8250 -2.5318 -0.3024
  639MOL0     H86200  10.745   9.704   7.002 -0.1688 -2.9435 -0.2635
  639MOL0     H86201  10.907   9.782   7.021 -0.9659 -0.1580 -5.1264
  639MOL0     H86202  10.878   9.489   7.084 -0.4289  1.0708  0.8456
  639MOL0     H86203  11.016   9.596   7.055  1.9766 -0.1111 -2.0744
  639MOL0     H86204  10.937   9.646   6.833  1.1454 -0.6187 -1.5831
  639MOL0     H86205  10.818   9.522   6.835 -0.4764 -3.1440  1.1573
  639MOL0     H86206  11.010   9.456   6.714 -1.8415  1.1572  0.6432
  639MOL0     H86207  11.116   9.466   6.853 -1.2311  0.5593  0.8557
  639MOL0     H86208  10.959   9.314   6.986  3.2253  2.6109  0.9002
  639MOL0     H86209  10.891   9.273   6.828 -0.9642  2.6985 -0.0745
  639MOL0     H86210  11.137   9.211   6.757 -0.7003  2.6417 -1.0366
  639MOL0     H86211  11.180   9.245   6.927  0.4926  1.8382 -1.3001
  639MOL0     H86212  10.988   9.058   6.964 -1.7952  1.7003 -2.4656
  639MOL0     H86213  11.162   9.026   6.956 -0.4903 -1.5074 -0.3925
  639MOL0     H86214  11.020   8.871   6.828 -1.2715  0.5714 -1.5933
  639MOL0     H86215  10.955   9.006   6.743  0.1035  0.4134  0.5752
  639MOL0     H86216  11.279   8.800   6.797  0.2525 -0.7967 -0.4551
  639MOL0     H86217  11.562   8.869   6.687  0.3612  0.5322 -0.2014
  639MOL0     H86218  11.493   8.718   6.648  1.4179 -1.8469 -4.1233
  639MOL0     H86219  11.575   8.919   6.434 -0.8361 -1.2563 -1.1980
  639MOL0     H86220  11.682   8.800   6.505 -1.2223 -1.2710  2.2108
  639MOL0     H86221  11.502   8.631   6.430  2.0838  0.9758  1.9108
  639MOL0     H86222  11.617   8.713   6.309  0.6672 -0.0779  1.0186
  639MOL0     H86223  11.460   8.845   6.220 -3.5222 -0.5449 -0.6803
  639MOL0     H86224  11.319   8.791   6.314  0.4588  3.2914 -1.2798
  639MOL0     H86225  11.331   8.486   6.057 -0.2551  1.0571  2.7400
  639MOL0     H86226  11.122   8.436   5.925  1.7697 -1.0547  1.4066
  639MOL0     H86227  10.654   8.874   5.764 -1.3563  2.2854  1.5256
  639MOL0     H86228  10.412   8.848   5.769  1.9861  1.5694  0.7645
  639MOL0     H86229  10.201   8.516   6.004 -2.2777  0.3093  4.1008
  639MOL0     H86230  10.258   8.661   6.095  1.0205  1.4097 -0.5877
  639MOL0     H86231   9.999   8.644   5.938  2.0017 -0.2412 -1.4702
  639MOL0     H86232  10.002   8.677   6.109  0.1931  1.6739  0.7974
  639MOL0     H86233  10.123   8.884   6.114  0.0875 -0.9995  1.0957
  639MOL0     H86234  10.146   8.866   5.931  0.6348 -1.9883 -0.6028
  639MOL0     H86235   9.872   8.855   6.033  0.0607 -2.8035 -0.9596
  639MOL0     H86236   9.940   8.939   5.892 -1.5888  0.5606  0.7154
  639MOL0     H86237   9.975   9.131   6.006 -0.4256  0.9542  0.2585
  639MOL0     H86238  10.021   9.055   6.159  0.6927 -0.1421 -1.2275
  639MOL0     H86239   9.799   9.170   6.175 -2.6293  0.1004 -0.6381
  639MOL0     H86240   9.734   9.058   6.055  2.8657  1.3348 -1.8463
  639MOL0     H86241   9.848   8.925   6.304 -1.1083  1.1682  0.7690
  639MOL0     H86242   9.697   8.896   6.236 -1.0986 -1.7581  1.2369
  639MOL0     H86243   9.620   9.120   6.291 -1.2119 -3.4888 -3.0448
  639MOL0     H86244   9.651   9.008   6.426 -2.1300  1.2066 -0.9562
  639MOL0     H86245  10.455   8.482   6.006  3.5097 -2.8879 -3.0357
  639MOL0     H86246  10.693   8.527   6.002  1.9270  2.0265  0.4204
  639MOL0     H86247  10.999   8.846   5.996 -2.2507 -1.3003  1.5557
  639MOL0     H86248  11.229   8.882   6.106  1.4455  0.6747 -0.7843
  639MOL0     H86249  10.747   9.690   7.435  0.0269 -1.8105 -2.8972
  639MOL0     H86250  10.551   9.795   7.542 -1.4268 -0.3792 -0.1297
  639MOL0     H86251  10.279  10.229   7.465 -2.6278  0.2747  0.0946
  639MOL0     H86252  10.140  10.389   7.598  0.9294 -1.9529 -3.0782
  639MOL0     H86253  10.273  10.566   7.973  0.2658  1.5010 -2.2480
  639MOL0     H86254  10.144  10.453   8.019  1.7952  0.2643  0.1650
  639MOL0     H86255   9.975  10.649   7.968  0.2328 -3.2901  0.0737
  639MOL0     H86256  10.113  10.751   7.960 -0.1489 -1.1982 -1.9946
  639MOL0     H86257  10.199  10.682   8.172  0.5278  0.9272  0.5797
  639MOL0     H86258  10.057  10.567   8.192  5.1348 -0.0380  3.1290
  639MOL0     H86259  10.036  10.801   8.305 -1.1457 -2.0096  0.2502
  639MOL0     H86260  10.050  10.884   8.148 -2.6498  4.5349  5.0157
  639MOL0     H86261   9.642  10.724   8.176 -1.6255  2.3601 -0.8145
  639MOL0     H86262  10.363  10.347   7.941  4.1610  2.0758  0.0609
  639MOL0     H86263  10.548  10.238   7.964  2.9673 -1.3071  0.7994
  639MOL0     H86264  10.562  10.082   7.877 -0.6248 -0.2244 -2.5563
  639MOL0     H86265  10.654  10.224   7.825 -0.8631  3.3527  1.0477
  640MOL0     O86266   2.028   2.462   0.644  0.1769  0.0700  0.1249
  640MOL0     C86267   1.960   2.510   0.554 -0.3109  0.3417  0.5018
  640MOL0     O86268   1.939   2.644   0.539  0.3586 -0.7969 -0.0376
  640MOL0     C86269   2.002   2.748   0.618  1.0180  0.2609  0.6002
  640MOL0     C86270   2.026   2.875   0.556  0.6255  0.1809  0.7248
  640MOL0     C86271   2.102   2.981   0.608 -0.7237  0.2798 -0.1342
  640MOL0     C86272   2.169   2.961   0.730 -0.2756 -0.1052  0.5398
  640MOL0     O86273   2.240   3.055   0.806  0.9154  0.0133 -0.1473
  640MOL0     C86274   2.281   3.167   0.728  0.7270  0.7578 -0.6840
  640MOL0     C86275   2.394   3.231   0.809  0.3294  0.3144 -0.5344
  640MOL0     C86276   2.432   3.357   0.742 -0.1386  0.8024  0.5517
  640MOL0     C86277   2.509   3.457   0.833  0.0854 -0.0857  0.2619
  640MOL0     C86278   2.532   3.599   0.777  0.6806 -0.3812  0.0414
  640MOL0     C86279   2.589   3.678   0.895  0.2201 -0.6555 -0.2083
  640MOL0     C86280   2.662   3.808   0.838  0.5353 -0.0114 -0.4085
  640MOL0     C86281   2.757   3.861   0.957  0.2279 -0.1448  0.3102
  640MOL0     N86282   2.690   3.939   1.068  0.4477  0.0098  0.6089
  640MOL0     C86283   2.754   3.995   1.178  0.2451 -0.4540 -0.4294
  640MOL0     C86284   2.659   4.055   1.251  0.5342  0.0072  1.1807
  640MOL0     C86285   2.685   4.145   1.381 -0.1955  1.4188  0.2877
  640MOL0     C86286   2.745   4.061   1.504  1.1934  0.2354 -0.2663
  640MOL0     C86287   2.762   4.157   1.625  0.3801 -0.0124  0.2125
  640MOL0     C86288   2.814   4.079   1.751  0.0261 -0.1001  1.1186
  640MOL0     O86289   2.798   4.162   1.859 -0.3081  0.3706  0.2722
  640MOL0     C86290   2.900   4.249   1.902  0.9953  0.2411 -0.1008
  640MOL0     C86291   3.023   4.267   1.843 -0.5084 -0.4710 -0.6838
  640MOL0     C86292   3.118   4.345   1.907  0.5321 -0.3418 -0.3007
  640MOL0     C86293   3.103   4.402   2.032  0.6584  0.2456 -0.5897
  640MOL0     C86294   3.218   4.457   2.115  0.6629 -0.4262  0.4247
  640MOL0     O86295   3.333   4.496   2.047 -0.3638 -0.1625  0.0695
  640MOL0     C86296   3.434   4.559   2.117  0.6053 -1.0075 -0.1930
  640MOL0     C86297   3.490   4.683   2.066 -0.9986  0.0338 -0.3102
  640MOL0     C86298   3.601   4.745   2.128 -0.3048  0.3080  0.3249
  640MOL0     C86299   3.642   4.704   2.258 -0.7456  0.0933  0.2624
  640MOL0     O86300   3.732   4.776   2.337  0.2451  0.8065 -0.7892
  640MOL0     C86301   3.674   4.838   2.450  0.5539  0.1736 -0.2541
  640MOL0     C86302   3.623   4.979   2.428 -0.3773 -0.9449  0.3120
  640MOL0     C86303   3.710   5.088   2.374 -0.4837  0.5954  1.1664
  640MOL0     C86304   3.765   5.065   2.233  0.2996  0.0371 -0.4331
  640MOL0     C86305   3.852   5.183   2.184 -0.5356  0.1413 -0.7600
  640MOL0     C86306   3.777   5.318   2.171 -0.3632  0.5326  1.1517
  640MOL0     C86307   3.864   5.437   2.131  0.0232  0.1613  0.7463
  640MOL0     C86308   3.987   5.415   2.044 -0.0865  0.4778 -0.1455
  640MOL0    Cl86309   3.908   5.371   1.878  0.1058  0.7269  0.1590
  640MOL0     C86310   3.578   4.591   2.310  0.1474 -0.7351 -0.1819
  640MOL0     C86311   3.487   4.513   2.237 -0.3970  0.1914 -0.0425
  640MOL0     O86312   3.196   4.458   2.231  0.4883  0.9476  0.0049
  640MOL0     C86313   2.968   4.400   2.081 -0.2544  0.3661  0.2511
  640MOL0     C86314   2.861   4.329   2.019 -0.5553  0.3061 -0.8123
  640MOL0     N86315   2.531   4.030   1.195 -0.5486  0.2173  0.2928
  640MOL0     N86316   2.559   3.962   1.087 -0.0593  0.2699 -0.1210
  640MOL0     C86317   2.140   2.840   0.794  0.2989 -0.3857 -0.6237
  640MOL0     C86318   2.060   2.743   0.742  0.6867 -0.0324 -1.0218
  640MOL0     C86319   1.880   2.423   0.473 -0.4443  0.6280  1.4513
  640MOL0     C86320   1.760   2.479   0.421  0.4230  0.0332 -0.0812
  640MOL0     C86321   1.670   2.406   0.347 -0.2546 -0.8149  0.3921
  640MOL0     C86322   1.697   2.274   0.321 -0.0457  0.8181 -0.8037
  640MOL0     O86323   1.611   2.189   0.263 -0.5924  0.4507  0.0627
  640MOL0     C86324   1.479   2.230   0.218 -0.6169 -0.7795 -0.9643
  640MOL0     C86325   1.419   2.099   0.170 -0.7285 -0.4306 -0.1918
  640MOL0     C86326   1.271   2.111   0.179  0.1877 -0.4507  1.5783
  640MOL0     C86327   1.208   2.186   0.056 -0.9640 -0.4432 -0.0035
  640MOL0     C86328   1.224   2.105  -0.071  0.0377  0.0129  0.2513
  640MOL0     C86329   1.260   2.052  -0.173 -0.2196  0.2124  0.3569
  640MOL0     C86330   1.817   2.215   0.358 -0.3422 -0.0177 -0.1258
  640MOL0     C86331   1.915   2.286   0.431  0.2350 -0.9209  0.4171
  640MOL0     C86332   2.049   2.233   0.456  0.0718  1.1228  0.7351
  640MOL0     H86333   1.976   2.878   0.460  0.9960 -1.1878  0.4642
  640MOL0     H86334   2.112   3.076   0.557  2.9383  1.4314  2.3025
  640MOL0     H86335   2.311   3.147   0.625  0.7496  1.0546 -0.7349
  640MOL0     H86336   2.198   3.236   0.746 -0.4177 -1.2770  2.9146
  640MOL0     H86337   2.476   3.159   0.820 -0.4654 -0.2966  2.2490
  640MOL0     H86338   2.361   3.249   0.912  1.8517 -1.6686  0.3890
  640MOL0     H86339   2.352   3.411   0.691 -0.9077  0.3572  1.2614
  640MOL0     H86340   2.506   3.336   0.665  1.9052 -0.5153  2.7296
  640MOL0     H86341   2.466   3.462   0.933  0.1149  0.2385  0.2565
  640MOL0     H86342   2.602   3.407   0.863 -0.4808 -0.9302  0.6700
  640MOL0     H86343   2.587   3.593   0.682 -1.2783 -4.2865 -1.0518
  640MOL0     H86344   2.434   3.641   0.754  1.2375  1.9493  1.5395
  640MOL0     H86345   2.508   3.700   0.965 -2.0841 -2.7652 -2.0180
  640MOL0     H86346   2.661   3.625   0.958 -0.5769  2.7416  3.9966
  640MOL0     H86347   2.590   3.886   0.811  0.5087 -0.0950 -0.5761
  640MOL0     H86348   2.730   3.767   0.763  1.4938 -1.4763  1.1900
  640MOL0     H86349   2.805   3.777   1.009 -1.6423 -2.4475 -1.4504
  640MOL0     H86350   2.835   3.926   0.918  1.4116 -1.1273  0.9773
  640MOL0     H86351   2.857   4.000   1.211 -0.3798  1.6484  1.4284
  640MOL0     H86352   2.759   4.220   1.356  2.9935 -1.0169  1.7653
  640MOL0     H86353   2.596   4.194   1.421  0.8767  2.7716  1.0881
  640MOL0     H86354   2.671   3.986   1.534  1.7757  0.5856  2.2727
  640MOL0     H86355   2.834   4.007   1.469 -0.7850 -1.7952 -2.6330
  640MOL0     H86356   2.668   4.211   1.638  0.8045  1.1251 -1.2218
  640MOL0     H86357   2.837   4.233   1.601 -2.9394  3.3205 -0.3836
  640MOL0     H86358   2.916   4.040   1.745  0.7305  1.8689 -0.6820
  640MOL0     H86359   2.760   3.984   1.764 -1.1466  0.0313 -2.0357
  640MOL0     H86360   3.050   4.215   1.751 -2.9988 -0.5164 -1.4682
  640MOL0     H86361   3.215   4.359   1.859 -0.2691  3.3424 -1.1061
  640MOL0     H86362   3.441   4.723   1.978 -3.8715 -0.6929  0.8462
  640MOL0     H86363   3.646   4.828   2.074  2.7952 -0.4938  1.4569
  640MOL0     H86364   3.589   4.781   2.489  0.3789  1.7128  1.8262
  640MOL0     H86365   3.756   4.843   2.523  0.4545  1.5835 -0.2099
  640MOL0     H86366   3.548   4.969   2.349 -0.1189 -0.0998 -0.0524
  640MOL0     H86367   3.581   5.018   2.521 -0.9304  1.7350 -0.9707
  640MOL0     H86368   3.652   5.180   2.373  1.2095  1.7168 -0.6751
  640MOL0     H86369   3.796   5.115   2.436  0.2484 -2.1783  1.4939
  640MOL0     H86370   3.679   5.063   2.166  1.6141  2.0591 -2.2990
  640MOL0     H86371   3.822   4.972   2.237 -4.3366 -3.1412  2.8295
  640MOL0     H86372   3.898   5.166   2.086 -3.1953 -1.9092 -1.7925
  640MOL0     H86373   3.935   5.182   2.256 -1.7691 -0.1501  0.7129
  640MOL0     H86374   3.726   5.291   2.078 -0.2120  0.1049  1.1941
  640MOL0     H86375   3.697   5.348   2.238 -3.7827 -1.6068 -1.6285
  640MOL0     H86376   3.901   5.464   2.231  2.9847 -1.5789  0.2652
  640MOL0     H86377   3.795   5.515   2.099 -1.5993 -0.7317  1.9755
  640MOL0     H86378   4.055   5.500   2.037  1.3574 -0.7751 -3.5251
  640MOL0     H86379   4.051   5.335   2.080  1.4709  1.8479  0.2229
  640MOL0     H86380   3.587   4.565   2.415 -6.1062  0.0536  0.9286
  640MOL0     H86381   3.464   4.415   2.277 -4.0246  0.5874 -0.8397
  640MOL0     H86382   2.962   4.441   2.182 -2.9834 -1.6276  1.0147
  640MOL0     H86383   2.760   4.323   2.058 -0.0430  0.0856  0.5188
  640MOL0     H86384   2.174   2.826   0.896 -1.5091 -0.3944  0.0139
  640MOL0     H86385   2.049   2.653   0.800 -0.8608  0.2209 -0.8828
  640MOL0     H86386   1.727   2.580   0.444 -1.4077 -0.2961 -1.0489
  640MOL0     H86387   1.582   2.462   0.320  0.7301  1.7596  2.1438
  640MOL0     H86388   1.476   2.301   0.135 -1.1362 -1.9237 -1.9685
  640MOL0     H86389   1.427   2.255   0.310  3.7066 -4.0138  2.8504
  640MOL0     H86390   1.452   2.024   0.243 -5.3879  1.5418  4.6013
  640MOL0     H86391   1.444   2.084   0.064 -1.5114 -0.8882 -0.3181
  640MOL0     H86392   1.233   2.162   0.268 -2.6395  0.6471 -0.0933
  640MOL0     H86393   1.225   2.012   0.175  3.8659 -2.3155  0.8932
  640MOL0     H86394   1.103   2.202   0.083 -0.9319  0.8117 -0.5611
  640MOL0     H86395   1.258   2.283   0.058  0.1198 -0.9836 -0.3655
  640MOL0     H86396   1.300   1.988  -0.249 -0.8381  0.0215  0.1841
  640MOL0     H86397   1.827   2.112   0.325  1.6144  0.3614 -0.8207
  640MOL0     H86398   2.064   2.217   0.563 -0.6280 -1.1098  0.5622
  640MOL0     H86399   2.072   2.133   0.417  1.8193  0.1387  3.9387
  640MOL0     H86400   2.132   2.300   0.435  1.5545  0.0207  2.7711
  641MOL0     O86401   6.150   2.784   5.957  0.0471 -0.2934 -0.2381
  641MOL0     C86402   6.112   2.879   6.021 -0.6309  0.1178  0.0828
  641MOL0     O86403   6.189   2.955   6.108  0.1130 -0.2861 -0.4998
  641MOL0     C86404   6.330   2.936   6.117 -0.2088  0.3502  0.0316
  641MOL0     C86405   6.409   2.887   6.012  1.0833 -0.2647  0.5117
  641MOL0     C86406   6.544   2.869   6.032 -0.9293  0.7971  0.3612
  641MOL0     C86407   6.615   2.909   6.151  0.7087  0.3383 -0.4597
  641MOL0     O86408   6.754   2.877   6.158  0.5042  0.9160 -0.2319
  641MOL0     C86409   6.818   2.894   6.287 -0.2387 -0.1648  0.3694
  641MOL0     C86410   6.965   2.845   6.282  0.8570 -0.7144 -0.1461
  641MOL0     C86411   6.968   2.696   6.240  0.5866  0.9990 -0.3300
  641MOL0     C86412   7.106   2.640   6.265  0.2622 -0.6374 -0.5684
  641MOL0     C86413   7.223   2.714   6.212  0.0568  0.1937  0.1944
  641MOL0     C86414   7.347   2.695   6.288 -0.2010  0.4135 -0.3783
  641MOL0     C86415   7.474   2.726   6.209 -0.1084 -0.2718  0.4525
  641MOL0     C86416   7.513   2.876   6.212 -0.7366 -0.1926 -0.3193
  641MOL0     N86417   7.463   2.961   6.090  0.4786 -0.5860  0.2245
  641MOL0     C86418   7.465   3.107   6.083  0.0498 -0.5991  0.1198
  641MOL0     C86419   7.460   3.140   5.957 -0.5481  0.5261  0.9660
  641MOL0     C86420   7.467   3.272   5.883 -0.2883  0.9535 -0.5343
  641MOL0     C86421   7.453   3.406   5.970 -0.7003  0.6863  0.2625
  641MOL0     C86422   7.311   3.413   6.019 -0.2343  0.4836 -0.3540
  641MOL0     C86423   7.219   3.439   5.898 -1.1380  0.4646 -0.4838
  641MOL0     O86424   7.091   3.496   5.912  1.0328  0.4798 -0.1052
  641MOL0     C86425   7.033   3.563   5.809 -0.3483 -1.2164  0.2279
  641MOL0     C86426   7.086   3.601   5.675 -0.3498  0.0448  0.4897
  641MOL0     C86427   7.021   3.694   5.592 -0.1807 -0.8608 -0.7471
  641MOL0     C86428   6.898   3.745   5.633  0.4553 -0.9619 -0.4747
  641MOL0     C86429   6.819   3.829   5.533 -0.5438 -0.5463 -0.8408
  641MOL0     O86430   6.709   3.893   5.598 -0.4288 -0.3581  1.0556
  641MOL0     C86431   6.632   3.998   5.545 -0.1962  0.2690 -0.2684
  641MOL0     C86432   6.493   3.986   5.581  0.0970 -0.5058 -0.4935
  641MOL0     C86433   6.412   4.094   5.559  0.4789  0.6085 -0.4109
  641MOL0     C86434   6.452   4.198   5.484 -1.2851  0.9460 -0.4667
  641MOL0     O86435   6.380   4.311   5.470  0.0350  0.4729  0.0732
  641MOL0     C86436   6.234   4.304   5.505  0.4257 -0.0022  0.0129
  641MOL0     C86437   6.182   4.447   5.490  0.6035  0.2116 -0.4111
  641MOL0     C86438   6.234   4.557   5.580  0.1479  0.5344 -0.4345
  641MOL0     C86439   6.368   4.623   5.534 -0.3967 -0.0699  0.3529
  641MOL0     C86440   6.430   4.706   5.639  0.4854  0.2446  1.1420
  641MOL0     C86441   6.582   4.728   5.608 -0.2241 -0.3907 -0.0361
  641MOL0     C86442   6.675   4.611   5.650  0.8903 -0.4327 -0.6343
  641MOL0     C86443   6.823   4.655   5.625 -0.4932 -0.8606 -0.1216
  641MOL0    Cl86444   6.914   4.499   5.626 -0.6841  0.0649 -0.2710
  641MOL0     C86445   6.586   4.208   5.431 -0.2614  0.1314  0.2608
  641MOL0     C86446   6.676   4.111   5.465 -0.8206  1.4278 -0.3747
  641MOL0     O86447   6.869   3.859   5.425  0.4630  0.2802  0.0555
  641MOL0     C86448   6.846   3.714   5.763 -0.4150  1.1038  0.1230
  641MOL0     C86449   6.917   3.623   5.845 -0.4369 -0.3090 -0.3294
  641MOL0     N86450   7.456   3.022   5.887  0.0358 -0.4603  1.2085
  641MOL0     N86451   7.463   2.920   5.967 -0.5409  0.0836 -0.0360
  641MOL0     C86452   6.534   2.957   6.254  0.0288 -0.0502 -0.7218
  641MOL0     C86453   6.394   2.972   6.236  1.2713 -0.0366 -0.8282
  641MOL0     C86454   5.967   2.911   6.027  0.3931 -1.2482  0.7111
  641MOL0     C86455   5.925   3.046   6.072 -0.4942 -0.7023 -0.6149
  641MOL0     C86456   5.802   3.103   6.057 -0.1824  0.3794 -0.4443
  641MOL0     C86457   5.705   3.015   6.000  0.3366 -1.0128  0.4977
  641MOL0     O86458   5.577   3.043   5.975  0.1490 -1.0679  0.5351
  641MOL0     C86459   5.533   3.167   6.018  0.8514 -0.4998 -0.2941
  641MOL0     C86460   5.381   3.162   6.011 -0.9329 -1.0964  0.6766
  641MOL0     C86461   5.303   3.280   6.075 -0.6896 -0.2611 -0.3022
  641MOL0     C86462   5.146   3.274   6.050 -1.1582  0.1806  0.0121
  641MOL0     C86463   5.067   3.329   6.159 -0.7459  0.1855 -0.0120
  641MOL0     C86464   4.991   3.373   6.238 -0.7392  0.4606  0.2465
  641MOL0     C86465   5.736   2.887   5.965 -1.7885  1.2191  0.7126
  641MOL0     C86466   5.862   2.828   5.963  0.4977 -1.0884  0.2516
  641MOL0     C86467   5.882   2.700   5.889  0.1428 -0.2900  0.1858
  641MOL0     H86468   6.352   2.865   5.923 -1.3218 -1.8870  2.3335
  641MOL0     H86469   6.614   2.829   5.959 -2.2595  0.3379 -0.7018
  641MOL0     H86470   6.826   3.002   6.302 -1.6307  0.3832 -2.3008
  641MOL0     H86471   6.779   2.850   6.379 -0.9820 -1.0144 -0.3291
  641MOL0     H86472   7.008   2.875   6.377  2.2139 -0.4034 -0.8367
  641MOL0     H86473   7.010   2.899   6.198 -2.7960  0.4119 -1.6044
  641MOL0     H86474   6.939   2.679   6.135 -0.5642  0.2090  0.0945
  641MOL0     H86475   6.893   2.640   6.296  2.1667  0.0540  0.9376
  641MOL0     H86476   7.120   2.651   6.373  1.1915  0.4137 -0.7781
  641MOL0     H86477   7.108   2.532   6.244  3.1130 -1.0055  1.0805
  641MOL0     H86478   7.240   2.688   6.107  4.2381  4.0878 -0.4351
  641MOL0     H86479   7.200   2.821   6.205  3.7352  1.0199 -2.4091
  641MOL0     H86480   7.340   2.752   6.380 -3.3532 -0.1814 -0.1375
  641MOL0     H86481   7.345   2.587   6.309  0.1413  0.4552 -0.1403
  641MOL0     H86482   7.470   2.696   6.104  5.5482 -1.5373  0.2983
  641MOL0     H86483   7.548   2.659   6.253 -1.2246 -0.3841  2.2816
  641MOL0     H86484   7.493   2.935   6.302  2.1856 -1.0134  1.0227
  641MOL0     H86485   7.623   2.878   6.214 -0.7234  0.1879 -1.0554
  641MOL0     H86486   7.470   3.176   6.166 -2.0966  0.9504 -0.9670
  641MOL0     H86487   7.569   3.268   5.845  1.4398 -0.2769  3.6397
  641MOL0     H86488   7.393   3.272   5.803 -1.8814  1.3728  0.8652
  641MOL0     H86489   7.528   3.408   6.050  1.2273 -1.7124 -1.3132
  641MOL0     H86490   7.474   3.482   5.894 -3.5451 -0.5325 -1.9200
  641MOL0     H86491   7.305   3.497   6.089  0.8172 -0.6708  1.2004
  641MOL0     H86492   7.281   3.333   6.087  0.3713  0.5001 -0.0599
  641MOL0     H86493   7.203   3.334   5.872  1.1431  0.2015 -1.0927
  641MOL0     H86494   7.277   3.495   5.824 -1.7495  1.3024 -0.3398
  641MOL0     H86495   7.181   3.562   5.640  0.5113  2.3163  0.0975
  641MOL0     H86496   7.038   3.697   5.485 -2.2819 -1.6563 -1.1442
  641MOL0     H86497   6.463   3.901   5.641  1.5843 -1.1195 -0.5595
  641MOL0     H86498   6.312   4.078   5.599  2.0711 -2.7998  2.8313
  641MOL0     H86499   6.184   4.246   5.427 -0.3247  0.1026  0.4002
  641MOL0     H86500   6.216   4.269   5.607 -1.9077  1.5541  0.2038
  641MOL0     H86501   6.199   4.484   5.388 -3.0551  2.4648 -0.3810
  641MOL0     H86502   6.073   4.443   5.487  0.3118  4.0399 -3.2141
  641MOL0     H86503   6.160   4.637   5.582  1.1615  1.4899 -0.4839
  641MOL0     H86504   6.243   4.517   5.681  1.7269 -0.3786 -0.8953
  641MOL0     H86505   6.354   4.669   5.436  0.3411 -0.6139 -0.0227
  641MOL0     H86506   6.440   4.543   5.515 -0.6290 -0.7606  2.2025
  641MOL0     H86507   6.421   4.661   5.738  1.1072 -0.3921  0.9224
  641MOL0     H86508   6.380   4.803   5.640 -1.1025 -0.4454 -1.7569
  641MOL0     H86509   6.593   4.772   5.509 -2.4936  0.9608  0.2308
  641MOL0     H86510   6.609   4.817   5.665 -1.2739 -0.2328  0.2419
  641MOL0     H86511   6.657   4.524   5.586 -0.6466 -1.5190  1.1766
  641MOL0     H86512   6.660   4.595   5.757  0.5214  0.8018 -0.4871
  641MOL0     H86513   6.824   4.691   5.522  0.3432 -1.5395 -0.3644
  641MOL0     H86514   6.859   4.726   5.700  2.4023  1.0566 -3.0427
  641MOL0     H86515   6.619   4.298   5.380 -1.4722  1.3597  1.5656
  641MOL0     H86516   6.767   4.106   5.406  0.2724 -2.1727  1.3529
  641MOL0     H86517   6.755   3.756   5.806 -1.8205 -1.3448 -0.2484
  641MOL0     H86518   6.885   3.607   5.947  1.1510  0.9789  0.4275
  641MOL0     H86519   6.584   2.992   6.344  2.0628 -0.3509 -1.6741
  641MOL0     H86520   6.327   3.005   6.315  0.8172  0.8147 -1.5486
  641MOL0     H86521   6.000   3.107   6.121 -2.0164  0.5806  0.2038
  641MOL0     H86522   5.782   3.207   6.079 -1.5417 -0.0389  0.4190
  641MOL0     H86523   5.576   3.248   5.958  1.6974  1.1094  2.3411
  641MOL0     H86524   5.558   3.183   6.123 -0.4741  1.4379 -0.2099
  641MOL0     H86525   5.342   3.070   6.054 -3.7637  0.3655  1.4971
  641MOL0     H86526   5.354   3.162   5.905 -0.3434  0.6597  0.4866
  641MOL0     H86527   5.333   3.378   6.036  2.7259 -1.3183 -0.6882
  641MOL0     H86528   5.333   3.292   6.179 -1.1536  0.3024 -0.2246
  641MOL0     H86529   5.121   3.323   5.955  0.9313  1.5418  0.1119
  641MOL0     H86530   5.124   3.168   6.033 -0.5430  0.0516  0.0097
  641MOL0     H86531   4.922   3.412   6.311  0.1053 -3.9661  3.8824
  641MOL0     H86532   5.658   2.828   5.918 -0.7254  0.2106  0.1587
  641MOL0     H86533   5.908   2.731   5.788  0.1148 -0.4309  0.1353
  641MOL0     H86534   5.962   2.638   5.929  2.5581  1.3282 -1.8009
  641MOL0     H86535   5.790   2.641   5.885 -1.2252  1.7420 -0.1698
  642MOL0     O86536   4.654   0.901  10.193  0.1100  0.3664 -0.8785
  642MOL0     C86537   4.658   0.857  10.308  0.1049  1.0915 -0.9681
  642MOL0     O86538   4.600   0.921  10.420 -0.0326 -0.1271  0.5654
  642MOL0     C86539   4.545   1.052  10.401 -0.1702  0.7039 -0.0407
  642MOL0     C86540   4.624   1.160  10.349  0.0532 -0.1091  0.5211
  642MOL0     C86541   4.558   1.289  10.337  0.7616 -0.5286 -0.2758
  642MOL0     C86542   4.418   1.304  10.354 -0.0069  0.4982 -0.2126
  642MOL0     O86543   4.355   1.414  10.325  0.5662 -0.6063 -0.3937
  642MOL0     C86544   4.420   1.538  10.369 -0.5100  0.1143 -0.3018
  642MOL0     C86545   4.421   1.555  10.513  0.0126 -0.2943 -1.1836
  642MOL0     C86546   4.492   1.681  10.553 -1.0316  0.5169 -0.1201
  642MOL0     C86547   4.489   1.690  10.711  1.3479 -0.9111 -0.4061
  642MOL0     C86548   4.611   1.775  10.754 -0.4882 -0.9634 -0.8732
  642MOL0     C86549   4.633   1.766  10.909  0.2341  0.2318 -0.1224
  642MOL0     C86550   4.697   1.897  10.948 -0.5517 -0.8587  0.5918
  642MOL0     C86551   4.837   1.916  10.889 -0.1635 -0.9342 -0.1334
  642MOL0     N86552   4.920   2.008  10.985  0.9102 -0.7530  0.5109
  642MOL0     C86553   4.890   2.132  11.024  0.5657  0.1743 -0.5116
  642MOL0     C86554   4.973   2.161  11.135  0.8202  0.6363  0.0776
  642MOL0     C86555   4.971   2.278  11.229  0.0999 -0.5143  0.1878
  642MOL0     C86556   4.823   2.301  11.272  0.0009 -0.3828 -0.0192
  642MOL0     C86557   4.798   2.418  11.364 -0.0393 -0.0740 -0.0999
  642MOL0     C86558   4.801   2.558  11.297 -0.0574  1.0928 -0.2629
  642MOL0     O86559   4.721   2.571  11.177  0.1023  0.8237  0.4162
  642MOL0     C86560   4.604   2.640  11.195 -1.1485  0.6269  0.0456
  642MOL0     C86561   4.532   2.649  11.321  0.4251 -0.0729 -0.2476
  642MOL0     C86562   4.404   2.708  11.319 -0.0118  0.7552  0.3616
  642MOL0     C86563   4.369   2.785  11.211 -0.0799  0.6039  0.8861
  642MOL0     C86564   4.244   2.860  11.218 -0.5215  0.6212 -0.7352
  642MOL0     O86565   4.219   2.927  11.100  0.2615 -0.2793 -0.2617
  642MOL0     C86566   4.113   3.009  11.092  0.8929 -0.2163 -0.3187
  642MOL0     C86567   4.132   3.120  11.013  0.5026 -0.4079  0.0574
  642MOL0     C86568   4.037   3.224  11.012 -0.6840 -0.9175 -1.5836
  642MOL0     C86569   3.916   3.223  11.077 -0.4765 -0.3685  0.5541
  642MOL0     O86570   3.834   3.339  11.071 -0.7666  0.7996  0.7438
  642MOL0     C86571   3.778   3.362  11.201 -0.1969 -0.5403 -0.7244
  642MOL0     C86572   3.691   3.476  11.225  1.0210  0.2404 -0.2000
  642MOL0     C86573   3.654   3.505  11.376 -0.7419 -0.3400  0.4391
  642MOL0     C86574   3.568   3.636  11.395 -0.6359 -0.0475  0.1128
  642MOL0     C86575   3.536   3.676  11.531  0.5488  0.4618  0.4467
  642MOL0     C86576   3.473   3.816  11.536  0.8754  0.3154 -0.7298
  642MOL0     C86577   3.334   3.829  11.488  0.3382 -0.4925  0.6652
  642MOL0     C86578   3.274   3.973  11.515  0.0250  0.6271  0.2073
  642MOL0    Cl86579   3.375   4.082  11.418  0.0461 -0.4339  0.0858
  642MOL0     C86580   3.903   3.106  11.160  0.3426  0.4209 -0.0153
  642MOL0     C86581   3.993   3.002  11.173 -0.6858  0.2701 -0.3949
  642MOL0     O86582   4.182   2.870  11.328  0.3318  0.6418  0.6690
  642MOL0     C86583   4.448   2.778  11.088  0.6623 -0.5963 -0.4474
  642MOL0     C86584   4.550   2.700  11.084 -0.1579 -1.5176  0.6567
  642MOL0     N86585   5.058   2.053  11.150 -0.2744 -0.2882  0.2266
  642MOL0     N86586   5.016   1.966  11.072  0.0305 -0.5426 -0.4219
  642MOL0     C86587   4.344   1.197  10.393 -0.8722  0.0715  0.2235
  642MOL0     C86588   4.412   1.077  10.415  0.6338 -0.2577  0.2633
  642MOL0     C86589   4.737   0.735  10.327 -0.8253  0.0283 -0.6006
  642MOL0     C86590   4.762   0.686  10.458  0.0867 -0.3283 -1.0915
  642MOL0     C86591   4.850   0.595  10.494  0.1933 -0.1687  0.8955
  642MOL0     C86592   4.919   0.522  10.402 -0.2641  0.2391  0.8496
  642MOL0     O86593   5.010   0.430  10.439 -0.5980 -0.7110  0.5399
  642MOL0     C86594   5.089   0.373  10.341  0.1312 -0.6783  0.1368
  642MOL0     C86595   5.233   0.325  10.398 -0.2497 -0.3055  0.0590
  642MOL0     C86596   5.253   0.174  10.409  0.0042 -0.4254 -0.7854
  642MOL0     C86597   5.392   0.125  10.382  0.3534 -0.2980 -0.7695
  642MOL0     C86598   5.460   0.177  10.259 -0.0626  1.0449 -0.0550
  642MOL0     C86599   5.515   0.232  10.166 -0.8191  0.4734 -0.1491
  642MOL0     C86600   4.884   0.546  10.264  0.6736  0.8122  0.3607
  642MOL0     C86601   4.795   0.651  10.227  0.8912  0.8412  0.4006
  642MOL0     C86602   4.781   0.669  10.081 -0.6943  0.0325  0.7086
  642MOL0     H86603   4.727   1.157  10.315  1.4735  0.3757  4.3064
  642MOL0     H86604   4.629   1.366  10.307  0.4794 -1.0187 -2.3755
  642MOL0     H86605   4.521   1.553  10.330  2.2162 -2.6023  4.6496
  642MOL0     H86606   4.363   1.621  10.326 -1.7197  0.4858  1.8571
  642MOL0     H86607   4.469   1.473  10.568  1.5652  2.6677  2.3324
  642MOL0     H86608   4.316   1.557  10.542  0.3393  0.2041  0.0352
  642MOL0     H86609   4.460   1.773  10.502  0.6891  0.4919 -1.3369
  642MOL0     H86610   4.596   1.662  10.526 -1.2276 -0.1576 -0.4195
  642MOL0     H86611   4.397   1.741  10.743 -1.0661 -3.9504 -2.0016
  642MOL0     H86612   4.485   1.594  10.762 -2.8458 -0.5493  0.2958
  642MOL0     H86613   4.698   1.742  10.698 -0.5095  1.2476 -2.3057
  642MOL0     H86614   4.602   1.881  10.730  0.6997 -0.7589 -0.4985
  642MOL0     H86615   4.536   1.758  10.957 -0.0787 -0.1846 -0.8013
  642MOL0     H86616   4.693   1.680  10.942  0.9650  0.1952 -1.4396
  642MOL0     H86617   4.711   1.902  11.056  3.0540  1.8803  0.1945
  642MOL0     H86618   4.625   1.974  10.919 -2.7236 -2.8578  0.2968
  642MOL0     H86619   4.890   1.824  10.864  3.1718 -0.0154  2.8002
  642MOL0     H86620   4.825   1.968  10.793 -2.2839  1.6160  1.3717
  642MOL0     H86621   4.814   2.205  10.998  0.3259  0.9700  2.0635
  642MOL0     H86622   5.032   2.252  11.316  0.1603 -2.5858 -0.3963
  642MOL0     H86623   5.014   2.366  11.181  0.6124 -1.4854 -1.2215
  642MOL0     H86624   4.757   2.289  11.185 -0.6351 -1.3950  0.5721
  642MOL0     H86625   4.796   2.212  11.329  0.9583 -1.1069 -0.6595
  642MOL0     H86626   4.871   2.416  11.446 -0.0303 -1.6955 -0.1191
  642MOL0     H86627   4.706   2.392  11.417  1.7331 -3.2761  1.7111
  642MOL0     H86628   4.907   2.579  11.281  0.4208 -0.1816  0.9836
  642MOL0     H86629   4.773   2.626  11.378  0.7263 -0.2487  1.1841
  642MOL0     H86630   4.563   2.614  11.419 -0.6150  0.1911  0.1871
  642MOL0     H86631   4.333   2.685  11.398 -1.8121 -2.9187 -1.9920
  642MOL0     H86632   4.217   3.141  10.950  0.6519  1.4638  0.8009
  642MOL0     H86633   4.059   3.320  10.966 -1.1616 -0.9148 -1.8135
  642MOL0     H86634   3.729   3.274  11.245 -1.3665  0.7059  0.5951
  642MOL0     H86635   3.862   3.384  11.267 -1.8293 -1.9636  2.0248
  642MOL0     H86636   3.730   3.567  11.178 -0.1141 -0.0580 -1.7965
  642MOL0     H86637   3.599   3.445  11.175  0.7493 -0.9539  0.9819
  642MOL0     H86638   3.618   3.425  11.441 -1.6741 -0.1889  0.1124
  642MOL0     H86639   3.749   3.536  11.422  1.0115 -0.5863 -2.7021
  642MOL0     H86640   3.473   3.614  11.345 -0.1548 -1.0228 -0.4191
  642MOL0     H86641   3.624   3.719  11.351 -0.8691 -0.4113 -0.9045
  642MOL0     H86642   3.630   3.670  11.586  2.9585  1.8764 -3.1479
  642MOL0     H86643   3.464   3.605  11.572  1.3110  1.6804  4.3021
  642MOL0     H86644   3.465   3.834  11.644  0.9312 -3.2855  0.0142
  642MOL0     H86645   3.538   3.888  11.486  0.1241  1.6799  0.1820
  642MOL0     H86646   3.270   3.748  11.526 -1.6655 -0.7519 -2.8053
  642MOL0     H86647   3.323   3.822  11.379 -2.0303 -1.1280  0.8837
  642MOL0     H86648   3.171   3.962  11.478  0.9052 -1.7383 -1.8215
  642MOL0     H86649   3.275   3.996  11.622  0.8210 -0.8619  0.5373
  642MOL0     H86650   3.825   3.091  11.234  2.8760 -2.0317  2.4207
  642MOL0     H86651   3.978   2.916  11.238 -0.0888 -0.3621 -1.0779
  642MOL0     H86652   4.414   2.823  10.995 -1.5726 -0.3367  0.4209
  642MOL0     H86653   4.601   2.684  10.990 -0.6537  0.4652  0.0130
  642MOL0     H86654   4.238   1.216  10.402 -1.2328 -1.5188 -0.3234
  642MOL0     H86655   4.365   0.980  10.429  3.1213 -2.0468 -2.5943
  642MOL0     H86656   4.716   0.735  10.543  0.8193  1.3844 -1.6379
  642MOL0     H86657   4.879   0.585  10.598  5.1518  3.2579  0.1593
  642MOL0     H86658   5.120   0.454  10.273 -2.6476  1.7058  1.4627
  642MOL0     H86659   5.032   0.298  10.285 -1.9871 -0.3737  1.7516
  642MOL0     H86660   5.244   0.376  10.494 -3.6062  1.7883 -0.5202
  642MOL0     H86661   5.304   0.372  10.329 -2.8643  0.4798 -2.3154
  642MOL0     H86662   5.188   0.125  10.336 -2.3664  1.9075 -0.4289
  642MOL0     H86663   5.217   0.162  10.511  0.3671  2.6417 -0.1879
  642MOL0     H86664   5.446   0.174  10.464 -2.0235  0.5256  0.3947
  642MOL0     H86665   5.387   0.017  10.400 -0.7653  0.3228  3.9760
  642MOL0     H86666   5.553   0.271  10.074  2.1710 -0.0906  0.7502
  642MOL0     H86667   4.929   0.498  10.178  3.2846  0.8006  1.6267
  642MOL0     H86668   4.682   0.643  10.042 -0.4072  3.0643 -2.5529
  642MOL0     H86669   4.799   0.772  10.049 -1.1681 -0.4843 -1.3663
  642MOL0     H86670   4.862   0.614  10.030 -0.5113  0.3477  0.6595
  643MOL0     O86671   6.710   7.722   2.714  0.1391  0.3255  0.1504
  643MOL0     C86672   6.666   7.831   2.678  0.0302 -0.1076  0.0437
  643MOL0     O86673   6.625   7.928   2.765 -0.0791  0.3683 -0.1212
  643MOL0     C86674   6.643   7.905   2.894 -0.4691 -0.6388 -0.6810
  643MOL0     C86675   6.582   7.799   2.959  0.2884 -0.4948  0.5196
  643MOL0     C86676   6.619   7.783   3.097 -0.4420  0.0074 -0.3698
  643MOL0     C86677   6.709   7.860   3.168 -0.1080 -0.1760 -0.4738
  643MOL0     O86678   6.731   7.830   3.295  0.3198 -0.6652  0.4406
  643MOL0     C86679   6.870   7.847   3.343  0.7239  0.1870 -0.2324
  643MOL0     C86680   6.904   7.761   3.470  0.5516  0.7072  0.6941
  643MOL0     C86681   6.946   7.616   3.443 -0.3118  0.6522 -0.5904
  643MOL0     C86682   6.819   7.542   3.395 -0.2030 -0.3623  0.0257
  643MOL0     C86683   6.840   7.390   3.366  0.8375 -0.0924 -0.6271
  643MOL0     C86684   6.704   7.336   3.313  0.0172 -0.3670  0.2728
  643MOL0     C86685   6.720   7.196   3.254 -0.0679 -0.0911  0.1083
  643MOL0     C86686   6.584   7.147   3.231  0.3018 -0.0577 -0.8220
  643MOL0     N86687   6.568   7.000   3.220 -0.7118  0.4713  0.2647
  643MOL0     C86688   6.595   6.919   3.112 -0.0575  0.6499 -0.2318
  643MOL0     C86689   6.571   6.795   3.153  1.0051 -0.6567  0.1520
  643MOL0     C86690   6.581   6.672   3.076 -0.1354 -0.0544 -0.2145
  643MOL0     C86691   6.696   6.583   3.128  0.0429  0.2049 -0.3392
  643MOL0     C86692   6.682   6.436   3.078  0.1302 -0.0233 -1.1696
  643MOL0     C86693   6.749   6.341   3.177 -0.8272  0.3056 -0.2245
  643MOL0     O86694   6.769   6.217   3.118  0.8478 -0.1598  0.3586
  643MOL0     C86695   6.819   6.119   3.196  0.1079  0.7717 -0.1552
  643MOL0     C86696   6.743   6.010   3.247 -0.6137  0.3812 -0.6789
  643MOL0     C86697   6.800   5.906   3.318  0.8695 -0.2798  0.0654
  643MOL0     C86698   6.938   5.897   3.325  0.2671  0.2499  0.5804
  643MOL0     C86699   7.008   5.790   3.393  0.1880  1.3904 -0.9344
  643MOL0     O86700   7.143   5.804   3.415 -0.1717 -0.6188 -0.1071
  643MOL0     C86701   7.229   5.701   3.447 -0.4097  0.4374  0.0932
  643MOL0     C86702   7.351   5.735   3.498  0.8282  0.2957  0.1072
  643MOL0     C86703   7.455   5.650   3.539 -1.1346 -0.5642 -0.1758
  643MOL0     C86704   7.412   5.514   3.544 -0.1753  0.7661  0.0251
  643MOL0     O86705   7.502   5.429   3.614  0.3202  0.0819  0.4181
  643MOL0     C86706   7.527   5.293   3.583 -0.1979  0.3549  0.4789
  643MOL0     C86707   7.680   5.258   3.586 -0.5020  0.3654 -0.2190
  643MOL0     C86708   7.731   5.275   3.731  0.4488  0.5347 -0.0140
  643MOL0     C86709   7.857   5.180   3.737  0.1251  0.2476  0.2895
  643MOL0     C86710   7.931   5.187   3.871 -0.4855 -0.1574 -0.3506
  643MOL0     C86711   8.049   5.089   3.903 -0.4884  0.1143 -0.1215
  643MOL0     C86712   8.008   4.944   3.903 -0.9897 -0.2151 -1.2139
  643MOL0     C86713   8.131   4.857   3.875 -0.6448 -0.1578 -0.4964
  643MOL0    Cl86714   8.285   4.917   3.943  0.3117 -0.1702 -0.4086
  643MOL0     C86715   7.295   5.468   3.488 -0.7267  0.0698  0.0966
  643MOL0     C86716   7.202   5.563   3.432  0.7358 -0.3344  0.0534
  643MOL0     O86717   6.934   5.698   3.428  0.3171  0.9894 -0.2635
  643MOL0     C86718   7.014   6.003   3.273  0.4935 -0.4046 -0.2859
  643MOL0     C86719   6.953   6.110   3.214  0.0447 -1.0378 -0.4196
  643MOL0     N86720   6.525   6.802   3.280 -0.1260  0.0510  0.2533
  643MOL0     N86721   6.541   6.922   3.327 -0.0937  0.0803 -0.5921
  643MOL0     C86722   6.763   7.979   3.097  0.0958 -0.1760  0.5388
  643MOL0     C86723   6.726   8.001   2.962 -0.3099  0.0511  0.5970
  643MOL0     C86724   6.650   7.865   2.524  0.3306 -0.1187  0.2619
  643MOL0     C86725   6.590   7.988   2.490 -0.3726 -0.8760  0.1198
  643MOL0     C86726   6.562   8.032   2.364 -0.6980  0.3056  0.2322
  643MOL0     C86727   6.607   7.940   2.261  0.1598  0.2915  0.4863
  643MOL0     O86728   6.600   7.975   2.130 -0.0012  0.6975 -0.3727
  643MOL0     C86729   6.489   7.914   2.062  0.3058  0.0251 -0.4881
  643MOL0     C86730   6.356   7.925   2.140  0.5333 -1.0741  0.6405
  643MOL0     C86731   6.235   7.868   2.059 -0.0808  0.6777  0.1575
  643MOL0     C86732   6.229   7.729   1.998 -0.2757 -0.6149  0.3840
  643MOL0     C86733   6.290   7.639   2.094  0.1242  0.8075 -0.1796
  643MOL0     C86734   6.332   7.573   2.186  0.8082  0.5212  0.0905
  643MOL0     C86735   6.672   7.821   2.287  0.0987  0.5451  0.1104
  643MOL0     C86736   6.704   7.786   2.419 -0.0446 -0.1941  0.3844
  643MOL0     C86737   6.791   7.655   2.437  0.6249 -0.6702 -0.1050
  643MOL0     H86738   6.523   7.723   2.910  1.6531 -0.0915 -1.8807
  643MOL0     H86739   6.588   7.692   3.147  3.5080 -0.4136  1.7087
  643MOL0     H86740   6.943   7.829   3.264 -1.3854 -0.8213 -2.0812
  643MOL0     H86741   6.877   7.954   3.364  4.4753 -0.0933  0.5018
  643MOL0     H86742   6.831   7.772   3.551  0.7950  2.6570  0.6936
  643MOL0     H86743   6.990   7.821   3.501  1.8751 -0.6924 -0.1328
  643MOL0     H86744   6.971   7.560   3.533 -1.3115 -2.7055 -2.2172
  643MOL0     H86745   7.021   7.615   3.363 -0.1063 -0.6465 -0.3936
  643MOL0     H86746   6.744   7.539   3.474 -0.5036 -2.1083 -0.2840
  643MOL0     H86747   6.763   7.592   3.316 -0.9283  0.3375  0.9642
  643MOL0     H86748   6.911   7.390   3.283  0.7140  1.2443 -0.7653
  643MOL0     H86749   6.870   7.333   3.454 -0.9469 -1.8085 -1.0625
  643MOL0     H86750   6.631   7.344   3.393 -0.4783 -1.0075 -0.1119
  643MOL0     H86751   6.669   7.393   3.226 -3.0749 -2.4552  0.0120
  643MOL0     H86752   6.765   7.134   3.333 -1.7213 -0.8662  0.4977
  643MOL0     H86753   6.770   7.190   3.157 -2.3049 -0.6336 -1.0790
  643MOL0     H86754   6.527   7.182   3.317  1.1717  2.2021 -1.0817
  643MOL0     H86755   6.548   7.180   3.133  2.1925  0.3537 -1.4227
  643MOL0     H86756   6.606   6.956   3.011 -2.2289  0.1214 -0.7194
  643MOL0     H86757   6.485   6.620   3.087 -0.6931  1.0867  0.4360
  643MOL0     H86758   6.616   6.705   2.978 -0.6222 -1.2571 -0.8111
  643MOL0     H86759   6.794   6.618   3.094 -0.1522 -2.0201 -3.7675
  643MOL0     H86760   6.680   6.579   3.236 -0.8357  2.0598 -0.3689
  643MOL0     H86761   6.732   6.439   2.981  1.4434 -0.0711 -0.5132
  643MOL0     H86762   6.577   6.414   3.057  0.1542 -0.9029 -0.4442
  643MOL0     H86763   6.682   6.332   3.263  0.4927  0.1388  0.8212
  643MOL0     H86764   6.842   6.391   3.205 -1.1586  0.9393 -0.2510
  643MOL0     H86765   6.635   6.003   3.233 -0.6499  0.4775 -0.4545
  643MOL0     H86766   6.727   5.842   3.366  0.2784  0.5091  0.2504
  643MOL0     H86767   7.368   5.841   3.511 -0.7561  0.3781  1.8834
  643MOL0     H86768   7.551   5.679   3.581 -0.9492  2.1929 -2.2114
  643MOL0     H86769   7.469   5.235   3.656  0.4828  2.1301  2.5584
  643MOL0     H86770   7.478   5.270   3.488 -2.9127  4.7734  0.5050
  643MOL0     H86771   7.686   5.151   3.565 -0.4991  0.2338  0.4374
  643MOL0     H86772   7.748   5.315   3.523 -0.1282  0.2750  0.0974
  643MOL0     H86773   7.745   5.382   3.746 -0.0935  0.2049  3.7857
  643MOL0     H86774   7.648   5.258   3.800 -1.4159  6.0832 -0.3843
  643MOL0     H86775   7.917   5.190   3.646 -2.9167 -0.3097 -1.9316
  643MOL0     H86776   7.815   5.079   3.729  0.2511  0.1304  1.0472
  643MOL0     H86777   7.862   5.175   3.955  0.0744 -2.8061 -0.1760
  643MOL0     H86778   7.972   5.288   3.882 -0.3349 -0.1913 -0.5900
  643MOL0     H86779   8.123   5.109   3.824 -0.4776  0.0324 -0.1323
  643MOL0     H86780   8.093   5.113   4.000  0.4045 -1.7379 -0.0154
  643MOL0     H86781   7.938   4.922   3.822  0.3359 -1.5538 -2.0455
  643MOL0     H86782   7.968   4.937   4.005 -2.6905  5.6350 -1.1511
  643MOL0     H86783   8.121   4.752   3.903  0.8418 -0.4992 -1.1691
  643MOL0     H86784   8.151   4.863   3.768  0.6388  1.6777 -0.1935
  643MOL0     H86785   7.273   5.364   3.509  2.4423 -0.5488  0.8199
  643MOL0     H86786   7.112   5.512   3.401  3.0847 -4.0317 -1.4729
  643MOL0     H86787   7.122   5.994   3.281  0.6571  1.6350  0.4099
  643MOL0     H86788   7.003   6.188   3.156 -1.2063  0.3367  0.2935
  643MOL0     H86789   6.836   8.054   3.127  1.5092 -0.4781 -1.8988
  643MOL0     H86790   6.764   8.092   2.917  0.3277 -1.8219 -2.9823
  643MOL0     H86791   6.556   8.051   2.571 -0.2775 -1.1757  0.3939
  643MOL0     H86792   6.524   8.133   2.354 -0.5612  0.9165  4.2398
  643MOL0     H86793   6.511   7.807   2.061  1.9812  0.3504 -1.1317
  643MOL0     H86794   6.473   7.961   1.965  0.5604 -2.7911 -1.9737
  643MOL0     H86795   6.319   8.027   2.155  0.8350 -0.4921 -2.0577
  643MOL0     H86796   6.368   7.861   2.227 -0.9412 -0.2162  1.5251
  643MOL0     H86797   6.221   7.937   1.975 -2.5559  0.2607  0.1745
  643MOL0     H86798   6.147   7.884   2.121 -0.9567  3.2122 -1.5646
  643MOL0     H86799   6.126   7.699   1.980 -1.0256  0.7096  2.1336
  643MOL0     H86800   6.295   7.734   1.910 -0.1993  3.4579  0.4798
  643MOL0     H86801   6.369   7.504   2.260  0.9495  0.7329  0.2176
  643MOL0     H86802   6.706   7.756   2.207 -1.3026  1.3936 -1.2296
  643MOL0     H86803   6.856   7.629   2.354 -1.2338  0.0117 -1.8692
  643MOL0     H86804   6.854   7.656   2.527 -1.4205 -0.9604  1.4301
  643MOL0     H86805   6.721   7.571   2.452  0.5591 -0.5085  0.5274
  644MOL0     O86806   1.551   7.197   9.090  0.8163  0.2458  0.0681
  644MOL0     C86807   1.473   7.232   9.010  0.4984  0.2195  0.3094
  644MOL0     O86808   1.495   7.247   8.877 -0.1915 -0.3833  1.0859
  644MOL0     C86809   1.603   7.184   8.824 -1.0845 -0.3756  0.4104
  644MOL0     C86810   1.595   7.053   8.773  0.1841 -0.0148 -0.7769
  644MOL0     C86811   1.695   7.006   8.687 -0.0475 -0.2490  0.0897
  644MOL0     C86812   1.810   7.076   8.664  0.3908 -0.2528  0.0550
  644MOL0     O86813   1.908   7.014   8.590 -0.1212 -0.7825 -0.2009
  644MOL0     C86814   1.898   7.010   8.449  0.8913  0.4612 -0.0600
  644MOL0     C86815   2.022   6.941   8.402 -0.0635  1.2088 -0.2791
  644MOL0     C86816   2.020   6.783   8.384 -0.0904 -0.0868 -0.5619
  644MOL0     C86817   1.925   6.718   8.486  0.3699 -0.1610 -0.1071
  644MOL0     C86818   1.916   6.568   8.459 -0.4089  1.5866  1.1370
  644MOL0     C86819   1.822   6.493   8.549  0.5056 -0.7582 -0.5576
  644MOL0     C86820   1.794   6.344   8.520  0.8103 -0.8653 -0.4521
  644MOL0     C86821   1.913   6.250   8.564 -0.7141 -0.1347 -1.0225
  644MOL0     N86822   1.879   6.112   8.531 -0.0782 -0.3955  0.2155
  644MOL0     C86823   1.840   6.066   8.407  0.9587  0.5882 -0.2680
  644MOL0     C86824   1.851   5.934   8.400  0.2276  1.0622  0.4441
  644MOL0     C86825   1.802   5.840   8.286 -0.1246  0.2198  0.4593
  644MOL0     C86826   1.673   5.759   8.329  0.1210 -0.8272  0.8191
  644MOL0     C86827   1.691   5.609   8.369 -0.4186 -0.4082 -0.8182
  644MOL0     C86828   1.774   5.601   8.496 -0.2768 -0.3653 -0.7755
  644MOL0     O86829   1.785   5.472   8.548  0.5397  0.2521 -0.2674
  644MOL0     C86830   1.858   5.445   8.657  0.4948 -0.3663 -0.0662
  644MOL0     C86831   1.929   5.543   8.735 -0.1564 -0.4580  0.2828
  644MOL0     C86832   2.013   5.518   8.835 -0.7114 -0.1133 -0.3029
  644MOL0     C86833   2.036   5.387   8.875 -0.0841 -0.0997 -0.4576
  644MOL0     C86834   2.143   5.363   8.983 -0.3847 -0.6634 -0.3557
  644MOL0     O86835   2.199   5.239   8.991  0.3821 -0.2676 -0.4531
  644MOL0     C86836   2.304   5.225   9.075  0.3543  0.5116  1.8662
  644MOL0     C86837   2.422   5.307   9.054 -0.2242  0.4381  0.1135
  644MOL0     C86838   2.534   5.281   9.139  1.1726  0.2985 -0.7508
  644MOL0     C86839   2.529   5.166   9.228 -1.0534  0.2435 -1.0659
  644MOL0     O86840   2.634   5.141   9.322 -0.1037 -0.3348  0.4558
  644MOL0     C86841   2.716   5.244   9.369  0.6537 -0.2886  0.1095
  644MOL0     C86842   2.754   5.212   9.511  0.8640 -0.0148  1.1429
  644MOL0     C86843   2.634   5.184   9.609 -0.4728 -0.6024  0.3354
  644MOL0     C86844   2.592   5.039   9.631  0.0361  0.1462 -0.1028
  644MOL0     C86845   2.475   5.018   9.728 -0.9718 -0.2067  0.4730
  644MOL0     C86846   2.425   4.878   9.740  1.0168 -0.5784  0.0836
  644MOL0     C86847   2.526   4.773   9.778  0.2244 -0.4131 -0.5182
  644MOL0     C86848   2.452   4.649   9.819  0.2970 -0.1921  0.0015
  644MOL0    Cl86849   2.357   4.664   9.974  0.3528 -0.2961  0.1233
  644MOL0     C86850   2.411   5.088   9.235  0.5721 -0.4444 -0.2681
  644MOL0     C86851   2.300   5.124   9.159  0.8612 -0.3652 -0.4843
  644MOL0     O86852   2.181   5.462   9.040 -1.1960 -0.0060  0.1260
  644MOL0     C86853   1.970   5.283   8.803  0.6097  0.2779 -0.3264
  644MOL0     C86854   1.877   5.308   8.700 -0.4407 -0.0480  0.5925
  644MOL0     N86855   1.896   5.900   8.525 -0.4630  0.1212  0.9308
  644MOL0     N86856   1.905   5.998   8.606 -0.2674 -0.7417  0.6566
  644MOL0     C86857   1.821   7.206   8.707 -0.8917 -0.3569 -0.6468
  644MOL0     C86858   1.722   7.258   8.794  0.2619  0.1528 -0.6945
  644MOL0     C86859   1.335   7.265   9.037 -0.2012  0.8225  0.4733
  644MOL0     C86860   1.272   7.361   8.965  0.6423 -1.4096 -0.2459
  644MOL0     C86861   1.144   7.418   8.995  0.4922 -0.4897  0.2286
  644MOL0     C86862   1.081   7.378   9.114 -0.4569 -0.4998  0.2760
  644MOL0     O86863   0.966   7.429   9.161 -0.1065  0.1818 -1.0004
  644MOL0     C86864   0.928   7.568   9.141  0.9766  0.8770 -0.0787
  644MOL0     C86865   0.835   7.626   9.252 -0.1730  1.2179  0.2277
  644MOL0     C86866   0.910   7.597   9.379 -0.2349 -0.3740 -0.4290
  644MOL0     C86867   0.823   7.656   9.496 -0.0555 -0.4979 -0.1975
  644MOL0     C86868   0.899   7.656   9.623 -0.3358 -0.5093 -0.2856
  644MOL0     C86869   0.952   7.682   9.734 -0.1942  0.1031  0.3483
  644MOL0     C86870   1.139   7.284   9.192  0.3105 -0.0592  0.0653
  644MOL0     C86871   1.260   7.223   9.153 -1.0027  0.3893 -0.0211
  644MOL0     C86872   1.323   7.119   9.240 -0.2255 -0.2776 -0.0985
  644MOL0     H86873   1.501   7.006   8.801 -0.4873  2.6905  2.1451
  644MOL0     H86874   1.687   6.901   8.662  2.5198 -0.5315  0.1417
  644MOL0     H86875   1.808   6.964   8.407  2.3741 -3.2354  0.4284
  644MOL0     H86876   1.907   7.113   8.412 -3.2914  0.7301 -0.7666
  644MOL0     H86877   2.104   6.962   8.471 -0.2118 -1.2457  0.7332
  644MOL0     H86878   2.048   6.991   8.308 -1.7487  1.9584 -0.3938
  644MOL0     H86879   2.120   6.742   8.400 -0.0551 -0.2106 -1.0969
  644MOL0     H86880   1.992   6.767   8.280  2.5359 -2.5706 -0.9862
  644MOL0     H86881   1.965   6.729   8.587  2.3997 -0.5277 -0.8247
  644MOL0     H86882   1.823   6.754   8.476  0.9265  1.2523 -1.0373
  644MOL0     H86883   1.893   6.554   8.353  0.5712  1.8619  0.8770
  644MOL0     H86884   2.015   6.523   8.461 -0.5227  0.5473 -3.8594
  644MOL0     H86885   1.861   6.489   8.651 -1.9430 -0.9267  0.4483
  644MOL0     H86886   1.726   6.546   8.551  0.1035 -1.4661  1.1047
  644MOL0     H86887   1.779   6.338   8.412 -2.1645 -3.2070 -0.0530
  644MOL0     H86888   1.695   6.321   8.562 -1.4040  1.7549 -3.6696
  644MOL0     H86889   2.005   6.285   8.517 -0.9758 -1.8191 -2.9514
  644MOL0     H86890   1.928   6.263   8.671 -0.1721  2.1325 -1.3150
  644MOL0     H86891   1.813   6.136   8.329  0.2615  2.5234  1.5977
  644MOL0     H86892   1.785   5.902   8.197  0.7658  0.4799  0.4593
  644MOL0     H86893   1.884   5.771   8.265 -0.2850 -0.2587  1.3497
  644MOL0     H86894   1.620   5.807   8.411 -1.1391 -1.3411  0.3314
  644MOL0     H86895   1.596   5.761   8.252 -0.2087  1.0978  1.1667
  644MOL0     H86896   1.751   5.551   8.298 -1.3380 -1.7996 -0.5107
  644MOL0     H86897   1.591   5.565   8.380  0.0484 -1.5662 -1.0309
  644MOL0     H86898   1.737   5.670   8.573  3.6782 -0.1529  1.1963
  644MOL0     H86899   1.873   5.640   8.472  0.6503 -1.4287  1.0506
  644MOL0     H86900   1.924   5.651   8.729  1.6029  0.0810  4.8688
  644MOL0     H86901   2.071   5.600   8.875 -2.0630 -0.3871  2.4426
  644MOL0     H86902   2.434   5.387   8.981  1.7543  0.0063 -0.0704
  644MOL0     H86903   2.628   5.334   9.131 -0.0934  2.9745  0.8676
  644MOL0     H86904   2.806   5.236   9.307 -0.2359 -1.2713 -1.1022
  644MOL0     H86905   2.680   5.347   9.359 -0.1345 -0.0762  3.8316
  644MOL0     H86906   2.822   5.127   9.499 -0.0975 -0.4235 -2.4204
  644MOL0     H86907   2.802   5.307   9.538  1.6558 -0.7904  2.6410
  644MOL0     H86908   2.670   5.227   9.703 -0.5061 -2.4498  1.2258
  644MOL0     H86909   2.544   5.239   9.580  0.6908 -0.1830 -2.9514
  644MOL0     H86910   2.680   4.990   9.674 -1.1145 -1.8175  0.1215
  644MOL0     H86911   2.562   4.988   9.539 -0.2725 -1.2573  0.7475
  644MOL0     H86912   2.389   5.085   9.715 -0.3331  0.3745 -0.9929
  644MOL0     H86913   2.524   5.046   9.822 -1.1306  0.2583  0.4217
  644MOL0     H86914   2.336   4.881   9.803 -0.2012  0.0996 -1.5773
  644MOL0     H86915   2.370   4.854   9.648 -5.1200  1.5774  2.6881
  644MOL0     H86916   2.580   4.805   9.868 -0.5420  3.5645 -1.2851
  644MOL0     H86917   2.603   4.758   9.702  3.7482  0.6118  2.5356
  644MOL0     H86918   2.384   4.627   9.737 -0.1728 -1.4186  0.6775
  644MOL0     H86919   2.524   4.567   9.828  1.5781  0.6468 -1.9270
  644MOL0     H86920   2.405   5.004   9.303 -4.6490  0.4402  0.7642
  644MOL0     H86921   2.213   5.063   9.176  2.1052 -1.4207  2.7144
  644MOL0     H86922   1.984   5.177   8.823  1.9975  0.9953  3.5102
  644MOL0     H86923   1.826   5.227   8.650  0.6358 -0.5699  0.3186
  644MOL0     H86924   1.917   7.254   8.689  0.1634 -1.5368  1.5138
  644MOL0     H86925   1.729   7.360   8.832  1.1125  0.3553 -1.3573
  644MOL0     H86926   1.322   7.406   8.879 -0.9455  1.5985  0.2956
  644MOL0     H86927   1.098   7.498   8.938  2.3187 -0.2039 -0.9483
  644MOL0     H86928   0.872   7.564   9.047  2.7794  1.9674 -1.2636
  644MOL0     H86929   1.010   7.639   9.128  2.1831 -0.2219  1.1619
  644MOL0     H86930   0.749   7.561   9.233  1.9467 -1.7719  0.1860
  644MOL0     H86931   0.801   7.729   9.243 -4.7392  0.2755  3.0368
  644MOL0     H86932   1.012   7.635   9.393 -1.3639  3.3255 -1.1383
  644MOL0     H86933   0.909   7.490   9.404  0.0918  0.2920  2.8456
  644MOL0     H86934   0.784   7.755   9.472  0.5242  0.3310  2.0651
  644MOL0     H86935   0.733   7.594   9.502 -0.4276 -0.0247 -0.7408
  644MOL0     H86936   1.004   7.691   9.827  1.6158 -0.9190 -0.4897
  644MOL0     H86937   1.091   7.248   9.282 -0.2599 -0.7911 -0.5335
  644MOL0     H86938   1.243   7.071   9.297 -0.5037 -1.4958 -1.4641
  644MOL0     H86939   1.379   7.038   9.192  1.8049  0.4546  0.9181
  644MOL0     H86940   1.388   7.170   9.312  2.0207 -1.8858 -0.8936
  645MOL0     O86941   2.713   3.143   1.290  0.5554  0.5506 -1.1097
  645MOL0     C86942   2.810   3.066   1.276 -0.5566 -0.1818 -0.7017
  645MOL0     O86943   2.800   2.935   1.236  0.0300 -0.0024  0.2986
  645MOL0     C86944   2.678   2.877   1.220 -0.5450  0.0369 -0.0831
  645MOL0     C86945   2.659   2.812   1.099  0.5128  0.0182 -0.1683
  645MOL0     C86946   2.539   2.745   1.065  0.1781 -0.5573 -0.3610
  645MOL0     C86947   2.433   2.751   1.153 -0.2779 -0.5906 -0.6051
  645MOL0     O86948   2.301   2.707   1.138  0.2141 -0.5138  0.0309
  645MOL0     C86949   2.288   2.606   1.039  0.0693 -0.7767 -1.1957
  645MOL0     C86950   2.163   2.515   1.057 -0.4124  0.5760  0.2655
  645MOL0     C86951   2.159   2.389   0.964  0.8250 -0.2987 -0.6734
  645MOL0     C86952   2.033   2.299   0.973 -0.1523  0.0216  0.0141
  645MOL0     C86953   2.022   2.231   1.107 -1.6468 -0.0391  0.3798
  645MOL0     C86954   1.950   2.326   1.210  0.5690  0.4245  0.4875
  645MOL0     C86955   1.921   2.268   1.347  0.1578 -0.3233 -0.0341
  645MOL0     C86956   2.047   2.255   1.433 -0.2036 -0.8723  0.7435
  645MOL0     N86957   2.032   2.228   1.573  0.5666  0.7107  0.2355
  645MOL0     C86958   2.102   2.132   1.643 -0.0678  0.3511 -0.1218
  645MOL0     C86959   2.062   2.148   1.776 -0.0363  1.3024  0.4820
  645MOL0     C86960   2.107   2.056   1.893 -0.6638 -0.2771  0.6920
  645MOL0     C86961   2.215   2.136   1.967 -0.3361  0.3840 -0.0091
  645MOL0     C86962   2.247   2.053   2.093 -0.8705  0.1746  1.0780
  645MOL0     C86963   2.367   2.099   2.166  0.4613 -0.6466 -0.1726
  645MOL0     O86964   2.344   2.218   2.247 -0.3018 -0.3085  1.0302
  645MOL0     C86965   2.261   2.203   2.353 -0.8160  0.0755  0.5057
  645MOL0     C86966   2.216   2.088   2.408  0.2022  0.5771  0.1309
  645MOL0     C86967   2.143   2.083   2.526 -0.5871 -0.4340  0.0704
  645MOL0     C86968   2.094   2.209   2.589 -0.2324  0.3716  0.0390
  645MOL0     C86969   2.011   2.205   2.708 -0.3111 -1.4715 -0.9318
  645MOL0     O86970   1.948   2.328   2.745  0.9198 -0.4851  0.6124
  645MOL0     C86971   1.849   2.344   2.844  0.3215 -0.7776  0.8518
  645MOL0     C86972   1.832   2.256   2.958  0.6470 -0.1054  0.3874
  645MOL0     C86973   1.732   2.279   3.052 -0.6815  0.3935  1.0211
  645MOL0     C86974   1.638   2.376   3.038 -0.6105 -0.3690 -0.8567
  645MOL0     O86975   1.536   2.388   3.132  0.5780 -0.1970 -0.4580
  645MOL0     C86976   1.562   2.337   3.268  1.2141 -0.0654 -0.0130
  645MOL0     C86977   1.426   2.364   3.341  0.0871 -0.6404  0.4204
  645MOL0     C86978   1.313   2.269   3.287 -0.9798 -0.3127 -0.6312
  645MOL0     C86979   1.187   2.281   3.385 -0.0747  0.6276  0.4478
  645MOL0     C86980   1.131   2.418   3.392 -0.1691  0.7646  0.2575
  645MOL0     C86981   0.984   2.420   3.443 -0.3122  0.7405 -0.0066
  645MOL0     C86982   0.922   2.564   3.468 -0.5033 -0.1116  0.0406
  645MOL0     C86983   0.925   2.636   3.339 -0.1624  0.7491 -0.0521
  645MOL0    Cl86984   0.865   2.804   3.359  0.5965  0.0947 -0.1615
  645MOL0     C86985   1.654   2.469   2.930  0.2194  0.5199 -0.4891
  645MOL0     C86986   1.758   2.452   2.832 -0.7036  0.3203 -0.0700
  645MOL0     O86987   1.977   2.095   2.745  0.6159 -0.2270 -0.1856
  645MOL0     C86988   2.153   2.325   2.541  0.3277  1.3842 -0.2668
  645MOL0     C86989   2.226   2.317   2.423 -0.9635 -0.9866 -0.9009
  645MOL0     N86990   1.973   2.254   1.783 -0.5691 -0.2172  0.3638
  645MOL0     N86991   1.948   2.295   1.666  0.0704  0.6808  0.7683
  645MOL0     C86992   2.447   2.819   1.273 -0.1287  0.1203 -0.3142
  645MOL0     C86993   2.567   2.872   1.309  0.3439 -0.2260 -0.1905
  645MOL0     C86994   2.944   3.131   1.297  0.0718  1.1832 -0.1697
  645MOL0     C86995   3.048   3.087   1.214  0.6469 -0.1202 -0.6014
  645MOL0     C86996   3.171   3.152   1.218  0.5437 -0.3534 -0.4109
  645MOL0     C86997   3.203   3.258   1.297  0.3240 -0.8263  0.9218
  645MOL0     O86998   3.318   3.330   1.302 -1.0216  0.5098  0.2908
  645MOL0     C86999   3.419   3.303   1.204 -0.2760  0.0405 -0.2981
  645MOL0     C87000   3.369   3.349   1.069 -1.0508 -0.3303  0.1352
  645MOL0     C87001   3.297   3.484   1.073  0.0400  0.2946  0.5380
  645MOL0     C87002   3.278   3.538   0.931  0.1727 -0.9528  0.3720
  645MOL0     C87003   3.211   3.669   0.943  0.9741 -0.1663  0.1990
  645MOL0     C87004   3.188   3.791   0.950  1.6594  0.5681  0.2586
  645MOL0     C87005   3.100   3.301   1.378  0.0127 -1.2057 -0.7048
  645MOL0     C87006   2.976   3.241   1.371  0.4244 -0.1431 -0.8676
  645MOL0     C87007   2.876   3.322   1.448 -0.3603 -1.0419 -1.1518
  645MOL0     H87008   2.745   2.821   1.033 -0.0609 -0.7986 -1.0597
  645MOL0     H87009   2.534   2.692   0.970  0.5832  1.2736 -1.4559
  645MOL0     H87010   2.264   2.649   0.941 -3.1593 -2.6093 -1.3612
  645MOL0     H87011   2.381   2.550   1.038  1.1414  0.8469  0.7685
  645MOL0     H87012   2.072   2.574   1.041 -0.7117  0.9365  2.9025
  645MOL0     H87013   2.172   2.499   1.165 -0.7711  4.7907  1.1091
  645MOL0     H87014   2.250   2.330   0.982  2.3018  2.3905  1.4214
  645MOL0     H87015   2.156   2.424   0.860 -3.2659  0.8230 -0.3314
  645MOL0     H87016   1.942   2.358   0.961 -1.0331 -1.2347  0.4203
  645MOL0     H87017   2.041   2.231   0.888  1.9365  0.9397 -0.6059
  645MOL0     H87018   1.960   2.142   1.094 -0.3761 -1.0737  1.2098
  645MOL0     H87019   2.119   2.205   1.150 -1.5762  0.1208  0.3182
  645MOL0     H87020   2.001   2.420   1.233 -0.4148  1.8462 -2.6640
  645MOL0     H87021   1.850   2.345   1.171  1.4104 -1.5868 -3.1259
  645MOL0     H87022   1.882   2.167   1.329  3.4739 -1.2980 -2.6256
  645MOL0     H87023   1.850   2.335   1.397  0.3906  1.1519 -1.5983
  645MOL0     H87024   2.108   2.175   1.391 -0.4241 -1.2895  1.2071
  645MOL0     H87025   2.097   2.352   1.425 -0.3331 -0.9397 -1.6923
  645MOL0     H87026   2.185   2.067   1.617  0.3514 -1.4083  4.5732
  645MOL0     H87027   2.029   2.031   1.965 -1.1122 -2.3322 -0.4218
  645MOL0     H87028   2.155   1.965   1.857 -2.9461 -1.0339 -0.6847
  645MOL0     H87029   2.299   2.150   1.899 -0.0675 -4.2840 -0.9362
  645MOL0     H87030   2.184   2.235   2.004  0.5576  1.2395 -1.4550
  645MOL0     H87031   2.278   1.953   2.061  0.7462  0.1827  2.4634
  645MOL0     H87032   2.160   2.045   2.158 -0.3826 -1.4226  1.5860
  645MOL0     H87033   2.435   2.121   2.083 -1.6652  1.7371 -1.4163
  645MOL0     H87034   2.420   2.024   2.225  0.6830 -0.3602 -0.0067
  645MOL0     H87035   2.251   1.989   2.379  0.2375  0.9654 -1.2153
  645MOL0     H87036   2.128   1.984   2.567  1.2942 -0.9884 -0.4464
  645MOL0     H87037   1.902   2.176   2.979  1.0078 -0.0197 -0.4336
  645MOL0     H87038   1.732   2.209   3.134 -4.1825 -1.2127 -0.1643
  645MOL0     H87039   1.591   2.233   3.282 -0.7876 -0.3260  2.8010
  645MOL0     H87040   1.644   2.396   3.309  1.2153  1.0270 -1.4840
  645MOL0     H87041   1.451   2.350   3.446  0.0406  2.3202  0.9109
  645MOL0     H87042   1.400   2.468   3.319 -0.2661 -1.0427 -1.2025
  645MOL0     H87043   1.280   2.273   3.183 -0.0987 -0.1373 -0.9118
  645MOL0     H87044   1.350   2.166   3.289  0.8048  0.2403 -2.0787
  645MOL0     H87045   1.229   2.266   3.485  0.8099 -0.0013  0.0015
  645MOL0     H87046   1.116   2.202   3.358 -1.6251  1.5031  1.8096
  645MOL0     H87047   1.138   2.455   3.289 -3.3648  1.2879  0.0966
  645MOL0     H87048   1.191   2.479   3.460  0.0180 -0.6425  1.4023
  645MOL0     H87049   0.926   2.359   3.373  0.4667 -2.5712  1.9974
  645MOL0     H87050   0.969   2.354   3.529 -2.6095  0.8612 -0.2551
  645MOL0     H87051   0.985   2.620   3.538  3.4016  0.9763 -3.8723
  645MOL0     H87052   0.824   2.549   3.515  2.0332 -1.0351  5.9505
  645MOL0     H87053   1.027   2.643   3.299 -0.8242  5.2917 -1.4953
  645MOL0     H87054   0.858   2.582   3.271  2.4547 -1.3789 -1.1127
  645MOL0     H87055   1.583   2.549   2.910  0.6019  1.7016  2.3826
  645MOL0     H87056   1.768   2.535   2.763  2.8785  0.8533  0.8949
  645MOL0     H87057   2.141   2.424   2.583  3.9939  3.0112 -2.5013
  645MOL0     H87058   2.264   2.415   2.397 -0.0834  0.8408  5.4371
  645MOL0     H87059   2.367   2.801   1.345 -1.9418 -2.4427 -2.7234
  645MOL0     H87060   2.567   2.924   1.404 -2.6577 -0.4816  0.0251
  645MOL0     H87061   3.027   3.004   1.147 -0.8826  0.1387 -0.4849
  645MOL0     H87062   3.253   3.113   1.158 -0.2091 -1.0342 -1.0225
  645MOL0     H87063   3.456   3.200   1.193 -0.8333 -0.3484  1.1478
  645MOL0     H87064   3.509   3.360   1.228 -0.3768 -0.2585  0.8570
  645MOL0     H87065   3.310   3.268   1.026 -0.0032 -0.3778 -1.2824
  645MOL0     H87066   3.456   3.363   1.004  0.6388  0.4422  2.4074
  645MOL0     H87067   3.361   3.550   1.133  0.2053  0.5481  0.0850
  645MOL0     H87068   3.194   3.473   1.109 -0.9218  2.7958 -1.1988
  645MOL0     H87069   3.376   3.547   0.884 -0.2710 -3.3153 -1.1768
  645MOL0     H87070   3.214   3.472   0.871 -1.8134  0.2729  1.0605
  645MOL0     H87071   3.156   3.893   0.957 -5.4198 -1.1673  1.9099
  645MOL0     H87072   3.113   3.397   1.428  0.2740 -0.1566 -2.6763
  645MOL0     H87073   2.935   3.381   1.519  1.2999 -1.7652 -1.8954
  645MOL0     H87074   2.814   3.393   1.392  0.1597  0.6912  0.3719
  645MOL0     H87075   2.801   3.267   1.506  0.1770 -0.0530  0.5642
  646MOL0     O87076   7.690   2.612   1.963 -0.8542 -0.5953 -0.8204
  646MOL0     C87077   7.606   2.662   1.894 -0.4722 -0.0355  0.2924
  646MOL0     O87078   7.630   2.707   1.767 -0.4372  0.4959 -0.9273
  646MOL0     C87079   7.765   2.694   1.721  0.8886  0.7316  0.4348
  646MOL0     C87080   7.786   2.613   1.617 -0.0362  0.1840 -0.0808
  646MOL0     C87081   7.908   2.601   1.558 -0.0474 -0.1123  0.4376
  646MOL0     C87082   8.016   2.659   1.603  0.4654  0.4475  0.6753
  646MOL0     O87083   8.138   2.627   1.540  0.1130 -1.1552  0.3694
  646MOL0     C87084   8.245   2.708   1.552 -0.8264 -0.1008 -0.4199
  646MOL0     C87085   8.322   2.694   1.425 -0.0563  0.4014  0.4302
  646MOL0     C87086   8.446   2.784   1.391 -0.0874  0.1401 -0.0435
  646MOL0     C87087   8.483   2.769   1.242  0.8782  0.2489  1.2007
  646MOL0     C87088   8.600   2.866   1.215  0.3826 -1.0801  0.4108
  646MOL0     C87089   8.643   2.837   1.074  0.2220  0.3277  0.2477
  646MOL0     C87090   8.755   2.932   1.020 -1.2277  0.1397 -0.3327
  646MOL0     C87091   8.870   2.923   1.122 -0.6201 -0.6356  0.1306
  646MOL0     N87092   8.976   3.020   1.084  0.3322  1.6071  0.6553
  646MOL0     C87093   9.033   3.033   0.959 -0.8906  0.7303 -0.8159
  646MOL0     C87094   9.117   3.138   0.981  0.4265  0.4815 -0.0315
  646MOL0     C87095   9.197   3.199   0.874  1.2857  0.4579 -0.5780
  646MOL0     C87096   9.318   3.110   0.836  1.1605 -0.0318  0.0553
  646MOL0     C87097   9.388   3.167   0.707  0.1014 -0.0753  0.1444
  646MOL0     C87098   9.537   3.143   0.700 -0.2766  1.1865  0.1003
  646MOL0     O87099   9.571   3.015   0.735  0.2149  0.6347  0.5635
  646MOL0     C87100   9.697   2.984   0.798  0.8503  0.0512  0.6142
  646MOL0     C87101   9.691   2.876   0.887 -0.1082 -0.7248  0.4989
  646MOL0     C87102   9.806   2.826   0.954  0.1464 -1.0007  0.2778
  646MOL0     C87103   9.921   2.899   0.929  0.1947  0.6481  0.0602
  646MOL0     C87104  10.037   2.854   0.998 -0.1479 -0.0671 -0.9942
  646MOL0     O87105  10.028   2.766   1.104  0.3744  0.5708 -0.6254
  646MOL0     C87106  10.159   2.728   1.150 -0.5130 -0.0061  0.3500
  646MOL0     C87107  10.238   2.784   1.257 -0.4103 -0.6061  0.3023
  646MOL0     C87108  10.374   2.758   1.252 -0.1557 -0.4634  0.1236
  646MOL0     C87109  10.439   2.661   1.164  0.9255  1.0090  0.0809
  646MOL0     O87110  10.572   2.632   1.148 -1.1219  0.2179 -0.3423
  646MOL0     C87111  10.663   2.737   1.189 -0.1078 -0.2642 -0.1593
  646MOL0     C87112  10.800   2.688   1.167  0.6192  0.4427  0.9688
  646MOL0     C87113  10.848   2.598   1.287 -0.4031 -0.0682 -0.1268
  646MOL0     C87114  10.901   2.672   1.410  0.0767 -0.6519 -0.1576
  646MOL0     C87115  10.958   2.595   1.518 -0.4597  0.9925 -0.8030
  646MOL0     C87116  11.002   2.699   1.616 -0.1438 -0.3932  0.3335
  646MOL0     C87117  11.065   2.631   1.740 -0.0040  0.4739 -0.0254
  646MOL0     C87118  11.219   2.620   1.723  0.0603  0.3021  0.2040
  646MOL0    Cl87119  11.300   2.781   1.719  0.6007  0.3764  0.4209
  646MOL0     C87120  10.360   2.594   1.074  0.2235  0.3543 -0.7003
  646MOL0     C87121  10.224   2.636   1.065  0.4356 -0.0480 -1.3137
  646MOL0     O87122  10.135   2.926   0.980  0.5980 -0.4008 -0.7565
  646MOL0     C87123   9.925   3.014   0.835  1.0618  0.3507 -0.8568
  646MOL0     C87124   9.808   3.053   0.765 -0.0873  0.3366 -0.3873
  646MOL0     N87125   9.116   3.174   1.113 -1.2849  0.2603  0.3769
  646MOL0     N87126   9.033   3.101   1.171  1.1340 -0.5669 -0.2197
  646MOL0     C87127   8.007   2.738   1.716  0.2273  0.1406 -0.2880
  646MOL0     C87128   7.877   2.759   1.769  0.6166  0.3900  0.8232
  646MOL0     C87129   7.464   2.643   1.937 -0.0850 -0.6045 -0.3978
  646MOL0     C87130   7.364   2.651   1.835 -0.0634 -0.4957 -0.8847
  646MOL0     C87131   7.228   2.651   1.873 -0.8964 -0.0803 -0.5998
  646MOL0     C87132   7.176   2.649   2.009 -0.3771  0.2636  0.0324
  646MOL0     O87133   7.040   2.664   2.040 -0.4447 -0.6954 -0.1430
  646MOL0     C87134   6.976   2.742   1.932  0.3717  0.1250 -1.1085
  646MOL0     C87135   6.839   2.788   1.984 -0.1601 -0.0060  0.5921
  646MOL0     C87136   6.739   2.834   1.879 -0.6867 -0.0363  0.0995
  646MOL0     C87137   6.592   2.805   1.938 -0.1553  0.4218 -0.1855
  646MOL0     C87138   6.540   2.936   1.980 -0.6136  0.9144  0.6863
  646MOL0     C87139   6.521   3.051   2.003 -0.0895 -0.1397  1.2724
  646MOL0     C87140   7.277   2.638   2.106 -0.4683  0.2008 -0.0574
  646MOL0     C87141   7.416   2.638   2.074 -0.8741  0.2541 -0.0167
  646MOL0     C87142   7.502   2.620   2.202  0.5431 -1.1079  0.5966
  646MOL0     H87143   7.699   2.577   1.563  0.0597 -0.9766  0.4951
  646MOL0     H87144   7.918   2.541   1.468  1.0315 -0.4330  0.7533
  646MOL0     H87145   8.210   2.810   1.565  1.2056  0.5845 -0.0054
  646MOL0     H87146   8.308   2.688   1.639 -0.9616 -2.6718 -0.8182
  646MOL0     H87147   8.251   2.711   1.343 -3.0253 -0.3398  2.6991
  646MOL0     H87148   8.340   2.586   1.429 -5.3604 -0.7147  3.1146
  646MOL0     H87149   8.531   2.748   1.450 -0.7299  0.4107  1.0730
  646MOL0     H87150   8.430   2.887   1.423  1.1766 -0.2043  1.8536
  646MOL0     H87151   8.508   2.665   1.220 -2.9092 -0.2180 -1.8619
  646MOL0     H87152   8.390   2.781   1.186 -0.4269  1.7877  3.5247
  646MOL0     H87153   8.568   2.970   1.220  0.3979 -1.1295  2.4636
  646MOL0     H87154   8.676   2.844   1.291 -1.0388 -0.9986  1.8956
  646MOL0     H87155   8.668   2.730   1.068  3.7268  1.1155 -2.0530
  646MOL0     H87156   8.550   2.849   1.018 -1.5340 -3.3457  2.0019
  646MOL0     H87157   8.724   3.036   1.009  1.2861  0.7652 -2.2926
  646MOL0     H87158   8.805   2.902   0.927  0.3730  1.2098  0.1426
  646MOL0     H87159   8.827   2.956   1.217 -2.2380  3.5137 -1.7938
  646MOL0     H87160   8.897   2.820   1.146  0.9094 -0.1811  0.4586
  646MOL0     H87161   9.037   2.982   0.863  3.3167  1.4188 -1.1741
  646MOL0     H87162   9.134   3.221   0.788 -0.1630  0.6568  0.5001
  646MOL0     H87163   9.221   3.298   0.914 -4.5666  2.4783 -1.1381
  646MOL0     H87164   9.390   3.108   0.919  0.2547  1.3088  0.9149
  646MOL0     H87165   9.286   3.009   0.811 -1.2315  0.9849 -1.3675
  646MOL0     H87166   9.368   3.274   0.712 -5.2186 -0.7728 -0.2831
  646MOL0     H87167   9.333   3.132   0.619  0.2398  2.1112 -0.8738
  646MOL0     H87168   9.584   3.207   0.775  0.5232 -0.2333  0.8347
  646MOL0     H87169   9.580   3.177   0.605  1.1110 -1.0087 -0.1266
  646MOL0     H87170   9.594   2.827   0.891  0.2328 -1.5424 -0.7865
  646MOL0     H87171   9.794   2.759   1.039 -2.2665  3.7851  4.2135
  646MOL0     H87172  10.212   2.865   1.325  0.2582 -0.0115 -0.1267
  646MOL0     H87173  10.430   2.819   1.323 -0.7818 -0.2208  0.4118
  646MOL0     H87174  10.640   2.829   1.134  0.5240 -1.2370 -2.1182
  646MOL0     H87175  10.645   2.751   1.296  2.6693 -2.1365  0.6515
  646MOL0     H87176  10.810   2.634   1.073  4.3704  0.0486  1.4248
  646MOL0     H87177  10.870   2.771   1.153 -0.4027  1.2231  0.3579
  646MOL0     H87178  10.769   2.531   1.324  0.7960 -2.1945 -1.1940
  646MOL0     H87179  10.928   2.537   1.244  0.0751  1.2124 -1.1065
  646MOL0     H87180  10.822   2.725   1.464 -0.1330 -3.2601  2.3197
  646MOL0     H87181  10.977   2.746   1.382 -0.0054 -0.0025  1.2688
  646MOL0     H87182  11.032   2.529   1.471 -1.8383 -0.0530 -1.5965
  646MOL0     H87183  10.879   2.533   1.560  0.1414  1.4858  1.1726
  646MOL0     H87184  11.061   2.780   1.572  0.1475 -0.9103 -0.2511
  646MOL0     H87185  10.919   2.761   1.649  1.4304  1.2375  1.4342
  646MOL0     H87186  11.016   2.539   1.772  0.8096  1.2657  4.0500
  646MOL0     H87187  11.054   2.696   1.827 -2.6910  0.9122 -0.6067
  646MOL0     H87188  11.267   2.568   1.806  1.5528  1.8622  0.3665
  646MOL0     H87189  11.238   2.561   1.633  0.7439  0.2804  0.3584
  646MOL0     H87190  10.409   2.519   1.013  2.0406  2.1266 -1.5820
  646MOL0     H87191  10.159   2.607   0.984 -1.7216  2.0113 -0.4188
  646MOL0     H87192  10.019   3.058   0.804  1.3930 -0.6068 -1.2633
  646MOL0     H87193   9.808   3.128   0.687 -3.2686  0.8698 -0.0162
  646MOL0     H87194   8.102   2.773   1.755 -0.3617 -0.9108  2.3050
  646MOL0     H87195   7.870   2.810   1.865 -0.4101  1.7408  0.0620
  646MOL0     H87196   7.389   2.652   1.730  0.7718 -3.6445 -0.8381
  646MOL0     H87197   7.162   2.651   1.788 -1.7835  1.3286  0.0431
  646MOL0     H87198   6.962   2.678   1.845  2.8304 -0.4646 -1.1360
  646MOL0     H87199   7.035   2.830   1.907  0.6572  0.7868  1.5457
  646MOL0     H87200   6.833   2.856   2.070 -1.0268 -0.2250  0.7076
  646MOL0     H87201   6.800   2.694   2.024  1.8740  0.2258  3.4544
  646MOL0     H87202   6.746   2.774   1.788 -1.0117  1.3180 -0.8595
  646MOL0     H87203   6.764   2.938   1.854  0.2832 -0.0826  0.8077
  646MOL0     H87204   6.526   2.776   1.856 -0.2251 -2.8051  0.8936
  646MOL0     H87205   6.585   2.734   2.021  0.2834  1.7535  1.0530
  646MOL0     H87206   6.509   3.155   2.027 -0.8145 -0.3903  2.0373
  646MOL0     H87207   7.242   2.645   2.209 -0.6070  1.2550 -0.1680
  646MOL0     H87208   7.443   2.607   2.293 -0.0514  2.1988  0.7942
  646MOL0     H87209   7.571   2.537   2.184 -0.9185 -2.2726  0.1868
  646MOL0     H87210   7.558   2.711   2.224 -2.2007  1.9108 -3.4235
  647MOL0     O87211   2.566   9.511   9.609  0.1565  0.2468  0.0951
  647MOL0     C87212   2.571   9.387   9.616 -0.1003 -0.5930 -0.8653
  647MOL0     O87213   2.478   9.295   9.562 -0.2133 -0.3083  0.2884
  647MOL0     C87214   2.372   9.347   9.487  0.5249  0.5508  0.0693
  647MOL0     C87215   2.381   9.446   9.393 -0.0339  0.0449  0.0272
  647MOL0     C87216   2.270   9.484   9.331  0.1494 -0.0440  0.4653
  647MOL0     C87217   2.141   9.422   9.351 -0.2411  0.9823 -0.2815
  647MOL0     O87218   2.048   9.456   9.262 -0.3849  0.8023 -0.5979
  647MOL0     C87219   1.913   9.416   9.284  0.1476  0.4751  0.6954
  647MOL0     C87220   1.819   9.419   9.157 -0.0971  0.8654  0.1275
  647MOL0     C87221   1.869   9.354   9.028 -0.2360  0.3794 -0.1118
  647MOL0     C87222   1.777   9.387   8.908 -0.2789 -0.8467 -0.1113
  647MOL0     C87223   1.847   9.362   8.766 -0.1306  0.2414 -0.7039
  647MOL0     C87224   1.749   9.374   8.650  0.2305 -0.0104  0.7198
  647MOL0     C87225   1.676   9.499   8.644  0.5538 -0.6682 -0.1506
  647MOL0     C87226   1.546   9.494   8.545  0.5610 -0.9583  0.0001
  647MOL0     N87227   1.443   9.393   8.556  0.2987 -0.1596 -0.3278
  647MOL0     C87228   1.364   9.387   8.668 -0.2911 -0.0082  0.4253
  647MOL0     C87229   1.317   9.263   8.676 -0.1392 -0.8649 -1.1742
  647MOL0     C87230   1.224   9.189   8.770  0.0152 -0.7125  0.7777
  647MOL0     C87231   1.264   9.185   8.917  0.1205  0.0697 -0.3189
  647MOL0     C87232   1.410   9.203   8.940 -0.4271 -0.1787 -1.1562
  647MOL0     C87233   1.442   9.157   9.084 -0.1323 -0.0731  1.0240
  647MOL0     O87234   1.578   9.178   9.118  0.7773  0.1233  0.3160
  647MOL0     C87235   1.667   9.072   9.114 -0.5038  0.5010 -0.3702
  647MOL0     C87236   1.768   9.072   9.212 -0.7548 -0.1532  0.7285
  647MOL0     C87237   1.858   8.970   9.221  0.0900 -0.0630 -0.1393
  647MOL0     C87238   1.861   8.865   9.127 -0.0779  0.0900  0.3325
  647MOL0     C87239   1.963   8.757   9.134  0.1187 -0.7024 -0.7017
  647MOL0     O87240   1.999   8.702   9.020  0.0454  1.2759 -0.9324
  647MOL0     C87241   2.114   8.636   9.012  0.0242 -0.7762 -0.0165
  647MOL0     C87242   2.231   8.665   9.077 -0.1452  0.4852  0.4082
  647MOL0     C87243   2.348   8.592   9.057  0.0093  0.3940 -0.6289
  647MOL0     C87244   2.355   8.497   8.960  0.7162 -0.2697  0.2247
  647MOL0     O87245   2.472   8.438   8.937  0.7087  0.2807 -1.2638
  647MOL0     C87246   2.498   8.359   8.821  0.0420  0.4270  1.0094
  647MOL0     C87247   2.493   8.211   8.824 -0.1690  0.7780 -0.0266
  647MOL0     C87248   2.525   8.116   8.701  0.0436  0.2878  0.2070
  647MOL0     C87249   2.628   8.173   8.602 -0.8836  0.1258  0.2042
  647MOL0     C87250   2.606   8.111   8.464 -1.2140 -0.6005 -0.0290
  647MOL0     C87251   2.674   7.971   8.465 -0.4522 -0.0704  0.7349
  647MOL0     C87252   2.669   7.906   8.321 -0.4911  0.9936  0.1665
  647MOL0     C87253   2.755   7.779   8.309  1.3283 -0.4201 -0.3233
  647MOL0    Cl87254   2.750   7.712   8.135  0.1387  0.3946  0.2893
  647MOL0     C87255   2.234   8.464   8.889  0.3102  0.1095  0.8296
  647MOL0     C87256   2.113   8.530   8.925 -0.0830 -0.4635 -0.2622
  647MOL0     O87257   2.018   8.751   9.247  0.4761 -0.3849 -0.5983
  647MOL0     C87258   1.751   8.863   9.037 -0.3226  0.8661  1.6445
  647MOL0     C87259   1.661   8.968   9.025 -0.6697 -0.8930  0.3792
  647MOL0     N87260   1.375   9.193   8.569 -0.8548 -0.0657  0.2256
  647MOL0     N87261   1.446   9.277   8.491 -0.1163  1.0026 -0.9380
  647MOL0     C87262   2.130   9.312   9.441 -0.4905  1.4387 -0.1453
  647MOL0     C87263   2.249   9.278   9.508  0.0307 -0.3524  0.9498
  647MOL0     C87264   2.685   9.303   9.678  0.2691 -0.0736  0.2863
  647MOL0     C87265   2.678   9.166   9.683 -0.4910 -0.0208  1.4496
  647MOL0     C87266   2.773   9.087   9.740  0.9437 -0.9850  0.8451
  647MOL0     C87267   2.879   9.135   9.819  0.5937 -0.2560 -0.7384
  647MOL0     O87268   2.943   9.055   9.898  0.3075  0.7313 -0.9577
  647MOL0     C87269   3.068   9.101   9.949 -0.6310 -0.2403  0.5705
  647MOL0     C87270   3.126   9.012  10.060 -0.6016 -0.1680 -0.2391
  647MOL0     C87271   3.024   8.994  10.178  0.0244 -0.1211  0.1537
  647MOL0     C87272   3.078   8.870  10.260 -0.5669  0.2950 -0.0272
  647MOL0     C87273   3.024   8.851  10.394  0.7964  0.3944 -0.1830
  647MOL0     C87274   2.960   8.849  10.506 -0.2450 -0.9316  0.6930
  647MOL0     C87275   2.874   9.278   9.824  1.5836 -0.1456  0.6318
  647MOL0     C87276   2.792   9.363   9.748  0.5230  0.6783  0.0101
  647MOL0     C87277   2.809   9.511   9.760 -0.4910  0.0146 -0.1071
  647MOL0     H87278   2.477   9.485   9.360  0.6692  0.8624  2.7783
  647MOL0     H87279   2.279   9.556   9.250  0.8665 -1.2444 -0.5489
  647MOL0     H87280   1.904   9.316   9.329  2.1390  0.5640  1.3941
  647MOL0     H87281   1.861   9.481   9.355  1.4388  0.9672  1.2198
  647MOL0     H87282   1.813   9.527   9.142  0.9576  0.6248 -2.5611
  647MOL0     H87283   1.719   9.384   9.184 -0.3866  0.5943 -1.2332
  647MOL0     H87284   1.867   9.245   9.029 -1.9828  0.3542 -1.4014
  647MOL0     H87285   1.969   9.394   9.013 -0.5276  0.9107 -0.6811
  647MOL0     H87286   1.681   9.335   8.906  0.5066 -2.3587 -0.0177
  647MOL0     H87287   1.756   9.495   8.916 -1.2638 -1.0555  0.2960
  647MOL0     H87288   1.930   9.433   8.763  0.6293 -0.6169 -0.4231
  647MOL0     H87289   1.885   9.260   8.776 -1.0644 -0.2643 -2.0365
  647MOL0     H87290   1.790   9.360   8.550 -0.0289  0.9879  0.4650
  647MOL0     H87291   1.676   9.295   8.668 -0.9016  0.8473  0.0606
  647MOL0     H87292   1.747   9.571   8.603  2.1623 -1.4751  1.1471
  647MOL0     H87293   1.637   9.540   8.738  1.8706  3.5100 -1.2161
  647MOL0     H87294   1.490   9.584   8.571  2.0450 -0.0847  0.2323
  647MOL0     H87295   1.585   9.497   8.443  0.9663 -0.2150  0.1772
  647MOL0     H87296   1.338   9.468   8.735 -1.9516 -0.9709  0.9855
  647MOL0     H87297   1.123   9.228   8.756 -0.5088 -2.2404  0.2088
  647MOL0     H87298   1.216   9.087   8.733  0.2573 -0.4439 -0.0358
  647MOL0     H87299   1.199   9.257   8.967 -0.6643 -0.8785  0.0380
  647MOL0     H87300   1.241   9.087   8.960  0.4224  0.7621  1.5100
  647MOL0     H87301   1.435   9.308   8.926 -2.0097  0.4665  0.3695
  647MOL0     H87302   1.478   9.146   8.876  2.9808  0.3288  1.6921
  647MOL0     H87303   1.415   9.055   9.114 -3.7155  0.4401  0.0338
  647MOL0     H87304   1.371   9.211   9.148 -0.2602 -0.5649  1.2992
  647MOL0     H87305   1.776   9.154   9.283  0.7534  0.5930 -0.2670
  647MOL0     H87306   1.930   8.968   9.302  0.4120  0.2965 -0.4156
  647MOL0     H87307   2.234   8.743   9.153 -2.9310  2.1090 -0.9934
  647MOL0     H87308   2.436   8.618   9.115  0.5202 -1.0327 -0.7178
  647MOL0     H87309   2.436   8.373   8.732 -0.2659 -1.2385  0.9333
  647MOL0     H87310   2.595   8.397   8.787 -0.0978 -0.2228 -0.1549
  647MOL0     H87311   2.578   8.183   8.887 -0.3437 -2.4557 -1.0017
  647MOL0     H87312   2.396   8.188   8.868  0.3904  1.3335  1.5564
  647MOL0     H87313   2.559   8.017   8.734  0.3431 -0.1102 -1.2320
  647MOL0     H87314   2.427   8.092   8.659 -0.6318 -3.1247  3.2318
  647MOL0     H87315   2.730   8.158   8.639 -0.2484  2.1426 -0.5838
  647MOL0     H87316   2.628   8.281   8.586  0.1634 -0.2029 -2.6047
  647MOL0     H87317   2.654   8.168   8.384  0.4180 -2.9971 -0.8899
  647MOL0     H87318   2.498   8.106   8.451 -1.1387 -1.3033 -0.4272
  647MOL0     H87319   2.779   7.988   8.489 -0.2543  0.1096 -0.2187
  647MOL0     H87320   2.623   7.910   8.541 -0.1441 -0.0691  0.9440
  647MOL0     H87321   2.720   7.975   8.253  0.7108 -2.1589 -2.4390
  647MOL0     H87322   2.568   7.890   8.282  0.3099  1.8909 -2.4957
  647MOL0     H87323   2.857   7.801   8.343  0.9247 -1.5046  1.7637
  647MOL0     H87324   2.720   7.698   8.374 -0.4793  1.2943  0.9852
  647MOL0     H87325   2.224   8.384   8.815  1.2372 -0.2143  1.0332
  647MOL0     H87326   2.015   8.521   8.880 -1.0158  1.0208  1.3877
  647MOL0     H87327   1.737   8.779   8.971 -2.5796  1.4628  1.3044
  647MOL0     H87328   1.590   8.969   8.943 -1.1735 -0.6229  0.8137
  647MOL0     H87329   2.043   9.254   9.470 -0.9628  1.1402 -2.0362
  647MOL0     H87330   2.234   9.200   9.582 -0.0414 -1.5975 -0.3188
  647MOL0     H87331   2.599   9.107   9.637  0.8666 -0.9689  0.2606
  647MOL0     H87332   2.747   8.981   9.739 -1.1626 -0.4944  0.1454
  647MOL0     H87333   3.055   9.200   9.993  0.2233  0.9296 -1.6123
  647MOL0     H87334   3.143   9.107   9.869 -2.0666 -2.4382 -1.0401
  647MOL0     H87335   3.223   9.043  10.101 -0.8514 -0.3577  0.5083
  647MOL0     H87336   3.149   8.911  10.025 -2.3673 -0.5831 -0.2789
  647MOL0     H87337   2.920   8.971  10.152  0.0442 -2.9516  2.0690
  647MOL0     H87338   3.020   9.086  10.237 -2.3440  0.3321 -0.6099
  647MOL0     H87339   3.060   8.779  10.202 -0.9227 -0.2861  0.9693
  647MOL0     H87340   3.183   8.891  10.283 -1.0382  1.2018  1.4934
  647MOL0     H87341   2.919   8.847  10.604  2.5459 -0.3055  1.9812
  647MOL0     H87342   2.937   9.336   9.891 -1.1977  1.2646  2.2247
  647MOL0     H87343   2.812   9.557   9.661 -1.9266 -1.4818 -0.8921
  647MOL0     H87344   2.729   9.565   9.812 -1.0437 -0.9878  0.0937
  647MOL0     H87345   2.901   9.531   9.815 -0.3258  3.1690 -1.3249
  648MOL0     O87346   7.507   5.054   8.428 -0.1680 -0.0865  0.0503
  648MOL0     C87347   7.404   5.098   8.491 -1.0038  0.4906 -0.0045
  648MOL0     O87348   7.311   5.185   8.443 -0.3043 -0.3074 -0.2682
  648MOL0     C87349   7.312   5.202   8.305  0.7332 -0.2904  0.0423
  648MOL0     C87350   7.264   5.096   8.224  0.5267 -0.0738  0.5274
  648MOL0     C87351   7.269   5.128   8.084  0.2470  0.4096 -0.1894
  648MOL0     C87352   7.319   5.245   8.023 -0.3001 -0.2955 -0.3901
  648MOL0     O87353   7.306   5.267   7.883  0.4189  0.2571  0.0979
  648MOL0     C87354   7.233   5.163   7.815  0.7649  0.4127 -0.2426
  648MOL0     C87355   7.213   5.192   7.659 -0.3041  0.4660  0.7028
  648MOL0     C87356   7.340   5.230   7.573 -0.2984 -0.2440 -0.1246
  648MOL0     C87357   7.450   5.126   7.583 -0.1726 -0.9597  0.0470
  648MOL0     C87358   7.409   5.007   7.495 -0.6863 -0.1199  0.9667
  648MOL0     C87359   7.481   4.877   7.532  0.5614 -0.2200 -0.9705
  648MOL0     C87360   7.509   4.784   7.419 -0.2792  0.2745  0.6126
  648MOL0     C87361   7.642   4.817   7.337 -0.2893 -0.0635  0.7216
  648MOL0     N87362   7.763   4.793   7.423  0.9712  0.1290  1.0858
  648MOL0     C87363   7.819   4.895   7.497 -0.4513 -0.0658  0.7111
  648MOL0     C87364   7.919   4.836   7.562 -1.0033 -0.3435  1.0530
  648MOL0     C87365   8.019   4.897   7.658 -0.3340 -0.1981  0.3620
  648MOL0     C87366   7.977   4.883   7.801  0.0269  0.4190 -0.0414
  648MOL0     C87367   8.080   4.954   7.888 -0.6570  0.2010  1.3919
  648MOL0     C87368   8.024   4.959   8.028  0.0475 -0.0737  0.2757
  648MOL0     O87369   8.118   5.032   8.102  0.7772  0.2958 -0.4207
  648MOL0     C87370   8.095   5.048   8.233 -0.0805  0.6050  1.0504
  648MOL0     C87371   7.974   5.008   8.299 -0.0484 -0.1926 -0.2745
  648MOL0     C87372   7.962   4.991   8.437  0.2783 -0.1590 -0.2493
  648MOL0     C87373   8.073   5.021   8.516 -0.5217 -0.1375 -0.0124
  648MOL0     C87374   8.065   4.998   8.660  0.0944  0.3971  0.3344
  648MOL0     O87375   8.183   5.020   8.724  0.6836  0.0212  0.2063
  648MOL0     C87376   8.180   4.991   8.853  0.1438 -0.3298 -0.3367
  648MOL0     C87377   8.164   4.866   8.910  0.0125  0.0995 -0.7124
  648MOL0     C87378   8.160   4.859   9.049  0.8866  0.9197 -0.1850
  648MOL0     C87379   8.174   4.973   9.133 -0.0361  0.1325 -0.1188
  648MOL0     O87380   8.175   4.960   9.271 -0.0530 -0.4336  0.3948
  648MOL0     C87381   8.130   4.834   9.323 -0.6710  0.6447  0.4584
  648MOL0     C87382   8.122   4.848   9.482 -0.5606  1.0615 -0.3004
  648MOL0     C87383   8.033   4.733   9.555 -0.4144  0.8040 -0.4077
  648MOL0     C87384   8.035   4.591   9.502 -0.8017 -0.8091  0.1360
  648MOL0     C87385   7.916   4.514   9.537  0.4663 -0.8180 -0.0259
  648MOL0     C87386   7.921   4.362   9.498  1.1070 -0.0497  0.0390
  648MOL0     C87387   7.901   4.328   9.339 -0.5394 -0.7795 -0.3903
  648MOL0     C87388   7.769   4.264   9.298  0.1722  1.1657 -0.3155
  648MOL0    Cl87389   7.743   4.100   9.360  0.0355 -0.2020  0.2365
  648MOL0     C87390   8.209   5.097   9.072  1.1129  0.4106 -0.8096
  648MOL0     C87391   8.206   5.100   8.938  0.2009 -0.3133  0.7515
  648MOL0     O87392   7.955   4.973   8.709  0.3600 -0.8513 -0.2541
  648MOL0     C87393   8.185   5.080   8.454  0.2409  0.0159 -0.3018
  648MOL0     C87394   8.200   5.078   8.319  0.0714 -0.2354  0.7941
  648MOL0     N87395   7.904   4.702   7.543 -0.1575  0.2033  0.6200
  648MOL0     N87396   7.809   4.675   7.464  0.1241  1.0573 -0.0682
  648MOL0     C87397   7.343   5.351   8.110 -0.5571 -0.5887  1.3929
  648MOL0     C87398   7.342   5.328   8.244 -0.5450 -0.1474  0.5025
  648MOL0     C87399   7.369   5.036   8.629  0.7370 -0.6129  1.0548
  648MOL0     C87400   7.244   5.066   8.691  0.5928  1.0522  0.1788
  648MOL0     C87401   7.212   5.011   8.812 -0.0326 -0.2689  0.0902
  648MOL0     C87402   7.302   4.926   8.878 -0.8679 -0.2166  0.5375
  648MOL0     O87403   7.281   4.893   9.012 -0.2016 -0.0203 -0.5812
  648MOL0     C87404   7.374   4.804   9.075  0.7835 -0.0529  0.0947
  648MOL0     C87405   7.307   4.789   9.225 -1.4397  1.1330  0.3967
  648MOL0     C87406   7.340   4.913   9.310  1.2688  0.5456 -0.0214
  648MOL0     C87407   7.302   4.884   9.462  0.9796  0.6803  0.7030
  648MOL0     C87408   7.155   4.905   9.480 -0.1704 -0.5028  0.7784
  648MOL0     C87409   7.037   4.908   9.500  0.8392 -0.0770 -0.0675
  648MOL0     C87410   7.425   4.909   8.818  0.3037  0.2257  0.1383
  648MOL0     C87411   7.456   4.956   8.701 -0.1676 -0.0886  0.5428
  648MOL0     C87412   7.594   4.929   8.657 -0.6954  0.2270 -0.0922
  648MOL0     H87413   7.222   5.006   8.268  0.4549  0.3720  1.3995
  648MOL0     H87414   7.234   5.040   8.032 -0.1123  2.4214 -3.6432
  648MOL0     H87415   7.298   5.074   7.817  1.2022  0.6923 -1.3415
  648MOL0     H87416   7.132   5.148   7.854  0.2941  0.3056 -1.4698
  648MOL0     H87417   7.154   5.283   7.649 -1.8368 -0.6101 -0.5021
  648MOL0     H87418   7.147   5.113   7.623  0.1996 -0.5626  1.9111
  648MOL0     H87419   7.376   5.323   7.617 -2.6469  0.2433  0.9059
  648MOL0     H87420   7.309   5.239   7.468  2.0503  1.5804 -0.7503
  648MOL0     H87421   7.550   5.166   7.561 -0.3590  0.1093  1.0539
  648MOL0     H87422   7.457   5.094   7.687  2.2142 -0.4159  0.1104
  648MOL0     H87423   7.301   4.995   7.488 -0.7164  0.9410 -2.3044
  648MOL0     H87424   7.438   5.011   7.389 -2.2903 -0.1586  0.4956
  648MOL0     H87425   7.574   4.914   7.576 -1.5030  1.8783  2.0510
  648MOL0     H87426   7.426   4.821   7.608  0.2529  0.6484 -0.5293
  648MOL0     H87427   7.429   4.768   7.346 -0.7629 -0.3600  1.2728
  648MOL0     H87428   7.530   4.683   7.454  3.8067 -0.2163 -2.4823
  648MOL0     H87429   7.652   4.743   7.257  0.4507  0.6856  0.0978
  648MOL0     H87430   7.648   4.914   7.286  0.5474  1.0614  2.8338
  648MOL0     H87431   7.798   5.002   7.501  2.6002  0.6086  1.6242
  648MOL0     H87432   8.114   4.846   7.644  0.1818  0.9975 -0.6251
  648MOL0     H87433   8.042   5.000   7.629 -1.4509  0.7829  2.6888
  648MOL0     H87434   7.877   4.915   7.830 -0.8707 -0.4235 -2.0162
  648MOL0     H87435   7.987   4.776   7.824 -2.1082  0.1253 -0.3276
  648MOL0     H87436   8.092   5.056   7.852  3.0600 -0.7387 -0.5202
  648MOL0     H87437   8.179   4.908   7.874 -1.3791 -0.4562 -2.6961
  648MOL0     H87438   7.995   4.860   8.062  0.4397 -0.3510 -0.1908
  648MOL0     H87439   7.930   5.016   8.026 -1.2754 -2.1860 -0.7377
  648MOL0     H87440   7.891   4.975   8.237 -0.2939  0.7165 -0.4584
  648MOL0     H87441   7.874   4.946   8.483  2.3673 -1.5487  2.6698
  648MOL0     H87442   8.147   4.784   8.841 -1.0413 -0.2727 -0.0307
  648MOL0     H87443   8.133   4.764   9.095  0.0283  1.7286  1.0349
  648MOL0     H87444   8.025   4.822   9.295 -1.3093 -1.1491  3.2313
  648MOL0     H87445   8.195   4.756   9.283 -2.3985 -2.2862  2.9667
  648MOL0     H87446   8.220   4.843   9.530 -0.2714  3.1261 -0.5844
  648MOL0     H87447   8.094   4.949   9.513  1.1676  1.4933 -0.0497
  648MOL0     H87448   8.071   4.730   9.657  0.3581  2.5117 -0.5992
  648MOL0     H87449   7.933   4.777   9.559  0.5731  3.2657 -0.8202
  648MOL0     H87450   8.125   4.542   9.540  0.2093  2.0355  1.6871
  648MOL0     H87451   8.042   4.594   9.393 -0.6586 -1.3184  0.1293
  648MOL0     H87452   7.835   4.558   9.478 -1.7752  0.8526  3.9482
  648MOL0     H87453   7.894   4.542   9.640 -0.0619  0.6294 -0.5033
  648MOL0     H87454   8.019   4.318   9.520  0.6501 -1.8265 -1.2124
  648MOL0     H87455   7.850   4.304   9.558 -1.7697 -0.1748 -3.1750
  648MOL0     H87456   7.990   4.273   9.307  0.2622 -0.1993  0.8026
  648MOL0     H87457   7.912   4.427   9.294 -2.9419  0.2521  1.0798
  648MOL0     H87458   7.684   4.322   9.337 -0.4883 -1.2113  2.1153
  648MOL0     H87459   7.764   4.257   9.189 -1.5241  1.4748 -0.2891
  648MOL0     H87460   8.245   5.181   9.131  2.7513 -0.0502 -1.1208
  648MOL0     H87461   8.235   5.192   8.890  3.8908 -1.4078  0.6134
  648MOL0     H87462   8.261   5.125   8.516 -2.4923  0.4968  3.0227
  648MOL0     H87463   8.295   5.108   8.276 -0.8006  0.9136 -0.4167
  648MOL0     H87464   7.350   5.454   8.077  2.8558 -1.9824 -3.2730
  648MOL0     H87465   7.366   5.415   8.303  0.4142 -0.6363  0.8495
  648MOL0     H87466   7.168   5.127   8.642  0.8443 -0.0456 -1.6774
  648MOL0     H87467   7.118   5.029   8.864 -0.9150  3.6359 -2.4020
  648MOL0     H87468   7.474   4.843   9.096 -0.3659  3.0537  0.3774
  648MOL0     H87469   7.380   4.703   9.034  1.1169 -1.2640  2.9538
  648MOL0     H87470   7.354   4.698   9.264 -1.9352  0.4397 -0.5917
  648MOL0     H87471   7.200   4.774   9.208 -1.2209 -0.5249  0.3251
  648MOL0     H87472   7.290   4.998   9.263  1.7836  1.0894  0.3923
  648MOL0     H87473   7.448   4.929   9.306  1.4841 -0.5792  0.8745
  648MOL0     H87474   7.327   4.784   9.498  2.0726  1.7010  2.9534
  648MOL0     H87475   7.352   4.952   9.532  3.2720  1.7078 -1.7518
  648MOL0     H87476   6.933   4.903   9.527  0.6180 -0.4785 -0.9696
  648MOL0     H87477   7.508   4.869   8.876  1.6340  1.5303 -0.7999
  648MOL0     H87478   7.616   4.884   8.560  0.9192 -0.3252  0.5017
  648MOL0     H87479   7.658   5.018   8.656 -1.4394  0.7722 -0.8888
  648MOL0     H87480   7.646   4.856   8.720 -1.0804  0.4972  0.5590
  649MOL0     O87481   9.553  10.368   2.379  0.3247 -0.5832 -0.4132
  649MOL0     C87482   9.466  10.378   2.467 -0.0365 -0.2565  0.7033
  649MOL0     O87483   9.398  10.490   2.497 -0.4538 -0.1596  0.0944
  649MOL0     C87484   9.438  10.605   2.438 -0.6591  0.8835 -0.4873
  649MOL0     C87485   9.393  10.626   2.299 -0.1485  0.2179 -0.4841
  649MOL0     C87486   9.445  10.736   2.224  0.7149 -0.4040 -0.1560
  649MOL0     C87487   9.531  10.826   2.283 -0.3824 -0.2911 -0.7595
  649MOL0     O87488   9.599  10.911   2.198 -0.9812  0.0786 -0.0680
  649MOL0     C87489   9.690  10.998   2.265  0.4823 -0.2398  1.4111
  649MOL0     C87490   9.762  11.090   2.157  0.2585 -0.3058 -0.8278
  649MOL0     C87491   9.859  10.988   2.092 -1.1367  0.7947  0.2209
  649MOL0     C87492   9.935  11.046   1.966  0.2109 -0.7132 -0.0479
  649MOL0     C87493  10.056  10.959   1.911 -0.3853  0.0494  0.5746
  649MOL0     C87494  10.008  10.821   1.866  0.0685  0.9808  0.5896
  649MOL0     C87495  10.127  10.753   1.810  1.2053  0.6075  0.8181
  649MOL0     C87496  10.109  10.602   1.785 -0.1110  0.2240  0.2489
  649MOL0     N87497  10.017  10.566   1.675  0.0171  0.6455  0.8824
  649MOL0     C87498   9.876  10.566   1.685 -0.0667 -0.5291  0.3415
  649MOL0     C87499   9.833  10.515   1.566 -0.3697  1.4221  0.8816
  649MOL0     C87500   9.695  10.510   1.514  0.6065 -0.7839 -0.5070
  649MOL0     C87501   9.668  10.397   1.412 -0.8906 -1.3270 -1.2127
  649MOL0     C87502   9.535  10.412   1.346 -0.4396 -0.8830  1.1801
  649MOL0     C87503   9.410  10.447   1.433  0.1983 -0.1751  0.6174
  649MOL0     O87504   9.297  10.458   1.349 -0.6848  0.5637 -0.2328
  649MOL0     C87505   9.216  10.353   1.327  0.0179  0.2678 -0.5225
  649MOL0     C87506   9.244  10.218   1.368  0.3880 -0.0345 -0.0989
  649MOL0     C87507   9.144  10.123   1.348  0.4413 -0.2709 -0.8997
  649MOL0     C87508   9.019  10.161   1.296  0.6897 -0.5112  0.2476
  649MOL0     C87509   8.898  10.069   1.277 -0.5610 -0.0226  0.4477
  649MOL0     O87510   8.916   9.947   1.330 -0.8531 -0.1622  0.4764
  649MOL0     C87511   8.823   9.850   1.317  0.2484  0.3300 -0.1837
  649MOL0     C87512   8.785   9.784   1.431 -0.2582 -0.6134  0.3416
  649MOL0     C87513   8.717   9.662   1.409 -0.0205  0.5809 -0.4126
  649MOL0     C87514   8.677   9.624   1.285  0.1724  0.5933 -0.0177
  649MOL0     O87515   8.619   9.496   1.274  0.4511  0.2387 -0.6020
  649MOL0     C87516   8.699   9.389   1.325 -0.4865  0.3102  0.1299
  649MOL0     C87517   8.686   9.287   1.217 -0.6392 -0.5848 -0.8022
  649MOL0     C87518   8.793   9.297   1.101  0.2160 -0.7852  0.7530
  649MOL0     C87519   8.770   9.216   0.975 -0.4798 -0.3157 -0.4214
  649MOL0     C87520   8.881   9.276   0.875  0.8039 -0.7144  0.7171
  649MOL0     C87521   8.812   9.402   0.798 -0.7594 -0.2452  0.3515
  649MOL0     C87522   8.897   9.470   0.687 -0.0356 -1.0979 -0.6503
  649MOL0     C87523   8.811   9.569   0.608  0.2831 -0.3453 -0.3936
  649MOL0    Cl87524   8.776   9.717   0.710  0.1819  0.1728 -0.0078
  649MOL0     C87525   8.692   9.700   1.171  0.3057 -0.4153  0.6390
  649MOL0     C87526   8.779   9.812   1.189  0.5274 -0.2447 -0.4396
  649MOL0     O87527   8.791  10.102   1.234 -0.3148  0.1732 -0.2022
  649MOL0     C87528   8.984  10.297   1.286  0.3737  0.7924  0.2481
  649MOL0     C87529   9.082  10.391   1.291  0.3502  0.5937  0.0698
  649MOL0     N87530   9.945  10.504   1.486 -0.4596 -0.8255 -0.7006
  649MOL0     N87531  10.055  10.528   1.548  0.1117  0.3855  0.1210
  649MOL0     C87532   9.561  10.807   2.426  0.2325 -0.1176 -0.1539
  649MOL0     C87533   9.521  10.698   2.496  0.0598  0.1473 -0.6417
  649MOL0     C87534   9.444  10.264   2.559 -1.4878  0.4688 -0.4770
  649MOL0     C87535   9.415  10.300   2.694  0.9089  0.6248  0.5535
  649MOL0     C87536   9.396  10.201   2.793 -0.8698  0.3107  0.8173
  649MOL0     C87537   9.405  10.067   2.770  0.1599  0.0162 -0.7983
  649MOL0     O87538   9.371   9.980   2.878 -0.2593  0.1954 -0.0354
  649MOL0     C87539   9.326   9.849   2.851  0.5840  0.2755 -0.2987
  649MOL0     C87540   9.283   9.782   2.987  0.3435  0.0291  0.3924
  649MOL0     C87541   9.183   9.885   3.057  0.1718  0.2106  0.9144
  649MOL0     C87542   9.121   9.817   3.184 -0.3709  0.7272  0.1880
  649MOL0     C87543   9.201   9.846   3.302 -0.5565 -0.0621  0.8177
  649MOL0     C87544   9.257   9.874   3.409  0.7972  0.0646 -0.5179
  649MOL0     C87545   9.446  10.028   2.641 -0.2643  0.0337 -0.0824
  649MOL0     C87546   9.468  10.130   2.536 -0.8452  0.3121  0.2173
  649MOL0     C87547   9.521  10.070   2.401 -0.5107 -0.4911  0.1472
  649MOL0     H87548   9.328  10.553   2.252 -2.3672  0.2915  2.2254
  649MOL0     H87549   9.421  10.745   2.119  0.8875 -0.0590 -0.1662
  649MOL0     H87550   9.635  11.069   2.327  0.1702  1.4945 -0.7380
  649MOL0     H87551   9.761  10.943   2.328  0.9587 -1.6959 -0.3106
  649MOL0     H87552   9.825  11.168   2.202 -0.1521 -2.4102  4.0006
  649MOL0     H87553   9.682  11.129   2.094 -1.6602  1.0061  2.2105
  649MOL0     H87554   9.814  10.888   2.081  0.3922  0.0915  0.1377
  649MOL0     H87555   9.925  10.968   2.177 -1.2886  1.6805  0.5514
  649MOL0     H87556   9.857  11.052   1.889 -2.2762  1.2891  2.4172
  649MOL0     H87557   9.977  11.143   1.995  2.2408 -0.6972 -2.6488
  649MOL0     H87558  10.106  11.017   1.833 -5.0742  2.2935 -1.0818
  649MOL0     H87559  10.126  10.956   1.995 -3.4832 -0.2279  3.3408
  649MOL0     H87560   9.966  10.769   1.952 -0.6069  1.5139  0.5941
  649MOL0     H87561   9.933  10.826   1.786  1.3238  2.5436 -0.5666
  649MOL0     H87562  10.210  10.758   1.881  0.5542 -3.1806  2.0737
  649MOL0     H87563  10.149  10.796   1.711  1.9271 -0.4202  0.5086
  649MOL0     H87564  10.207  10.558   1.761 -1.2648 -2.2613 -0.2254
  649MOL0     H87565  10.090  10.552   1.880  4.1193 -2.3200  0.0147
  649MOL0     H87566   9.824  10.600   1.775  1.2243  4.1436 -0.3814
  649MOL0     H87567   9.627  10.483   1.595  1.7877  2.3763  1.7286
  649MOL0     H87568   9.666  10.611   1.486 -3.0744 -1.7569 -0.7230
  649MOL0     H87569   9.754  10.404   1.345  1.6054 -3.9049  1.3927
  649MOL0     H87570   9.672  10.294   1.451 -2.2719 -1.1419 -0.4969
  649MOL0     H87571   9.525  10.322   1.285  2.7250  0.5681 -1.8937
  649MOL0     H87572   9.530  10.503   1.286 -0.4148 -0.6765  1.4895
  649MOL0     H87573   9.434  10.547   1.471  0.9617 -0.4538  0.8854
  649MOL0     H87574   9.389  10.383   1.520 -3.7482  4.0922  3.2854
  649MOL0     H87575   9.336  10.205   1.424 -0.0507  2.0395  1.2259
  649MOL0     H87576   9.161  10.017   1.365 -0.3755 -0.2632 -0.0176
  649MOL0     H87577   8.824   9.804   1.530 -0.1162  0.6527  0.0473
  649MOL0     H87578   8.700   9.585   1.484  0.2939  2.1344  1.3175
  649MOL0     H87579   8.806   9.409   1.332 -0.3509 -0.0374 -0.7845
  649MOL0     H87580   8.651   9.356   1.417 -0.3809  0.0252  0.0828
  649MOL0     H87581   8.706   9.197   1.274  2.0140  0.6064  0.3265
  649MOL0     H87582   8.592   9.303   1.164  0.6627  0.5693 -2.9201
  649MOL0     H87583   8.791   9.403   1.072 -0.2311 -1.3291 -1.3989
  649MOL0     H87584   8.891   9.276   1.144  1.2165  1.8002 -0.0763
  649MOL0     H87585   8.675   9.231   0.922 -1.0368 -0.8016  0.4247
  649MOL0     H87586   8.784   9.111   0.999  4.1664  0.6892  2.4815
  649MOL0     H87587   8.903   9.192   0.808 -0.3032 -0.6165  0.1989
  649MOL0     H87588   8.980   9.309   0.909  1.1454  3.2711 -3.2204
  649MOL0     H87589   8.720   9.360   0.757 -1.0713  2.0453 -1.4668
  649MOL0     H87590   8.780   9.476   0.872 -0.4718  0.2405 -0.0090
  649MOL0     H87591   8.946   9.401   0.618  0.9528  2.1528 -3.4992
  649MOL0     H87592   8.973   9.531   0.736 -0.1419 -0.9531 -0.6663
  649MOL0     H87593   8.868   9.594   0.518 -0.5205 -0.8919 -1.0687
  649MOL0     H87594   8.721   9.520   0.571  0.8552 -1.3985 -0.4243
  649MOL0     H87595   8.657   9.681   1.070  0.4808  1.7639  0.1291
  649MOL0     H87596   8.796   9.877   1.105 -1.2682  1.3755  0.3556
  649MOL0     H87597   8.881  10.320   1.263 -0.1692 -0.2673  1.5094
  649MOL0     H87598   9.069  10.497   1.272  0.8311  0.6961  0.3026
  649MOL0     H87599   9.605  10.874   2.499  0.5172 -1.5020  0.9811
  649MOL0     H87600   9.562  10.689   2.597 -1.1985  5.2973  0.6705
  649MOL0     H87601   9.411  10.398   2.740 -4.5256 -0.0791  2.2193
  649MOL0     H87602   9.394  10.227   2.899 -1.3076 -2.6554  1.6189
  649MOL0     H87603   9.403   9.787   2.805 -0.1726 -1.2122  0.3799
  649MOL0     H87604   9.237   9.851   2.787  1.2018 -1.7023 -1.2899
  649MOL0     H87605   9.363   9.768   3.059 -1.0804 -3.0604  1.5556
  649MOL0     H87606   9.224   9.691   2.968  0.9808 -1.1595  3.5565
  649MOL0     H87607   9.102   9.917   2.990 -0.3297 -1.8368  0.4743
  649MOL0     H87608   9.237   9.973   3.093 -0.4781  0.9144  0.2159
  649MOL0     H87609   9.016   9.833   3.212 -1.3990 -0.3001 -2.6242
  649MOL0     H87610   9.121   9.708   3.185 -0.4988  0.7027  3.0258
  649MOL0     H87611   9.304   9.912   3.498 -0.4624  0.7971 -0.1512
  649MOL0     H87612   9.469   9.925   2.615  4.2073  1.0814 -1.0678
  649MOL0     H87613   9.586   9.983   2.417 -1.8390 -1.9167 -1.7912
  649MOL0     H87614   9.433  10.028   2.352 -1.9926 -2.2455  3.9096
  649MOL0     H87615   9.584  10.138   2.342 -0.9144  1.1072  1.4782
  650MOL0     O87616   4.906   5.521   6.654  0.4135  0.0635  0.1244
  650MOL0     C87617   4.787   5.490   6.646 -0.2404  0.5566  1.1450
  650MOL0     O87618   4.714   5.523   6.534 -0.0033 -0.9349 -1.3930
  650MOL0     C87619   4.775   5.523   6.416  0.2864 -0.4207 -0.4647
  650MOL0     C87620   4.832   5.406   6.362  1.6371  0.9757 -0.3266
  650MOL0     C87621   4.887   5.398   6.233 -1.0050 -1.1475 -0.8593
  650MOL0     C87622   4.873   5.510   6.153  0.3740  1.8741 -0.3324
  650MOL0     O87623   4.922   5.492   6.026 -0.0099  0.6265  0.1625
  650MOL0     C87624   4.953   5.617   5.951  0.5784 -0.6593 -1.2162
  650MOL0     C87625   5.087   5.685   5.979  0.2539  0.0095  0.3622
  650MOL0     C87626   5.155   5.657   6.107 -0.1575  0.1442 -0.3536
  650MOL0     C87627   5.284   5.734   6.137  0.8834 -0.8263  0.4800
  650MOL0     C87628   5.358   5.669   6.245  0.3382  0.2962  0.6975
  650MOL0     C87629   5.507   5.702   6.238 -0.0850  0.2545 -0.4502
  650MOL0     C87630   5.568   5.645   6.366  0.0049 -0.1762 -0.7133
  650MOL0     C87631   5.722   5.665   6.362  0.1826 -0.6051 -0.2196
  650MOL0     N87632   5.764   5.805   6.367 -0.6259  0.6105  0.3708
  650MOL0     C87633   5.787   5.871   6.485  0.0512 -0.0657  0.0983
  650MOL0     C87634   5.819   5.996   6.453  1.4544 -0.3168  0.2582
  650MOL0     C87635   5.857   6.110   6.544 -0.4119 -1.7580 -0.2548
  650MOL0     C87636   5.793   6.252   6.511  0.4001 -0.1008  0.2263
  650MOL0     C87637   5.641   6.243   6.548 -0.4311  0.0240  0.7223
  650MOL0     C87638   5.580   6.389   6.562 -0.4888  0.6681 -1.2110
  650MOL0     O87639   5.432   6.374   6.573 -0.2671 -0.3783  0.7107
  650MOL0     C87640   5.343   6.377   6.468 -0.5069 -0.0631  0.9101
  650MOL0     C87641   5.221   6.381   6.522 -0.1678 -0.1820  0.0121
  650MOL0     C87642   5.106   6.391   6.438 -0.0977 -0.7852  1.0719
  650MOL0     C87643   5.114   6.395   6.297 -0.6528 -0.0670 -0.6277
  650MOL0     C87644   4.996   6.400   6.208 -0.2851 -1.2031 -0.2297
  650MOL0     O87645   4.881   6.430   6.274 -0.7589  0.5549  1.2680
  650MOL0     C87646   4.794   6.521   6.228 -0.3243 -0.9355 -0.5542
  650MOL0     C87647   4.795   6.599   6.108 -0.6086  0.0262  0.0531
  650MOL0     C87648   4.691   6.679   6.062  0.2506 -0.1802 -0.2202
  650MOL0     C87649   4.582   6.699   6.147  0.4383  0.4380  1.2886
  650MOL0     O87650   4.485   6.788   6.112  0.4152 -0.1860 -0.0858
  650MOL0     C87651   4.354   6.800   6.172 -0.0181 -0.3191  0.0914
  650MOL0     C87652   4.256   6.702   6.109 -0.0202  0.4284 -0.3547
  650MOL0     C87653   4.120   6.761   6.110 -0.1679  0.3068 -0.2634
  650MOL0     C87654   4.023   6.664   6.044 -0.2095  0.4281 -0.5001
  650MOL0     C87655   3.888   6.723   6.046 -0.8769 -0.4602  0.0811
  650MOL0     C87656   3.796   6.642   5.959  0.2273 -0.1158  0.2896
  650MOL0     C87657   3.650   6.688   5.959  0.3560 -0.3181 -0.6016
  650MOL0     C87658   3.595   6.692   6.105 -0.9120  0.4697 -0.8814
  650MOL0    Cl87659   3.578   6.524   6.166 -0.2008  0.5712  0.2945
  650MOL0     C87660   4.589   6.638   6.272  0.2867  0.2617  0.2461
  650MOL0     C87661   4.687   6.552   6.314 -0.0779 -0.1206 -0.2271
  650MOL0     O87662   5.012   6.398   6.085  0.7504 -0.3807  0.3013
  650MOL0     C87663   5.245   6.385   6.240 -0.3290 -0.4510  0.3200
  650MOL0     C87664   5.353   6.368   6.324 -0.2060 -0.0124 -0.2967
  650MOL0     N87665   5.810   6.002   6.314  0.2852  0.5767 -0.0096
  650MOL0     N87666   5.800   5.884   6.261  0.6573  0.1905  0.7940
  650MOL0     C87667   4.791   5.624   6.198 -0.0470  0.3621 -0.2617
  650MOL0     C87668   4.747   5.631   6.334 -0.3976 -0.7851 -0.7721
  650MOL0     C87669   4.728   5.420   6.756 -0.0534  0.2288  0.5518
  650MOL0     C87670   4.803   5.406   6.876 -0.7253  0.1563 -0.3405
  650MOL0     C87671   4.767   5.322   6.981  0.5727  0.2401 -0.2034
  650MOL0     C87672   4.639   5.272   6.977  0.5105 -0.3656 -0.4174
  650MOL0     O87673   4.611   5.189   7.083  0.4201 -0.5842 -0.1978
  650MOL0     C87674   4.490   5.109   7.066  0.5693 -1.0564 -0.5514
  650MOL0     C87675   4.508   4.971   7.129 -0.2895 -0.1274 -0.2074
  650MOL0     C87676   4.493   4.972   7.279  1.3927 -0.5739  0.8147
  650MOL0     C87677   4.625   4.995   7.349 -0.3665  0.1999 -0.4028
  650MOL0     C87678   4.607   4.973   7.490 -0.1836  0.8438 -0.1750
  650MOL0     C87679   4.593   4.971   7.616  0.1048  0.8754  0.1577
  650MOL0     C87680   4.556   5.298   6.869  0.7861 -0.6737 -0.3484
  650MOL0     C87681   4.602   5.361   6.749  0.3341  0.6473 -0.4487
  650MOL0     C87682   4.511   5.370   6.629 -0.4413  0.0065 -0.0442
  650MOL0     H87683   4.828   5.314   6.420  0.3981  1.7086  0.7968
  650MOL0     H87684   4.934   5.305   6.202 -0.4916 -0.5859 -1.7704
  650MOL0     H87685   4.963   5.593   5.845  1.7717 -2.2405 -0.7802
  650MOL0     H87686   4.883   5.701   5.949  2.1575  0.6928 -1.3489
  650MOL0     H87687   5.067   5.792   5.976 -0.2175  0.0397  2.4760
  650MOL0     H87688   5.164   5.655   5.908  1.1725  0.8215  0.9886
  650MOL0     H87689   5.181   5.551   6.100  1.7373  0.2799  2.7281
  650MOL0     H87690   5.075   5.668   6.181 -1.3959  6.0341 -2.0004
  650MOL0     H87691   5.345   5.739   6.047 -0.8123 -0.3000 -0.6949
  650MOL0     H87692   5.246   5.833   6.163  0.0787 -0.5061 -1.6925
  650MOL0     H87693   5.306   5.697   6.337  1.9846  0.3636  1.6364
  650MOL0     H87694   5.360   5.560   6.239  3.4215  0.1595  2.3387
  650MOL0     H87695   5.547   5.653   6.149  1.7018  1.1955 -0.2223
  650MOL0     H87696   5.523   5.810   6.230  0.6785  0.0222 -2.5833
  650MOL0     H87697   5.553   5.537   6.379 -0.7615 -0.2711 -2.1507
  650MOL0     H87698   5.530   5.705   6.449  0.5664  1.9757 -1.9556
  650MOL0     H87699   5.764   5.614   6.450 -0.6609 -0.7170  0.1277
  650MOL0     H87700   5.765   5.615   6.275 -0.0710  1.1046 -1.3727
  650MOL0     H87701   5.809   5.833   6.584  0.3974  1.7504  0.7575
  650MOL0     H87702   5.838   6.089   6.650 -0.4499 -0.7267 -0.0484
  650MOL0     H87703   5.965   6.124   6.537 -0.5513 -0.1293  0.5005
  650MOL0     H87704   5.839   6.332   6.570  2.8171  0.1530 -1.8322
  650MOL0     H87705   5.811   6.268   6.405  0.6356  0.7912  0.3932
  650MOL0     H87706   5.619   6.169   6.626  0.5800 -3.4064 -1.9670
  650MOL0     H87707   5.596   6.204   6.457 -0.1779  0.6764  0.3123
  650MOL0     H87708   5.604   6.456   6.478  2.0330  1.1009 -0.2176
  650MOL0     H87709   5.608   6.426   6.661 -1.5311 -1.8943  0.1390
  650MOL0     H87710   5.205   6.389   6.630 -0.8758  1.5063 -0.1826
  650MOL0     H87711   5.008   6.382   6.483 -3.2408 -2.0103 -4.9815
  650MOL0     H87712   4.892   6.606   6.060 -1.4289 -1.1808 -1.8840
  650MOL0     H87713   4.697   6.735   5.970  1.3389 -0.6488 -0.4405
  650MOL0     H87714   4.352   6.804   6.281 -0.4388 -1.9109  0.1718
  650MOL0     H87715   4.323   6.898   6.136 -0.3388 -0.8110 -1.0490
  650MOL0     H87716   4.277   6.673   6.006 -1.1566  2.6239 -1.2753
  650MOL0     H87717   4.255   6.610   6.168 -2.8003  0.3860 -0.3141
  650MOL0     H87718   4.103   6.776   6.217  0.9732  1.0910 -0.1752
  650MOL0     H87719   4.115   6.858   6.059  1.9790  0.9715  0.7095
  650MOL0     H87720   4.024   6.569   6.099 -1.0271 -0.1761 -1.4981
  650MOL0     H87721   4.046   6.635   5.941 -1.0561 -1.2343 -0.2513
  650MOL0     H87722   3.888   6.825   6.009  0.9121 -0.6051 -0.3816
  650MOL0     H87723   3.854   6.724   6.151  0.3821  0.8811  0.4976
  650MOL0     H87724   3.827   6.633   5.854  1.0839  1.0327  0.4186
  650MOL0     H87725   3.802   6.543   6.006  1.8068  0.1622  0.7332
  650MOL0     H87726   3.574   6.633   5.904 -1.3071 -0.8161  2.0134
  650MOL0     H87727   3.649   6.793   5.930 -1.3573  0.1671  1.0822
  650MOL0     H87728   3.656   6.745   6.179 -2.5474  0.1646  0.7722
  650MOL0     H87729   3.495   6.736   6.100 -0.3652  1.8001 -0.6240
  650MOL0     H87730   4.510   6.661   6.344 -4.0677 -1.5873 -3.4296
  650MOL0     H87731   4.696   6.510   6.414  0.7777 -1.4173 -0.8285
  650MOL0     H87732   5.266   6.385   6.133  0.0965 -2.2776  0.3573
  650MOL0     H87733   5.456   6.363   6.291 -0.1646  0.5758 -0.2729
  650MOL0     H87734   4.775   5.700   6.122 -3.0688 -0.7602 -0.8781
  650MOL0     H87735   4.689   5.719   6.360  1.1305  0.8715 -2.6873
  650MOL0     H87736   4.905   5.444   6.884 -0.5526 -0.3091 -0.2756
  650MOL0     H87737   4.832   5.304   7.066  2.1115 -1.8867 -1.7565
  650MOL0     H87738   4.465   5.089   6.962  0.9788 -3.6232 -0.2254
  650MOL0     H87739   4.410   5.167   7.113  0.2896 -1.4791 -0.5047
  650MOL0     H87740   4.596   4.922   7.086  0.7694  1.8219 -0.3790
  650MOL0     H87741   4.432   4.902   7.094 -0.2674 -0.7822  0.9679
  650MOL0     H87742   4.457   4.869   7.294  0.2443 -0.0648  1.6609
  650MOL0     H87743   4.410   5.038   7.306  0.0986 -0.8217 -2.0655
  650MOL0     H87744   4.706   4.940   7.301  1.0214  2.8461 -1.3117
  650MOL0     H87745   4.658   5.097   7.329  0.7695 -0.3160 -1.2941
  650MOL0     H87746   4.591   4.965   7.723 -1.9386 -1.9540  0.0872
  650MOL0     H87747   4.450   5.275   6.873  1.0381 -1.6850  2.3422
  650MOL0     H87748   4.493   5.474   6.601  2.5408  0.7771  0.5024
  650MOL0     H87749   4.570   5.324   6.550 -0.2331  0.7253 -0.3144
  650MOL0     H87750   4.412   5.326   6.644  0.1966 -1.0906  1.1552
  651MOL0     O87751   5.205   0.142   3.612 -0.2685  0.0762  0.0820
  651MOL0     C87752   5.317   0.178   3.575 -0.3019  0.7977  0.1514
  651MOL0     O87753   5.407   0.248   3.653 -0.5156  0.3446  1.0458
  651MOL0     C87754   5.386   0.280   3.789  0.1985 -0.2496 -0.2460
  651MOL0     C87755   5.309   0.204   3.881 -0.4653  0.5905 -0.6550
  651MOL0     C87756   5.267   0.267   3.997  1.1134  0.2086 -0.0703
  651MOL0     C87757   5.318   0.387   4.045 -0.3399 -0.2750 -0.8253
  651MOL0     O87758   5.278   0.438   4.164 -0.1665 -0.5071 -0.2533
  651MOL0     C87759   5.216   0.564   4.156 -0.6401  0.5494  0.5732
  651MOL0     C87760   5.096   0.572   4.055  0.5966  0.2397 -0.2995
  651MOL0     C87761   5.035   0.715   4.054 -0.4353  0.6700  0.4809
  651MOL0     C87762   4.944   0.730   3.929 -0.2211 -0.4063 -0.7404
  651MOL0     C87763   4.870   0.858   3.928 -0.5288  0.2054  0.0904
  651MOL0     C87764   4.735   0.842   3.848  0.5181  0.3325 -1.7172
  651MOL0     C87765   4.672   0.984   3.843  0.5397  0.6462  0.4289
  651MOL0     C87766   4.523   0.981   3.798  0.4010 -0.1018 -0.1142
  651MOL0     N87767   4.465   1.109   3.834  0.4391 -0.1843 -0.4026
  651MOL0     C87768   4.500   1.222   3.769 -0.5122 -0.1641 -1.2433
  651MOL0     C87769   4.416   1.322   3.828 -0.4514  0.3105  0.2818
  651MOL0     C87770   4.422   1.472   3.782 -0.6475  0.2443  0.4230
  651MOL0     C87771   4.320   1.558   3.848  0.3719  0.0400  0.6839
  651MOL0     C87772   4.184   1.538   3.797  0.0792  0.0050 -0.4137
  651MOL0     C87773   4.091   1.586   3.913 -0.2042  0.6565  0.1854
  651MOL0     O87774   3.958   1.598   3.861 -0.3166  0.2786  0.1408
  651MOL0     C87775   3.855   1.609   3.946  1.0220 -0.5042  0.2960
  651MOL0     C87776   3.728   1.586   3.892  0.4751 -0.8357 -1.6735
  651MOL0     C87777   3.616   1.594   3.969 -0.1280  0.1669 -0.0039
  651MOL0     C87778   3.637   1.641   4.105  0.4636  0.2383  0.4695
  651MOL0     C87779   3.517   1.644   4.185  1.2062 -0.5151 -0.1103
  651MOL0     O87780   3.408   1.593   4.140  0.3650 -0.1430 -0.1284
  651MOL0     C87781   3.287   1.650   4.163 -0.9462  0.0230  0.4035
  651MOL0     C87782   3.198   1.568   4.238 -0.0407 -0.2189  0.0107
  651MOL0     C87783   3.065   1.613   4.250 -0.1085 -0.8193  0.7208
  651MOL0     C87784   3.032   1.746   4.209 -0.8774  0.5680  0.5022
  651MOL0     O87785   2.903   1.770   4.221 -0.0554  0.6180 -0.7892
  651MOL0     C87786   2.841   1.881   4.281  0.0440  0.3714  0.1914
  651MOL0     C87787   2.855   1.909   4.427  0.3304  0.4534 -0.1082
  651MOL0     C87788   2.843   2.057   4.468  0.0484  0.2842  0.2610
  651MOL0     C87789   2.892   2.083   4.613  0.1588  0.5354  0.1872
  651MOL0     C87790   2.937   2.227   4.642 -0.7710 -0.1578 -0.7581
  651MOL0     C87791   2.822   2.325   4.606 -0.3207 -0.3758  0.5239
  651MOL0     C87792   2.873   2.472   4.627 -0.1293  0.0520  0.3547
  651MOL0     C87793   2.770   2.577   4.623 -0.7786 -0.1986  0.0270
  651MOL0    Cl87794   2.722   2.580   4.450  0.4959 -0.0118 -0.3472
  651MOL0     C87795   3.139   1.826   4.155  0.1674 -0.8074 -0.5730
  651MOL0     C87796   3.262   1.785   4.136  0.1788  0.3426 -1.2464
  651MOL0     O87797   3.524   1.699   4.304  0.2019  1.0843  0.5226
  651MOL0     C87798   3.761   1.667   4.167 -0.0016 -0.1491 -0.4005
  651MOL0     C87799   3.868   1.651   4.080  0.0658 -1.1213  0.2114
  651MOL0     N87800   4.348   1.267   3.935 -0.0955 -0.4171 -0.5419
  651MOL0     N87801   4.380   1.140   3.938 -0.2113 -0.3478  0.1447
  651MOL0     C87802   5.398   0.458   3.952 -0.1235  0.0203  0.6776
  651MOL0     C87803   5.425   0.401   3.830  0.0814 -0.4208  0.4703
  651MOL0     C87804   5.369   0.127   3.442  0.2068  0.0781 -0.6358
  651MOL0     C87805   5.495   0.068   3.440 -0.5203  0.6880 -0.3270
  651MOL0     C87806   5.550   0.022   3.319  0.0121  0.4058  0.4965
  651MOL0     C87807   5.483   0.029   3.192 -0.8079  0.6152  0.6168
  651MOL0     O87808   5.547  -0.005   3.080  1.2605 -1.0479  0.1649
  651MOL0     C87809   5.475  -0.069   2.976  0.4683  0.1688 -1.2566
  651MOL0     C87810   5.397  -0.192   3.033  0.8635 -0.4719 -0.0179
  651MOL0     C87811   5.338  -0.289   2.927 -0.1889 -0.0643  0.4215
  651MOL0     C87812   5.286  -0.413   2.993 -0.3253  0.6397  0.2277
  651MOL0     C87813   5.191  -0.391   3.101  0.0390  0.0598 -1.0331
  651MOL0     C87814   5.120  -0.362   3.194 -0.3801  0.8707 -1.3000
  651MOL0     C87815   5.353   0.088   3.199  0.0475 -0.2606 -0.2110
  651MOL0     C87816   5.296   0.132   3.318  0.1294  0.3293  0.5616
  651MOL0     C87817   5.160   0.201   3.301 -0.5931  0.7245 -0.9130
  651MOL0     H87818   5.277   0.102   3.859 -0.0094 -0.0943  1.5990
  651MOL0     H87819   5.202   0.210   4.062  1.3681  0.9477  0.8513
  651MOL0     H87820   5.173   0.572   4.256 -1.2979  3.3578  0.1662
  651MOL0     H87821   5.290   0.645   4.153  1.4865 -0.9986  3.9321
  651MOL0     H87822   5.020   0.501   4.089  0.1847  1.6243  1.9015
  651MOL0     H87823   5.128   0.543   3.954 -3.8127 -1.1135 -1.4980
  651MOL0     H87824   5.124   0.777   4.040 -0.0751 -0.0018 -0.2498
  651MOL0     H87825   4.979   0.744   4.144  0.4159  1.7680  0.6794
  651MOL0     H87826   5.009   0.732   3.841 -1.8356  1.5296 -1.9722
  651MOL0     H87827   4.870   0.649   3.939  2.8622 -3.2575  1.5852
  651MOL0     H87828   4.846   0.887   4.031 -2.2420  2.4841 -0.8491
  651MOL0     H87829   4.928   0.941   3.885 -2.6877  2.4540  1.2813
  651MOL0     H87830   4.753   0.802   3.748  3.3365 -1.3351 -0.6568
  651MOL0     H87831   4.663   0.783   3.907  2.0500 -0.7636 -0.8722
  651MOL0     H87832   4.725   1.041   3.766  0.3270 -0.9051 -0.9205
  651MOL0     H87833   4.673   1.034   3.940  2.6193  1.0076  0.2721
  651MOL0     H87834   4.505   0.987   3.691 -0.4880  2.0098  0.0902
  651MOL0     H87835   4.462   0.904   3.848  1.4743  0.1552  1.6999
  651MOL0     H87836   4.569   1.235   3.686  1.9847  1.3538  0.8904
  651MOL0     H87837   4.524   1.507   3.804  0.7121 -2.3815 -1.1638
  651MOL0     H87838   4.414   1.473   3.673  0.5977 -1.2189  0.2916
  651MOL0     H87839   4.334   1.552   3.956  2.1354  1.1972  0.5611
  651MOL0     H87840   4.358   1.659   3.830 -0.6269  0.4836  0.9769
  651MOL0     H87841   4.156   1.434   3.777 -3.0348  0.9417 -1.4197
  651MOL0     H87842   4.171   1.597   3.706 -3.1917  0.6623  0.3400
  651MOL0     H87843   4.127   1.685   3.943  0.2294  1.1857 -1.9000
  651MOL0     H87844   4.095   1.523   4.002 -0.0491 -0.1568 -0.3881
  651MOL0     H87845   3.721   1.547   3.790  0.4728  0.9388 -2.3938
  651MOL0     H87846   3.513   1.581   3.938  0.4804  0.7437 -2.4571
  651MOL0     H87847   3.218   1.463   4.257 -4.5902 -1.4750 -0.9624
  651MOL0     H87848   2.987   1.559   4.303 -0.7252 -0.4905  0.1589
  651MOL0     H87849   2.883   1.967   4.228  0.7206 -0.9466 -1.4850
  651MOL0     H87850   2.734   1.889   4.259 -0.8536 -4.1003  1.9256
  651MOL0     H87851   2.783   1.846   4.480  1.7300 -0.1559  1.1429
  651MOL0     H87852   2.952   1.875   4.465  0.4528  2.1122  1.1956
  651MOL0     H87853   2.916   2.117   4.413  0.1260 -1.5495 -1.7583
  651MOL0     H87854   2.742   2.093   4.451 -0.3047 -0.7830  0.0710
  651MOL0     H87855   2.983   2.025   4.629 -0.2165  0.0728  0.6753
  651MOL0     H87856   2.820   2.051   4.689  2.3911 -2.4213  1.2335
  651MOL0     H87857   3.028   2.256   4.588 -0.5181  2.0389  0.7343
  651MOL0     H87858   2.978   2.242   4.742 -2.0316  1.9734 -0.5006
  651MOL0     H87859   2.792   2.307   4.503  0.8022 -0.0238  0.1225
  651MOL0     H87860   2.742   2.315   4.680 -0.7145  0.8768  0.2929
  651MOL0     H87861   2.939   2.507   4.547 -0.0639  1.0193  0.8139
  651MOL0     H87862   2.924   2.484   4.723  3.0697  1.0534 -1.3135
  651MOL0     H87863   2.686   2.550   4.687 -0.3520  1.3467  1.3167
  651MOL0     H87864   2.813   2.676   4.644  1.7085 -1.1590 -0.1269
  651MOL0     H87865   3.111   1.929   4.134 -0.2379 -1.3663 -3.0224
  651MOL0     H87866   3.338   1.839   4.080  2.2898 -0.1511  0.9997
  651MOL0     H87867   3.775   1.702   4.269  0.2542  2.8123 -1.3489
  651MOL0     H87868   3.965   1.662   4.127  1.8448  4.8344 -3.6918
  651MOL0     H87869   5.428   0.557   3.985  0.8969 -0.7527  2.2158
  651MOL0     H87870   5.482   0.459   3.757 -3.3045  1.2308 -1.0665
  651MOL0     H87871   5.549   0.072   3.533 -2.0226  4.4645  0.5655
  651MOL0     H87872   5.654  -0.009   3.316  0.0293  0.5059 -0.6148
  651MOL0     H87873   5.544  -0.111   2.903 -3.1383 -4.7652 -2.4314
  651MOL0     H87874   5.394  -0.011   2.931  1.6850  2.1617 -1.0010
  651MOL0     H87875   5.315  -0.160   3.098  0.9330 -2.2762  1.0007
  651MOL0     H87876   5.466  -0.249   3.095  1.4124 -0.5147 -0.6537
  651MOL0     H87877   5.411  -0.316   2.851  0.4180  0.5829  0.7645
  651MOL0     H87878   5.253  -0.240   2.878 -0.4483  0.8539  1.7229
  651MOL0     H87879   5.244  -0.469   2.909 -0.3312  1.0203 -0.0278
  651MOL0     H87880   5.370  -0.469   3.035 -1.2679  0.8390  2.5512
  651MOL0     H87881   5.053  -0.330   3.271  2.0182  1.8682  0.5229
  651MOL0     H87882   5.294   0.100   3.108  0.3748  2.7743 -0.1157
  651MOL0     H87883   5.153   0.241   3.199  1.0556 -0.6700 -1.6170
  651MOL0     H87884   5.075   0.133   3.314 -1.3289  1.6016 -1.0302
  651MOL0     H87885   5.145   0.281   3.375  0.6861  2.5155 -2.4972
  652MOL0     O87886   8.751   7.178   1.836  0.0104  0.3157  0.4390
  652MOL0     C87887   8.669   7.171   1.747 -0.2307 -0.1180 -0.4085
  652MOL0     O87888   8.689   7.108   1.624  0.1698  0.4977 -0.1107
  652MOL0     C87889   8.803   7.030   1.598  0.2022  0.3284 -0.0491
  652MOL0     C87890   8.855   6.934   1.691  0.9811 -1.5438 -0.0628
  652MOL0     C87891   8.951   6.842   1.648  0.2833  0.3646  0.6542
  652MOL0     C87892   9.000   6.845   1.520 -0.5173 -0.3960  0.3542
  652MOL0     O87893   9.087   6.744   1.492  0.5670 -1.0591  0.0598
  652MOL0     C87894   9.121   6.696   1.358 -1.3307 -0.4358  1.1117
  652MOL0     C87895   9.232   6.786   1.304  0.1995 -0.2570  0.3759
  652MOL0     C87896   9.224   6.771   1.150  0.1033  0.1113 -0.5478
  652MOL0     C87897   9.317   6.851   1.065 -0.3949 -0.4634  0.1852
  652MOL0     C87898   9.322   6.998   1.101 -0.6674 -0.5307 -0.7080
  652MOL0     C87899   9.199   7.087   1.076  0.2123  0.6380 -0.1895
  652MOL0     C87900   9.243   7.229   1.111 -0.3350  0.4472  0.7669
  652MOL0     C87901   9.151   7.331   1.061  0.3651  0.0266 -0.6442
  652MOL0     N87902   9.015   7.310   1.116  0.3600  0.0937 -0.0712
  652MOL0     C87903   8.977   7.348   1.246  0.2951  0.8514 -0.0062
  652MOL0     C87904   8.846   7.322   1.248  0.4301  0.1158  0.2059
  652MOL0     C87905   8.745   7.348   1.358 -0.0224 -0.8803  0.4027
  652MOL0     C87906   8.656   7.466   1.334 -1.1660 -0.6094  0.0444
  652MOL0     C87907   8.718   7.604   1.316  0.3525 -0.7924  1.2513
  652MOL0     C87908   8.789   7.623   1.182  0.7110  0.2680  0.0562
  652MOL0     O87909   8.931   7.638   1.187  0.0985  0.6291 -0.1470
  652MOL0     C87910   9.000   7.646   1.071 -0.1411 -0.8543  0.6356
  652MOL0     C87911   8.965   7.621   0.936 -0.4845  0.2858 -0.9426
  652MOL0     C87912   9.054   7.663   0.830  0.1241  0.6113 -1.0364
  652MOL0     C87913   9.183   7.715   0.859 -0.1037 -0.3971  0.0202
  652MOL0     C87914   9.265   7.752   0.744  1.2802 -0.9922  0.0287
  652MOL0     O87915   9.228   7.715   0.613 -0.5697 -0.0118  0.1948
  652MOL0     C87916   9.307   7.756   0.508  0.8455 -0.4585 -0.2607
  652MOL0     C87917   9.404   7.668   0.456  0.3522 -0.3535 -0.1482
  652MOL0     C87918   9.468   7.687   0.333  0.8239 -0.4473 -0.0946
  652MOL0     C87919   9.422   7.791   0.247  0.0724 -0.7233 -0.2991
  652MOL0     O87920   9.492   7.801   0.123  0.2200  0.4066 -0.4960
  652MOL0     C87921   9.506   7.932   0.062 -0.3841 -0.0769 -0.8234
  652MOL0     C87922   9.515   7.923  -0.095  0.0301  0.0758  0.9287
  652MOL0     C87923   9.631   7.839  -0.152  0.1718  0.1942 -0.2923
  652MOL0     C87924   9.761   7.916  -0.178  0.2178 -0.0740 -0.2666
  652MOL0     C87925   9.763   7.985  -0.314  0.5418  0.3903  0.2053
  652MOL0     C87926   9.782   7.887  -0.424 -0.5756  0.3321 -0.9640
  652MOL0     C87927   9.846   7.936  -0.554  0.5991 -0.8046  0.7088
  652MOL0     C87928   9.829   7.836  -0.669  0.2432 -0.5830 -0.2931
  652MOL0    Cl87929   9.888   7.905  -0.825  0.2658 -0.3437 -0.2948
  652MOL0     C87930   9.323   7.879   0.286  0.5227  0.1218 -0.7428
  652MOL0     C87931   9.258   7.856   0.417 -0.4466  0.0148 -0.3273
  652MOL0     O87932   9.363   7.811   0.773 -0.0993  0.2897  0.1548
  652MOL0     C87933   9.229   7.713   0.988 -0.4676 -0.2344 -0.2322
  652MOL0     C87934   9.131   7.688   1.092 -0.9669  0.0375 -0.9848
  652MOL0     N87935   8.811   7.270   1.128  0.7391  0.2526  0.2624
  652MOL0     N87936   8.917   7.259   1.049  0.0492 -0.3444 -0.2460
  652MOL0     C87937   8.964   6.947   1.434 -0.4219 -0.4944  0.5177
  652MOL0     C87938   8.865   7.038   1.470  0.0763 -0.2649 -0.3542
  652MOL0     C87939   8.539   7.243   1.752  0.4980 -0.4668 -0.4121
  652MOL0     C87940   8.470   7.279   1.634 -0.3657  0.8838 -0.1211
  652MOL0     C87941   8.374   7.374   1.628 -0.7248  0.8541 -0.5969
  652MOL0     C87942   8.316   7.432   1.745 -0.1949  0.7323  0.2384
  652MOL0     O87943   8.215   7.524   1.738  0.8583  0.6022 -0.2151
  652MOL0     C87944   8.147   7.577   1.851  0.9710  0.4581 -0.3518
  652MOL0     C87945   8.007   7.620   1.801 -0.6337 -0.1634  0.3272
  652MOL0     C87946   7.900   7.513   1.811  0.4455 -1.1369 -0.0546
  652MOL0     C87947   7.770   7.562   1.749 -0.0458  0.9296  0.3699
  652MOL0     C87948   7.762   7.538   1.603 -0.4445 -0.0485  0.0601
  652MOL0     C87949   7.740   7.514   1.485  0.4958 -0.3876  0.4220
  652MOL0     C87950   8.354   7.375   1.873 -1.7712  0.2905 -0.8993
  652MOL0     C87951   8.479   7.304   1.870 -0.0961  0.4670  0.2508
  652MOL0     C87952   8.529   7.256   2.006 -0.6417  0.8265  0.2464
  652MOL0     H87953   8.826   6.924   1.795  1.4104  1.0343  0.3762
  652MOL0     H87954   8.970   6.763   1.719 -2.1376 -0.5991  0.3053
  652MOL0     H87955   9.150   6.591   1.355  2.0543  0.3354 -3.0578
  652MOL0     H87956   9.034   6.706   1.293 -0.3204 -2.3079 -0.6639
  652MOL0     H87957   9.330   6.756   1.343  0.5866  1.9745  1.2380
  652MOL0     H87958   9.227   6.886   1.347  2.5029 -0.4242  1.1947
  652MOL0     H87959   9.124   6.784   1.106  0.1280 -0.2400 -0.7090
  652MOL0     H87960   9.259   6.669   1.132  1.5351  0.4760  0.0670
  652MOL0     H87961   9.419   6.813   1.076 -0.4774 -0.0258  3.2067
  652MOL0     H87962   9.303   6.839   0.957  1.2572 -5.4225  0.2502
  652MOL0     H87963   9.346   7.008   1.207 -1.4752  1.0924 -0.6391
  652MOL0     H87964   9.406   7.044   1.048 -0.7129 -1.6064 -1.7421
  652MOL0     H87965   9.158   7.087   0.975 -0.7233  0.7528  0.1769
  652MOL0     H87966   9.122   7.060   1.150  2.2738 -0.1456  1.7835
  652MOL0     H87967   9.346   7.239   1.075 -0.0836 -0.7633  1.0866
  652MOL0     H87968   9.251   7.244   1.219  1.0170  0.8092  0.6298
  652MOL0     H87969   9.200   7.421   1.099  1.7176 -0.3309 -1.4418
  652MOL0     H87970   9.156   7.344   0.952  1.2731 -0.7489 -0.7183
  652MOL0     H87971   9.032   7.404   1.322  1.0053  3.3835 -2.2326
  652MOL0     H87972   8.685   7.259   1.377  0.1477 -1.2100 -0.5481
  652MOL0     H87973   8.801   7.373   1.449 -0.4191  2.0408 -0.0579
  652MOL0     H87974   8.602   7.449   1.240  2.2727  0.9959 -2.4815
  652MOL0     H87975   8.594   7.462   1.423 -1.3262  1.0666  0.0430
  652MOL0     H87976   8.795   7.626   1.391  1.8261  4.1049 -1.2351
  652MOL0     H87977   8.638   7.679   1.319 -2.6407 -3.4439 -2.7312
  652MOL0     H87978   8.736   7.709   1.140 -0.3448  0.1800  1.1732
  652MOL0     H87979   8.764   7.541   1.114  5.7417 -0.2839 -1.5578
  652MOL0     H87980   8.864   7.583   0.924  0.0173 -0.6585 -2.3700
  652MOL0     H87981   9.015   7.669   0.729  0.7175  0.6161 -1.2653
  652MOL0     H87982   9.442   7.594   0.525  3.5735  1.4204  0.1798
  652MOL0     H87983   9.542   7.622   0.289  1.1950  0.6465 -1.1536
  652MOL0     H87984   9.433   8.008   0.094  1.5792  0.8412  1.8004
  652MOL0     H87985   9.596   7.975   0.107 -1.4537  1.3907  0.0249
  652MOL0     H87986   9.425   7.877  -0.137  0.3370 -1.4405  1.8720
  652MOL0     H87987   9.537   8.028  -0.113  1.2084  0.0344  1.9603
  652MOL0     H87988   9.659   7.760  -0.082  0.5554  1.7575  1.3896
  652MOL0     H87989   9.614   7.788  -0.248 -1.9979  1.5911 -0.7332
  652MOL0     H87990   9.851   7.856  -0.166 -0.3247 -0.7278  0.7408
  652MOL0     H87991   9.771   7.984  -0.093 -0.9138  0.3480 -0.4495
  652MOL0     H87992   9.852   8.049  -0.306  2.0133 -1.6784  1.2351
  652MOL0     H87993   9.668   8.034  -0.334 -0.3768 -2.9200 -5.8612
  652MOL0     H87994   9.852   7.809  -0.392 -2.2648 -0.0888  2.0491
  652MOL0     H87995   9.688   7.833  -0.437  0.3539 -1.5735 -0.2886
  652MOL0     H87996   9.951   7.962  -0.539  0.1463  1.7566 -0.1603
  652MOL0     H87997   9.801   8.033  -0.577 -0.5082 -1.2944  0.7463
  652MOL0     H87998   9.890   7.747  -0.650  2.6401  1.6879  4.6448
  652MOL0     H87999   9.723   7.807  -0.674 -0.3283  1.4799 -4.6488
  652MOL0     H88000   9.282   7.959   0.225 -1.4840 -1.1101 -1.1001
  652MOL0     H88001   9.172   7.915   0.447 -0.7886 -1.1435  1.0627
  652MOL0     H88002   9.332   7.736   1.016 -0.0667 -3.0638  0.9234
  652MOL0     H88003   9.166   7.699   1.194  3.5627  1.8448 -2.4567
  652MOL0     H88004   8.989   6.947   1.328  1.6512  0.4119  0.9515
  652MOL0     H88005   8.811   7.086   1.389 -1.8089 -3.2158 -1.0275
  652MOL0     H88006   8.509   7.254   1.536  0.1339 -0.9264  0.4926
  652MOL0     H88007   8.328   7.412   1.537 -2.1011  2.1723  0.5827
  652MOL0     H88008   8.210   7.665   1.860  2.0853  0.0208 -2.9854
  652MOL0     H88009   8.147   7.514   1.941  1.2176  1.6036  0.4728
  652MOL0     H88010   8.012   7.672   1.705  0.9262 -0.6146  0.1415
  652MOL0     H88011   7.985   7.706   1.866  1.5725 -0.9657  2.3108
  652MOL0     H88012   7.892   7.493   1.918  5.3822  0.8090  0.9147
  652MOL0     H88013   7.937   7.426   1.756 -1.4117 -0.9424 -1.7652
  652MOL0     H88014   7.691   7.507   1.802 -1.6172  2.9099  0.1723
  652MOL0     H88015   7.746   7.665   1.775  0.3986  1.0731  0.2172
  652MOL0     H88016   7.719   7.487   1.383 -2.5576 -1.6698  1.2633
  652MOL0     H88017   8.323   7.395   1.976  0.1862  0.5638 -0.3247
  652MOL0     H88018   8.627   7.299   2.028  1.6530 -2.8911 -1.6319
  652MOL0     H88019   8.455   7.273   2.084 -3.8405 -0.5371 -2.2725
  652MOL0     H88020   8.535   7.148   1.993 -1.9110  0.5063  2.1141
  653MOL0     O88021   4.769   2.359   4.164  0.4593  0.5586 -0.6059
  653MOL0     C88022   4.659   2.401   4.113  0.5399  0.2236  0.1474
  653MOL0     O88023   4.549   2.430   4.180  0.0610 -0.5462 -0.3989
  653MOL0     C88024   4.555   2.385   4.310  0.0996 -0.7580  0.8525
  653MOL0     C88025   4.595   2.460   4.418  0.8189  0.9500 -0.4947
  653MOL0     C88026   4.581   2.403   4.547  0.3463  0.1041 -0.1346
  653MOL0     C88027   4.510   2.289   4.565  0.6105 -0.0209 -0.8042
  653MOL0     O88028   4.470   2.261   4.699  0.5602 -0.5187 -0.5416
  653MOL0     C88029   4.490   2.124   4.746  0.8245 -0.3210  0.1713
  653MOL0     C88030   4.460   2.103   4.897  0.3453 -0.3864 -0.3886
  653MOL0     C88031   4.314   2.149   4.924  1.1274 -0.0583  0.2492
  653MOL0     C88032   4.210   2.068   4.845  0.4948  0.6625 -0.2394
  653MOL0     C88033   4.064   2.062   4.915 -0.8631  0.0233 -0.1365
  653MOL0     C88034   4.051   1.968   5.047 -0.6802 -0.7394 -0.5552
  653MOL0     C88035   4.142   1.847   5.047 -1.2926 -0.1278  0.7290
  653MOL0     C88036   4.142   1.793   5.185  0.6250 -0.4260 -0.2591
  653MOL0     N88037   4.206   1.660   5.192 -0.3025  0.0932 -0.3775
  653MOL0     C88038   4.325   1.622   5.130 -1.3474 -0.3272  0.2030
  653MOL0     C88039   4.347   1.498   5.174  0.4066 -0.2562 -0.4703
  653MOL0     C88040   4.470   1.410   5.146 -0.5611 -0.1499  0.2714
  653MOL0     C88041   4.588   1.494   5.097 -0.2759  0.0634 -0.4880
  653MOL0     C88042   4.716   1.403   5.103  0.7649 -0.3495 -0.7928
  653MOL0     C88043   4.822   1.453   4.996  0.2436 -0.4224 -0.5622
  653MOL0     O88044   4.944   1.385   5.005 -0.0715  1.0049 -0.8135
  653MOL0     C88045   5.044   1.435   5.087 -0.0698  0.0191 -0.2483
  653MOL0     C88046   5.020   1.555   5.170  0.4374 -0.3088 -0.6365
  653MOL0     C88047   5.125   1.595   5.258 -0.7933 -0.0433 -0.0631
  653MOL0     C88048   5.245   1.525   5.274 -0.3862 -0.5214 -0.0978
  653MOL0     C88049   5.335   1.571   5.388  0.4115 -0.5205 -0.5979
  653MOL0     O88050   5.278   1.650   5.486 -0.5046 -0.2874  0.2950
  653MOL0     C88051   5.358   1.747   5.544  0.0475 -0.0500  0.2418
  653MOL0     C88052   5.499   1.760   5.535  0.0995 -0.5420  0.5236
  653MOL0     C88053   5.566   1.866   5.598 -0.2833  0.7018  0.0634
  653MOL0     C88054   5.498   1.950   5.687  0.5540  0.3147  0.4504
  653MOL0     O88055   5.574   2.044   5.757 -0.9868 -0.4455 -0.0038
  653MOL0     C88056   5.591   2.001   5.896  0.3579  0.0562  0.4802
  653MOL0     C88057   5.723   2.062   5.948  0.0797 -0.6785  0.9084
  653MOL0     C88058   5.733   2.212   5.916  0.1122  0.3038 -0.2383
  653MOL0     C88059   5.862   2.272   5.975 -0.3508  0.9795  0.4342
  653MOL0     C88060   5.871   2.289   6.128  0.0960 -1.0223  0.1161
  653MOL0     C88061   6.004   2.356   6.168  0.6110 -0.9020 -0.7954
  653MOL0     C88062   6.138   2.278   6.155  0.6707  0.1142 -0.1118
  653MOL0     C88063   6.148   2.169   6.268  0.3891  0.3261  1.3505
  653MOL0    Cl88064   6.139   2.234   6.428  0.6303 -0.2058 -0.2359
  653MOL0     C88065   5.361   1.931   5.704  0.2950  0.0459 -0.2976
  653MOL0     C88066   5.296   1.826   5.639 -0.1875  0.0875  0.0613
  653MOL0     O88067   5.435   1.501   5.398 -0.6060 -1.2709 -0.1638
  653MOL0     C88068   5.271   1.420   5.186 -0.2292 -0.3274  0.7905
  653MOL0     C88069   5.174   1.373   5.092  0.5553  1.1008  0.1374
  653MOL0     N88070   4.244   1.466   5.268  0.1643 -0.6028 -0.3112
  653MOL0     N88071   4.170   1.569   5.275 -0.0427 -0.0947 -0.6655
  653MOL0     C88072   4.466   2.220   4.456 -0.2174  0.6798  0.3393
  653MOL0     C88073   4.499   2.260   4.323 -0.1447 -0.6968 -1.2714
  653MOL0     C88074   4.644   2.402   3.964 -0.7076 -0.2383  1.6126
  653MOL0     C88075   4.746   2.477   3.899 -0.6586 -0.1293  0.5132
  653MOL0     C88076   4.754   2.482   3.757 -0.1519 -0.3241 -0.7847
  653MOL0     C88077   4.649   2.424   3.686 -0.0989 -0.2543 -0.1389
  653MOL0     O88078   4.632   2.470   3.554  0.1863  0.2275 -0.7739
  653MOL0     C88079   4.524   2.413   3.473 -0.1847 -0.1092  0.0736
  653MOL0     C88080   4.535   2.252   3.447 -0.1031 -0.2426 -0.2805
  653MOL0     C88081   4.416   2.183   3.382 -0.1523  0.3678 -0.3333
  653MOL0     C88082   4.343   2.264   3.283 -0.2120  0.3898 -0.2178
  653MOL0     C88083   4.237   2.340   3.358  1.0319 -0.6256 -0.7139
  653MOL0     C88084   4.141   2.400   3.416  0.2783 -0.6854 -0.6093
  653MOL0     C88085   4.553   2.350   3.741  0.7204  0.6140 -0.7716
  653MOL0     C88086   4.542   2.344   3.882 -0.0279 -0.4430 -0.2100
  653MOL0     C88087   4.425   2.282   3.950 -0.9775  0.9459 -0.3483
  653MOL0     H88088   4.651   2.552   4.405  1.7559  0.6643  1.3097
  653MOL0     H88089   4.649   2.452   4.616  2.9180 -0.1466 -2.2979
  653MOL0     H88090   4.436   2.049   4.688  1.0054 -3.0669  3.2465
  653MOL0     H88091   4.594   2.095   4.728  0.1177 -1.0362 -3.6053
  653MOL0     H88092   4.527   2.166   4.956 -0.3907 -1.9855  2.3324
  653MOL0     H88093   4.489   2.000   4.921  1.0916 -0.3447 -1.0698
  653MOL0     H88094   4.301   2.258   4.926  1.0329 -0.0762  1.0860
  653MOL0     H88095   4.294   2.129   5.030 -3.1103 -1.9020 -0.6943
  653MOL0     H88096   4.184   2.119   4.752 -3.1547  1.5039  1.0870
  653MOL0     H88097   4.242   1.965   4.824 -0.1719  0.2482  0.6801
  653MOL0     H88098   4.035   2.166   4.928  1.8616  0.8711 -0.2523
  653MOL0     H88099   3.989   2.037   4.839  0.3821 -3.7956 -0.3197
  653MOL0     H88100   4.086   2.033   5.128  1.5008 -2.1029 -0.2929
  653MOL0     H88101   3.949   1.932   5.066  0.2752 -3.6806 -0.4415
  653MOL0     H88102   4.248   1.865   5.025 -0.7068  0.1437  3.3670
  653MOL0     H88103   4.115   1.775   4.969  1.2796 -0.0479 -0.3336
  653MOL0     H88104   4.184   1.865   5.255 -1.3623  0.6124 -0.0610
  653MOL0     H88105   4.039   1.781   5.219  0.2522  2.3190 -0.2391
  653MOL0     H88106   4.393   1.676   5.065 -0.5804 -0.8195  0.5781
  653MOL0     H88107   4.484   1.360   5.242 -2.0403  0.0463  0.6101
  653MOL0     H88108   4.460   1.328   5.074 -3.6932  1.4819 -1.3433
  653MOL0     H88109   4.577   1.535   4.997  1.9257 -0.6389 -1.0934
  653MOL0     H88110   4.582   1.579   5.166  2.6017  0.2026 -0.2827
  653MOL0     H88111   4.687   1.303   5.068  0.0468  0.6187 -3.1096
  653MOL0     H88112   4.746   1.404   5.208 -1.2517  0.7748 -0.1917
  653MOL0     H88113   4.844   1.560   4.998  0.7757 -0.5334  0.6693
  653MOL0     H88114   4.772   1.428   4.902  1.2289 -0.6591 -1.0340
  653MOL0     H88115   4.927   1.609   5.178 -0.8170 -2.6754  2.5250
  653MOL0     H88116   5.096   1.676   5.324 -1.6690 -0.0132 -0.4679
  653MOL0     H88117   5.563   1.712   5.462  0.4935  1.3045 -0.4290
  653MOL0     H88118   5.663   1.901   5.563 -0.2707 -0.2465 -0.8872
  653MOL0     H88119   5.504   2.036   5.952  2.2107  1.7241  2.4933
  653MOL0     H88120   5.579   1.894   5.917  0.3227  0.3723  2.1795
  653MOL0     H88121   5.728   2.038   6.054 -2.8362  0.8420  1.4987
  653MOL0     H88122   5.815   2.031   5.899 -1.2020  0.3601 -2.4524
  653MOL0     H88123   5.738   2.226   5.808 -0.5996  2.5135 -0.0475
  653MOL0     H88124   5.654   2.279   5.954 -0.1069  0.5119 -1.0433
  653MOL0     H88125   5.877   2.374   5.939  0.3995  2.0190  3.3798
  653MOL0     H88126   5.944   2.215   5.929  0.2249  1.5831  0.6993
  653MOL0     H88127   5.855   2.189   6.169 -0.6755 -1.4285 -1.1418
  653MOL0     H88128   5.786   2.349   6.161 -0.1479  2.1945 -5.2845
  653MOL0     H88129   6.027   2.443   6.105  4.6994  0.4514  2.1273
  653MOL0     H88130   5.984   2.389   6.271  1.2660 -2.5387 -0.1117
  653MOL0     H88131   6.220   2.350   6.155  1.2474 -0.5326 -1.1168
  653MOL0     H88132   6.139   2.223   6.061  0.0013 -0.9551  0.4763
  653MOL0     H88133   6.065   2.099   6.256 -0.8044  1.1531  4.0398
  653MOL0     H88134   6.242   2.113   6.270  0.2033  0.0303  1.9418
  653MOL0     H88135   5.318   2.000   5.776  1.2960 -0.9188  1.2808
  653MOL0     H88136   5.190   1.805   5.645 -0.4761  1.4973  0.2965
  653MOL0     H88137   5.366   1.370   5.204  1.6328  2.3166 -0.9003
  653MOL0     H88138   5.199   1.285   5.034  2.7171  2.9206 -1.9319
  653MOL0     H88139   4.412   2.127   4.469  3.9730 -2.3093 -1.3158
  653MOL0     H88140   4.436   2.215   4.247  0.6833 -0.4243 -2.1341
  653MOL0     H88141   4.820   2.527   3.962  1.2911 -1.8670 -0.2715
  653MOL0     H88142   4.840   2.537   3.721 -1.4198  1.6323 -0.9309
  653MOL0     H88143   4.518   2.459   3.374  1.9994  0.0631 -0.0213
  653MOL0     H88144   4.429   2.437   3.521  0.7974  2.1121  1.0504
  653MOL0     H88145   4.561   2.197   3.538 -1.5906  0.5360  0.6554
  653MOL0     H88146   4.628   2.233   3.392 -0.8957 -3.1173 -0.7972
  653MOL0     H88147   4.365   2.149   3.473  1.6748 -0.2533  0.5123
  653MOL0     H88148   4.462   2.098   3.332  2.6436  1.4188  0.2213
  653MOL0     H88149   4.419   2.327   3.236  1.4950  1.1665  3.2541
  653MOL0     H88150   4.286   2.206   3.210 -4.1853  3.9983 -0.3831
  653MOL0     H88151   4.060   2.435   3.477  1.7912  0.4553  0.8464
  653MOL0     H88152   4.473   2.304   3.684  2.4486  1.3495 -3.9763
  653MOL0     H88153   4.363   2.229   3.876 -0.6300 -0.6058  0.4368
  653MOL0     H88154   4.454   2.200   4.017 -0.4268  2.3534  1.2035
  653MOL0     H88155   4.360   2.351   4.005 -0.9642  1.0667 -0.4832
  654MOL0     O88156   7.919   1.393   3.656  0.5031  0.4653 -0.2805
  654MOL0     C88157   7.921   1.301   3.571 -0.1358 -0.4886  1.4101
  654MOL0     O88158   7.823   1.200   3.555  0.3528 -0.7310 -0.0360
  654MOL0     C88159   7.730   1.201   3.645 -0.2443 -0.3594 -0.0242
  654MOL0     C88160   7.638   1.306   3.675 -0.4259  0.7574  0.1684
  654MOL0     C88161   7.534   1.278   3.757  0.1814 -0.7474 -1.2678
  654MOL0     C88162   7.511   1.157   3.820  0.3530  0.2501  0.6082
  654MOL0     O88163   7.408   1.155   3.907 -0.3106  0.6279  0.5655
  654MOL0     C88164   7.351   1.022   3.904  1.0742  0.2948  0.3032
  654MOL0     C88165   7.204   1.048   3.942 -0.8321  0.1331  0.8555
  654MOL0     C88166   7.148   1.157   3.848 -0.5376 -0.0408 -0.0176
  654MOL0     C88167   7.001   1.138   3.849  0.2037 -1.3796 -0.5942
  654MOL0     C88168   6.948   1.272   3.792  0.2081 -0.2978  0.8481
  654MOL0     C88169   6.799   1.295   3.843  0.4712 -0.1420  0.5094
  654MOL0     C88170   6.726   1.424   3.776  0.1237 -0.4306  0.6712
  654MOL0     C88171   6.580   1.436   3.808 -0.5006  0.2527  0.7852
  654MOL0     N88172   6.481   1.339   3.745 -0.3409 -0.7600  0.9122
  654MOL0     C88173   6.509   1.216   3.703  0.7550 -0.1726 -0.1341
  654MOL0     C88174   6.408   1.169   3.629  0.4556  0.5488  0.5041
  654MOL0     C88175   6.380   1.026   3.593  0.2932 -0.8144  1.8054
  654MOL0     C88176   6.344   1.020   3.438 -0.4451  0.5025  0.1802
  654MOL0     C88177   6.334   0.876   3.402  0.3323 -0.4993 -0.3770
  654MOL0     C88178   6.224   0.802   3.471  0.6230  0.4482 -0.1033
  654MOL0     O88179   6.296   0.724   3.576 -0.4568 -0.0276 -0.6939
  654MOL0     C88180   6.214   0.655   3.664  0.5989  0.4658 -0.6460
  654MOL0     C88181   6.146   0.544   3.614 -0.7527  0.0644  0.2192
  654MOL0     C88182   6.059   0.470   3.702 -0.1221  0.6002 -0.2286
  654MOL0     C88183   6.041   0.501   3.837  0.8797  0.0757  0.1759
  654MOL0     C88184   5.934   0.429   3.910 -0.0332  0.4270 -0.8660
  654MOL0     O88185   5.866   0.338   3.842  0.6832  1.1251 -0.1700
  654MOL0     C88186   5.773   0.259   3.908  0.2483  0.7780  0.6636
  654MOL0     C88187   5.710   0.261   4.036  1.1111 -1.0757 -0.1719
  654MOL0     C88188   5.626   0.157   4.075  0.0692  0.1585  0.0119
  654MOL0     C88189   5.598   0.052   3.991  0.1061 -0.3231 -0.6670
  654MOL0     O88190   5.512  -0.054   4.009 -0.6515 -0.0128  0.2666
  654MOL0     C88191   5.506  -0.089   4.154  0.6272 -0.2778  0.1942
  654MOL0     C88192   5.439  -0.223   4.178 -0.4283 -0.8337  0.6044
  654MOL0     C88193   5.531  -0.340   4.144 -0.3191  0.5688 -0.3093
  654MOL0     C88194   5.464  -0.469   4.153 -0.0301  0.5809  0.1822
  654MOL0     C88195   5.532  -0.591   4.083  0.1970 -1.3116  0.5324
  654MOL0     C88196   5.428  -0.701   4.056 -0.4125 -0.1081 -0.4892
  654MOL0     C88197   5.500  -0.833   4.007 -0.3223  0.7648  0.0515
  654MOL0     C88198   5.392  -0.948   3.975 -0.1750  1.1669  0.1387
  654MOL0    Cl88199   5.467  -1.104   3.937 -0.1472  0.3184  0.1005
  654MOL0     C88200   5.660   0.057   3.862  0.0659  0.0449  1.0107
  654MOL0     C88201   5.747   0.148   3.819  0.4964 -0.6936 -0.5487
  654MOL0     O88202   5.907   0.465   4.025  0.1011  0.0244  0.0343
  654MOL0     C88203   6.115   0.616   3.880  0.2457 -0.1429  0.3289
  654MOL0     C88204   6.203   0.696   3.795  0.4512  0.2739  0.3297
  654MOL0     N88205   6.319   1.279   3.619 -0.7692  0.6468 -0.6556
  654MOL0     N88206   6.365   1.385   3.679 -0.5967  0.5509 -0.3569
  654MOL0     C88207   7.605   1.058   3.796  0.8611  0.2520  0.6710
  654MOL0     C88208   7.709   1.072   3.704  0.6059 -0.5143 -0.2417
  654MOL0     C88209   8.020   1.302   3.454  0.4383  0.1057 -1.5800
  654MOL0     C88210   8.067   1.177   3.404  0.6959  0.2684 -0.6710
  654MOL0     C88211   8.157   1.164   3.296  0.7395 -0.8067 -0.9470
  654MOL0     C88212   8.210   1.276   3.233 -0.5733  0.2978 -0.2268
  654MOL0     O88213   8.303   1.273   3.137 -1.4629 -0.1186  1.1356
  654MOL0     C88214   8.342   1.145   3.073  0.5003 -1.2927 -0.2625
  654MOL0     C88215   8.454   1.175   2.973 -0.2187 -0.2647 -0.7946
  654MOL0     C88216   8.392   1.248   2.853 -0.4678 -0.1687 -0.6510
  654MOL0     C88217   8.491   1.331   2.770  0.8067  0.2875  0.2434
  654MOL0     C88218   8.601   1.248   2.730 -0.3585 -0.7135  0.3367
  654MOL0     C88219   8.704   1.190   2.691 -0.1028 -0.0316 -0.1717
  654MOL0     C88220   8.177   1.404   3.287 -0.0928 -0.3940 -0.0293
  654MOL0     C88221   8.077   1.416   3.391 -0.3160  0.0777  0.8335
  654MOL0     C88222   8.054   1.559   3.446 -0.3935  0.1765 -0.3190
  654MOL0     H88223   7.642   1.398   3.618 -2.4374  0.2751 -0.8353
  654MOL0     H88224   7.471   1.364   3.777  2.1674  0.4666  0.2351
  654MOL0     H88225   7.352   0.978   3.804 -1.7120  2.5190 -0.8361
  654MOL0     H88226   7.392   0.957   3.982  0.8574  0.0980  0.2559
  654MOL0     H88227   7.206   1.079   4.047 -2.3104 -1.0475  1.2631
  654MOL0     H88228   7.137   0.963   3.927 -1.4033  0.7785 -0.3811
  654MOL0     H88229   7.194   1.147   3.749  1.8299 -2.2438  1.1867
  654MOL0     H88230   7.179   1.254   3.888  3.2276 -0.5131 -1.3364
  654MOL0     H88231   6.981   1.060   3.775 -2.7483  0.4389 -1.8826
  654MOL0     H88232   6.960   1.130   3.950  0.0313  1.6126 -0.3570
  654MOL0     H88233   7.006   1.360   3.822  0.2494  0.0778 -0.2919
  654MOL0     H88234   6.956   1.273   3.683  2.0494 -0.4731  0.9372
  654MOL0     H88235   6.745   1.200   3.850  0.6603 -0.2192  0.9776
  654MOL0     H88236   6.807   1.331   3.947 -1.2590  2.6133 -0.1823
  654MOL0     H88237   6.751   1.434   3.671  4.2351  0.7220  1.5966
  654MOL0     H88238   6.768   1.510   3.829 -1.9796 -0.1678  2.0389
  654MOL0     H88239   6.576   1.412   3.915 -1.4725 -4.4781 -0.0505
  654MOL0     H88240   6.543   1.538   3.806 -2.2662 -0.2781  2.8262
  654MOL0     H88241   6.593   1.156   3.736 -0.2097 -3.0490 -2.4716
  654MOL0     H88242   6.475   0.972   3.604  2.3927  2.0409 -0.6803
  654MOL0     H88243   6.297   0.996   3.658 -0.4587  1.3948  1.9449
  654MOL0     H88244   6.251   1.075   3.422 -2.1708 -2.1670  0.4282
  654MOL0     H88245   6.429   1.066   3.386  0.8704 -1.3256  0.6160
  654MOL0     H88246   6.423   0.814   3.415 -0.6071 -1.2943  3.8751
  654MOL0     H88247   6.308   0.864   3.297 -2.5019 -2.7832  0.4554
  654MOL0     H88248   6.173   0.732   3.404  1.4427 -1.7652  1.4327
  654MOL0     H88249   6.159   0.866   3.531 -2.9945  0.9538 -4.0636
  654MOL0     H88250   6.145   0.514   3.510 -0.2721  0.7702  0.0051
  654MOL0     H88251   6.001   0.392   3.653  1.0536  0.2379 -1.1044
  654MOL0     H88252   5.714   0.350   4.098  1.4376 -0.9771 -0.3331
  654MOL0     H88253   5.577   0.169   4.171 -1.3551  0.6840 -0.7425
  654MOL0     H88254   5.603  -0.078   4.203  0.8358  2.7761 -0.7060
  654MOL0     H88255   5.445  -0.011   4.201 -2.8524 -2.3869 -0.5039
  654MOL0     H88256   5.416  -0.238   4.284 -2.5937  3.5757  0.9829
  654MOL0     H88257   5.346  -0.226   4.121  2.2188  0.0609 -4.2673
  654MOL0     H88258   5.567  -0.342   4.040 -1.4111 -2.5832 -0.7605
  654MOL0     H88259   5.616  -0.334   4.213 -1.2281  5.0938  0.7519
  654MOL0     H88260   5.358  -0.464   4.124 -1.3503  0.0159  4.1912
  654MOL0     H88261   5.459  -0.489   4.261 -0.1545  1.3215  0.3185
  654MOL0     H88262   5.617  -0.618   4.146  0.7739  0.3807  0.5280
  654MOL0     H88263   5.572  -0.554   3.988 -1.1911 -0.0282  0.4198
  654MOL0     H88264   5.376  -0.735   4.146  0.7204 -1.5495 -0.3391
  654MOL0     H88265   5.357  -0.675   3.977  0.9884  1.5419 -1.2554
  654MOL0     H88266   5.554  -0.863   4.097  0.9657  4.2626  0.5856
  654MOL0     H88267   5.561  -0.817   3.917 -2.6710 -1.7758 -2.2059
  654MOL0     H88268   5.322  -0.953   4.059 -0.5528  1.8127 -0.1308
  654MOL0     H88269   5.340  -0.914   3.885 -0.6344 -0.0189 -0.0731
  654MOL0     H88270   5.637  -0.026   3.797  2.6141 -0.3400  0.4685
  654MOL0     H88271   5.789   0.133   3.720  0.4438 -1.8994 -0.3989
  654MOL0     H88272   6.104   0.642   3.985 -1.1065 -0.9336  0.4033
  654MOL0     H88273   6.250   0.782   3.842 -2.0735  2.6345 -1.1231
  654MOL0     H88274   7.586   0.965   3.848 -1.1668 -0.5157 -1.2871
  654MOL0     H88275   7.777   0.991   3.679 -4.1081 -4.2971 -2.3515
  654MOL0     H88276   8.044   1.094   3.469 -1.1617 -0.5076 -2.2379
  654MOL0     H88277   8.170   1.060   3.269 -1.1724 -1.3159 -0.1141
  654MOL0     H88278   8.259   1.113   3.009 -0.6820  3.1000 -1.2598
  654MOL0     H88279   8.376   1.067   3.142  3.2249 -2.6868 -2.9468
  654MOL0     H88280   8.494   1.078   2.942 -2.8014 -0.6521 -3.3448
  654MOL0     H88281   8.524   1.246   3.019 -0.6182 -0.8782  0.8349
  654MOL0     H88282   8.315   1.319   2.886 -1.0995  0.0152 -2.3913
  654MOL0     H88283   8.338   1.173   2.794  0.3693 -0.2426 -1.3403
  654MOL0     H88284   8.446   1.360   2.674 -0.4323 -0.7206  0.4961
  654MOL0     H88285   8.523   1.416   2.830  3.0814 -0.0588 -0.3971
  654MOL0     H88286   8.795   1.147   2.657  2.0731  3.9167 -0.0087
  654MOL0     H88287   8.227   1.495   3.253  0.0224 -0.1398  0.8018
  654MOL0     H88288   8.062   1.558   3.555 -5.0076 -0.5782  0.1810
  654MOL0     H88289   8.120   1.635   3.403 -0.7384  0.1664 -0.8785
  654MOL0     H88290   7.949   1.581   3.430 -0.1834 -1.1862 -4.9555
  655MOL0     O88291  10.821   6.285   2.058 -0.1076  0.6884 -0.5030
  655MOL0     C88292  10.770   6.389   2.023  0.3160 -0.2794 -0.5098
  655MOL0     O88293  10.702   6.470   2.102  0.2448 -0.3097 -0.1355
  655MOL0     C88294  10.660   6.436   2.233  1.0489 -0.2417  0.6082
  655MOL0     C88295  10.651   6.316   2.293 -0.8336 -0.4278  0.8535
  655MOL0     C88296  10.606   6.293   2.418  0.4604  0.3182 -0.1994
  655MOL0     C88297  10.555   6.391   2.497 -0.1990 -0.9453  0.0105
  655MOL0     O88298  10.512   6.387   2.625  0.6321  1.0262  0.3032
  655MOL0     C88299  10.503   6.252   2.677 -0.7215 -0.8430 -0.9474
  655MOL0     C88300  10.413   6.242   2.802  0.7053  0.3107  0.3497
  655MOL0     C88301  10.380   6.370   2.878  0.0224 -0.7543 -0.0879
  655MOL0     C88302  10.503   6.448   2.928 -0.2958  0.3948  0.0148
  655MOL0     C88303  10.596   6.393   3.035  0.1714 -1.0354  0.3683
  655MOL0     C88304  10.523   6.360   3.164 -0.8713  0.3329 -1.1941
  655MOL0     C88305  10.623   6.286   3.266 -0.0503 -0.1156  0.7942
  655MOL0     C88306  10.554   6.153   3.317 -0.6831 -0.6188 -0.0263
  655MOL0     N88307  10.559   6.057   3.208 -0.0352 -0.6020  0.1034
  655MOL0     C88308  10.670   5.993   3.166 -0.4408 -0.1806 -0.9324
  655MOL0     C88309  10.625   5.912   3.062  0.1758  0.1487  0.3133
  655MOL0     C88310  10.698   5.805   2.984  0.2758  0.5721  0.4611
  655MOL0     C88311  10.729   5.864   2.848 -0.0227 -0.5754 -0.9138
  655MOL0     C88312  10.825   5.979   2.844  0.3575 -0.4990  0.2399
  655MOL0     C88313  10.824   6.052   2.718 -0.5592 -0.1176  0.1649
  655MOL0     O88314  10.949   6.021   2.662  0.6095  0.6910 -0.4827
  655MOL0     C88315  11.009   6.099   2.564 -0.2002 -0.0318 -0.8684
  655MOL0     C88316  11.138   6.050   2.539 -0.2901 -0.2031 -0.1735
  655MOL0     C88317  11.213   6.112   2.426 -0.1831  0.5155 -0.0195
  655MOL0     C88318  11.152   6.201   2.337  0.5659 -0.5336 -0.3136
  655MOL0     C88319  11.214   6.246   2.213  0.3172 -0.8817  0.3121
  655MOL0     O88320  11.336   6.202   2.182  0.0043 -0.0354 -0.4606
  655MOL0     C88321  11.398   6.243   2.072 -0.1687  0.3543  1.3693
  655MOL0     C88322  11.505   6.339   2.074  0.8908 -1.0267 -0.0830
  655MOL0     C88323  11.592   6.352   1.963  0.1237 -0.5731  0.2723
  655MOL0     C88324  11.559   6.291   1.834  0.3276 -0.2254 -0.4679
  655MOL0     O88325  11.624   6.319   1.721  0.3130  0.0614  0.0003
  655MOL0     C88326  11.628   6.458   1.692 -0.0125 -0.0893  0.2924
  655MOL0     C88327  11.508   6.501   1.610  0.0600  0.1318 -0.1976
  655MOL0     C88328  11.499   6.411   1.478 -0.4441 -1.1054  0.4349
  655MOL0     C88329  11.580   6.479   1.362 -0.3484  0.3416 -1.1851
  655MOL0     C88330  11.559   6.419   1.223  0.0289  0.0642  0.4521
  655MOL0     C88331  11.413   6.440   1.181  0.2943 -0.8061 -0.4481
  655MOL0     C88332  11.409   6.583   1.130  0.4021  1.4756 -0.2277
  655MOL0     C88333  11.282   6.606   1.062 -1.0663 -0.2942  0.3543
  655MOL0    Cl88334  11.159   6.638   1.184  0.1503  0.2066  0.0799
  655MOL0     C88335  11.457   6.208   1.830 -0.7166 -0.3315  0.3313
  655MOL0     C88336  11.378   6.180   1.945  0.4427  0.0525 -0.0636
  655MOL0     O88337  11.153   6.317   2.132  0.1052 -0.3947 -0.3438
  655MOL0     C88338  11.023   6.240   2.365 -0.1628  0.0882 -0.9734
  655MOL0     C88339  10.949   6.196   2.478  0.3277 -0.5953 -0.5458
  655MOL0     N88340  10.494   5.945   3.028 -1.4187 -0.0101 -0.6970
  655MOL0     N88341  10.460   6.032   3.116 -0.5388  0.4600 -0.1312
  655MOL0     C88342  10.545   6.520   2.442 -1.1541  0.0768 -0.3909
  655MOL0     C88343  10.597   6.548   2.304  0.8087  0.0098 -0.0025
  655MOL0     C88344  10.802   6.435   1.892 -0.9552 -0.3878 -0.2874
  655MOL0     C88345  10.943   6.446   1.866  0.4541  0.9989  0.3230
  655MOL0     C88346  10.989   6.498   1.743  0.4978  0.4125  0.4681
  655MOL0     C88347  10.895   6.537   1.645  0.3995 -0.5411 -0.7136
  655MOL0     O88348  10.925   6.582   1.522 -0.6274 -0.1834 -0.4482
  655MOL0     C88349  10.960   6.717   1.512 -0.0320  0.2066  0.1016
  655MOL0     C88350  10.845   6.806   1.474  1.1026  0.5088  0.5754
  655MOL0     C88351  10.798   6.770   1.325  0.0319  0.0263 -0.8309
  655MOL0     C88352  10.690   6.863   1.274  0.1473 -0.3104 -0.2436
  655MOL0     C88353  10.632   6.820   1.147  0.2776  0.1330 -0.0330
  655MOL0     C88354  10.598   6.790   1.036 -0.0822  0.6471  0.8499
  655MOL0     C88355  10.765   6.528   1.674 -0.9232 -0.3687 -0.5691
  655MOL0     C88356  10.712   6.480   1.792 -0.3977  0.1489 -0.2017
  655MOL0     C88357  10.565   6.472   1.807 -0.0199  1.3990 -1.0628
  655MOL0     H88358  10.679   6.234   2.227  1.1219  0.2358  0.7891
  655MOL0     H88359  10.611   6.187   2.441 -0.2735  0.0659 -1.1197
  655MOL0     H88360  10.464   6.183   2.602  0.9351 -2.3172 -0.5128
  655MOL0     H88361  10.602   6.212   2.700 -1.5521 -0.8721  3.5686
  655MOL0     H88362  10.448   6.159   2.865 -2.4416 -0.7044  0.9374
  655MOL0     H88363  10.316   6.211   2.762  1.5500 -2.8145  0.4250
  655MOL0     H88364  10.324   6.328   2.961  1.8628  2.4329  3.0573
  655MOL0     H88365  10.313   6.430   2.815  0.2783 -0.7107 -0.3211
  655MOL0     H88366  10.562   6.475   2.840  1.6923  1.2513  1.5287
  655MOL0     H88367  10.464   6.544   2.964  2.2752  1.0681  1.2079
  655MOL0     H88368  10.633   6.297   2.996 -0.0285 -0.3265 -1.7206
  655MOL0     H88369  10.676   6.462   3.064 -1.1969  0.3581  0.9689
  655MOL0     H88370  10.496   6.454   3.214 -0.4580 -1.3390  2.4974
  655MOL0     H88371  10.422   6.319   3.159 -0.4570 -1.3349  1.7891
  655MOL0     H88372  10.641   6.347   3.355  0.5855 -0.8111  1.1557
  655MOL0     H88373  10.726   6.265   3.237  1.2510  1.8340  3.4753
  655MOL0     H88374  10.615   6.119   3.401 -1.1619  0.6885  0.8713
  655MOL0     H88375  10.454   6.174   3.356  0.8070  4.1765  1.9445
  655MOL0     H88376  10.765   5.998   3.218 -2.1015  1.6479  2.2072
  655MOL0     H88377  10.790   5.773   3.034 -0.3908  0.0880  1.4137
  655MOL0     H88378  10.631   5.718   2.986  0.1448  0.5380  4.8462
  655MOL0     H88379  10.757   5.783   2.780  0.9497 -1.0907  0.0747
  655MOL0     H88380  10.637   5.907   2.808 -0.1755  3.6496  3.1110
  655MOL0     H88381  10.923   5.941   2.874 -0.3792 -1.9126  0.9302
  655MOL0     H88382  10.796   6.055   2.917  3.5460  0.2160  0.9127
  655MOL0     H88383  10.824   6.159   2.744 -0.2570 -0.7036  2.9594
  655MOL0     H88384  10.741   6.029   2.650 -0.7072  0.0825  0.2745
  655MOL0     H88385  11.181   5.979   2.608 -0.3655 -0.7181 -0.6480
  655MOL0     H88386  11.319   6.105   2.407 -0.4275  0.5505 -1.4992
  655MOL0     H88387  11.515   6.400   2.163 -1.7848 -4.2635  2.7339
  655MOL0     H88388  11.671   6.425   1.974  0.7148 -1.1245 -0.2539
  655MOL0     H88389  11.632   6.515   1.786  2.7968 -1.2886  0.9920
  655MOL0     H88390  11.710   6.488   1.626  1.0946  1.7415  2.3843
  655MOL0     H88391  11.422   6.490   1.678 -0.4837 -0.0880 -0.9162
  655MOL0     H88392  11.523   6.605   1.582  4.2944 -0.8623 -2.3092
  655MOL0     H88393  11.529   6.306   1.485 -0.7084 -1.3353 -1.3895
  655MOL0     H88394  11.396   6.390   1.446 -0.2958 -3.0230  1.0793
  655MOL0     H88395  11.686   6.474   1.391 -0.3776 -0.5008 -1.1921
  655MOL0     H88396  11.551   6.584   1.356  3.4899  1.7364  0.8818
  655MOL0     H88397  11.573   6.312   1.245  0.9642 -0.1831 -1.1407
  655MOL0     H88398  11.638   6.458   1.158  1.0674 -0.0167  1.6321
  655MOL0     H88399  11.387   6.364   1.106  2.6888 -3.1402  0.8875
  655MOL0     H88400  11.339   6.429   1.261 -1.0483 -1.0716 -1.6844
  655MOL0     H88401  11.481   6.589   1.048 -1.4676 -0.9507 -2.2137
  655MOL0     H88402  11.425   6.658   1.208  0.1149  0.6448  0.6599
  655MOL0     H88403  11.287   6.688   0.991 -1.3435 -0.7731 -0.2323
  655MOL0     H88404  11.241   6.529   0.996 -0.5694 -0.0894 -0.2038
  655MOL0     H88405  11.429   6.166   1.734  0.8792  0.2308 -0.4167
  655MOL0     H88406  11.303   6.101   1.941  0.8202 -0.4317  1.6162
  655MOL0     H88407  10.979   6.322   2.310 -1.1836 -0.3223 -0.7822
  655MOL0     H88408  10.849   6.230   2.501  0.3133 -1.7134  1.2133
  655MOL0     H88409  10.506   6.598   2.507  1.3095 -1.1060  2.7719
  655MOL0     H88410  10.586   6.644   2.254  1.9804 -0.3548 -1.0094
  655MOL0     H88411  11.024   6.425   1.934  2.3024  1.0503 -1.7501
  655MOL0     H88412  11.092   6.514   1.713 -0.3539  0.3090 -2.9786
  655MOL0     H88413  11.050   6.715   1.451  0.5922 -3.5630  0.8900
  655MOL0     H88414  10.990   6.752   1.611 -1.7001 -1.9802  1.4857
  655MOL0     H88415  10.863   6.913   1.487 -1.6101  1.0047  0.9148
  655MOL0     H88416  10.765   6.780   1.544 -1.1391  2.9082 -0.8985
  655MOL0     H88417  10.767   6.665   1.316  2.1061 -0.6058 -1.0785
  655MOL0     H88418  10.882   6.786   1.257 -2.2526 -2.6470 -4.7251
  655MOL0     H88419  10.611   6.880   1.348  0.3326  0.2796 -0.1716
  655MOL0     H88420  10.727   6.965   1.257 -1.4312  0.0477 -1.8069
  655MOL0     H88421  10.578   6.756   0.936 -1.5874  2.4410  0.4626
  655MOL0     H88422  10.706   6.557   1.588 -1.1925 -1.1033 -0.6410
  655MOL0     H88423  10.514   6.568   1.796 -0.0780  1.2779 -1.9017
  655MOL0     H88424  10.537   6.408   1.723  2.4311 -0.0141 -0.9096
  655MOL0     H88425  10.529   6.427   1.900  0.1650  0.2228 -1.5437
  656MOL0     O88426   0.862   7.245   1.341 -0.2297  0.6821 -0.1492
  656MOL0     C88427   0.905   7.359   1.353 -0.0934 -0.5387 -0.2474
  656MOL0     O88428   1.029   7.397   1.325  0.9770  0.1379 -0.3398
  656MOL0     C88429   1.083   7.512   1.370 -0.2636  0.6775 -0.4298
  656MOL0     C88430   1.059   7.586   1.482 -0.4651  0.2000  0.9137
  656MOL0     C88431   1.133   7.700   1.517 -0.2495 -0.5613 -0.0424
  656MOL0     C88432   1.245   7.735   1.437  0.7499  0.6557  0.0841
  656MOL0     O88433   1.304   7.858   1.456 -0.8095  1.0663  0.4921
  656MOL0     C88434   1.370   7.874   1.580 -0.6725  0.5909 -0.0322
  656MOL0     C88435   1.304   7.999   1.646  0.2610 -0.2046 -1.2264
  656MOL0     C88436   1.338   8.140   1.593  0.8222  0.6132  0.5490
  656MOL0     C88437   1.489   8.160   1.578 -0.0575 -0.8208 -1.0105
  656MOL0     C88438   1.523   8.306   1.552 -0.3850  1.7485 -0.3470
  656MOL0     C88439   1.665   8.329   1.533  0.6987  0.6343  0.2710
  656MOL0     C88440   1.682   8.486   1.498  0.4883  0.0854 -0.6373
  656MOL0     C88441   1.764   8.554   1.606 -0.9896 -0.2796  0.2465
  656MOL0     N88442   1.779   8.700   1.599  0.8402 -0.0483  1.0499
  656MOL0     C88443   1.811   8.772   1.490  0.4969  0.3832  0.1941
  656MOL0     C88444   1.779   8.895   1.517 -0.6809 -0.3509  0.0423
  656MOL0     C88445   1.805   9.013   1.419 -0.7552 -0.1252  0.9276
  656MOL0     C88446   1.949   9.074   1.427  0.9431 -0.6833  0.1941
  656MOL0     C88447   1.978   9.130   1.572 -0.3965 -0.2968 -0.3436
  656MOL0     C88448   2.043   9.277   1.557 -0.3514 -0.0975  0.1627
  656MOL0     O88449   2.158   9.277   1.459  0.1632 -0.3234  0.0465
  656MOL0     C88450   2.153   9.386   1.381 -0.8829 -0.9112  1.2159
  656MOL0     C88451   2.082   9.388   1.260 -0.2788 -0.0296  0.8756
  656MOL0     C88452   2.094   9.499   1.184  0.8480 -0.9239 -1.1977
  656MOL0     C88453   2.169   9.609   1.220 -0.6179 -0.5351 -1.0575
  656MOL0     C88454   2.167   9.733   1.135  0.7089 -0.9124 -0.7514
  656MOL0     O88455   2.247   9.837   1.181  0.1925  0.1471 -0.4484
  656MOL0     C88456   2.298   9.931   1.091  0.6836 -1.6114  0.2683
  656MOL0     C88457   2.430   9.983   1.106  0.6147 -0.8071  0.3364
  656MOL0     C88458   2.482  10.085   1.017  0.6919 -0.3572  0.5389
  656MOL0     C88459   2.407  10.128   0.906  0.1326 -0.7754  0.2710
  656MOL0     O88460   2.468  10.222   0.816  0.2557  0.6815 -0.5108
  656MOL0     C88461   2.394  10.298   0.716  0.8696  0.1344 -0.3723
  656MOL0     C88462   2.473  10.384   0.622 -1.0004  0.2684 -0.1081
  656MOL0     C88463   2.554  10.299   0.518 -0.7532  0.0557 -0.3336
  656MOL0     C88464   2.639  10.393   0.440  0.7523  0.1439  0.0056
  656MOL0     C88465   2.741  10.311   0.358 -0.8104  0.0393  0.2580
  656MOL0     C88466   2.819  10.400   0.262 -0.1277 -0.4267  1.2280
  656MOL0     C88467   2.943  10.326   0.228 -0.5294  0.2301 -0.1352
  656MOL0     C88468   3.032  10.422   0.137 -0.2254  0.2797  0.7615
  656MOL0    Cl88469   3.203  10.354   0.152  0.1458 -0.1684 -0.3267
  656MOL0     C88470   2.275  10.078   0.896  0.2704 -0.4629  1.0830
  656MOL0     C88471   2.228   9.979   0.979 -0.0417 -0.5922 -0.0240
  656MOL0     O88472   2.105   9.724   1.030  0.6720  0.6216 -0.3584
  656MOL0     C88473   2.253   9.610   1.337  0.6181  0.9792  0.2465
  656MOL0     C88474   2.245   9.488   1.410 -0.9058 -0.3457  0.4308
  656MOL0     N88475   1.742   8.909   1.645  0.5392  0.4534 -0.8437
  656MOL0     N88476   1.740   8.790   1.695 -0.2503 -0.1327  0.3237
  656MOL0     C88477   1.267   7.667   1.312 -0.2160 -0.8073 -0.6224
  656MOL0     C88478   1.183   7.563   1.281  0.0321  0.6729  0.0019
  656MOL0     C88479   0.804   7.464   1.375 -1.0642  1.0335 -0.2281
  656MOL0     C88480   0.779   7.566   1.281  0.0815 -1.1919 -0.2273
  656MOL0     C88481   0.689   7.663   1.305  0.2399  0.6819 -0.8461
  656MOL0     C88482   0.609   7.669   1.424 -0.1619  0.0366 -0.5501
  656MOL0     O88483   0.495   7.747   1.423 -0.0318  0.3725  0.5838
  656MOL0     C88484   0.439   7.770   1.556 -0.6414 -0.5284  0.7339
  656MOL0     C88485   0.333   7.885   1.555  0.3283  0.3920  0.9541
  656MOL0     C88486   0.267   7.915   1.692 -0.3595  0.5362  0.2689
  656MOL0     C88487   0.201   7.796   1.765 -0.4896 -0.4922  0.7998
  656MOL0     C88488   0.294   7.710   1.848 -0.1357  1.3167 -0.1692
  656MOL0     C88489   0.377   7.665   1.923  1.1466  0.2820 -0.0566
  656MOL0     C88490   0.632   7.562   1.513 -0.3285 -0.4843  0.2730
  656MOL0     C88491   0.727   7.459   1.491  0.3766  0.5822  0.2679
  656MOL0     C88492   0.748   7.350   1.596  0.1633  0.5372  0.4709
  656MOL0     H88493   0.976   7.558   1.545 -1.3678  1.1795  0.2105
  656MOL0     H88494   1.107   7.766   1.599 -1.7957 -0.9136 -0.2268
  656MOL0     H88495   1.379   7.790   1.649  1.0188  1.7740  1.2365
  656MOL0     H88496   1.475   7.901   1.570 -0.2905 -0.9798 -0.4962
  656MOL0     H88497   1.341   8.001   1.749 -0.5100  2.3902 -0.9234
  656MOL0     H88498   1.195   7.989   1.649  0.4735 -3.9160 -0.4865
  656MOL0     H88499   1.291   8.209   1.664  2.0953  1.9874  0.1222
  656MOL0     H88500   1.279   8.147   1.501  0.4487  0.8349  0.7989
  656MOL0     H88501   1.549   8.143   1.668  0.0987 -1.8984 -1.3090
  656MOL0     H88502   1.525   8.102   1.492 -0.7006  0.0421 -1.8878
  656MOL0     H88503   1.483   8.328   1.452 -1.0858  3.3359  0.2516
  656MOL0     H88504   1.496   8.377   1.631  2.1931 -0.1623  2.4710
  656MOL0     H88505   1.726   8.310   1.622  2.1010  0.2363 -0.7387
  656MOL0     H88506   1.711   8.260   1.462  1.5106 -1.1456  2.4230
  656MOL0     H88507   1.585   8.535   1.495  0.5446  0.2922  0.4846
  656MOL0     H88508   1.732   8.516   1.406  0.0496  3.0218 -0.0114
  656MOL0     H88509   1.730   8.528   1.706 -1.5547 -0.7278 -0.0594
  656MOL0     H88510   1.861   8.503   1.600 -1.9068 -2.1474  0.6011
  656MOL0     H88511   1.851   8.738   1.395 -3.9726  1.7427 -2.4573
  656MOL0     H88512   1.784   8.977   1.318 -1.6083 -0.5912  1.2559
  656MOL0     H88513   1.739   9.098   1.443 -0.7859  0.6808 -1.7075
  656MOL0     H88514   2.008   8.983   1.416  2.5416  0.2733  0.5630
  656MOL0     H88515   1.969   9.142   1.344  0.7288 -2.7762 -1.6627
  656MOL0     H88516   2.050   9.068   1.627  1.0332  2.6236  1.3558
  656MOL0     H88517   1.894   9.143   1.641 -2.2362 -0.6043 -2.4354
  656MOL0     H88518   2.079   9.331   1.645 -0.6281  3.0627 -1.5190
  656MOL0     H88519   1.961   9.342   1.526  1.1870  2.5273  1.2385
  656MOL0     H88520   2.009   9.319   1.220 -0.2017  1.4559 -2.0435
  656MOL0     H88521   2.039   9.508   1.090 -3.6522 -0.0830  1.2205
  656MOL0     H88522   2.498   9.937   1.177  1.0296 -2.1394 -0.8737
  656MOL0     H88523   2.578  10.126   1.048  1.3566 -2.8461  2.1118
  656MOL0     H88524   2.339  10.222   0.660 -0.5862  2.2588 -1.9880
  656MOL0     H88525   2.331  10.369   0.772  0.6474  1.1118 -1.7969
  656MOL0     H88526   2.392  10.434   0.569 -1.0819 -0.7993 -1.0224
  656MOL0     H88527   2.539  10.451   0.678 -1.6950  1.3146 -0.5123
  656MOL0     H88528   2.633  10.239   0.565  0.5645  2.8763  1.2962
  656MOL0     H88529   2.491  10.241   0.450 -1.2154  2.1293 -1.7809
  656MOL0     H88530   2.692  10.466   0.502 -1.3354  0.9024  0.9921
  656MOL0     H88531   2.575  10.451   0.373  0.1495  0.2161  0.6368
  656MOL0     H88532   2.684  10.234   0.306 -3.8583 -1.8282  5.7161
  656MOL0     H88533   2.809  10.259   0.426 -1.5298  2.1336  2.7417
  656MOL0     H88534   2.757  10.420   0.175 -1.7388  2.1877  2.8624
  656MOL0     H88535   2.850  10.496   0.304  0.8658  0.5243 -1.4399
  656MOL0     H88536   2.925  10.234   0.172  2.7834 -1.5611  1.4254
  656MOL0     H88537   3.008  10.310   0.315 -0.0145  1.3441 -0.2969
  656MOL0     H88538   2.989  10.435   0.037 -1.9205 -2.5641  1.0074
  656MOL0     H88539   3.013  10.516   0.190 -3.7266 -0.8930  1.8377
  656MOL0     H88540   2.217  10.099   0.808 -0.1590 -1.6329  1.0680
  656MOL0     H88541   2.131   9.942   0.948 -1.1866  1.1294  1.2963
  656MOL0     H88542   2.329   9.684   1.358  0.1663  0.7552  3.0974
  656MOL0     H88543   2.310   9.471   1.495  3.1418  1.2820 -2.0299
  656MOL0     H88544   1.341   7.699   1.240  1.5095 -2.5093  0.3044
  656MOL0     H88545   1.184   7.508   1.188 -1.2832 -2.7753  1.8258
  656MOL0     H88546   0.820   7.560   1.180 -0.1853 -0.7244 -0.3696
  656MOL0     H88547   0.674   7.732   1.223  1.7857  1.4381 -0.5188
  656MOL0     H88548   0.522   7.793   1.623 -0.4757  2.8562 -0.4383
  656MOL0     H88549   0.382   7.684   1.595 -3.2881  0.6146 -0.3532
  656MOL0     H88550   0.249   7.854   1.493  1.6861 -3.4369  0.7326
  656MOL0     H88551   0.376   7.977   1.513  2.0824 -2.2511 -3.8515
  656MOL0     H88552   0.186   7.978   1.653  1.4487  0.8363 -3.4408
  656MOL0     H88553   0.339   7.972   1.752  2.5888 -0.6886 -1.8600
  656MOL0     H88554   0.130   7.835   1.839 -1.8829 -1.9334  0.2825
  656MOL0     H88555   0.144   7.732   1.698  0.0291 -1.4656  1.2676
  656MOL0     H88556   0.451   7.635   1.994 -0.1332  0.3692  1.3639
  656MOL0     H88557   0.575   7.561   1.606 -0.6933 -0.4776  0.0513
  656MOL0     H88558   0.851   7.342   1.632 -0.3443 -1.3439  1.6583
  656MOL0     H88559   0.689   7.367   1.686 -0.4110 -2.5481  0.7916
  656MOL0     H88560   0.715   7.258   1.548 -2.7156  0.7147  1.9452
  657MOL0     O88561   2.288   8.692   8.000 -0.4479  1.3256  0.8592
  657MOL0     C88562   2.343   8.802   7.985 -0.2854 -0.4445 -0.0606
  657MOL0     O88563   2.406   8.849   7.876  0.6808  0.7952  0.0781
  657MOL0     C88564   2.415   8.776   7.762  0.5926  0.3640  0.3823
  657MOL0     C88565   2.375   8.841   7.647 -0.3262 -0.3634 -0.1644
  657MOL0     C88566   2.383   8.768   7.524 -1.2494 -0.1877  0.4751
  657MOL0     C88567   2.439   8.640   7.519  0.7375  0.3149 -0.5411
  657MOL0     O88568   2.429   8.587   7.392 -0.9197  0.0249 -0.7323
  657MOL0     C88569   2.457   8.446   7.389 -0.3884 -0.4084  0.9570
  657MOL0     C88570   2.424   8.404   7.241  0.9345 -1.3758  0.8564
  657MOL0     C88571   2.537   8.471   7.146 -0.3577 -0.1047  0.5784
  657MOL0     C88572   2.556   8.388   7.018  1.1759 -0.4382  0.1316
  657MOL0     C88573   2.627   8.474   6.908  0.9678 -0.0545  0.7422
  657MOL0     C88574   2.680   8.379   6.808  0.0585 -0.0240 -0.0140
  657MOL0     C88575   2.677   8.451   6.670 -0.0038 -0.2403  0.6739
  657MOL0     C88576   2.728   8.357   6.560 -0.1658  0.7842 -0.6057
  657MOL0     N88577   2.864   8.320   6.570 -0.6362 -1.2086  0.1539
  657MOL0     C88578   2.971   8.402   6.537  0.1180  0.4994  1.0854
  657MOL0     C88579   3.077   8.319   6.552  0.3889  0.2295  0.3830
  657MOL0     C88580   3.213   8.358   6.513 -0.1028  0.1053 -0.5967
  657MOL0     C88581   3.269   8.478   6.586 -0.1292  0.4897  0.6391
  657MOL0     C88582   3.414   8.505   6.548  0.2564  0.2515 -0.6300
  657MOL0     C88583   3.416   8.597   6.428 -0.0364  0.2665 -0.1448
  657MOL0     O88584   3.552   8.630   6.407 -0.4480  0.6526  0.2958
  657MOL0     C88585   3.621   8.542   6.323 -0.2000  0.4768 -0.5375
  657MOL0     C88586   3.726   8.474   6.386 -1.2949  0.0446 -0.2773
  657MOL0     C88587   3.818   8.390   6.321  0.4415 -0.4801  0.6290
  657MOL0     C88588   3.786   8.361   6.184  0.3081 -0.8962 -0.0033
  657MOL0     C88589   3.857   8.252   6.106 -0.9063  0.4652 -0.7203
  657MOL0     O88590   3.812   8.207   5.986 -0.6278 -1.0568  0.3002
  657MOL0     C88591   3.890   8.151   5.883  0.5226 -0.6580  0.1698
  657MOL0     C88592   4.002   8.076   5.904  0.3430 -0.1757  0.1867
  657MOL0     C88593   4.077   8.025   5.794  0.4251  0.0098  0.4290
  657MOL0     C88594   4.023   8.038   5.663 -0.3138  0.2290 -0.7285
  657MOL0     O88595   4.096   7.980   5.560 -0.0948 -0.0277  0.6799
  657MOL0     C88596   4.039   7.980   5.432  0.0219 -0.1710  0.4788
  657MOL0     C88597   4.129   7.917   5.333 -0.5814 -0.5733 -0.4050
  657MOL0     C88598   4.060   7.881   5.204  0.1000 -0.0667 -0.0311
  657MOL0     C88599   4.177   7.821   5.108 -0.5347  0.4283 -0.7984
  657MOL0     C88600   4.127   7.781   4.964 -0.8797 -0.2474 -1.1546
  657MOL0     C88601   4.027   7.674   4.954  0.0224  0.1904  0.1001
  657MOL0     C88602   4.079   7.537   4.994 -0.9285  0.4660 -0.5198
  657MOL0     C88603   4.183   7.480   4.890  0.4549  0.3874 -0.0371
  657MOL0    Cl88604   4.099   7.469   4.742 -0.4401 -0.4732  0.4859
  657MOL0     C88605   3.905   8.117   5.647  0.1260  0.1141  0.7311
  657MOL0     C88606   3.835   8.164   5.750  0.0120  0.4331  0.3656
  657MOL0     O88607   3.971   8.230   6.164 -0.3859  0.4727  0.7892
  657MOL0     C88608   3.667   8.416   6.118 -0.3763 -0.4835  0.6599
  657MOL0     C88609   3.590   8.511   6.189  0.1909  0.6940  0.4703
  657MOL0     N88610   3.041   8.199   6.606 -0.3759  0.4585 -1.1516
  657MOL0     N88611   2.918   8.211   6.632  0.2618 -0.9208 -0.0983
  657MOL0     C88612   2.496   8.577   7.635 -0.0883 -0.5410  0.0343
  657MOL0     C88613   2.479   8.644   7.758 -1.0382 -0.1402  0.0912
  657MOL0     C88614   2.323   8.901   8.096  0.1171  0.5709 -0.0572
  657MOL0     C88615   2.221   8.893   8.191  0.3984  0.2928 -0.8798
  657MOL0     C88616   2.230   8.947   8.315 -1.2780  0.0768  1.0964
  657MOL0     C88617   2.343   9.015   8.349  0.1778 -0.1794  0.3236
  657MOL0     O88618   2.354   9.056   8.481  0.1116 -0.8896  0.1953
  657MOL0     C88619   2.402   9.187   8.502 -0.2693  0.7812 -1.1294
  657MOL0     C88620   2.355   9.237   8.637  0.3817  0.4936  0.3309
  657MOL0     C88621   2.427   9.364   8.672 -0.1120 -0.7049  0.4268
  657MOL0     C88622   2.348   9.443   8.788  0.2124  0.6840 -0.2681
  657MOL0     C88623   2.362   9.391   8.919  0.0367  0.3633 -0.1927
  657MOL0     C88624   2.378   9.341   9.027  0.3448  0.0344 -0.1932
  657MOL0     C88625   2.438   9.047   8.249  0.6283 -0.7483 -0.1208
  657MOL0     C88626   2.431   8.991   8.121 -0.5344 -0.1909  0.8468
  657MOL0     C88627   2.546   9.026   8.028 -0.2924 -0.8245  0.4748
  657MOL0     H88628   2.336   8.942   7.656  0.0575 -0.2168 -0.1540
  657MOL0     H88629   2.368   8.828   7.435 -1.2896 -0.0442  0.5787
  657MOL0     H88630   2.558   8.415   7.415  0.7370  3.0336  1.2582
  657MOL0     H88631   2.383   8.393   7.449 -1.5686 -0.3059 -0.3370
  657MOL0     H88632   2.320   8.419   7.211  0.4697 -5.3901 -0.0567
  657MOL0     H88633   2.432   8.295   7.245 -1.5458 -1.6398  0.0433
  657MOL0     H88634   2.636   8.479   7.193 -0.6923 -1.4195  1.5813
  657MOL0     H88635   2.509   8.572   7.112 -0.1062 -0.9062 -2.1712
  657MOL0     H88636   2.610   8.294   7.032 -0.8988 -1.6392  0.5145
  657MOL0     H88637   2.452   8.373   6.986  1.8542 -0.9896 -1.9336
  657MOL0     H88638   2.541   8.532   6.873 -0.4259  0.5995  4.6928
  657MOL0     H88639   2.703   8.538   6.954 -0.6167  2.5394 -0.0199
  657MOL0     H88640   2.781   8.346   6.833  1.3768  1.2345 -3.1752
  657MOL0     H88641   2.614   8.297   6.780 -0.1000  0.1127 -0.0504
  657MOL0     H88642   2.746   8.535   6.671 -0.4833  0.1745  2.3726
  657MOL0     H88643   2.570   8.470   6.658 -1.1770 -2.7584  4.8557
  657MOL0     H88644   2.685   8.259   6.580  4.8661 -1.4579  0.7756
  657MOL0     H88645   2.709   8.389   6.457  0.1604  1.5383 -0.4404
  657MOL0     H88646   2.978   8.506   6.505  3.2486 -0.2714 -1.2057
  657MOL0     H88647   3.282   8.273   6.518 -0.3835 -0.1292 -0.7259
  657MOL0     H88648   3.219   8.383   6.407  3.2368 -1.6467 -0.9751
  657MOL0     H88649   3.213   8.571   6.571  0.3543  0.4233 -2.1307
  657MOL0     H88650   3.272   8.435   6.687  0.1184 -0.7913  0.1056
  657MOL0     H88651   3.460   8.406   6.540  0.3910  0.2917 -0.3434
  657MOL0     H88652   3.459   8.576   6.619  0.3695  2.9817 -3.1954
  657MOL0     H88653   3.369   8.686   6.471 -1.4664 -1.1825  1.4225
  657MOL0     H88654   3.362   8.567   6.338 -0.9215  0.8415  0.1863
  657MOL0     H88655   3.759   8.484   6.489  0.9172  1.2440 -1.0312
  657MOL0     H88656   3.895   8.337   6.376 -0.4532 -0.5731  1.8220
  657MOL0     H88657   4.055   8.068   5.999  1.5253  1.4494 -0.2931
  657MOL0     H88658   4.167   7.966   5.801  0.6908  0.2749 -0.6769
  657MOL0     H88659   3.950   7.916   5.424  1.6206 -2.3030 -2.7508
  657MOL0     H88660   4.017   8.081   5.398 -2.3047 -0.7169  0.1942
  657MOL0     H88661   4.214   7.985   5.318 -0.0345 -0.9740  0.7601
  657MOL0     H88662   4.161   7.824   5.380  1.1228  0.9164  1.5676
  657MOL0     H88663   3.983   7.805   5.220  0.4239 -0.7442 -1.4987
  657MOL0     H88664   4.004   7.964   5.161 -1.3128  0.5866  2.8117
  657MOL0     H88665   4.234   7.737   5.149 -1.6701 -0.3614 -0.7923
  657MOL0     H88666   4.248   7.904   5.102 -2.8884  2.5765 -0.6348
  657MOL0     H88667   4.219   7.777   4.905  1.4837  2.0508  1.9871
  657MOL0     H88668   4.083   7.875   4.928  0.7638 -0.0935 -2.9259
  657MOL0     H88669   3.945   7.698   5.023 -0.8586  0.0263 -0.8515
  657MOL0     H88670   3.989   7.670   4.851  0.9771 -0.3373 -0.2384
  657MOL0     H88671   3.988   7.476   4.997 -0.7516  0.2317  0.3204
  657MOL0     H88672   4.127   7.550   5.091 -0.4741  1.3396 -0.8523
  657MOL0     H88673   4.273   7.544   4.891  0.1288  0.8552  0.2057
  657MOL0     H88674   4.206   7.378   4.923 -5.8057 -1.7591 -1.0431
  657MOL0     H88675   3.865   8.140   5.549  0.9794  0.0363  0.3603
  657MOL0     H88676   3.750   8.227   5.725 -1.4758 -2.8876 -4.4810
  657MOL0     H88677   3.641   8.383   6.018  0.6544 -3.6294  1.3081
  657MOL0     H88678   3.504   8.570   6.156  2.8432  6.2436  2.1768
  657MOL0     H88679   2.526   8.473   7.633 -1.7304 -1.2238  3.4052
  657MOL0     H88680   2.522   8.590   7.842 -1.3417 -0.6427 -0.0739
  657MOL0     H88681   2.151   8.810   8.188 -2.4073  2.5304 -1.3617
  657MOL0     H88682   2.153   8.922   8.387  0.8240  0.0684  3.4868
  657MOL0     H88683   2.362   9.255   8.426 -0.7574  3.2239  1.1344
  657MOL0     H88684   2.512   9.183   8.497 -0.2764 -3.2107 -0.8120
  657MOL0     H88685   2.372   9.160   8.713 -1.1327 -0.8472 -0.6370
  657MOL0     H88686   2.247   9.247   8.624 -0.1961 -4.3438 -0.5278
  657MOL0     H88687   2.450   9.426   8.586  0.8261  0.3946  1.4311
  657MOL0     H88688   2.525   9.329   8.704  0.1608 -2.5154 -2.0948
  657MOL0     H88689   2.397   9.541   8.789  5.0564 -1.4431  1.6592
  657MOL0     H88690   2.241   9.448   8.767  0.2028  1.2014 -0.1222
  657MOL0     H88691   2.400   9.293   9.120  1.9648 -1.0362 -1.0765
  657MOL0     H88692   2.524   9.105   8.278  0.9373 -2.6552  3.3082
  657MOL0     H88693   2.594   8.932   7.999  0.3862  0.3611 -2.6744
  657MOL0     H88694   2.511   9.075   7.937 -2.8998 -1.8032  0.8660
  657MOL0     H88695   2.622   9.090   8.073  0.6589 -1.5369 -0.0829
  658MOL0     O88696   5.790   8.361   8.075  0.1951  0.0886  0.4329
  658MOL0     C88697   5.818   8.451   8.001  0.2959  0.0867  0.1657
  658MOL0     O88698   5.727   8.555   7.956 -0.5683  1.7640  0.1320
  658MOL0     C88699   5.595   8.533   7.984 -1.5296  0.7928 -0.0441
  658MOL0     C88700   5.536   8.622   8.074  0.0242  0.4058  0.2750
  658MOL0     C88701   5.399   8.620   8.094  0.1593 -0.1595 -0.3324
  658MOL0     C88702   5.317   8.534   8.018  0.8925 -0.5185 -0.6190
  658MOL0     O88703   5.180   8.527   8.051  0.5923  0.2376  0.2409
  658MOL0     C88704   5.161   8.422   8.146  0.6414  0.5115 -0.6400
  658MOL0     C88705   5.014   8.372   8.128 -0.3676 -0.1917  0.2344
  658MOL0     C88706   4.964   8.244   8.199 -0.3137  0.6938 -0.4409
  658MOL0     C88707   4.814   8.214   8.184 -0.3810  0.3405 -0.4995
  658MOL0     C88708   4.763   8.116   8.283  0.1129  0.0245  0.1286
  658MOL0     C88709   4.724   8.171   8.421 -0.2573  0.0142  0.1506
  658MOL0     C88710   4.656   8.066   8.516  0.2171  0.2349  0.7428
  658MOL0     C88711   4.743   7.948   8.557 -0.0477 -0.9306  0.8371
  658MOL0     N88712   4.836   7.975   8.662  0.3782 -0.8093  0.4029
  658MOL0     C88713   4.804   7.982   8.794 -0.2427 -0.3030 -0.1387
  658MOL0     C88714   4.917   8.021   8.859  0.3890  0.1661  0.1413
  658MOL0     C88715   4.933   8.016   9.008 -1.1074 -0.4510 -0.3541
  658MOL0     C88716   5.054   8.112   9.031  0.0136  0.0702  0.8416
  658MOL0     C88717   5.072   8.162   9.174  0.0238 -0.3845  1.0563
  658MOL0     C88718   5.197   8.255   9.172 -0.8761  0.0831  0.2700
  658MOL0     O88719   5.164   8.362   9.084 -0.6677 -0.9667 -0.1701
  658MOL0     C88720   5.270   8.443   9.061  0.5193 -0.1448 -0.3561
  658MOL0     C88721   5.306   8.478   8.933  0.6815 -0.4253 -0.4426
  658MOL0     C88722   5.397   8.582   8.903 -0.1869  0.9341  0.2686
  658MOL0     C88723   5.447   8.656   9.004 -0.1671  0.1842  0.7364
  658MOL0     C88724   5.538   8.769   8.963  0.4989  0.3238  0.4364
  658MOL0     O88725   5.533   8.806   8.827  0.3803 -0.4352  0.1039
  658MOL0     C88726   5.612   8.915   8.782  1.0972 -0.6028  0.3307
  658MOL0     C88727   5.583   9.042   8.831  0.1564  0.1183  0.3204
  658MOL0     C88728   5.672   9.148   8.797  1.1887  0.7877 -0.2463
  658MOL0     C88729   5.765   9.134   8.690 -0.5123 -0.3496 -1.5157
  658MOL0     O88730   5.835   9.245   8.645  0.4263  0.1705 -0.0499
  658MOL0     C88731   5.911   9.225   8.530  0.2370 -0.3470 -0.7806
  658MOL0     C88732   5.963   9.366   8.483 -0.2213  0.1237  0.1852
  658MOL0     C88733   6.081   9.359   8.397 -0.2876  1.1285  0.1710
  658MOL0     C88734   6.112   9.495   8.333 -0.4533  1.1354 -0.1903
  658MOL0     C88735   6.245   9.493   8.264 -0.7986  0.9078  0.7209
  658MOL0     C88736   6.282   9.367   8.170 -0.4220  0.0265  0.1113
  658MOL0     C88737   6.194   9.350   8.045 -0.2886  0.5080 -0.0817
  658MOL0     C88738   6.191   9.468   7.943  0.3199  0.4653  0.7253
  658MOL0    Cl88739   6.359   9.493   7.890  0.4105 -0.2668  0.4211
  658MOL0     C88740   5.792   9.000   8.647  0.0064  0.2343 -0.4004
  658MOL0     C88741   5.718   8.890   8.697  0.0065  0.7049 -0.5429
  658MOL0     O88742   5.609   8.819   9.051 -0.6385 -1.0317  0.2576
  658MOL0     C88743   5.417   8.623   9.138 -0.1263 -0.0772  0.2361
  658MOL0     C88744   5.332   8.513   9.169 -0.4991 -0.5095  0.7167
  658MOL0     N88745   5.013   8.034   8.764  0.1579 -0.1399  0.1767
  658MOL0     N88746   4.971   8.004   8.656 -0.2376 -0.5321  0.5115
  658MOL0     C88747   5.372   8.457   7.926  0.2969 -0.1221 -0.5342
  658MOL0     C88748   5.507   8.453   7.913 -0.4676 -0.4836  0.0237
  658MOL0     C88749   5.951   8.462   7.937 -0.8280  0.1371 -0.8873
  658MOL0     C88750   5.964   8.551   7.825 -0.0886 -0.1414 -0.0318
  658MOL0     C88751   6.089   8.583   7.773 -0.2604 -0.1918 -0.3947
  658MOL0     C88752   6.203   8.521   7.825  0.3758  0.4947 -0.1267
  658MOL0     O88753   6.322   8.576   7.780 -0.4581  0.2552  0.2258
  658MOL0     C88754   6.426   8.591   7.872  0.4425 -0.5463 -0.4878
  658MOL0     C88755   6.539   8.670   7.808 -0.3107  0.4568  0.3649
  658MOL0     C88756   6.496   8.792   7.739  0.1800 -0.4446  0.0395
  658MOL0     C88757   6.619   8.852   7.673 -0.1648  0.0793  0.0982
  658MOL0     C88758   6.602   8.995   7.654  0.3726  0.5234  0.2856
  658MOL0     C88759   6.597   9.119   7.644 -0.3612  0.4942  0.1569
  658MOL0     C88760   6.189   8.435   7.939 -0.0704 -0.8752  0.7232
  658MOL0     C88761   6.066   8.400   7.984 -0.0259  0.0969 -0.7995
  658MOL0     C88762   6.069   8.306   8.104 -0.8120 -0.3363 -0.5541
  658MOL0     H88763   5.597   8.693   8.128  2.3898 -2.2784  1.3902
  658MOL0     H88764   5.349   8.678   8.170 -0.1331 -1.6586  0.6679
  658MOL0     H88765   5.236   8.343   8.139 -0.8537 -1.3394  2.0405
  658MOL0     H88766   5.159   8.458   8.250  1.7532  4.2213 -1.7444
  658MOL0     H88767   4.992   8.339   8.026 -0.4767 -0.1196  0.2346
  658MOL0     H88768   4.950   8.458   8.152 -0.9891 -0.2371 -1.1619
  658MOL0     H88769   4.995   8.250   8.304  0.5656 -0.3052 -0.6323
  658MOL0     H88770   5.011   8.155   8.156 -1.6621 -0.4848  0.4172
  658MOL0     H88771   4.765   8.311   8.192 -1.4481  0.0136 -2.3950
  658MOL0     H88772   4.799   8.180   8.081 -1.6081 -0.7279  0.0032
  658MOL0     H88773   4.668   8.075   8.249  0.2903 -0.5944  0.3644
  658MOL0     H88774   4.835   8.034   8.289 -0.4467 -0.5225 -0.4748
  658MOL0     H88775   4.822   8.205   8.458 -0.7389  1.1939  0.3834
  658MOL0     H88776   4.666   8.263   8.410 -2.0931 -1.0576  0.5679
  658MOL0     H88777   4.563   8.039   8.466  0.7151 -3.0361  1.3512
  658MOL0     H88778   4.641   8.115   8.613  1.3242 -0.3161  1.2123
  658MOL0     H88779   4.692   7.859   8.593 -2.2087 -0.5151 -0.9470
  658MOL0     H88780   4.802   7.904   8.476  2.3011  1.4575  1.1324
  658MOL0     H88781   4.710   7.946   8.836  0.9866 -1.7581  1.5078
  658MOL0     H88782   4.840   8.041   9.060 -0.6537 -1.1004  0.8043
  658MOL0     H88783   4.963   7.916   9.041 -1.1518 -0.3210  0.0831
  658MOL0     H88784   5.153   8.072   9.009  1.3577  2.7066  1.6772
  658MOL0     H88785   5.036   8.193   8.960 -0.5725 -4.6788 -5.3596
  658MOL0     H88786   5.078   8.077   9.244 -1.5011 -1.0976  0.3802
  658MOL0     H88787   4.982   8.214   9.209 -0.9886 -0.4985 -1.2340
  658MOL0     H88788   5.284   8.209   9.124  0.1294  4.1746 -2.3903
  658MOL0     H88789   5.216   8.280   9.277  1.6428 -1.0759  0.1442
  658MOL0     H88790   5.252   8.432   8.851 -0.5112 -0.0284  0.1058
  658MOL0     H88791   5.424   8.581   8.798  1.7950  2.4822  0.6994
  658MOL0     H88792   5.497   9.071   8.890 -1.1431 -0.5820 -1.1674
  658MOL0     H88793   5.661   9.245   8.843  3.8731  0.6366  0.9160
  658MOL0     H88794   5.996   9.157   8.541 -1.5594 -2.7389 -0.6776
  658MOL0     H88795   5.855   9.190   8.443 -2.3906  2.7731 -0.5117
  658MOL0     H88796   5.879   9.411   8.429  0.9321  0.1421 -1.6495
  658MOL0     H88797   5.992   9.426   8.570  3.3139 -1.3634  0.1860
  658MOL0     H88798   6.165   9.337   8.463 -1.2922 -2.2677  0.4987
  658MOL0     H88799   6.074   9.289   8.313 -2.7644  0.0064  1.2031
  658MOL0     H88800   6.093   9.562   8.418 -2.3731  0.9225 -0.4201
  658MOL0     H88801   6.028   9.512   8.266  0.8485  1.2031 -1.8662
  658MOL0     H88802   6.325   9.489   8.339  0.6465 -0.1748 -0.8060
  658MOL0     H88803   6.253   9.585   8.205  1.9621  2.1719  2.8505
  658MOL0     H88804   6.384   9.383   8.134 -1.4659 -0.7364 -3.6167
  658MOL0     H88805   6.278   9.275   8.229 -0.4858  0.0056  0.0753
  658MOL0     H88806   6.100   9.331   8.098  0.5343 -0.1806  1.1937
  658MOL0     H88807   6.217   9.254   8.000 -0.7107 -0.2170  1.1879
  658MOL0     H88808   6.136   9.452   7.850 -0.1228 -0.3778  1.1247
  658MOL0     H88809   6.160   9.556   8.001  2.9488  2.0758 -0.1343
  658MOL0     H88810   5.873   8.980   8.578  0.5117  1.8961 -0.3219
  658MOL0     H88811   5.755   8.794   8.664  0.0438  0.4830  0.1310
  658MOL0     H88812   5.467   8.682   9.214  0.8885  1.7228 -1.7437
  658MOL0     H88813   5.311   8.489   9.273  0.6036 -0.0503  1.0665
  658MOL0     H88814   5.306   8.398   7.865 -0.6042  1.0703 -0.7427
  658MOL0     H88815   5.558   8.384   7.847  0.1754 -1.6099  1.6398
  658MOL0     H88816   5.872   8.590   7.782  1.1258 -0.5294 -3.2402
  658MOL0     H88817   6.094   8.656   7.693 -0.1032  2.2230  1.7137
  658MOL0     H88818   6.448   8.488   7.902  0.5229 -0.4523 -0.2289
  658MOL0     H88819   6.396   8.644   7.963  1.3159  1.2276 -1.1970
  658MOL0     H88820   6.580   8.606   7.729 -0.8062  1.1101 -0.4470
  658MOL0     H88821   6.615   8.690   7.883  0.4921  2.2784 -0.8540
  658MOL0     H88822   6.445   8.859   7.809  1.7294 -0.9904  1.7850
  658MOL0     H88823   6.432   8.767   7.654 -0.2063 -2.1227  0.7873
  658MOL0     H88824   6.702   8.834   7.742 -2.1494 -1.9614  2.1555
  658MOL0     H88825   6.636   8.795   7.581 -4.4013 -2.4008  0.5454
  658MOL0     H88826   6.608   9.225   7.635  0.4437  0.2284 -4.5323
  658MOL0     H88827   6.281   8.405   7.987  0.6507 -1.0210 -0.7028
  658MOL0     H88828   6.004   8.342   8.184 -1.1362 -3.9180  0.9874
  658MOL0     H88829   6.025   8.215   8.063  1.6910 -1.2972 -1.2894
  658MOL0     H88830   6.168   8.270   8.134 -1.1820 -2.2244 -1.4578
  659MOL0     O88831   5.966   1.419   5.651 -0.3362  0.1299 -0.4568
  659MOL0     C88832   5.861   1.468   5.692  0.1814  0.3281 -0.4014
  659MOL0     O88833   5.794   1.579   5.636  0.0017  0.1270 -0.0253
  659MOL0     C88834   5.837   1.634   5.517 -0.5696 -1.1869  0.1095
  659MOL0     C88835   5.785   1.595   5.392  0.4492 -0.4083 -0.3510
  659MOL0     C88836   5.837   1.654   5.277  0.4015 -0.3522 -0.2644
  659MOL0     C88837   5.945   1.744   5.290  1.0714  0.2651 -0.2001
  659MOL0     O88838   5.991   1.782   5.172  0.0147  0.2617  0.2043
  659MOL0     C88839   6.081   1.898   5.171  0.0049  0.2521  0.1881
  659MOL0     C88840   6.090   1.950   5.020  0.6387 -0.5333  0.3013
  659MOL0     C88841   6.182   2.072   5.017 -0.1606 -0.1320  0.6479
  659MOL0     C88842   6.108   2.205   5.053  0.5201  0.1701 -0.0654
  659MOL0     C88843   5.993   2.242   4.951 -0.1848 -0.5790  0.8056
  659MOL0     C88844   5.950   2.393   4.955  0.2806 -0.5770 -0.3090
  659MOL0     C88845   5.833   2.428   4.858 -0.2004 -0.4640 -1.0881
  659MOL0     C88846   5.870   2.423   4.707 -0.3904 -0.4802 -0.0787
  659MOL0     N88847   5.954   2.532   4.665  0.2657  0.5331 -0.0581
  659MOL0     C88848   6.080   2.559   4.710  0.2644  0.0952  0.1843
  659MOL0     C88849   6.104   2.686   4.669 -1.3036 -0.0368 -1.7781
  659MOL0     C88850   6.237   2.766   4.676 -0.8790  0.2515 -0.7362
  659MOL0     C88851   6.333   2.723   4.794  1.0850  0.0601 -0.2405
  659MOL0     C88852   6.274   2.758   4.939  0.4611 -0.9418 -0.4422
  659MOL0     C88853   6.377   2.729   5.052 -0.3187 -0.0856  0.1868
  659MOL0     O88854   6.412   2.589   5.040 -0.1652 -0.3825  0.4227
  659MOL0     C88855   6.466   2.531   5.152 -0.1594  0.1003  0.5002
  659MOL0     C88856   6.472   2.392   5.152  0.2582 -0.5685 -0.8506
  659MOL0     C88857   6.513   2.318   5.263 -1.0162 -0.8007 -1.2126
  659MOL0     C88858   6.569   2.390   5.373 -0.4373  0.9409  0.5665
  659MOL0     C88859   6.627   2.313   5.481 -0.2340  0.2107 -0.4594
  659MOL0     O88860   6.720   2.364   5.563 -0.0233  0.7913  0.2591
  659MOL0     C88861   6.774   2.272   5.648  0.0978  0.1169  0.0165
  659MOL0     C88862   6.865   2.181   5.601  0.1514  0.4941 -0.3760
  659MOL0     C88863   6.924   2.093   5.690 -0.1693 -0.9778  0.2861
  659MOL0     C88864   6.896   2.093   5.828 -0.3626  0.2458 -0.5453
  659MOL0     O88865   6.958   2.021   5.921  0.2354  0.0757  0.5009
  659MOL0     C88866   7.004   2.098   6.033  0.2610 -0.0622 -0.3748
  659MOL0     C88867   6.927   2.080   6.168  1.5621 -0.5678 -0.1841
  659MOL0     C88868   6.993   2.155   6.268 -0.3631 -1.3797 -0.8610
  659MOL0     C88869   7.126   2.096   6.321 -0.1565 -0.3427  0.3793
  659MOL0     C88870   7.238   2.194   6.287 -0.3935 -0.8630 -0.0445
  659MOL0     C88871   7.384   2.140   6.317 -0.6522  1.2394  0.2492
  659MOL0     C88872   7.488   2.227   6.256  0.1743 -0.3526  0.1784
  659MOL0     C88873   7.623   2.161   6.219  1.3968  0.0932 -0.7876
  659MOL0    Cl88874   7.702   2.117   6.363  0.4378 -0.0092 -0.0120
  659MOL0     C88875   6.794   2.186   5.875  0.6112  0.1919  0.7413
  659MOL0     C88876   6.744   2.285   5.783  0.2298  0.3499  0.2268
  659MOL0     O88877   6.579   2.196   5.496  0.6069 -1.5215  0.3449
  659MOL0     C88878   6.586   2.528   5.367  0.9067 -0.2022  0.2481
  659MOL0     C88879   6.524   2.603   5.260  0.2671  0.2820  0.8582
  659MOL0     N88880   5.989   2.734   4.617 -0.7897  0.1890  0.5552
  659MOL0     N88881   5.897   2.634   4.600 -0.1907 -1.0863  0.5434
  659MOL0     C88882   5.996   1.781   5.415  0.6648 -0.5649 -0.0043
  659MOL0     C88883   5.936   1.730   5.528 -0.5939 -0.4268  0.0248
  659MOL0     C88884   5.795   1.400   5.808 -0.0801  1.0203  0.0238
  659MOL0     C88885   5.782   1.258   5.776 -0.4604 -0.6302  0.1195
  659MOL0     C88886   5.712   1.172   5.855  0.2537  0.1031 -0.6875
  659MOL0     C88887   5.642   1.227   5.973  0.1282 -0.6859  1.2653
  659MOL0     O88888   5.582   1.137   6.057 -0.0986  0.4083 -0.5660
  659MOL0     C88889   5.490   1.174   6.164 -0.3483 -0.2946  1.1121
  659MOL0     C88890   5.362   1.232   6.114 -0.2226 -0.2012 -1.0414
  659MOL0     C88891   5.284   1.109   6.063  0.0066 -0.2670  0.3904
  659MOL0     C88892   5.230   1.012   6.177 -0.6120 -0.2963 -0.5783
  659MOL0     C88893   5.156   0.901   6.106 -0.6254 -0.6648 -0.0662
  659MOL0     C88894   5.089   0.810   6.072 -0.1865 -0.0674 -0.1702
  659MOL0     C88895   5.654   1.360   6.001  0.2021  0.8879 -0.3148
  659MOL0     C88896   5.728   1.450   5.922  0.7574  0.2642 -0.1971
  659MOL0     C88897   5.724   1.595   5.941  0.5212 -0.5948  0.4990
  659MOL0     H88898   5.704   1.524   5.381  0.6887 -0.4196 -2.4089
  659MOL0     H88899   5.796   1.619   5.182  3.0461  1.0932 -2.0440
  659MOL0     H88900   6.035   1.976   5.232 -0.8196 -0.6697  0.7837
  659MOL0     H88901   6.174   1.861   5.214  1.2534  0.6914 -1.9956
  659MOL0     H88902   5.990   1.980   4.988  1.2109  0.4781 -0.6207
  659MOL0     H88903   6.134   1.874   4.956 -1.8280 -2.8791  1.2181
  659MOL0     H88904   6.229   2.088   4.919  1.8157 -1.6939  1.2649
  659MOL0     H88905   6.274   2.064   5.076  1.4588  0.5792 -1.6347
  659MOL0     H88906   6.070   2.205   5.155 -2.5784 -0.8544 -1.1032
  659MOL0     H88907   6.180   2.287   5.043 -1.0398  1.3211 -6.4522
  659MOL0     H88908   6.044   2.207   4.860  4.4926 -1.8176  3.5931
  659MOL0     H88909   5.902   2.184   4.969 -0.9575  0.6131  0.8226
  659MOL0     H88910   5.917   2.422   5.055  2.0373  4.0378 -0.8280
  659MOL0     H88911   6.041   2.448   4.932  0.9549 -1.7398 -0.5347
  659MOL0     H88912   5.795   2.521   4.900  0.4431 -0.8121  0.3248
  659MOL0     H88913   5.747   2.360   4.863 -0.9270 -0.0456 -4.9774
  659MOL0     H88914   5.925   2.329   4.699  1.2074  0.4126 -0.0522
  659MOL0     H88915   5.785   2.413   4.639 -0.9135  1.3910  0.2442
  659MOL0     H88916   6.160   2.488   4.733 -1.0025 -1.4475  0.0089
  659MOL0     H88917   6.273   2.768   4.573  0.0704 -0.4967 -0.4367
  659MOL0     H88918   6.205   2.869   4.694 -2.1469 -0.2882  0.3021
  659MOL0     H88919   6.373   2.622   4.802 -0.6922 -0.7977 -1.4242
  659MOL0     H88920   6.413   2.797   4.781  0.5130  1.1077  1.7632
  659MOL0     H88921   6.180   2.707   4.961  1.4892 -2.8438 -0.3023
  659MOL0     H88922   6.245   2.864   4.944  0.3153 -0.9461 -1.0405
  659MOL0     H88923   6.342   2.766   5.149  1.8540 -1.7742  1.7018
  659MOL0     H88924   6.471   2.781   5.030  1.0429 -2.3748  0.3186
  659MOL0     H88925   6.420   2.339   5.072 -2.3910 -0.6076  0.7634
  659MOL0     H88926   6.501   2.211   5.273 -0.9932 -0.6831  0.2968
  659MOL0     H88927   6.886   2.185   5.494 -2.1899  2.2781 -0.8532
  659MOL0     H88928   6.994   2.025   5.643 -0.8083  0.7396 -3.5471
  659MOL0     H88929   7.103   2.054   6.052 -0.3503 -1.7806 -0.9540
  659MOL0     H88930   7.012   2.204   6.006 -1.8328 -0.2850 -2.1443
  659MOL0     H88931   6.825   2.119   6.159  2.1135  0.8471 -0.6301
  659MOL0     H88932   6.935   1.975   6.197  2.7619 -0.2388  0.7682
  659MOL0     H88933   7.015   2.256   6.234 -0.5607 -1.7174 -2.0286
  659MOL0     H88934   6.920   2.149   6.350  0.6434  0.5946  0.2473
  659MOL0     H88935   7.139   1.999   6.273 -1.7037  0.1478 -1.1448
  659MOL0     H88936   7.132   2.093   6.430  3.4773  0.2425  0.3182
  659MOL0     H88937   7.224   2.290   6.338 -3.5392 -1.5565  0.6182
  659MOL0     H88938   7.234   2.210   6.179 -2.6842 -4.2563 -0.6355
  659MOL0     H88939   7.391   2.137   6.426 -1.5006  1.5928  0.3200
  659MOL0     H88940   7.393   2.036   6.282  2.5431  0.6699  2.2789
  659MOL0     H88941   7.506   2.311   6.325  2.2893  1.5883 -2.5153
  659MOL0     H88942   7.456   2.274   6.163  1.5583  0.9514  0.3255
  659MOL0     H88943   7.614   2.078   6.149 -1.1685 -0.1674 -0.2549
  659MOL0     H88944   7.682   2.237   6.168 -1.7880  0.5062 -4.3150
  659MOL0     H88945   6.751   2.199   5.973 -1.2905  1.0516 -0.1482
  659MOL0     H88946   6.678   2.369   5.802 -0.7185 -0.3537  0.1325
  659MOL0     H88947   6.645   2.577   5.444  2.8261 -1.9026 -0.0690
  659MOL0     H88948   6.546   2.709   5.272  0.9191  0.8023 -3.4008
  659MOL0     H88949   6.075   1.854   5.429 -2.6245  2.9220  2.4440
  659MOL0     H88950   5.972   1.761   5.625  1.2478 -0.6887 -0.5272
  659MOL0     H88951   5.837   1.229   5.688 -1.5892 -0.4347 -0.6689
  659MOL0     H88952   5.699   1.065   5.839 -0.7421 -0.0217  0.7551
  659MOL0     H88953   5.537   1.253   6.224  0.6240  0.3181 -0.3890
  659MOL0     H88954   5.483   1.092   6.236  1.0345 -0.8071  0.6964
  659MOL0     H88955   5.388   1.291   6.025 -1.0047  0.9339 -0.5321
  659MOL0     H88956   5.304   1.285   6.190 -1.9438 -4.8512  1.2674
  659MOL0     H88957   5.346   1.037   6.009 -1.2770  0.0358 -1.5580
  659MOL0     H88958   5.209   1.150   5.995  0.6353  1.9396  0.9469
  659MOL0     H88959   5.302   0.972   6.249 -3.7926 -0.5142  2.8027
  659MOL0     H88960   5.157   1.056   6.246  1.1924  0.2166  1.0725
  659MOL0     H88961   5.029   0.729   6.039 -1.1450  1.2078 -1.6808
  659MOL0     H88962   5.617   1.392   6.098 -0.1837 -3.7262  1.2731
  659MOL0     H88963   5.660   1.648   5.871 -1.3778 -0.6177  2.1183
  659MOL0     H88964   5.683   1.627   6.038 -1.7441 -4.1750  0.9162
  659MOL0     H88965   5.824   1.639   5.943  1.6890 -3.0803  2.0047
  660MOL0     O88966   8.715   2.267   5.035  0.4260  0.2557 -0.3166
  660MOL0     C88967   8.654   2.339   5.118 -0.2268 -0.5250  0.5056
  660MOL0     O88968   8.710   2.385   5.228  0.5393 -0.4782 -0.2927
  660MOL0     C88969   8.767   2.293   5.321  0.1717 -0.2536 -1.3572
  660MOL0     C88970   8.770   2.332   5.456 -0.0812 -0.3954  0.1815
  660MOL0     C88971   8.838   2.268   5.563  0.8102  0.3853  1.1688
  660MOL0     C88972   8.928   2.164   5.525 -1.3472  0.3040  0.1757
  660MOL0     O88973   9.021   2.112   5.614 -0.1188  0.0583 -0.1699
  660MOL0     C88974   8.949   2.034   5.712 -0.2064  0.2397 -0.6303
  660MOL0     C88975   8.973   1.886   5.679  0.1918 -1.1075 -0.1060
  660MOL0     C88976   8.916   1.802   5.783 -0.3655  1.3961 -0.4119
  660MOL0     C88977   8.930   1.656   5.751  0.5734 -0.4886  0.3182
  660MOL0     C88978   8.876   1.563   5.858  0.9871  0.8443 -0.4517
  660MOL0     C88979   8.855   1.413   5.805 -0.6470 -0.9326 -0.5634
  660MOL0     C88980   8.923   1.319   5.900 -0.5534  0.7663 -0.5929
  660MOL0     C88981   8.942   1.180   5.841 -0.5502  0.2146 -0.2256
  660MOL0     N88982   8.996   1.095   5.942 -0.0964  0.7237  1.1392
  660MOL0     C88983   9.129   1.084   5.959 -0.1466 -0.1548  0.5451
  660MOL0     C88984   9.146   1.029   6.079 -0.4971  0.5904  0.4063
  660MOL0     C88985   9.287   1.025   6.139  0.1973 -0.1082  0.2295
  660MOL0     C88986   9.353   0.903   6.077  0.0773  0.7005 -0.6882
  660MOL0     C88987   9.329   0.777   6.161 -0.6624  1.0786 -0.0546
  660MOL0     C88988   9.370   0.647   6.089 -1.0014 -0.1048 -0.2345
  660MOL0     O88989   9.283   0.610   5.983  0.8629 -0.4255  0.1585
  660MOL0     C88990   9.271   0.477   5.956  0.4506  0.2381  0.2124
  660MOL0     C88991   9.383   0.389   5.972  1.3364 -0.0445  0.5078
  660MOL0     C88992   9.366   0.250   5.946 -0.0311 -0.5978  0.4138
  660MOL0     C88993   9.243   0.204   5.895 -0.8336  0.5684  0.3944
  660MOL0     C88994   9.224   0.057   5.867 -0.2572  0.5063 -0.3358
  660MOL0     O88995   9.096   0.014   5.831  0.1507  0.2698  0.0685
  660MOL0     C88996   9.070  -0.119   5.831  0.3256  0.5705 -0.8111
  660MOL0     C88997   8.987  -0.166   5.730 -0.4320 -0.7447 -0.1892
  660MOL0     C88998   8.947  -0.295   5.739  0.4107  1.0710 -0.4460
  660MOL0     C88999   8.987  -0.388   5.838  0.0446  0.3588  0.2337
  660MOL0     O89000   8.957  -0.520   5.826  0.6081  1.1882  0.7646
  660MOL0     C89001   8.820  -0.557   5.826  0.1606 -0.0206 -0.2330
  660MOL0     C89002   8.808  -0.697   5.795 -0.3006  0.6847 -0.4628
  660MOL0     C89003   8.815  -0.728   5.646 -0.7621  0.0634  0.7550
  660MOL0     C89004   8.681  -0.715   5.570  0.3986  0.7666 -0.2970
  660MOL0     C89005   8.693  -0.617   5.454  0.6297 -0.1265  0.3753
  660MOL0     C89006   8.558  -0.573   5.411  0.0369 -0.1893 -0.9545
  660MOL0     C89007   8.555  -0.492   5.277 -0.3190  0.2554 -0.0714
  660MOL0     C89008   8.589  -0.586   5.164 -0.0367 -0.1335  0.0487
  660MOL0    Cl89009   8.547  -0.498   5.010  0.0787  0.1702  0.4403
  660MOL0     C89010   9.071  -0.337   5.945  0.4154 -0.5153 -0.2898
  660MOL0     C89011   9.106  -0.197   5.941 -0.0710 -0.0014 -0.2759
  660MOL0     O89012   9.322  -0.015   5.876 -0.1639 -0.1680  0.6834
  660MOL0     C89013   9.134   0.286   5.877 -0.3853 -0.2371 -1.1462
  660MOL0     C89014   9.152   0.418   5.914  1.6015  0.0797  0.2616
  660MOL0     N89015   9.026   0.995   6.135 -0.0022  0.1999  1.1607
  660MOL0     N89016   8.932   1.042   6.049  0.4832  0.1391  0.4219
  660MOL0     C89017   8.931   2.128   5.397 -1.8087  0.1215 -0.0308
  660MOL0     C89018   8.854   2.189   5.296  0.3910 -0.0586 -0.0950
  660MOL0     C89019   8.525   2.398   5.076  0.1239 -0.1229 -0.4899
  660MOL0     C89020   8.508   2.407   4.932 -0.6551  0.9874 -0.5580
  660MOL0     C89021   8.391   2.473   4.898  0.0028 -1.1089 -0.3369
  660MOL0     C89022   8.291   2.517   4.984  0.1353  0.0640  0.1459
  660MOL0     O89023   8.186   2.586   4.930 -0.4025  0.6724  0.1840
  660MOL0     C89024   8.082   2.617   5.015 -0.7394 -0.6126  0.3200
  660MOL0     C89025   7.964   2.654   4.926  0.2637 -0.3685 -0.4613
  660MOL0     C89026   7.854   2.723   4.988  0.2382 -0.0317 -0.0435
  660MOL0     C89027   7.715   2.697   4.925 -0.2954  0.0049 -0.1225
  660MOL0     C89028   7.704   2.771   4.802 -0.1427  0.4572  0.1200
  660MOL0     C89029   7.676   2.837   4.711  0.5847  0.4449  0.1764
  660MOL0     C89030   8.309   2.485   5.117  0.3016 -0.0554  0.0898
  660MOL0     C89031   8.423   2.428   5.169  0.0146 -0.3678 -0.1950
  660MOL0     C89032   8.431   2.400   5.316  0.2210 -0.2332 -1.3572
  660MOL0     H89033   8.729   2.430   5.478  1.2934 -0.0971  1.5790
  660MOL0     H89034   8.815   2.312   5.660 -2.6447  1.0002  0.1964
  660MOL0     H89035   8.983   2.044   5.815  1.4692 -0.7372 -1.0570
  660MOL0     H89036   8.842   2.056   5.724  0.4843  2.1625  5.1254
  660MOL0     H89037   9.081   1.879   5.664  0.1887 -0.4968 -0.4242
  660MOL0     H89038   8.927   1.859   5.584 -1.0823  0.4294  0.0364
  660MOL0     H89039   8.809   1.824   5.778 -0.8358 -0.3834  0.9002
  660MOL0     H89040   8.957   1.833   5.879 -3.3105 -0.8311  1.7659
  660MOL0     H89041   8.862   1.646   5.665  1.1023  0.0950 -0.1816
  660MOL0     H89042   9.028   1.629   5.712  0.3098 -0.5411 -0.3361
  660MOL0     H89043   8.946   1.567   5.942  2.3276 -2.9986 -1.1567
  660MOL0     H89044   8.775   1.597   5.881 -0.1183 -2.5703  0.4325
  660MOL0     H89045   8.751   1.382   5.799 -1.4666  1.2299  1.1998
  660MOL0     H89046   8.889   1.386   5.705 -6.0376 -2.8034 -2.1890
  660MOL0     H89047   8.859   1.308   5.988  2.0081  3.2410  1.7827
  660MOL0     H89048   9.021   1.351   5.936  0.3394 -1.5413 -0.8480
  660MOL0     H89049   8.845   1.147   5.803 -0.6723 -1.9877  1.7815
  660MOL0     H89050   8.998   1.194   5.749 -0.4320  2.8048  0.1597
  660MOL0     H89051   9.208   1.129   5.899 -2.0632  0.0814 -1.9553
  660MOL0     H89052   9.345   1.112   6.108  0.2634 -0.5473 -0.9364
  660MOL0     H89053   9.274   1.021   6.248 -0.8650  2.2818  0.2404
  660MOL0     H89054   9.316   0.898   5.975  1.8317 -0.4800 -1.3246
  660MOL0     H89055   9.462   0.912   6.072  0.4913 -2.8118 -0.2416
  660MOL0     H89056   9.224   0.764   6.187 -0.6441  1.4479  0.2143
  660MOL0     H89057   9.381   0.777   6.257  0.4719 -3.6777 -0.4442
  660MOL0     H89058   9.391   0.567   6.161  0.3204  1.3372  1.0528
  660MOL0     H89059   9.464   0.665   6.037 -0.9672 -1.9022 -0.8857
  660MOL0     H89060   9.481   0.423   6.005  0.2758  2.5163  1.2551
  660MOL0     H89061   9.451   0.186   5.968  0.8313  1.0434  2.1882
  660MOL0     H89062   8.944  -0.099   5.655 -0.0864  0.9719  1.0754
  660MOL0     H89063   8.902  -0.346   5.655  1.3964 -1.1816  0.3200
  660MOL0     H89064   8.776  -0.550   5.926  2.6521 -3.4975  1.3233
  660MOL0     H89065   8.755  -0.508   5.752  1.6380  0.8236 -1.0090
  660MOL0     H89066   8.878  -0.757   5.853 -1.7227 -1.7056 -1.0995
  660MOL0     H89067   8.710  -0.728   5.833 -0.4005 -0.5212 -1.6258
  660MOL0     H89068   8.885  -0.662   5.594 -0.3141  0.7902  2.2241
  660MOL0     H89069   8.851  -0.830   5.627  0.0787  0.3111  0.9684
  660MOL0     H89070   8.596  -0.692   5.634  0.3460 -0.4211  0.0749
  660MOL0     H89071   8.663  -0.813   5.525 -1.2646  0.0997  1.7001
  660MOL0     H89072   8.741  -0.682   5.380  0.2398 -2.2028  1.8785
  660MOL0     H89073   8.747  -0.524   5.475 -2.9674  1.7379  2.3341
  660MOL0     H89074   8.500  -0.665   5.400  0.1929 -0.1398 -2.2995
  660MOL0     H89075   8.525  -0.514   5.497  3.5140  2.1238 -0.9774
  660MOL0     H89076   8.620  -0.406   5.297 -1.0586  0.6668  0.6353
  660MOL0     H89077   8.463  -0.435   5.260 -0.3135  0.0996 -0.6520
  660MOL0     H89078   8.692  -0.619   5.147 -0.1844 -1.5466  1.5885
  660MOL0     H89079   8.538  -0.682   5.177 -0.3755  0.1609  0.9532
  660MOL0     H89080   9.089  -0.399   6.033 -0.7287 -0.3235  0.0944
  660MOL0     H89081   9.161  -0.151   6.022  0.4270 -1.4990  0.2620
  660MOL0     H89082   9.038   0.249   5.844 -1.4388  1.1675  0.2267
  660MOL0     H89083   9.064   0.480   5.904  0.7578 -1.1409 -0.1169
  660MOL0     H89084   9.004   2.061   5.353  0.0004  1.2931  1.0574
  660MOL0     H89085   8.871   2.163   5.192  1.2445 -0.6132  0.1765
  660MOL0     H89086   8.589   2.389   4.863  2.8085  0.9033  3.1491
  660MOL0     H89087   8.380   2.491   4.792 -0.8992  0.7641  0.0304
  660MOL0     H89088   8.115   2.695   5.084 -1.1543  1.8432 -2.0752
  660MOL0     H89089   8.055   2.534   5.081  3.1477 -2.3243  0.0511
  660MOL0     H89090   7.923   2.569   4.871 -1.5348  1.5430 -2.2405
  660MOL0     H89091   8.002   2.718   4.847  2.3055 -1.7913 -0.7080
  660MOL0     H89092   7.875   2.831   4.983  0.0041 -0.0302 -1.8212
  660MOL0     H89093   7.851   2.691   5.092  2.1736 -0.3059 -0.0295
  660MOL0     H89094   7.698   2.591   4.902  0.4977  0.2652 -2.0742
  660MOL0     H89095   7.642   2.734   4.997  0.4973  0.7999  0.2929
  660MOL0     H89096   7.646   2.907   4.635 -0.1823 -1.5885 -1.4720
  660MOL0     H89097   8.232   2.531   5.180 -0.1673  1.2236 -1.3624
  660MOL0     H89098   8.458   2.498   5.355 -0.0167  1.9541 -6.0466
  660MOL0     H89099   8.332   2.364   5.348 -1.1308  1.5289 -3.2584
  660MOL0     H89100   8.497   2.321   5.352 -1.7920 -1.2871  0.2498
  661MOL0     O89101   4.469   5.481   4.377  0.3258  0.3470  0.3111
  661MOL0     C89102   4.542   5.577   4.410 -0.6251 -0.6996  0.8976
  661MOL0     O89103   4.631   5.577   4.521 -0.4344 -0.0872  0.1591
  661MOL0     C89104   4.656   5.457   4.584 -0.4155 -0.3114 -0.1467
  661MOL0     C89105   4.792   5.420   4.596  0.2991  0.9994 -0.8648
  661MOL0     C89106   4.819   5.307   4.678 -0.4752  0.0725 -0.5369
  661MOL0     C89107   4.716   5.241   4.760 -0.3592 -0.3247 -0.6141
  661MOL0     O89108   4.752   5.133   4.831  0.3540 -0.7459  0.5026
  661MOL0     C89109   4.684   5.009   4.798  0.8885 -0.1669 -0.1904
  661MOL0     C89110   4.698   4.915   4.912 -0.7691  0.4281  0.2060
  661MOL0     C89111   4.679   4.772   4.873  0.3161  0.1631 -0.8433
  661MOL0     C89112   4.538   4.730   4.867  1.0692  0.5664 -0.3580
  661MOL0     C89113   4.494   4.684   5.019 -0.5187 -0.7366  0.5177
  661MOL0     C89114   4.361   4.632   5.016  0.5704 -0.0922 -0.6737
  661MOL0     C89115   4.263   4.732   4.963 -1.5788 -0.3011  0.7138
  661MOL0     C89116   4.122   4.693   4.969  0.9866  0.1514 -0.4470
  661MOL0     N89117   4.077   4.707   5.109 -0.3697  0.6261  0.1639
  661MOL0     C89118   4.059   4.825   5.188 -0.3859  0.5186  0.5585
  661MOL0     C89119   4.018   4.782   5.313 -0.2089 -0.7390  0.4903
  661MOL0     C89120   3.991   4.867   5.434 -1.1399 -0.2773 -0.4436
  661MOL0     C89121   4.128   4.881   5.504  0.6486  0.7771  0.6866
  661MOL0     C89122   4.127   4.989   5.615 -1.4042 -0.6236  0.0041
  661MOL0     C89123   4.272   5.049   5.619  0.6019  0.5846 -0.3171
  661MOL0     O89124   4.286   5.165   5.703 -0.1471  0.0862 -1.1488
  661MOL0     C89125   4.258   5.164   5.834 -0.6856 -0.2186 -0.2833
  661MOL0     C89126   4.144   5.222   5.881 -0.8334 -1.2226  0.3563
  661MOL0     C89127   4.116   5.202   6.019 -0.4275 -0.2020  1.0255
  661MOL0     C89128   4.196   5.117   6.101 -0.5886 -0.0032  0.4540
  661MOL0     C89129   4.148   5.087   6.236 -1.3390  0.1212 -1.2320
  661MOL0     O89130   4.173   5.185   6.332  0.6823  1.0024  0.5464
  661MOL0     C89131   4.167   5.147   6.460 -0.6546  0.1171 -0.0426
  661MOL0     C89132   4.289   5.124   6.522 -0.6530  0.2593  0.5685
  661MOL0     C89133   4.287   5.077   6.655  0.5631  0.1206  0.1962
  661MOL0     C89134   4.168   5.050   6.724  0.6763 -0.1850 -0.5592
  661MOL0     O89135   4.189   5.024   6.860  0.2539 -0.0583  0.3619
  661MOL0     C89136   4.074   5.079   6.936 -0.1405 -0.0290  0.7161
  661MOL0     C89137   4.097   5.093   7.086 -1.6218  0.2391  1.1761
  661MOL0     C89138   4.071   4.973   7.172 -0.6553  0.5788 -0.8854
  661MOL0     C89139   4.101   4.983   7.322 -0.4511  0.3831  0.3631
  661MOL0     C89140   4.151   4.845   7.374  0.1278 -1.0260  0.6542
  661MOL0     C89141   4.166   4.831   7.525 -0.9318 -0.1725  0.2098
  661MOL0     C89142   4.292   4.744   7.561 -0.2680 -0.1319  0.9452
  661MOL0     C89143   4.346   4.767   7.702 -0.3630  0.0555  0.7893
  661MOL0    Cl89144   4.235   4.688   7.820  0.2989  0.2497  0.1098
  661MOL0     C89145   4.049   5.075   6.643  0.2877 -0.2661 -0.5944
  661MOL0     C89146   4.048   5.129   6.516 -0.3674 -0.0175  0.3307
  661MOL0     O89147   4.117   4.970   6.259  0.2566 -0.2050 -0.2764
  661MOL0     C89148   4.307   5.057   6.040  0.4738  0.4324 -0.4202
  661MOL0     C89149   4.338   5.081   5.907 -0.8812  0.0730  0.0059
  661MOL0     N89150   4.029   4.649   5.317 -0.2798  0.6305  0.1338
  661MOL0     N89151   4.052   4.608   5.199 -0.8546 -0.7605 -0.0224
  661MOL0     C89152   4.583   5.279   4.741  0.4167 -0.2538  0.1964
  661MOL0     C89153   4.558   5.396   4.667  0.1639 -0.5485  0.9934
  661MOL0     C89154   4.537   5.705   4.330 -0.2584 -0.1330  0.3853
  661MOL0     C89155   4.612   5.816   4.374 -0.2296  0.4775 -0.5858
  661MOL0     C89156   4.604   5.947   4.308  0.2963  1.3021 -0.4826
  661MOL0     C89157   4.514   5.965   4.202 -0.9668  0.6856 -1.0343
  661MOL0     O89158   4.499   6.082   4.143  0.0327  0.5594 -0.1579
  661MOL0     C89159   4.425   6.122   4.031  0.8693  0.2811 -0.8538
  661MOL0     C89160   4.445   6.273   4.003  1.1084  0.0869 -0.0574
  661MOL0     C89161   4.375   6.372   4.096 -0.0687  0.8540 -0.5466
  661MOL0     C89162   4.276   6.461   4.032 -0.0135 -0.3006  0.6702
  661MOL0     C89163   4.190   6.525   4.142 -0.4050  0.1461 -1.1752
  661MOL0     C89164   4.131   6.580   4.237  0.2436  0.1824  0.7971
  661MOL0     C89165   4.450   5.856   4.153  0.1017  0.2601 -0.2447
  661MOL0     C89166   4.451   5.730   4.222 -0.0185  0.3757 -0.4441
  661MOL0     C89167   4.355   5.627   4.177 -0.0201  0.2588 -0.1995
  661MOL0     H89168   4.867   5.485   4.552 -0.3133  1.7632 -0.8010
  661MOL0     H89169   4.925   5.280   4.676 -0.3143  0.6557 -2.3057
  661MOL0     H89170   4.577   5.025   4.786  0.9904 -0.4586 -1.6659
  661MOL0     H89171   4.729   4.989   4.700 -0.5775  3.0097 -1.6590
  661MOL0     H89172   4.628   4.945   4.991 -1.6167  0.2842 -0.4749
  661MOL0     H89173   4.798   4.934   4.952 -0.6626  0.7846 -0.2223
  661MOL0     H89174   4.741   4.705   4.934 -1.7650 -1.6887 -0.6174
  661MOL0     H89175   4.715   4.777   4.770  2.3128  0.9587 -0.1721
  661MOL0     H89176   4.489   4.823   4.839  2.9503  2.2662  1.6138
  661MOL0     H89177   4.514   4.642   4.806  0.7222  1.3882 -1.4450
  661MOL0     H89178   4.565   4.607   5.049  2.3845  0.9364 -1.5301
  661MOL0     H89179   4.501   4.768   5.089  1.8232  1.0479 -1.6610
  661MOL0     H89180   4.358   4.541   4.957  1.5139 -1.0920  0.7466
  661MOL0     H89181   4.326   4.597   5.114  2.3105  0.6384  0.2657
  661MOL0     H89182   4.291   4.738   4.857  1.4696  1.8221  1.5344
  661MOL0     H89183   4.288   4.827   5.010  0.1001 -1.8829  3.2569
  661MOL0     H89184   4.061   4.744   4.894  1.8219 -0.8268 -1.8335
  661MOL0     H89185   4.108   4.586   4.957  0.0914  0.1541  0.4119
  661MOL0     H89186   4.083   4.924   5.151  1.8835 -0.7038 -1.4494
  661MOL0     H89187   3.951   4.959   5.392 -0.1136  0.5666  0.3576
  661MOL0     H89188   3.915   4.823   5.499 -1.1878  2.7332  1.7491
  661MOL0     H89189   4.149   4.795   5.569  1.2172  1.1813  1.0484
  661MOL0     H89190   4.208   4.880   5.429 -2.0180 -1.4185 -2.3844
  661MOL0     H89191   4.101   4.946   5.712  2.7091 -0.2058  1.4904
  661MOL0     H89192   4.065   5.077   5.596  0.6141  0.6309 -1.1069
  661MOL0     H89193   4.303   5.089   5.522  0.1066 -0.8865 -1.1095
  661MOL0     H89194   4.337   4.964   5.641 -2.1805 -1.9419 -1.1206
  661MOL0     H89195   4.088   5.289   5.817  3.2197  0.1620 -2.1372
  661MOL0     H89196   4.028   5.249   6.060 -0.6195  0.3006  0.0715
  661MOL0     H89197   4.379   5.133   6.464 -0.9213 -1.9339 -0.2740
  661MOL0     H89198   4.383   5.059   6.702  1.0025  0.4227 -0.5654
  661MOL0     H89199   4.039   5.178   6.906  0.6154  1.0704  3.1987
  661MOL0     H89200   3.981   5.022   6.926  0.4490 -0.8987  0.0362
  661MOL0     H89201   4.199   5.123   7.108 -1.8868 -0.0443  2.9668
  661MOL0     H89202   4.031   5.174   7.119 -3.2665 -0.6259  0.1650
  661MOL0     H89203   3.967   4.938   7.172  0.0418 -1.5831 -1.3656
  661MOL0     H89204   4.144   4.904   7.130 -1.8963 -2.1646  1.1651
  661MOL0     H89205   4.017   5.025   7.378  1.2980  2.8067  1.3693
  661MOL0     H89206   4.172   5.065   7.334 -2.2188  1.7365  2.3890
  661MOL0     H89207   4.242   4.818   7.321 -0.3859  0.3143 -0.9829
  661MOL0     H89208   4.077   4.771   7.341 -0.7003 -0.3312  0.9037
  661MOL0     H89209   4.177   4.933   7.563 -3.6043  1.1796 -2.2467
  661MOL0     H89210   4.073   4.783   7.559 -0.9958  0.7106  1.3404
  661MOL0     H89211   4.377   4.771   7.498 -1.8123  3.9355  0.3010
  661MOL0     H89212   4.264   4.640   7.539 -1.5826  0.1541  1.2032
  661MOL0     H89213   4.445   4.722   7.701  0.1538  1.1363 -0.7088
  661MOL0     H89214   4.361   4.875   7.715  0.3419 -0.0010  0.4740
  661MOL0     H89215   3.951   5.050   6.682 -0.3334  0.2645 -1.7510
  661MOL0     H89216   3.965   5.135   6.446  0.2098 -3.5030 -0.8319
  661MOL0     H89217   4.389   5.009   6.093  1.7648  2.6415 -0.2789
  661MOL0     H89218   4.428   5.031   5.875 -2.5704 -2.1093 -1.5524
  661MOL0     H89219   4.500   5.231   4.791  0.0966 -2.5420 -2.3268
  661MOL0     H89220   4.456   5.432   4.662  1.4913  3.4660 -1.2265
  661MOL0     H89221   4.674   5.803   4.462 -1.2698  1.6708  0.3770
  661MOL0     H89222   4.659   6.031   4.349  2.2846  0.2445 -0.8733
  661MOL0     H89223   4.324   6.101   4.067  1.4683  1.2058  1.5903
  661MOL0     H89224   4.472   6.071   3.946  2.1516 -1.3949  0.7622
  661MOL0     H89225   4.406   6.291   3.902  1.4036  0.0092 -0.1868
  661MOL0     H89226   4.550   6.301   3.987  0.8278  1.3110  0.1051
  661MOL0     H89227   4.456   6.429   4.143 -0.4974  1.0680 -0.0570
  661MOL0     H89228   4.322   6.322   4.177  0.4565  1.1394 -0.0118
  661MOL0     H89229   4.332   6.538   3.979  0.7189  1.4122  3.6711
  661MOL0     H89230   4.209   6.420   3.956 -0.2293 -0.6511  1.0457
  661MOL0     H89231   4.096   6.616   4.331  1.5315 -1.8633  2.1430
  661MOL0     H89232   4.379   5.869   4.073 -1.1469  0.4846  0.8635
  661MOL0     H89233   4.406   5.530   4.168 -1.2257 -0.2853 -1.7471
  661MOL0     H89234   4.271   5.631   4.246 -0.0659  3.3551 -0.3110
  661MOL0     H89235   4.300   5.639   4.083 -1.2568 -0.6614  0.3821
  662MOL0     O89236   0.424   4.279   7.389 -0.5621 -0.2204  0.0384
  662MOL0     C89237   0.382   4.249   7.278  0.2521 -0.4064  0.7268
  662MOL0     O89238   0.343   4.344   7.183  0.1216  0.4671  0.3178
  662MOL0     C89239   0.322   4.471   7.234  0.0520 -1.5863 -0.0551
  662MOL0     C89240   0.417   4.572   7.246  0.5188  0.2051 -0.0287
  662MOL0     C89241   0.385   4.696   7.292  0.3726 -0.0908 -0.7821
  662MOL0     C89242   0.252   4.734   7.323  0.3056 -0.8117  0.6324
  662MOL0     O89243   0.239   4.865   7.374 -0.0823 -0.7050  0.4567
  662MOL0     C89244   0.099   4.916   7.391  0.3573  0.1274 -0.4660
  662MOL0     C89245   0.106   5.063   7.427 -0.2153 -0.1402  0.5533
  662MOL0     C89246   0.195   5.156   7.339 -0.1443  1.1332 -0.2710
  662MOL0     C89247   0.206   5.298   7.385  0.1958 -0.1564 -1.1840
  662MOL0     C89248   0.272   5.383   7.274 -0.1399  0.3908 -0.0102
  662MOL0     C89249   0.326   5.521   7.332 -0.6918  0.3189 -0.0170
  662MOL0     C89250   0.382   5.599   7.217  0.2419  0.3206 -0.7555
  662MOL0     C89251   0.522   5.542   7.172 -0.8526  0.8042  0.5436
  662MOL0     N89252   0.636   5.611   7.247 -0.0233 -0.6327  0.1236
  662MOL0     C89253   0.707   5.564   7.358  0.6147  0.5119  0.2388
  662MOL0     C89254   0.807   5.647   7.384  0.5189  0.1322  0.1260
  662MOL0     C89255   0.911   5.637   7.487 -0.7686  0.7938 -0.4013
  662MOL0     C89256   0.846   5.651   7.623  0.1176  0.5653  0.3867
  662MOL0     C89257   0.957   5.657   7.726  0.5887  0.1482 -0.6207
  662MOL0     C89258   0.942   5.787   7.818 -0.2957  0.2568 -0.5880
  662MOL0     O89259   1.049   5.785   7.912  0.2826 -0.3487 -0.3140
  662MOL0     C89260   1.019   5.866   8.022 -0.5946 -0.2930  0.7274
  662MOL0     C89261   0.916   5.954   8.034 -0.4470 -0.3132  0.7712
  662MOL0     C89262   0.903   6.046   8.144  0.4195 -0.7189  1.1292
  662MOL0     C89263   1.012   6.068   8.227 -0.5032 -1.5583 -0.1559
  662MOL0     C89264   0.995   6.180   8.315  0.2525  0.1039 -0.3756
  662MOL0     O89265   0.868   6.188   8.379 -0.9391 -0.3038  0.7901
  662MOL0     C89266   0.861   6.278   8.481 -0.9012 -0.2918 -0.9170
  662MOL0     C89267   0.849   6.409   8.439  0.8545 -0.3456  0.9418
  662MOL0     C89268   0.854   6.507   8.534 -0.2866  0.4532 -0.5569
  662MOL0     C89269   0.866   6.481   8.674  0.2161 -0.8358 -0.1380
  662MOL0     O89270   0.847   6.586   8.761 -0.0811 -0.2647  0.0982
  662MOL0     C89271   0.799   6.553   8.892 -0.1625 -0.1581 -0.6347
  662MOL0     C89272   0.713   6.677   8.938  0.6259  0.6741 -1.2823
  662MOL0     C89273   0.597   6.699   8.850  0.9458  1.0198 -0.3691
  662MOL0     C89274   0.521   6.822   8.894 -1.1303 -0.0549  0.0053
  662MOL0     C89275   0.418   6.865   8.792 -0.4000  0.9140  0.0593
  662MOL0     C89276   0.274   6.859   8.841  0.4420  1.3523  0.3866
  662MOL0     C89277   0.175   6.879   8.713  0.3836 -0.5403 -0.7071
  662MOL0     C89278   0.038   6.833   8.762  0.0007  1.1249  0.2634
  662MOL0    Cl89279  -0.023   6.933   8.893  0.4749  0.2292 -0.4090
  662MOL0     C89280   0.880   6.345   8.707 -0.1800 -1.4232  0.4070
  662MOL0     C89281   0.890   6.245   8.613  0.3826  0.0241 -0.4399
  662MOL0     O89282   1.089   6.251   8.345 -0.8957 -0.4365 -0.2067
  662MOL0     C89283   1.124   5.972   8.224  0.6270  0.8699 -0.1031
  662MOL0     C89284   1.122   5.874   8.118 -0.3424  0.6427  0.0607
  662MOL0     N89285   0.796   5.744   7.286  0.0297  0.1908 -0.9629
  662MOL0     N89286   0.695   5.717   7.209  0.5860 -0.5352  0.1205
  662MOL0     C89287   0.152   4.629   7.314  0.7848 -0.3599  0.1660
  662MOL0     C89288   0.190   4.500   7.272 -0.8851 -0.0907  0.7080
  662MOL0     C89289   0.374   4.106   7.233 -0.2184 -0.9544 -0.2709
  662MOL0     C89290   0.430   4.013   7.323 -0.5700  0.1268 -0.4848
  662MOL0     C89291   0.424   3.877   7.292 -0.0782  0.3437 -0.6091
  662MOL0     C89292   0.355   3.832   7.177 -0.3314 -0.6731 -0.0103
  662MOL0     O89293   0.329   3.703   7.138 -0.2573  0.0186 -0.4846
  662MOL0     C89294   0.229   3.635   7.209 -0.1663  0.0676  0.3049
  662MOL0     C89295   0.083   3.668   7.154  1.1606  0.7149  0.2115
  662MOL0     C89296   0.064   3.620   7.009  0.0509 -0.9248 -0.4196
  662MOL0     C89297  -0.087   3.595   6.977 -0.2287 -1.1940  1.2030
  662MOL0     C89298  -0.181   3.708   6.985  0.2248 -0.1343  0.0945
  662MOL0     C89299  -0.268   3.794   6.983 -0.0836 -0.1476  0.2523
  662MOL0     C89300   0.306   3.929   7.097 -0.1790 -0.2128 -0.4804
  662MOL0     C89301   0.316   4.067   7.113  0.1650  0.3018 -0.7575
  662MOL0     C89302   0.247   4.156   7.012 -0.5950 -0.5254 -0.5953
  662MOL0     H89303   0.518   4.554   7.212  0.7693  1.1003  0.2108
  662MOL0     H89304   0.464   4.768   7.307  2.3091 -2.1533 -0.4894
  662MOL0     H89305   0.040   4.905   7.299 -1.7950 -1.6186  1.0181
  662MOL0     H89306   0.049   4.864   7.473 -1.6379  4.3870  1.2916
  662MOL0     H89307   0.151   5.070   7.527  1.3812 -1.5359 -0.0186
  662MOL0     H89308   0.005   5.105   7.435  0.3986  1.2134  1.5598
  662MOL0     H89309   0.151   5.159   7.239  0.0067  1.7154 -0.3201
  662MOL0     H89310   0.294   5.112   7.325  0.2566  0.0522  4.3075
  662MOL0     H89311   0.105   5.333   7.409  0.8791 -0.2062  2.2629
  662MOL0     H89312   0.262   5.308   7.478 -2.5920 -1.6865  0.8393
  662MOL0     H89313   0.360   5.325   7.244 -0.8408  0.8257 -3.2705
  662MOL0     H89314   0.204   5.395   7.189  1.2321  1.3634 -1.0083
  662MOL0     H89315   0.250   5.567   7.397 -2.2171 -2.6760  0.4865
  662MOL0     H89316   0.408   5.492   7.398 -2.2314 -1.1262  1.3639
  662MOL0     H89317   0.398   5.699   7.258  0.8058  0.5693 -1.5572
  662MOL0     H89318   0.304   5.588   7.141 -0.4804 -3.3923  0.3005
  662MOL0     H89319   0.528   5.437   7.203 -0.9936  1.3864  2.7514
  662MOL0     H89320   0.527   5.557   7.064  0.6595 -2.1055  0.1263
  662MOL0     H89321   0.694   5.478   7.422 -0.1647  0.4149 -0.0452
  662MOL0     H89322   0.956   5.537   7.486  1.8069  1.7630  2.6662
  662MOL0     H89323   0.993   5.704   7.459  3.0687 -3.5408 -0.9142
  662MOL0     H89324   0.779   5.738   7.622 -0.0783  0.4334 -1.9557
  662MOL0     H89325   0.789   5.565   7.660  1.5829  0.8282  3.6154
  662MOL0     H89326   1.057   5.655   7.682 -0.2391  1.1278 -2.6757
  662MOL0     H89327   0.953   5.570   7.792  2.2922 -0.5231 -1.3568
  662MOL0     H89328   0.848   5.789   7.874  0.7370  5.3565  1.4552
  662MOL0     H89329   0.950   5.876   7.757  0.1093 -1.0181 -2.4713
  662MOL0     H89330   0.834   5.965   7.964 -1.2808 -0.1750  1.7424
  662MOL0     H89331   0.812   6.103   8.132  2.1849  1.7694 -2.1291
  662MOL0     H89332   0.833   6.429   8.334 -1.1966 -2.4547  0.7885
  662MOL0     H89333   0.843   6.611   8.503  0.5225 -0.0556 -2.7264
  662MOL0     H89334   0.732   6.466   8.887 -1.5565  0.7552  0.9211
  662MOL0     H89335   0.870   6.520   8.968 -2.7305 -2.2410  1.0421
  662MOL0     H89336   0.684   6.655   9.041 -1.7621 -2.7601 -2.4892
  662MOL0     H89337   0.779   6.764   8.941  2.3129 -0.5382 -1.3899
  662MOL0     H89338   0.647   6.708   8.754 -0.9245  1.7202 -1.3321
  662MOL0     H89339   0.532   6.611   8.838  2.0175  0.0487  0.6657
  662MOL0     H89340   0.585   6.911   8.900  0.0259 -0.7720 -1.1961
  662MOL0     H89341   0.482   6.810   8.996  0.0442 -2.7317  0.2021
  662MOL0     H89342   0.419   6.811   8.697  0.2860 -0.9305  1.0771
  662MOL0     H89343   0.431   6.972   8.774 -2.9275  1.6198  1.7762
  662MOL0     H89344   0.269   6.761   8.890  6.3598  1.5732  2.3201
  662MOL0     H89345   0.257   6.936   8.916 -2.0856  0.9120  0.3334
  662MOL0     H89346   0.216   6.813   8.635  0.8181 -0.9569 -0.1309
  662MOL0     H89347   0.166   6.980   8.673  1.0752 -0.0336  0.3858
  662MOL0     H89348  -0.049   6.827   8.696 -0.1459  2.4330  0.3144
  662MOL0     H89349   0.052   6.741   8.820  2.7270  1.2072 -0.1416
  662MOL0     H89350   0.893   6.324   8.813  0.9536  0.0252  0.5757
  662MOL0     H89351   0.905   6.142   8.642  1.4518  0.6830  1.5452
  662MOL0     H89352   1.195   5.970   8.306 -0.3716 -0.8561  0.7675
  662MOL0     H89353   1.207   5.806   8.115  0.4399  1.4693  1.7338
  662MOL0     H89354   0.047   4.648   7.336  0.4560 -1.0222 -0.7956
  662MOL0     H89355   0.116   4.421   7.271  0.2750 -1.2169 -0.1487
  662MOL0     H89356   0.483   4.033   7.416 -2.4334  0.4144  0.5712
  662MOL0     H89357   0.470   3.799   7.351  0.3962  1.0325 -0.0438
  662MOL0     H89358   0.249   3.652   7.315  2.0362  3.5687 -0.4878
  662MOL0     H89359   0.241   3.528   7.193 -3.9745 -0.3680 -0.5722
  662MOL0     H89360   0.046   3.770   7.161  0.8895  0.6565 -0.2733
  662MOL0     H89361   0.014   3.609   7.215  2.6628 -1.7753 -0.3283
  662MOL0     H89362   0.117   3.525   7.001  3.0036  0.2599  2.5150
  662MOL0     H89363   0.111   3.692   6.941 -0.7501  0.5840  0.5564
  662MOL0     H89364  -0.082   3.550   6.877  0.9061 -0.3049  0.8380
  662MOL0     H89365  -0.133   3.522   7.044  0.4577  0.3907  3.5331
  662MOL0     H89366  -0.342   3.871   6.979  1.4273  1.3606 -0.0815
  662MOL0     H89367   0.255   3.884   7.012  1.5612 -1.1747 -1.0720
  662MOL0     H89368   0.322   4.231   6.984  1.8900 -0.5309  4.6679
  662MOL0     H89369   0.204   4.104   6.926 -0.1270  1.3906 -2.0538
  662MOL0     H89370   0.162   4.205   7.060 -0.6011  0.2990 -1.4256
  663MOL0     O89371   3.338  10.417   8.451 -0.1309 -0.2287  0.5617
  663MOL0     C89372   3.445  10.457   8.488 -0.6577 -0.2232  0.2411
  663MOL0     O89373   3.547  10.370   8.512  0.4673  0.5418  1.1590
  663MOL0     C89374   3.540  10.244   8.455  0.5693  0.3130 -1.3310
  663MOL0     C89375   3.453  10.144   8.517 -0.3076 -0.9521  0.1087
  663MOL0     C89376   3.449  10.017   8.467 -0.5306  0.2271  0.0587
  663MOL0     C89377   3.515   9.982   8.345 -1.2735 -0.1670 -0.4284
  663MOL0     O89378   3.514   9.851   8.299  0.4659 -0.0731  1.2620
  663MOL0     C89379   3.405   9.759   8.310 -0.0988  0.4143  0.5150
  663MOL0     C89380   3.416   9.656   8.199 -0.0733  1.0610  0.2318
  663MOL0     C89381   3.377   9.513   8.253 -0.6718 -0.8345 -0.2442
  663MOL0     C89382   3.241   9.520   8.330 -0.0885  1.1247  1.7651
  663MOL0     C89383   3.178   9.374   8.321 -0.4217  0.0237  0.9222
  663MOL0     C89384   3.023   9.381   8.350 -0.1789  1.1910 -0.4404
  663MOL0     C89385   2.966   9.242   8.324  0.9050 -0.3344 -0.3829
  663MOL0     C89386   2.833   9.241   8.405  1.0796 -0.4472  0.2396
  663MOL0     N89387   2.753   9.363   8.372  0.6453 -0.5328 -0.5902
  663MOL0     C89388   2.707   9.403   8.241  0.1894  0.3673 -0.5349
  663MOL0     C89389   2.644   9.520   8.264  0.1643 -0.6696  1.3932
  663MOL0     C89390   2.566   9.604   8.174  0.4264 -0.1659  0.5859
  663MOL0     C89391   2.418   9.608   8.215  0.4519 -0.3887  0.2499
  663MOL0     C89392   2.321   9.654   8.108 -0.4085 -0.4699 -0.9797
  663MOL0     C89393   2.324   9.808   8.078  0.5808  0.9172 -0.7178
  663MOL0     O89394   2.224   9.840   7.978  0.0714 -0.3474 -0.5090
  663MOL0     C89395   2.266   9.821   7.848  0.1336  0.7664 -0.0780
  663MOL0     C89396   2.388   9.768   7.790  0.0725 -0.0604  1.1302
  663MOL0     C89397   2.412   9.764   7.652  0.4460 -0.8568  0.0514
  663MOL0     C89398   2.314   9.817   7.552  0.1850 -0.4244  0.2622
  663MOL0     C89399   2.346   9.817   7.410 -0.3039  0.7628  0.3505
  663MOL0     O89400   2.245   9.825   7.323 -0.0898 -0.2356 -0.5288
  663MOL0     C89401   2.262   9.870   7.195 -0.6831  0.2376  0.7448
  663MOL0     C89402   2.267  10.007   7.170  0.2349  0.1901 -0.1229
  663MOL0     C89403   2.282  10.069   7.041  0.6169  0.2392 -1.2043
  663MOL0     C89404   2.310   9.977   6.935  0.2044  0.4291 -0.3010
  663MOL0     O89405   2.334  10.013   6.804 -0.1566 -0.5315  0.0071
  663MOL0     C89406   2.397  10.134   6.787 -0.4253  0.0104  0.0413
  663MOL0     C89407   2.454  10.157   6.655  0.0263 -0.1413  0.2455
  663MOL0     C89408   2.542  10.040   6.605  0.0768 -0.1065  0.0845
  663MOL0     C89409   2.633  10.083   6.488 -0.3601 -0.0968 -0.4504
  663MOL0     C89410   2.701   9.958   6.423  0.9721 -0.2539  0.4735
  663MOL0     C89411   2.624   9.882   6.323 -0.4826 -0.4521  0.2299
  663MOL0     C89412   2.567   9.982   6.219  0.6389 -0.2416  0.2939
  663MOL0     C89413   2.549   9.909   6.085 -0.1547 -0.6838 -0.4721
  663MOL0    Cl89414   2.443   9.770   6.092 -0.3698 -0.5346  0.2570
  663MOL0     C89415   2.308   9.838   6.963 -0.0233 -0.2868  0.4165
  663MOL0     C89416   2.272   9.783   7.088  1.0162  0.1400  0.7854
  663MOL0     O89417   2.463   9.809   7.382 -1.2587  0.1686  0.6534
  663MOL0     C89418   2.189   9.858   7.610 -0.0725  0.2890  0.1873
  663MOL0     C89419   2.175   9.860   7.751  1.0547 -0.2025  0.7361
  663MOL0     N89420   2.675   9.558   8.390 -0.6538  1.8847  0.5713
  663MOL0     N89421   2.726   9.466   8.454  0.6504  0.8340 -0.3574
  663MOL0     C89422   3.609  10.070   8.293 -1.1009 -0.7052 -0.5993
  663MOL0     C89423   3.627  10.196   8.352 -0.4124  0.2810 -0.2250
  663MOL0     C89424   3.472  10.591   8.548  0.4806 -0.5120  0.4860
  663MOL0     C89425   3.601  10.611   8.608  0.2037  0.0189 -0.0930
  663MOL0     C89426   3.643  10.734   8.648  0.7461 -1.0893 -0.3890
  663MOL0     C89427   3.552  10.841   8.663 -0.2470  1.8184 -0.4499
  663MOL0     O89428   3.604  10.962   8.704 -0.4540  0.6351 -0.2981
  663MOL0     C89429   3.520  11.077   8.724 -0.1094 -0.3383  0.8978
  663MOL0     C89430   3.595  11.181   8.811  0.7681 -0.5029 -0.4107
  663MOL0     C89431   3.643  11.123   8.936  0.0166  0.0201  1.1361
  663MOL0     C89432   3.734  11.223   9.019 -0.2043  0.9532  1.1461
  663MOL0     C89433   3.868  11.226   8.951 -0.2932 -0.0472 -0.2210
  663MOL0     C89434   3.975  11.203   8.891 -1.0588 -0.6319  0.0892
  663MOL0     C89435   3.427  10.828   8.620  0.5588  0.3672 -0.1854
  663MOL0     C89436   3.384  10.702   8.551  0.5621 -0.5902 -0.0758
  663MOL0     C89437   3.243  10.696   8.501 -1.2261  0.2223  0.5383
  663MOL0     H89438   3.392  10.161   8.605  0.6140  0.5851  0.4778
  663MOL0     H89439   3.390   9.938   8.511  0.8797 -1.2833 -0.6374
  663MOL0     H89440   3.427   9.710   8.405  2.9743  0.7711  0.1182
  663MOL0     H89441   3.313   9.816   8.294  0.8998  1.4486 -2.2707
  663MOL0     H89442   3.518   9.657   8.161 -0.7283  1.2248 -1.6826
  663MOL0     H89443   3.343   9.670   8.118 -1.5294  1.4222  1.5718
  663MOL0     H89444   3.466   9.483   8.308 -0.8097 -1.6134 -0.4187
  663MOL0     H89445   3.370   9.443   8.168  1.3720  1.6380 -2.6537
  663MOL0     H89446   3.252   9.548   8.435 -3.0197  4.5356  1.3469
  663MOL0     H89447   3.168   9.585   8.282 -1.9066 -3.6195 -2.8952
  663MOL0     H89448   3.195   9.314   8.231  1.5580  2.3291 -0.3609
  663MOL0     H89449   3.223   9.306   8.394 -0.9945 -1.6240 -0.1859
  663MOL0     H89450   3.005   9.408   8.455 -1.7173  0.4884 -0.4984
  663MOL0     H89451   2.964   9.456   8.297 -0.1406 -0.9229 -3.7587
  663MOL0     H89452   3.032   9.161   8.358 -0.4395 -1.5010 -0.4620
  663MOL0     H89453   2.961   9.212   8.219  0.6558 -2.5479  0.2227
  663MOL0     H89454   2.776   9.148   8.390  1.1298 -0.3136 -0.8752
  663MOL0     H89455   2.857   9.256   8.510 -0.9353  0.7270  0.5882
  663MOL0     H89456   2.713   9.345   8.149 -0.2703 -1.9006  0.7971
  663MOL0     H89457   2.612   9.703   8.176 -0.8978  0.4513  1.4826
  663MOL0     H89458   2.571   9.577   8.067  2.4073 -0.5800  0.7321
  663MOL0     H89459   2.395   9.505   8.243 -2.0076  0.8814  3.5461
  663MOL0     H89460   2.405   9.665   8.307 -2.5642 -0.7054  0.1389
  663MOL0     H89461   2.223   9.620   8.143  0.3050 -0.5184  1.1064
  663MOL0     H89462   2.349   9.603   8.015 -0.8949 -0.0423 -1.3598
  663MOL0     H89463   2.428   9.839   8.066  0.2660  2.7295  0.7973
  663MOL0     H89464   2.293   9.862   8.168  0.4988  2.8662 -1.8642
  663MOL0     H89465   2.468   9.728   7.850  2.4296  0.4533 -1.4535
  663MOL0     H89466   2.495   9.704   7.615  1.0575 -1.2369  1.9231
  663MOL0     H89467   2.239  10.071   7.253  0.5734  1.9176 -1.2971
  663MOL0     H89468   2.279  10.177   7.033 -1.8429  0.4526  1.1191
  663MOL0     H89469   2.329  10.217   6.808  0.0828  0.6350 -0.7210
  663MOL0     H89470   2.489  10.134   6.845  0.9513  1.5368 -1.9808
  663MOL0     H89471   2.382  10.179   6.575  0.2681  3.1241  0.7825
  663MOL0     H89472   2.517  10.246   6.659  1.0288 -0.8540  0.9765
  663MOL0     H89473   2.613  10.008   6.681 -0.7569 -1.3464  0.3779
  663MOL0     H89474   2.486   9.949   6.581  3.9186 -3.0581  1.3604
  663MOL0     H89475   2.710  10.136   6.545 -0.4650  1.8851 -2.0635
  663MOL0     H89476   2.592  10.151   6.413  0.4307  0.8846 -0.0147
  663MOL0     H89477   2.730   9.890   6.504 -1.4889 -1.4358  0.4603
  663MOL0     H89478   2.794   9.995   6.380 -0.7718 -0.5813 -4.0481
  663MOL0     H89479   2.699   9.826   6.268 -1.7181  0.3438 -2.4337
  663MOL0     H89480   2.546   9.814   6.361 -0.1863 -1.3163 -0.6663
  663MOL0     H89481   2.639  10.060   6.192  3.1908 -2.3405  0.5658
  663MOL0     H89482   2.477  10.036   6.249  0.8552 -0.0192  0.5528
  663MOL0     H89483   2.511   9.986   6.017  0.3279  1.6967  1.7587
  663MOL0     H89484   2.645   9.885   6.039 -0.0450 -0.6286 -0.2717
  663MOL0     H89485   2.336   9.758   6.895  0.7871 -2.3222  2.9774
  663MOL0     H89486   2.263   9.675   7.095 -2.0000  0.2951  0.3212
  663MOL0     H89487   2.116   9.889   7.536  0.8492  0.5044 -0.6486
  663MOL0     H89488   2.077   9.898   7.778  0.5814  0.1887 -1.3757
  663MOL0     H89489   3.675  10.037   8.213 -0.1399 -1.0722  0.3146
  663MOL0     H89490   3.693  10.273   8.314  0.9943 -1.0200 -0.4866
  663MOL0     H89491   3.678  10.534   8.608 -1.1003 -1.3297 -0.8166
  663MOL0     H89492   3.744  10.756   8.683 -0.0736 -2.1957  3.0967
  663MOL0     H89493   3.426  11.059   8.777 -1.4117  1.4765 -0.6579
  663MOL0     H89494   3.492  11.118   8.627  0.5958 -0.7786  0.4965
  663MOL0     H89495   3.531  11.270   8.816  1.5425  0.0927 -0.8902
  663MOL0     H89496   3.683  11.210   8.754  1.4709 -2.6160 -0.4924
  663MOL0     H89497   3.705  11.034   8.921  5.5969  2.9924  3.6792
  663MOL0     H89498   3.554  11.088   8.989 -0.5191 -3.6340 -1.7068
  663MOL0     H89499   3.688  11.321   9.033 -2.1616  0.1382  0.7890
  663MOL0     H89500   3.744  11.190   9.123 -0.7162 -5.1443 -0.3634
  663MOL0     H89501   4.073  11.176   8.856 -0.7627  0.3415  0.1364
  663MOL0     H89502   3.358  10.910   8.635 -0.0706 -0.1719 -0.0787
  663MOL0     H89503   3.186  10.788   8.510  1.6310  2.1752  0.0704
  663MOL0     H89504   3.236  10.677   8.393 -4.6287  3.6058 -0.0504
  663MOL0     H89505   3.186  10.622   8.557 -0.8768  1.4273  2.5771
  664MOL0     O89506   3.066   6.766   8.943 -0.4461 -0.6676  0.1487
  664MOL0     C89507   2.982   6.839   8.987  0.2470  0.5523  0.0883
  664MOL0     O89508   2.886   6.906   8.910 -0.2138  0.2526 -0.0197
  664MOL0     C89509   2.899   6.893   8.780 -0.5178  0.4496  0.1965
  664MOL0     C89510   2.858   6.774   8.725  0.1364  1.1318  0.6444
  664MOL0     C89511   2.839   6.773   8.580  0.1819 -1.6626 -0.4765
  664MOL0     C89512   2.902   6.878   8.505  0.0123 -0.1413  1.1081
  664MOL0     O89513   2.889   6.876   8.365  0.0025 -0.3873 -0.2603
  664MOL0     C89514   2.997   6.821   8.289  0.7560  0.8079  0.3956
  664MOL0     C89515   3.031   6.672   8.313  1.1870 -0.2045  0.1174
  664MOL0     C89516   2.917   6.577   8.266 -0.4990  0.4406  0.5340
  664MOL0     C89517   2.925   6.441   8.336  0.0535  0.1497 -0.8447
  664MOL0     C89518   2.903   6.321   8.247 -0.0779 -0.0789  0.6276
  664MOL0     C89519   2.763   6.291   8.195 -0.2373  0.0820 -0.4755
  664MOL0     C89520   2.663   6.272   8.302  0.1592 -0.0302 -0.5500
  664MOL0     C89521   2.685   6.146   8.393 -0.0438  0.1260 -0.1082
  664MOL0     N89522   2.698   6.018   8.308 -0.0698  0.4978  0.5062
  664MOL0     C89523   2.589   5.953   8.262 -1.4106  0.5490 -0.0775
  664MOL0     C89524   2.640   5.837   8.202 -0.0866 -0.0456  0.7065
  664MOL0     C89525   2.565   5.720   8.143  0.3911  0.7608 -0.3441
  664MOL0     C89526   2.560   5.703   7.988  0.1589 -0.6998  0.0154
  664MOL0     C89527   2.494   5.811   7.906  0.1041  0.0256  1.2411
  664MOL0     C89528   2.459   5.789   7.753 -0.2577  0.0145 -0.5698
  664MOL0     O89529   2.457   5.915   7.692 -0.6022 -0.3855 -0.0438
  664MOL0     C89530   2.346   5.933   7.612  0.3612  0.4449 -0.4567
  664MOL0     C89531   2.286   6.055   7.610  0.6398  0.1347 -0.3959
  664MOL0     C89532   2.173   6.085   7.531 -0.9177  0.9403  0.3903
  664MOL0     C89533   2.122   5.993   7.448  0.5821 -1.1891 -0.1148
  664MOL0     C89534   2.022   6.030   7.338 -0.4511  0.0982  0.2420
  664MOL0     O89535   1.974   5.930   7.258 -0.6183 -0.7335  0.1549
  664MOL0     C89536   1.881   5.958   7.160  0.3476  0.3091  0.3405
  664MOL0     C89537   1.871   6.066   7.081  0.3937  0.1417 -0.8929
  664MOL0     C89538   1.772   6.073   6.984 -0.3177  0.5748 -0.6394
  664MOL0     C89539   1.691   5.964   6.954  0.4350 -0.4734 -0.4603
  664MOL0     O89540   1.584   5.980   6.866  0.1804 -0.0490 -0.1547
  664MOL0     C89541   1.509   5.869   6.813 -0.0475 -0.8684 -0.0378
  664MOL0     C89542   1.496   5.905   6.668 -0.3786  0.6267  0.8480
  664MOL0     C89543   1.413   6.038   6.647 -0.2898  0.5315  0.4375
  664MOL0     C89544   1.370   6.059   6.491  0.4148 -0.4786 -0.3797
  664MOL0     C89545   1.214   6.042   6.489 -0.6134 -0.1786  1.0215
  664MOL0     C89546   1.160   6.045   6.346 -0.2429  0.4961  0.1506
  664MOL0     C89547   1.005   6.027   6.342 -0.0388 -0.0608 -0.0378
  664MOL0     C89548   0.947   5.911   6.276  1.2316  0.3692 -0.1277
  664MOL0    Cl89549   0.770   5.946   6.236 -0.0276  0.0655 -0.2861
  664MOL0     C89550   1.719   5.844   7.020 -0.0209 -0.3750  1.1785
  664MOL0     C89551   1.817   5.841   7.117  0.1323 -0.2037 -0.6308
  664MOL0     O89552   1.976   6.141   7.343  0.1715 -0.7170 -0.5380
  664MOL0     C89553   2.167   5.855   7.451  0.9839 -0.6283 -0.4708
  664MOL0     C89554   2.287   5.833   7.528 -0.1644 -0.0900 -0.2235
  664MOL0     N89555   2.788   5.844   8.210  0.6314  0.3038  0.7783
  664MOL0     N89556   2.815   5.943   8.281 -0.7242  0.2901 -0.4782
  664MOL0     C89557   2.960   6.990   8.569 -0.1641 -0.0312 -0.0836
  664MOL0     C89558   2.952   7.001   8.714  0.0242  0.0067 -0.5710
  664MOL0     C89559   2.972   6.848   9.138  0.5133  0.5592  0.0625
  664MOL0     C89560   3.072   6.781   9.208  0.4134 -0.4644  0.4888
  664MOL0     C89561   3.080   6.788   9.351 -0.4255  0.2449  0.2471
  664MOL0     C89562   2.989   6.869   9.421 -0.8969 -1.0022 -0.2203
  664MOL0     O89563   2.991   6.903   9.554  0.4661  0.2249  0.2914
  664MOL0     C89564   3.099   6.990   9.592 -0.3670  0.4250 -0.3193
  664MOL0     C89565   3.210   6.914   9.664  0.8900 -0.2839 -0.7816
  664MOL0     C89566   3.173   6.894   9.805 -0.1279  0.4389  0.3269
  664MOL0     C89567   3.279   6.808   9.881 -0.4262 -0.4424 -0.3039
  664MOL0     C89568   3.418   6.852   9.859  0.4203  0.6149 -0.0942
  664MOL0     C89569   3.536   6.882   9.844  0.0929 -0.1066 -0.2147
  664MOL0     C89570   2.885   6.924   9.357  0.7811  0.1488 -0.1065
  664MOL0     C89571   2.876   6.918   9.215  0.5931  0.8926  0.1443
  664MOL0     C89572   2.764   6.992   9.146 -0.0380 -0.1019  0.6371
  664MOL0     H89573   2.805   6.707   8.793 -0.2832  3.2718  2.5754
  664MOL0     H89574   2.786   6.695   8.526  0.7196 -0.2265 -3.3079
  664MOL0     H89575   2.977   6.820   8.181  0.2707 -1.3545  0.4523
  664MOL0     H89576   3.079   6.892   8.304  2.5967 -0.6375 -2.0770
  664MOL0     H89577   3.062   6.660   8.417 -1.7162  2.7097  1.5036
  664MOL0     H89578   3.117   6.648   8.250 -0.9768  1.4795 -3.8808
  664MOL0     H89579   2.931   6.555   8.160 -0.0659  4.7056 -0.4767
  664MOL0     H89580   2.820   6.618   8.296 -1.9934 -2.2985 -0.1958
  664MOL0     H89581   3.026   6.413   8.368 -0.2863  2.5467  3.0471
  664MOL0     H89582   2.852   6.433   8.417  0.7613 -1.0074 -0.2984
  664MOL0     H89583   2.968   6.339   8.161 -1.3894  0.5754 -0.2658
  664MOL0     H89584   2.949   6.240   8.303  1.9539 -0.9559 -2.0807
  664MOL0     H89585   2.737   6.379   8.136  0.4413  0.1472 -0.6897
  664MOL0     H89586   2.755   6.211   8.120 -1.6151  2.6780 -3.3412
  664MOL0     H89587   2.559   6.254   8.271 -0.3197 -1.6138  1.7810
  664MOL0     H89588   2.658   6.357   8.371 -0.6566  0.6138 -1.3603
  664MOL0     H89589   2.770   6.163   8.459  1.5028  0.8588 -2.1514
  664MOL0     H89590   2.604   6.137   8.466  2.1443 -3.1735  2.1635
  664MOL0     H89591   2.483   5.972   8.272 -1.7554 -0.2218 -1.9024
  664MOL0     H89592   2.611   5.633   8.192  0.4198  1.4076  0.8082
  664MOL0     H89593   2.461   5.718   8.176  0.6545 -3.0560  0.8480
  664MOL0     H89594   2.660   5.683   7.947 -1.2703 -1.2047 -3.6481
  664MOL0     H89595   2.497   5.617   7.965 -0.3235  0.2074 -2.4130
  664MOL0     H89596   2.560   5.899   7.909 -2.7154  2.3615  0.1445
  664MOL0     H89597   2.400   5.826   7.959  0.0648 -2.3553  1.9398
  664MOL0     H89598   2.364   5.735   7.752  0.0560 -0.5687 -2.5839
  664MOL0     H89599   2.524   5.723   7.694  0.0417 -0.2452  0.0436
  664MOL0     H89600   2.324   6.141   7.663  1.9783 -1.7968  2.0143
  664MOL0     H89601   2.134   6.187   7.534 -0.4791  1.1371 -0.2597
  664MOL0     H89602   1.935   6.153   7.094 -0.7516  0.8962 -0.1584
  664MOL0     H89603   1.761   6.157   6.916  1.8628  0.8520 -0.7447
  664MOL0     H89604   1.574   5.781   6.814  1.2157 -0.0600  3.3906
  664MOL0     H89605   1.411   5.864   6.861  0.4329 -0.6648  1.0026
  664MOL0     H89606   1.593   5.915   6.619 -2.2733  0.7557 -3.3291
  664MOL0     H89607   1.437   5.828   6.616  0.4762  2.1446 -2.6458
  664MOL0     H89608   1.323   6.044   6.708 -0.3014  1.5190  0.3310
  664MOL0     H89609   1.478   6.119   6.679 -0.3448  1.7531 -2.2526
  664MOL0     H89610   1.418   5.987   6.423  1.6734 -0.0841  0.0768
  664MOL0     H89611   1.405   6.158   6.462 -2.7600  1.1638  0.8999
  664MOL0     H89612   1.167   6.125   6.543  0.8021  0.7817  0.8463
  664MOL0     H89613   1.194   5.945   6.536  1.2410  0.5789  3.6670
  664MOL0     H89614   1.182   6.140   6.297 -0.8584 -0.0681 -1.2675
  664MOL0     H89615   1.209   5.973   6.280  2.7814  4.1568 -1.9879
  664MOL0     H89616   0.964   6.114   6.291  0.0289 -0.8943 -1.5658
  664MOL0     H89617   0.973   6.030   6.447  0.3086 -0.0150  0.0653
  664MOL0     H89618   0.991   5.892   6.177 -2.5278 -2.5618 -1.4904
  664MOL0     H89619   0.953   5.818   6.334  0.0151  1.4325  1.8108
  664MOL0     H89620   1.666   5.754   6.990  1.2004  0.1060 -3.2399
  664MOL0     H89621   1.830   5.749   7.172 -1.3472  0.4040  0.8268
  664MOL0     H89622   2.135   5.769   7.392 -2.0525  0.8413 -1.1820
  664MOL0     H89623   2.335   5.736   7.518 -2.0802 -0.9621 -1.5081
  664MOL0     H89624   3.022   7.054   8.507  0.6019 -1.5863 -0.9971
  664MOL0     H89625   2.981   7.089   8.770 -2.3695 -0.7811  2.1310
  664MOL0     H89626   3.149   6.724   9.156  1.1258  1.4121 -0.5941
  664MOL0     H89627   3.158   6.735   9.405 -0.1908 -0.4051 -0.7251
  664MOL0     H89628   3.066   7.065   9.664  1.8267  2.7489 -1.5702
  664MOL0     H89629   3.137   7.042   9.503 -3.4839  1.0987 -1.4073
  664MOL0     H89630   3.287   6.990   9.647 -0.2110  1.1630  0.4730
  664MOL0     H89631   3.249   6.831   9.605 -0.9129 -1.0073 -0.9934
  664MOL0     H89632   3.068   6.865   9.811  0.0973 -1.0461 -1.7863
  664MOL0     H89633   3.170   6.995   9.848  0.6682 -0.4643  2.6389
  664MOL0     H89634   3.249   6.813   9.986  1.9193  1.9579  0.3445
  664MOL0     H89635   3.267   6.708   9.838 -0.2476  0.3321 -2.2569
  664MOL0     H89636   3.637   6.916   9.850 -0.1465  0.8689 -1.3563
  664MOL0     H89637   2.807   6.971   9.415  0.1916 -0.3310 -0.5025
  664MOL0     H89638   2.816   7.075   9.099 -1.5128  1.6005  1.8577
  664MOL0     H89639   2.696   6.933   9.084 -3.0371  4.2139 -0.6173
  664MOL0     H89640   2.703   7.041   9.223  0.4563  3.0693 -0.8338
  665MOL0     O89641   3.577   2.620   8.897 -0.3422 -0.4709  0.0538
  665MOL0     C89642   3.623   2.563   8.802 -0.7230 -0.3705  0.6979
  665MOL0     O89643   3.622   2.426   8.777 -0.8316 -0.2546  0.1799
  665MOL0     C89644   3.559   2.345   8.865  0.5366  0.4302 -0.4844
  665MOL0     C89645   3.436   2.286   8.818 -0.9038 -0.3519  0.3756
  665MOL0     C89646   3.357   2.192   8.888  0.2118  0.9752  0.3712
  665MOL0     C89647   3.394   2.171   9.022  0.3338  0.4410  0.5785
  665MOL0     O89648   3.307   2.086   9.090  0.2395 -0.8907  0.0890
  665MOL0     C89649   3.309   2.091   9.232 -0.2761 -0.4972 -0.1832
  665MOL0     C89650   3.186   2.012   9.276  0.8293 -0.1242  0.1410
  665MOL0     C89651   3.167   1.856   9.252 -0.1854  0.0385 -0.3270
  665MOL0     C89652   3.044   1.808   9.343 -0.2034 -0.7988 -0.8051
  665MOL0     C89653   3.018   1.669   9.313  0.2495 -0.4117  0.5958
  665MOL0     C89654   2.915   1.634   9.197  0.4978  0.7579 -0.1108
  665MOL0     C89655   2.899   1.482   9.184  0.2445  0.3145 -0.8438
  665MOL0     C89656   2.786   1.441   9.079  0.5299  0.0578  0.1635
  665MOL0     N89657   2.656   1.492   9.124 -0.2198 -1.0717  0.0257
  665MOL0     C89658   2.601   1.620   9.099 -0.6761  0.8397  0.4489
  665MOL0     C89659   2.480   1.619   9.161  0.1482 -0.4848 -0.5136
  665MOL0     C89660   2.386   1.743   9.149  0.5620  0.0092  0.2666
  665MOL0     C89661   2.434   1.856   9.244 -0.1256  0.2536  0.6813
  665MOL0     C89662   2.409   1.992   9.199 -0.1561 -0.2469  0.5411
  665MOL0     C89663   2.395   2.087   9.320  0.7569  0.6586 -0.0206
  665MOL0     O89664   2.270   2.042   9.373 -0.1001 -0.6726  0.0314
  665MOL0     C89665   2.227   2.108   9.488 -0.3993  0.2054  0.0061
  665MOL0     C89666   2.300   2.188   9.582 -0.5010 -0.0303  0.1403
  665MOL0     C89667   2.237   2.257   9.674 -0.0461 -0.8035 -0.1196
  665MOL0     C89668   2.101   2.247   9.693 -0.3124 -0.1406  0.8194
  665MOL0     C89669   2.029   2.322   9.798 -0.1060 -0.5956 -1.1694
  665MOL0     O89670   1.898   2.282   9.825 -0.5285  0.3876  0.2967
  665MOL0     C89671   1.814   2.348   9.913 -0.4900  0.3723 -0.1129
  665MOL0     C89672   1.681   2.368   9.870 -0.1167 -0.0352  0.5308
  665MOL0     C89673   1.592   2.452   9.947 -0.5443 -0.5291 -1.2388
  665MOL0     C89674   1.633   2.494  10.083  0.5702  0.3859  0.2769
  665MOL0     O89675   1.551   2.555  10.179 -0.7060  1.1365  1.2304
  665MOL0     C89676   1.422   2.599  10.139 -0.3304  0.3603 -0.0109
  665MOL0     C89677   1.355   2.627  10.271  1.1671 -0.3844 -0.0462
  665MOL0     C89678   1.220   2.705  10.248 -0.7468 -0.8901 -0.1544
  665MOL0     C89679   1.227   2.856  10.272  0.0222  0.5557 -0.5508
  665MOL0     C89680   1.087   2.925  10.251 -0.2547 -0.7346  1.2549
  665MOL0     C89681   1.039   2.914  10.109 -0.3293  0.4493  0.1783
  665MOL0     C89682   0.911   2.998  10.100  0.1778  0.6825  0.4555
  665MOL0     C89683   0.866   2.984   9.957 -0.1206 -0.2473 -0.3266
  665MOL0    Cl89684   0.786   2.829   9.931  0.0333 -0.3313  0.0691
  665MOL0     C89685   1.768   2.466  10.121 -0.2728  0.3281  0.7974
  665MOL0     C89686   1.860   2.396  10.036 -0.4489  0.0466  0.0699
  665MOL0     O89687   2.088   2.403   9.857  0.1512 -0.3864 -0.2496
  665MOL0     C89688   2.027   2.157   9.618  0.2577  0.2196  0.8971
  665MOL0     C89689   2.086   2.099   9.504 -1.0931  1.1138 -1.3858
  665MOL0     N89690   2.470   1.501   9.234 -0.2372 -0.8270 -0.1059
  665MOL0     N89691   2.580   1.431   9.212  0.5235  0.2170  0.2381
  665MOL0     C89692   3.505   2.236   9.077 -0.0097 -0.5871 -0.1287
  665MOL0     C89693   3.581   2.324   9.006 -0.2362  0.2390  1.0850
  665MOL0     C89694   3.715   2.647   8.706  1.2972  0.0483 -0.8894
  665MOL0     C89695   3.771   2.565   8.606  0.4297  0.7036  0.6238
  665MOL0     C89696   3.860   2.627   8.515  0.1242 -0.6552 -0.3326
  665MOL0     C89697   3.893   2.762   8.522  0.1085  0.1132  0.3166
  665MOL0     O89698   3.974   2.820   8.422 -0.6136 -0.0080  0.7644
  665MOL0     C89699   3.950   2.956   8.374 -0.6040  0.3237 -0.1525
  665MOL0     C89700   3.826   2.969   8.294  0.7323 -0.1965 -0.0658
  665MOL0     C89701   3.808   2.849   8.187 -1.2764 -1.2596 -0.2520
  665MOL0     C89702   3.661   2.842   8.149 -0.1919  0.2286 -0.4578
  665MOL0     C89703   3.595   2.728   8.199 -0.1033  0.8378  0.7875
  665MOL0     C89704   3.526   2.656   8.265 -0.8847  0.3803 -0.6696
  665MOL0     C89705   3.833   2.842   8.619 -0.0594  0.5078 -0.5336
  665MOL0     C89706   3.754   2.788   8.711  1.5690  0.8676 -0.4137
  665MOL0     C89707   3.712   2.881   8.824 -0.7479 -0.0598 -0.1963
  665MOL0     H89708   3.405   2.315   8.718 -0.4525  0.6621  0.5199
  665MOL0     H89709   3.271   2.143   8.843  0.9722  2.0028 -2.3856
  665MOL0     H89710   3.396   2.044   9.279  1.4936  1.3608 -1.3809
  665MOL0     H89711   3.314   2.196   9.261  0.3604 -0.5572 -0.0525
  665MOL0     H89712   3.092   2.058   9.244 -1.2229 -2.5354  2.3350
  665MOL0     H89713   3.187   2.017   9.385 -1.6401 -0.7164  0.2444
  665MOL0     H89714   3.242   1.787   9.292 -2.8679 -2.3619  0.9011
  665MOL0     H89715   3.152   1.825   9.148 -0.0035  2.3660 -1.1149
  665MOL0     H89716   3.070   1.819   9.449 -0.0141  2.6525 -1.0763
  665MOL0     H89717   2.954   1.870   9.344  0.5551  0.4846  2.5759
  665MOL0     H89718   3.118   1.630   9.292  1.9164  1.9487  3.4164
  665MOL0     H89719   2.984   1.629   9.409 -0.3543 -2.1252 -0.2857
  665MOL0     H89720   2.824   1.688   9.227 -0.2917 -1.0557  0.9012
  665MOL0     H89721   2.952   1.678   9.104  1.1082  0.8055  0.1500
  665MOL0     H89722   2.869   1.446   9.283 -2.2292 -1.7746 -2.2317
  665MOL0     H89723   2.995   1.437   9.159  0.6319  2.2488 -3.2354
  665MOL0     H89724   2.828   1.483   8.987  0.0690  0.4771  0.1379
  665MOL0     H89725   2.775   1.332   9.075  0.2992  0.0828  0.1320
  665MOL0     H89726   2.651   1.700   9.045 -0.5222  1.7322  1.8646
  665MOL0     H89727   2.386   1.766   9.042 -1.0857 -3.5996 -0.6664
  665MOL0     H89728   2.285   1.715   9.180 -0.2862  0.3069 -1.9851
  665MOL0     H89729   2.369   1.832   9.329 -1.0477  0.2571 -0.0119
  665MOL0     H89730   2.536   1.838   9.279  0.0426 -0.1900 -0.0200
  665MOL0     H89731   2.306   1.984   9.160 -0.3447 -1.3887  1.2326
  665MOL0     H89732   2.486   2.039   9.137  1.0645 -1.8935  0.7767
  665MOL0     H89733   2.387   2.192   9.291 -0.5274  0.3392 -0.9188
  665MOL0     H89734   2.472   2.081   9.397 -0.1028  0.8024  0.8810
  665MOL0     H89735   2.406   2.207   9.566 -1.3073  3.1154 -2.6930
  665MOL0     H89736   2.297   2.329   9.728 -0.9417  2.1572 -2.7475
  665MOL0     H89737   1.654   2.316   9.779 -2.0074 -0.9958  1.5789
  665MOL0     H89738   1.496   2.470   9.898  1.0508  1.1902 -3.9450
  665MOL0     H89739   1.424   2.691  10.079 -2.7997 -1.2739 -2.8701
  665MOL0     H89740   1.379   2.519  10.079  0.5273 -0.1183  0.0039
  665MOL0     H89741   1.339   2.524  10.305  3.7132 -0.6688  0.5277
  665MOL0     H89742   1.417   2.674  10.348 -0.6564  0.2198  1.1002
  665MOL0     H89743   1.178   2.675  10.152 -1.8935  0.1611 -0.0016
  665MOL0     H89744   1.161   2.660  10.328  0.9888 -1.9181  0.6054
  665MOL0     H89745   1.306   2.899  10.210  3.1353  1.1729  3.4397
  665MOL0     H89746   1.256   2.874  10.376 -0.8867 -1.8090  0.1730
  665MOL0     H89747   1.109   3.031  10.265 -1.1812  0.0640 -2.3307
  665MOL0     H89748   1.006   2.905  10.322  0.1456  1.8271  2.5760
  665MOL0     H89749   1.117   2.949  10.040 -1.4748  0.8167 -0.9645
  665MOL0     H89750   1.003   2.812  10.095  0.6237  0.4278 -3.0604
  665MOL0     H89751   0.924   3.102  10.130  2.9171  0.3178  0.7262
  665MOL0     H89752   0.843   2.963  10.178  3.3197 -2.5714  2.0116
  665MOL0     H89753   0.791   3.056   9.923 -1.3064 -2.2526 -2.2697
  665MOL0     H89754   0.951   3.014   9.895 -0.2637  4.3727  1.3206
  665MOL0     H89755   1.811   2.500  10.214  1.4692 -1.8444  0.8862
  665MOL0     H89756   1.967   2.396  10.057  1.2943  1.8318 -6.6086
  665MOL0     H89757   1.924   2.132   9.642 -0.3885  3.3484  1.8751
  665MOL0     H89758   2.029   2.022   9.454  0.4698 -1.0522 -0.0355
  665MOL0     H89759   3.524   2.210   9.181 -1.4679 -0.7038  0.1430
  665MOL0     H89760   3.666   2.376   9.050 -2.5626  2.9118  2.8072
  665MOL0     H89761   3.742   2.462   8.590 -1.3349  1.1422  0.8456
  665MOL0     H89762   3.911   2.572   8.436  0.7145  1.6263 -1.6436
  665MOL0     H89763   4.025   2.990   8.302 -1.8449  3.1090 -0.2703
  665MOL0     H89764   3.954   3.028   8.456  1.2448  3.2416 -2.5868
  665MOL0     H89765   3.812   3.069   8.254  0.2858 -0.6401 -1.0571
  665MOL0     H89766   3.734   2.956   8.352 -0.3142  2.1314 -1.1029
  665MOL0     H89767   3.836   2.755   8.235  0.4250 -0.1171  1.1053
  665MOL0     H89768   3.879   2.870   8.107 -3.0815  1.2578 -1.3239
  665MOL0     H89769   3.613   2.936   8.176 -2.5777 -1.3626  1.2807
  665MOL0     H89770   3.663   2.842   8.040 -2.1910  2.0857 -0.5509
  665MOL0     H89771   3.450   2.594   8.309  0.2528 -1.1709 -0.7986
  665MOL0     H89772   3.868   2.943   8.638 -0.1356  0.4912 -0.3051
  665MOL0     H89773   3.610   2.914   8.800 -0.7857  0.8328  1.0563
  665MOL0     H89774   3.707   2.815   8.911 -2.1021  1.5931  1.0473
  665MOL0     H89775   3.777   2.964   8.852 -0.4177 -1.0861  2.3935
  666MOL0     O89776   6.092   5.079   7.972 -0.0238  0.2854 -0.5926
  666MOL0     C89777   6.214   5.073   7.947  0.7958  0.3682  1.6257
  666MOL0     O89778   6.269   4.966   7.879  0.4844 -0.2656  0.7856
  666MOL0     C89779   6.247   4.828   7.890  0.5191 -0.6785  0.0895
  666MOL0     C89780   6.322   4.737   7.815 -0.2774 -1.6738  1.4098
  666MOL0     C89781   6.323   4.599   7.853 -1.2663 -0.3494  0.3098
  666MOL0     C89782   6.230   4.551   7.948 -0.8628  1.3321 -0.7175
  666MOL0     O89783   6.225   4.414   7.987 -0.0747 -1.0075  0.1719
  666MOL0     C89784   6.252   4.321   7.886  0.3344  0.2123  0.5492
  666MOL0     C89785   6.218   4.178   7.934  0.4652  0.0757  0.7117
  666MOL0     C89786   6.306   4.137   8.059  0.5429 -0.0500 -0.0360
  666MOL0     C89787   6.455   4.152   8.041  0.0795  0.2655  1.1272
  666MOL0     C89788   6.534   4.081   8.149 -0.9344  0.1220  1.0220
  666MOL0     C89789   6.517   4.131   8.296  0.5081  0.7041  0.1491
  666MOL0     C89790   6.589   4.046   8.401  0.2444 -0.3289 -0.1263
  666MOL0     C89791   6.546   3.898   8.425  0.4419  0.4634  0.8195
  666MOL0     N89792   6.400   3.886   8.440  0.4158 -0.2458  0.7845
  666MOL0     C89793   6.321   3.972   8.512  0.0181 -0.0524 -0.0767
  666MOL0     C89794   6.192   3.919   8.501  0.1871 -0.5612  0.1580
  666MOL0     C89795   6.061   3.985   8.557 -0.2563  0.1377  0.9963
  666MOL0     C89796   5.947   3.951   8.468 -0.2941 -0.4251 -0.1981
  666MOL0     C89797   5.817   4.018   8.508 -0.6806 -0.2387 -0.2743
  666MOL0     C89798   5.768   4.152   8.449  0.3016  0.0684  0.3612
  666MOL0     O89799   5.847   4.186   8.338 -0.4579 -0.0651  0.9228
  666MOL0     C89800   5.799   4.148   8.215 -0.6841 -0.0901  0.0890
  666MOL0     C89801   5.692   4.061   8.186  0.5141  0.9506  0.0707
  666MOL0     C89802   5.646   4.039   8.057  0.9684 -0.5598 -0.4615
  666MOL0     C89803   5.706   4.114   7.945  0.0624  0.4891 -0.5069
  666MOL0     C89804   5.644   4.119   7.820  0.0813 -0.8790  1.1698
  666MOL0     O89805   5.588   4.006   7.768  0.7341 -0.0046 -0.5398
  666MOL0     C89806   5.507   4.017   7.656  1.2291  0.1997  0.9893
  666MOL0     C89807   5.550   4.037   7.524  0.1655 -0.3671 -0.0771
  666MOL0     C89808   5.464   4.046   7.420  0.6531 -0.4535 -0.4526
  666MOL0     C89809   5.327   4.051   7.435 -0.2589 -0.5185 -0.1017
  666MOL0     O89810   5.245   4.062   7.335  0.2232  0.0823  0.2846
  666MOL0     C89811   5.283   4.008   7.204  0.3884  0.6856  0.6897
  666MOL0     C89812   5.157   3.981   7.126  0.1905 -0.8199  0.3889
  666MOL0     C89813   5.088   4.109   7.077 -0.1375 -0.4101  0.0991
  666MOL0     C89814   4.979   4.068   6.980  0.4541 -1.0738  0.7727
  666MOL0     C89815   4.937   4.188   6.897 -0.2138 -0.4267  0.6557
  666MOL0     C89816   4.806   4.152   6.825  0.4356  0.0771  0.0910
  666MOL0     C89817   4.819   4.050   6.708 -0.5042 -0.0778  0.1087
  666MOL0     C89818   4.685   3.996   6.670 -0.2700  0.2494  0.1911
  666MOL0    Cl89819   4.682   3.939   6.505 -0.4814  0.1475 -0.5673
  666MOL0     C89820   5.279   4.029   7.567  1.0947 -0.2146  0.9007
  666MOL0     C89821   5.366   4.009   7.677 -0.5787 -0.5660  0.3361
  666MOL0     O89822   5.642   4.230   7.763 -0.2660  0.2318 -0.3438
  666MOL0     C89823   5.807   4.200   7.975 -0.5327 -0.3003 -0.0465
  666MOL0     C89824   5.863   4.211   8.106 -0.1844 -0.4454  0.5954
  666MOL0     N89825   6.202   3.810   8.417  0.4375 -0.3635 -0.1165
  666MOL0     N89826   6.322   3.773   8.398 -1.0807  0.0744 -0.5793
  666MOL0     C89827   6.156   4.644   8.021 -1.2242  0.4997 -1.3465
  666MOL0     C89828   6.162   4.778   7.999 -0.6037  0.3634 -0.7634
  666MOL0     C89829   6.291   5.196   7.991 -0.3560  0.5737  0.7896
  666MOL0     C89830   6.431   5.185   7.975  0.3506 -0.2731  0.7386
  666MOL0     C89831   6.514   5.299   7.998 -0.1882 -0.0238  0.1693
  666MOL0     C89832   6.461   5.419   8.038 -0.2376 -1.5294 -0.5972
  666MOL0     O89833   6.547   5.524   8.050 -1.1301  0.1275 -0.0691
  666MOL0     C89834   6.509   5.647   8.099  0.7289  0.1636 -0.2546
  666MOL0     C89835   6.618   5.747   8.103  0.0611  0.1307  0.1545
  666MOL0     C89836   6.667   5.791   7.960  0.7992  0.6522  0.1768
  666MOL0     C89837   6.781   5.698   7.906 -0.4613 -0.5763 -0.4527
  666MOL0     C89838   6.826   5.746   7.773  1.1555 -0.0614  1.2785
  666MOL0     C89839   6.856   5.775   7.654  0.5694  0.0370 -0.5159
  666MOL0     C89840   6.331   5.428   8.077  0.5793  0.5861  0.0521
  666MOL0     C89841   6.244   5.318   8.057 -0.1541 -0.3714 -0.0985
  666MOL0     C89842   6.094   5.338   8.106 -0.2913  0.0275 -0.3937
  666MOL0     H89843   6.403   4.774   7.752 -2.2904  1.2599  0.3063
  666MOL0     H89844   6.391   4.532   7.802 -1.7011 -0.4541 -0.1398
  666MOL0     H89845   6.190   4.345   7.799  0.4972  0.2537  0.4437
  666MOL0     H89846   6.359   4.324   7.862  0.9664 -0.9177  2.9213
  666MOL0     H89847   6.225   4.105   7.852 -1.8019 -1.8772  2.1024
  666MOL0     H89848   6.112   4.181   7.960  0.1192 -2.7708 -0.0195
  666MOL0     H89849   6.268   4.041   8.094 -0.0342 -0.5100 -1.8268
  666MOL0     H89850   6.288   4.202   8.145 -0.2413 -0.1147 -0.1444
  666MOL0     H89851   6.466   4.108   7.942 -2.1077  0.5907  0.6941
  666MOL0     H89852   6.491   4.255   8.031  0.7386 -0.0649 -0.1585
  666MOL0     H89853   6.525   3.973   8.136 -1.0559  0.3224 -0.7865
  666MOL0     H89854   6.635   4.115   8.125 -0.0577 -2.1852  1.1948
  666MOL0     H89855   6.572   4.225   8.309  3.3373 -0.7860 -0.2944
  666MOL0     H89856   6.411   4.138   8.320  1.0354  0.8672  2.7937
  666MOL0     H89857   6.581   4.099   8.496  0.4331 -1.1883  0.3850
  666MOL0     H89858   6.695   4.043   8.373  0.3353 -0.4356  0.2212
  666MOL0     H89859   6.577   3.832   8.344  1.3272  1.8439 -0.0063
  666MOL0     H89860   6.580   3.860   8.522 -4.7516 -2.7096  1.7949
  666MOL0     H89861   6.347   4.062   8.567 -0.8319  0.1415  0.0130
  666MOL0     H89862   6.030   3.969   8.661 -2.6176  2.1547  0.6793
  666MOL0     H89863   6.077   4.092   8.547 -0.9944  0.4448  2.8194
  666MOL0     H89864   5.977   3.961   8.363  2.4935  1.0638  0.6527
  666MOL0     H89865   5.935   3.842   8.466  1.4047 -0.8060  3.4748
  666MOL0     H89866   5.814   4.024   8.618  1.9599  1.8936 -0.2058
  666MOL0     H89867   5.737   3.944   8.495  0.0255 -1.1047  0.2394
  666MOL0     H89868   5.773   4.230   8.526 -2.2252 -0.2680  0.9662
  666MOL0     H89869   5.661   4.135   8.432  0.5201 -4.0615  2.0614
  666MOL0     H89870   5.639   3.997   8.256  1.4329  0.0753 -0.0191
  666MOL0     H89871   5.567   3.966   8.047  1.3346 -0.7851 -2.0726
  666MOL0     H89872   5.657   4.036   7.505  0.3988  3.8242  0.1642
  666MOL0     H89873   5.513   4.067   7.325  1.3869  2.3414  0.4292
  666MOL0     H89874   5.359   4.066   7.151  0.5612  0.9097  1.1755
  666MOL0     H89875   5.336   3.913   7.217  1.0422  0.9099 -0.2560
  666MOL0     H89876   5.186   3.921   7.039 -1.4227 -1.2772  0.1192
  666MOL0     H89877   5.095   3.909   7.179  1.9726 -3.1299 -0.4948
  666MOL0     H89878   5.038   4.167   7.155 -2.9359  0.1567 -1.9797
  666MOL0     H89879   5.164   4.173   7.031 -0.5767 -0.0454 -0.1315
  666MOL0     H89880   4.893   4.041   7.041  0.3474 -4.0905 -0.5507
  666MOL0     H89881   5.010   3.987   6.914  1.2547  0.9615 -1.5330
  666MOL0     H89882   5.019   4.228   6.837 -0.9693  1.6381  0.9554
  666MOL0     H89883   4.923   4.273   6.964 -0.7815  1.0266 -1.2654
  666MOL0     H89884   4.726   4.115   6.891 -1.5859  0.5121 -1.9855
  666MOL0     H89885   4.764   4.239   6.774  0.0356 -0.8989 -1.2985
  666MOL0     H89886   4.895   3.972   6.718  0.0519  0.2224 -1.4972
  666MOL0     H89887   4.859   4.107   6.624 -1.8710 -2.0377 -1.9975
  666MOL0     H89888   4.652   3.913   6.735 -2.1364  0.9383  0.1807
  666MOL0     H89889   4.608   4.071   6.692  0.1218  1.0047 -0.9616
  666MOL0     H89890   5.171   4.025   7.574  0.5628  0.1066 -3.8206
  666MOL0     H89891   5.319   3.989   7.773 -3.8409  1.9554 -0.5755
  666MOL0     H89892   5.843   4.280   7.911 -0.0454  0.5894  1.2915
  666MOL0     H89893   5.941   4.283   8.129 -0.9235  1.0051 -1.2030
  666MOL0     H89894   6.102   4.600   8.105  1.4665  0.2093  0.3475
  666MOL0     H89895   6.109   4.842   8.069  2.3951  2.4741 -0.1906
  666MOL0     H89896   6.481   5.110   7.914 -0.1008  0.5200 -0.6696
  666MOL0     H89897   6.618   5.282   7.973 -0.8290 -3.8111 -0.5496
  666MOL0     H89898   6.465   5.646   8.199  0.1976  0.3085 -0.4845
  666MOL0     H89899   6.429   5.687   8.037  1.4724  1.0880 -0.6495
  666MOL0     H89900   6.695   5.696   8.162 -1.9335 -0.8375  2.0403
  666MOL0     H89901   6.596   5.834   8.165  2.1758 -0.8196  2.3824
  666MOL0     H89902   6.704   5.893   7.947 -0.0454  1.4610  3.1389
  666MOL0     H89903   6.582   5.788   7.891  0.0844  2.4784  0.9070
  666MOL0     H89904   6.870   5.706   7.969 -1.8216  3.6832  1.2668
  666MOL0     H89905   6.753   5.592   7.902  0.6267 -1.1154  2.7381
  666MOL0     H89906   6.871   5.798   7.550  0.3836 -0.7903 -0.7278
  666MOL0     H89907   6.296   5.523   8.118  0.4558  1.3025 -1.6478
  666MOL0     H89908   6.035   5.369   8.020  0.3540 -1.8761 -1.5925
  666MOL0     H89909   6.068   5.247   8.162  0.6925 -0.0834 -0.0969
  666MOL0     H89910   6.096   5.408   8.190  0.8631  0.4650 -0.7638
  667MOL0     O89911   3.429   8.982  10.281  0.2759  0.4498  0.3992
  667MOL0     C89912   3.546   8.988  10.303  1.2607 -0.8728  0.7555
  667MOL0     O89913   3.602   8.975  10.430 -0.5050  0.0358  0.6063
  667MOL0     C89914   3.546   8.948  10.549 -0.7399 -0.7562  0.8819
  667MOL0     C89915   3.409   8.982  10.573  0.0467  0.1984  0.6386
  667MOL0     C89916   3.354   8.937  10.705 -0.2005 -0.5222  0.7730
  667MOL0     C89917   3.432   8.885  10.799  0.4372  0.3351  0.1046
  667MOL0     O89918   3.373   8.835  10.911 -0.7403  0.1302  0.4208
  667MOL0     C89919   3.437   8.754  11.002 -0.0317 -1.0516 -0.9862
  667MOL0     C89920   3.327   8.665  11.070 -0.4525 -0.1130 -0.7140
  667MOL0     C89921   3.395   8.580  11.179 -0.7341  0.9156  0.5929
  667MOL0     C89922   3.465   8.652  11.294  0.2884 -0.3741  0.4036
  667MOL0     C89923   3.609   8.601  11.309  0.8981 -0.9495 -0.0012
  667MOL0     C89924   3.708   8.642  11.201  0.4249 -0.1443 -0.9730
  667MOL0     C89925   3.847   8.594  11.234 -0.2262  0.1973  0.2291
  667MOL0     C89926   3.932   8.657  11.121 -0.4268 -0.7839  0.0330
  667MOL0     N89927   4.059   8.580  11.102  0.5018  0.6249 -0.8214
  667MOL0     C89928   4.148   8.541  11.208  0.8092 -0.0669  0.7055
  667MOL0     C89929   4.244   8.471  11.136  0.4040 -0.6753 -0.4152
  667MOL0     C89930   4.353   8.408  11.223  0.7650  0.5216  0.3698
  667MOL0     C89931   4.470   8.501  11.241 -0.0750  1.0540 -0.0601
  667MOL0     C89932   4.551   8.494  11.369  0.2017  0.9340  0.3181
  667MOL0     C89933   4.605   8.349  11.391  0.3051  0.3207 -0.1679
  667MOL0     O89934   4.740   8.342  11.436  0.5690 -0.8362  0.5594
  667MOL0     C89935   4.794   8.427  11.536  0.2594  1.3139  1.4832
  667MOL0     C89936   4.714   8.469  11.644 -0.1170  1.2806  0.0339
  667MOL0     C89937   4.760   8.540  11.753  0.0324  0.0545  0.0357
  667MOL0     C89938   4.901   8.562  11.757 -0.3510 -0.3004 -0.4313
  667MOL0     C89939   4.943   8.638  11.871 -0.8312 -0.7454  0.4403
  667MOL0     O89940   5.074   8.692  11.853 -0.1109 -0.1746 -0.5633
  667MOL0     C89941   5.131   8.741  11.968  0.6040  0.2011 -0.1863
  667MOL0     C89942   5.143   8.663  12.082 -0.9850 -0.7291  0.5572
  667MOL0     C89943   5.195   8.706  12.207 -0.4303  0.0210  0.6597
  667MOL0     C89944   5.265   8.833  12.196  0.4156  0.6214 -0.7455
  667MOL0     O89945   5.346   8.883  12.296 -0.2313  0.2751  0.1016
  667MOL0     C89946   5.390   8.815  12.408  0.1075  0.7085 -0.0354
  667MOL0     C89947   5.546   8.794  12.409  0.2563  0.1477  0.8377
  667MOL0     C89948   5.627   8.922  12.414 -0.3285 -0.0059  0.8840
  667MOL0     C89949   5.615   9.007  12.541 -1.0860 -0.1894 -0.0505
  667MOL0     C89950   5.735   9.004  12.641 -0.5168  0.9355 -0.5933
  667MOL0     C89951   5.711   8.898  12.753  0.4574  0.3250  0.5641
  667MOL0     C89952   5.828   8.885  12.855  0.3380 -0.8794  0.5095
  667MOL0     C89953   5.789   8.775  12.955  0.0466  0.4444 -0.1778
  667MOL0    Cl89954   5.705   8.853  13.088 -0.2215  0.3467 -0.1838
  667MOL0     C89955   5.266   8.908  12.077 -1.0200 -0.6899 -0.0853
  667MOL0     C89956   5.192   8.861  11.968 -0.5404 -1.1148  0.0476
  667MOL0     O89957   4.868   8.648  11.970  0.3131 -0.4103 -0.3966
  667MOL0     C89958   4.986   8.512  11.654  0.3308  0.1298 -0.7632
  667MOL0     C89959   4.930   8.444  11.543  1.0129 -1.3629  0.1947
  667MOL0     N89960   4.215   8.460  10.999 -0.1690  0.0061 -0.0936
  667MOL0     N89961   4.104   8.518  10.987 -0.3790  0.3157 -0.0217
  667MOL0     C89962   3.570   8.881  10.779  0.6528  0.1576 -1.4350
  667MOL0     C89963   3.629   8.919  10.654  1.1550 -0.2949 -0.4033
  667MOL0     C89964   3.634   9.045  10.194 -0.4187  0.2534  0.7309
  667MOL0     C89965   3.742   9.122  10.238 -0.1975 -0.3766  0.4696
  667MOL0     C89966   3.814   9.212  10.154 -0.6090 -0.2935  0.2239
  667MOL0     C89967   3.773   9.217  10.020 -0.3863  0.0119 -0.3775
  667MOL0     O89968   3.819   9.323   9.938 -0.9946  0.4316 -0.0246
  667MOL0     C89969   3.775   9.328   9.797  0.3870 -0.0629 -0.2349
  667MOL0     C89970   3.845   9.436   9.719  0.8975 -0.3878  0.5852
  667MOL0     C89971   3.998   9.416   9.705 -0.2928  0.3242  0.0725
  667MOL0     C89972   4.051   9.542   9.634  0.6386  0.3455 -0.4834
  667MOL0     C89973   4.172   9.510   9.558  0.0587  0.2353 -0.4817
  667MOL0     C89974   4.281   9.484   9.513  0.5418  0.1576  1.2056
  667MOL0     C89975   3.672   9.129   9.967 -0.1819  0.1596 -0.4768
  667MOL0     C89976   3.623   9.037  10.050 -0.7235  0.0401  0.1775
  667MOL0     C89977   3.536   8.926   9.996 -1.0149  0.6683  0.1849
  667MOL0     H89978   3.335   9.020  10.503 -1.5974 -0.7147  1.7854
  667MOL0     H89979   3.247   8.942  10.727 -0.0505 -0.4296  1.5193
  667MOL0     H89980   3.521   8.689  10.978  0.8747 -0.2776 -0.0037
  667MOL0     H89981   3.471   8.823  11.080  0.8311 -3.8292  1.2337
  667MOL0     H89982   3.262   8.611  11.000 -0.8237  3.5624 -3.4999
  667MOL0     H89983   3.270   8.738  11.127  0.5089 -1.8671  2.7811
  667MOL0     H89984   3.463   8.524  11.114 -1.4932  1.8469 -1.0591
  667MOL0     H89985   3.313   8.514  11.211 -0.3862 -1.8957 -3.5057
  667MOL0     H89986   3.449   8.760  11.299 -1.5467 -0.5388 -0.7959
  667MOL0     H89987   3.430   8.609  11.388 -3.1306 -0.2648 -0.6583
  667MOL0     H89988   3.638   8.646  11.404  3.5501  3.4974 -2.5475
  667MOL0     H89989   3.606   8.492  11.315  2.7188 -1.0151  0.4730
  667MOL0     H89990   3.668   8.590  11.113  1.5940  0.2788 -1.7710
  667MOL0     H89991   3.704   8.750  11.189  3.5937  0.3284  1.1305
  667MOL0     H89992   3.852   8.486  11.249  1.6334  0.3798  1.1333
  667MOL0     H89993   3.864   8.639  11.332  1.4761 -0.8497  0.4498
  667MOL0     H89994   3.879   8.676  11.027  0.9803  1.1264 -0.4337
  667MOL0     H89995   3.967   8.753  11.161 -4.0773  1.5157 -1.7585
  667MOL0     H89996   4.126   8.573  11.309 -0.9572  5.1753 -1.0065
  667MOL0     H89997   4.308   8.360  11.310 -0.4590  1.2233  0.1539
  667MOL0     H89998   4.388   8.328  11.156 -1.8854 -0.4157 -0.0189
  667MOL0     H89999   4.547   8.480  11.166 -0.1105 -3.4211  0.8608
  667MOL0     H90000   4.447   8.607  11.229  0.9060  0.9965 -3.7055
  667MOL0     H90001   4.503   8.535  11.458  1.3834  1.1373  0.8880
  667MOL0     H90002   4.635   8.564  11.358 -0.7684  1.9404 -0.8495
  667MOL0     H90003   4.601   8.290  11.300  1.4156  3.3138 -2.3066
  667MOL0     H90004   4.547   8.297  11.468  0.8848 -1.8908 -1.1674
  667MOL0     H90005   4.608   8.450  11.657  0.2124 -0.1343  0.8391
  667MOL0     H90006   4.694   8.559  11.837  0.5247 -0.0327  0.4482
  667MOL0     H90007   5.098   8.564  12.081 -3.8249  0.4392 -1.5391
  667MOL0     H90008   5.188   8.640  12.293  0.2428  0.0761  0.7625
  667MOL0     H90009   5.373   8.877  12.497  3.3683 -0.2683  1.4609
  667MOL0     H90010   5.351   8.715  12.431 -1.2227  1.3892  0.8023
  667MOL0     H90011   5.571   8.727  12.492  1.1611 -0.5229  0.0503
  667MOL0     H90012   5.573   8.738  12.319  0.9256 -1.0025  1.7207
  667MOL0     H90013   5.729   8.918  12.375 -0.3572  3.1651  0.1924
  667MOL0     H90014   5.567   8.984  12.347 -0.8177  1.4477  2.5648
  667MOL0     H90015   5.521   8.987  12.593 -1.2163 -4.6250 -1.5782
  667MOL0     H90016   5.618   9.111  12.506  3.4239 -0.3412 -0.7671
  667MOL0     H90017   5.770   9.097  12.686 -0.9258 -0.1005  2.0053
  667MOL0     H90018   5.826   8.967  12.591 -1.2807 -3.6592  0.9041
  667MOL0     H90019   5.632   8.937  12.817  1.6053 -0.5259  2.5983
  667MOL0     H90020   5.687   8.801  12.707  1.0238 -0.4649  1.8614
  667MOL0     H90021   5.850   8.983  12.897 -0.2441 -0.0016 -1.1496
  667MOL0     H90022   5.915   8.856  12.794 -0.3094  0.3511 -1.0675
  667MOL0     H90023   5.722   8.700  12.912  2.5275 -0.4389 -2.8944
  667MOL0     H90024   5.874   8.724  13.000  0.7235  0.4166 -1.4377
  667MOL0     H90025   5.317   9.003  12.069  4.1649 -3.0167  1.4386
  667MOL0     H90026   5.169   8.923  11.881  1.3388  0.6297  0.7274
  667MOL0     H90027   5.092   8.536  11.645  0.0537  0.9057 -2.2946
  667MOL0     H90028   4.983   8.411  11.455  0.6639  2.9574 -1.9240
  667MOL0     H90029   3.635   8.845  10.858 -1.5811 -3.2845 -0.9958
  667MOL0     H90030   3.736   8.913  10.637  1.2860  0.6722 -0.0013
  667MOL0     H90031   3.774   9.123  10.342  1.3032 -2.6462  0.0944
  667MOL0     H90032   3.886   9.289  10.179  0.1786 -0.0999 -2.3577
  667MOL0     H90033   3.667   9.345   9.791  0.4501  0.7575  0.7206
  667MOL0     H90034   3.792   9.233   9.745  0.9224 -0.8508  1.3168
  667MOL0     H90035   3.815   9.534   9.756 -2.2995 -0.7143 -0.8343
  667MOL0     H90036   3.789   9.443   9.626 -1.4152  1.1121  1.9835
  667MOL0     H90037   4.011   9.330   9.639  1.5933  1.6719 -1.4340
  667MOL0     H90038   4.047   9.405   9.802 -0.2264  1.7207  0.2147
  667MOL0     H90039   3.990   9.589   9.557  0.5843 -2.2278 -2.1571
  667MOL0     H90040   4.081   9.625   9.698  1.0352 -0.7756  0.8253
  667MOL0     H90041   4.379   9.452   9.482  0.0537 -0.7605  0.5633
  667MOL0     H90042   3.643   9.128   9.863 -1.9284  0.6162 -0.0214
  667MOL0     H90043   3.431   8.935  10.025 -1.0705 -1.8697  1.0193
  667MOL0     H90044   3.528   8.927   9.887 -2.9699 -0.6096  0.2645
  667MOL0     H90045   3.586   8.833  10.025  1.2385  0.2297 -4.3281
  668MOL0     O90046   0.847   7.300   5.877 -0.4560 -0.4369 -0.6811
  668MOL0     C90047   0.957   7.254   5.833 -0.0963  0.0244  0.2744
  668MOL0     O90048   0.974   7.208   5.708  0.1367  0.0698 -1.0039
  668MOL0     C90049   0.863   7.195   5.632  0.1375 -0.3154  0.3046
  668MOL0     C90050   0.847   7.282   5.517 -0.3614  0.7361 -0.3279
  668MOL0     C90051   0.747   7.268   5.428 -0.0015 -0.3690  0.8677
  668MOL0     C90052   0.653   7.168   5.441  0.7666 -0.0249  0.4037
  668MOL0     O90053   0.549   7.145   5.362 -0.8348 -0.0672  0.7695
  668MOL0     C90054   0.419   7.143   5.419 -0.4288  1.0157 -0.1493
  668MOL0     C90055   0.343   7.049   5.323 -0.4909 -0.0371  0.2210
  668MOL0     C90056   0.273   7.125   5.212  0.4109 -0.4248 -0.3750
  668MOL0     C90057   0.338   7.225   5.121 -0.5302  0.2971 -1.5513
  668MOL0     C90058   0.257   7.282   5.001  0.0637  1.7031 -0.8725
  668MOL0     C90059   0.252   7.189   4.884  0.5505  0.3104 -0.0299
  668MOL0     C90060   0.163   7.247   4.773  0.2549  0.7809  0.8052
  668MOL0     C90061   0.222   7.371   4.708 -0.5731 -0.2714 -0.6408
  668MOL0     N90062   0.131   7.437   4.621  0.1904 -0.8565 -0.5451
  668MOL0     C90063   0.092   7.405   4.497  0.1679 -0.6723 -0.0237
  668MOL0     C90064  -0.017   7.485   4.468  0.4523  0.0550  0.2776
  668MOL0     C90065  -0.118   7.478   4.351  0.3718  0.3030  0.6534
  668MOL0     C90066  -0.056   7.518   4.222 -0.4001 -0.0057 -0.0618
  668MOL0     C90067  -0.146   7.487   4.097 -0.4992  0.0907  0.0464
  668MOL0     C90068  -0.246   7.600   4.065  0.0046 -0.3344 -0.2650
  668MOL0     O90069  -0.376   7.594   4.120  0.0054 -1.2468 -0.3892
  668MOL0     C90070  -0.456   7.486   4.089  0.0676 -0.0487 -0.0294
  668MOL0     C90071  -0.524   7.420   4.201  0.1584  0.3548  0.5529
  668MOL0     C90072  -0.591   7.292   4.182  0.5682 -0.3552  0.4907
  668MOL0     C90073  -0.612   7.248   4.049  0.1207 -0.6546  1.4426
  668MOL0     C90074  -0.715   7.142   4.033  0.5803 -0.1183 -0.1034
  668MOL0     O90075  -0.797   7.115   4.135  0.8504  0.5318  0.6703
  668MOL0     C90076  -0.849   6.983   4.131  0.3333  0.5962  0.3415
  668MOL0     C90077  -0.790   6.870   4.076 -0.0477 -0.4507 -0.6096
  668MOL0     C90078  -0.839   6.743   4.104  0.2797  0.5027 -0.5963
  668MOL0     C90079  -0.954   6.724   4.173  0.3657  0.3955 -0.5174
  668MOL0     O90080  -0.991   6.602   4.197  0.6090  0.9195  0.3138
  668MOL0     C90081  -1.131   6.567   4.185  0.3522  1.1092 -0.3507
  668MOL0     C90082  -1.145   6.419   4.167  0.9757  0.6722 -0.2648
  668MOL0     C90083  -1.302   6.395   4.162 -0.0093  0.1327 -0.5133
  668MOL0     C90084  -1.373   6.425   4.032  0.0672  0.2891 -0.1913
  668MOL0     C90085  -1.508   6.350   4.042  0.3843 -0.1473 -0.3364
  668MOL0     C90086  -1.618   6.389   3.939 -0.3748 -1.4115 -0.3537
  668MOL0     C90087  -1.659   6.544   3.943  0.0211 -0.1587  0.3860
  668MOL0     C90088  -1.730   6.595   4.068 -0.0266 -0.5163 -0.7704
  668MOL0    Cl90089  -1.893   6.509   4.091 -0.3490 -0.1247 -0.0016
  668MOL0     C90090  -1.011   6.834   4.235  0.1923 -0.0383 -0.0812
  668MOL0     C90091  -0.964   6.959   4.210 -0.8349 -1.0622  0.3438
  668MOL0     O90092  -0.734   7.099   3.913  0.2987 -0.9312 -0.7559
  668MOL0     C90093  -0.541   7.311   3.935 -0.1492 -0.2124 -0.3842
  668MOL0     C90094  -0.464   7.422   3.965 -0.1818 -0.2968 -0.4942
  668MOL0     N90095  -0.043   7.558   4.587  0.5397 -0.3724  0.6472
  668MOL0     N90096   0.055   7.541   4.668  0.6840 -0.1019  0.1248
  668MOL0     C90097   0.674   7.069   5.533 -0.0304 -0.1162  0.4480
  668MOL0     C90098   0.779   7.081   5.630  0.9450 -0.5773  0.7869
  668MOL0     C90099   1.077   7.271   5.918  0.3831  0.1200 -0.5990
  668MOL0     C90100   1.049   7.309   6.055  0.6161  0.3473  0.6701
  668MOL0     C90101   1.154   7.304   6.147  0.2208  0.0756 -0.2160
  668MOL0     C90102   1.285   7.289   6.104  0.2622  0.0319 -0.8361
  668MOL0     O90103   1.388   7.273   6.193  0.0724 -0.9026 -0.0537
  668MOL0     C90104   1.362   7.237   6.333  0.2082 -0.4239 -0.3637
  668MOL0     C90105   1.483   7.187   6.419 -0.1997  0.3306  0.4807
  668MOL0     C90106   1.612   7.278   6.396 -0.3349  0.1216 -0.0867
  668MOL0     C90107   1.719   7.256   6.503 -0.5277  0.4992 -0.3744
  668MOL0     C90108   1.718   7.353   6.619 -0.1398 -1.6707 -0.4607
  668MOL0     C90109   1.695   7.441   6.702 -0.9143 -0.7024 -1.0070
  668MOL0     C90110   1.306   7.264   5.969  0.0368  0.4077  0.5462
  668MOL0     C90111   1.205   7.258   5.874 -0.0806 -0.3320  0.1581
  668MOL0     C90112   1.253   7.215   5.738  0.3980 -0.2021  0.0253
  668MOL0     H90113   0.931   7.350   5.503 -0.6324  1.3222  0.7469
  668MOL0     H90114   0.736   7.332   5.341 -0.5825 -0.1620  1.0875
  668MOL0     H90115   0.417   7.094   5.517  0.8396  1.0661 -0.0794
  668MOL0     H90116   0.370   7.240   5.432  0.3223  1.2681  0.9659
  668MOL0     H90117   0.263   7.002   5.381 -0.6203 -0.1701 -0.0590
  668MOL0     H90118   0.405   6.969   5.281 -0.4452  0.1703 -0.1162
  668MOL0     H90119   0.194   7.186   5.255 -0.6721 -2.4852  0.7180
  668MOL0     H90120   0.217   7.050   5.156 -2.0866  1.7322 -0.9280
  668MOL0     H90121   0.376   7.306   5.184  3.2085 -1.8969 -0.6850
  668MOL0     H90122   0.434   7.176   5.100 -2.0801 -3.6649 -0.1515
  668MOL0     H90123   0.155   7.293   5.037 -1.6807 -2.0444 -3.9981
  668MOL0     H90124   0.294   7.379   4.967  1.6745  0.8374 -1.7164
  668MOL0     H90125   0.351   7.176   4.839  0.2223  1.7736 -1.2586
  668MOL0     H90126   0.217   7.089   4.911 -1.7547  1.4568  1.6270
  668MOL0     H90127   0.062   7.261   4.811  0.5321  3.0258  0.8277
  668MOL0     H90128   0.158   7.179   4.687  0.7798 -2.0151  2.8565
  668MOL0     H90129   0.253   7.445   4.782  1.3979 -0.2309 -1.4386
  668MOL0     H90130   0.309   7.342   4.649  1.8775 -1.8758  3.3732
  668MOL0     H90131   0.148   7.347   4.424  0.6796  1.4839 -1.4164
  668MOL0     H90132  -0.142   7.372   4.343 -0.3552  0.5956 -1.8027
  668MOL0     H90133  -0.211   7.530   4.376 -1.5618 -3.2214  1.4816
  668MOL0     H90134  -0.021   7.621   4.213  1.5616 -0.1627  3.9095
  668MOL0     H90135   0.035   7.458   4.215 -0.5666 -0.4143  1.0665
  668MOL0     H90136  -0.173   7.382   4.110  3.1647 -1.2428 -1.6148
  668MOL0     H90137  -0.087   7.494   4.005  0.4449 -0.7289  0.5773
  668MOL0     H90138  -0.270   7.589   3.958  2.5654  3.6393 -1.4569
  668MOL0     H90139  -0.191   7.693   4.082  0.7879 -1.1725  2.1298
  668MOL0     H90140  -0.518   7.479   4.293 -2.2688  2.9917 -0.8208
  668MOL0     H90141  -0.642   7.249   4.268  0.1299  1.6411  1.2873
  668MOL0     H90142  -0.711   6.871   4.001  2.2777 -2.5353  1.6494
  668MOL0     H90143  -0.797   6.646   4.081 -0.0754 -0.5245  2.6273
  668MOL0     H90144  -1.181   6.600   4.276  0.9805  0.5054  0.2221
  668MOL0     H90145  -1.167   6.629   4.103  0.8530  0.2706 -1.2260
  668MOL0     H90146  -1.095   6.374   4.081  2.1595  1.6544 -0.1085
  668MOL0     H90147  -1.105   6.375   4.259  0.3743  0.8289  0.0785
  668MOL0     H90148  -1.317   6.289   4.187 -1.5456  1.1648  3.5962
  668MOL0     H90149  -1.347   6.452   4.243  2.6166 -0.0268  1.1665
  668MOL0     H90150  -1.314   6.397   3.944  0.9772  1.5365  0.0066
  668MOL0     H90151  -1.388   6.532   4.019  0.3735  0.3553 -0.0109
  668MOL0     H90152  -1.560   6.356   4.138  1.0644 -2.9067  0.2894
  668MOL0     H90153  -1.501   6.242   4.032 -1.5697 -0.3450 -0.0901
  668MOL0     H90154  -1.574   6.382   3.839  2.7966  2.0706  0.5722
  668MOL0     H90155  -1.699   6.317   3.954 -1.8441  0.5015  1.6542
  668MOL0     H90156  -1.721   6.551   3.853 -0.2620 -1.9918  0.4088
  668MOL0     H90157  -1.573   6.608   3.922  1.5707 -0.0771  5.4834
  668MOL0     H90158  -1.671   6.617   4.158  0.6872  1.5314 -1.6678
  668MOL0     H90159  -1.758   6.699   4.046  0.3933  0.1788  1.6688
  668MOL0     H90160  -1.101   6.823   4.295  0.6216  2.8500  1.2997
  668MOL0     H90161  -1.004   7.043   4.266  2.7347  2.1672 -1.4643
  668MOL0     H90162  -0.549   7.263   3.838  0.0983 -0.3951 -0.3139
  668MOL0     H90163  -0.416   7.466   3.878 -1.2393 -1.4757 -1.7115
  668MOL0     H90164   0.613   6.980   5.540 -0.4210  0.2738  2.6011
  668MOL0     H90165   0.798   7.001   5.701  2.4337  0.2261  1.3155
  668MOL0     H90166   0.950   7.310   6.099 -1.1482  1.4907 -2.9303
  668MOL0     H90167   1.147   7.324   6.254  0.9197 -0.9968  0.0420
  668MOL0     H90168   1.298   7.148   6.333  0.8748 -0.9103 -0.7818
  668MOL0     H90169   1.309   7.310   6.395  0.5568 -0.6431  0.1981
  668MOL0     H90170   1.505   7.082   6.399 -1.4979  0.0409  0.5278
  668MOL0     H90171   1.448   7.192   6.523 -2.6720 -1.5297 -0.1725
  668MOL0     H90172   1.578   7.382   6.396 -0.3237  0.1909 -2.5660
  668MOL0     H90173   1.655   7.251   6.298  0.7450  0.8253  0.1686
  668MOL0     H90174   1.713   7.154   6.542  0.4282 -0.2643 -2.1498
  668MOL0     H90175   1.812   7.256   6.446 -1.7018 -1.9410 -2.4879
  668MOL0     H90176   1.690   7.503   6.789  2.2934  1.4351 -2.1708
  668MOL0     H90177   1.408   7.241   5.937 -0.1881 -1.8832  1.2900
  668MOL0     H90178   1.211   7.275   5.657 -0.4577  0.2976  0.8127
  668MOL0     H90179   1.361   7.217   5.721 -0.0608 -2.8904 -5.4868
  668MOL0     H90180   1.216   7.116   5.709  2.1458 -1.6563  2.3392
  669MOL0     O90181  11.122   6.673   5.777 -0.5743 -0.4430 -0.0125
  669MOL0     C90182  11.088   6.744   5.683 -1.3880 -0.2081  1.2210
  669MOL0     O90183  11.177   6.833   5.605 -0.1425  0.8609  0.2042
  669MOL0     C90184  11.302   6.879   5.646  0.1431  0.5250  0.2509
  669MOL0     C90185  11.365   6.958   5.544  0.2138 -0.4716 -0.2184
  669MOL0     C90186  11.509   6.985   5.554  0.3457 -0.1528 -0.6837
  669MOL0     C90187  11.576   6.969   5.675 -0.7261  0.2346 -0.1274
  669MOL0     O90188  11.692   7.042   5.687 -0.1241  0.1297  0.3437
  669MOL0     C90189  11.685   7.134   5.786 -0.4904 -0.5987  0.7342
  669MOL0     C90190  11.807   7.230   5.775  0.7738  1.0269 -0.1661
  669MOL0     C90191  11.788   7.327   5.660  0.7514 -0.7669 -0.8943
  669MOL0     C90192  11.924   7.408   5.639  0.5683  1.0242  0.4751
  669MOL0     C90193  11.899   7.536   5.545 -0.6961  0.7728 -0.2318
  669MOL0     C90194  11.935   7.661   5.624  0.5933  0.2804 -0.3426
  669MOL0     C90195  11.829   7.714   5.720  0.2725 -0.1007 -1.2290
  669MOL0     C90196  11.778   7.864   5.681 -0.3052  0.5624 -0.2046
  669MOL0     N90197  11.702   7.875   5.563  1.1774  0.2011 -0.0408
  669MOL0     C90198  11.750   7.885   5.436  0.2559  0.2451 -0.2939
  669MOL0     C90199  11.639   7.884   5.350  0.3637 -0.3994 -0.8923
  669MOL0     C90200  11.641   7.903   5.199  0.1990  0.3027  0.4127
  669MOL0     C90201  11.601   7.771   5.122  0.6987  0.6397  0.5975
  669MOL0     C90202  11.611   7.785   4.967  0.5713  0.4334  1.1430
  669MOL0     C90203  11.473   7.792   4.904  1.1302  0.2616 -0.7156
  669MOL0     O90204  11.386   7.890   4.977  0.4325 -0.0469  0.0690
  669MOL0     C90205  11.251   7.851   4.969  0.4497 -0.5462  0.3535
  669MOL0     C90206  11.175   7.796   4.860  0.2051  1.0962 -0.2568
  669MOL0     C90207  11.039   7.775   4.868 -0.2328 -0.1039 -0.0883
  669MOL0     C90208  10.971   7.787   4.992  0.0056 -0.8389  0.5413
  669MOL0     C90209  10.836   7.741   5.007 -0.1286  1.0048 -0.2180
  669MOL0     O90210  10.793   7.649   4.913  0.0672 -0.5463  0.3262
  669MOL0     C90211  10.671   7.597   4.927  0.7253  0.2952 -0.3405
  669MOL0     C90212  10.546   7.646   4.885 -0.8295  0.4354  0.6808
  669MOL0     C90213  10.430   7.570   4.905 -0.2970  0.7589  0.5672
  669MOL0     C90214  10.431   7.439   4.963 -0.1441 -0.6064  0.3080
  669MOL0     O90215  10.331   7.359   4.990  0.5066 -0.0342  0.3558
  669MOL0     C90216  10.198   7.410   4.992  0.4588  0.2603  0.3860
  669MOL0     C90217  10.136   7.390   4.852  0.0996  0.2986  0.0857
  669MOL0     C90218  10.143   7.247   4.803 -0.0708  0.3792 -0.3598
  669MOL0     C90219  10.074   7.234   4.661 -0.5895  0.1316 -0.2606
  669MOL0     C90220  10.104   7.098   4.592 -0.1770  0.0172 -0.6444
  669MOL0     C90221  10.035   7.096   4.463 -0.2109  0.4934  0.3527
  669MOL0     C90222  10.027   6.958   4.403 -0.5702 -0.2022  0.7803
  669MOL0     C90223  10.166   6.927   4.342 -0.4402 -0.3207 -0.9560
  669MOL0    Cl90224  10.145   6.790   4.227 -0.4039  0.2350  0.8520
  669MOL0     C90225  10.551   7.397   5.008 -1.0307  0.9327 -0.1852
  669MOL0     C90226  10.673   7.476   4.997  0.2126 -0.5325  0.1552
  669MOL0     O90227  10.766   7.781   5.097 -0.0382  0.0617 -0.5636
  669MOL0     C90228  11.044   7.835   5.101  0.3809  0.1859 -0.7910
  669MOL0     C90229  11.177   7.871   5.088 -0.2797  0.0883 -0.0740
  669MOL0     N90230  11.524   7.878   5.424  0.0702 -0.3194  0.0912
  669MOL0     N90231  11.561   7.869   5.549  0.4775  0.2781  0.2310
  669MOL0     C90232  11.506   6.898   5.782  0.0946 -0.1174 -0.1249
  669MOL0     C90233  11.370   6.852   5.762  0.0030  0.1974 -0.4028
  669MOL0     C90234  10.949   6.727   5.632 -1.1679 -0.1856 -0.9507
  669MOL0     C90235  10.880   6.616   5.684 -0.6010 -0.3730  0.2258
  669MOL0     C90236  10.747   6.592   5.655  0.0299 -0.3677 -0.2633
  669MOL0     C90237  10.672   6.692   5.590  0.1642 -0.6296  0.2032
  669MOL0     O90238  10.533   6.670   5.560 -0.1170 -0.1230 -1.0114
  669MOL0     C90239  10.457   6.551   5.613 -0.1460 -0.7343  0.4826
  669MOL0     C90240  10.461   6.459   5.488 -0.5439  0.8422  0.8618
  669MOL0     C90241  10.343   6.365   5.462 -0.3569 -0.5284 -0.2147
  669MOL0     C90242  10.328   6.252   5.566  0.4399  0.8399  0.7947
  669MOL0     C90243  10.454   6.162   5.579  0.9755  0.4889  0.1712
  669MOL0     C90244  10.540   6.090   5.616  0.0912 -0.4626  0.6503
  669MOL0     C90245  10.728   6.811   5.549 -0.1887  0.4438  0.1231
  669MOL0     C90246  10.867   6.823   5.564 -0.0437 -0.4453 -1.0614
  669MOL0     C90247  10.934   6.949   5.510  0.4590  0.2339  0.4975
  669MOL0     H90248  11.304   6.986   5.458  0.6180 -0.2188 -0.4273
  669MOL0     H90249  11.557   7.032   5.469  0.7019 -0.1961 -0.5090
  669MOL0     H90250  11.592   7.192   5.789  1.1367  2.1200  2.3158
  669MOL0     H90251  11.689   7.087   5.885 -2.6585 -2.6378 -0.0553
  669MOL0     H90252  11.891   7.162   5.758 -0.5807  0.0332 -4.2018
  669MOL0     H90253  11.822   7.282   5.870 -3.5738  2.0422  0.1637
  669MOL0     H90254  11.711   7.403   5.679 -0.7260 -1.4739 -3.5831
  669MOL0     H90255  11.773   7.273   5.566 -1.6176 -2.6654  0.4352
  669MOL0     H90256  11.968   7.443   5.733 -2.5151  0.6254  2.2031
  669MOL0     H90257  11.994   7.342   5.587 -1.6643 -1.3556  0.2941
  669MOL0     H90258  11.958   7.541   5.453  0.7648  1.5823  0.6865
  669MOL0     H90259  11.794   7.541   5.515 -0.5444 -0.5815 -1.0513
  669MOL0     H90260  12.032   7.644   5.673  0.0985 -2.2049 -0.1150
  669MOL0     H90261  11.945   7.740   5.548  3.9486 -0.6112 -1.0435
  669MOL0     H90262  11.892   7.728   5.808  2.4826 -0.7974 -2.6146
  669MOL0     H90263  11.747   7.644   5.737  1.7034 -1.7702 -0.9736
  669MOL0     H90264  11.704   7.900   5.753 -2.1972  4.4948 -3.6542
  669MOL0     H90265  11.859   7.938   5.689 -0.4693  0.5985  1.3467
  669MOL0     H90266  11.855   7.902   5.411 -0.1407  4.3544  0.0767
  669MOL0     H90267  11.565   7.978   5.174 -1.7137 -1.7004 -0.0290
  669MOL0     H90268  11.736   7.929   5.152 -0.3493  0.8595 -0.4264
  669MOL0     H90269  11.653   7.679   5.154 -1.1996  0.3914  3.3589
  669MOL0     H90270  11.496   7.755   5.145  0.6790  0.6118  0.4882
  669MOL0     H90271  11.676   7.702   4.937  0.1030 -0.4156  2.3665
  669MOL0     H90272  11.676   7.867   4.935  0.9553  0.1627  1.2095
  669MOL0     H90273  11.433   7.692   4.921 -1.2638  1.5826  2.5125
  669MOL0     H90274  11.472   7.809   4.796 -0.9603 -1.4670 -1.0385
  669MOL0     H90275  11.223   7.784   4.763  0.9538  0.6112  0.1619
  669MOL0     H90276  10.985   7.743   4.779 -1.0355 -0.3056  0.4585
  669MOL0     H90277  10.538   7.739   4.831  0.6678  1.8141  2.6760
  669MOL0     H90278  10.335   7.611   4.870  0.5696 -0.3631 -3.6688
  669MOL0     H90279  10.140   7.347   5.060 -0.6462  1.8716  0.9999
  669MOL0     H90280  10.188   7.515   5.019 -0.3548  0.0074  1.1291
  669MOL0     H90281  10.036   7.430   4.872  0.8086  1.6088  1.1570
  669MOL0     H90282  10.184   7.450   4.774  0.9611 -0.4695  0.0072
  669MOL0     H90283  10.247   7.217   4.792 -0.2691 -1.8847  2.6636
  669MOL0     H90284  10.104   7.169   4.868 -0.2457 -3.6410 -4.7826
  669MOL0     H90285  10.109   7.314   4.595 -0.8205  1.8505  1.5802
  669MOL0     H90286   9.966   7.241   4.679 -0.7341 -1.6079 -0.2551
  669MOL0     H90287  10.053   7.025   4.655  0.8976 -0.7037 -0.5822
  669MOL0     H90288  10.212   7.079   4.590  0.0773  1.3676 -2.0391
  669MOL0     H90289   9.930   7.129   4.471 -0.7390 -0.1943 -2.6236
  669MOL0     H90290  10.071   7.171   4.392 -1.1199  0.0485 -0.6102
  669MOL0     H90291   9.955   6.977   4.323  0.3699  0.5886  0.0817
  669MOL0     H90292   9.995   6.872   4.461 -0.2680 -0.2041  0.9479
  669MOL0     H90293  10.200   7.011   4.280  1.1592 -1.5589 -1.8286
  669MOL0     H90294  10.245   6.905   4.415 -3.1288 -3.1421  1.3751
  669MOL0     H90295  10.552   7.300   5.057  0.9408  0.7551 -0.5070
  669MOL0     H90296  10.767   7.433   5.032 -0.2968 -2.6323 -0.8885
  669MOL0     H90297  10.992   7.841   5.196 -0.0091  1.7741 -1.0683
  669MOL0     H90298  11.240   7.914   5.166 -0.5212 -1.7172  1.1675
  669MOL0     H90299  11.561   6.876   5.873  2.9041  1.2179 -1.3812
  669MOL0     H90300  11.325   6.790   5.839  2.3856 -1.5151 -0.2522
  669MOL0     H90301  10.935   6.546   5.746 -0.5611 -1.0259 -0.5392
  669MOL0     H90302  10.707   6.494   5.675  1.1589 -0.6031  1.0484
  669MOL0     H90303  10.355   6.579   5.642  0.8281  0.5867  2.9492
  669MOL0     H90304  10.507   6.515   5.703  2.4463  3.5501  1.0731
  669MOL0     H90305  10.554   6.401   5.483 -0.5854  0.8558 -1.4018
  669MOL0     H90306  10.469   6.519   5.397  0.7991 -1.6505 -0.8039
  669MOL0     H90307  10.358   6.331   5.359  2.7647 -1.4897  0.4550
  669MOL0     H90308  10.261   6.437   5.469  0.1575  0.3213 -2.1981
  669MOL0     H90309  10.304   6.296   5.664 -0.1685  0.3915  0.8493
  669MOL0     H90310  10.244   6.184   5.551  1.1703  0.0033  0.4415
  669MOL0     H90311  10.610   6.016   5.649 -0.6343 -1.3434  0.2840
  669MOL0     H90312  10.684   6.895   5.497 -1.4680  0.2310  0.8374
  669MOL0     H90313  10.987   6.927   5.417  1.4278  2.1793  0.5308
  669MOL0     H90314  10.865   7.030   5.486 -0.3873 -0.2808  1.1288
  669MOL0     H90315  11.005   7.004   5.573  0.1655 -0.3191  1.3264
  670MOL0     O90316  10.878  10.232   6.052 -0.4988  0.3087  1.2910
  670MOL0     C90317  10.836  10.119   6.075 -1.1021  0.0842 -0.8011
  670MOL0     O90318  10.785  10.077   6.202 -0.3953 -0.3103  0.8309
  670MOL0     C90319  10.796  10.165   6.306 -0.0890  0.2631  0.5565
  670MOL0     C90320  10.909  10.230   6.353  1.0206 -0.3232  0.6871
  670MOL0     C90321  10.902  10.323   6.449 -0.2621  0.2076  0.0288
  670MOL0     C90322  10.786  10.348   6.521  0.5861 -0.2934  0.3168
  670MOL0     O90323  10.789  10.428   6.632 -0.3837  0.0399 -0.1082
  670MOL0     C90324  10.668  10.483   6.687 -0.8627  0.9921  0.8023
  670MOL0     C90325  10.621  10.621   6.628  0.0679 -0.8329 -0.5509
  670MOL0     C90326  10.561  10.610   6.485 -0.2896 -0.2220  0.0199
  670MOL0     C90327  10.670  10.632   6.378 -0.1954 -1.0691 -0.3069
  670MOL0     C90328  10.622  10.742   6.279 -0.7060 -0.5245  0.3940
  670MOL0     C90329  10.709  10.761   6.153  0.1902  0.6413 -0.2901
  670MOL0     C90330  10.760  10.625   6.088  0.5924 -0.4433 -0.2846
  670MOL0     C90331  10.639  10.548   6.018 -0.7227  0.0944  0.0010
  670MOL0     N90332  10.591  10.629   5.896 -0.2245 -0.3768 -0.1550
  670MOL0     C90333  10.683  10.681   5.803  0.3391 -0.2887 -0.0168
  670MOL0     C90334  10.613  10.781   5.743 -0.5280  0.5841 -0.3411
  670MOL0     C90335  10.665  10.882   5.651  0.9841  0.8252  0.6826
  670MOL0     C90336  10.706  11.005   5.723 -0.0561  0.9246 -0.7703
  670MOL0     C90337  10.751  11.114   5.633  0.0003  0.4952  0.0800
  670MOL0     C90338  10.751  11.258   5.694 -0.8935 -0.4176  0.0523
  670MOL0     O90339  10.839  11.263   5.803  0.2002 -0.6374 -0.1527
  670MOL0     C90340  10.834  11.370   5.882 -0.4864  0.3968  0.3374
  670MOL0     C90341  10.902  11.363   6.003  0.4242 -0.4906 -0.1354
  670MOL0     C90342  10.882  11.474   6.091 -0.3709 -0.6395 -0.3843
  670MOL0     C90343  10.817  11.593   6.058  0.5620  0.4884 -1.4887
  670MOL0     C90344  10.796  11.710   6.142  0.3627 -0.7986  0.6764
  670MOL0     O90345  10.720  11.808   6.096  0.3740  1.0526  0.1714
  670MOL0     C90346  10.698  11.924   6.168  0.4752 -0.7513  1.2187
  670MOL0     C90347  10.780  11.973   6.263 -0.9747  0.0279 -0.2459
  670MOL0     C90348  10.743  12.077   6.345  0.3578 -1.0255 -0.3934
  670MOL0     C90349  10.615  12.139   6.316  0.0937 -0.2656 -1.5484
  670MOL0     O90350  10.563  12.217   6.417 -0.5289  0.3293 -0.3303
  670MOL0     C90351  10.482  12.337   6.396 -0.7704 -0.3809  0.6800
  670MOL0     C90352  10.398  12.388   6.507  0.8201  0.5768  0.7581
  670MOL0     C90353  10.480  12.443   6.626 -0.5977 -0.5689  0.9051
  670MOL0     C90354  10.428  12.554   6.728  0.6356  0.2384 -0.5852
  670MOL0     C90355  10.280  12.527   6.772  0.0753  0.1412 -0.9049
  670MOL0     C90356  10.273  12.395   6.861 -0.2365  0.8152  0.4751
  670MOL0     C90357  10.143  12.381   6.932  0.1668  0.7786  0.3956
  670MOL0     C90358  10.130  12.248   7.010  0.5808 -0.1019  0.3409
  670MOL0    Cl90359  10.271  12.221   7.108  0.0581 -0.7974 -0.2616
  670MOL0     C90360  10.538  12.101   6.209  0.1793  0.1617 -0.9338
  670MOL0     C90361  10.579  11.989   6.136 -0.1652  0.4723  0.6037
  670MOL0     O90362  10.853  11.710   6.254 -1.0292  0.5012 -0.0912
  670MOL0     C90363  10.760  11.591   5.930  0.6192  0.6571  0.9672
  670MOL0     C90364  10.759  11.486   5.848  0.3305  0.8793 -0.3589
  670MOL0     N90365  10.482  10.777   5.786  0.2741 -0.0361 -0.1672
  670MOL0     N90366  10.469  10.699   5.893  0.3181 -0.1736  0.2747
  670MOL0     C90367  10.671  10.270   6.478 -1.1149 -0.2420  0.8074
  670MOL0     C90368  10.679  10.191   6.379  0.6058 -0.2628  0.4892
  670MOL0     C90369  10.849  10.021   5.970 -0.2929 -0.1838 -0.9229
  670MOL0     C90370  10.772   9.905   5.983  0.1585  0.0938  0.0722
  670MOL0     C90371  10.765   9.806   5.886  0.8406  0.4010 -0.4882
  670MOL0     C90372  10.854   9.805   5.775  0.1213 -0.3622  0.2680
  670MOL0     O90373  10.872   9.709   5.684  1.3133 -0.6194  0.2740
  670MOL0     C90374  10.776   9.607   5.678  0.5499  0.1273 -0.7467
  670MOL0     C90375  10.791   9.505   5.564  0.8183  0.2198 -0.4886
  670MOL0     C90376  10.766   9.553   5.419  0.5916  0.1546  0.6482
  670MOL0     C90377  10.642   9.637   5.406  0.2447 -0.6885 -0.3314
  670MOL0     C90378  10.527   9.547   5.444  0.8713 -1.5447  0.2825
  670MOL0     C90379  10.429   9.486   5.473  0.3804  0.1881 -0.2771
  670MOL0     C90380  10.940   9.919   5.766 -0.6115 -0.8316 -0.2069
  670MOL0     C90381  10.926  10.032   5.853  1.0030  0.1507  1.2444
  670MOL0     C90382  11.001  10.154   5.801  0.8735 -0.1101  0.5056
  670MOL0     H90383  10.995  10.218   6.288 -0.8873  1.3041 -2.3566
  670MOL0     H90384  10.989  10.372   6.490 -0.9519  0.1899  1.5800
  670MOL0     H90385  10.585  10.412   6.688 -1.0508  1.1448 -1.0505
  670MOL0     H90386  10.686  10.506   6.793  0.4128 -1.6590  1.2281
  670MOL0     H90387  10.692  10.704   6.642  0.4024 -1.2051  0.0135
  670MOL0     H90388  10.526  10.643   6.678 -0.2909  0.1386 -1.6092
  670MOL0     H90389  10.490  10.693   6.474  0.1571  0.1821  0.1232
  670MOL0     H90390  10.509  10.515   6.473 -0.2622 -0.1590 -0.6681
  670MOL0     H90391  10.771  10.656   6.411  0.2373 -0.0110 -2.2315
  670MOL0     H90392  10.688  10.535   6.331 -0.3526 -2.0484  1.5930
  670MOL0     H90393  10.515  10.731   6.258 -0.4668  0.0182 -1.1963
  670MOL0     H90394  10.642  10.840   6.324 -0.5298 -1.0072  1.4069
  670MOL0     H90395  10.649  10.819   6.082  2.3105 -0.2606 -2.9378
  670MOL0     H90396  10.796  10.817   6.188  0.0629  0.0885  0.9767
  670MOL0     H90397  10.806  10.557   6.161 -2.3182 -1.3413  0.8694
  670MOL0     H90398  10.832  10.640   6.007  2.3724  1.7505  1.5462
  670MOL0     H90399  10.674  10.448   5.990 -0.8099  0.3714 -1.1366
  670MOL0     H90400  10.554  10.543   6.087 -1.3160  2.0987 -0.5278
  670MOL0     H90401  10.787  10.654   5.786 -0.0066 -2.3840  0.9341
  670MOL0     H90402  10.745  10.845   5.587 -2.5792 -0.6056 -3.4361
  670MOL0     H90403  10.580  10.906   5.587  0.9092 -0.1511  0.4037
  670MOL0     H90404  10.617  11.030   5.781 -0.9986 -2.8557 -0.3080
  670MOL0     H90405  10.791  10.971   5.783  0.3920 -4.1523 -3.6797
  670MOL0     H90406  10.686  11.121   5.546  0.2354 -1.0788 -0.2367
  670MOL0     H90407  10.854  11.090   5.607  0.4640  1.9104  0.4924
  670MOL0     H90408  10.651  11.273   5.737 -0.7669 -1.2116  0.6458
  670MOL0     H90409  10.753  11.340   5.621 -0.1033 -0.1576  0.3598
  670MOL0     H90410  10.973  11.291   6.043 -0.3162 -1.7298 -0.9829
  670MOL0     H90411  10.931  11.465   6.187  3.2645 -1.0427 -2.0962
  670MOL0     H90412  10.878  11.928   6.275 -1.4860 -0.9793  0.2495
  670MOL0     H90413  10.803  12.111   6.429 -4.9434  0.4510  3.3150
  670MOL0     H90414  10.543  12.418   6.354  0.6391 -1.6524  0.1497
  670MOL0     H90415  10.410  12.302   6.322  0.5205 -3.6152  0.7830
  670MOL0     H90416  10.320  12.456   6.472 -0.4444 -1.2418 -0.1822
  670MOL0     H90417  10.348  12.298   6.545  0.5672  1.0781  1.6495
  670MOL0     H90418  10.511  12.353   6.680 -1.6417 -3.6536 -3.1828
  670MOL0     H90419  10.571  12.487   6.583  0.0303 -1.4872  1.2468
  670MOL0     H90420  10.428  12.652   6.679  0.6791  0.4791 -0.1104
  670MOL0     H90421  10.504  12.569   6.805  1.7491  0.3563 -1.6701
  670MOL0     H90422  10.208  12.513   6.691 -0.7694 -0.4660 -0.0730
  670MOL0     H90423  10.247  12.605   6.840 -0.9923  0.7220 -2.0369
  670MOL0     H90424  10.296  12.316   6.790 -1.8972 -0.5073  1.3386
  670MOL0     H90425  10.345  12.404   6.943  0.4421 -4.1534  0.6865
  670MOL0     H90426  10.064  12.387   6.857  0.1004  1.4601  0.5169
  670MOL0     H90427  10.123  12.463   7.002 -0.5354  0.3124  0.7632
  670MOL0     H90428  10.034  12.244   7.063  1.0486  0.2626  1.2513
  670MOL0     H90429  10.123  12.162   6.944 -1.3300 -0.2692  0.7122
  670MOL0     H90430  10.439  12.142   6.191 -0.3667  0.8708  2.8120
  670MOL0     H90431  10.536  11.947   6.046 -0.2854  0.7914  0.5110
  670MOL0     H90432  10.707  11.680   5.895  0.7795  0.4359  0.1494
  670MOL0     H90433  10.688  11.503   5.768 -0.2689 -0.4314 -0.1308
  670MOL0     H90434  10.573  10.288   6.522 -1.4917  0.1584 -0.1719
  670MOL0     H90435  10.585  10.144   6.349  0.1286  1.1704 -0.3735
  670MOL0     H90436  10.709   9.890   6.069 -1.0972 -0.3177 -0.8919
  670MOL0     H90437  10.695   9.727   5.908  1.0989 -0.6741 -3.1618
  670MOL0     H90438  10.674   9.647   5.679 -0.0706 -1.3762 -0.9474
  670MOL0     H90439  10.784   9.543   5.766 -1.5816  0.6462 -0.1206
  670MOL0     H90440  10.711   9.433   5.583  1.3694 -0.0069  1.1508
  670MOL0     H90441  10.891   9.460   5.567  0.3082 -0.9098  0.1672
  670MOL0     H90442  10.772   9.469   5.350  2.6668  2.2410 -1.9130
  670MOL0     H90443  10.847   9.624   5.398  0.1423 -0.2597 -3.0938
  670MOL0     H90444  10.650   9.728   5.467  1.3821 -1.9625  1.5014
  670MOL0     H90445  10.629   9.672   5.303 -0.6300 -1.2328 -0.4071
  670MOL0     H90446  10.351   9.416   5.498 -1.9517  2.4585 -0.7656
  670MOL0     H90447  11.004   9.924   5.679 -1.0249 -1.7118 -0.5737
  670MOL0     H90448  11.089  10.169   5.864 -0.4845  6.6757  1.5782
  670MOL0     H90449  11.028  10.133   5.697 -0.8094  0.0761 -0.0027
  670MOL0     H90450  10.932  10.239   5.803  0.3664 -0.5155  2.0034
  671MOL0     O90451   0.022  10.653   3.227 -0.2064 -0.3091 -0.4233
  671MOL0     C90452   0.080  10.542   3.225 -0.1770 -0.4745  0.4028
  671MOL0     O90453   0.124  10.467   3.325 -0.3017 -0.4278  0.1545
  671MOL0     C90454   0.088  10.511   3.451 -0.4213 -0.8968 -0.3711
  671MOL0     C90455  -0.002  10.444   3.531  0.0445  0.1575 -0.3483
  671MOL0     C90456  -0.036  10.495   3.652  0.2814  0.1302  0.4069
  671MOL0     C90457   0.008  10.613   3.700  0.0951  0.3030 -0.0934
  671MOL0     O90458  -0.030  10.660   3.830  0.1111 -0.7111  0.4380
  671MOL0     C90459  -0.073  10.798   3.818 -1.2791  0.2901 -0.0994
  671MOL0     C90460  -0.094  10.850   3.963 -1.4969 -0.3733 -0.3835
  671MOL0     C90461  -0.174  10.976   3.964 -0.3284  0.1690 -0.0606
  671MOL0     C90462  -0.151  11.058   4.088 -0.4850  0.2370 -0.6508
  671MOL0     C90463  -0.250  11.178   4.090  0.4030  0.2606 -0.3619
  671MOL0     C90464  -0.240  11.271   4.204  0.8842 -1.1816 -0.5095
  671MOL0     C90465  -0.297  11.214   4.336  0.3186  0.2095 -0.1093
  671MOL0     C90466  -0.438  11.153   4.317  0.5500 -0.4156  0.1652
  671MOL0     N90467  -0.469  11.081   4.437 -0.4497  0.8463  0.7248
  671MOL0     C90468  -0.494  11.120   4.565  0.0792  0.4022 -0.7148
  671MOL0     C90469  -0.530  11.010   4.631  0.0631 -0.2012 -0.5912
  671MOL0     C90470  -0.558  11.007   4.772 -1.0254 -0.0938  0.9626
  671MOL0     C90471  -0.714  10.992   4.793 -0.2715  0.4723  0.2181
  671MOL0     C90472  -0.751  11.039   4.934  0.7997 -0.2109 -0.2490
  671MOL0     C90473  -0.900  11.017   4.949  0.2548 -1.1358  0.1927
  671MOL0     O90474  -0.937  11.016   5.084 -0.1954 -0.3546 -0.5184
  671MOL0     C90475  -0.974  11.131   5.151  0.4814 -0.0023 -0.4901
  671MOL0     C90476  -1.002  11.254   5.093  0.2890 -0.3761 -0.5988
  671MOL0     C90477  -1.062  11.371   5.159  0.1362 -0.3187  0.5361
  671MOL0     C90478  -1.103  11.355   5.289  0.3266  0.0084  0.2128
  671MOL0     C90479  -1.164  11.461   5.366 -0.8329 -1.2032  0.7876
  671MOL0     O90480  -1.176  11.579   5.296 -0.0630  0.2097  0.0505
  671MOL0     C90481  -1.270  11.662   5.347  0.6983  0.3989  0.3198
  671MOL0     C90482  -1.246  11.794   5.386 -0.1953  0.1991 -0.4417
  671MOL0     C90483  -1.348  11.886   5.428 -0.2237  0.7645  0.7168
  671MOL0     C90484  -1.483  11.834   5.432 -0.0473 -0.0569 -0.7369
  671MOL0     O90485  -1.586  11.916   5.473 -0.2660  0.4816  0.7760
  671MOL0     C90486  -1.573  11.956   5.606  0.9913 -0.7311 -0.8536
  671MOL0     C90487  -1.710  11.943   5.685  0.6402  0.0958  0.7741
  671MOL0     C90488  -1.755  11.798   5.708 -0.7373 -0.2561  0.1883
  671MOL0     C90489  -1.767  11.752   5.859  0.0823 -0.3640  0.5245
  671MOL0     C90490  -1.824  11.600   5.874  0.1830 -0.1367 -0.3476
  671MOL0     C90491  -1.842  11.543   6.016  1.0488 -0.6941  0.8451
  671MOL0     C90492  -1.708  11.495   6.074  0.9771  0.2492  0.9817
  671MOL0     C90493  -1.745  11.401   6.187  0.8014  0.6061  0.6716
  671MOL0    Cl90494  -1.608  11.322   6.250  0.2394  0.0395  0.1493
  671MOL0     C90495  -1.511  11.707   5.387 -0.5132 -0.5562 -0.5979
  671MOL0     C90496  -1.410  11.625   5.333 -0.6763 -0.4403 -0.5347
  671MOL0     O90497  -1.187  11.446   5.486 -0.1607 -0.2792  0.4398
  671MOL0     C90498  -1.082  11.229   5.347  0.0295 -0.0059 -0.0229
  671MOL0     C90499  -1.016  11.117   5.283  0.6726 -0.6825 -0.4468
  671MOL0     N90500  -0.539  10.901   4.551 -0.4407 -0.5276  0.1636
  671MOL0     N90501  -0.496  10.946   4.432 -0.5646  0.4710  0.3610
  671MOL0     C90502   0.103  10.682   3.613  0.8737  0.5107  0.2431
  671MOL0     C90503   0.142  10.635   3.489 -0.4659 -0.5809 -0.6799
  671MOL0     C90504   0.111  10.486   3.084 -0.2451  0.0408  0.3395
  671MOL0     C90505   0.193  10.560   2.993  0.1257 -0.6812 -0.4852
  671MOL0     C90506   0.240  10.505   2.872  0.1872 -0.4408  0.1207
  671MOL0     C90507   0.197  10.380   2.833  0.3666  0.6357  0.2044
  671MOL0     O90508   0.222  10.330   2.709 -0.1689 -0.2478  0.2585
  671MOL0     C90509   0.251  10.418   2.599 -0.1034 -0.8476  0.0904
  671MOL0     C90510   0.276  10.331   2.475 -0.5984 -0.1292  0.5990
  671MOL0     C90511   0.272  10.411   2.341  0.1110 -0.8979 -0.2934
  671MOL0     C90512   0.410  10.399   2.273 -0.2434 -0.2572  0.1726
  671MOL0     C90513   0.518  10.464   2.344  0.8945  0.5575 -0.2756
  671MOL0     C90514   0.602  10.518   2.412 -0.3319 -0.0616 -0.0830
  671MOL0     C90515   0.110  10.311   2.913  0.2320 -0.4728  0.5322
  671MOL0     C90516   0.070  10.356   3.042 -0.5871 -0.1662 -0.4293
  671MOL0     C90517  -0.017  10.269   3.129  0.4272 -0.8957 -0.0147
  671MOL0     H90518  -0.053  10.350   3.515 -0.6698  0.4154  0.3544
  671MOL0     H90519  -0.122  10.452   3.703 -0.0322 -0.7915 -0.8575
  671MOL0     H90520  -0.006  10.866   3.764 -1.3008 -0.0795 -0.5984
  671MOL0     H90521  -0.165  10.803   3.761 -0.0173 -0.4513 -2.2984
  671MOL0     H90522  -0.003  10.870   4.019 -1.7752  0.3834 -0.1822
  671MOL0     H90523  -0.136  10.776   4.031  1.6818 -0.3125  1.8461
  671MOL0     H90524  -0.280  10.955   3.949 -0.8061  2.5812 -0.5457
  671MOL0     H90525  -0.146  11.040   3.880 -0.4307  1.2169  0.6739
  671MOL0     H90526  -0.154  11.003   4.183  0.1585  1.4025  0.0723
  671MOL0     H90527  -0.051  11.101   4.083 -1.6349  3.6309  1.9059
  671MOL0     H90528  -0.234  11.235   3.997  3.5138 -1.9157 -1.2854
  671MOL0     H90529  -0.353  11.141   4.085 -0.3464  1.7885  2.0116
  671MOL0     H90530  -0.133  11.287   4.224 -0.1382  1.2470  4.5915
  671MOL0     H90531  -0.296  11.363   4.188  0.8791 -0.8213  1.3984
  671MOL0     H90532  -0.291  11.293   4.411  1.5847  2.7224 -2.6204
  671MOL0     H90533  -0.236  11.128   4.365  1.8361 -0.9617 -5.4989
  671MOL0     H90534  -0.514  11.230   4.301  0.1831 -1.1426 -1.9251
  671MOL0     H90535  -0.459  11.086   4.233 -0.4120 -0.2451  0.2563
  671MOL0     H90536  -0.492  11.219   4.611 -2.2468 -0.4713  1.5346
  671MOL0     H90537  -0.522  10.917   4.823  2.8245  0.5055 -0.3748
  671MOL0     H90538  -0.508  11.088   4.825 -0.7501 -0.2413  0.9276
  671MOL0     H90539  -0.759  11.055   4.717 -0.5271 -0.1269 -0.1373
  671MOL0     H90540  -0.747  10.889   4.777  1.5108  0.2678 -2.6365
  671MOL0     H90541  -0.706  11.137   4.952 -1.9190  1.2241 -0.6267
  671MOL0     H90542  -0.708  10.966   5.002  0.5338  0.2415  0.4116
  671MOL0     H90543  -0.923  10.922   4.898  0.2019 -1.0184 -0.0023
  671MOL0     H90544  -0.964  11.090   4.899  2.7309 -0.6950 -2.6435
  671MOL0     H90545  -0.971  11.255   4.989 -0.6043 -3.0799 -0.9755
  671MOL0     H90546  -1.090  11.460   5.104  0.9874 -0.0538  0.5240
  671MOL0     H90547  -1.145  11.834   5.383 -0.4361  0.8569 -0.0896
  671MOL0     H90548  -1.331  11.989   5.457 -0.7106  1.1260 -0.2426
  671MOL0     H90549  -1.498  11.901   5.663 -0.0150 -0.9687  0.2726
  671MOL0     H90550  -1.553  12.063   5.605 -5.4105  1.0695 -5.9075
  671MOL0     H90551  -1.707  11.994   5.781 -1.1585 -0.4629  1.1626
  671MOL0     H90552  -1.782  11.989   5.617  2.3976  1.6381 -0.1369
  671MOL0     H90553  -1.855  11.788   5.666  0.9675 -1.5997 -4.0740
  671MOL0     H90554  -1.682  11.735   5.657  0.8655 -0.1764  2.2487
  671MOL0     H90555  -1.840  11.817   5.909  0.2562 -0.6615  1.1780
  671MOL0     H90556  -1.679  11.758   5.924  2.7202 -1.1446 -2.7144
  671MOL0     H90557  -1.757  11.531   5.821 -0.5071 -3.1686  2.4352
  671MOL0     H90558  -1.919  11.602   5.820 -1.6132  2.8735  2.5430
  671MOL0     H90559  -1.890  11.615   6.083  0.2744  0.5511 -0.9527
  671MOL0     H90560  -1.919  11.466   6.010  1.2479 -0.8055 -1.7223
  671MOL0     H90561  -1.661  11.586   6.112 -3.0696  3.3858 -0.6584
  671MOL0     H90562  -1.635  11.446   6.010  1.1992 -2.2558  2.9937
  671MOL0     H90563  -1.799  11.458   6.263 -1.6997  0.4220 -0.8323
  671MOL0     H90564  -1.813  11.323   6.150 -0.5788  1.3310  1.6059
  671MOL0     H90565  -1.616  11.681   5.380 -0.8949  1.1123 -1.7295
  671MOL0     H90566  -1.435  11.525   5.299 -2.6867 -0.3329  0.4669
  671MOL0     H90567  -1.097  11.219   5.454 -1.3897  0.6218 -0.1441
  671MOL0     H90568  -1.011  11.020   5.332 -0.9090 -1.6394 -2.0790
  671MOL0     H90569   0.143  10.773   3.656  2.5051 -0.2284  0.3628
  671MOL0     H90570   0.217  10.675   3.422  1.7528 -3.5964 -0.2009
  671MOL0     H90571   0.220  10.663   3.014  0.3119 -1.3123  2.9438
  671MOL0     H90572   0.308  10.570   2.818 -1.9231  0.0040 -2.1381
  671MOL0     H90573   0.341  10.475   2.622  0.2345 -0.3139 -2.3064
  671MOL0     H90574   0.176  10.497   2.592 -0.1535 -0.7347  1.5840
  671MOL0     H90575   0.200  10.252   2.469  0.1284 -0.9294  1.6096
  671MOL0     H90576   0.368  10.273   2.482  0.7067  2.0204  3.0774
  671MOL0     H90577   0.255  10.515   2.372 -0.6474 -1.6434  1.9759
  671MOL0     H90578   0.191  10.396   2.269  0.3485  1.9650 -1.3316
  671MOL0     H90579   0.440  10.295   2.257 -1.5032 -0.4472 -1.1559
  671MOL0     H90580   0.404  10.447   2.174  0.6697 -0.3678  0.0507
  671MOL0     H90581   0.679  10.565   2.470  0.6835 -1.6543 -0.0666
  671MOL0     H90582   0.077  10.216   2.873 -1.7115  0.4290 -0.1302
  671MOL0     H90583  -0.053  10.174   3.086 -1.2152 -1.1426  1.7719
  671MOL0     H90584   0.039  10.234   3.216 -0.5977 -2.2775  0.1315
  671MOL0     H90585  -0.102  10.329   3.163  0.6100 -0.6270 -0.0299
  672MOL0     O90586   3.984   5.885   9.526 -0.1540 -0.2281  0.7507
  672MOL0     C90587   4.089   5.938   9.482 -0.1726  0.3421 -1.3017
  672MOL0     O90588   4.119   5.953   9.354  0.0086 -0.4476 -0.1044
  672MOL0     C90589   4.014   5.943   9.270 -0.9266 -0.4399  1.1507
  672MOL0     C90590   4.025   5.846   9.160  0.7854  0.0539  0.0796
  672MOL0     C90591   3.941   5.846   9.050 -0.0423  0.0561  0.1922
  672MOL0     C90592   3.833   5.937   9.046 -0.3241 -0.1190 -1.2173
  672MOL0     O90593   3.738   5.932   8.949  0.2268 -0.0921 -0.2333
  672MOL0     C90594   3.692   6.045   8.877  1.1585 -0.4531  0.1752
  672MOL0     C90595   3.687   6.027   8.723 -0.9706  0.4199 -0.0340
  672MOL0     C90596   3.591   5.919   8.682 -0.5411  0.5208  1.0544
  672MOL0     C90597   3.633   5.847   8.545  0.1668 -0.8472 -0.1576
  672MOL0     C90598   3.517   5.746   8.523  0.1897  0.2433 -0.5693
  672MOL0     C90599   3.560   5.625   8.423 -0.2232  0.1510 -0.1415
  672MOL0     C90600   3.601   5.671   8.276 -0.3677  0.3728  0.1176
  672MOL0     C90601   3.698   5.573   8.195  0.4040 -0.0806 -0.2232
  672MOL0     N90602   3.661   5.560   8.057  0.2190  0.5167 -0.0252
  672MOL0     C90603   3.572   5.469   8.006 -0.0501  0.4097 -0.6742
  672MOL0     C90604   3.605   5.443   7.879 -0.0665  1.4880 -0.3816
  672MOL0     C90605   3.544   5.335   7.788 -0.3486 -0.4501  0.4095
  672MOL0     C90606   3.634   5.318   7.665  1.1209 -0.1490 -0.4884
  672MOL0     C90607   3.763   5.255   7.703 -0.3787  0.5520  0.0406
  672MOL0     C90608   3.838   5.182   7.589  0.3729 -0.2414  1.0405
  672MOL0     O90609   3.979   5.209   7.589 -0.5697  0.9986 -0.2965
  672MOL0     C90610   4.059   5.142   7.679  0.0594  0.3240 -0.5854
  672MOL0     C90611   4.192   5.172   7.660  0.0229 -0.0063  0.0986
  672MOL0     C90612   4.291   5.144   7.751  0.6154 -0.5763  0.1061
  672MOL0     C90613   4.251   5.074   7.870  0.1189  0.0086 -0.5879
  672MOL0     C90614   4.341   5.041   7.978 -0.5081 -0.0037 -0.5979
  672MOL0     O90615   4.284   5.007   8.099  1.0120  0.2647  0.0807
  672MOL0     C90616   4.375   4.962   8.202  1.7659  1.0051  0.2703
  672MOL0     C90617   4.477   4.864   8.172 -0.6592  0.0422 -0.1457
  672MOL0     C90618   4.571   4.835   8.271 -0.6860 -0.8305 -0.4161
  672MOL0     C90619   4.547   4.869   8.404 -0.2334 -0.1091  0.2411
  672MOL0     O90620   4.642   4.842   8.502 -1.0103  0.2529  0.9214
  672MOL0     C90621   4.668   4.711   8.547  0.1232  0.2232  0.0108
  672MOL0     C90622   4.570   4.669   8.644 -0.1698  0.1789 -0.3284
  672MOL0     C90623   4.593   4.528   8.684 -1.2301 -0.1806 -0.1515
  672MOL0     C90624   4.507   4.494   8.802 -0.0358  0.8542  0.2165
  672MOL0     C90625   4.501   4.340   8.809 -0.3659 -0.1305  0.7932
  672MOL0     C90626   4.421   4.272   8.915 -0.7312  0.4918  0.1399
  672MOL0     C90627   4.274   4.274   8.868  0.1818  0.3633  0.3103
  672MOL0     C90628   4.219   4.137   8.845  0.0415  0.5539 -0.4301
  672MOL0    Cl90629   4.033   4.140   8.846  0.0073  0.0088 -0.3461
  672MOL0     C90630   4.434   4.948   8.434 -0.8197  0.3324 -0.1978
  672MOL0     C90631   4.355   5.002   8.331 -0.0511 -0.4597  0.9541
  672MOL0     O90632   4.464   5.040   7.947 -0.5375 -0.1461  0.4250
  672MOL0     C90633   4.123   5.025   7.875 -0.7998  0.6249  0.2124
  672MOL0     C90634   4.024   5.052   7.782  0.5660 -0.0420 -0.0761
  672MOL0     N90635   3.706   5.534   7.853  0.1212  0.3271  0.1877
  672MOL0     N90636   3.739   5.599   7.955 -0.2828  0.2244 -0.0551
  672MOL0     C90637   3.820   6.031   9.157  0.3378 -0.8030  0.3334
  672MOL0     C90638   3.912   6.041   9.265  0.8379 -1.6249  0.2488
  672MOL0     C90639   4.194   5.988   9.583 -0.5461  0.3858 -0.2067
  672MOL0     C90640   4.179   5.952   9.720  1.3687  0.1690  0.5035
  672MOL0     C90641   4.259   6.019   9.819  0.3713  0.7753  0.3495
  672MOL0     C90642   4.376   6.093   9.786  0.5809  0.2382  0.3534
  672MOL0     O90643   4.443   6.151   9.880 -0.7589  0.0902 -0.3891
  672MOL0     C90644   4.444   6.301   9.889  0.8093 -0.5935  0.4471
  672MOL0     C90645   4.544   6.359   9.995  0.0083 -0.2215  1.7529
  672MOL0     C90646   4.496   6.344  10.138  0.7102  0.0570 -0.2736
  672MOL0     C90647   4.390   6.451  10.175  0.3884 -1.2212  0.5675
  672MOL0     C90648   4.353   6.437  10.316 -0.0084  0.1666 -0.7112
  672MOL0     C90649   4.316   6.456  10.429  0.1914  0.5401 -0.5688
  672MOL0     C90650   4.391   6.124   9.649  0.3776  0.5823  1.0406
  672MOL0     C90651   4.309   6.066   9.551  0.4459  0.2192 -0.3202
  672MOL0     C90652   4.343   6.114   9.411  0.5523  0.1512 -0.0252
  672MOL0     H90653   4.115   5.785   9.161  0.2539 -0.8017  2.5413
  672MOL0     H90654   3.965   5.782   8.966 -0.8227  2.3519 -1.8917
  672MOL0     H90655   3.587   6.055   8.908  0.5853 -2.6389 -0.8792
  672MOL0     H90656   3.754   6.132   8.902  0.5328  0.0340  0.0548
  672MOL0     H90657   3.790   6.004   8.695 -1.0416  2.6577 -2.5967
  672MOL0     H90658   3.652   6.114   8.667  2.9013  0.3381 -3.0310
  672MOL0     H90659   3.490   5.963   8.678  0.1563  2.5851  3.4215
  672MOL0     H90660   3.587   5.842   8.759 -1.9669 -2.3245 -1.6193
  672MOL0     H90661   3.627   5.911   8.457 -0.9620  1.2671  1.3627
  672MOL0     H90662   3.731   5.799   8.549  0.8569  0.2348 -2.3742
  672MOL0     H90663   3.484   5.699   8.617 -0.3627  1.4732 -0.1251
  672MOL0     H90664   3.439   5.815   8.489 -1.5790  0.2455  3.0038
  672MOL0     H90665   3.635   5.561   8.470 -0.6984 -0.5395 -0.3059
  672MOL0     H90666   3.473   5.565   8.393 -0.1010 -1.3724  2.2464
  672MOL0     H90667   3.635   5.774   8.279 -0.9877  0.6047 -0.4683
  672MOL0     H90668   3.512   5.668   8.213 -1.3883 -1.8023  1.5293
  672MOL0     H90669   3.791   5.630   8.203 -2.4593  5.1719 -0.1040
  672MOL0     H90670   3.707   5.474   8.242 -0.6461 -0.3641 -0.5768
  672MOL0     H90671   3.510   5.410   8.073  3.9488  0.1876  3.2980
  672MOL0     H90672   3.516   5.240   7.836  1.7057 -0.6362  1.3600
  672MOL0     H90673   3.446   5.373   7.758 -1.0770 -1.5230  1.3370
  672MOL0     H90674   3.591   5.255   7.587 -0.4582  0.0014  0.2135
  672MOL0     H90675   3.654   5.417   7.622 -0.0942  0.1415 -0.4126
  672MOL0     H90676   3.744   5.206   7.798 -1.4396  0.7949 -0.0377
  672MOL0     H90677   3.820   5.347   7.719 -1.9621  1.3024  1.7252
  672MOL0     H90678   3.798   5.197   7.488  4.7380 -0.3385 -0.9076
  672MOL0     H90679   3.820   5.074   7.599  0.3301 -0.3837 -0.3512
  672MOL0     H90680   4.213   5.229   7.569 -1.3216  1.1587  0.4760
  672MOL0     H90681   4.393   5.178   7.738  0.6800 -1.6364 -3.0832
  672MOL0     H90682   4.488   4.828   8.070  0.6004 -0.6606  0.2220
  672MOL0     H90683   4.655   4.773   8.241  0.7830 -0.4276  2.4936
  672MOL0     H90684   4.668   4.646   8.460 -0.2655  0.0619  0.1261
  672MOL0     H90685   4.772   4.710   8.581 -1.1692 -1.1882  4.7129
  672MOL0     H90686   4.574   4.738   8.729 -3.5819  3.6320 -2.6093
  672MOL0     H90687   4.468   4.673   8.605  0.4637  1.8434 -1.9836
  672MOL0     H90688   4.554   4.467   8.602 -1.0340  0.4280 -0.7014
  672MOL0     H90689   4.701   4.514   8.695 -1.1452  1.2106  1.1618
  672MOL0     H90690   4.401   4.522   8.794 -1.2985 -3.4519 -0.7941
  672MOL0     H90691   4.548   4.538   8.893  0.1795  1.5441 -0.2102
  672MOL0     H90692   4.604   4.314   8.833  0.2354  1.4202  0.0608
  672MOL0     H90693   4.474   4.292   8.715  0.6983  0.2863  0.2578
  672MOL0     H90694   4.455   4.171   8.940  3.3401  1.5125 -0.5008
  672MOL0     H90695   4.433   4.329   9.008  0.8649 -1.5293  1.2567
  672MOL0     H90696   4.264   4.325   8.772 -1.9065  1.2491  0.9359
  672MOL0     H90697   4.213   4.331   8.938  2.3812  2.0089  0.9872
  672MOL0     H90698   4.257   4.096   8.751  1.7555  0.3243  0.3243
  672MOL0     H90699   4.246   4.081   8.935 -1.9987  1.6718  0.9761
  672MOL0     H90700   4.407   4.967   8.537 -2.2367 -0.6672 -0.3546
  672MOL0     H90701   4.265   5.062   8.341  0.3927  0.4272 -0.2004
  672MOL0     H90702   4.081   4.984   7.967  0.8842 -0.4394  0.5418
  672MOL0     H90703   3.917   5.035   7.787  0.7457 -0.8373  2.2488
  672MOL0     H90704   3.746   6.109   9.147 -0.0754 -1.3411 -0.9299
  672MOL0     H90705   3.901   6.126   9.332 -0.8088 -1.0299 -0.7276
  672MOL0     H90706   4.098   5.883   9.740  1.7990 -0.7120 -0.6523
  672MOL0     H90707   4.266   6.013   9.927  3.1902  4.2123  0.5406
  672MOL0     H90708   4.344   6.338   9.911  1.4032  1.9683 -0.7410
  672MOL0     H90709   4.467   6.329   9.786  1.8022 -2.2473  0.1743
  672MOL0     H90710   4.556   6.466   9.972 -0.9174 -0.8892 -2.9862
  672MOL0     H90711   4.645   6.324   9.975  0.6823  2.0772  0.7396
  672MOL0     H90712   4.580   6.345  10.208  1.1776 -1.3503 -0.7687
  672MOL0     H90713   4.447   6.247  10.147  1.0025 -0.1116 -0.4499
  672MOL0     H90714   4.434   6.549  10.156  0.2373 -1.4906 -1.3592
  672MOL0     H90715   4.304   6.455  10.107  2.2010  0.7230 -1.7639
  672MOL0     H90716   4.289   6.510  10.518  0.7560  0.0991 -0.1194
  672MOL0     H90717   4.471   6.190   9.616  0.6354 -0.3679 -0.3136
  672MOL0     H90718   4.445   6.148   9.397  0.8762 -1.0147 -0.6260
  672MOL0     H90719   4.333   6.034   9.337  0.8195 -2.2888  2.4061
  672MOL0     H90720   4.264   6.188   9.395  1.0464  2.0733  4.7836
  673MOL0     O90721  10.020   1.138   7.354 -0.2350  0.0963 -0.0682
  673MOL0     C90722  10.001   1.257   7.371 -0.0213 -0.1552 -0.6033
  673MOL0     O90723   9.906   1.333   7.291  0.0558 -0.5273  0.3651
  673MOL0     C90724   9.887   1.304   7.157 -0.1974  0.2354 -0.5999
  673MOL0     C90725   9.996   1.300   7.073  1.1060 -1.8478 -0.1158
  673MOL0     C90726   9.986   1.253   6.934  0.6752  0.2587 -0.8025
  673MOL0     C90727   9.882   1.170   6.897  1.4538  0.3609  0.6501
  673MOL0     O90728   9.875   1.111   6.768  0.7683  0.4339 -0.5069
  673MOL0     C90729   9.942   1.163   6.660  0.7024  0.2193 -0.9479
  673MOL0     C90730   9.885   1.301   6.623  0.1680  0.0692 -0.4250
  673MOL0     C90731   9.726   1.294   6.612  0.2528  0.7469  0.3804
  673MOL0     C90732   9.647   1.383   6.715  0.5599  0.0612  0.6912
  673MOL0     C90733   9.519   1.310   6.759 -0.0343 -0.2226 -0.0532
  673MOL0     C90734   9.447   1.411   6.853 -0.0924 -0.0010  0.8242
  673MOL0     C90735   9.291   1.391   6.847  0.4509  0.1186  0.2480
  673MOL0     C90736   9.247   1.255   6.909 -0.5162 -1.4209 -0.2060
  673MOL0     N90737   9.290   1.248   7.047  0.1894  0.0745 -0.8277
  673MOL0     C90738   9.235   1.312   7.158 -0.5679  0.8902 -0.9053
  673MOL0     C90739   9.319   1.280   7.269  0.0993 -0.2498  1.4026
  673MOL0     C90740   9.285   1.322   7.405 -1.5377 -0.5888 -0.6177
  673MOL0     C90741   9.146   1.297   7.458  0.0360 -0.2743  0.5289
  673MOL0     C90742   9.090   1.153   7.437 -0.1197 -0.6828  0.3268
  673MOL0     C90743   8.959   1.122   7.503 -0.2298 -1.3857  0.6020
  673MOL0     O90744   8.947   1.113   7.647  0.3723 -0.1445 -0.3165
  673MOL0     C90745   8.823   1.105   7.706 -0.2171  0.1792 -0.7756
  673MOL0     C90746   8.790   1.163   7.826  0.0943 -0.7764 -0.0924
  673MOL0     C90747   8.661   1.162   7.881  0.5243 -0.2240 -0.5998
  673MOL0     C90748   8.555   1.112   7.812 -0.5705  0.1261 -0.1798
  673MOL0     C90749   8.421   1.113   7.867  0.7784 -1.7642  1.1367
  673MOL0     O90750   8.320   1.032   7.815 -0.8341  0.5418 -0.3722
  673MOL0     C90751   8.197   1.030   7.865 -0.0441  0.5108 -0.2075
  673MOL0     C90752   8.088   1.040   7.778  0.3453  0.4755  1.0549
  673MOL0     C90753   7.958   1.028   7.822 -0.2981 -0.7140  0.5053
  673MOL0     C90754   7.931   1.000   7.960 -1.2985  0.4302 -0.0227
  673MOL0     O90755   7.793   0.973   7.999 -0.8481  0.7955 -0.2295
  673MOL0     C90756   7.756   0.912   8.122  0.1007  0.6882  0.1956
  673MOL0     C90757   7.678   0.782   8.087 -0.3094 -0.1618  0.4059
  673MOL0     C90758   7.624   0.703   8.210  0.8884  0.0574  0.0302
  673MOL0     C90759   7.608   0.564   8.166 -0.3501 -1.1964 -0.2282
  673MOL0     C90760   7.588   0.480   8.298  0.2246  0.4898  1.4225
  673MOL0     C90761   7.469   0.518   8.383 -0.0969  1.1836 -1.1327
  673MOL0     C90762   7.333   0.517   8.306 -0.0435 -0.6271  0.7303
  673MOL0     C90763   7.224   0.562   8.401 -0.4632 -0.0751  0.3039
  673MOL0    Cl90764   7.062   0.503   8.352 -0.2438  0.3454 -0.0632
  673MOL0     C90765   8.042   1.008   8.043 -0.8066 -0.1544 -0.1534
  673MOL0     C90766   8.172   1.016   8.001  0.1579  1.4238  1.1709
  673MOL0     O90767   8.404   1.196   7.955  0.2994 -0.1374  0.5682
  673MOL0     C90768   8.582   1.041   7.696  0.8915  0.3666 -0.3397
  673MOL0     C90769   8.710   1.046   7.639  0.6312  0.0869  0.3292
  673MOL0     N90770   9.414   1.185   7.223 -0.1636  0.5701 -0.2911
  673MOL0     N90771   9.393   1.173   7.095  0.9636  0.6860  0.0623
  673MOL0     C90772   9.778   1.167   6.985 -0.6851  0.4628 -0.3516
  673MOL0     C90773   9.768   1.234   7.108  0.2472  0.7367 -0.5870
  673MOL0     C90774  10.066   1.319   7.492 -0.4188 -0.2982  0.4618
  673MOL0     C90775  10.117   1.236   7.597 -0.1835  0.4139  0.7265
  673MOL0     C90776  10.166   1.287   7.714  0.8251  0.3856 -0.8238
  673MOL0     C90777  10.168   1.420   7.746 -0.2863 -1.1164  0.8186
  673MOL0     O90778  10.188   1.483   7.866 -0.0650  0.2989  0.7017
  673MOL0     C90779  10.186   1.393   7.980  0.2200  0.0751  0.9053
  673MOL0     C90780  10.328   1.352   8.018 -0.5995  0.2718  0.8170
  673MOL0     C90781  10.321   1.239   8.125  0.2411 -0.3772 -0.8103
  673MOL0     C90782  10.451   1.198   8.199 -0.1023  0.2233 -1.0809
  673MOL0     C90783  10.425   1.091   8.302  0.0545  0.0544  0.5437
  673MOL0     C90784  10.387   1.004   8.377 -0.0822 -0.3029  0.3903
  673MOL0     C90785  10.121   1.501   7.650 -0.6830 -0.3264  0.8601
  673MOL0     C90786  10.076   1.460   7.522  0.4778 -0.1828  0.2869
  673MOL0     C90787  10.040   1.566   7.417  1.1005 -0.0578  0.4275
  673MOL0     H90788  10.089   1.340   7.113 -0.4590  0.6150  1.3081
  673MOL0     H90789  10.074   1.272   6.873 -0.2103 -0.6296 -2.4029
  673MOL0     H90790  10.050   1.161   6.678  0.5098  0.9500  0.4749
  673MOL0     H90791   9.927   1.092   6.578  2.2798 -0.6202 -0.5441
  673MOL0     H90792   9.927   1.342   6.530  1.0013  0.3760  0.0708
  673MOL0     H90793   9.900   1.375   6.703 -2.9616 -1.6234  1.9326
  673MOL0     H90794   9.701   1.188   6.617  2.0330  0.2279 -0.8060
  673MOL0     H90795   9.704   1.319   6.508  1.6946 -2.9631 -0.9701
  673MOL0     H90796   9.712   1.411   6.798 -1.8154  1.6197  2.1647
  673MOL0     H90797   9.623   1.478   6.665 -1.0842 -0.1567  0.9926
  673MOL0     H90798   9.469   1.266   6.672  3.3207 -1.7211 -1.4117
  673MOL0     H90799   9.543   1.224   6.823  0.6199 -1.7533 -2.2420
  673MOL0     H90800   9.477   1.410   6.959 -0.6172 -0.1627  0.9747
  673MOL0     H90801   9.469   1.511   6.816 -2.0800  0.3806  0.5203
  673MOL0     H90802   9.261   1.394   6.741  1.2208  0.4270  0.0291
  673MOL0     H90803   9.248   1.471   6.908  1.6955  0.0854  1.2053
  673MOL0     H90804   9.139   1.233   6.905 -0.8394  0.0318 -0.0173
  673MOL0     H90805   9.283   1.166   6.855 -0.0171 -1.4144  0.1153
  673MOL0     H90806   9.141   1.367   7.158 -0.6702  0.7640  0.8200
  673MOL0     H90807   9.349   1.274   7.480 -0.6006  0.1181 -0.9461
  673MOL0     H90808   9.323   1.425   7.407 -0.3359 -1.0109 -0.9383
  673MOL0     H90809   9.148   1.308   7.567 -0.3758  0.8582  0.4368
  673MOL0     H90810   9.080   1.374   7.417  0.2616 -0.9027 -1.0580
  673MOL0     H90811   9.157   1.085   7.491  0.0957  0.8393  2.0558
  673MOL0     H90812   9.086   1.129   7.330 -1.1857 -1.8526  0.5930
  673MOL0     H90813   8.945   1.034   7.439  3.4936  0.0856 -2.6259
  673MOL0     H90814   8.892   1.198   7.463  3.0701  1.5186  0.1057
  673MOL0     H90815   8.864   1.211   7.890  0.4961 -0.9606 -0.4179
  673MOL0     H90816   8.634   1.190   7.982 -1.1737 -0.1260 -1.0549
  673MOL0     H90817   8.108   1.024   7.673  1.5619 -4.0654  1.7759
  673MOL0     H90818   7.878   1.011   7.751  0.4802 -2.3670 -0.0337
  673MOL0     H90819   7.836   0.878   8.189 -1.9224 -0.6606  2.0802
  673MOL0     H90820   7.678   0.968   8.174 -0.6202 -0.2007  0.0966
  673MOL0     H90821   7.587   0.816   8.037 -2.8006 -2.2331  3.1875
  673MOL0     H90822   7.729   0.715   8.016  1.1188 -0.5667  1.7576
  673MOL0     H90823   7.702   0.701   8.287  1.5055 -4.1399 -0.4896
  673MOL0     H90824   7.530   0.746   8.247  0.4095 -2.5926  2.2509
  673MOL0     H90825   7.697   0.535   8.110  1.1436  4.7636 -1.6025
  673MOL0     H90826   7.519   0.564   8.102  0.4251  0.8637 -1.3841
  673MOL0     H90827   7.681   0.487   8.354  0.1645  2.5529  1.3476
  673MOL0     H90828   7.586   0.379   8.256  6.2639 -0.0567  1.6187
  673MOL0     H90829   7.462   0.440   8.460  0.4162 -3.4602 -5.2841
  673MOL0     H90830   7.482   0.621   8.418 -0.6680  0.6689  0.7298
  673MOL0     H90831   7.306   0.416   8.277  2.2969 -1.2231  0.3922
  673MOL0     H90832   7.335   0.582   8.218  4.0763 -1.5712 -0.0772
  673MOL0     H90833   7.237   0.522   8.501 -0.7701 -2.4887 -0.5567
  673MOL0     H90834   7.220   0.670   8.420 -0.9151 -0.5806  3.4821
  673MOL0     H90835   8.035   1.005   8.151 -1.6360  2.7703 -0.0429
  673MOL0     H90836   8.241   1.010   8.084  0.0993  0.4328  1.1619
  673MOL0     H90837   8.509   0.974   7.653 -0.4278  1.7070 -0.2510
  673MOL0     H90838   8.713   1.010   7.537 -0.1511  2.5998 -0.6623
  673MOL0     H90839   9.695   1.098   6.976 -1.5285  0.5254  4.4202
  673MOL0     H90840   9.683   1.232   7.175  0.4371 -1.5015 -0.3389
  673MOL0     H90841  10.099   1.130   7.582 -3.0229  0.9077 -0.0481
  673MOL0     H90842  10.181   1.203   7.781  2.2240 -1.3966 -3.2044
  673MOL0     H90843  10.124   1.304   7.966 -0.3746 -0.2697  4.7499
  673MOL0     H90844  10.155   1.437   8.074  4.7578  1.2427  2.1332
  673MOL0     H90845  10.375   1.445   8.050 -1.3787  1.5126 -1.4714
  673MOL0     H90846  10.376   1.304   7.932  0.0419  1.9685  0.1834
  673MOL0     H90847  10.269   1.156   8.077 -1.1908 -1.2842  2.0545
  673MOL0     H90848  10.247   1.269   8.200 -0.2436  1.2054 -1.8744
  673MOL0     H90849  10.530   1.174   8.126 -0.2882 -2.6123 -0.4887
  673MOL0     H90850  10.484   1.286   8.254  2.4507 -1.0519 -0.4123
  673MOL0     H90851  10.335   0.948   8.452 -1.1063 -0.5468 -0.4741
  673MOL0     H90852  10.133   1.608   7.666 -2.1461  0.1780 -1.0717
  673MOL0     H90853  10.064   1.543   7.312 -2.7226  0.7347 -0.7507
  673MOL0     H90854   9.932   1.582   7.412  1.2734  1.1491  0.1785
  673MOL0     H90855  10.089   1.659   7.446 -1.0940  1.5462 -0.7574
  674MOL0     O90856   8.434   6.948   1.056  0.2037 -0.5523  0.7273
  674MOL0     C90857   8.544   7.001   1.080 -0.9322  0.0957  0.8964
  674MOL0     O90858   8.581   7.041   1.201  0.4944  0.3149  1.1065
  674MOL0     C90859   8.490   7.038   1.308  0.0652  0.4854 -0.0503
  674MOL0     C90860   8.524   6.959   1.422  0.9848 -0.6261  0.3958
  674MOL0     C90861   8.438   6.957   1.528 -0.2276  0.2856 -0.1802
  674MOL0     C90862   8.318   7.029   1.527  0.2419  0.0682 -0.2069
  674MOL0     O90863   8.237   7.028   1.640 -0.5229  1.0890  0.3846
  674MOL0     C90864   8.121   7.115   1.646 -0.2990 -0.6174 -0.2677
  674MOL0     C90865   8.072   7.098   1.794 -0.1340 -0.1886  0.8862
  674MOL0     C90866   8.028   6.957   1.846  0.0940  0.7847 -1.1290
  674MOL0     C90867   8.009   6.958   2.000  0.3672 -0.7860 -0.2649
  674MOL0     C90868   8.016   6.809   2.052  0.1101  0.4728 -0.3920
  674MOL0     C90869   7.867   6.751   2.048 -0.3801 -0.3097  0.5773
  674MOL0     C90870   7.853   6.639   2.154 -0.0255  0.2831  0.2920
  674MOL0     C90871   7.869   6.675   2.302 -0.0433  0.5625  0.9114
  674MOL0     N90872   7.799   6.589   2.390  0.2457  0.0896  0.0346
  674MOL0     C90873   7.840   6.462   2.414 -0.5133 -1.1111  0.4327
  674MOL0     C90874   7.746   6.414   2.498 -0.0250 -0.1757 -1.0899
  674MOL0     C90875   7.773   6.285   2.565  0.6144  0.1325 -0.7079
  674MOL0     C90876   7.846   6.308   2.699  0.2205 -0.0479 -0.1896
  674MOL0     C90877   7.857   6.184   2.779 -0.9078  0.6420 -0.3271
  674MOL0     C90878   7.956   6.077   2.747 -0.9058 -0.4443 -0.0017
  674MOL0     O90879   7.925   5.974   2.841 -0.3748  0.2625 -0.6494
  674MOL0     C90880   8.003   5.867   2.844 -0.4625  0.6834 -0.2683
  674MOL0     C90881   8.126   5.849   2.914 -0.1945  0.4877  0.9187
  674MOL0     C90882   8.181   5.708   2.919 -0.6367  0.1681 -0.3199
  674MOL0     C90883   8.114   5.601   2.857  0.2646  0.2317  1.1084
  674MOL0     C90884   8.167   5.463   2.860  0.8294  0.0175 -0.0772
  674MOL0     O90885   8.080   5.363   2.817 -0.6797 -0.7100  0.2896
  674MOL0     C90886   8.107   5.236   2.864 -0.0886 -0.1922 -0.4492
  674MOL0     C90887   8.209   5.170   2.789  0.3870 -0.0092  0.0469
  674MOL0     C90888   8.232   5.036   2.811 -0.4028 -1.0366  0.4289
  674MOL0     C90889   8.148   4.956   2.891 -0.8182  0.3599  0.2495
  674MOL0     O90890   8.163   4.826   2.914 -0.2928 -0.4511 -0.6702
  674MOL0     C90891   8.168   4.748   2.797 -0.6544  0.5179  0.1429
  674MOL0     C90892   8.023   4.744   2.732 -0.4304 -0.9916  0.3311
  674MOL0     C90893   7.935   4.669   2.831  0.2503  0.5583 -0.0273
  674MOL0     C90894   7.804   4.630   2.756 -0.2315 -0.4707 -1.6251
  674MOL0     C90895   7.726   4.525   2.839  0.2712  0.0398 -0.2457
  674MOL0     C90896   7.686   4.568   2.980 -0.3815  1.0614  0.3804
  674MOL0     C90897   7.602   4.455   3.042  0.3147 -0.0815 -0.0176
  674MOL0     C90898   7.463   4.425   2.988  0.3220  0.8385  1.3033
  674MOL0    Cl90899   7.467   4.319   2.851 -0.1243  0.1518 -0.1176
  674MOL0     C90900   8.048   5.021   2.958 -0.0128  0.6968 -0.3722
  674MOL0     C90901   8.029   5.158   2.947  0.2353 -0.2172 -0.3523
  674MOL0     O90902   8.273   5.447   2.915  0.1259  0.5141 -0.2046
  674MOL0     C90903   7.995   5.633   2.793  0.0147  0.5814  0.9843
  674MOL0     C90904   7.952   5.760   2.774  0.0822  0.5436 -0.5555
  674MOL0     N90905   7.657   6.513   2.524  0.3689  0.4966  0.3973
  674MOL0     N90906   7.683   6.624   2.449 -0.0321  0.4496 -0.4986
  674MOL0     C90907   8.295   7.111   1.416 -0.1287 -0.4701  0.5827
  674MOL0     C90908   8.386   7.112   1.309  1.0110 -0.9203  0.0923
  674MOL0     C90909   8.647   6.992   0.974  0.0271  1.5690  0.5614
  674MOL0     C90910   8.783   6.980   1.015  0.5597  0.0018 -0.0347
  674MOL0     C90911   8.882   6.950   0.922 -0.9291 -0.4122 -0.1779
  674MOL0     C90912   8.848   6.929   0.792 -0.5385  0.1624  0.6746
  674MOL0     O90913   8.956   6.897   0.712  0.3008 -0.3994 -0.8865
  674MOL0     C90914   8.932   6.796   0.616  1.2841  0.9480 -0.2151
  674MOL0     C90915   8.882   6.837   0.472 -0.3808  0.1586  0.3104
  674MOL0     C90916   8.739   6.788   0.426  0.5330 -0.4582  0.1087
  674MOL0     C90917   8.736   6.725   0.291  0.2125 -0.2140 -0.2273
  674MOL0     C90918   8.597   6.698   0.255  0.2830 -0.3474  0.2822
  674MOL0     C90919   8.494   6.656   0.218  0.0175  0.3920  0.6078
  674MOL0     C90920   8.716   6.945   0.745  0.0337  0.0078  0.1786
  674MOL0     C90921   8.618   6.985   0.830  0.4241 -0.7784 -0.4596
  674MOL0     C90922   8.474   7.013   0.782  0.0071 -0.1043 -0.1274
  674MOL0     H90923   8.610   6.894   1.432  0.5417 -1.0297  1.9180
  674MOL0     H90924   8.468   6.899   1.615  1.7769  0.2483 -0.8481
  674MOL0     H90925   8.150   7.216   1.615  0.0036 -0.8089 -0.6113
  674MOL0     H90926   8.043   7.081   1.578 -0.7390  2.0312 -1.2143
  674MOL0     H90927   7.996   7.175   1.811  1.3869  2.6321 -3.4635
  674MOL0     H90928   8.160   7.125   1.853  0.1577 -1.2952  0.9855
  674MOL0     H90929   8.108   6.885   1.823  1.9822  1.6833  2.0336
  674MOL0     H90930   7.940   6.923   1.790 -0.5334 -1.1058  0.8619
  674MOL0     H90931   8.088   7.023   2.039  2.8360 -2.1444 -2.6578
  674MOL0     H90932   7.911   7.003   2.016 -0.1421 -2.1174  0.6264
  674MOL0     H90933   8.088   6.743   2.003 -1.7460 -1.2248 -0.9245
  674MOL0     H90934   8.044   6.815   2.158 -2.4106 -2.8717  0.6561
  674MOL0     H90935   7.794   6.823   2.086  0.8090  2.5560 -2.1236
  674MOL0     H90936   7.844   6.727   1.944 -0.5968  2.3924 -0.0615
  674MOL0     H90937   7.930   6.567   2.124  0.5905  1.0943 -0.1102
  674MOL0     H90938   7.759   6.587   2.133 -0.4761  0.8007  0.9763
  674MOL0     H90939   7.977   6.676   2.320  0.4476 -0.5413 -1.5468
  674MOL0     H90940   7.836   6.779   2.309  0.7525  1.0191 -1.3474
  674MOL0     H90941   7.919   6.403   2.369 -0.3904  0.0033 -0.9170
  674MOL0     H90942   7.679   6.230   2.580 -0.3057  2.1966  1.7595
  674MOL0     H90943   7.838   6.229   2.497  0.5446 -0.1718 -0.5267
  674MOL0     H90944   7.938   6.367   2.700 -1.2186  2.3787  1.4501
  674MOL0     H90945   7.782   6.375   2.758  0.4633 -2.1893  2.7295
  674MOL0     H90946   7.757   6.141   2.769 -1.4052  1.5429  0.5922
  674MOL0     H90947   7.879   6.215   2.882 -1.8039  0.3623 -0.0481
  674MOL0     H90948   8.057   6.117   2.762 -0.6788 -1.2131  0.5522
  674MOL0     H90949   7.935   6.040   2.646 -1.9424  0.0850  0.0029
  674MOL0     H90950   8.177   5.925   2.972  0.0006 -0.6166  2.2685
  674MOL0     H90951   8.260   5.684   2.989  0.7324  0.8013 -1.6070
  674MOL0     H90952   8.264   5.226   2.714 -0.1144 -2.0347 -1.9197
  674MOL0     H90953   8.309   4.990   2.749 -1.4778  1.2958 -2.9327
  674MOL0     H90954   8.244   4.786   2.728  1.7363 -2.7386  0.7452
  674MOL0     H90955   8.196   4.643   2.808  0.7943  0.7890 -0.7549
  674MOL0     H90956   8.001   4.850   2.716  2.8325  0.1312  2.3335
  674MOL0     H90957   8.019   4.690   2.637 -2.2242 -1.9251  0.8816
  674MOL0     H90958   7.978   4.580   2.879  0.0439  0.4026 -0.1302
  674MOL0     H90959   7.905   4.742   2.907 -0.3771  0.9956 -0.6861
  674MOL0     H90960   7.834   4.580   2.664  2.0801  0.7348 -1.5976
  674MOL0     H90961   7.737   4.715   2.744  0.7419  1.4524  3.8444
  674MOL0     H90962   7.775   4.428   2.846 -1.1395 -0.5782  2.1506
  674MOL0     H90963   7.635   4.499   2.783 -1.1825 -0.6386  2.2626
  674MOL0     H90964   7.777   4.598   3.035  0.4703  3.1902 -1.9808
  674MOL0     H90965   7.633   4.659   2.953 -3.3109 -0.7356 -0.3137
  674MOL0     H90966   7.597   4.477   3.149 -1.6412 -4.2210  0.9171
  674MOL0     H90967   7.648   4.356   3.033 -0.0600 -0.1456 -1.4592
  674MOL0     H90968   7.399   4.371   3.058 -1.9606  0.6041 -0.8524
  674MOL0     H90969   7.410   4.519   2.967 -1.4601 -0.6032 -1.1673
  674MOL0     H90970   7.979   4.965   3.020 -1.7780  2.3671 -0.7059
  674MOL0     H90971   7.943   5.203   2.997 -1.6919  0.2741 -3.7711
  674MOL0     H90972   7.924   5.563   2.751 -2.5342  2.3080  2.1077
  674MOL0     H90973   7.856   5.771   2.725 -0.7721 -3.1833 -0.0788
  674MOL0     H90974   8.219   7.188   1.418  2.0245  1.7921  0.0580
  674MOL0     H90975   8.376   7.183   1.228  0.1182 -0.6577  0.4202
  674MOL0     H90976   8.818   7.001   1.115 -1.9163 -1.3990  1.2337
  674MOL0     H90977   8.983   6.934   0.959  0.1187  0.5899 -2.3965
  674MOL0     H90978   8.864   6.717   0.650  1.6570  1.3598  1.5936
  674MOL0     H90979   9.032   6.753   0.598  1.1889  0.5440  0.2072
  674MOL0     H90980   8.966   6.807   0.409 -1.4053 -0.1906 -0.9339
  674MOL0     H90981   8.886   6.946   0.461  1.0183  0.1065  0.1497
  674MOL0     H90982   8.683   6.882   0.423  3.1212  1.1826 -0.0372
  674MOL0     H90983   8.705   6.718   0.502  2.9949 -3.1551 -1.0951
  674MOL0     H90984   8.767   6.793   0.210 -2.4120 -1.1424 -2.1732
  674MOL0     H90985   8.790   6.631   0.303 -2.2365 -1.2921  4.7902
  674MOL0     H90986   8.405   6.613   0.178 -0.0278  0.4614  0.6347
  674MOL0     H90987   8.703   6.947   0.637 -1.2504  0.6156  0.3293
  674MOL0     H90988   8.466   7.049   0.679  0.5764 -1.7443 -0.7819
  674MOL0     H90989   8.431   6.912   0.788  4.1663 -2.0146  1.2001
  674MOL0     H90990   8.420   7.078   0.851 -1.4783 -0.6678 -0.6915
  675MOL0     O90991  10.105   2.776   4.872  0.1443  0.2618 -0.0128
  675MOL0     C90992  10.148   2.745   4.758  0.0072  0.7552 -0.7728
  675MOL0     O90993  10.263   2.798   4.692 -0.8652  0.5069 -0.5954
  675MOL0     C90994  10.350   2.882   4.745 -0.1381  0.0483  0.5805
  675MOL0     C90995  10.355   3.019   4.701 -0.3184  0.0454 -0.6753
  675MOL0     C90996  10.445   3.115   4.766 -0.1322  0.2704  0.6188
  675MOL0     C90997  10.527   3.075   4.864 -0.9184  0.4671 -0.3871
  675MOL0     O90998  10.609   3.165   4.918  0.5075 -0.1364 -0.0245
  675MOL0     C90999  10.704   3.133   5.019 -0.2852 -0.6247  0.7566
  675MOL0     C91000  10.778   3.259   5.054 -0.7691 -1.2301 -0.3946
  675MOL0     C91001  10.916   3.238   5.103 -0.9098  0.0019  0.3945
  675MOL0     C91002  10.996   3.365   5.138 -1.6689 -0.9036 -0.1980
  675MOL0     C91003  11.021   3.453   5.013  0.0798  0.3484  0.1489
  675MOL0     C91004  11.092   3.588   5.050  0.0922  0.1945  0.1895
  675MOL0     C91005  11.077   3.680   4.928 -0.7588  1.1590  0.1556
  675MOL0     C91006  11.164   3.806   4.933 -0.1474 -0.0756 -0.1389
  675MOL0     N91007  11.103   3.921   5.001 -0.5141 -0.2206  0.2224
  675MOL0     C91008  10.975   3.971   4.966 -0.1375 -0.1924  1.0750
  675MOL0     C91009  10.973   4.083   5.056 -0.4287 -0.1530 -0.4981
  675MOL0     C91010  10.878   4.194   5.072  0.7688  0.4633 -1.0984
  675MOL0     C91011  10.750   4.138   5.121  0.0089 -1.3353 -0.4507
  675MOL0     C91012  10.637   4.243   5.132 -0.7186 -1.1258  0.0160
  675MOL0     C91013  10.610   4.304   5.272 -0.1984  0.0123 -1.0923
  675MOL0     O91014  10.734   4.361   5.334  0.4529  0.7973 -0.4888
  675MOL0     C91015  10.727   4.456   5.431 -0.2218 -0.3441  0.9215
  675MOL0     C91016  10.602   4.513   5.471 -0.0349  0.5850 -0.4510
  675MOL0     C91017  10.609   4.627   5.554  0.2013 -0.3232  0.3711
  675MOL0     C91018  10.725   4.695   5.594  0.0197 -0.8301 -0.9012
  675MOL0     C91019  10.713   4.812   5.686  0.3926 -0.5396  0.2788
  675MOL0     O91020  10.585   4.838   5.722 -0.5855  0.5934  0.5210
  675MOL0     C91021  10.575   4.954   5.791  0.0084  0.6266  0.2021
  675MOL0     C91022  10.625   4.966   5.921 -0.0591  0.7658  0.4209
  675MOL0     C91023  10.596   5.079   6.007 -0.4759 -0.1491 -0.1480
  675MOL0     C91024  10.535   5.193   5.948 -0.8815 -0.3267 -0.2120
  675MOL0     O91025  10.510   5.293   6.032  0.2886 -0.9142  0.5554
  675MOL0     C91026  10.418   5.392   5.986 -0.3706  0.6410  0.6200
  675MOL0     C91027  10.393   5.513   6.075 -0.2086  0.3712 -0.0793
  675MOL0     C91028  10.365   5.474   6.217 -0.3491 -0.3807  0.8231
  675MOL0     C91029  10.377   5.590   6.318  0.3876 -0.1657  0.3102
  675MOL0     C91030  10.275   5.697   6.286 -0.7155  0.0151  0.5250
  675MOL0     C91031  10.125   5.656   6.288 -0.0877 -0.0419  0.1418
  675MOL0     C91032  10.035   5.791   6.293 -0.1579  0.6338  1.1972
  675MOL0     C91033   9.923   5.805   6.184 -0.5427  0.4856 -0.5883
  675MOL0    Cl91034   9.817   5.667   6.215 -0.0452 -0.2011  0.0190
  675MOL0     C91035  10.500   5.190   5.808  0.2040 -0.4643  0.3104
  675MOL0     C91036  10.518   5.069   5.731  0.2124  0.0896 -0.5844
  675MOL0     O91037  10.814   4.859   5.739 -0.1780  0.7380 -0.4133
  675MOL0     C91038  10.848   4.641   5.554 -0.8646 -1.7658  0.6581
  675MOL0     C91039  10.845   4.523   5.467 -1.1474 -0.3648 -0.0238
  675MOL0     N91040  11.087   4.079   5.141 -0.7391 -0.3293 -0.2657
  675MOL0     N91041  11.168   3.984   5.104  0.2733  0.6462  0.0879
  675MOL0     C91042  10.526   2.939   4.911 -0.8468  0.0961 -0.3312
  675MOL0     C91043  10.435   2.847   4.852 -0.3540  0.3786  0.6063
  675MOL0     C91044  10.061   2.651   4.684  0.2167  1.3067 -0.1652
  675MOL0     C91045   9.966   2.567   4.753  0.1244 -1.3751 -0.3477
  675MOL0     C91046   9.882   2.477   4.690  0.0567 -0.3633  0.7837
  675MOL0     C91047   9.890   2.454   4.550 -0.0388  0.4584  0.8520
  675MOL0     O91048   9.798   2.370   4.492  0.0170 -0.2424  0.0738
  675MOL0     C91049   9.699   2.426   4.412 -0.9678 -0.6630 -0.5702
  675MOL0     C91050   9.655   2.570   4.438 -0.1110  0.1183  0.7957
  675MOL0     C91051   9.521   2.604   4.352 -0.3458 -0.1531  0.8138
  675MOL0     C91052   9.539   2.614   4.200  0.7626  0.2339  0.2247
  675MOL0     C91053   9.618   2.731   4.158  0.5932  0.1019  0.8038
  675MOL0     C91054   9.667   2.839   4.142 -0.0955  0.2848  0.9615
  675MOL0     C91055   9.983   2.528   4.475  0.9651  0.1635  1.4290
  675MOL0     C91056  10.071   2.622   4.541 -0.1277 -0.6080 -0.0945
  675MOL0     C91057  10.160   2.706   4.445 -0.5844 -0.0019  0.2898
  675MOL0     H91058  10.289   3.052   4.621  0.6851  0.5882 -1.3069
  675MOL0     H91059  10.447   3.214   4.723 -1.7906  0.3276  0.6106
  675MOL0     H91060  10.651   3.096   5.107  0.3603  1.2919  2.0211
  675MOL0     H91061  10.772   3.055   4.984 -1.8228 -1.1368 -1.2601
  675MOL0     H91062  10.719   3.301   5.136 -0.0065 -0.3172 -0.3019
  675MOL0     H91063  10.786   3.334   4.975 -0.1992  1.4700  2.0442
  675MOL0     H91064  10.986   3.196   5.030  0.5836  0.1823  1.6651
  675MOL0     H91065  10.903   3.174   5.191  1.4823 -0.7171  0.2951
  675MOL0     H91066  10.951   3.423   5.219 -0.3621  0.4829 -0.4244
  675MOL0     H91067  11.095   3.344   5.179 -2.1409 -1.7748  0.5356
  675MOL0     H91068  11.090   3.406   4.942  0.0112 -0.7578  0.7865
  675MOL0     H91069  10.928   3.485   4.965 -0.6538  0.4783  1.6157
  675MOL0     H91070  11.050   3.632   5.140  3.2456 -1.1428  2.5016
  675MOL0     H91071  11.194   3.571   5.083  0.3392  1.3090  0.0406
  675MOL0     H91072  10.970   3.701   4.922 -1.4440 -1.6313  0.9953
  675MOL0     H91073  11.108   3.620   4.842 -0.3240  1.7342 -0.0994
  675MOL0     H91074  11.268   3.789   4.962  0.3107  0.5130 -1.3716
  675MOL0     H91075  11.175   3.822   4.825 -1.1988 -1.8122 -0.5526
  675MOL0     H91076  10.905   3.943   4.888 -0.5090 -0.3390  1.4515
  675MOL0     H91077  10.907   4.257   5.157  1.2543 -0.9236 -0.1997
  675MOL0     H91078  10.867   4.262   4.987  3.1670 -0.1439 -1.9576
  675MOL0     H91079  10.722   4.060   5.050  0.6818 -1.1016 -0.9794
  675MOL0     H91080  10.765   4.085   5.215 -0.9309  2.6352  2.1897
  675MOL0     H91081  10.548   4.188   5.099 -0.9771 -1.0231  0.5342
  675MOL0     H91082  10.646   4.314   5.049 -0.9430 -0.8309  0.2433
  675MOL0     H91083  10.590   4.219   5.337  2.2591  0.5015  0.4388
  675MOL0     H91084  10.527   4.375   5.272  0.9106  1.3730 -0.3505
  675MOL0     H91085  10.509   4.463   5.445  0.3290 -0.7749  0.7421
  675MOL0     H91086  10.510   4.659   5.584 -0.0265  0.1490 -0.8233
  675MOL0     H91087  10.662   4.877   5.971  2.8733  0.0266 -2.6865
  675MOL0     H91088  10.621   5.074   6.113 -1.4387 -0.7952  0.0549
  675MOL0     H91089  10.453   5.437   5.893 -1.2142  1.1647  0.5460
  675MOL0     H91090  10.323   5.340   5.968  0.9102 -0.8027 -2.8972
  675MOL0     H91091  10.479   5.578   6.054 -2.4869  2.9336 -2.2010
  675MOL0     H91092  10.304   5.562   6.037 -0.8565 -1.1337 -0.5882
  675MOL0     H91093  10.268   5.424   6.214  0.1562 -1.5482 -3.6544
  675MOL0     H91094  10.437   5.400   6.254 -0.0083 -0.9333 -0.8110
  675MOL0     H91095  10.477   5.636   6.319  0.7655 -0.8661 -1.8300
  675MOL0     H91096  10.350   5.543   6.413  1.6530 -1.6996 -0.0477
  675MOL0     H91097  10.304   5.749   6.195  0.9096  4.5293  3.3164
  675MOL0     H91098  10.285   5.776   6.361  0.7679 -1.3359  1.8379
  675MOL0     H91099  10.101   5.601   6.196 -2.1717  0.1067  0.5458
  675MOL0     H91100  10.098   5.595   6.375 -0.0905 -1.4049 -0.7783
  675MOL0     H91101  10.101   5.879   6.287 -0.4676  0.9745  2.4603
  675MOL0     H91102   9.980   5.781   6.387 -1.6482 -1.6293  0.1695
  675MOL0     H91103   9.876   5.902   6.205 -0.5779  0.7077 -1.6149
  675MOL0     H91104   9.961   5.802   6.082  1.8912  2.2698  0.1656
  675MOL0     H91105  10.452   5.268   5.750 -1.7230 -3.6821 -2.8396
  675MOL0     H91106  10.469   5.054   5.636 -0.8039 -0.7132  0.0423
  675MOL0     H91107  10.940   4.690   5.584 -0.7372 -1.4333 -0.2526
  675MOL0     H91108  10.932   4.470   5.430 -0.9901 -1.2346  1.5114
  675MOL0     H91109  10.588   2.906   4.994 -2.2020 -0.0447  0.6691
  675MOL0     H91110  10.431   2.744   4.885 -5.1539 -0.8975 -2.8016
  675MOL0     H91111   9.957   2.572   4.861 -4.7808  0.3271 -0.5813
  675MOL0     H91112   9.811   2.411   4.740  2.1946 -0.1782  4.4696
  675MOL0     H91113   9.609   2.364   4.405 -2.1270  1.1087 -2.6511
  675MOL0     H91114   9.759   2.430   4.320 -0.0728  0.0227  0.0303
  675MOL0     H91115   9.735   2.641   4.413 -1.1305  0.1502 -2.9724
  675MOL0     H91116   9.629   2.582   4.544 -0.5073  0.4749  0.6589
  675MOL0     H91117   9.474   2.695   4.391  3.0419  1.8493  0.6571
  675MOL0     H91118   9.439   2.535   4.374  2.5218 -3.1483  2.9332
  675MOL0     H91119   9.584   2.519   4.172 -0.4557 -0.4159  0.4161
  675MOL0     H91120   9.442   2.621   4.149 -0.5282 -1.3935  2.2972
  675MOL0     H91121   9.728   2.927   4.138  2.3727 -1.2360  2.4475
  675MOL0     H91122   9.985   2.513   4.367  1.2002  2.9120  0.9757
  675MOL0     H91123  10.160   2.813   4.469  2.5888 -0.4609  2.9834
  675MOL0     H91124  10.262   2.670   4.455  0.2243  1.2319 -2.5394
  675MOL0     H91125  10.136   2.687   4.340 -0.3740 -0.1901  0.2751
  676MOL0     O91126   3.710  10.427   6.005  0.2695  1.6267 -0.8386
  676MOL0     C91127   3.647  10.480   5.916  0.9775  0.1391 -0.6414
  676MOL0     O91128   3.677  10.610   5.881  0.7224 -0.6224  0.1180
  676MOL0     C91129   3.759  10.684   5.967 -0.5623  0.4471 -0.9239
  676MOL0     C91130   3.896  10.696   5.945 -0.2700 -0.3696  0.0810
  676MOL0     C91131   3.993  10.747   6.041  0.8232  0.0285 -0.6952
  676MOL0     C91132   3.952  10.803   6.165  0.5444  0.0448 -0.8487
  676MOL0     O91133   4.049  10.853   6.253 -0.0967  0.1862 -0.3258
  676MOL0     C91134   4.031  10.846   6.394 -0.1039 -0.6031 -0.3777
  676MOL0     C91135   4.163  10.831   6.475  0.2723  0.5222  0.4609
  676MOL0     C91136   4.257  10.731   6.408  0.5002  0.2142  0.0515
  676MOL0     C91137   4.208  10.592   6.432 -0.6416 -0.8646 -0.2060
  676MOL0     C91138   4.307  10.496   6.373 -0.6237  0.0994  0.0292
  676MOL0     C91139   4.422  10.459   6.463  1.7022 -0.9171 -0.2419
  676MOL0     C91140   4.537  10.404   6.379  0.2049 -0.1953 -0.5019
  676MOL0     C91141   4.654  10.342   6.464 -0.0680 -1.0038 -0.7930
  676MOL0     N91142   4.756  10.271   6.380  0.3998 -0.8567  0.0525
  676MOL0     C91143   4.832  10.174   6.428  0.8654  0.4824  0.0341
  676MOL0     C91144   4.911  10.149   6.326 -0.4952 -0.1679 -0.2235
  676MOL0     C91145   5.003  10.040   6.301 -0.1583 -0.5510  0.2923
  676MOL0     C91146   4.955   9.899   6.334  0.5523 -0.1753 -0.6993
  676MOL0     C91147   5.035   9.789   6.245  0.1231  0.1326 -0.3094
  676MOL0     C91148   5.183   9.789   6.283 -0.0529 -0.4784 -0.2628
  676MOL0     O91149   5.213   9.830   6.416  0.3064  0.4709  0.0434
  676MOL0     C91150   5.238   9.728   6.507  0.0989 -0.5351 -0.5303
  676MOL0     C91151   5.259   9.769   6.635  0.2924 -1.0064 -0.3039
  676MOL0     C91152   5.296   9.682   6.734  0.8665  0.5877 -0.9132
  676MOL0     C91153   5.283   9.545   6.717 -0.6836  0.3136 -0.4780
  676MOL0     C91154   5.306   9.451   6.829  0.2184 -0.7051 -0.1934
  676MOL0     O91155   5.237   9.336   6.825 -0.5809  0.0492  1.2789
  676MOL0     C91156   5.229   9.267   6.938  0.6643 -0.4402 -1.0009
  676MOL0     C91157   5.147   9.299   7.042  0.3625  1.1408  0.8741
  676MOL0     C91158   5.144   9.225   7.162 -1.2484 -0.2265 -0.7960
  676MOL0     C91159   5.233   9.126   7.189 -0.3311  1.1019  0.7160
  676MOL0     O91160   5.264   9.067   7.311  0.2947  0.3877 -0.0951
  676MOL0     C91161   5.151   9.043   7.403 -0.0585  0.4591 -0.0303
  676MOL0     C91162   5.146   8.898   7.471 -0.3995  0.6561  0.4959
  676MOL0     C91163   5.256   8.866   7.580  0.3931 -0.0986  0.6248
  676MOL0     C91164   5.291   8.722   7.580  0.1566 -0.2171 -0.8906
  676MOL0     C91165   5.404   8.692   7.676  0.4054  0.9464  0.1283
  676MOL0     C91166   5.551   8.743   7.623 -0.1983 -0.7887 -0.5059
  676MOL0     C91167   5.592   8.883   7.687 -0.0342  0.0953 -0.1638
  676MOL0     C91168   5.735   8.896   7.626 -0.1681 -0.0268 -0.7269
  676MOL0    Cl91169   5.731   8.938   7.453  0.0549  0.2278 -0.5555
  676MOL0     C91170   5.302   9.069   7.076 -0.5718  0.2381 -1.0162
  676MOL0     C91171   5.303   9.146   6.952  0.9644  0.5035 -0.4648
  676MOL0     O91172   5.381   9.480   6.929 -0.1770  0.2150 -0.1293
  676MOL0     C91173   5.260   9.493   6.590  0.8038 -0.0961 -1.0813
  676MOL0     C91174   5.232   9.584   6.488 -0.9939  0.1768 -0.2354
  676MOL0     N91175   4.903  10.248   6.227 -0.0441  0.5826  0.0571
  676MOL0     N91176   4.809  10.325   6.263  0.8707 -0.5714  0.4475
  676MOL0     C91177   3.809  10.807   6.175  0.8230 -0.2778 -0.4098
  676MOL0     C91178   3.713  10.750   6.085  0.2331 -0.3311  0.5048
  676MOL0     C91179   3.526  10.413   5.873  0.2331 -0.0865  0.0273
  676MOL0     C91180   3.405  10.470   5.909  0.4892  0.0144  0.2219
  676MOL0     C91181   3.286  10.418   5.860  0.3303 -0.0887  0.5074
  676MOL0     C91182   3.285  10.315   5.760  0.2515 -0.9962 -0.3546
  676MOL0     O91183   3.173  10.274   5.690  0.2794 -0.4878 -1.2319
  676MOL0     C91184   3.052  10.346   5.716 -0.6475 -0.2804 -0.8898
  676MOL0     C91185   2.952  10.273   5.634  0.1735 -0.4253  0.4650
  676MOL0     C91186   2.937  10.122   5.665 -0.9821  0.8331  0.1512
  676MOL0     C91187   2.818  10.048   5.605  0.0504 -0.7118 -0.4083
  676MOL0     C91188   2.829  10.021   5.460  0.1914 -0.1623  0.5009
  676MOL0     C91189   2.818   9.994   5.345 -0.3351 -0.2596 -0.1977
  676MOL0     C91190   3.404  10.261   5.732 -0.7663  0.0150 -0.0378
  676MOL0     C91191   3.520  10.308   5.785 -1.3372 -1.2942 -0.2864
  676MOL0     C91192   3.631  10.215   5.770  0.1505 -0.6519 -0.0135
  676MOL0     H91193   3.937  10.652   5.855 -3.6189 -0.1006 -1.7507
  676MOL0     H91194   4.100  10.763   6.029  1.4145 -0.3171  2.9866
  676MOL0     H91195   3.985  10.942   6.422  0.2639 -0.3921 -0.4879
  676MOL0     H91196   3.960  10.771   6.429 -0.6536  0.1807  0.2382
  676MOL0     H91197   4.141  10.795   6.575 -1.8727  0.4867  0.0169
  676MOL0     H91198   4.208  10.930   6.487  1.4377 -0.1599  2.0275
  676MOL0     H91199   4.364  10.747   6.428  0.6436 -1.5389  0.7939
  676MOL0     H91200   4.266  10.739   6.299  5.0402  2.0463  0.2987
  676MOL0     H91201   4.210  10.586   6.541  1.9304  2.1338  0.0643
  676MOL0     H91202   4.113  10.561   6.388  0.7433 -2.8821 -2.0135
  676MOL0     H91203   4.258  10.399   6.362 -2.0589  0.5162  2.2537
  676MOL0     H91204   4.349  10.529   6.277 -0.6982  1.5361  0.4802
  676MOL0     H91205   4.449  10.541   6.529  3.9518 -1.3531 -0.5434
  676MOL0     H91206   4.395  10.374   6.526 -2.4960  1.2876  1.3320
  676MOL0     H91207   4.586  10.482   6.319 -0.6563  1.3673  0.7433
  676MOL0     H91208   4.502  10.331   6.305  0.7977 -0.3993 -0.5877
  676MOL0     H91209   4.697  10.425   6.522  3.8973 -0.7179 -3.7509
  676MOL0     H91210   4.599  10.268   6.524 -0.0772  0.7490  1.5241
  676MOL0     H91211   4.810  10.104   6.507 -0.4519 -0.7070 -1.3348
  676MOL0     H91212   5.044  10.053   6.200  1.3235  1.5612  1.1001
  676MOL0     H91213   5.091  10.060   6.363  3.1606  0.0887 -4.1033
  676MOL0     H91214   4.961   9.877   6.441  1.1696  4.1083  0.3638
  676MOL0     H91215   4.851   9.890   6.304  0.0909  5.1845 -1.6913
  676MOL0     H91216   5.040   9.810   6.138  3.7371  0.9248 -0.1296
  676MOL0     H91217   4.982   9.695   6.264 -1.4990  1.2213  0.8098
  676MOL0     H91218   5.220   9.880   6.235  2.8359 -0.2519  2.1386
  676MOL0     H91219   5.234   9.701   6.241  0.5887  0.6623 -2.0093
  676MOL0     H91220   5.275   9.873   6.659 -0.5098 -0.9961  0.2244
  676MOL0     H91221   5.310   9.713   6.837 -1.7944 -2.3534  0.4853
  676MOL0     H91222   5.090   9.391   7.044 -0.2387  0.7754  0.6908
  676MOL0     H91223   5.078   9.255   7.243  0.3478 -2.3697  1.4716
  676MOL0     H91224   5.143   9.122   7.478  2.0413 -1.1773  2.0820
  676MOL0     H91225   5.063   9.041   7.338 -0.0259 -0.5396 -0.0674
  676MOL0     H91226   5.040   8.879   7.492 -0.5431 -2.3474 -2.0964
  676MOL0     H91227   5.162   8.820   7.396  0.7182  0.7591  0.6145
  676MOL0     H91228   5.340   8.929   7.549 -1.1490  1.3760 -0.8236
  676MOL0     H91229   5.208   8.897   7.673 -2.0921 -1.9538  0.0573
  676MOL0     H91230   5.314   8.690   7.478 -0.8433  1.6732 -1.7464
  676MOL0     H91231   5.203   8.662   7.606 -1.8799  2.8237 -0.3313
  676MOL0     H91232   5.404   8.583   7.673 -2.5132  0.8762 -0.6984
  676MOL0     H91233   5.377   8.732   7.774  0.5860  0.2508  0.4665
  676MOL0     H91234   5.633   8.678   7.654  0.8062  1.5241  2.0629
  676MOL0     H91235   5.547   8.752   7.514 -1.4938  1.1702 -0.3403
  676MOL0     H91236   5.602   8.871   7.795  0.7411 -1.2564 -0.3652
  676MOL0     H91237   5.525   8.966   7.662 -1.6179 -1.4655 -1.4788
  676MOL0     H91238   5.778   8.981   7.679 -1.2277  0.7135 -1.0251
  676MOL0     H91239   5.796   8.805   7.629  0.7462  0.5956 -0.0918
  676MOL0     H91240   5.359   8.977   7.084  2.0247  1.7852 -0.5324
  676MOL0     H91241   5.350   9.106   6.863 -1.8700 -2.4789 -0.8036
  676MOL0     H91242   5.254   9.387   6.572 -0.4960 -0.1876 -0.2568
  676MOL0     H91243   5.219   9.541   6.389 -0.0070  0.7794 -0.6511
  676MOL0     H91244   3.760  10.857   6.258 -1.1959 -2.0291 -0.4655
  676MOL0     H91245   3.605  10.744   6.095  0.0249 -0.0366 -1.3371
  676MOL0     H91246   3.402  10.562   5.965 -0.5338 -0.2819  0.6834
  676MOL0     H91247   3.195  10.441   5.914 -0.8388  0.8952 -1.7603
  676MOL0     H91248   3.060  10.452   5.691  0.6860 -0.3466 -0.8139
  676MOL0     H91249   3.032  10.337   5.823  4.3788  0.0243  0.2935
  676MOL0     H91250   2.969  10.283   5.526  1.0903  1.9312  0.7781
  676MOL0     H91251   2.858  10.326   5.650 -0.3073 -0.9319 -0.5784
  676MOL0     H91252   2.925  10.120   5.774 -1.5934  0.2748  0.0793
  676MOL0     H91253   3.023  10.065   5.630 -1.0099  1.0274 -0.2372
  676MOL0     H91254   2.798   9.956   5.661 -3.0466 -0.5612 -1.0834
  676MOL0     H91255   2.736  10.119   5.617 -0.0318 -0.9984  0.8833
  676MOL0     H91256   2.804   9.987   5.238  0.8995 -3.3118 -0.2676
  676MOL0     H91257   3.395  10.179   5.662  1.3689 -2.4616  2.3580
  676MOL0     H91258   3.706  10.221   5.850 -0.2195  2.9605  0.2266
  676MOL0     H91259   3.591  10.113   5.764 -2.0839  0.1885 -0.1943
  676MOL0     H91260   3.680  10.240   5.675  1.5482 -1.3765  0.4854
  677MOL0     O91261   8.986   5.516   7.046  0.3624 -1.4625 -0.6732
  677MOL0     C91262   8.984   5.634   7.078  0.9341  0.2433  0.1011
  677MOL0     O91263   8.998   5.683   7.210  0.2292  0.2200 -0.0366
  677MOL0     C91264   9.039   5.599   7.316 -0.5498 -0.2591  0.2471
  677MOL0     C91265   8.956   5.591   7.426  1.1766  0.4553  0.7624
  677MOL0     C91266   8.994   5.508   7.540 -0.2117 -0.1289 -0.0800
  677MOL0     C91267   9.097   5.415   7.528  0.8118 -0.0019  0.0901
  677MOL0     O91268   9.129   5.321   7.624  0.4609  0.6087 -0.0217
  677MOL0     C91269   9.067   5.308   7.754  1.2288 -0.2665  0.2073
  677MOL0     C91270   8.910   5.254   7.740 -0.7061 -0.3633  0.5042
  677MOL0     C91271   8.880   5.103   7.751 -1.0195 -1.2016  0.2246
  677MOL0     C91272   8.956   5.013   7.639  0.8627 -0.0598 -0.3452
  677MOL0     C91273   8.944   4.868   7.674  0.9270  0.2396 -1.0796
  677MOL0     C91274   9.043   4.790   7.589  0.4398  0.3391 -0.4829
  677MOL0     C91275   9.065   4.640   7.639 -0.1001  0.2686 -0.5333
  677MOL0     C91276   9.175   4.583   7.554  1.1750  0.8557  0.5497
  677MOL0     N91277   9.206   4.452   7.613  0.8263 -0.4527  0.7960
  677MOL0     C91278   9.237   4.431   7.751  1.3284 -0.2845  1.2639
  677MOL0     C91279   9.214   4.302   7.759  0.7782 -0.6551  0.0467
  677MOL0     C91280   9.240   4.228   7.880 -0.3048 -0.0752 -0.7225
  677MOL0     C91281   9.123   4.178   7.961  0.7635 -0.6801 -0.0330
  677MOL0     C91282   9.176   4.089   8.076  0.0953 -0.6929  0.3123
  677MOL0     C91283   9.055   4.039   8.159  0.8964 -0.9934 -1.0581
  677MOL0     O91284   9.071   4.087   8.295 -0.4114 -0.2646  0.2966
  677MOL0     C91285   9.026   4.012   8.402  0.4570  0.0453  0.1201
  677MOL0     C91286   9.082   4.023   8.531 -0.5751 -0.3650 -0.6074
  677MOL0     C91287   9.038   3.948   8.641  1.1108  0.0782 -0.7296
  677MOL0     C91288   8.930   3.851   8.625  0.0982 -0.6008  0.1884
  677MOL0     C91289   8.862   3.772   8.733  0.0446  0.6186  0.2117
  677MOL0     O91290   8.934   3.793   8.851 -0.3161 -0.3865  0.4117
  677MOL0     C91291   8.910   3.732   8.972  0.4457  0.5444  0.0941
  677MOL0     C91292   8.957   3.781   9.089 -0.6051  0.4334 -0.5465
  677MOL0     C91293   8.942   3.725   9.218 -0.4490 -0.6165  0.4855
  677MOL0     C91294   8.867   3.608   9.239 -0.1437 -0.5380  0.6384
  677MOL0     O91295   8.855   3.543   9.365  0.8924 -0.4873  0.9809
  677MOL0     C91296   8.824   3.407   9.372  0.0608  1.3918  0.3742
  677MOL0     C91297   8.676   3.371   9.382  0.3225 -0.2379  0.0048
  677MOL0     C91298   8.606   3.416   9.521  0.2300 -0.0054 -0.6111
  677MOL0     C91299   8.461   3.473   9.483  0.7262  0.3354 -0.1662
  677MOL0     C91300   8.373   3.476   9.613 -0.2143  0.0613 -0.4542
  677MOL0     C91301   8.225   3.441   9.574  0.2004  0.2193 -0.7414
  677MOL0     C91302   8.122   3.473   9.682 -0.0258  0.2570  0.7331
  677MOL0     C91303   8.112   3.356   9.787  0.5506  0.8844  0.0818
  677MOL0    Cl91304   8.029   3.215   9.705 -0.4704 -0.0045 -0.0049
  677MOL0     C91305   8.804   3.563   9.128  0.5023 -0.0898  0.4758
  677MOL0     C91306   8.829   3.616   8.998  0.3162 -1.0989  0.1964
  677MOL0     O91307   8.768   3.692   8.708  0.3923  1.3145 -1.3126
  677MOL0     C91308   8.876   3.844   8.497  0.1372  0.3043  1.1837
  677MOL0     C91309   8.911   3.927   8.393 -0.6296  0.3160  0.4632
  677MOL0     N91310   9.166   4.245   7.641  0.9866  0.0340  0.3945
  677MOL0     N91311   9.158   4.338   7.555 -0.3951 -0.4027  0.4144
  677MOL0     C91312   9.170   5.410   7.410  0.3820 -0.2471  0.7940
  677MOL0     C91313   9.147   5.505   7.311 -0.1898 -0.0969  0.0885
  677MOL0     C91314   8.930   5.724   6.970  0.5495 -0.6117 -0.5755
  677MOL0     C91315   8.846   5.831   7.011 -0.9697 -0.3008  0.0074
  677MOL0     C91316   8.786   5.924   6.921 -0.3341 -0.0153  0.7904
  677MOL0     C91317   8.826   5.921   6.785  0.2668 -0.4112 -0.9567
  677MOL0     O91318   8.786   6.016   6.703  0.2777  0.7328  0.3054
  677MOL0     C91319   8.646   6.021   6.671 -0.4656 -0.6543 -0.3945
  677MOL0     C91320   8.637   5.933   6.549 -1.3371  0.6637  0.0691
  677MOL0     C91321   8.500   5.932   6.484  0.4005 -0.1922  0.9429
  677MOL0     C91322   8.457   6.057   6.395 -0.1497  0.4954 -0.4920
  677MOL0     C91323   8.517   6.084   6.265 -1.2915  0.0809  0.7822
  677MOL0     C91324   8.557   6.093   6.154  0.7447 -0.5876  0.7126
  677MOL0     C91325   8.908   5.812   6.746 -0.1472 -0.2206  0.3046
  677MOL0     C91326   8.959   5.710   6.831  0.6177 -0.4891  0.0183
  677MOL0     C91327   9.070   5.623   6.780 -0.2545  0.2816 -0.8863
  677MOL0     H91328   8.866   5.651   7.438 -0.3562 -1.2904 -1.2918
  677MOL0     H91329   8.941   5.505   7.635  0.8418  0.9449  0.5709
  677MOL0     H91330   9.120   5.228   7.807  4.1783  1.0447 -0.5815
  677MOL0     H91331   9.044   5.405   7.798 -2.2468 -1.9050  2.4689
  677MOL0     H91332   8.875   5.277   7.638  1.5081 -2.7632 -0.9177
  677MOL0     H91333   8.845   5.306   7.811  0.7049 -2.0533  3.1876
  677MOL0     H91334   8.772   5.097   7.734 -1.1966 -2.3174  1.5980
  677MOL0     H91335   8.908   5.076   7.853 -2.6899 -0.5520  0.9010
  677MOL0     H91336   8.898   5.018   7.547  0.9877  1.3957 -0.3629
  677MOL0     H91337   9.059   5.040   7.614  1.2471 -0.9237  0.2587
  677MOL0     H91338   8.951   4.857   7.783 -3.8825  0.6049 -0.5257
  677MOL0     H91339   8.843   4.833   7.655  0.8265  0.0115 -0.1894
  677MOL0     H91340   9.003   4.788   7.486  0.0771 -0.7813 -0.3291
  677MOL0     H91341   9.132   4.853   7.578  0.6123 -0.2923 -3.8929
  677MOL0     H91342   8.974   4.579   7.634  0.6080 -0.7423 -1.8251
  677MOL0     H91343   9.100   4.646   7.742  0.2188  0.7491 -0.6658
  677MOL0     H91344   9.146   4.575   7.449  1.0815 -1.6641  0.7106
  677MOL0     H91345   9.258   4.654   7.551  1.2188  0.7837 -2.1270
  677MOL0     H91346   9.259   4.510   7.822 -3.2020  1.9350  0.5512
  677MOL0     H91347   9.292   4.139   7.845 -0.6626  0.8524 -3.9482
  677MOL0     H91348   9.304   4.291   7.942  2.0544 -1.3390 -1.7274
  677MOL0     H91349   9.065   4.267   7.988 -0.4606 -0.4324 -3.1002
  677MOL0     H91350   9.048   4.129   7.898  0.6694  2.2745 -2.4668
  677MOL0     H91351   9.244   4.148   8.138  0.2348 -0.6169  0.0863
  677MOL0     H91352   9.225   3.998   8.040 -1.1988 -1.2005 -0.2099
  677MOL0     H91353   9.069   3.931   8.169  2.7926 -0.7155 -0.4351
  677MOL0     H91354   8.956   4.054   8.114  1.2649 -2.6842 -2.5391
  677MOL0     H91355   9.170   4.083   8.552  1.0557 -2.2924 -1.5713
  677MOL0     H91356   9.080   3.969   8.739 -0.9908 -2.2888  0.7892
  677MOL0     H91357   9.005   3.877   9.073  0.3560  0.3468  1.5372
  677MOL0     H91358   8.999   3.756   9.304 -0.2341 -0.9700  0.4701
  677MOL0     H91359   8.869   3.358   9.284  2.4779 -2.5810  3.4828
  677MOL0     H91360   8.875   3.364   9.458  0.9370 -1.7128 -1.5322
  677MOL0     H91361   8.628   3.416   9.295  2.3955  0.6989 -0.7194
  677MOL0     H91362   8.679   3.261   9.385 -2.2578 -0.3354  2.4794
  677MOL0     H91363   8.608   3.339   9.599  1.6439  1.1829  0.5692
  677MOL0     H91364   8.657   3.502   9.565  1.9273 -1.7527  1.1002
  677MOL0     H91365   8.417   3.413   9.403  3.3247 -1.9562 -0.0533
  677MOL0     H91366   8.462   3.575   9.444 -3.6977  0.1893 -1.1575
  677MOL0     H91367   8.369   3.570   9.668  0.3149 -2.2966  4.1191
  677MOL0     H91368   8.425   3.426   9.696 -0.5904  4.7868  3.0029
  677MOL0     H91369   8.207   3.498   9.482 -0.8689 -0.2711 -0.8562
  677MOL0     H91370   8.208   3.335   9.551 -2.6488  0.7795 -1.6415
  677MOL0     H91371   8.023   3.501   9.646  1.7805  2.5064 -3.0201
  677MOL0     H91372   8.157   3.557   9.743 -1.2574 -2.1407  5.2609
  677MOL0     H91373   8.206   3.328   9.836  1.1344  2.6999  0.0464
  677MOL0     H91374   8.050   3.386   9.872  0.6723  2.2047 -0.2763
  677MOL0     H91375   8.741   3.476   9.147  1.6693 -1.9854 -3.2503
  677MOL0     H91376   8.789   3.564   8.911 -1.8237 -0.3083  0.6387
  677MOL0     H91377   8.796   3.773   8.482  0.6121 -0.4509  2.1174
  677MOL0     H91378   8.861   3.928   8.296 -0.0589  0.4385  0.1632
  677MOL0     H91379   9.251   5.337   7.407  0.3257 -0.2854  0.0519
  677MOL0     H91380   9.209   5.505   7.223  1.6142  0.5082  1.3123
  677MOL0     H91381   8.841   5.837   7.119 -0.2886 -2.8633  0.2490
  677MOL0     H91382   8.734   6.013   6.953  0.6864  0.6718  0.5996
  677MOL0     H91383   8.622   6.124   6.647 -0.1684  0.0982  2.2621
  677MOL0     H91384   8.583   5.981   6.751 -1.4397  2.2971  0.4144
  677MOL0     H91385   8.667   5.830   6.571 -0.2723  0.0560 -3.6684
  677MOL0     H91386   8.717   5.974   6.486 -0.5280  1.7113  1.6947
  677MOL0     H91387   8.422   5.904   6.556 -2.8006 -1.4030 -2.6044
  677MOL0     H91388   8.502   5.841   6.423  0.5187 -0.7466  1.7609
  677MOL0     H91389   8.351   6.047   6.369  0.0560  2.5792 -2.4329
  677MOL0     H91390   8.446   6.145   6.459 -0.9376  2.0196 -2.6286
  677MOL0     H91391   8.589   6.114   6.054 -2.2150 -2.0247 -0.6816
  677MOL0     H91392   8.944   5.817   6.644  1.7764 -1.0664  0.9000
  677MOL0     H91393   9.047   5.524   6.820 -2.8546  0.7907 -0.9489
  677MOL0     H91394   9.076   5.630   6.671 -3.0996  0.8648 -1.0876
  677MOL0     H91395   9.162   5.659   6.826 -1.1055 -0.3524  1.4161
  678MOL0     O91396   8.999   2.004   1.521  0.0702  0.1275 -0.2496
  678MOL0     C91397   9.071   1.991   1.626  0.5524 -0.1765  0.5275
  678MOL0     O91398   9.034   2.007   1.756  0.2584 -0.1848  0.4772
  678MOL0     C91399   8.894   1.989   1.766 -0.2723  0.9025 -0.9301
  678MOL0     C91400   8.825   1.880   1.728  0.4227  0.8808  0.1184
  678MOL0     C91401   8.686   1.865   1.745 -0.4165 -0.2607 -0.7377
  678MOL0     C91402   8.610   1.966   1.790 -0.0607  0.3628  0.7276
  678MOL0     O91403   8.472   1.950   1.806  0.2652  1.1174  0.2181
  678MOL0     C91404   8.415   2.024   1.912 -0.0829  0.8690 -0.4899
  678MOL0     C91405   8.274   1.964   1.942 -0.2386 -0.2549 -0.5849
  678MOL0     C91406   8.281   1.808   1.972 -0.2128  0.6325 -0.6384
  678MOL0     C91407   8.191   1.751   2.081  0.3347 -0.2548  0.8387
  678MOL0     C91408   8.048   1.778   2.057 -0.1160  0.5000 -0.5948
  678MOL0     C91409   7.975   1.711   2.177 -0.4007  0.3830 -0.1514
  678MOL0     C91410   7.821   1.691   2.155  0.1946 -0.2982  0.4230
  678MOL0     C91411   7.764   1.671   2.294 -0.6289 -0.7982  0.4072
  678MOL0     N91412   7.619   1.667   2.295 -0.0535  0.4012 -1.1674
  678MOL0     C91413   7.532   1.727   2.204 -0.0533  0.2388 -0.2038
  678MOL0     C91414   7.412   1.676   2.236 -0.1645 -0.8651 -0.4707
  678MOL0     C91415   7.282   1.690   2.158  0.2488 -0.1137  0.0188
  678MOL0     C91416   7.146   1.695   2.246 -0.7677 -0.4899 -0.6111
  678MOL0     C91417   7.096   1.575   2.321  0.3104 -0.1390  0.0154
  678MOL0     C91418   7.029   1.463   2.244 -0.4884  0.2235  0.6173
  678MOL0     O91419   6.903   1.495   2.180 -0.8165 -0.2310 -1.0531
  678MOL0     C91420   6.802   1.517   2.263 -0.3735  0.2899 -0.2445
  678MOL0     C91421   6.791   1.476   2.401  0.8619  0.4400  0.2518
  678MOL0     C91422   6.675   1.498   2.483 -0.3117  0.3680 -0.5830
  678MOL0     C91423   6.565   1.565   2.432  0.3932 -0.0786  0.1008
  678MOL0     C91424   6.447   1.583   2.518  1.4032 -0.4106 -0.5259
  678MOL0     O91425   6.437   1.499   2.635 -0.1610 -1.0568  0.2143
  678MOL0     C91426   6.322   1.514   2.714 -0.9575 -0.1573 -0.1318
  678MOL0     C91427   6.256   1.636   2.755 -0.8982  0.9058  0.8090
  678MOL0     C91428   6.138   1.630   2.819 -1.4800  0.9696 -0.3845
  678MOL0     C91429   6.091   1.508   2.869  0.6867 -0.5066 -0.2179
  678MOL0     O91430   5.974   1.497   2.933  0.9941 -0.5263 -0.1006
  678MOL0     C91431   5.954   1.586   3.056 -0.9208 -0.6785  0.8261
  678MOL0     C91432   5.863   1.529   3.151 -0.4632 -1.3927 -0.6908
  678MOL0     C91433   5.931   1.423   3.237 -0.1257 -0.3386 -0.5802
  678MOL0     C91434   5.910   1.460   3.385  0.0420  0.9536 -0.0123
  678MOL0     C91435   5.963   1.369   3.494  0.1669  0.5673 -0.5286
  678MOL0     C91436   5.960   1.446   3.626  0.8802 -0.4822  0.4648
  678MOL0     C91437   5.993   1.366   3.746  0.1398  0.8954 -0.3536
  678MOL0     C91438   6.072   1.448   3.847 -0.2138 -0.7042 -0.6852
  678MOL0    Cl91439   5.973   1.590   3.914  0.1393  0.1956  0.0029
  678MOL0     C91440   6.146   1.389   2.841 -0.1727  0.2820  1.0373
  678MOL0     C91441   6.263   1.394   2.765 -0.0844  0.3532  0.3613
  678MOL0     O91442   6.363   1.666   2.479 -0.9287 -0.5496  0.6952
  678MOL0     C91443   6.565   1.594   2.294  0.1293 -0.3676 -0.9028
  678MOL0     C91444   6.689   1.582   2.214 -0.4226 -0.1927 -0.1835
  678MOL0     N91445   7.420   1.600   2.357  0.4979 -0.0423 -0.3575
  678MOL0     N91446   7.543   1.602   2.390 -0.9515  0.0029 -0.1248
  678MOL0     C91447   8.683   2.082   1.827 -0.3451  1.0770  0.0138
  678MOL0     C91448   8.812   2.091   1.815  0.1514 -0.9850  0.0139
  678MOL0     C91449   9.213   1.959   1.599  0.2724  0.3036 -0.1247
  678MOL0     C91450   9.269   1.839   1.648  0.5285 -0.3850  0.1257
  678MOL0     C91451   9.396   1.789   1.605 -0.0539 -0.6425  0.1456
  678MOL0     C91452   9.461   1.867   1.507  0.0813  1.7632 -0.2508
  678MOL0     O91453   9.578   1.832   1.434  0.5845  0.3776  0.5903
  678MOL0     C91454   9.644   1.716   1.484  0.6870 -0.1574  0.3767
  678MOL0     C91455   9.582   1.586   1.428 -0.5884 -0.6222  1.0361
  678MOL0     C91456   9.600   1.562   1.269  0.1255  0.1012 -0.3338
  678MOL0     C91457   9.750   1.530   1.231  0.5122 -0.6001  0.6044
  678MOL0     C91458   9.781   1.399   1.285  0.7861  0.3874 -0.4433
  678MOL0     C91459   9.807   1.291   1.329  0.0955 -0.5189 -0.5884
  678MOL0     C91460   9.410   1.991   1.459 -0.6829  0.2085  0.0585
  678MOL0     C91461   9.284   2.035   1.506  0.4323 -0.2310 -0.3469
  678MOL0     C91462   9.235   2.175   1.456 -0.9712  1.0216  0.7560
  678MOL0     H91463   8.881   1.804   1.674 -2.0008 -0.0137 -1.2717
  678MOL0     H91464   8.630   1.773   1.729 -0.8466 -0.3765  1.2409
  678MOL0     H91465   8.468   2.021   2.008 -3.0988 -0.9072  1.2673
  678MOL0     H91466   8.399   2.127   1.881 -1.3607  0.7302 -0.3438
  678MOL0     H91467   8.209   1.979   1.855 -0.4221 -0.8826 -0.5600
  678MOL0     H91468   8.222   2.016   2.023  0.3439 -3.3566  1.9609
  678MOL0     H91469   8.381   1.793   2.014 -1.3511 -3.1550  1.2289
  678MOL0     H91470   8.265   1.750   1.881  6.1388  0.5172 -2.1420
  678MOL0     H91471   8.195   1.642   2.086 -2.2810 -0.5542 -1.2547
  678MOL0     H91472   8.219   1.796   2.176 -0.0866 -0.9709  1.3134
  678MOL0     H91473   8.036   1.886   2.061  3.9290  1.1443 -1.9356
  678MOL0     H91474   8.011   1.739   1.962  1.5660 -0.6493 -0.8184
  678MOL0     H91475   8.015   1.612   2.200  4.0010  2.5912  3.2932
  678MOL0     H91476   7.993   1.781   2.260  1.0062 -1.5804  1.2828
  678MOL0     H91477   7.814   1.603   2.091  4.1762 -1.1340  0.8460
  678MOL0     H91478   7.766   1.772   2.106 -1.0690 -0.7530  1.0544
  678MOL0     H91479   7.802   1.575   2.330  4.0477  1.5565  2.6455
  678MOL0     H91480   7.790   1.743   2.372 -0.3051  0.3324 -0.7147
  678MOL0     H91481   7.553   1.787   2.116 -3.3491 -0.1223 -1.3857
  678MOL0     H91482   7.290   1.777   2.092  0.0637  1.8475  2.4363
  678MOL0     H91483   7.270   1.608   2.086 -1.2766  0.6232 -0.6155
  678MOL0     H91484   7.163   1.781   2.311 -0.3216  0.0158 -1.3789
  678MOL0     H91485   7.067   1.729   2.179  0.1023  2.1040 -0.4345
  678MOL0     H91486   7.022   1.602   2.397 -0.3481 -0.1418 -0.6053
  678MOL0     H91487   7.181   1.527   2.368 -0.8747 -1.4413  0.9161
  678MOL0     H91488   7.019   1.377   2.311 -0.9544 -0.0883  0.1617
  678MOL0     H91489   7.095   1.437   2.161 -1.6632  3.4597 -1.5357
  678MOL0     H91490   6.866   1.407   2.439  0.7540 -0.3640 -0.9577
  678MOL0     H91491   6.689   1.463   2.585  0.5449 -0.3161 -0.9205
  678MOL0     H91492   6.296   1.735   2.733 -0.2023  1.1325  2.8516
  678MOL0     H91493   6.090   1.720   2.857 -0.2211  0.7890  1.8270
  678MOL0     H91494   6.048   1.608   3.108 -0.3625  2.8357 -1.3402
  678MOL0     H91495   5.906   1.678   3.022 -3.2499 -2.0779  0.1083
  678MOL0     H91496   5.829   1.603   3.224 -1.6367 -3.2451  0.7125
  678MOL0     H91497   5.772   1.488   3.106 -0.6820 -1.3006 -0.3321
  678MOL0     H91498   5.873   1.331   3.225 -1.7783  0.2069  2.3697
  678MOL0     H91499   6.038   1.409   3.217  0.9761  3.1697  1.8863
  678MOL0     H91500   5.802   1.458   3.400  0.2233 -1.9460  1.7854
  678MOL0     H91501   5.950   1.561   3.401 -0.8379  1.1572  1.0457
  678MOL0     H91502   6.067   1.336   3.478 -0.0151  0.2953 -1.1877
  678MOL0     H91503   5.902   1.279   3.509  1.4244  0.1130  2.7745
  678MOL0     H91504   6.024   1.534   3.621  1.9279 -1.1818  1.3444
  678MOL0     H91505   5.860   1.490   3.638  1.0608  0.3497 -0.8481
  678MOL0     H91506   6.061   1.282   3.733 -0.0784  0.7395 -0.4838
  678MOL0     H91507   5.902   1.324   3.788  0.8694 -0.3780 -0.0147
  678MOL0     H91508   6.095   1.373   3.924 -1.1914  0.0137  0.3273
  678MOL0     H91509   6.159   1.494   3.800 -1.8161  2.3336 -0.9188
  678MOL0     H91510   6.095   1.298   2.871  1.2184 -0.8806  0.0624
  678MOL0     H91511   6.307   1.300   2.733 -1.5560  0.1268 -1.1129
  678MOL0     H91512   6.490   1.653   2.243  1.3315  0.3511 -1.8860
  678MOL0     H91513   6.697   1.595   2.107 -2.1565 -0.9667 -0.4497
  678MOL0     H91514   8.619   2.155   1.876 -3.4558  0.6693 -2.9656
  678MOL0     H91515   8.856   2.182   1.856  0.4935 -0.8232 -0.7008
  678MOL0     H91516   9.217   1.784   1.727 -0.9454  0.4219 -0.2452
  678MOL0     H91517   9.438   1.692   1.631  2.5448 -0.2458 -2.0268
  678MOL0     H91518   9.640   1.702   1.593 -1.2015 -4.9244 -0.0295
  678MOL0     H91519   9.750   1.727   1.460  1.4873 -2.0157  2.6901
  678MOL0     H91520   9.474   1.603   1.430 -0.5554  1.1535 -3.0552
  678MOL0     H91521   9.616   1.494   1.477 -1.3725 -2.0121 -0.8551
  678MOL0     H91522   9.554   1.646   1.217  2.5810  1.7921  0.0803
  678MOL0     H91523   9.544   1.473   1.237  1.5138 -0.5723 -0.9887
  678MOL0     H91524   9.770   1.537   1.124  2.4235  4.6282  1.0205
  678MOL0     H91525   9.823   1.588   1.289  1.0571 -3.0679  2.5964
  678MOL0     H91526   9.825   1.199   1.379  3.4517 -1.0048 -2.3695
  678MOL0     H91527   9.469   2.032   1.378  3.0930 -0.2879  2.3057
  678MOL0     H91528   9.327   2.235   1.446  0.4734 -1.1302  0.4136
  678MOL0     H91529   9.192   2.170   1.356  0.3777  0.9590  0.1515
  678MOL0     H91530   9.166   2.221   1.527 -0.8148 -0.4381  1.8970
  679MOL0     O91531   2.003   3.132   0.051  0.2317 -0.2895 -0.3930
  679MOL0     C91532   2.030   3.235  -0.010 -0.4788  0.1135 -0.1577
  679MOL0     O91533   2.151   3.299  -0.009  0.4553 -0.2904 -0.4725
  679MOL0     C91534   2.245   3.258   0.082  1.1240 -0.2529 -0.4211
  679MOL0     C91535   2.278   3.336   0.186 -0.9638 -0.8702  0.5973
  679MOL0     C91536   2.378   3.295   0.280 -0.1483  0.5814  0.1972
  679MOL0     C91537   2.431   3.165   0.274 -0.2251 -0.2552  0.3052
  679MOL0     O91538   2.521   3.128   0.374 -0.3166  0.1906  0.2021
  679MOL0     C91539   2.546   2.993   0.422 -0.2852 -0.1366 -0.1371
  679MOL0     C91540   2.694   2.953   0.421  0.3483 -0.2336  0.0407
  679MOL0     C91541   2.783   3.028   0.533 -0.4028  0.4140 -0.2192
  679MOL0     C91542   2.929   2.983   0.537 -0.6211 -0.1893 -0.4098
  679MOL0     C91543   2.958   2.868   0.634  0.1742  0.0458  0.2323
  679MOL0     C91544   3.110   2.824   0.637  0.0269  0.5249 -0.4394
  679MOL0     C91545   3.143   2.719   0.759  0.1596  0.3040 -0.2537
  679MOL0     C91546   3.145   2.788   0.892 -1.0065 -0.6438  1.0780
  679MOL0     N91547   3.263   2.894   0.896 -0.3591  0.4045  0.4523
  679MOL0     C91548   3.393   2.851   0.904 -0.1073  1.1525 -0.1416
  679MOL0     C91549   3.463   2.964   0.902 -0.4356  0.4861  0.6944
  679MOL0     C91550   3.608   2.965   0.891 -0.4921  0.2059  0.8012
  679MOL0     C91551   3.654   3.076   0.980 -0.6626 -0.2254  0.1696
  679MOL0     C91552   3.802   3.121   0.948 -0.1224  1.0644 -0.8761
  679MOL0     C91553   3.865   3.226   1.044  0.1246  0.3404  0.2315
  679MOL0     O91554   3.818   3.236   1.172  0.3476  0.4008  0.5562
  679MOL0     C91555   3.792   3.128   1.256  0.3644 -1.0401  0.7623
  679MOL0     C91556   3.866   3.014   1.251 -0.0783  0.6831 -0.1062
  679MOL0     C91557   3.825   2.905   1.327  0.2907  0.2421  0.7471
  679MOL0     C91558   3.708   2.905   1.395 -0.1872 -0.5020 -1.4663
  679MOL0     C91559   3.647   2.782   1.439  0.2577 -0.4156 -0.1753
  679MOL0     O91560   3.688   2.667   1.378  0.1806 -0.2623 -0.2255
  679MOL0     C91561   3.656   2.546   1.443 -0.6802  0.3307  0.4512
  679MOL0     C91562   3.713   2.507   1.563  0.0697  0.2717  0.2312
  679MOL0     C91563   3.694   2.379   1.619  0.2647 -0.2139  0.5324
  679MOL0     C91564   3.594   2.297   1.564 -0.3255  0.4167 -0.3565
  679MOL0     O91565   3.567   2.173   1.606  0.2148 -0.5424  0.1823
  679MOL0     C91566   3.683   2.086   1.618  0.2606 -0.1006  0.6444
  679MOL0     C91567   3.719   2.026   1.483  0.5014 -0.0057  0.3552
  679MOL0     C91568   3.809   2.106   1.391 -0.0903  0.0922  0.2584
  679MOL0     C91569   3.834   2.009   1.275  0.1869  0.4609  0.2717
  679MOL0     C91570   3.943   2.047   1.171 -0.0962  0.6794 -0.6719
  679MOL0     C91571   3.930   1.957   1.053  0.0550 -0.3125 -0.2061
  679MOL0     C91572   4.011   2.018   0.938  0.3471 -0.0793  0.8771
  679MOL0     C91573   4.028   1.931   0.818 -0.8909 -0.1663  0.3864
  679MOL0    Cl91574   3.866   1.869   0.771  0.0474 -0.0513  0.0183
  679MOL0     C91575   3.522   2.344   1.456  0.6533 -0.2974 -0.6157
  679MOL0     C91576   3.559   2.461   1.389 -0.6553 -0.4433 -0.0752
  679MOL0     O91577   3.554   2.793   1.524  0.1876  0.3877  0.5025
  679MOL0     C91578   3.646   3.034   1.424  0.3886  0.4589 -0.4467
  679MOL0     C91579   3.692   3.143   1.354  0.4872  0.6865 -1.3261
  679MOL0     N91580   3.375   3.071   0.901 -1.1588  0.0792  0.7612
  679MOL0     N91581   3.254   3.027   0.890 -0.5256 -0.1297 -0.6849
  679MOL0     C91582   2.391   3.082   0.168 -0.4144 -0.4487 -0.0379
  679MOL0     C91583   2.288   3.129   0.078 -0.2100  0.2309  0.2036
  679MOL0     C91584   1.924   3.286  -0.110 -0.7283  0.1256  0.4647
  679MOL0     C91585   1.974   3.391  -0.190 -0.8703 -0.4788 -0.4509
  679MOL0     C91586   1.884   3.452  -0.282 -0.5717 -0.1693 -0.3539
  679MOL0     C91587   1.750   3.407  -0.298 -0.4107  0.4243  0.0732
  679MOL0     O91588   1.664   3.448  -0.391  1.3153 -0.2069  0.5464
  679MOL0     C91589   1.695   3.558  -0.479  1.0159 -0.4061 -0.1888
  679MOL0     C91590   1.600   3.548  -0.604  1.3399 -0.3337  0.5143
  679MOL0     C91591   1.585   3.688  -0.671 -0.3158 -0.3946  0.5181
  679MOL0     C91592   1.714   3.734  -0.761 -0.0241  0.4307  0.1080
  679MOL0     C91593   1.741   3.640  -0.873  0.5307  0.3313 -0.0307
  679MOL0     C91594   1.757   3.558  -0.970 -0.9006  0.0463 -0.5118
  679MOL0     C91595   1.713   3.300  -0.218  0.3941  1.0730  1.2933
  679MOL0     C91596   1.798   3.232  -0.128 -0.1053 -0.0637 -0.9664
  679MOL0     C91597   1.738   3.115  -0.057  0.1971 -0.0648 -0.1000
  679MOL0     H91598   2.219   3.426   0.200 -1.7119 -1.3418  0.5155
  679MOL0     H91599   2.409   3.355   0.365  1.0935 -1.5315  1.3261
  679MOL0     H91600   2.498   2.972   0.518 -0.8346 -1.1992 -0.6203
  679MOL0     H91601   2.497   2.927   0.349  0.1352  0.4151 -0.9253
  679MOL0     H91602   2.746   2.961   0.325  2.9677  1.3569  1.4624
  679MOL0     H91603   2.694   2.846   0.443  2.1138 -0.9228 -2.7324
  679MOL0     H91604   2.745   3.004   0.633 -0.6885 -0.3833 -0.5161
  679MOL0     H91605   2.773   3.130   0.496 -0.7962 -0.9272 -4.3622
  679MOL0     H91606   2.955   2.947   0.438 -1.7023 -3.1668  0.3006
  679MOL0     H91607   2.980   3.078   0.557 -1.4757  0.2023  0.0039
  679MOL0     H91608   2.945   2.915   0.732  0.5773 -1.0949  0.8533
  679MOL0     H91609   2.892   2.781   0.623  0.5888 -0.1926 -0.4317
  679MOL0     H91610   3.141   2.775   0.544  1.4966 -2.5272  1.4906
  679MOL0     H91611   3.178   2.908   0.653  0.3861  0.1514  0.0062
  679MOL0     H91612   3.241   2.673   0.739 -0.4149  0.0248 -2.8346
  679MOL0     H91613   3.070   2.638   0.761 -2.9197  2.7772 -2.5325
  679MOL0     H91614   3.053   2.842   0.916 -0.2386  2.0211 -1.3394
  679MOL0     H91615   3.167   2.710   0.966  1.0909 -2.1742 -0.9993
  679MOL0     H91616   3.434   2.750   0.908  1.7456  1.7792 -1.7156
  679MOL0     H91617   3.674   2.878   0.905  1.4633  1.0080 -2.5234
  679MOL0     H91618   3.637   3.002   0.793  0.6970 -0.1103  1.0130
  679MOL0     H91619   3.588   3.159   0.955  0.3398  0.1443 -1.4317
  679MOL0     H91620   3.637   3.047   1.084 -3.4992  0.4208 -0.0342
  679MOL0     H91621   3.804   3.157   0.845  0.9828  0.0874 -1.2077
  679MOL0     H91622   3.868   3.034   0.950 -2.4934 -0.8336 -0.8521
  679MOL0     H91623   3.861   3.319   0.988  1.3417 -1.5937 -3.3696
  679MOL0     H91624   3.972   3.203   1.046 -0.2196 -1.5967 -0.8219
  679MOL0     H91625   3.952   2.999   1.186  1.2234 -3.2515  2.1703
  679MOL0     H91626   3.878   2.810   1.329 -0.9031 -0.4727 -0.2893
  679MOL0     H91627   3.782   2.578   1.608 -0.3481 -1.4282  3.9787
  679MOL0     H91628   3.736   2.339   1.711  0.2487  1.1880  1.1652
  679MOL0     H91629   3.768   2.143   1.657 -1.4809  2.0957  1.5224
  679MOL0     H91630   3.662   2.008   1.692  2.2151  0.6618  2.1165
  679MOL0     H91631   3.761   1.927   1.500 -3.0859 -1.6416  0.3873
  679MOL0     H91632   3.628   2.007   1.425  0.2537  0.5540  0.5462
  679MOL0     H91633   3.760   2.197   1.355 -2.9823 -1.6752 -0.5934
  679MOL0     H91634   3.907   2.119   1.438  0.8605 -0.6561 -1.4324
  679MOL0     H91635   3.741   1.995   1.219 -0.7405  1.9442  1.3654
  679MOL0     H91636   3.862   1.908   1.304 -0.7120  0.8578  2.7319
  679MOL0     H91637   4.040   2.039   1.222  0.3771  1.1430 -1.4801
  679MOL0     H91638   3.920   2.147   1.134 -1.9438  0.5242 -0.0476
  679MOL0     H91639   3.974   1.860   1.079  3.5539  1.1605 -0.0740
  679MOL0     H91640   3.822   1.954   1.033 -0.0553 -0.1111  0.3643
  679MOL0     H91641   4.112   2.053   0.961  1.7759 -1.3812 -2.6782
  679MOL0     H91642   3.952   2.103   0.902 -1.0718 -1.5966 -0.5848
  679MOL0     H91643   4.068   1.985   0.732  0.1569  1.5256  1.8617
  679MOL0     H91644   4.101   1.852   0.840  2.6142  2.4823 -0.9962
  679MOL0     H91645   3.459   2.273   1.404  1.3683  0.9884 -3.3816
  679MOL0     H91646   3.485   2.493   1.317  1.5801  3.1049 -1.0543
  679MOL0     H91647   3.568   3.047   1.499 -1.4438 -3.2450 -1.4259
  679MOL0     H91648   3.657   3.246   1.355 -0.3919  0.4022 -1.5094
  679MOL0     H91649   2.429   2.981   0.153  3.0466  0.5827  0.7221
  679MOL0     H91650   2.247   3.063   0.002  4.8917 -1.7844 -1.2158
  679MOL0     H91651   2.070   3.441  -0.184 -3.2600  4.4768  1.3108
  679MOL0     H91652   1.920   3.526  -0.352 -0.0126  0.8056  0.9317
  679MOL0     H91653   1.802   3.555  -0.504  1.0634 -1.2259  0.0916
  679MOL0     H91654   1.669   3.650  -0.426 -1.8935 -1.4968  0.4399
  679MOL0     H91655   1.503   3.512  -0.569  1.9129 -2.2429  0.2454
  679MOL0     H91656   1.641   3.470  -0.669 -1.2120 -2.4470  1.2678
  679MOL0     H91657   1.566   3.762  -0.593  0.5950  1.5665 -1.0345
  679MOL0     H91658   1.498   3.686  -0.738 -0.2265  1.1852  0.3195
  679MOL0     H91659   1.708   3.840  -0.789 -0.9099  0.2235 -0.5338
  679MOL0     H91660   1.798   3.741  -0.692  2.1188  3.9063 -2.4770
  679MOL0     H91661   1.772   3.485  -1.046 -3.0358 -0.4027 -0.5411
  679MOL0     H91662   1.612   3.269  -0.243  0.7777  2.0794 -1.9754
  679MOL0     H91663   1.693   3.143   0.039  2.0004 -0.5445  0.9399
  679MOL0     H91664   1.654   3.082  -0.119 -0.2512  2.1968 -0.7752
  679MOL0     H91665   1.800   3.030  -0.028 -2.0892 -2.4359 -1.7127
  680MOL0     O91666   7.119   8.621   9.651 -0.0447 -0.2280  0.1441
  680MOL0     C91667   7.197   8.607   9.742 -0.0158  0.1149  0.1625
  680MOL0     O91668   7.163   8.604   9.878 -0.5268 -1.3161  1.1937
  680MOL0     C91669   7.037   8.641   9.930 -0.0432 -0.2908 -0.9526
  680MOL0     C91670   6.963   8.537   9.993 -1.0327 -0.1997  0.5639
  680MOL0     C91671   6.839   8.570  10.054 -0.2541 -0.1091 -0.1173
  680MOL0     C91672   6.789   8.694  10.059 -0.8627  0.2967  0.3303
  680MOL0     O91673   6.663   8.704  10.122  0.5553 -0.6960  0.1393
  680MOL0     C91674   6.597   8.831  10.112 -0.5708 -0.2441  0.2222
  680MOL0     C91675   6.450   8.809  10.147  0.6876  0.0428 -0.2493
  680MOL0     C91676   6.421   8.805  10.304  0.0387  0.1021 -0.5145
  680MOL0     C91677   6.449   8.671  10.363 -0.4555  1.0876 -0.2952
  680MOL0     C91678   6.342   8.627  10.470  0.0238 -0.4196  1.1943
  680MOL0     C91679   6.382   8.504  10.546 -0.2571 -0.0685 -0.1820
  680MOL0     C91680   6.289   8.488  10.675  0.8901 -0.6869  0.0744
  680MOL0     C91681   6.175   8.388  10.630 -1.0003  0.0130  0.4463
  680MOL0     N91682   6.068   8.386  10.728  0.1917  0.2238 -0.7075
  680MOL0     C91683   6.035   8.283  10.819 -0.5775 -0.4704 -0.0630
  680MOL0     C91684   5.939   8.327  10.905 -0.6054  0.5125  0.7490
  680MOL0     C91685   5.885   8.259  11.027  0.7841  0.6812  0.0085
  680MOL0     C91686   5.858   8.112  11.023  0.8200  0.3111 -0.1255
  680MOL0     C91687   5.707   8.084  10.977  0.2534  0.5380  0.5077
  680MOL0     C91688   5.700   8.105  10.824  0.6865  0.0073  0.4922
  680MOL0     O91689   5.794   8.020  10.757  0.1307 -0.8408 -0.4942
  680MOL0     C91690   5.799   8.022  10.622  0.1811  0.2924 -0.0009
  680MOL0     C91691   5.671   8.015  10.549 -0.3823 -0.2011  0.0136
  680MOL0     C91692   5.677   7.993  10.410  0.7426  0.0470  1.0625
  680MOL0     C91693   5.798   8.001  10.340 -0.8024  0.2407  0.2885
  680MOL0     C91694   5.796   7.995  10.187 -0.6578 -0.5511 -0.9628
  680MOL0     O91695   5.681   8.031  10.119 -0.0169 -0.3053  0.6519
  680MOL0     C91696   5.699   8.048   9.983 -0.3511 -0.1990  0.1073
  680MOL0     C91697   5.678   8.177   9.923 -0.0364 -0.0967  0.2466
  680MOL0     C91698   5.703   8.206   9.789  0.3266 -0.8672 -0.8710
  680MOL0     C91699   5.739   8.109   9.704 -0.1103 -0.2581  0.6465
  680MOL0     O91700   5.756   8.142   9.571  0.3340 -0.6818  0.1317
  680MOL0     C91701   5.740   8.026   9.486 -0.2350 -0.1846  0.7118
  680MOL0     C91702   5.728   8.071   9.338  0.3455 -0.2384  0.1949
  680MOL0     C91703   5.750   7.960   9.241 -0.2234  0.0574 -0.8870
  680MOL0     C91704   5.758   8.003   9.094 -0.4674  0.3242 -0.3870
  680MOL0     C91705   5.625   8.026   9.038  0.4384  0.5483  0.6587
  680MOL0     C91706   5.614   8.088   8.899  0.1910  0.0513  0.1331
  680MOL0     C91707   5.471   8.134   8.852 -0.4334 -0.9400 -0.6013
  680MOL0     C91708   5.370   8.029   8.797 -0.0805 -1.0834  1.3187
  680MOL0    Cl91709   5.414   7.965   8.636  0.2669 -0.4065 -0.0386
  680MOL0     C91710   5.757   7.979   9.758 -0.5024  0.4411  0.3950
  680MOL0     C91711   5.733   7.947   9.894 -0.0270 -0.1134 -0.1484
  680MOL0     O91712   5.910   7.976  10.137 -0.1529  0.3405 -0.1494
  680MOL0     C91713   5.922   8.014  10.413  0.7362 -0.5921  0.3152
  680MOL0     C91714   5.916   8.019  10.553  0.3413  0.0980 -0.4966
  680MOL0     N91715   5.903   8.454  10.855  0.1439  0.4238 -0.3525
  680MOL0     N91716   5.969   8.481  10.746  0.2598 -0.1068  0.4863
  680MOL0     C91717   6.863   8.803  10.000  1.1475  0.5050 -0.0751
  680MOL0     C91718   6.990   8.774   9.935 -0.0726 -0.5077  0.3957
  680MOL0     C91719   7.344   8.586   9.719  0.1684  0.6866  0.2153
  680MOL0     C91720   7.422   8.536   9.825 -0.4689 -0.7742  0.1020
  680MOL0     C91721   7.562   8.519   9.813  1.2614  0.3645 -0.3391
  680MOL0     C91722   7.627   8.566   9.699 -0.3144  0.7675 -0.6426
  680MOL0     O91723   7.764   8.556   9.702 -0.5835 -0.0218 -1.0001
  680MOL0     C91724   7.844   8.565   9.584  0.2018  0.0581  0.3364
  680MOL0     C91725   7.977   8.490   9.603 -0.5858 -0.7065 -0.3476
  680MOL0     C91726   8.087   8.578   9.661 -0.5906 -1.2991  0.2745
  680MOL0     C91727   8.189   8.641   9.565 -0.6079  0.0846 -0.2994
  680MOL0     C91728   8.134   8.744   9.480  0.5953  0.8629  0.8048
  680MOL0     C91729   8.076   8.810   9.398 -0.2341  0.8993 -0.9706
  680MOL0     C91730   7.556   8.617   9.596  0.2455  0.0544 -0.0097
  680MOL0     C91731   7.409   8.621   9.596 -0.4923  0.4212  0.7532
  680MOL0     C91732   7.335   8.672   9.467  0.6685 -0.2157 -0.2157
  680MOL0     H91733   7.003   8.437  10.004 -2.5492 -1.0411 -0.9830
  680MOL0     H91734   6.784   8.489  10.100  1.3390 -2.2957 -1.8403
  680MOL0     H91735   6.628   8.915  10.175 -3.6483  0.4331  0.9867
  680MOL0     H91736   6.599   8.865  10.008 -0.7896  1.8143  0.8586
  680MOL0     H91737   6.422   8.711  10.107  0.9266 -0.0784 -0.1203
  680MOL0     H91738   6.386   8.882  10.096 -0.8163 -0.3372  1.0046
  680MOL0     H91739   6.316   8.826  10.326  0.5634  1.5346  0.7739
  680MOL0     H91740   6.464   8.889  10.359 -2.3550  1.0159  0.1073
  680MOL0     H91741   6.465   8.589  10.292 -2.2428  1.7209 -1.5111
  680MOL0     H91742   6.547   8.673  10.412 -0.5761  3.6583 -0.0663
  680MOL0     H91743   6.313   8.712  10.532 -0.6772 -1.1010  1.8367
  680MOL0     H91744   6.253   8.591  10.417 -0.4789  3.1040 -0.5978
  680MOL0     H91745   6.384   8.416  10.481  3.0074  0.6114 -1.1916
  680MOL0     H91746   6.484   8.527  10.578 -0.9186 -0.4705  2.4029
  680MOL0     H91747   6.246   8.587  10.691 -0.5805 -1.2640 -0.1730
  680MOL0     H91748   6.341   8.459  10.767 -1.0256 -1.8073  0.8846
  680MOL0     H91749   6.143   8.417  10.529 -0.1645  1.4075  0.5466
  680MOL0     H91750   6.224   8.290  10.621  2.0999  1.5854 -1.6169
  680MOL0     H91751   6.077   8.184  10.838  0.8816  0.5466  2.5746
  680MOL0     H91752   5.969   8.261  11.097  2.7439  0.7478 -2.2122
  680MOL0     H91753   5.807   8.313  11.082  3.8522  2.4108  3.1769
  680MOL0     H91754   5.936   8.057  10.968  0.0105 -0.8324 -0.1660
  680MOL0     H91755   5.860   8.081  11.128 -0.4031  3.8193  1.0593
  680MOL0     H91756   5.647   8.152  11.039 -3.9397 -1.1167 -1.3255
  680MOL0     H91757   5.678   7.980  10.994  1.1688  0.1524 -0.2147
  680MOL0     H91758   5.733   8.207  10.803  0.4272 -0.0749 -0.3791
  680MOL0     H91759   5.599   8.081  10.789  0.0874  0.1481  2.0236
  680MOL0     H91760   5.572   8.023  10.591 -1.2649 -0.3096 -1.9345
  680MOL0     H91761   5.581   7.982  10.360  0.3629  1.9202  1.2810
  680MOL0     H91762   5.638   8.258   9.983  2.6439  0.8012  0.9429
  680MOL0     H91763   5.692   8.308   9.754  3.7451  0.3594  1.1164
  680MOL0     H91764   5.831   7.968   9.504 -0.0433  0.4151  1.7578
  680MOL0     H91765   5.657   7.962   9.514  0.4174 -0.8050  1.2616
  680MOL0     H91766   5.627   8.111   9.322 -0.3713 -1.9023  0.3869
  680MOL0     H91767   5.796   8.152   9.309  1.5835 -0.9950  0.8808
  680MOL0     H91768   5.840   7.903   9.266 -1.4974 -1.3431  0.7769
  680MOL0     H91769   5.666   7.892   9.253  0.2441 -0.2908  0.6908
  680MOL0     H91770   5.804   7.923   9.035 -0.0930  0.7311 -0.6524
  680MOL0     H91771   5.824   8.089   9.079  0.5093  0.2110  2.5591
  680MOL0     H91772   5.568   8.095   9.099  0.2247  2.0563 -1.1440
  680MOL0     H91773   5.567   7.933   9.039 -0.4713  1.1049  2.2764
  680MOL0     H91774   5.677   8.178   8.901 -0.1033  0.4279 -2.8029
  680MOL0     H91775   5.664   8.025   8.825  2.2871  0.2891  1.2534
  680MOL0     H91776   5.479   8.206   8.770  0.4120 -1.4413 -0.9708
  680MOL0     H91777   5.408   8.172   8.933 -0.8652 -0.8070 -0.9938
  680MOL0     H91778   5.375   7.942   8.864 -0.9639 -0.6540  1.9587
  680MOL0     H91779   5.272   8.078   8.791 -0.7139 -2.3195  1.2316
  680MOL0     H91780   5.800   7.903   9.694 -3.2081  0.6536 -1.8583
  680MOL0     H91781   5.748   7.850   9.939  1.9285  0.1416 -0.1931
  680MOL0     H91782   6.017   8.015  10.361 -0.6519  2.0807 -2.5511
  680MOL0     H91783   5.999   8.026  10.623 -2.4153 -1.0766  3.1437
  680MOL0     H91784   6.841   8.909  10.013  1.8866  0.6937 -0.3119
  680MOL0     H91785   7.044   8.860   9.896 -3.0355  1.8216  1.0501
  680MOL0     H91786   7.384   8.509   9.923  2.5941 -1.9886  1.0637
  680MOL0     H91787   7.613   8.476   9.898  1.3241  1.2425  0.0718
  680MOL0     H91788   7.855   8.669   9.550 -0.7622 -0.1119 -0.5355
  680MOL0     H91789   7.791   8.508   9.508  1.9511  0.1601 -1.0326
  680MOL0     H91790   8.007   8.454   9.504  1.2364  1.9583 -0.8905
  680MOL0     H91791   7.975   8.398   9.661  1.2988  0.5956  1.9493
  680MOL0     H91792   8.162   8.523   9.719  3.2347  1.2159 -1.8601
  680MOL0     H91793   8.050   8.651   9.734  0.2154  0.2434 -0.7832
  680MOL0     H91794   8.270   8.679   9.627 -1.3302 -0.1157  0.8056
  680MOL0     H91795   8.234   8.567   9.498 -2.6782 -0.5044 -1.1415
  680MOL0     H91796   8.024   8.878   9.333 -1.4558  0.4388 -0.5052
  680MOL0     H91797   7.615   8.636   9.507 -0.7405 -0.3830 -0.7864
  680MOL0     H91798   7.291   8.770   9.487 -2.4809 -0.5442 -4.1754
  680MOL0     H91799   7.411   8.686   9.390  2.1569  1.0164  1.3974
  680MOL0     H91800   7.250   8.611   9.434  0.4265 -0.3543  0.6185
  681MOL0     O91801   2.036   0.414   3.318 -0.2286  0.2210  0.1780
  681MOL0     C91802   2.031   0.317   3.392 -0.4455  0.2717  0.5807
  681MOL0     O91803   1.933   0.217   3.395 -0.4210 -0.2036  0.1219
  681MOL0     C91804   1.820   0.243   3.324  0.6309 -1.1537  0.3027
  681MOL0     C91805   1.694   0.260   3.391  0.5157 -0.2919  0.3064
  681MOL0     C91806   1.581   0.284   3.321  0.2410  0.8997  0.6337
  681MOL0     C91807   1.578   0.296   3.184 -0.1320  0.2689 -0.9882
  681MOL0     O91808   1.462   0.318   3.125  1.1031 -0.1241 -0.4238
  681MOL0     C91809   1.339   0.256   3.177 -0.7357 -0.3547 -0.4026
  681MOL0     C91810   1.248   0.206   3.058 -0.2664  0.5602 -1.4439
  681MOL0     C91811   1.132   0.119   3.103  0.0388 -0.4210 -0.0485
  681MOL0     C91812   1.177  -0.032   3.095  0.1958 -0.3541 -0.1773
  681MOL0     C91813   1.057  -0.123   3.141 -0.8719 -0.8470 -0.1301
  681MOL0     C91814   1.095  -0.261   3.125 -0.7045 -0.4968 -0.1472
  681MOL0     C91815   0.995  -0.364   3.171  0.0671  0.6591 -0.0570
  681MOL0     C91816   1.032  -0.505   3.127  0.6403 -0.1884 -0.2018
  681MOL0     N91817   1.169  -0.527   3.162 -0.3527 -0.6586 -0.3761
  681MOL0     C91818   1.207  -0.557   3.295  0.4903 -0.3221 -0.1382
  681MOL0     C91819   1.335  -0.585   3.289 -0.9397  0.1490 -0.0834
  681MOL0     C91820   1.426  -0.619   3.406 -0.7279 -0.0861 -0.3389
  681MOL0     C91821   1.458  -0.508   3.513 -0.9369  0.4701 -0.2233
  681MOL0     C91822   1.554  -0.402   3.469 -0.1158 -1.1348  0.9348
  681MOL0     C91823   1.671  -0.466   3.391 -0.1314 -0.2723  0.1393
  681MOL0     O91824   1.759  -0.350   3.376 -0.6175 -0.1237  0.2314
  681MOL0     C91825   1.893  -0.363   3.389 -0.5375  0.6862 -0.0530
  681MOL0     C91826   1.963  -0.244   3.368  0.5924 -0.5365  0.1430
  681MOL0     C91827   2.100  -0.233   3.406  0.2889  0.0574  0.1504
  681MOL0     C91828   2.167  -0.344   3.441 -1.6398  0.3829  1.2191
  681MOL0     C91829   2.318  -0.332   3.469 -0.5742  0.9587 -1.0187
  681MOL0     O91830   2.394  -0.441   3.499  0.6512 -0.4816 -0.5961
  681MOL0     C91831   2.519  -0.423   3.557  0.5754  0.1254 -0.0561
  681MOL0     C91832   2.540  -0.441   3.696 -0.7310  0.1965  0.1908
  681MOL0     C91833   2.664  -0.431   3.749 -0.0016  0.2496 -0.5214
  681MOL0     C91834   2.783  -0.420   3.665 -0.2659  0.4537 -0.5482
  681MOL0     O91835   2.908  -0.423   3.719 -0.0520 -0.7681 -0.1292
  681MOL0     C91836   3.023  -0.423   3.644 -1.3157  0.3023  0.2306
  681MOL0     C91837   3.148  -0.437   3.741  0.1407 -0.1147  0.7052
  681MOL0     C91838   3.288  -0.452   3.684  0.2775 -1.0811  0.5779
  681MOL0     C91839   3.323  -0.346   3.566  0.3975 -1.0079 -0.0414
  681MOL0     C91840   3.440  -0.403   3.500  0.1613  0.0501  0.7464
  681MOL0     C91841   3.480  -0.300   3.394 -0.0361  0.3207 -0.4775
  681MOL0     C91842   3.615  -0.333   3.331 -0.0826  0.7119  0.1222
  681MOL0     C91843   3.658  -0.238   3.221  0.7258  0.6560  0.2076
  681MOL0    Cl91844   3.810  -0.315   3.147  0.5308  0.4568 -0.2767
  681MOL0     C91845   2.765  -0.414   3.523  0.0417  0.3716  0.8861
  681MOL0     C91846   2.632  -0.411   3.471 -0.7456  0.3881 -0.0148
  681MOL0     O91847   2.356  -0.219   3.489 -0.0753 -0.6642  0.0262
  681MOL0     C91848   2.104  -0.467   3.450 -0.9877 -0.0028  0.7692
  681MOL0     C91849   1.970  -0.480   3.420  0.5060 -0.4810  0.0163
  681MOL0     N91850   1.378  -0.588   3.151  0.6233  0.1079  0.0924
  681MOL0     N91851   1.275  -0.534   3.081 -0.2356 -0.8707 -0.3648
  681MOL0     C91852   1.697   0.274   3.118  0.4570  0.0552  0.9360
  681MOL0     C91853   1.813   0.241   3.179 -0.2970 -0.0322  0.8076
  681MOL0     C91854   2.160   0.285   3.464  0.3991  0.1485  0.3915
  681MOL0     C91855   2.176   0.156   3.505  0.5948  0.3616 -0.0187
  681MOL0     C91856   2.282   0.118   3.570 -0.6203  0.0759 -0.0373
  681MOL0     C91857   2.385   0.208   3.614 -0.0324 -0.3837  0.2338
  681MOL0     O91858   2.486   0.151   3.693  0.5150 -0.0567 -0.4393
  681MOL0     C91859   2.571   0.240   3.759 -0.5823  0.2614 -0.1151
  681MOL0     C91860   2.652   0.170   3.880 -0.3120 -0.1067  0.0877
  681MOL0     C91861   2.736   0.274   3.953 -0.3256  0.7577 -0.0767
  681MOL0     C91862   2.721   0.274   4.106  0.3514  0.5758 -0.5373
  681MOL0     C91863   2.603   0.332   4.167 -0.2409  0.1739  0.6526
  681MOL0     C91864   2.501   0.374   4.205  0.2485  0.1893 -0.4530
  681MOL0     C91865   2.361   0.344   3.570 -0.1238  0.1539  0.6429
  681MOL0     C91866   2.249   0.387   3.502 -0.3369 -0.0816 -0.0035
  681MOL0     C91867   2.235   0.531   3.475  0.1849 -0.2567 -0.5240
  681MOL0     H91868   1.695   0.256   3.500  0.1870  0.2706  0.3289
  681MOL0     H91869   1.489   0.281   3.379  0.4743  1.1297  1.0234
  681MOL0     H91870   1.348   0.168   3.241 -3.0484 -1.7062 -1.8125
  681MOL0     H91871   1.287   0.334   3.234 -0.7805  0.2174 -1.2038
  681MOL0     H91872   1.310   0.162   2.979  0.1583 -0.9416 -0.3216
  681MOL0     H91873   1.208   0.300   3.018  0.6681  3.3513  3.2929
  681MOL0     H91874   1.049   0.124   3.032 -0.6787 -0.5230  0.7590
  681MOL0     H91875   1.093   0.148   3.202  0.3768  1.5848 -0.4648
  681MOL0     H91876   1.208  -0.070   2.997 -0.3003 -2.4511  0.4467
  681MOL0     H91877   1.255  -0.047   3.170 -0.3318 -2.0269  0.0762
  681MOL0     H91878   1.044  -0.116   3.249  3.3000  1.7988  0.4373
  681MOL0     H91879   0.967  -0.096   3.085  0.3128 -0.4439 -1.9424
  681MOL0     H91880   1.117  -0.288   3.022 -0.4668  0.4559 -0.3546
  681MOL0     H91881   1.194  -0.271   3.170 -0.4702  1.5599 -0.1442
  681MOL0     H91882   0.897  -0.339   3.129 -1.1137 -2.2570  0.6679
  681MOL0     H91883   0.996  -0.367   3.280  2.2555 -0.1064 -0.0498
  681MOL0     H91884   0.961  -0.575   3.172 -1.0602  2.5643  1.7005
  681MOL0     H91885   1.028  -0.505   3.017  1.2687 -1.6625 -0.2459
  681MOL0     H91886   1.151  -0.563   3.387  2.5436 -3.1158  1.0699
  681MOL0     H91887   1.388  -0.702   3.466 -0.1387  0.0512  0.2307
  681MOL0     H91888   1.517  -0.669   3.373 -1.0780  0.2239 -1.8602
  681MOL0     H91889   1.365  -0.463   3.549 -0.2060  1.9863 -0.1600
  681MOL0     H91890   1.496  -0.564   3.600  0.3221 -1.1708 -1.7487
  681MOL0     H91891   1.583  -0.344   3.557 -1.7546  0.4909  0.4518
  681MOL0     H91892   1.502  -0.323   3.414  1.2737 -0.5969  0.3188
  681MOL0     H91893   1.649  -0.524   3.301 -2.3565  3.5119 -2.0266
  681MOL0     H91894   1.717  -0.532   3.465 -0.6014  1.0172  1.6554
  681MOL0     H91895   1.911  -0.155   3.334  3.1075  1.1992  0.4978
  681MOL0     H91896   2.155  -0.140   3.399 -2.0805  1.6656  1.9104
  681MOL0     H91897   2.446  -0.446   3.750  0.3506  2.9277  2.5467
  681MOL0     H91898   2.676  -0.446   3.856 -1.6594  1.5149 -0.1204
  681MOL0     H91899   3.030  -0.493   3.561 -0.9147 -1.7580  1.9152
  681MOL0     H91900   3.040  -0.326   3.595  2.7473 -0.7774 -0.8439
  681MOL0     H91901   3.152  -0.361   3.819 -2.4323  1.1095 -0.2460
  681MOL0     H91902   3.129  -0.529   3.798  0.7184  0.4513  1.8519
  681MOL0     H91903   3.364  -0.451   3.762  1.9693  3.1877 -0.8262
  681MOL0     H91904   3.296  -0.550   3.637 -1.0148 -1.5919  1.3761
  681MOL0     H91905   3.335  -0.246   3.608  3.0504 -0.5220 -1.7167
  681MOL0     H91906   3.243  -0.339   3.491 -0.2675 -5.2093  0.0237
  681MOL0     H91907   3.431  -0.504   3.459 -0.7105 -1.7261  4.8127
  681MOL0     H91908   3.523  -0.414   3.570  1.6812  0.7176 -0.8829
  681MOL0     H91909   3.408  -0.289   3.314 -1.8739 -0.1510  1.0370
  681MOL0     H91910   3.491  -0.204   3.446 -0.4012  0.1577 -0.0898
  681MOL0     H91911   3.616  -0.436   3.294 -0.3634  1.2776 -1.5494
  681MOL0     H91912   3.692  -0.333   3.409 -0.1691  0.9788  0.2079
  681MOL0     H91913   3.581  -0.232   3.143  0.2749 -0.7080  0.5342
  681MOL0     H91914   3.685  -0.146   3.274 -2.1564  2.2925 -0.9399
  681MOL0     H91915   2.847  -0.388   3.456 -1.3386  0.3017 -0.8883
  681MOL0     H91916   2.627  -0.404   3.363 -0.0484 -1.9559 -0.2600
  681MOL0     H91917   2.176  -0.543   3.477  2.4900  3.0408  0.8562
  681MOL0     H91918   1.932  -0.579   3.444  3.1336 -1.7529 -0.6662
  681MOL0     H91919   1.680   0.274   3.011  0.5870 -1.5347  0.8902
  681MOL0     H91920   1.911   0.231   3.133 -0.8503  0.2990 -0.4793
  681MOL0     H91921   2.104   0.079   3.480  0.1541  0.0510  1.9966
  681MOL0     H91922   2.291   0.015   3.601 -1.0333 -0.3352 -1.2438
  681MOL0     H91923   2.506   0.318   3.800 -1.1104 -0.5321  0.5828
  681MOL0     H91924   2.633   0.285   3.681  0.1260 -0.4228  0.0342
  681MOL0     H91925   2.723   0.098   3.840 -0.7106 -0.1024 -0.6393
  681MOL0     H91926   2.590   0.119   3.954 -0.8586 -0.9670 -0.9292
  681MOL0     H91927   2.729   0.373   3.906 -2.2444  0.8939  0.4258
  681MOL0     H91928   2.839   0.251   3.924 -0.1613  0.4603  0.7141
  681MOL0     H91929   2.734   0.172   4.144  0.9758 -0.2997 -2.8976
  681MOL0     H91930   2.797   0.337   4.152  0.5429  2.9120 -3.7095
  681MOL0     H91931   2.403   0.406   4.234 -0.5115 -3.4464  1.6582
  681MOL0     H91932   2.440   0.413   3.599  1.8090 -0.8466 -1.9384
  681MOL0     H91933   2.133   0.563   3.496  0.2079  3.4254 -4.5119
  681MOL0     H91934   2.309   0.587   3.534 -1.2916  0.2410  0.9070
  681MOL0     H91935   2.262   0.570   3.376  3.6981  0.3959  0.5421
  682MOL0     O91936  10.253   5.858   8.492 -0.8203 -0.1281  1.3247
  682MOL0     C91937  10.212   5.759   8.445  0.1829  0.2086  0.6816
  682MOL0     O91938  10.222   5.722   8.309  0.1048  0.5955 -0.0739
  682MOL0     C91939  10.304   5.797   8.219 -0.0697  0.6974 -0.3325
  682MOL0     C91940  10.443   5.812   8.242 -0.6171  0.6671  0.0819
  682MOL0     C91941  10.528   5.868   8.142  0.8483 -0.4181 -0.2301
  682MOL0     C91942  10.472   5.895   8.018 -0.1382 -1.1040 -0.0778
  682MOL0     O91943  10.547   5.934   7.907  0.5311 -0.3230 -0.1375
  682MOL0     C91944  10.665   6.014   7.932  0.8125 -0.4840  0.1966
  682MOL0     C91945  10.695   6.102   7.817 -1.1572  1.1753  0.1914
  682MOL0     C91946  10.737   6.023   7.695 -0.7660 -0.2466 -0.3678
  682MOL0     C91947  10.768   6.134   7.600  0.2845  0.2980  0.7770
  682MOL0     C91948  10.843   6.092   7.474 -0.0272 -0.0357  0.1746
  682MOL0     C91949  10.995   6.064   7.490  0.0992 -0.0957 -0.5243
  682MOL0     C91950  11.064   6.035   7.361  0.3709 -0.5108  1.4896
  682MOL0     C91951  11.120   6.168   7.299  0.4456 -0.6101  0.2228
  682MOL0     N91952  11.192   6.131   7.181  0.0903 -0.1493  0.6408
  682MOL0     C91953  11.146   6.127   7.053 -0.7600 -0.1639 -1.0967
  682MOL0     C91954  11.248   6.082   6.982 -0.6704 -0.6108 -0.8656
  682MOL0     C91955  11.257   6.048   6.828 -0.4695 -0.2759 -0.4709
  682MOL0     C91956  11.237   5.896   6.806 -0.3595  0.2212 -0.4887
  682MOL0     C91957  11.268   5.860   6.662  0.2528  0.6569 -0.9156
  682MOL0     C91958  11.244   5.704   6.654 -0.1490 -0.7780 -0.6785
  682MOL0     O91959  11.252   5.667   6.520  0.5616  0.7096  0.1346
  682MOL0     C91960  11.328   5.558   6.497  0.3453  0.2629 -0.3631
  682MOL0     C91961  11.306   5.438   6.553  0.3371 -0.2751 -0.8992
  682MOL0     C91962  11.386   5.324   6.518  0.3721  0.2065  0.5277
  682MOL0     C91963  11.508   5.351   6.450 -0.2592 -0.3079  0.0006
  682MOL0     C91964  11.595   5.233   6.428  0.1060  0.9588  0.7866
  682MOL0     O91965  11.557   5.114   6.471 -0.4234  0.4764 -0.4076
  682MOL0     C91966  11.611   5.012   6.404  0.7374  0.3849  0.6338
  682MOL0     C91967  11.718   4.940   6.462 -0.6512 -0.8316  1.0289
  682MOL0     C91968  11.755   4.822   6.396 -0.2592  0.2607  0.7710
  682MOL0     C91969  11.692   4.770   6.279 -0.2189 -0.2490 -1.2400
  682MOL0     O91970  11.721   4.659   6.205  0.3083  0.1202  0.0685
  682MOL0     C91971  11.791   4.553   6.265  0.0616 -0.3669 -0.5685
  682MOL0     C91972  11.791   4.441   6.162  0.1307 -0.6123  0.2461
  682MOL0     C91973  11.857   4.469   6.022  0.4679  0.6350  0.6609
  682MOL0     C91974  11.855   4.349   5.934 -0.0246  0.5174 -0.1760
  682MOL0     C91975  11.955   4.376   5.821  0.2638  0.8375 -0.1165
  682MOL0     C91976  11.923   4.490   5.718 -1.0836  0.9615 -0.2124
  682MOL0     C91977  12.056   4.521   5.643 -0.4974  0.1543 -0.3934
  682MOL0     C91978  12.038   4.642   5.548 -0.5163 -0.5208  0.9692
  682MOL0    Cl91979  12.063   4.787   5.632 -0.2883  0.1276  0.2932
  682MOL0     C91980  11.600   4.854   6.214 -0.7880  0.6850 -0.2308
  682MOL0     C91981  11.564   4.980   6.270  0.1255  0.1281 -0.6803
  682MOL0     O91982  11.699   5.247   6.362  0.1615 -0.2963 -0.3911
  682MOL0     C91983  11.539   5.481   6.408  0.2519  1.1040  0.0395
  682MOL0     C91984  11.437   5.577   6.414 -0.6130 -0.2358 -0.3377
  682MOL0     N91985  11.364   6.063   7.064  0.9805 -0.1925 -0.8470
  682MOL0     N91986  11.330   6.102   7.183 -0.7227  0.5949 -0.3927
  682MOL0     C91987  10.334   5.871   7.992  0.4009 -0.4796 -1.1719
  682MOL0     C91988  10.247   5.828   8.100 -0.0520 -0.1417 -0.3165
  682MOL0     C91989  10.120   5.683   8.516  0.3418 -0.1758 -0.0573
  682MOL0     C91990   9.983   5.719   8.492 -0.1343 -0.1065 -1.2882
  682MOL0     C91991   9.881   5.643   8.564 -0.0476  0.8145  0.1832
  682MOL0     C91992   9.919   5.547   8.665 -0.0995 -0.2917 -0.7689
  682MOL0     O91993   9.836   5.472   8.745  0.7358 -0.4444 -0.5685
  682MOL0     C91994   9.698   5.470   8.712  0.2621  0.2464 -0.3564
  682MOL0     C91995   9.636   5.366   8.793  0.4958  0.0905 -0.2400
  682MOL0     C91996   9.672   5.224   8.751 -0.4956  0.0608  0.5399
  682MOL0     C91997   9.755   5.137   8.840 -0.6499 -0.6084 -0.1643
  682MOL0     C91998   9.689   5.121   8.977 -0.7767  0.4534  0.5023
  682MOL0     C91999   9.640   5.112   9.087  0.1147  0.2176 -0.7954
  682MOL0     C92000  10.056   5.525   8.685 -0.7483  0.2403 -0.7823
  682MOL0     C92001  10.151   5.596   8.616  1.2144  1.0151 -0.1871
  682MOL0     C92002  10.289   5.566   8.647 -0.5451 -0.1529  0.1934
  682MOL0     H92003  10.486   5.773   8.334 -4.3199 -2.5046  0.7160
  682MOL0     H92004  10.634   5.880   8.157  2.0791 -4.2310 -3.8249
  682MOL0     H92005  10.661   6.078   8.020  0.0541 -0.9927  0.5458
  682MOL0     H92006  10.743   5.938   7.948  0.6244 -0.4518  1.3519
  682MOL0     H92007  10.773   6.171   7.849 -0.5020  0.3815  0.3529
  682MOL0     H92008  10.605   6.157   7.787 -1.8993 -0.3041 -0.3897
  682MOL0     H92009  10.670   5.943   7.663  2.0119 -2.2382 -1.6215
  682MOL0     H92010  10.834   5.982   7.722 -1.2275 -1.2851 -0.2510
  682MOL0     H92011  10.667   6.160   7.565 -0.2181 -0.8912  1.2777
  682MOL0     H92012  10.810   6.222   7.649 -1.8959  2.8144 -1.5117
  682MOL0     H92013  10.797   6.004   7.428 -2.9851 -0.2537  3.1594
  682MOL0     H92014  10.850   6.174   7.402  2.0183 -0.6634 -0.3940
  682MOL0     H92015  11.030   6.158   7.534  0.4668 -0.3427 -0.2812
  682MOL0     H92016  11.028   5.991   7.565  1.1702  1.2566  0.3783
  682MOL0     H92017  11.003   5.977   7.291  0.9311  1.3603 -0.6702
  682MOL0     H92018  11.157   5.982   7.384 -0.2243 -2.4376 -0.2294
  682MOL0     H92019  11.035   6.235   7.282  0.3224 -0.0563  2.6643
  682MOL0     H92020  11.192   6.212   7.368  1.2419 -2.4367  0.6265
  682MOL0     H92021  11.046   6.150   7.017 -0.2719 -1.3143 -3.3297
  682MOL0     H92022  11.177   6.108   6.785  1.2211  3.8464  1.5927
  682MOL0     H92023  11.356   6.080   6.794 -0.3640  1.6869  1.4752
  682MOL0     H92024  11.301   5.842   6.876  0.6686 -1.7942 -2.8486
  682MOL0     H92025  11.133   5.872   6.835  0.1635 -1.5674  0.0873
  682MOL0     H92026  11.366   5.891   6.625  0.3016 -0.1523 -1.4848
  682MOL0     H92027  11.189   5.908   6.605 -1.6757 -1.5252 -0.2439
  682MOL0     H92028  11.143   5.682   6.692 -0.9407  1.8356 -1.0695
  682MOL0     H92029  11.321   5.657   6.716 -0.9761 -2.0163 -0.5443
  682MOL0     H92030  11.216   5.432   6.614  1.1907 -2.8408  0.2534
  682MOL0     H92031  11.371   5.223   6.554  0.7200  0.0887  0.3474
  682MOL0     H92032  11.769   4.976   6.551 -1.8494  2.0579  0.6529
  682MOL0     H92033  11.839   4.760   6.428  1.8883  2.7888  0.4047
  682MOL0     H92034  11.893   4.584   6.286 -0.4029 -0.9882  3.3266
  682MOL0     H92035  11.735   4.523   6.354 -2.0615  0.0604 -1.6906
  682MOL0     H92036  11.820   4.346   6.208 -0.3390 -2.1263 -2.4009
  682MOL0     H92037  11.684   4.431   6.145 -0.5418  2.3003  2.0587
  682MOL0     H92038  11.806   4.547   5.965  0.2208 -0.8652 -1.2729
  682MOL0     H92039  11.960   4.503   6.039 -0.1179  2.9777 -0.0735
  682MOL0     H92040  11.756   4.330   5.891 -1.9441  1.9050  3.2329
  682MOL0     H92041  11.893   4.263   5.990  2.7724  2.7130  1.6338
  682MOL0     H92042  11.973   4.282   5.768 -4.4663 -0.7498  0.5996
  682MOL0     H92043  12.048   4.389   5.877 -0.5335 -0.2615  1.5340
  682MOL0     H92044  11.853   4.476   5.636 -1.9914  1.5483  0.4517
  682MOL0     H92045  11.901   4.578   5.779 -0.9459  1.2900 -0.6369
  682MOL0     H92046  12.080   4.435   5.578 -1.0839 -1.4530  1.4183
  682MOL0     H92047  12.138   4.548   5.710  0.4969  1.0663 -1.8995
  682MOL0     H92048  12.117   4.628   5.474 -2.8367 -3.1795 -1.2676
  682MOL0     H92049  11.936   4.651   5.507 -0.2101  2.7046  0.6824
  682MOL0     H92050  11.548   4.822   6.124  1.1116 -0.1633 -1.0754
  682MOL0     H92051  11.483   5.040   6.229 -0.6070 -0.4660 -0.1527
  682MOL0     H92052  11.637   5.506   6.370  2.4539  0.3453  4.5873
  682MOL0     H92053  11.446   5.665   6.351  0.4092  0.2738  0.4913
  682MOL0     H92054  10.276   5.887   7.902 -1.0128 -2.0542 -0.6057
  682MOL0     H92055  10.139   5.832   8.090 -0.3946  3.4004  2.6289
  682MOL0     H92056   9.942   5.781   8.413  0.5853  3.7921  1.1327
  682MOL0     H92057   9.774   5.650   8.550  0.0889 -0.0403 -1.5900
  682MOL0     H92058   9.693   5.452   8.604  1.2803 -0.8622 -0.2431
  682MOL0     H92059   9.648   5.565   8.733  0.2499  0.1916 -0.1358
  682MOL0     H92060   9.528   5.377   8.788  0.5049  1.7027  1.8183
  682MOL0     H92061   9.657   5.379   8.900 -2.5776 -0.2849  0.5101
  682MOL0     H92062   9.717   5.226   8.651  2.2830  0.4604  1.6962
  682MOL0     H92063   9.576   5.171   8.751 -1.2496  1.3586  1.3300
  682MOL0     H92064   9.762   5.034   8.806  0.1797 -0.7806  0.4833
  682MOL0     H92065   9.854   5.175   8.870 -1.0696 -0.6779  1.4245
  682MOL0     H92066   9.578   5.122   9.173 -1.0760  0.4088 -1.6427
  682MOL0     H92067  10.082   5.455   8.763 -1.9400 -1.5058 -1.8781
  682MOL0     H92068  10.329   5.474   8.602 -1.0477  0.6228 -1.9781
  682MOL0     H92069  10.353   5.647   8.613 -0.2842 -0.1656  0.6554
  682MOL0     H92070  10.308   5.547   8.753  1.2823  0.0915 -0.0618
  683MOL0     O92071   5.844   7.906   1.592  0.6511  0.0533  0.2352
  683MOL0     C92072   5.879   7.809   1.651  0.8777  0.1749  0.5868
  683MOL0     O92073   5.991   7.800   1.727 -0.5435 -0.0359 -1.0495
  683MOL0     C92074   6.071   7.911   1.737 -0.1284  0.2456 -0.0948
  683MOL0     C92075   6.027   8.017   1.817  0.4395  0.6337 -0.7571
  683MOL0     C92076   6.095   8.138   1.816 -0.1947  0.5012  0.2800
  683MOL0     C92077   6.209   8.164   1.734  0.2245 -0.0596 -0.0918
  683MOL0     O92078   6.291   8.279   1.755  0.4666 -0.3064 -0.4339
  683MOL0     C92079   6.221   8.406   1.773 -0.3391  0.6891  0.9288
  683MOL0     C92080   6.175   8.458   1.632 -0.4837 -0.7326 -0.1921
  683MOL0     C92081   6.184   8.617   1.623  0.1038  0.2687  0.8236
  683MOL0     C92082   6.105   8.694   1.722 -1.0478 -0.5397  0.4307
  683MOL0     C92083   6.074   8.839   1.680 -0.6927 -0.7626 -0.6123
  683MOL0     C92084   6.035   8.935   1.792 -0.8425 -0.2509  0.1857
  683MOL0     C92085   6.171   8.986   1.851  0.2721 -0.4163  1.5132
  683MOL0     C92086   6.162   9.100   1.959 -0.3105  0.1695  1.2597
  683MOL0     N92087   6.108   9.043   2.085  0.3222  0.3960  0.3854
  683MOL0     C92088   6.179   8.970   2.178  0.4819 -0.3680 -0.2226
  683MOL0     C92089   6.077   8.941   2.273  0.0687  0.2623 -0.6559
  683MOL0     C92090   6.095   8.869   2.404 -0.2491  0.3546  0.3066
  683MOL0     C92091   6.219   8.921   2.482  0.0983 -0.3166 -0.4014
  683MOL0     C92092   6.213   8.886   2.633  0.5297 -0.2500 -0.1355
  683MOL0     C92093   6.297   8.966   2.725  0.6066 -0.0188  0.0539
  683MOL0     O92094   6.431   8.912   2.710  0.4410  0.3981 -0.7855
  683MOL0     C92095   6.526   8.959   2.796 -0.4214 -0.7979 -0.7914
  683MOL0     C92096   6.646   8.886   2.789  0.5533 -1.1395  0.2942
  683MOL0     C92097   6.759   8.922   2.866  0.1959 -0.3444 -0.5584
  683MOL0     C92098   6.751   9.031   2.960 -0.1415 -0.3546  0.3644
  683MOL0     C92099   6.869   9.088   3.037  0.3142 -0.6852 -0.8055
  683MOL0     O92100   6.838   9.165   3.145 -0.0617 -0.2837 -0.5447
  683MOL0     C92101   6.945   9.204   3.219  0.2724 -0.9379  0.1392
  683MOL0     C92102   7.065   9.273   3.179  1.3440 -1.0077 -0.2014
  683MOL0     C92103   7.147   9.335   3.271  0.3178 -0.9437 -0.1520
  683MOL0     C92104   7.125   9.307   3.412  0.2945 -0.4319 -0.4249
  683MOL0     O92105   7.193   9.358   3.520  0.2280  0.2901  0.1829
  683MOL0     C92106   7.324   9.409   3.496 -0.0513 -0.4588 -0.2522
  683MOL0     C92107   7.397   9.452   3.619  0.6407  0.0332  0.0936
  683MOL0     C92108   7.306   9.520   3.728  0.0714 -0.1940 -0.8343
  683MOL0     C92109   7.396   9.617   3.802 -0.0177  0.6593  0.6771
  683MOL0     C92110   7.518   9.558   3.877  0.0973 -0.1760  0.0222
  683MOL0     C92111   7.468   9.456   3.980  0.4766  0.6224 -0.3389
  683MOL0     C92112   7.555   9.429   4.097  1.2741  0.1614 -0.0952
  683MOL0     C92113   7.701   9.425   4.060  0.1733 -0.9529  0.0787
  683MOL0    Cl92114   7.802   9.388   4.205  0.2864 -0.0258 -0.0777
  683MOL0     C92115   7.021   9.228   3.445 -0.1644  0.3357 -0.1803
  683MOL0     C92116   6.936   9.189   3.353 -0.5449 -0.5333  0.2792
  683MOL0     O92117   6.980   9.058   2.996 -0.6220  0.0374 -0.6176
  683MOL0     C92118   6.625   9.094   2.970  0.7406 -0.1129  0.5243
  683MOL0     C92119   6.516   9.071   2.885 -0.0384 -1.1584  0.1005
  683MOL0     N92120   5.961   9.002   2.242  1.3545 -0.0945  0.6316
  683MOL0     N92121   5.980   9.068   2.133 -0.3691  0.6886 -0.1156
  683MOL0     C92122   6.255   8.052   1.657 -0.3181  0.1618 -0.4543
  683MOL0     C92123   6.183   7.928   1.655  0.0329 -0.0434 -0.2507
  683MOL0     C92124   5.814   7.679   1.634  0.1574 -1.2110  0.0985
  683MOL0     C92125   5.806   7.601   1.755  0.7040  0.0485 -0.4957
  683MOL0     C92126   5.744   7.478   1.743 -0.1234 -0.4294 -0.2192
  683MOL0     C92127   5.680   7.441   1.623  0.0046 -0.5674 -0.4670
  683MOL0     O92128   5.626   7.316   1.629  0.7500  0.3171 -0.0349
  683MOL0     C92129   5.505   7.286   1.559  0.1976  0.3225 -0.2013
  683MOL0     C92130   5.377   7.321   1.620  0.3235  0.1365 -0.1857
  683MOL0     C92131   5.252   7.308   1.535  0.8975  0.0708 -0.8384
  683MOL0     C92132   5.237   7.175   1.464  0.8523 -0.2831  0.9268
  683MOL0     C92133   5.239   7.067   1.557 -0.7357  0.0155  1.0469
  683MOL0     C92134   5.230   6.970   1.625 -0.3650  0.5317 -0.1723
  683MOL0     C92135   5.671   7.526   1.517  0.2621  0.1653  0.3349
  683MOL0     C92136   5.744   7.644   1.516  0.9727 -0.7281 -0.8111
  683MOL0     C92137   5.734   7.729   1.388 -0.2556 -0.3695 -0.3452
  683MOL0     H92138   5.940   8.001   1.880  0.4219  0.5511 -0.8020
  683MOL0     H92139   6.049   8.218   1.874  0.2344  0.3281  0.8649
  683MOL0     H92140   6.131   8.398   1.836 -1.0208  1.5930  0.0996
  683MOL0     H92141   6.290   8.474   1.824  1.3426 -0.9858  0.9604
  683MOL0     H92142   6.073   8.423   1.612 -1.7479  1.8652  1.1644
  683MOL0     H92143   6.239   8.431   1.548  1.3518  1.9907  0.2357
  683MOL0     H92144   6.153   8.638   1.520  0.9482  2.6985  0.9970
  683MOL0     H92145   6.289   8.645   1.633 -0.0399  0.8652  0.6615
  683MOL0     H92146   6.009   8.643   1.732 -0.4497 -2.0921 -1.1353
  683MOL0     H92147   6.151   8.696   1.822 -2.3418  2.4570  1.0624
  683MOL0     H92148   6.155   8.883   1.621  0.4006 -0.5649  0.9577
  683MOL0     H92149   5.992   8.828   1.609 -0.5583 -2.1427 -0.5768
  683MOL0     H92150   5.977   9.017   1.749  0.1360 -0.8253 -2.4139
  683MOL0     H92151   5.971   8.882   1.863 -1.1999  4.1238  3.5682
  683MOL0     H92152   6.223   9.044   1.774 -1.7873 -0.4247  0.0493
  683MOL0     H92153   6.240   8.907   1.883  1.0796 -0.2036  0.3520
  683MOL0     H92154   6.261   9.146   1.972  0.0049 -0.8753  2.9977
  683MOL0     H92155   6.090   9.180   1.939 -0.7311  0.1721  2.6900
  683MOL0     H92156   6.277   8.924   2.181  0.2833 -1.0632  5.0048
  683MOL0     H92157   6.005   8.878   2.465 -0.6299  0.6509 -0.2921
  683MOL0     H92158   6.097   8.761   2.387 -7.3778 -0.1794 -0.1454
  683MOL0     H92159   6.308   8.871   2.443 -0.3448  0.2305 -2.1908
  683MOL0     H92160   6.226   9.029   2.473  1.7851 -0.3823 -0.2517
  683MOL0     H92161   6.226   8.780   2.660 -3.1949 -0.3016  2.3088
  683MOL0     H92162   6.110   8.905   2.665  0.2395  1.8963 -2.0972
  683MOL0     H92163   6.245   8.966   2.821 -4.0992  1.2115 -2.1824
  683MOL0     H92164   6.304   9.072   2.698  1.6445  0.3853  1.7408
  683MOL0     H92165   6.649   8.809   2.712  3.8769 -1.5028  0.6170
  683MOL0     H92166   6.852   8.867   2.858 -0.3304 -2.4108  4.0696
  683MOL0     H92167   7.082   9.298   3.075  3.8785 -0.1932  0.3464
  683MOL0     H92168   7.232   9.399   3.250 -1.7253  1.6923 -0.9059
  683MOL0     H92169   7.379   9.323   3.455  2.2751  1.7889 -2.2087
  683MOL0     H92170   7.323   9.489   3.421  1.2537 -3.5583 -3.8981
  683MOL0     H92171   7.427   9.358   3.666 -2.2698 -0.1475  1.8269
  683MOL0     H92172   7.477   9.518   3.584  0.3820  0.9387  1.1489
  683MOL0     H92173   7.225   9.578   3.683 -2.9810 -0.2348  3.9364
  683MOL0     H92174   7.263   9.442   3.791 -4.0305 -1.0507 -4.2248
  683MOL0     H92175   7.337   9.675   3.874 -2.5349 -2.4585  1.3914
  683MOL0     H92176   7.447   9.685   3.733  2.2515 -0.9910  0.5968
  683MOL0     H92177   7.568   9.641   3.926 -1.9967  0.1138  1.7988
  683MOL0     H92178   7.582   9.512   3.800  1.2219  0.5263  0.5194
  683MOL0     H92179   7.373   9.490   4.021  0.1807 -0.7627  0.1787
  683MOL0     H92180   7.445   9.361   3.930 -1.6720  1.7638 -1.7017
  683MOL0     H92181   7.535   9.326   4.129  1.0201  0.5253  0.9385
  683MOL0     H92182   7.547   9.499   4.180 -0.7286 -2.7300  2.3726
  683MOL0     H92183   7.725   9.371   3.968  0.2135  1.0376 -1.1576
  683MOL0     H92184   7.737   9.528   4.048  0.4080 -1.0192  0.1981
  683MOL0     H92185   7.003   9.229   3.552  0.2821  0.0086 -0.0961
  683MOL0     H92186   6.855   9.141   3.408  0.6034 -2.1181  0.6891
  683MOL0     H92187   6.595   9.158   3.052 -1.8242  0.7660 -0.9767
  683MOL0     H92188   6.423   9.127   2.893  1.1030  0.7187  0.7959
  683MOL0     H92189   6.336   8.073   1.587  1.6105  0.2584  1.7026
  683MOL0     H92190   6.218   7.843   1.597  0.8409 -1.5380  2.2849
  683MOL0     H92191   5.848   7.631   1.850  0.8497  0.7399 -0.7771
  683MOL0     H92192   5.745   7.404   1.823  3.6525  0.3748  0.6835
  683MOL0     H92193   5.514   7.178   1.546  2.5037  0.6428 -1.7311
  683MOL0     H92194   5.509   7.341   1.465  2.1432 -1.7008 -1.3870
  683MOL0     H92195   5.379   7.425   1.653 -0.2596 -0.8772  3.4254
  683MOL0     H92196   5.379   7.268   1.715  3.2097 -1.1542 -0.8802
  683MOL0     H92197   5.246   7.392   1.465 -1.8059 -1.5534 -2.7633
  683MOL0     H92198   5.164   7.316   1.599 -0.5603 -0.3570 -2.7102
  683MOL0     H92199   5.147   7.185   1.402  2.7867  1.4081 -1.9015
  683MOL0     H92200   5.315   7.155   1.390 -2.2084 -2.3312 -2.1088
  683MOL0     H92201   5.228   6.878   1.679 -0.0034  1.4111  1.3939
  683MOL0     H92202   5.624   7.495   1.425 -1.1612 -2.4780  1.8257
  683MOL0     H92203   5.657   7.703   1.315  1.4122  3.0010 -3.6277
  683MOL0     H92204   5.721   7.831   1.425  3.0151 -1.2678  4.2061
  683MOL0     H92205   5.830   7.725   1.335 -0.9351 -3.1445 -1.5737
  684MOL0     O92206   8.816   4.716   1.502 -0.1608 -0.0597 -0.8023
  684MOL0     C92207   8.866   4.728   1.612  1.5277 -0.0430  0.2406
  684MOL0     O92208   8.941   4.831   1.652 -0.1073  0.1120 -0.5590
  684MOL0     C92209   8.971   4.938   1.579  0.7415 -0.5340 -0.2694
  684MOL0     C92210   9.106   4.977   1.567  0.0084 -0.2253 -0.7358
  684MOL0     C92211   9.141   5.074   1.477  0.0621 -0.8664  0.6667
  684MOL0     C92212   9.048   5.138   1.402 -0.2323  0.4869  0.9840
  684MOL0     O92213   9.065   5.247   1.319 -0.7014 -0.0446 -0.1011
  684MOL0     C92214   9.174   5.331   1.360 -0.5964  0.1858  0.1375
  684MOL0     C92215   9.175   5.450   1.268  0.2937  0.3243  0.4394
  684MOL0     C92216   9.286   5.561   1.295 -0.2021  0.9826  0.1007
  684MOL0     C92217   9.422   5.490   1.269  0.0849 -0.4501 -0.5186
  684MOL0     C92218   9.529   5.601   1.261 -0.2179  0.3685 -0.1461
  684MOL0     C92219   9.666   5.546   1.262  0.1656 -0.3618  0.1542
  684MOL0     C92220   9.781   5.646   1.222  0.2745  0.5448  0.3979
  684MOL0     C92221   9.795   5.631   1.068  0.3169 -0.1685 -0.0781
  684MOL0     N92222   9.906   5.714   1.023  0.1081  0.5275  0.0506
  684MOL0     C92223   9.905   5.841   0.974  0.3459  0.4009 -0.2950
  684MOL0     C92224  10.028   5.861   0.927  1.0351  0.3286  1.3072
  684MOL0     C92225  10.083   5.986   0.862  0.2343  0.1869  0.2321
  684MOL0     C92226   9.975   6.067   0.802 -0.0293  0.5199  0.0150
  684MOL0     C92227  10.029   6.213   0.776  0.1040 -0.3000 -0.4207
  684MOL0     C92228  10.169   6.219   0.722 -0.2888 -0.7701 -0.4668
  684MOL0     O92229  10.179   6.137   0.602  0.1443 -0.3742 -0.1753
  684MOL0     C92230  10.301   6.139   0.535  0.7004  0.8427 -0.1290
  684MOL0     C92231  10.418   6.223   0.555 -0.2031  1.9229 -0.6929
  684MOL0     C92232  10.533   6.211   0.476 -0.0479  0.5074 -1.0622
  684MOL0     C92233  10.523   6.141   0.351  1.1263 -0.4699  0.8722
  684MOL0     C92234  10.634   6.133   0.254  0.1335  0.0464 -0.3601
  684MOL0     O92235  10.617   6.036   0.159  0.6143  0.9053  0.4545
  684MOL0     C92236  10.710   6.004   0.060  0.7100 -0.3039  0.4691
  684MOL0     C92237  10.806   6.081   0.012 -0.0800 -0.5739 -0.2815
  684MOL0     C92238  10.881   6.051  -0.113 -0.6200 -0.0289 -0.5108
  684MOL0     C92239  10.860   5.926  -0.176 -0.4086  1.0571  0.1130
  684MOL0     O92240  10.927   5.867  -0.286  0.6490 -0.1648 -0.5302
  684MOL0     C92241  11.039   5.935  -0.331 -0.7021  0.4760 -0.6300
  684MOL0     C92242  11.137   5.836  -0.405 -0.5980  0.0128  0.3257
  684MOL0     C92243  11.077   5.768  -0.534  0.4565  0.4690 -0.1583
  684MOL0     C92244  11.170   5.664  -0.597 -1.1676  0.7587 -0.2330
  684MOL0     C92245  11.111   5.542  -0.665 -0.4603 -0.6620 -0.4637
  684MOL0     C92246  11.228   5.464  -0.734  0.5519 -0.5587 -0.6635
  684MOL0     C92247  11.182   5.383  -0.860  0.3121 -0.3240 -0.0694
  684MOL0     C92248  11.298   5.305  -0.934  0.2126  0.1744  0.7282
  684MOL0    Cl92249  11.432   5.429  -0.965  0.4040 -0.2434 -0.0392
  684MOL0     C92250  10.755   5.842  -0.124  0.6664  0.5393 -0.2460
  684MOL0     C92251  10.681   5.888  -0.010  0.1248  1.4949  0.5151
  684MOL0     O92252  10.724   6.213   0.272  0.0611 -0.0748  0.0416
  684MOL0     C92253  10.402   6.063   0.323 -0.5514 -0.2587  0.0256
  684MOL0     C92254  10.304   6.056   0.422 -0.4539 -0.1038  1.0028
  684MOL0     N92255  10.099   5.742   0.940 -0.4397  0.3348 -0.0147
  684MOL0     N92256  10.028   5.660   1.007  0.5480 -0.2631 -1.2724
  684MOL0     C92257   8.915   5.093   1.410  0.9663 -0.4452  0.6133
  684MOL0     C92258   8.879   5.006   1.501 -0.5945  0.1700 -0.2512
  684MOL0     C92259   8.832   4.622   1.712 -0.8261  0.0958  0.0516
  684MOL0     C92260   8.865   4.651   1.839 -1.3696  1.0382  1.4784
  684MOL0     C92261   8.839   4.574   1.949  0.1761 -0.0743  1.0540
  684MOL0     C92262   8.771   4.448   1.945 -0.0667 -0.0134 -0.5975
  684MOL0     O92263   8.742   4.363   2.050  0.0706 -0.4365  0.3547
  684MOL0     C92264   8.729   4.223   2.038 -0.4301  1.6021  0.1641
  684MOL0     C92265   8.721   4.165   2.181  0.0791 -0.1520  0.2914
  684MOL0     C92266   8.854   4.174   2.258 -1.1262  0.6083  0.4390
  684MOL0     C92267   8.856   4.062   2.369 -0.4181  0.2561  0.0964
  684MOL0     C92268   8.963   4.058   2.472 -1.0089 -0.3359  1.3625
  684MOL0     C92269   9.051   4.052   2.555 -0.9516 -0.0808  0.1176
  684MOL0     C92270   8.752   4.412   1.809  0.5060  0.8875  0.0987
  684MOL0     C92271   8.767   4.496   1.696 -0.1815 -0.3113 -0.1968
  684MOL0     C92272   8.729   4.440   1.559 -0.0431 -0.3395 -0.0819
  684MOL0     H92273   9.181   4.934   1.633 -1.2163  2.2552  2.5743
  684MOL0     H92274   9.246   5.090   1.454 -0.5367  2.5520 -0.2206
  684MOL0     H92275   9.159   5.377   1.458 -0.9969 -1.6327  0.9845
  684MOL0     H92276   9.268   5.275   1.353 -0.9479 -0.6935  1.7681
  684MOL0     H92277   9.079   5.503   1.258  0.3432  0.2123 -0.6533
  684MOL0     H92278   9.192   5.420   1.165  1.3360  2.0739  0.0534
  684MOL0     H92279   9.274   5.613   1.390 -2.2991 -2.4536  1.8955
  684MOL0     H92280   9.290   5.635   1.214  2.5634 -2.1103 -2.9686
  684MOL0     H92281   9.448   5.421   1.350 -1.1493  0.6709  0.8864
  684MOL0     H92282   9.428   5.436   1.175  1.9128 -0.7255 -0.2842
  684MOL0     H92283   9.516   5.648   1.163 -0.2527  0.6230 -0.0228
  684MOL0     H92284   9.513   5.684   1.331  1.9300 -1.0155  2.1669
  684MOL0     H92285   9.701   5.526   1.363  1.1912  2.1059  0.3504
  684MOL0     H92286   9.666   5.448   1.214  0.5764 -3.9537  6.4789
  684MOL0     H92287   9.880   5.630   1.266  0.6671  1.7532  0.0100
  684MOL0     H92288   9.755   5.751   1.239  0.8547  0.9679 -1.1815
  684MOL0     H92289   9.812   5.526   1.043  3.1093  0.2572 -0.3096
  684MOL0     H92290   9.703   5.659   1.017 -0.8370 -2.8244  0.3783
  684MOL0     H92291   9.817   5.904   0.966 -1.3296 -1.9325 -1.7252
  684MOL0     H92292  10.146   6.034   0.937  3.2455  3.4003 -3.9243
  684MOL0     H92293  10.152   5.969   0.780  0.1626  1.4766 -0.1067
  684MOL0     H92294   9.940   6.026   0.707 -1.9146 -2.3456  1.7989
  684MOL0     H92295   9.883   6.073   0.861 -1.8239 -1.2921 -2.3968
  684MOL0     H92296  10.043   6.268   0.869  1.5747  0.3798 -1.0235
  684MOL0     H92297   9.963   6.275   0.714  0.7725  0.0113 -0.8298
  684MOL0     H92298  10.236   6.177   0.797 -0.2262  1.0293  0.5279
  684MOL0     H92299  10.195   6.318   0.682  1.3570 -1.4878 -1.3041
  684MOL0     H92300  10.409   6.306   0.624 -0.5357  2.3494 -1.2374
  684MOL0     H92301  10.630   6.257   0.491  0.1260  0.4089 -1.8311
  684MOL0     H92302  10.826   6.175   0.062  0.1242 -0.2878 -0.8926
  684MOL0     H92303  10.950   6.124  -0.155  0.4259  0.0900  1.2786
  684MOL0     H92304  11.006   6.022  -0.390  0.1115 -0.2879 -2.2761
  684MOL0     H92305  11.103   5.975  -0.252 -0.9706  0.0457 -0.1899
  684MOL0     H92306  11.210   5.914  -0.427 -2.5233  1.9963  0.5826
  684MOL0     H92307  11.181   5.766  -0.334 -1.9739  0.3008  1.5263
  684MOL0     H92308  10.983   5.723  -0.500  1.1824 -0.1259  1.1573
  684MOL0     H92309  11.063   5.847  -0.608 -0.6464  0.0816 -0.3740
  684MOL0     H92310  11.221   5.632  -0.506 -3.0999  0.5542  0.8310
  684MOL0     H92311  11.250   5.719  -0.646 -0.1817 -0.1062  0.3781
  684MOL0     H92312  11.037   5.569  -0.740 -2.4497  1.9410  2.1853
  684MOL0     H92313  11.055   5.500  -0.580  2.7670  2.0536  3.4120
  684MOL0     H92314  11.305   5.535  -0.766 -1.3023  3.0244  2.0721
  684MOL0     H92315  11.281   5.406  -0.657  1.9987  1.5664  0.0311
  684MOL0     H92316  11.148   5.446  -0.943  0.2852 -1.4346 -0.9350
  684MOL0     H92317  11.114   5.300  -0.839  0.5323 -0.7989 -1.1784
  684MOL0     H92318  11.337   5.219  -0.878 -0.5911  1.0155  2.6751
  684MOL0     H92319  11.263   5.286  -1.035  0.5327  4.5454 -0.4050
  684MOL0     H92320  10.720   5.753  -0.176 -0.3720  1.6689 -1.5632
  684MOL0     H92321  10.612   5.817   0.035  2.9435 -3.2753 -1.8670
  684MOL0     H92322  10.392   5.984   0.250 -1.1642 -1.3797  1.2830
  684MOL0     H92323  10.232   5.974   0.418 -1.4439  0.6267  2.6370
  684MOL0     H92324   8.836   5.132   1.346  0.4806 -3.6850 -0.9551
  684MOL0     H92325   8.775   4.975   1.499  0.0361 -2.4107  1.4626
  684MOL0     H92326   8.944   4.722   1.858  1.0106 -0.6912 -1.2527
  684MOL0     H92327   8.875   4.621   2.040  2.1162 -2.7229  1.7613
  684MOL0     H92328   8.815   4.175   1.990 -2.5982 -2.4849 -0.0627
  684MOL0     H92329   8.644   4.183   1.983  1.7834 -1.4797 -1.3150
  684MOL0     H92330   8.681   4.063   2.173  1.8362 -0.6911 -3.1530
  684MOL0     H92331   8.638   4.215   2.231  0.1741 -0.2499  0.5508
  684MOL0     H92332   8.865   4.273   2.304  2.8804  1.2109 -1.3819
  684MOL0     H92333   8.944   4.167   2.197  0.1734  3.2844  1.8576
  684MOL0     H92334   8.766   4.053   2.432 -0.3882  1.2110  0.2895
  684MOL0     H92335   8.840   3.973   2.307  0.9068  0.8051 -1.0869
  684MOL0     H92336   9.114   4.040   2.642 -3.3336 -0.8489  1.8419
  684MOL0     H92337   8.741   4.304   1.795  0.0858  0.8438  0.6793
  684MOL0     H92338   8.669   4.350   1.574 -1.5568  0.9995  2.5652
  684MOL0     H92339   8.671   4.520   1.513  0.9277 -0.0835 -0.9003
  684MOL0     H92340   8.806   4.413   1.486 -0.2099  0.6905 -0.6464
  685MOL0     O92341   0.305   1.478   6.078 -1.3844  0.2015  0.0562
  685MOL0     C92342   0.408   1.403   6.093  0.5461  0.1632 -0.6649
  685MOL0     O92343   0.411   1.263   6.111 -0.0741 -0.1166  0.1849
  685MOL0     C92344   0.294   1.197   6.089 -0.8706  0.2535 -0.5102
  685MOL0     C92345   0.196   1.202   6.187  0.2420  0.3554  0.5918
  685MOL0     C92346   0.074   1.132   6.171  0.0392  1.0122 -0.5072
  685MOL0     C92347   0.054   1.050   6.057  0.8654 -0.7426  0.1768
  685MOL0     O92348  -0.068   0.989   6.048  0.1221  0.7033  0.6344
  685MOL0     C92349  -0.078   0.876   5.958  0.3514  0.6834 -0.6502
  685MOL0     C92350  -0.221   0.850   5.943 -0.2316  0.3593  0.7545
  685MOL0     C92351  -0.227   0.715   5.885 -0.0517  0.3186  0.0329
  685MOL0     C92352  -0.359   0.639   5.917 -0.8270 -0.5694  0.8813
  685MOL0     C92353  -0.470   0.643   5.819 -0.2649 -1.3008  0.4725
  685MOL0     C92354  -0.497   0.787   5.764  0.0402  0.0050  0.0158
  685MOL0     C92355  -0.587   0.774   5.641 -0.5578 -0.2657 -0.1244
  685MOL0     C92356  -0.620   0.904   5.570  0.5285 -0.1365  0.9125
  685MOL0     N92357  -0.604   0.893   5.419  0.4149  0.8114 -0.8433
  685MOL0     C92358  -0.516   0.956   5.340 -0.0290  0.4386  1.0766
  685MOL0     C92359  -0.554   0.913   5.210  0.6267 -0.3937 -0.6603
  685MOL0     C92360  -0.483   0.959   5.080 -0.1504  0.3364 -0.4018
  685MOL0     C92361  -0.350   1.029   5.101  0.2745  0.0794  0.6928
  685MOL0     C92362  -0.360   1.180   5.158  0.3767 -0.0806 -0.0755
  685MOL0     C92363  -0.226   1.205   5.202  0.0375 -0.4449  0.2546
  685MOL0     O92364  -0.194   1.139   5.326 -0.9373 -0.5338 -0.1300
  685MOL0     C92365  -0.062   1.147   5.377  0.6510 -0.0369 -0.1231
  685MOL0     C92366  -0.056   1.159   5.518 -0.3767 -0.4850  0.4876
  685MOL0     C92367   0.061   1.192   5.575  0.6302  0.3909 -0.6102
  685MOL0     C92368   0.178   1.200   5.503 -0.4017  0.0804 -0.4151
  685MOL0     C92369   0.308   1.233   5.569  0.6959  0.0544  0.1092
  685MOL0     O92370   0.412   1.237   5.480  0.0448 -0.3893  0.0342
  685MOL0     C92371   0.541   1.217   5.538 -0.0729 -0.2945  0.1336
  685MOL0     C92372   0.591   1.299   5.651 -0.8010 -0.0880  0.9656
  685MOL0     C92373   0.712   1.272   5.697  0.4536  0.4585  0.4065
  685MOL0     C92374   0.797   1.180   5.633 -0.2296  0.0782 -0.3629
  685MOL0     O92375   0.927   1.154   5.672 -0.6135  0.3141  0.0511
  685MOL0     C92376   1.007   1.264   5.703 -0.8670 -0.6194 -0.4287
  685MOL0     C92377   1.121   1.220   5.789 -0.3485 -0.3725  0.1701
  685MOL0     C92378   1.190   1.330   5.874  0.1682 -0.1415  1.1844
  685MOL0     C92379   1.306   1.276   5.961 -0.2387 -0.2764  0.0375
  685MOL0     C92380   1.346   1.394   6.058  0.9734 -0.1692 -0.3123
  685MOL0     C92381   1.476   1.370   6.118 -0.9249  0.5817  0.6110
  685MOL0     C92382   1.522   1.474   6.215  0.2077  0.5495 -0.6610
  685MOL0     C92383   1.641   1.426   6.288 -0.4001 -0.1273  0.7231
  685MOL0    Cl92384   1.768   1.393   6.179  0.2827 -0.2120 -0.2732
  685MOL0     C92385   0.754   1.118   5.512 -0.3782 -0.2983  0.0240
  685MOL0     C92386   0.625   1.133   5.473  0.1308  0.5071  0.0039
  685MOL0     O92387   0.318   1.231   5.693 -0.1423 -0.0233  0.8823
  685MOL0     C92388   0.176   1.179   5.364  0.1293 -0.8717  0.2885
  685MOL0     C92389   0.050   1.163   5.300 -1.0309 -0.4301  0.2956
  685MOL0     N92390  -0.666   0.838   5.219 -0.7052  0.5564 -0.6737
  685MOL0     N92391  -0.700   0.835   5.349 -0.3463  0.1054  0.2384
  685MOL0     C92392   0.159   1.034   5.960  0.3819  0.4354  0.0443
  685MOL0     C92393   0.274   1.116   5.975 -0.7708  0.5313 -0.1593
  685MOL0     C92394   0.540   1.470   6.108 -0.6138 -1.2770 -0.1992
  685MOL0     C92395   0.649   1.401   6.065 -0.9653 -0.1529  0.5621
  685MOL0     C92396   0.773   1.446   6.073 -0.0626  0.7162 -0.0206
  685MOL0     C92397   0.802   1.567   6.142 -0.5411 -0.1130  0.0283
  685MOL0     O92398   0.927   1.620   6.146  0.5599  0.1444  0.3922
  685MOL0     C92399   0.992   1.630   6.271  1.0587 -0.4205 -0.3327
  685MOL0     C92400   1.058   1.766   6.300 -0.3865 -1.0709  0.2428
  685MOL0     C92401   1.205   1.779   6.256 -0.3248  0.4916  0.3828
  685MOL0     C92402   1.294   1.846   6.365  0.3735  0.8053  0.9284
  685MOL0     C92403   1.323   1.783   6.494  0.6464 -0.1016  0.0034
  685MOL0     C92404   1.350   1.722   6.592 -0.6860  0.0689 -0.6645
  685MOL0     C92405   0.695   1.644   6.196 -0.3774 -0.5406  0.2271
  685MOL0     C92406   0.564   1.593   6.172  0.8382  0.7158  0.0261
  685MOL0     C92407   0.449   1.681   6.217 -0.6930 -0.2705  0.2638
  685MOL0     H92408   0.215   1.246   6.284  0.0980  1.3476  0.1882
  685MOL0     H92409   0.001   1.142   6.250 -0.4425 -2.6560 -0.3274
  685MOL0     H92410  -0.036   0.890   5.858  0.0836  0.5435 -0.7821
  685MOL0     H92411  -0.030   0.788   6.001 -2.0344 -2.8011 -4.3721
  685MOL0     H92412  -0.269   0.920   5.874  0.7130  0.0020 -0.3017
  685MOL0     H92413  -0.272   0.859   6.039  0.2873 -0.6730  1.1445
  685MOL0     H92414  -0.149   0.644   5.916 -0.0894 -0.6995 -1.9881
  685MOL0     H92415  -0.227   0.717   5.776 -1.8519 -3.3121 -0.2198
  685MOL0     H92416  -0.344   0.532   5.935 -3.1065 -0.5631  3.5348
  685MOL0     H92417  -0.401   0.666   6.014  0.9857 -3.3143  2.5927
  685MOL0     H92418  -0.441   0.586   5.730 -2.0363 -0.5497 -0.6261
  685MOL0     H92419  -0.556   0.599   5.870 -1.3930  1.9100  1.5741
  685MOL0     H92420  -0.547   0.847   5.841 -0.3235  1.4605 -1.3132
  685MOL0     H92421  -0.413   0.840   5.719 -1.6523  1.5466 -1.4686
  685MOL0     H92422  -0.682   0.722   5.657 -1.1984 -0.5498 -3.8923
  685MOL0     H92423  -0.535   0.716   5.565 -0.3044 -0.2110  0.0067
  685MOL0     H92424  -0.726   0.927   5.587 -0.1047 -0.5539 -2.0469
  685MOL0     H92425  -0.573   0.994   5.612 -0.4046  0.2016  1.2818
  685MOL0     H92426  -0.428   1.014   5.364  1.0351 -0.1815 -1.1367
  685MOL0     H92427  -0.458   0.870   5.022  0.6674  0.0769  0.3300
  685MOL0     H92428  -0.535   1.021   5.006 -1.7286  0.5093  0.7966
  685MOL0     H92429  -0.291   0.960   5.163 -1.3888 -1.0108  1.1116
  685MOL0     H92430  -0.313   1.033   4.998 -2.1580  2.8444 -0.1746
  685MOL0     H92431  -0.413   1.197   5.253  0.7483  3.6809 -0.3982
  685MOL0     H92432  -0.400   1.249   5.083  0.8760  1.5654  1.1071
  685MOL0     H92433  -0.206   1.313   5.212  3.3162 -0.6727 -2.2354
  685MOL0     H92434  -0.152   1.166   5.133  1.3014 -0.8459  1.7737
  685MOL0     H92435  -0.151   1.158   5.570 -0.8523 -1.5804 -0.3590
  685MOL0     H92436   0.067   1.224   5.679  1.1050  1.2996 -0.9010
  685MOL0     H92437   0.525   1.379   5.683  1.1516  1.5386  1.0994
  685MOL0     H92438   0.733   1.317   5.793  0.7478  1.3612 -0.0656
  685MOL0     H92439   1.042   1.322   5.617 -2.3211  0.1562 -0.5277
  685MOL0     H92440   0.956   1.334   5.770  2.4923  3.0293 -1.3279
  685MOL0     H92441   1.074   1.157   5.865  1.8920 -0.3732  1.6753
  685MOL0     H92442   1.178   1.154   5.724 -1.0630 -0.2686 -0.5775
  685MOL0     H92443   1.229   1.407   5.807  4.2926 -3.9126 -1.3094
  685MOL0     H92444   1.111   1.370   5.938 -1.3820 -2.8305  1.1408
  685MOL0     H92445   1.396   1.240   5.911  0.0669 -3.3437  2.4918
  685MOL0     H92446   1.271   1.191   6.020 -0.3866 -0.1673  0.1060
  685MOL0     H92447   1.273   1.421   6.136  0.8618 -0.5537 -0.2838
  685MOL0     H92448   1.359   1.482   5.995 -0.3877  0.9660  0.9022
  685MOL0     H92449   1.475   1.272   6.166 -0.7007 -1.1415 -2.6599
  685MOL0     H92450   1.546   1.367   6.034  0.4795  1.5551  1.6760
  685MOL0     H92451   1.435   1.489   6.280 -2.1564 -3.2427 -2.6032
  685MOL0     H92452   1.549   1.566   6.163 -0.0449  2.0865  1.7739
  685MOL0     H92453   1.684   1.503   6.354  0.6097  0.7201 -0.8617
  685MOL0     H92454   1.617   1.338   6.348 -2.3352  0.5167  0.9770
  685MOL0     H92455   0.833   1.064   5.460 -0.9251 -0.9765 -0.1135
  685MOL0     H92456   0.581   1.096   5.381  2.4673 -0.7122 -0.7001
  685MOL0     H92457   0.265   1.187   5.301 -3.0054  1.4804 -4.4086
  685MOL0     H92458   0.044   1.157   5.192  1.4513 -2.5608  0.1777
  685MOL0     H92459   0.147   0.970   5.873 -0.2045 -0.5967  0.8651
  685MOL0     H92460   0.361   1.112   5.911 -0.5270  0.4928  0.1691
  685MOL0     H92461   0.632   1.308   6.011  1.2755 -1.4129  1.8922
  685MOL0     H92462   0.862   1.391   6.046  0.7680  0.4419  3.0011
  685MOL0     H92463   1.060   1.545   6.279  0.0244 -1.2218  0.1813
  685MOL0     H92464   0.917   1.615   6.349  1.5771 -0.5469  0.1477
  685MOL0     H92465   1.067   1.782   6.408  1.1629  1.2860 -0.1615
  685MOL0     H92466   0.991   1.846   6.267  0.9742  1.1974  2.5474
  685MOL0     H92467   1.205   1.850   6.172 -1.7683  2.2163  1.7646
  685MOL0     H92468   1.246   1.683   6.223 -3.5092 -0.6456 -0.7269
  685MOL0     H92469   1.391   1.851   6.316 -0.2676  2.8345 -0.2299
  685MOL0     H92470   1.249   1.944   6.382 -0.8447  0.2985  0.7493
  685MOL0     H92471   1.387   1.656   6.667  1.4614  1.0199 -0.8137
  685MOL0     H92472   0.709   1.743   6.240 -1.5102  0.8343 -2.2993
  685MOL0     H92473   0.391   1.726   6.136 -1.2603 -0.6809  0.4352
  685MOL0     H92474   0.379   1.623   6.278 -1.8546 -0.2700 -1.0263
  685MOL0     H92475   0.492   1.751   6.290 -1.4199 -0.4781  0.9079
  686MOL0     O92476   0.390   0.807   6.683 -0.3985  0.0560 -0.2021
  686MOL0     C92477   0.392   0.877   6.780 -0.3261  0.0729  0.0410
  686MOL0     O92478   0.279   0.909   6.850  0.5645 -0.1824  0.1194
  686MOL0     C92479   0.152   0.849   6.843  0.1097  0.5829  0.2939
  686MOL0     C92480   0.053   0.916   6.902 -0.7923  1.0373  1.2508
  686MOL0     C92481  -0.066   0.846   6.918 -0.2511 -0.7574 -0.7453
  686MOL0     C92482  -0.095   0.722   6.878  0.3044 -0.4730  0.6724
  686MOL0     O92483  -0.218   0.664   6.907 -0.2265 -0.2603 -0.4308
  686MOL0     C92484  -0.264   0.565   6.810  0.2635 -0.5373 -0.1588
  686MOL0     C92485  -0.409   0.563   6.833 -0.3108 -0.8109  0.2402
  686MOL0     C92486  -0.473   0.426   6.780  0.0181 -0.2110 -0.2680
  686MOL0     C92487  -0.473   0.430   6.624 -0.6076 -0.0335  0.1956
  686MOL0     C92488  -0.535   0.299   6.567 -0.4305 -0.0539 -0.2369
  686MOL0     C92489  -0.432   0.182   6.566 -0.4887 -0.7720 -0.0396
  686MOL0     C92490  -0.490   0.064   6.486  0.3327 -0.0715 -0.4947
  686MOL0     C92491  -0.404  -0.057   6.504 -0.3172  0.4504 -0.1734
  686MOL0     N92492  -0.470  -0.169   6.438 -0.7829  0.9134  0.3854
  686MOL0     C92493  -0.587  -0.222   6.486 -0.3276 -0.2215 -0.5653
  686MOL0     C92494  -0.639  -0.303   6.402 -0.0098  0.2029 -0.2600
  686MOL0     C92495  -0.770  -0.381   6.419  0.9913 -0.0787 -0.1854
  686MOL0     C92496  -0.899  -0.297   6.445  0.7311  0.9055 -0.3365
  686MOL0     C92497  -0.919  -0.184   6.344  0.1214 -0.2846  0.1634
  686MOL0     C92498  -0.954  -0.049   6.409  0.0004  0.2758  0.5258
  686MOL0     O92499  -1.083  -0.067   6.467 -0.1690 -0.0042 -0.2944
  686MOL0     C92500  -1.163   0.045   6.485  0.0649 -1.0491 -0.2352
  686MOL0     C92501  -1.123   0.178   6.446  0.1312 -0.0903  0.0734
  686MOL0     C92502  -1.202   0.289   6.487 -0.2636 -0.0129 -0.1716
  686MOL0     C92503  -1.314   0.272   6.566  0.2983  0.6701 -1.0262
  686MOL0     C92504  -1.401   0.386   6.602 -0.0416 -0.6657 -0.0031
  686MOL0     O92505  -1.518   0.369   6.683 -0.0954 -0.1578  0.1801
  686MOL0     C92506  -1.602   0.469   6.706  0.5604  0.6364 -0.2521
  686MOL0     C92507  -1.568   0.607   6.710 -1.1362  0.1160  0.2323
  686MOL0     C92508  -1.652   0.708   6.743  0.7121 -0.3509  0.5564
  686MOL0     C92509  -1.782   0.678   6.785 -1.2265  0.4705 -0.6401
  686MOL0     O92510  -1.856   0.786   6.823 -0.5667 -0.1928  0.6257
  686MOL0     C92511  -1.989   0.769   6.866  0.2614  0.3511 -0.3226
  686MOL0     C92512  -2.072   0.876   6.831  0.0871 -0.2410 -0.4359
  686MOL0     C92513  -2.100   0.921   6.694 -0.1626  0.5223  0.1007
  686MOL0     C92514  -2.173   0.812   6.606  1.0068  1.0926 -0.4062
  686MOL0     C92515  -2.271   0.867   6.510 -0.2005 -0.0954 -0.7826
  686MOL0     C92516  -2.393   0.927   6.577  0.0401 -0.0375 -0.1839
  686MOL0     C92517  -2.508   0.954   6.477 -0.5846 -0.3413 -0.1501
  686MOL0     C92518  -2.601   1.059   6.541 -0.6873  0.7252 -0.3849
  686MOL0    Cl92519  -2.668   1.033   6.713 -0.1457 -0.2575  0.1951
  686MOL0     C92520  -1.814   0.540   6.787  0.4347  0.6369 -0.5292
  686MOL0     C92521  -1.736   0.435   6.732 -0.3230  0.2470  0.0258
  686MOL0     O92522  -1.368   0.490   6.544 -0.6952  0.5610 -0.0228
  686MOL0     C92523  -1.357   0.142   6.599  0.7104 -0.1973 -0.0824
  686MOL0     C92524  -1.281   0.032   6.554  0.2557 -0.7480 -0.2037
  686MOL0     N92525  -0.553  -0.303   6.286  0.2419 -0.6337 -0.4786
  686MOL0     N92526  -0.449  -0.226   6.316  0.4683 -0.5679 -0.0197
  686MOL0     C92527   0.011   0.652   6.819 -0.1549 -0.0437  0.3108
  686MOL0     C92528   0.129   0.715   6.811 -0.1194  0.0551  1.0447
  686MOL0     C92529   0.508   0.960   6.818  0.1523 -0.6520  0.9805
  686MOL0     C92530   0.493   1.080   6.887 -0.4816  0.1516 -0.5759
  686MOL0     C92531   0.603   1.169   6.898  0.3536  1.0063  0.2149
  686MOL0     C92532   0.722   1.140   6.832 -0.5918 -0.6530 -0.4645
  686MOL0     O92533   0.815   1.244   6.834 -0.3575  0.6792  0.8773
  686MOL0     C92534   0.937   1.233   6.752 -0.7087 -0.6152  0.1759
  686MOL0     C92535   0.923   1.262   6.603 -0.5521  0.1719  0.2597
  686MOL0     C92536   0.914   1.415   6.581 -0.0739  0.1869  0.2989
  686MOL0     C92537   1.046   1.493   6.618 -0.3743 -0.5069  0.3110
  686MOL0     C92538   1.154   1.426   6.545 -0.5166  0.7715  0.7140
  686MOL0     C92539   1.241   1.381   6.479 -0.0938 -0.0459  0.2940
  686MOL0     C92540   0.732   1.017   6.776 -1.1599  0.9656  0.4696
  686MOL0     C92541   0.636   0.926   6.768 -0.6334 -0.1343 -0.1346
  686MOL0     C92542   0.664   0.796   6.688 -0.2117  0.1001  0.6357
  686MOL0     H92543   0.075   1.018   6.932 -0.2227  0.6476  2.2000
  686MOL0     H92544  -0.148   0.886   6.977  1.3181  0.7463  0.4890
  686MOL0     H92545  -0.232   0.602   6.713 -0.5774 -2.0560 -1.0675
  686MOL0     H92546  -0.215   0.469   6.833  2.4563  1.1453  3.0080
  686MOL0     H92547  -0.463   0.652   6.798  3.6949  3.3130  3.4186
  686MOL0     H92548  -0.409   0.566   6.942  2.1686 -1.2701  0.3147
  686MOL0     H92549  -0.569   0.412   6.831  1.2519 -0.7211  2.0817
  686MOL0     H92550  -0.404   0.348   6.815  1.9050  1.4306 -0.1808
  686MOL0     H92551  -0.520   0.527   6.607  4.0210  2.4520  0.0112
  686MOL0     H92552  -0.370   0.446   6.589 -1.6940  3.3358 -1.9690
  686MOL0     H92553  -0.620   0.275   6.631  0.4360  4.7508  3.3033
  686MOL0     H92554  -0.580   0.311   6.468 -0.9928  0.3426  0.0583
  686MOL0     H92555  -0.338   0.224   6.528  1.9154 -1.5217  4.3029
  686MOL0     H92556  -0.425   0.155   6.672 -4.0099  0.3044  0.5898
  686MOL0     H92557  -0.481   0.089   6.380 -0.7508 -2.1188 -1.1315
  686MOL0     H92558  -0.594   0.036   6.503  0.3400 -0.3573 -0.9076
  686MOL0     H92559  -0.307  -0.040   6.455 -1.8948 -2.0962 -4.7398
  686MOL0     H92560  -0.385  -0.085   6.609 -1.8655  2.3652  0.6737
  686MOL0     H92561  -0.631  -0.201   6.583  0.7167 -0.1229 -0.1015
  686MOL0     H92562  -0.792  -0.424   6.321 -1.6308 -0.4289  0.4864
  686MOL0     H92563  -0.756  -0.457   6.497 -0.9354  1.9650  2.3711
  686MOL0     H92564  -0.987  -0.361   6.434  1.0746 -0.1947  2.5052
  686MOL0     H92565  -0.894  -0.253   6.545  4.4513  0.4026 -0.1610
  686MOL0     H92566  -0.993  -0.207   6.267 -0.0730 -1.6129  0.7251
  686MOL0     H92567  -0.828  -0.173   6.284 -0.6721 -2.3710 -1.5390
  686MOL0     H92568  -0.959   0.030   6.334  1.4527  1.4281  1.5794
  686MOL0     H92569  -0.883  -0.020   6.487  1.0068  2.8644 -1.2159
  686MOL0     H92570  -1.028   0.203   6.400  0.3083  0.5680  0.7847
  686MOL0     H92571  -1.167   0.390   6.469 -0.6316  0.5037  1.7568
  686MOL0     H92572  -1.471   0.642   6.676 -0.2158 -2.4365 -0.0234
  686MOL0     H92573  -1.630   0.812   6.720 -1.1970 -0.0739 -0.2191
  686MOL0     H92574  -2.026   0.677   6.819  1.9283  0.6046 -2.2987
  686MOL0     H92575  -1.980   0.760   6.974  1.3763 -0.0097 -0.4382
  686MOL0     H92576  -2.167   0.866   6.883  0.6824  1.7708  1.1653
  686MOL0     H92577  -2.029   0.957   6.889 -1.2305 -1.2221  2.0432
  686MOL0     H92578  -2.158   1.013   6.703  0.1039  0.8306 -1.1375
  686MOL0     H92579  -2.011   0.961   6.644  2.3217 -0.9209  3.0456
  686MOL0     H92580  -2.225   0.751   6.681  3.5909 -0.0055  0.6239
  686MOL0     H92581  -2.102   0.740   6.564 -0.9054  0.2539 -2.3680
  686MOL0     H92582  -2.313   0.786   6.449 -1.6691  1.2824 -1.6834
  686MOL0     H92583  -2.221   0.944   6.450 -0.2240 -0.8752 -1.8309
  686MOL0     H92584  -2.439   0.856   6.647  0.1809 -1.4307 -1.4540
  686MOL0     H92585  -2.374   1.013   6.642 -4.5302  1.1161  0.0108
  686MOL0     H92586  -2.563   0.861   6.462 -1.7022 -0.5925  4.2265
  686MOL0     H92587  -2.471   1.004   6.387  1.2726  0.8358  1.2056
  686MOL0     H92588  -2.546   1.153   6.535  1.2866 -0.1720  1.9672
  686MOL0     H92589  -2.681   1.058   6.465 -0.6040 -2.5684 -0.5541
  686MOL0     H92590  -1.914   0.516   6.822  1.1689 -2.6171 -0.3493
  686MOL0     H92591  -1.782   0.337   6.725 -1.0788  0.5328  0.7658
  686MOL0     H92592  -1.452   0.113   6.641  1.9187 -0.9051  2.3228
  686MOL0     H92593  -1.321  -0.069   6.566  0.1080 -0.9649 -2.2617
  686MOL0     H92594  -0.003   0.549   6.788 -3.1622  1.0321 -2.5019
  686MOL0     H92595   0.205   0.649   6.771 -0.6495 -2.2411  3.5142
  686MOL0     H92596   0.402   1.098   6.944  1.0003 -0.5879  2.1621
  686MOL0     H92597   0.592   1.264   6.948 -1.6713  1.0133 -0.1866
  686MOL0     H92598   0.987   1.137   6.767 -0.9198 -0.5020  1.8335
  686MOL0     H92599   1.014   1.306   6.779  0.5229 -0.2661 -3.6710
  686MOL0     H92600   0.830   1.217   6.567 -1.8006  2.6326  0.1865
  686MOL0     H92601   0.992   1.204   6.540 -0.5225 -1.7927  1.9876
  686MOL0     H92602   0.844   1.477   6.638  1.6747  4.3212 -1.6104
  686MOL0     H92603   0.887   1.429   6.476 -2.4159 -1.5930  0.5949
  686MOL0     H92604   1.051   1.592   6.572 -0.6537 -0.8183 -0.4076
  686MOL0     H92605   1.062   1.505   6.725 -1.9171  0.9408  0.4100
  686MOL0     H92606   1.328   1.337   6.435  2.6470  1.9776  3.1894
  686MOL0     H92607   0.828   0.995   6.731 -0.1597  1.2554  2.3541
  686MOL0     H92608   0.771   0.774   6.691 -0.7796 -2.9576  1.5475
  686MOL0     H92609   0.612   0.707   6.725 -0.1822  0.2659  1.0746
  686MOL0     H92610   0.639   0.810   6.582  2.8069 -1.4412 -0.3920
  687MOL0     O92611   4.276   8.775   6.250  0.4473 -0.1085 -1.0305
  687MOL0     C92612   4.230   8.666   6.278 -0.7251  0.1960  0.2201
  687MOL0     O92613   4.249   8.556   6.209 -0.2120  0.3561 -0.2435
  687MOL0     C92614   4.256   8.553   6.072  0.0526 -0.5078 -0.9817
  687MOL0     C92615   4.334   8.641   6.001  1.1135 -0.8571  0.3162
  687MOL0     C92616   4.329   8.636   5.860 -0.5055 -0.0949  0.1782
  687MOL0     C92617   4.255   8.538   5.794 -0.6031 -0.9069 -0.5585
  687MOL0     O92618   4.265   8.523   5.659  0.2546 -0.2063 -0.3238
  687MOL0     C92619   4.168   8.450   5.586 -0.2149 -0.0230 -1.8348
  687MOL0     C92620   4.046   8.535   5.575 -0.4295  0.8997 -0.6282
  687MOL0     C92621   3.932   8.553   5.681  0.0005  1.2031 -0.1716
  687MOL0     C92622   3.821   8.649   5.622  0.1398  0.1188  0.0806
  687MOL0     C92623   3.696   8.659   5.713 -0.4442  0.4406 -0.1476
  687MOL0     C92624   3.580   8.749   5.658 -0.8158  0.2364 -0.4429
  687MOL0     C92625   3.510   8.799   5.782  0.6021  0.2329 -0.5509
  687MOL0     C92626   3.384   8.879   5.731 -0.1741  0.2719  0.1010
  687MOL0     N92627   3.273   8.862   5.825  0.1045  0.4104 -0.5054
  687MOL0     C92628   3.214   8.739   5.839 -0.0153  0.3797  1.4851
  687MOL0     C92629   3.107   8.760   5.926 -0.1187  0.7745 -0.0253
  687MOL0     C92630   3.016   8.665   5.994 -1.2737  0.3064 -0.1117
  687MOL0     C92631   3.090   8.581   6.097  0.8708 -0.5798  0.2342
  687MOL0     C92632   2.998   8.485   6.177  0.2980 -0.0960 -0.0744
  687MOL0     C92633   2.916   8.385   6.092 -0.3441  0.1460 -0.0097
  687MOL0     O92634   2.830   8.315   6.181 -0.3333 -0.3319  0.6801
  687MOL0     C92635   2.790   8.189   6.154 -0.7706  0.8073 -0.6345
  687MOL0     C92636   2.760   8.106   6.259  0.1509  0.1765  0.7058
  687MOL0     C92637   2.724   7.969   6.236 -0.1274 -0.4135 -0.5637
  687MOL0     C92638   2.748   7.913   6.109 -0.0490  0.5025  0.3563
  687MOL0     C92639   2.726   7.765   6.085  0.1684 -0.4040  1.3397
  687MOL0     O92640   2.818   7.718   6.004  0.1296 -0.1141 -0.2817
  687MOL0     C92641   2.821   7.579   5.977 -0.3307 -0.2434 -0.3779
  687MOL0     C92642   2.710   7.523   5.916  0.5434  0.4984  0.4382
  687MOL0     C92643   2.707   7.385   5.888 -0.2593  0.5820  0.3369
  687MOL0     C92644   2.817   7.301   5.908 -0.1321  0.6071  0.7565
  687MOL0     O92645   2.829   7.171   5.870  0.4717  0.5276  0.7302
  687MOL0     C92646   2.717   7.091   5.849  0.0326  0.3033  1.0998
  687MOL0     C92647   2.750   6.947   5.864 -0.1453  0.1450  0.1874
  687MOL0     C92648   2.866   6.897   5.769 -0.4384 -1.0064 -0.3606
  687MOL0     C92649   3.003   6.898   5.861  0.0870 -0.6978 -0.5332
  687MOL0     C92650   3.128   6.832   5.801  0.4541 -0.1559  0.3312
  687MOL0     C92651   3.162   6.838   5.650 -0.2482  0.0580  0.1571
  687MOL0     C92652   3.294   6.770   5.623 -0.1231  0.9699  0.4485
  687MOL0     C92653   3.304   6.681   5.505 -0.1117 -0.4386 -0.0571
  687MOL0    Cl92654   3.296   6.784   5.358  0.1166 -0.0868 -0.1714
  687MOL0     C92655   2.926   7.364   5.962 -0.4431  1.5371 -1.1261
  687MOL0     C92656   2.937   7.497   6.004 -0.1840 -0.4764  0.2623
  687MOL0     O92657   2.647   7.702   6.143  0.2012 -0.5638  0.0838
  687MOL0     C92658   2.776   7.995   6.004  0.4052  0.6116 -0.1624
  687MOL0     C92659   2.788   8.132   6.025 -0.3950 -0.5283  0.1569
  687MOL0     N92660   3.109   8.890   5.968 -0.8862 -0.0831 -1.0315
  687MOL0     N92661   3.209   8.948   5.906  0.6461  0.0137  0.2697
  687MOL0     C92662   4.189   8.446   5.878 -0.3481 -0.4659  0.5987
  687MOL0     C92663   4.186   8.453   6.017 -0.3242 -0.3044  0.1160
  687MOL0     C92664   4.178   8.633   6.414  0.8055  0.2777 -0.0375
  687MOL0     C92665   4.207   8.505   6.475 -0.3720 -0.2234  0.6170
  687MOL0     C92666   4.179   8.480   6.611  0.4445  0.1163  0.2437
  687MOL0     C92667   4.128   8.582   6.691  1.1539  0.5440 -0.1937
  687MOL0     O92668   4.097   8.573   6.828  0.4499  0.0412  0.7708
  687MOL0     C92669   4.119   8.443   6.892  0.3600  0.3226 -1.5620
  687MOL0     C92670   4.102   8.451   7.048  0.4615  1.0189  0.7699
  687MOL0     C92671   3.956   8.483   7.079  0.2340  1.2618 -0.1106
  687MOL0     C92672   3.940   8.630   7.100  0.5278 -0.9024 -0.9110
  687MOL0     C92673   3.991   8.667   7.232  0.8532 -0.0160  0.4364
  687MOL0     C92674   4.055   8.679   7.331  0.7228  0.2396  0.4281
  687MOL0     C92675   4.085   8.698   6.628 -0.0160  0.8311  0.5070
  687MOL0     C92676   4.109   8.733   6.493  0.3201  0.5685  0.3303
  687MOL0     C92677   4.049   8.864   6.432  0.3056  0.3891  0.2628
  687MOL0     H92678   4.408   8.709   6.041  1.4266 -1.1096  0.1774
  687MOL0     H92679   4.399   8.688   5.796  1.2750 -2.5190  0.0071
  687MOL0     H92680   4.209   8.434   5.486  0.5080  1.0445 -1.7232
  687MOL0     H92681   4.150   8.349   5.625  0.4708  1.2555  2.1713
  687MOL0     H92682   3.990   8.508   5.485 -1.3635 -3.2351  0.9527
  687MOL0     H92683   4.077   8.638   5.554 -0.6847  0.6152 -2.5631
  687MOL0     H92684   3.964   8.601   5.774 -0.3438  1.2632 -0.0849
  687MOL0     H92685   3.884   8.458   5.706 -1.9436  1.8425 -1.2924
  687MOL0     H92686   3.871   8.745   5.608  2.1863 -0.0373  4.5437
  687MOL0     H92687   3.782   8.616   5.526 -0.5148  0.5572  0.1929
  687MOL0     H92688   3.663   8.558   5.736  0.2989 -0.5061 -2.7879
  687MOL0     H92689   3.739   8.700   5.804  0.3215 -0.9110  0.1275
  687MOL0     H92690   3.613   8.842   5.611 -2.1098  0.7484 -0.3850
  687MOL0     H92691   3.513   8.700   5.586  1.4605  0.7620 -3.1048
  687MOL0     H92692   3.579   8.865   5.835  0.6716 -0.6151  0.4315
  687MOL0     H92693   3.487   8.717   5.850  1.7267  1.8331  1.8760
  687MOL0     H92694   3.397   8.987   5.724  0.5231  0.3214  1.7128
  687MOL0     H92695   3.349   8.835   5.636  3.2041 -1.5361 -0.4471
  687MOL0     H92696   3.251   8.653   5.785  3.7711 -0.1366  4.4870
  687MOL0     H92697   2.929   8.717   6.035 -0.2051  0.5491  1.9542
  687MOL0     H92698   2.983   8.599   5.913 -1.1444 -1.4668  1.2116
  687MOL0     H92699   3.157   8.516   6.040 -1.3708 -2.2241 -0.7231
  687MOL0     H92700   3.147   8.646   6.163 -0.7557  0.9556  0.2179
  687MOL0     H92701   2.929   8.538   6.243 -0.7536  2.9301 -3.3167
  687MOL0     H92702   3.069   8.419   6.227  1.0423 -0.6443 -1.7670
  687MOL0     H92703   2.977   8.318   6.030 -2.6318 -0.8396 -1.3104
  687MOL0     H92704   2.865   8.451   6.021 -1.2527 -1.0379 -0.5004
  687MOL0     H92705   2.779   8.154   6.354  2.0584 -3.7778  2.5443
  687MOL0     H92706   2.688   7.910   6.319 -2.1935  1.3768 -0.0936
  687MOL0     H92707   2.622   7.586   5.908  0.5691  0.3149 -1.9393
  687MOL0     H92708   2.612   7.339   5.861  0.6614 -1.4375  0.3513
  687MOL0     H92709   2.640   7.108   5.924 -0.2034 -2.3315  1.5733
  687MOL0     H92710   2.682   7.110   5.747 -1.6708  0.0909  1.6176
  687MOL0     H92711   2.775   6.935   5.970 -0.1962  2.1964  0.4706
  687MOL0     H92712   2.666   6.881   5.840  0.6250 -0.1516 -1.8662
  687MOL0     H92713   2.847   6.795   5.736  0.1032 -0.1786 -3.5344
  687MOL0     H92714   2.879   6.953   5.676  2.6343  0.5338  0.8665
  687MOL0     H92715   2.970   6.852   5.954  0.5185  2.0740  1.0820
  687MOL0     H92716   3.035   7.000   5.882  0.5159 -1.3750  2.4770
  687MOL0     H92717   3.121   6.725   5.824  1.0731  0.0294  1.4337
  687MOL0     H92718   3.201   6.890   5.859 -0.6917  0.4101  1.2352
  687MOL0     H92719   3.080   6.784   5.602  0.0876  0.2381 -0.6300
  687MOL0     H92720   3.167   6.942   5.615 -1.5555 -0.2954 -1.1751
  687MOL0     H92721   3.320   6.713   5.713  0.2625 -0.4757 -0.5440
  687MOL0     H92722   3.361   6.856   5.615 -0.8806  1.6959  1.5637
  687MOL0     H92723   3.400   6.628   5.518 -0.3119 -0.8326 -0.1623
  687MOL0     H92724   3.220   6.611   5.510 -0.8626  0.5178  1.7560
  687MOL0     H92725   3.008   7.296   5.979 -0.0291  2.6112  1.6565
  687MOL0     H92726   3.028   7.537   6.048  0.9908 -3.6266  0.9015
  687MOL0     H92727   2.784   7.956   5.903  1.6455  2.8049 -0.9700
  687MOL0     H92728   2.824   8.209   5.957 -0.9424  1.5909  2.1394
  687MOL0     H92729   4.129   8.375   5.822 -2.7898  2.1326 -0.3054
  687MOL0     H92730   4.134   8.374   6.070  2.6469 -1.1338  2.0185
  687MOL0     H92731   4.257   8.423   6.424  1.0410 -1.1086  3.2092
  687MOL0     H92732   4.204   8.379   6.642 -1.9663 -0.9446 -0.9670
  687MOL0     H92733   4.218   8.416   6.855  1.2679 -0.8061  1.4295
  687MOL0     H92734   4.053   8.364   6.855 -0.4993 -1.7624  3.6475
  687MOL0     H92735   4.181   8.517   7.087 -0.0853  3.4986 -1.9086
  687MOL0     H92736   4.119   8.349   7.082  2.5586  1.8511  2.4607
  687MOL0     H92737   3.933   8.428   7.170  2.6218 -0.1912 -0.3098
  687MOL0     H92738   3.894   8.442   6.998 -0.7465  0.8421  0.8288
  687MOL0     H92739   4.005   8.688   7.033 -0.4930 -1.4150 -2.4001
  687MOL0     H92740   3.838   8.665   7.082  0.8530  2.6634  2.8941
  687MOL0     H92741   4.125   8.689   7.411  1.0281  1.2229  0.0594
  687MOL0     H92742   4.042   8.777   6.690  1.7570  1.5296  0.9089
  687MOL0     H92743   3.940   8.857   6.424  0.3128  1.8276 -2.0102
  687MOL0     H92744   4.062   8.941   6.508 -1.7441  0.7300  0.3034
  687MOL0     H92745   4.103   8.887   6.340  2.5500 -1.0504  1.1116
  688MOL0     O92746   5.706   9.550  10.595  0.6885  0.1437  0.0201
  688MOL0     C92747   5.773   9.652  10.613 -0.0258 -0.1842  0.2198
  688MOL0     O92748   5.729   9.775  10.656 -0.4489 -0.0322 -0.8786
  688MOL0     C92749   5.600   9.806  10.623  0.5689 -0.7109  0.1222
  688MOL0     C92750   5.560   9.835  10.490 -0.8531  0.7599 -0.5129
  688MOL0     C92751   5.435   9.866  10.447 -0.0014  0.5113 -0.9636
  688MOL0     C92752   5.333   9.882  10.550 -0.3221 -0.6379 -0.1823
  688MOL0     O92753   5.211   9.883  10.500 -0.3443 -0.5162  0.0962
  688MOL0     C92754   5.103   9.888  10.592 -0.0713 -0.4397 -0.2405
  688MOL0     C92755   5.071  10.032  10.633  0.4023  0.3527 -0.7162
  688MOL0     C92756   4.920  10.028  10.679  0.3621  0.1731  0.7303
  688MOL0     C92757   4.864  10.173  10.704  0.0632 -0.6570 -0.2506
  688MOL0     C92758   4.705  10.173  10.749 -0.5324  0.6856 -1.1504
  688MOL0     C92759   4.625  10.309  10.754  0.3084 -0.5666  0.2557
  688MOL0     C92760   4.587  10.364  10.616 -0.3478  0.5813 -0.1077
  688MOL0     C92761   4.700  10.464  10.572  0.0469  0.3127 -0.1814
  688MOL0     N92762   4.684  10.545  10.453 -0.1529 -0.4610  0.3603
  688MOL0     C92763   4.782  10.551  10.349  0.0995 -0.2664 -0.3560
  688MOL0     C92764   4.718  10.624  10.256  0.4422 -0.0863  0.1465
  688MOL0     C92765   4.777  10.657  10.123  0.3878  0.4674  0.0862
  688MOL0     C92766   4.775  10.551  10.013 -0.6434 -0.4800 -0.4214
  688MOL0     C92767   4.765  10.617   9.868 -0.5841 -0.0593 -0.7209
  688MOL0     C92768   4.762  10.512   9.755  0.3557  0.0552  0.7126
  688MOL0     O92769   4.661  10.557   9.661 -0.7513 -0.6757 -0.0266
  688MOL0     C92770   4.676  10.558   9.525 -1.0866 -0.4117  1.0392
  688MOL0     C92771   4.572  10.613   9.447  0.6705 -0.5854 -1.5330
  688MOL0     C92772   4.558  10.613   9.306 -0.4821 -0.4446 -0.6477
  688MOL0     C92773   4.656  10.550   9.232 -0.0514  0.1040 -0.2634
  688MOL0     C92774   4.651  10.533   9.088  0.1161  0.2213  0.4404
  688MOL0     O92775   4.523  10.546   9.028  0.1475 -0.5517  0.3258
  688MOL0     C92776   4.490  10.468   8.907 -0.3563 -0.4206 -0.1796
  688MOL0     C92777   4.381  10.376   8.923  0.2080  0.1611 -0.1083
  688MOL0     C92778   4.360  10.289   8.815 -0.6812 -0.7872  0.1363
  688MOL0     C92779   4.438  10.298   8.697 -1.3733  0.8277 -0.2174
  688MOL0     O92780   4.415  10.208   8.592 -0.2271 -0.5913  0.2979
  688MOL0     C92781   4.499  10.091   8.588 -0.3503  0.0057  0.0928
  688MOL0     C92782   4.413   9.959   8.559  0.2505  0.1952  0.1534
  688MOL0     C92783   4.308   9.902   8.665  0.6415 -0.0724  0.1434
  688MOL0     C92784   4.358   9.917   8.811 -0.9920  0.1775 -0.3978
  688MOL0     C92785   4.253   9.903   8.926  0.4738  0.1329  1.0873
  688MOL0     C92786   4.252   9.760   8.971  0.3706  0.9452  0.0968
  688MOL0     C92787   4.113   9.725   9.041 -0.6275  0.0866 -0.6669
  688MOL0     C92788   4.114   9.576   9.083 -0.3473 -0.3635 -1.1221
  688MOL0    Cl92789   3.958   9.526   9.147 -0.0039 -0.0903  0.1869
  688MOL0     C92790   4.546  10.384   8.692  0.4285  1.1255 -0.3274
  688MOL0     C92791   4.570  10.462   8.797 -0.9732 -0.8226 -0.3465
  688MOL0     O92792   4.748  10.483   9.033 -0.0648  0.5150  0.0976
  688MOL0     C92793   4.764  10.496   9.300 -0.6000 -1.0101 -0.2503
  688MOL0     C92794   4.776  10.503   9.439 -0.0713  0.3142  0.0139
  688MOL0     N92795   4.585  10.640  10.284  0.4385 -0.3246 -0.0278
  688MOL0     N92796   4.568  10.582  10.394 -0.0419  0.3131 -0.7376
  688MOL0     C92797   5.376   9.870  10.691  0.0167 -0.2691 -0.0764
  688MOL0     C92798   5.510   9.842  10.727  0.6438 -0.1649  0.3072
  688MOL0     C92799   5.924   9.652  10.590  0.0350  1.0194  0.2691
  688MOL0     C92800   6.014   9.735  10.656  0.0321 -0.2264  0.5994
  688MOL0     C92801   6.153   9.724  10.635  0.7377  0.1005  0.0984
  688MOL0     C92802   6.210   9.640  10.541  0.5055 -0.0531 -0.1693
  688MOL0     O92803   6.340   9.619  10.510 -0.6438 -0.2470 -0.3899
  688MOL0     C92804   6.430   9.730  10.518 -0.6743  1.1153 -0.2305
  688MOL0     C92805   6.387   9.827  10.401 -0.7712  0.9469  0.0293
  688MOL0     C92806   6.442   9.761  10.272 -0.8547  0.4459 -0.5619
  688MOL0     C92807   6.384   9.832  10.150 -1.0859  0.3786  0.3114
  688MOL0     C92808   6.430   9.760  10.027 -0.0714  0.7075  0.2488
  688MOL0     C92809   6.474   9.721   9.919 -0.3807 -0.5521  0.2410
  688MOL0     C92810   6.118   9.563  10.473  0.0955 -0.5628  0.1505
  688MOL0     C92811   5.976   9.571  10.487 -0.5350 -0.2201 -0.2342
  688MOL0     C92812   5.907   9.468  10.403 -0.3529 -0.4012  0.1076
  688MOL0     H92813   5.641   9.819  10.420 -1.1333 -1.1565 -0.4553
  688MOL0     H92814   5.398   9.878  10.345 -2.4394 -1.6242 -0.4512
  688MOL0     H92815   5.016   9.849  10.538 -1.0387  1.6755 -0.3276
  688MOL0     H92816   5.119   9.810  10.667 -1.3732  0.2515  0.7969
  688MOL0     H92817   5.081  10.105  10.552  1.6548  0.2405 -0.6807
  688MOL0     H92818   5.140  10.079  10.704 -1.1603  1.6409  0.0291
  688MOL0     H92819   4.908   9.965  10.768 -1.3028  2.8409  2.5177
  688MOL0     H92820   4.850   9.980  10.609 -1.1727 -0.3293  2.5244
  688MOL0     H92821   4.907  10.211  10.797 -0.8080 -0.1471 -0.0439
  688MOL0     H92822   4.887  10.244  10.624  0.0227  1.0533  1.1731
  688MOL0     H92823   4.648  10.118  10.673  0.6968  1.1509 -2.4487
  688MOL0     H92824   4.691  10.126  10.846 -2.7418  1.3709 -1.0588
  688MOL0     H92825   4.528  10.290  10.800  0.6132 -1.6992  0.4598
  688MOL0     H92826   4.676  10.383  10.816  2.0232 -2.0179  0.6648
  688MOL0     H92827   4.491  10.416  10.627  0.2245  2.5787 -3.3341
  688MOL0     H92828   4.567  10.283  10.544 -1.2768 -1.3954  2.2235
  688MOL0     H92829   4.706  10.542  10.648  0.9268 -1.4624  1.6889
  688MOL0     H92830   4.800  10.422  10.588 -0.4098 -1.5908 -1.8307
  688MOL0     H92831   4.883  10.512  10.356  1.2599  2.7853  3.4771
  688MOL0     H92832   4.731  10.750  10.088 -0.7636 -0.0714  0.1052
  688MOL0     H92833   4.885  10.669  10.134  0.6182 -0.7659 -0.6563
  688MOL0     H92834   4.862  10.484  10.020 -0.4635 -0.0548  2.3675
  688MOL0     H92835   4.685  10.489  10.019 -2.0956  1.4835 -1.0752
  688MOL0     H92836   4.848  10.688   9.865  0.9272 -1.7727 -3.3411
  688MOL0     H92837   4.672  10.674   9.872  2.4069  5.3928  1.5162
  688MOL0     H92838   4.738  10.408   9.778 -2.2777  0.2951 -0.6137
  688MOL0     H92839   4.863  10.499   9.713  0.3266  0.8118  0.3910
  688MOL0     H92840   4.508  10.662   9.519  1.5974 -1.3076 -0.1612
  688MOL0     H92841   4.466  10.637   9.255 -1.9375  2.2660  2.8126
  688MOL0     H92842   4.328  10.377   9.017 -0.7531  1.3256 -0.6326
  688MOL0     H92843   4.269  10.230   8.824 -1.1294 -0.4371 -1.7648
  688MOL0     H92844   4.564  10.095   8.500 -2.4099 -1.1165 -1.5712
  688MOL0     H92845   4.550  10.075   8.683 -0.7941  0.6489  0.4487
  688MOL0     H92846   4.366   9.974   8.462 -0.4566 -1.4156  0.2163
  688MOL0     H92847   4.472   9.871   8.533 -1.2376 -0.1842 -2.2203
  688MOL0     H92848   4.213   9.956   8.667  0.4678 -0.2225  4.2417
  688MOL0     H92849   4.279   9.800   8.638 -1.3257  1.3616 -4.0964
  688MOL0     H92850   4.393  10.020   8.817 -1.4622  0.5674 -3.2328
  688MOL0     H92851   4.448   9.860   8.838  0.9136  1.5250 -3.3897
  688MOL0     H92852   4.153   9.929   8.891  1.2911 -0.0029 -1.5493
  688MOL0     H92853   4.293   9.968   9.006 -0.5952  0.9198  1.0065
  688MOL0     H92854   4.263   9.691   8.886  1.1059 -0.3012  1.1709
  688MOL0     H92855   4.339   9.741   9.035  1.0931 -4.0468 -1.8778
  688MOL0     H92856   4.026   9.748   8.977  0.3775  1.7726 -1.4986
  688MOL0     H92857   4.108   9.799   9.121  0.5392 -0.1944 -0.3268
  688MOL0     H92858   4.139   9.525   8.989 -1.5294 -0.3397 -1.4629
  688MOL0     H92859   4.191   9.550   9.157  0.3583 -0.1485 -1.7695
  688MOL0     H92860   4.605  10.374   8.601 -0.6423 -1.1296 -0.8428
  688MOL0     H92861   4.658  10.525   8.795 -0.5456 -1.4166 -2.1659
  688MOL0     H92862   4.849  10.458   9.245  0.8358  2.2365 -0.5132
  688MOL0     H92863   4.873  10.473   9.478  0.8728  1.9166 -1.0037
  688MOL0     H92864   5.316   9.881  10.781 -1.9064 -0.1593 -1.2968
  688MOL0     H92865   5.546   9.837  10.829  5.1282  0.8784 -0.9656
  688MOL0     H92866   5.985   9.807  10.732  2.0926  0.4584  0.8008
  688MOL0     H92867   6.223   9.777  10.698 -2.1778  1.8361  2.1055
  688MOL0     H92868   6.532   9.694  10.512  0.8797  3.8207  4.2477
  688MOL0     H92869   6.421   9.785  10.612 -0.6972  2.4430 -0.9818
  688MOL0     H92870   6.426   9.928  10.410 -1.4879  1.2453 -0.1266
  688MOL0     H92871   6.279   9.843  10.409 -0.7292  0.9821  0.5668
  688MOL0     H92872   6.404   9.659  10.264  0.6972 -0.0779 -1.8022
  688MOL0     H92873   6.551   9.753  10.260 -0.9043 -1.8158  0.0292
  688MOL0     H92874   6.279   9.858  10.166 -0.8407  0.0615  2.9391
  688MOL0     H92875   6.442   9.924  10.148  2.3434 -1.3109  4.8343
  688MOL0     H92876   6.520   9.675   9.833 -0.8828  3.3747 -2.4101
  688MOL0     H92877   6.159   9.502  10.393  1.0992 -0.0224  0.2440
  688MOL0     H92878   5.976   9.412  10.338 -1.4625 -0.0107 -1.4776
  688MOL0     H92879   5.867   9.386  10.463 -0.1921  0.5349  1.5458
  688MOL0     H92880   5.839   9.507  10.327  3.4072 -1.7061 -4.4885
  689MOL0     O92881   3.515   7.093   7.595  0.0655 -0.3500  0.3529
  689MOL0     C92882   3.440   7.102   7.498  0.6834  0.0309  0.5321
  689MOL0     O92883   3.341   7.188   7.496  1.1484  0.1557  0.1156
  689MOL0     C92884   3.312   7.253   7.615 -0.1051 -1.4900 -0.7086
  689MOL0     C92885   3.356   7.383   7.646  0.2122 -0.3333  0.3751
  689MOL0     C92886   3.350   7.444   7.766 -1.1292 -0.5673  0.3139
  689MOL0     C92887   3.270   7.370   7.863 -0.5308  0.1118  0.0543
  689MOL0     O92888   3.251   7.422   7.994 -0.6485  0.4415  0.9634
  689MOL0     C92889   3.384   7.422   8.054  0.2937 -0.1516  0.5068
  689MOL0     C92890   3.406   7.570   8.118 -0.2926 -0.2655 -0.1808
  689MOL0     C92891   3.452   7.574   8.266 -0.0997 -0.9789 -0.5923
  689MOL0     C92892   3.362   7.484   8.354  0.7298 -0.9225 -0.6945
  689MOL0     C92893   3.344   7.527   8.497 -0.1160  0.2976  0.3425
  689MOL0     C92894   3.263   7.434   8.588 -0.6488 -0.7907 -0.1898
  689MOL0     C92895   3.120   7.373   8.539  0.0473 -0.7546 -0.1801
  689MOL0     C92896   3.025   7.481   8.484  0.2794 -0.2418 -0.4329
  689MOL0     N92897   2.897   7.430   8.430 -0.6493 -0.2409 -0.0362
  689MOL0     C92898   2.865   7.449   8.301  0.9092 -0.6108  0.7302
  689MOL0     C92899   2.768   7.361   8.277  0.6624 -1.4268  0.8070
  689MOL0     C92900   2.695   7.332   8.145 -0.5091 -0.6000 -0.0482
  689MOL0     C92901   2.544   7.359   8.155 -0.0100  1.2020 -0.3591
  689MOL0     C92902   2.463   7.371   8.028 -0.6229  0.0597  0.1995
  689MOL0     C92903   2.304   7.362   8.055  0.2814 -0.8948 -0.0880
  689MOL0     O92904   2.270   7.242   8.126  0.2030 -1.0937  0.7972
  689MOL0     C92905   2.141   7.200   8.093  0.5640  1.0104  0.1799
  689MOL0     C92906   2.023   7.268   8.125  0.1723 -0.1292  0.3200
  689MOL0     C92907   1.898   7.200   8.105  0.5448  0.5743 -0.2693
  689MOL0     C92908   1.890   7.073   8.047 -0.3174  0.6889 -1.8710
  689MOL0     C92909   1.768   6.993   8.065 -0.8102 -0.3333  0.5472
  689MOL0     O92910   1.643   7.053   8.053 -0.5149 -0.1889  0.3900
  689MOL0     C92911   1.529   6.972   8.061 -0.4070  0.1915 -0.8350
  689MOL0     C92912   1.417   7.015   8.130  0.5203  0.3503 -0.0581
  689MOL0     C92913   1.304   6.935   8.134 -0.3300 -0.3631  0.6335
  689MOL0     C92914   1.295   6.814   8.063 -0.1253 -0.7790  0.0552
  689MOL0     O92915   1.174   6.737   8.054  0.6556 -0.5277 -0.8254
  689MOL0     C92916   1.177   6.635   8.153  0.5235  0.9449  0.2843
  689MOL0     C92917   1.225   6.508   8.084  0.0548 -0.0445 -0.2828
  689MOL0     C92918   1.186   6.466   7.944 -0.4206  0.0051  0.0465
  689MOL0     C92919   1.268   6.332   7.912 -0.0648 -0.4412  0.3884
  689MOL0     C92920   1.207   6.251   7.791  0.5735  0.6802 -0.4923
  689MOL0     C92921   1.259   6.103   7.799 -0.2168 -0.1756 -0.0865
  689MOL0     C92922   1.396   6.092   7.737  0.2499 -0.2238 -0.1986
  689MOL0     C92923   1.455   5.955   7.754 -0.6293 -0.6962  0.2041
  689MOL0    Cl92924   1.363   5.844   7.650  0.2077  0.1814 -0.6164
  689MOL0     C92925   1.400   6.781   7.974 -0.0033 -0.0658  0.9549
  689MOL0     C92926   1.519   6.861   7.975  0.0464 -0.0022  0.3210
  689MOL0     O92927   1.781   6.870   8.085 -0.1873 -0.9558 -0.3234
  689MOL0     C92928   2.010   7.013   8.005  0.3466  0.5197 -1.1158
  689MOL0     C92929   2.137   7.074   8.027  0.3503 -0.1039 -0.1474
  689MOL0     N92930   2.741   7.292   8.387 -0.2222 -0.1347  0.3384
  689MOL0     N92931   2.810   7.342   8.478 -1.3359  0.3035 -0.1931
  689MOL0     C92932   3.199   7.255   7.823 -0.3893  0.0788  0.4716
  689MOL0     C92933   3.230   7.186   7.705  0.5443 -0.2244  0.0787
  689MOL0     C92934   3.451   6.994   7.398  0.0552 -0.0160 -0.7882
  689MOL0     C92935   3.334   6.931   7.343  1.1396 -0.1998 -0.2238
  689MOL0     C92936   3.348   6.824   7.258  0.5423  0.1455 -0.4033
  689MOL0     C92937   3.474   6.783   7.218 -0.9993 -0.2744  0.4450
  689MOL0     O92938   3.480   6.664   7.138 -0.2340 -0.4052  0.4217
  689MOL0     C92939   3.561   6.662   7.024  0.4776  0.1245 -0.5216
  689MOL0     C92940   3.463   6.661   6.905  0.4897  0.4835 -0.0906
  689MOL0     C92941   3.508   6.765   6.798 -0.2743  0.7320  0.3304
  689MOL0     C92942   3.423   6.772   6.666  0.2399 -0.3130 -0.0991
  689MOL0     C92943   3.430   6.653   6.580  0.3287 -0.0773 -1.3735
  689MOL0     C92944   3.447   6.563   6.503  0.5669  0.6234  0.0298
  689MOL0     C92945   3.588   6.844   7.273  0.6559 -0.2022 -0.0600
  689MOL0     C92946   3.580   6.950   7.363  0.4151 -0.2595  0.2204
  689MOL0     C92947   3.712   7.004   7.418 -0.2771  0.7631 -0.6381
  689MOL0     H92948   3.411   7.430   7.564 -5.1733  0.3184 -3.4049
  689MOL0     H92949   3.393   7.539   7.797 -1.7983  1.1302 -3.3780
  689MOL0     H92950   3.388   7.348   8.135 -1.1992 -0.6322  0.1620
  689MOL0     H92951   3.471   7.396   7.994 -1.8819 -1.7964 -2.1722
  689MOL0     H92952   3.314   7.628   8.110 -0.0791 -0.0067 -0.7724
  689MOL0     H92953   3.467   7.629   8.049  0.7222  1.3536  1.9439
  689MOL0     H92954   3.458   7.679   8.293  0.4644 -0.8067 -1.3672
  689MOL0     H92955   3.556   7.541   8.267  1.2739  2.9251 -0.2291
  689MOL0     H92956   3.265   7.467   8.307  0.1650 -2.4591  0.9132
  689MOL0     H92957   3.412   7.386   8.354 -0.4848 -1.6657 -3.8826
  689MOL0     H92958   3.444   7.541   8.540  0.2705  0.2874 -0.5279
  689MOL0     H92959   3.297   7.626   8.492  2.4315  1.5592 -0.6386
  689MOL0     H92960   3.318   7.345   8.620 -2.7653 -1.5248  1.6333
  689MOL0     H92961   3.258   7.497   8.677 -1.4616 -0.2146 -0.6321
  689MOL0     H92962   3.056   7.336   8.619 -2.2487  4.2196  0.6961
  689MOL0     H92963   3.119   7.293   8.465 -1.8870 -1.5860  0.6849
  689MOL0     H92964   3.019   7.566   8.553 -0.7503 -0.8405  0.2479
  689MOL0     H92965   3.066   7.534   8.397 -3.3511 -1.3835 -3.1022
  689MOL0     H92966   2.910   7.528   8.243  0.6076 -0.2070  1.0352
  689MOL0     H92967   2.733   7.392   8.061 -1.2357  1.8071  1.2520
  689MOL0     H92968   2.721   7.226   8.130  3.2969  0.0760  0.7424
  689MOL0     H92969   2.503   7.271   8.207  1.4513  0.9048  0.3265
  689MOL0     H92970   2.524   7.439   8.227 -1.4586 -0.6607  1.4478
  689MOL0     H92971   2.492   7.282   7.970  3.4731  0.8479  0.7646
  689MOL0     H92972   2.480   7.466   7.977  3.2466 -1.3309 -1.4672
  689MOL0     H92973   2.250   7.376   7.961 -1.8828 -3.3959  0.6533
  689MOL0     H92974   2.274   7.439   8.126  0.9240 -1.0093  0.3106
  689MOL0     H92975   2.018   7.366   8.171  3.5060 -0.0852  0.8682
  689MOL0     H92976   1.805   7.246   8.136  0.6113 -2.0665  5.0941
  689MOL0     H92977   1.422   7.110   8.183 -0.1525 -0.4312  1.4731
  689MOL0     H92978   1.213   6.962   8.186 -1.2247 -2.6501  0.3780
  689MOL0     H92979   1.235   6.662   8.242  4.1468  0.2999 -1.6479
  689MOL0     H92980   1.071   6.620   8.173  0.9312 -4.8883 -0.1115
  689MOL0     H92981   1.334   6.514   8.080  0.2009 -1.1920  1.1518
  689MOL0     H92982   1.207   6.426   8.154  1.3342 -1.6500 -1.7508
  689MOL0     H92983   1.078   6.464   7.934 -0.3034 -0.5947 -1.3294
  689MOL0     H92984   1.220   6.529   7.861  3.0437 -0.9903  0.5190
  689MOL0     H92985   1.281   6.282   8.008 -0.2971 -1.5007 -0.1213
  689MOL0     H92986   1.371   6.359   7.884  0.6367  1.0688  3.8719
  689MOL0     H92987   1.218   6.289   7.689 -0.7105  0.5745 -0.6876
  689MOL0     H92988   1.100   6.238   7.810  0.1639 -1.1153 -3.3742
  689MOL0     H92989   1.266   6.069   7.903 -3.0583  1.7862  0.8591
  689MOL0     H92990   1.179   6.041   7.758 -2.2509  1.5835  1.0459
  689MOL0     H92991   1.457   6.167   7.788  0.4173  1.2646 -2.4406
  689MOL0     H92992   1.396   6.105   7.629 -0.2765  2.1423  0.0244
  689MOL0     H92993   1.561   5.962   7.726 -0.2189 -0.6129  1.6688
  689MOL0     H92994   1.447   5.940   7.862 -0.4448  2.4595  0.7550
  689MOL0     H92995   1.386   6.701   7.902 -3.3926  0.2653  1.0552
  689MOL0     H92996   1.609   6.834   7.921  1.9037  1.4459  2.4956
  689MOL0     H92997   2.014   6.913   7.964  1.5759  0.7532 -1.6197
  689MOL0     H92998   2.230   7.025   7.998 -0.1706 -0.3840 -1.4216
  689MOL0     H92999   3.137   7.210   7.900  0.4334  1.9928  2.3366
  689MOL0     H93000   3.183   7.089   7.689 -0.7793  0.7163 -2.2210
  689MOL0     H93001   3.242   6.973   7.380  1.0302 -0.4426 -0.2166
  689MOL0     H93002   3.254   6.780   7.227 -0.2676  1.4736  0.0857
  689MOL0     H93003   3.619   6.570   7.029 -0.0702 -0.2276 -0.6196
  689MOL0     H93004   3.620   6.754   7.031 -2.6898  2.2314  1.0133
  689MOL0     H93005   3.359   6.691   6.924  0.2497 -1.6646  2.6506
  689MOL0     H93006   3.466   6.566   6.851 -2.3643  0.2030  0.0753
  689MOL0     H93007   3.615   6.757   6.776  0.5545  0.0555  4.0270
  689MOL0     H93008   3.496   6.864   6.842 -1.7514  1.1392 -0.8881
  689MOL0     H93009   3.317   6.788   6.689  0.9877  4.8853  0.8708
  689MOL0     H93010   3.457   6.853   6.601  3.8907 -0.0490  1.8796
  689MOL0     H93011   3.463   6.474   6.446  0.0131  0.3131  0.3493
  689MOL0     H93012   3.679   6.790   7.247 -0.0797 -1.9684  0.8499
  689MOL0     H93013   3.784   6.970   7.343 -0.8470 -3.8854  0.6335
  689MOL0     H93014   3.713   7.112   7.439 -2.5733  0.7906 -0.4326
  689MOL0     H93015   3.743   6.944   7.504  1.8693  0.2933 -1.6634
  690MOL0     O93016   6.963   5.976   9.018 -0.9837  0.3694 -0.2728
  690MOL0     C93017   7.019   5.882   9.060  0.1388 -0.3136  0.1523
  690MOL0     O93018   7.079   5.880   9.182 -0.0293 -0.9531 -0.0266
  690MOL0     C93019   7.089   5.997   9.253 -0.0051 -0.0341  0.3498
  690MOL0     C93020   7.214   6.061   9.269 -0.9540 -0.2535 -0.2730
  690MOL0     C93021   7.208   6.191   9.320 -0.2981  0.6700 -0.0841
  690MOL0     C93022   7.090   6.253   9.369 -0.6901  0.0260  0.9633
  690MOL0     O93023   7.105   6.391   9.387 -0.3685 -0.9392 -0.0922
  690MOL0     C93024   7.018   6.478   9.311  0.8719  0.1982 -0.4000
  690MOL0     C93025   7.054   6.529   9.167 -0.4887  0.4794 -0.1981
  690MOL0     C93026   7.197   6.586   9.174  0.6933  0.3206  0.2361
  690MOL0     C93027   7.228   6.656   9.042  0.1863 -0.9672  0.1090
  690MOL0     C93028   7.372   6.660   9.017 -0.2867 -0.0754  0.3040
  690MOL0     C93029   7.411   6.704   8.880 -0.1885  0.5357  0.4284
  690MOL0     C93030   7.556   6.736   8.861 -0.4817  0.1662  0.0833
  690MOL0     C93031   7.668   6.623   8.881  0.4439 -1.0645 -0.2688
  690MOL0     N93032   7.801   6.683   8.873 -0.0413  0.5768  0.6401
  690MOL0     C93033   7.867   6.731   8.751 -0.3179  0.6629  0.5424
  690MOL0     C93034   7.991   6.767   8.792  0.2786 -0.0753  0.1388
  690MOL0     C93035   8.088   6.845   8.707 -0.9253  0.1009 -0.3844
  690MOL0     C93036   8.168   6.745   8.628 -0.7834 -0.3520  0.4591
  690MOL0     C93037   8.298   6.804   8.555 -0.3569  0.6724  0.1438
  690MOL0     C93038   8.346   6.713   8.439  0.1312  0.6961  0.7164
  690MOL0     O93039   8.242   6.709   8.342 -0.2434 -0.6026 -0.2122
  690MOL0     C93040   8.304   6.676   8.228  0.0585  0.5134 -0.5201
  690MOL0     C93041   8.308   6.541   8.188 -0.6923  0.3185 -0.1656
  690MOL0     C93042   8.369   6.497   8.063 -0.3369 -1.0434  0.3866
  690MOL0     C93043   8.404   6.598   7.965  0.8981  0.1772  0.1417
  690MOL0     C93044   8.460   6.564   7.828  0.8570  0.1298 -0.5768
  690MOL0     O93045   8.554   6.655   7.775 -0.2678 -0.1802 -0.7584
  690MOL0     C93046   8.592   6.653   7.648 -0.2180 -0.0565  0.3162
  690MOL0     C93047   8.727   6.640   7.626 -0.0645  0.6402  0.2892
  690MOL0     C93048   8.775   6.644   7.497 -0.1715 -0.4073  0.3495
  690MOL0     C93049   8.696   6.654   7.381 -0.1869 -0.9433  0.7013
  690MOL0     O93050   8.753   6.667   7.249 -0.3360  0.0355 -0.7835
  690MOL0     C93051   8.682   6.592   7.149 -0.2661  0.1252  0.1648
  690MOL0     C93052   8.765   6.595   7.022 -0.5531  0.2860 -0.5908
  690MOL0     C93053   8.783   6.733   6.958 -0.9682 -0.7616  0.3309
  690MOL0     C93054   8.900   6.730   6.860 -0.5617  0.2385 -0.3365
  690MOL0     C93055   8.962   6.854   6.798  0.8432  0.5354  0.1283
  690MOL0     C93056   8.964   6.869   6.648  0.2323 -0.4922  0.3841
  690MOL0     C93057   8.813   6.904   6.595  0.2907  0.1106 -0.3313
  690MOL0     C93058   8.790   6.875   6.441  0.4490 -0.5000 -0.7618
  690MOL0    Cl93059   8.922   6.935   6.335 -0.1338 -0.5075  0.0098
  690MOL0     C93060   8.553   6.651   7.404  0.1462 -0.3927 -0.1140
  690MOL0     C93061   8.504   6.648   7.536 -0.6674 -0.1917 -0.3263
  690MOL0     O93062   8.418   6.463   7.763 -0.1311 -0.2616  0.1893
  690MOL0     C93063   8.384   6.731   8.007  0.0088 -0.5805 -0.4537
  690MOL0     C93064   8.340   6.773   8.135 -0.9947  0.3440  0.0182
  690MOL0     N93065   8.008   6.737   8.926  0.0639 -0.0521  0.2620
  690MOL0     N93066   7.891   6.692   8.972  0.5467  0.0025 -1.0801
  690MOL0     C93067   6.969   6.185   9.362 -1.0050 -0.5739  0.8007
  690MOL0     C93068   6.968   6.058   9.308  0.0456  0.0587  0.1884
  690MOL0     C93069   6.996   5.747   8.984  0.4051 -0.3214  0.3252
  690MOL0     C93070   7.058   5.635   9.040  0.8573 -0.3175  0.3652
  690MOL0     C93071   7.043   5.509   8.983  0.5794  0.1506 -0.6637
  690MOL0     C93072   6.965   5.494   8.876 -0.5622  0.3398  0.4118
  690MOL0     O93073   6.948   5.362   8.855 -0.1292 -0.1019 -0.3361
  690MOL0     C93074   6.850   5.311   8.756 -0.5262  0.3627 -0.6989
  690MOL0     C93075   6.829   5.167   8.790  0.4791  0.6005  0.0485
  690MOL0     C93076   6.719   5.107   8.694  0.2464  0.6863 -0.4379
  690MOL0     C93077   6.769   4.988   8.607 -0.1294 -0.2086 -0.0578
  690MOL0     C93078   6.801   4.877   8.691 -0.3384  0.2171 -0.6869
  690MOL0     C93079   6.831   4.775   8.751  0.1319  0.0169 -0.1953
  690MOL0     C93080   6.899   5.595   8.819 -0.1943 -1.0728 -0.1086
  690MOL0     C93081   6.919   5.731   8.860  0.3729  0.7838 -0.4698
  690MOL0     C93082   6.844   5.837   8.781  0.2405 -0.1196 -0.0529
  690MOL0     H93083   7.310   6.028   9.230 -1.6080 -2.8498  0.1370
  690MOL0     H93084   7.302   6.245   9.328 -0.6368  1.0382  2.1432
  690MOL0     H93085   6.916   6.438   9.313  1.6289 -1.8582  0.6544
  690MOL0     H93086   7.018   6.568   9.373  1.5650  1.9265 -2.7695
  690MOL0     H93087   6.990   6.609   9.130  1.0844  0.9861 -1.9899
  690MOL0     H93088   7.046   6.439   9.105  1.2667  0.7527 -0.8711
  690MOL0     H93089   7.259   6.498   9.196 -0.8890 -0.4780  1.6258
  690MOL0     H93090   7.211   6.648   9.263  0.4680 -1.4895  1.5843
  690MOL0     H93091   7.187   6.603   8.956 -0.2558 -0.3243 -0.0887
  690MOL0     H93092   7.187   6.756   9.057  0.8978 -0.6404 -0.0550
  690MOL0     H93093   7.415   6.734   9.085 -0.2345 -1.6446  2.0479
  690MOL0     H93094   7.421   6.570   9.055 -3.3980 -2.0190  0.0470
  690MOL0     H93095   7.384   6.635   8.800 -1.0692  1.7285 -0.3502
  690MOL0     H93096   7.351   6.792   8.852 -0.9102 -0.8550 -2.9462
  690MOL0     H93097   7.600   6.816   8.921 -0.0011 -0.5134  0.6583
  690MOL0     H93098   7.568   6.776   8.760 -1.3415  2.7772  0.9266
  690MOL0     H93099   7.661   6.579   8.981 -2.6568  2.5179  1.3748
  690MOL0     H93100   7.659   6.556   8.796 -1.7615  0.8809 -1.6835
  690MOL0     H93101   7.824   6.754   8.654  2.5832  0.7876 -0.8105
  690MOL0     H93102   8.029   6.915   8.646 -1.8060 -1.2892 -1.1966
  690MOL0     H93103   8.164   6.895   8.768  0.6764 -4.4123  1.7247
  690MOL0     H93104   8.221   6.679   8.698 -0.9246 -1.1168 -0.1430
  690MOL0     H93105   8.104   6.682   8.565 -1.2606  0.6267 -0.0494
  690MOL0     H93106   8.373   6.811   8.635  0.7387 -0.3669 -0.7490
  690MOL0     H93107   8.290   6.905   8.514  0.5141  1.1028  1.0074
  690MOL0     H93108   8.362   6.608   8.467 -3.0349 -0.3304 -0.8692
  690MOL0     H93109   8.433   6.766   8.401 -0.7577  3.2585  1.9758
  690MOL0     H93110   8.247   6.471   8.246 -0.3201 -0.4356 -0.6737
  690MOL0     H93111   8.367   6.391   8.041  0.3944 -0.8861 -0.5069
  690MOL0     H93112   8.792   6.628   7.711 -0.6403 -1.9355  0.4411
  690MOL0     H93113   8.880   6.649   7.468 -0.3386  0.6499 -0.1403
  690MOL0     H93114   8.680   6.494   7.197 -1.8422  1.0138  2.0745
  690MOL0     H93115   8.581   6.629   7.127 -0.4080 -0.4692 -0.2237
  690MOL0     H93116   8.865   6.563   7.052 -1.6929 -0.8561  2.3577
  690MOL0     H93117   8.712   6.529   6.952 -3.0154  0.9224  0.5651
  690MOL0     H93118   8.689   6.755   6.907  1.2778  2.1811 -3.0668
  690MOL0     H93119   8.802   6.812   7.031 -2.6041  2.1376 -2.1038
  690MOL0     H93120   8.870   6.670   6.774  2.5200  0.1939 -1.5317
  690MOL0     H93121   8.981   6.673   6.908  0.8616  3.2429  1.0846
  690MOL0     H93122   9.068   6.861   6.826  0.9943  1.1226 -0.5467
  690MOL0     H93123   8.914   6.944   6.837  2.0218  0.7506  1.1678
  690MOL0     H93124   9.026   6.953   6.615 -1.7087  0.6355 -0.5687
  690MOL0     H93125   8.996   6.775   6.600  0.1187 -0.6068  0.5337
  690MOL0     H93126   8.793   7.007   6.626 -1.6756 -1.0883  2.7653
  690MOL0     H93127   8.731   6.856   6.649  0.2667  1.4673  0.8890
  690MOL0     H93128   8.778   6.767   6.431  1.4470 -0.8182  0.9530
  690MOL0     H93129   8.695   6.922   6.416  1.2477  0.3987 -2.2566
  690MOL0     H93130   8.489   6.661   7.317 -1.7051 -1.5821  1.0202
  690MOL0     H93131   8.396   6.657   7.550 -0.4157  1.8569  0.6371
  690MOL0     H93132   8.409   6.809   7.936 -1.1325 -1.8765 -2.3715
  690MOL0     H93133   8.342   6.877   8.165 -1.5732 -0.1985  2.1670
  690MOL0     H93134   6.877   6.228   9.400 -1.9662  0.4505 -2.3399
  690MOL0     H93135   6.871   6.011   9.299 -1.1508  2.7490 -3.4705
  690MOL0     H93136   7.113   5.642   9.133  2.3055 -0.5671 -0.4436
  690MOL0     H93137   7.087   5.427   9.040  2.0130  2.9143  2.5996
  690MOL0     H93138   6.907   5.309   8.663 -1.9659 -6.6877 -1.9758
  690MOL0     H93139   6.756   5.367   8.770 -1.8558 -2.2437  1.8786
  690MOL0     H93140   6.798   5.150   8.894  0.1879  2.2094  0.2536
  690MOL0     H93141   6.917   5.102   8.782 -1.0902 -1.7143  0.5813
  690MOL0     H93142   6.679   5.191   8.637 -2.4805  0.6736  1.2550
  690MOL0     H93143   6.629   5.074   8.748 -1.0062 -0.8286 -3.2526
  690MOL0     H93144   6.693   4.953   8.537  0.4712  0.0118 -0.8366
  690MOL0     H93145   6.848   5.019   8.539  0.2180 -1.5159 -0.2731
  690MOL0     H93146   6.852   4.685   8.805 -2.0587 -1.3866 -1.5284
  690MOL0     H93147   6.826   5.586   8.740 -1.1247  1.6232  0.3192
  690MOL0     H93148   6.814   5.925   8.840  2.0748  0.5981 -0.1201
  690MOL0     H93149   6.910   5.864   8.698 -2.6486 -0.6295 -2.6660
  690MOL0     H93150   6.754   5.802   8.731  0.0181  0.5306 -0.1198
  691MOL0     O93151   1.915   9.101   4.287  0.7706 -0.2124  0.2215
  691MOL0     C93152   1.819   9.144   4.223 -0.6027 -0.1059 -0.3100
  691MOL0     O93153   1.787   9.113   4.092  0.1027 -0.2738 -0.1046
  691MOL0     C93154   1.841   9.002   4.029  0.4198 -0.5732 -0.6690
  691MOL0     C93155   1.753   8.906   3.976  0.8079 -0.6857 -0.7598
  691MOL0     C93156   1.795   8.771   3.958  0.9074  0.3377 -0.2290
  691MOL0     C93157   1.935   8.744   3.979 -0.5740  0.2279  0.3049
  691MOL0     O93158   1.995   8.624   3.995 -0.1217 -0.0801  0.3354
  691MOL0     C93159   1.923   8.504   3.982  1.2839  1.3528  0.7527
  691MOL0     C93160   2.014   8.384   3.967  0.1640 -0.4533  0.5941
  691MOL0     C93161   2.100   8.348   4.091 -0.0732 -0.2276 -0.1024
  691MOL0     C93162   2.165   8.208   4.055  0.0046  0.7754 -0.3792
  691MOL0     C93163   2.239   8.129   4.169 -0.2394 -0.6872 -1.1023
  691MOL0     C93164   2.381   8.194   4.189  0.9389 -0.3464 -0.3752
  691MOL0     C93165   2.476   8.106   4.271 -0.0511  0.1597 -0.4050
  691MOL0     C93166   2.427   8.088   4.419  0.4015  0.5981 -1.7442
  691MOL0     N93167   2.540   8.053   4.502 -0.5917 -0.5355 -0.1723
  691MOL0     C93168   2.598   7.930   4.501 -0.5704  0.7324 -0.4886
  691MOL0     C93169   2.699   7.948   4.584  0.0808 -0.6612 -0.4711
  691MOL0     C93170   2.815   7.851   4.605 -0.4893 -0.6274 -0.6056
  691MOL0     C93171   2.787   7.769   4.723 -0.7028  0.1951  0.2156
  691MOL0     C93172   2.900   7.668   4.751 -0.1818  0.2841 -0.0717
  691MOL0     C93173   2.860   7.584   4.880 -0.3491 -0.0723  0.8798
  691MOL0     O93174   2.963   7.481   4.883  0.8462  0.1882  0.1589
  691MOL0     C93175   2.921   7.352   4.857 -0.6090  0.2650  0.6937
  691MOL0     C93176   2.991   7.272   4.765 -1.1374 -0.5478  0.4372
  691MOL0     C93177   2.965   7.129   4.754  0.3092 -1.1553  1.0316
  691MOL0     C93178   2.849   7.076   4.821  0.6654 -0.6245  1.8925
  691MOL0     C93179   2.799   6.941   4.787  1.1098 -0.0183  0.3072
  691MOL0     O93180   2.870   6.853   4.707 -1.2973  0.3925  0.1046
  691MOL0     C93181   2.825   6.725   4.685 -0.1682  0.6159  0.8526
  691MOL0     C93182   2.899   6.613   4.723  0.7511  0.1002 -0.6124
  691MOL0     C93183   2.844   6.492   4.696  1.0703 -0.1943 -0.8667
  691MOL0     C93184   2.724   6.479   4.628 -0.0177 -0.1274  0.9800
  691MOL0     O93185   2.659   6.362   4.603  0.4318  0.1517  0.5253
  691MOL0     C93186   2.730   6.242   4.555 -0.5078  0.7534 -0.5349
  691MOL0     C93187   2.643   6.124   4.530 -0.2046  1.1183 -0.0181
  691MOL0     C93188   2.555   6.139   4.412  0.5337  0.2195 -0.1681
  691MOL0     C93189   2.476   6.016   4.386 -0.2204 -0.0465 -0.0906
  691MOL0     C93190   2.373   6.044   4.276  0.5278 -0.0071  0.6885
  691MOL0     C93191   2.341   5.914   4.207  0.2403 -0.4251 -0.3867
  691MOL0     C93192   2.252   5.824   4.295 -1.0914  0.1340 -0.0453
  691MOL0     C93193   2.235   5.686   4.232 -0.1826  0.5175  0.3830
  691MOL0    Cl93194   2.088   5.691   4.127 -0.2606 -0.3921 -0.1502
  691MOL0     C93195   2.663   6.592   4.581 -0.7518 -0.6642 -1.0500
  691MOL0     C93196   2.706   6.716   4.621 -0.2237  0.1337  0.1924
  691MOL0     O93197   2.694   6.907   4.846  0.2725 -0.2876 -0.4254
  691MOL0     C93198   2.780   7.166   4.911 -0.3256 -0.0458 -0.1633
  691MOL0     C93199   2.820   7.294   4.937 -0.2518 -0.0693 -0.4352
  691MOL0     N93200   2.697   8.066   4.653 -0.5309 -0.2392 -0.3638
  691MOL0     N93201   2.589   8.126   4.607  0.6981  0.0869 -0.2845
  691MOL0     C93202   2.016   8.843   4.002 -0.6274  0.2521 -0.1212
  691MOL0     C93203   1.971   8.974   4.039  0.4272 -0.9711  0.4783
  691MOL0     C93204   1.750   9.264   4.273  0.1670  0.6802  0.7535
  691MOL0     C93205   1.649   9.317   4.190 -0.1222  0.1450 -0.3856
  691MOL0     C93206   1.586   9.432   4.238  0.4107  0.0695 -0.4351
  691MOL0     C93207   1.596   9.485   4.363 -0.7409  0.3242 -0.0323
  691MOL0     O93208   1.505   9.578   4.401  0.0558  0.2758 -0.3685
  691MOL0     C93209   1.525   9.640   4.532 -0.1051  0.2511  0.9640
  691MOL0     C93210   1.421   9.735   4.551  0.3068 -1.4828 -0.2667
  691MOL0     C93211   1.402   9.750   4.702  0.2315  0.2900 -0.0866
  691MOL0     C93212   1.314   9.638   4.773 -0.3261  0.1823 -0.2061
  691MOL0     C93213   1.314   9.654   4.915 -0.4366  0.8364 -0.9779
  691MOL0     C93214   1.291   9.644   5.035  0.5065  0.0321 -0.1747
  691MOL0     C93215   1.686   9.417   4.451  0.0026  0.8919 -0.1304
  691MOL0     C93216   1.768   9.314   4.405  0.0694  0.7138 -0.0299
  691MOL0     C93217   1.864   9.248   4.512  0.0380 -0.7520 -0.3293
  691MOL0     H93218   1.646   8.923   3.973  1.1111  1.3646 -0.8677
  691MOL0     H93219   1.728   8.686   3.944  0.0690  0.9527  0.0036
  691MOL0     H93220   1.857   8.502   4.069 -0.8137  2.2831 -0.7478
  691MOL0     H93221   1.864   8.511   3.891  2.8951 -1.9297 -0.7003
  691MOL0     H93222   2.088   8.412   3.890 -1.7289  2.9362 -0.1832
  691MOL0     H93223   1.962   8.296   3.927 -0.0872 -0.8984  1.8724
  691MOL0     H93224   2.031   8.339   4.175 -1.2485 -1.9823 -1.1726
  691MOL0     H93225   2.171   8.427   4.117  0.9931  0.3754 -4.1049
  691MOL0     H93226   2.081   8.144   4.027 -2.1940  2.2553  2.3096
  691MOL0     H93227   2.242   8.210   3.977  0.9796 -0.6760  0.4864
  691MOL0     H93228   2.184   8.129   4.263  1.2290  2.0376 -0.1151
  691MOL0     H93229   2.264   8.028   4.137  0.0663  0.2818 -4.2953
  691MOL0     H93230   2.426   8.207   4.090 -0.8516 -2.4828 -1.5600
  691MOL0     H93231   2.358   8.290   4.236 -0.9026 -0.7356 -0.4003
  691MOL0     H93232   2.574   8.155   4.278 -0.8232  1.6308  0.4798
  691MOL0     H93233   2.501   8.010   4.224  3.3196  0.3273  0.7369
  691MOL0     H93234   2.367   8.176   4.445 -0.7432 -0.8920  1.0407
  691MOL0     H93235   2.361   8.001   4.416 -3.3556  2.9424  1.9911
  691MOL0     H93236   2.581   7.844   4.438  0.1355  2.6575 -3.4978
  691MOL0     H93237   2.830   7.787   4.518  3.8215  1.2105 -1.5040
  691MOL0     H93238   2.909   7.902   4.628 -0.8853 -0.1893  0.1013
  691MOL0     H93239   2.777   7.835   4.810 -4.5038  0.0334  0.0530
  691MOL0     H93240   2.691   7.719   4.709 -0.6294  0.0072  0.3745
  691MOL0     H93241   2.997   7.715   4.772  0.4381  0.3714 -2.7725
  691MOL0     H93242   2.926   7.613   4.660  1.7573  0.8329  0.1007
  691MOL0     H93243   2.754   7.557   4.870 -0.2960  0.1639 -0.4128
  691MOL0     H93244   2.862   7.647   4.969  0.6372  5.0717 -2.3522
  691MOL0     H93245   3.071   7.312   4.704 -0.0716  1.5293  3.0337
  691MOL0     H93246   3.010   7.060   4.683 -2.1400 -1.0651 -0.7286
  691MOL0     H93247   2.991   6.626   4.779  0.4283 -0.2548  0.0229
  691MOL0     H93248   2.887   6.397   4.727  1.1513 -0.3200 -1.3574
  691MOL0     H93249   2.776   6.275   4.461 -3.8924  0.9758 -2.2383
  691MOL0     H93250   2.812   6.207   4.619  1.2132 -0.0803 -3.0747
  691MOL0     H93251   2.698   6.029   4.523 -0.7230  0.7124  1.0633
  691MOL0     H93252   2.585   6.116   4.623  3.7237  0.3000  2.6208
  691MOL0     H93253   2.490   6.221   4.443  1.6459  3.0448 -4.4551
  691MOL0     H93254   2.616   6.172   4.328  1.5299  3.5884  1.7177
  691MOL0     H93255   2.443   5.984   4.485 -0.1998 -1.2506 -0.4547
  691MOL0     H93256   2.536   5.931   4.352  3.3090  1.3608  2.1266
  691MOL0     H93257   2.412   6.110   4.199 -1.6373 -0.7932 -1.2102
  691MOL0     H93258   2.287   6.093   4.322 -1.1311 -0.8061 -1.4074
  691MOL0     H93259   2.282   5.927   4.116  2.4704  0.3849 -1.8015
  691MOL0     H93260   2.436   5.863   4.188  1.6949  1.4605  1.3373
  691MOL0     H93261   2.150   5.863   4.301 -0.9757  0.4115  0.1592
  691MOL0     H93262   2.303   5.822   4.392  2.4923 -1.4502 -1.7624
  691MOL0     H93263   2.323   5.661   4.173 -0.1490 -1.5448  1.2253
  691MOL0     H93264   2.223   5.606   4.306 -0.2750  2.1122  2.1735
  691MOL0     H93265   2.567   6.578   4.532 -1.3864  2.6151 -0.9856
  691MOL0     H93266   2.644   6.802   4.597  0.3245  1.0576  1.9269
  691MOL0     H93267   2.685   7.134   4.952 -2.5246  2.0734 -3.1472
  691MOL0     H93268   2.769   7.347   5.017  2.9848  2.7604 -0.0115
  691MOL0     H93269   2.121   8.845   4.030 -0.0763 -0.3928 -1.9796
  691MOL0     H93270   2.030   9.057   4.075  0.5219 -0.9690  0.3137
  691MOL0     H93271   1.623   9.289   4.089 -1.5715 -0.4424  0.1322
  691MOL0     H93272   1.499   9.471   4.186 -1.1150 -1.8819  0.5294
  691MOL0     H93273   1.625   9.684   4.541  0.3614 -0.6305  0.2840
  691MOL0     H93274   1.515   9.560   4.605 -4.4518 -0.6211 -0.3375
  691MOL0     H93275   1.326   9.707   4.505  0.1890  1.1028 -1.8248
  691MOL0     H93276   1.451   9.830   4.505 -1.0749 -0.6471  0.4769
  691MOL0     H93277   1.349   9.844   4.719  1.7865  0.7684  2.6295
  691MOL0     H93278   1.500   9.753   4.750  0.5597 -1.7546 -0.5377
  691MOL0     H93279   1.209   9.646   4.745 -0.6096 -4.2720 -1.1510
  691MOL0     H93280   1.340   9.536   4.744 -1.8065 -0.2883  0.0190
  691MOL0     H93281   1.293   9.643   5.142 -2.9431 -0.7392 -0.0105
  691MOL0     H93282   1.697   9.450   4.554  0.6325 -0.9665  0.4384
  691MOL0     H93283   1.862   9.303   4.606 -0.7937 -1.0966 -0.1336
  691MOL0     H93284   1.831   9.150   4.548 -0.9087 -0.9970 -1.7443
  691MOL0     H93285   1.968   9.239   4.480 -0.2162 -0.2993 -1.3301
  692MOL0     O93286   9.220   1.585   9.724 -0.4585  0.7959  0.1863
  692MOL0     C93287   9.233   1.489   9.645  0.1482 -1.0143  0.3698
  692MOL0     O93288   9.344   1.479   9.558  0.9255  0.5858  0.2868
  692MOL0     C93289   9.439   1.588   9.550  0.6234 -0.7321  0.2662
  692MOL0     C93290   9.546   1.600   9.646 -0.2799 -0.1868 -0.0497
  692MOL0     C93291   9.627   1.714   9.640 -0.0463 -0.1459 -0.3668
  692MOL0     C93292   9.601   1.825   9.565 -0.9748 -0.3194 -1.3757
  692MOL0     O93293   9.684   1.936   9.589 -0.7998  0.7622  0.0615
  692MOL0     C93294   9.671   2.055   9.509 -0.2146  0.5689 -0.2255
  692MOL0     C93295   9.784   2.164   9.535  0.7448 -0.5355  0.7825
  692MOL0     C93296   9.922   2.105   9.532  0.1230  0.3249 -0.2240
  692MOL0     C93297  10.021   2.191   9.614 -0.5093 -0.5058 -0.3534
  692MOL0     C93298  10.147   2.109   9.650 -0.7307 -0.3290 -0.1633
  692MOL0     C93299  10.235   2.192   9.747 -0.2401  1.1954  0.6128
  692MOL0     C93300  10.342   2.262   9.661 -0.6805 -0.0078 -0.2115
  692MOL0     C93301  10.464   2.167   9.647  0.1568 -0.2123  0.8931
  692MOL0     N93302  10.569   2.208   9.556 -0.1450  0.6195 -0.1299
  692MOL0     C93303  10.690   2.151   9.547  0.0700 -0.4452  1.0002
  692MOL0     C93304  10.754   2.218   9.449 -0.6201 -0.8088  0.5751
  692MOL0     C93305  10.883   2.181   9.399  0.2458  0.1256 -0.6857
  692MOL0     C93306  10.882   2.162   9.252  0.3083  0.4902  0.6383
  692MOL0     C93307  10.829   2.025   9.196 -0.6154  0.5673 -0.1769
  692MOL0     C93308  10.945   1.917   9.188  1.1887  0.4280  0.7199
  692MOL0     O93309  10.975   1.884   9.325  0.1684 -0.1952  0.4271
  692MOL0     C93310  11.095   1.830   9.357 -0.5285  0.9870 -0.1991
  692MOL0     C93311  11.164   1.873   9.475 -0.0989 -0.6672 -0.4082
  692MOL0     C93312  11.287   1.812   9.509 -0.2466 -0.1286 -0.0839
  692MOL0     C93313  11.353   1.724   9.417 -0.4512 -0.8090 -0.3911
  692MOL0     C93314  11.485   1.668   9.450 -0.5981 -1.2416 -0.0968
  692MOL0     O93315  11.524   1.693   9.582 -0.6640  0.9397  0.0355
  692MOL0     C93316  11.646   1.650   9.635  0.6978 -1.0484  1.1726
  692MOL0     C93317  11.741   1.573   9.558 -0.4170  0.1771 -0.1365
  692MOL0     C93318  11.853   1.524   9.624  0.2263 -0.6809 -0.9430
  692MOL0     C93319  11.875   1.548   9.760  0.1457  0.1161 -1.6698
  692MOL0     O93320  11.994   1.489   9.815 -0.0821 -0.2784  0.1344
  692MOL0     C93321  12.046   1.503   9.953 -0.4919  1.0199 -0.0595
  692MOL0     C93322  11.957   1.411  10.052  0.1567 -0.6882 -0.0305
  692MOL0     C93323  11.951   1.450  10.201 -0.3304  1.3688  0.3146
  692MOL0     C93324  12.081   1.407  10.273  0.6642 -0.2139 -0.1444
  692MOL0     C93325  12.100   1.271  10.325  0.2038  0.1259  0.9004
  692MOL0     C93326  12.001   1.225  10.439 -0.0831  0.4326  1.0847
  692MOL0     C93327  12.038   1.077  10.477  0.2122 -0.4775 -0.6968
  692MOL0     C93328  11.927   0.998  10.546  0.1881  0.3330  0.3108
  692MOL0    Cl93329  11.821   0.941  10.418 -0.1849 -0.1134  0.0410
  692MOL0     C93330  11.797   1.635   9.828 -0.1879  0.1189 -0.2652
  692MOL0     C93331  11.679   1.679   9.764  0.0866  0.4067  0.0516
  692MOL0     O93332  11.531   1.588   9.364 -0.0114 -0.3719  0.3404
  692MOL0     C93333  11.281   1.684   9.302  0.0404 -0.7541 -0.1261
  692MOL0     C93334  11.154   1.739   9.273 -0.4948 -0.1317 -0.8614
  692MOL0     N93335  10.679   2.324   9.409  0.7095  0.0013 -0.3520
  692MOL0     N93336  10.561   2.315   9.465  0.8010  0.1353 -0.4165
  692MOL0     C93337   9.495   1.815   9.473  1.2171 -0.0969  0.8933
  692MOL0     C93338   9.410   1.697   9.465  0.4964 -0.0855  0.4988
  692MOL0     C93339   9.130   1.383   9.636  0.6523  0.0300  0.0150
  692MOL0     C93340   8.999   1.398   9.697 -0.0277 -0.9071  0.6820
  692MOL0     C93341   8.894   1.311   9.702 -0.5887 -0.3655  0.5280
  692MOL0     C93342   8.911   1.200   9.629 -0.1509  0.3993 -0.1164
  692MOL0     O93343   8.793   1.127   9.631  0.1113 -0.1374 -0.8225
  692MOL0     C93344   8.786   1.031   9.525  0.6992  0.9319 -0.5056
  692MOL0     C93345   8.666   0.950   9.538  1.3731  0.3087  0.0186
  692MOL0     C93346   8.670   0.813   9.458 -0.3033 -1.2451 -0.6421
  692MOL0     C93347   8.636   0.838   9.309  0.8576 -0.3361  0.5238
  692MOL0     C93348   8.675   0.710   9.230  0.1630 -0.4977 -0.1092
  692MOL0     C93349   8.700   0.608   9.166 -0.6064 -0.9584  0.7331
  692MOL0     C93350   9.030   1.173   9.555 -0.8358  0.8205 -0.8263
  692MOL0     C93351   9.137   1.265   9.562 -0.3775 -0.2262  0.0990
  692MOL0     C93352   9.242   1.240   9.462  0.3131  0.6291 -0.2499
  692MOL0     H93353   9.569   1.516   9.711  0.4448 -2.3635 -2.8913
  692MOL0     H93354   9.713   1.717   9.707 -0.1003  1.5551 -0.3553
  692MOL0     H93355   9.667   2.029   9.403 -3.0494  0.5342 -0.1745
  692MOL0     H93356   9.582   2.112   9.539 -2.8223 -2.1050 -2.3045
  692MOL0     H93357   9.762   2.208   9.632  2.9947 -1.7087  1.8857
  692MOL0     H93358   9.778   2.243   9.459  0.7470 -0.6774  0.6324
  692MOL0     H93359   9.958   2.116   9.429 -1.2675  0.0827 -0.7708
  692MOL0     H93360   9.917   2.002   9.569  0.0743  0.5708  0.4632
  692MOL0     H93361  10.050   2.275   9.551  3.9011 -1.6518 -0.1550
  692MOL0     H93362   9.975   2.224   9.708  1.1049  1.3117 -0.1467
  692MOL0     H93363  10.120   2.019   9.708  0.3343 -0.3861  0.2828
  692MOL0     H93364  10.201   2.075   9.561  1.0160  0.8812  0.3792
  692MOL0     H93365  10.171   2.259   9.806 -2.6483 -0.1030 -0.4215
  692MOL0     H93366  10.280   2.125   9.821  1.4608  0.5192 -0.9594
  692MOL0     H93367  10.358   2.362   9.703 -1.0025  0.9255 -2.1734
  692MOL0     H93368  10.312   2.282   9.558  1.7217 -0.4813 -1.0469
  692MOL0     H93369  10.519   2.155   9.741 -1.9328 -0.2445  2.1802
  692MOL0     H93370  10.428   2.071   9.611  1.3431  0.2193 -1.6516
  692MOL0     H93371  10.731   2.068   9.605  0.7644  0.9543  2.5779
  692MOL0     H93372  10.950   2.265   9.421 -2.0161  0.8730  4.7731
  692MOL0     H93373  10.920   2.090   9.448  0.3880 -0.6871 -2.2357
  692MOL0     H93374  10.816   2.236   9.207 -0.7326 -0.1356  1.0974
  692MOL0     H93375  10.978   2.192   9.207 -0.2259  0.7228 -0.3677
  692MOL0     H93376  10.786   2.046   9.097  1.8170  2.2074 -0.9667
  692MOL0     H93377  10.750   1.978   9.255  0.0677 -2.4643 -1.4417
  692MOL0     H93378  11.028   1.967   9.137  0.9088 -0.3889 -0.5980
  692MOL0     H93379  10.916   1.824   9.138 -0.0973  1.5704 -0.7565
  692MOL0     H93380  11.112   1.936   9.547  1.9785  2.7749 -1.6751
  692MOL0     H93381  11.330   1.856   9.598 -0.8058 -2.5990  1.5292
  692MOL0     H93382  11.726   1.537   9.457 -0.2950 -2.8604  0.8292
  692MOL0     H93383  11.918   1.463   9.561  1.5530  1.5443 -1.8635
  692MOL0     H93384  12.147   1.463   9.959 -0.4913  0.7148 -1.6411
  692MOL0     H93385  12.029   1.608   9.979 -1.1872  0.9108 -0.0529
  692MOL0     H93386  11.853   1.408  10.019 -0.2910  2.2485  0.8079
  692MOL0     H93387  12.010   1.316  10.040 -2.5183 -2.2809  0.0583
  692MOL0     H93388  11.951   1.559  10.212  4.0566  1.8453 -2.1500
  692MOL0     H93389  11.865   1.412  10.258 -1.5490  2.1352 -0.9525
  692MOL0     H93390  12.094   1.469  10.361 -1.0454 -2.8045  2.1159
  692MOL0     H93391  12.163   1.433  10.205 -0.1433 -2.7046 -2.2508
  692MOL0     H93392  12.201   1.265  10.368 -0.1258 -1.5872  1.5117
  692MOL0     H93393  12.083   1.201  10.243 -0.2498 -0.7181  1.7000
  692MOL0     H93394  12.011   1.310  10.507 -2.8236  3.5200 -1.9908
  692MOL0     H93395  11.898   1.217  10.403 -0.1560 -2.2576  1.6839
  692MOL0     H93396  12.112   1.088  10.557 -1.9023 -0.9333  1.4438
  692MOL0     H93397  12.078   1.015  10.397 -2.2945 -0.7881 -1.7970
  692MOL0     H93398  11.952   0.906  10.600 -2.4716 -0.5516  0.1840
  692MOL0     H93399  11.871   1.061  10.615  1.5954  2.1636 -0.1228
  692MOL0     H93400  11.812   1.656   9.934  0.5960 -0.1385 -0.3170
  692MOL0     H93401  11.610   1.742   9.820 -1.7926  0.0311 -1.7342
  692MOL0     H93402  11.313   1.604   9.236  0.0860 -1.5788  0.8692
  692MOL0     H93403  11.101   1.699   9.187 -2.0465  0.7527 -0.3607
  692MOL0     H93404   9.455   1.896   9.412  3.3271  0.1772 -0.2307
  692MOL0     H93405   9.333   1.697   9.389  2.3096  0.4154 -1.4454
  692MOL0     H93406   8.984   1.491   9.752  2.2659 -0.4251  0.6356
  692MOL0     H93407   8.807   1.318   9.766  0.5611 -0.9531  2.2087
  692MOL0     H93408   8.869   0.959   9.522  1.9854  2.2087  1.6181
  692MOL0     H93409   8.789   1.069   9.422 -0.4007 -1.6996 -1.5944
  692MOL0     H93410   8.588   1.018   9.502  1.2141  0.4485  0.6202
  692MOL0     H93411   8.640   0.922   9.640 -2.2020  1.8493 -0.3263
  692MOL0     H93412   8.602   0.736   9.495  0.6965 -1.5321  0.6686
  692MOL0     H93413   8.765   0.761   9.472  0.9138  1.3498  1.2821
  692MOL0     H93414   8.529   0.854   9.291  0.7261 -2.4626 -0.8911
  692MOL0     H93415   8.693   0.921   9.266  0.7742  0.1548  1.3393
  692MOL0     H93416   8.711   0.532   9.091  2.2837  1.9502 -2.1256
  692MOL0     H93417   9.041   1.090   9.486  0.6310 -1.2083  1.6340
  692MOL0     H93418   9.333   1.212   9.515 -0.2636  3.3990  2.5147
  692MOL0     H93419   9.230   1.160   9.388  3.6007  0.8884 -1.2268
  692MOL0     H93420   9.254   1.331   9.403 -1.0295 -0.7241 -2.8312
  693MOL0     O93421   1.757   8.256  11.351 -0.2478  0.3653  0.0805
  693MOL0     C93422   1.694   8.164  11.399 -0.5560  0.3971 -0.7072
  693MOL0     O93423   1.669   8.147  11.531  0.0775  0.2578 -0.2682
  693MOL0     C93424   1.750   8.188  11.623 -0.0282  0.2803  0.8224
  693MOL0     C93425   1.883   8.236  11.607  0.7546  0.2059 -0.1464
  693MOL0     C93426   1.944   8.292  11.718  0.0041  0.2064 -0.6269
  693MOL0     C93427   1.888   8.293  11.851 -0.6156 -0.1409 -0.1971
  693MOL0     O93428   1.946   8.343  11.957 -0.6755  0.0511 -0.0548
  693MOL0     C93429   2.088   8.312  11.991  0.3068  0.6679 -0.2293
  693MOL0     C93430   2.124   8.424  12.091  0.8701 -0.8122  0.1845
  693MOL0     C93431   2.195   8.379  12.222  0.5873 -0.9247 -0.5179
  693MOL0     C93432   2.111   8.301  12.318  0.2302 -0.0948 -0.1352
  693MOL0     C93433   2.161   8.263  12.453 -0.5445  0.5723  1.0651
  693MOL0     C93434   2.231   8.373  12.533 -0.3790  0.3354 -0.2928
  693MOL0     C93435   2.241   8.337  12.681 -0.1919  0.5759 -0.2627
  693MOL0     C93436   2.118   8.389  12.761  0.4625 -0.3386 -0.2626
  693MOL0     N93437   2.130   8.524  12.816  0.3281  1.0998  0.1693
  693MOL0     C93438   2.227   8.575  12.893 -0.7469 -0.9262 -0.3406
  693MOL0     C93439   2.201   8.705  12.908 -0.7749  0.8774 -0.3813
  693MOL0     C93440   2.282   8.822  12.984  0.7493 -0.0846 -0.1805
  693MOL0     C93441   2.420   8.816  12.917  1.1062 -1.4061  0.5075
  693MOL0     C93442   2.517   8.927  12.964 -0.5611  0.0755  0.1253
  693MOL0     C93443   2.449   9.052  13.005 -0.5488 -0.7629 -0.3595
  693MOL0     O93444   2.547   9.132  13.075  0.3031 -0.1039  0.3462
  693MOL0     C93445   2.568   9.255  13.034 -0.2684 -0.4206  0.2214
  693MOL0     C93446   2.561   9.351  13.135  0.4542 -0.3046  0.3163
  693MOL0     C93447   2.566   9.487  13.100 -0.6144 -0.5719 -0.1053
  693MOL0     C93448   2.589   9.533  12.966  0.4026  0.0688 -0.0415
  693MOL0     C93449   2.602   9.676  12.941  0.0957  0.6750  0.3781
  693MOL0     O93450   2.621   9.760  13.047  0.1493  0.0176  0.3837
  693MOL0     C93451   2.590   9.889  13.039  0.4952 -0.2149 -0.5533
  693MOL0     C93452   2.699   9.975  13.060  0.1611 -0.1801  0.2548
  693MOL0     C93453   2.675  10.109  13.075  0.7668  0.5192 -0.1509
  693MOL0     C93454   2.545  10.165  13.053  0.6571  0.1476  0.2378
  693MOL0     O93455   2.507  10.289  13.097 -0.0639 -0.1144 -0.3784
  693MOL0     C93456   2.396  10.294  13.207  0.6311  0.5176  1.1415
  693MOL0     C93457   2.348  10.427  13.254 -0.1283 -1.1297  0.4008
  693MOL0     C93458   2.234  10.489  13.163 -0.1003  0.0684 -0.9973
  693MOL0     C93459   2.101  10.432  13.216 -0.1855  0.8733  0.4947
  693MOL0     C93460   1.975  10.496  13.157  0.1709 -1.2468 -0.0899
  693MOL0     C93461   1.949  10.635  13.210 -0.0538 -0.6197  0.3358
  693MOL0     C93462   1.923  10.642  13.363 -0.2157 -0.2410  0.0998
  693MOL0     C93463   1.933  10.779  13.412 -0.1370 -0.6173 -0.3532
  693MOL0    Cl93464   2.100  10.831  13.380  0.1117  0.0161 -0.4482
  693MOL0     C93465   2.444  10.076  13.008  0.8096 -0.8243  0.4369
  693MOL0     C93466   2.468   9.942  13.002 -0.0409 -0.5001  0.1773
  693MOL0     O93467   2.589   9.720  12.826 -0.0654 -0.0980  1.0246
  693MOL0     C93468   2.609   9.433  12.877 -0.0226 -1.1811 -0.1826
  693MOL0     C93469   2.583   9.299  12.897  0.6090 -1.7327 -1.0885
  693MOL0     N93470   2.081   8.734  12.825 -0.0060  0.5752 -0.1569
  693MOL0     N93471   2.047   8.625  12.761 -0.9242 -0.1048 -0.4065
  693MOL0     C93472   1.766   8.240  11.866  0.2425  0.1491  0.2093
  693MOL0     C93473   1.691   8.191  11.758 -0.0767  1.1536 -0.5604
  693MOL0     C93474   1.641   8.066  11.304  0.7489 -0.1055  0.2667
  693MOL0     C93475   1.515   8.026  11.338  1.0317  0.5387  1.2000
  693MOL0     C93476   1.449   7.928  11.260  0.5375 -0.1924  0.7587
  693MOL0     C93477   1.503   7.884  11.142 -0.0356 -1.0538 -0.1689
  693MOL0     O93478   1.413   7.790  11.085  0.3298 -1.1153  0.5091
  693MOL0     C93479   1.394   7.794  10.944 -0.4320 -0.0994  0.3474
  693MOL0     C93480   1.243   7.798  10.908  0.2599 -0.5482  0.2946
  693MOL0     C93481   1.171   7.702  11.004  0.1872  0.0313 -0.7579
  693MOL0     C93482   1.020   7.685  10.987 -0.8877  0.4888 -0.3455
  693MOL0     C93483   1.002   7.637  10.850  0.6647 -0.1398  0.5212
  693MOL0     C93484   0.973   7.597  10.737 -0.4462 -0.3584  0.8635
  693MOL0     C93485   1.623   7.934  11.099 -0.3397 -0.9678 -0.3731
  693MOL0     C93486   1.693   8.035  11.179 -0.3020 -0.0372  0.0791
  693MOL0     C93487   1.825   8.093  11.121  0.8444  0.4885 -0.3613
  693MOL0     H93488   1.934   8.224  11.512 -0.1709  1.7652 -0.8870
  693MOL0     H93489   2.041   8.338  11.706 -0.5745  1.4263 -0.7372
  693MOL0     H93490   2.107   8.211  12.029 -2.4414 -1.0161 -2.8475
  693MOL0     H93491   2.146   8.315  11.899 -1.8207 -2.0656 -1.8280
  693MOL0     H93492   2.037   8.485  12.118  1.1784 -0.7677  1.1003
  693MOL0     H93493   2.191   8.487  12.032  1.6168 -0.6262  1.2074
  693MOL0     H93494   2.224   8.470  12.275  0.4747  0.7933 -3.2040
  693MOL0     H93495   2.279   8.310  12.207  0.0758 -2.1295  1.7253
  693MOL0     H93496   2.029   8.371  12.337 -0.4407 -0.6782 -0.8293
  693MOL0     H93497   2.067   8.210  12.278  3.1349 -1.3745 -0.6733
  693MOL0     H93498   2.075   8.237  12.515 -0.2853  0.9480  1.5885
  693MOL0     H93499   2.234   8.182  12.451 -0.4019  0.6272  2.6058
  693MOL0     H93500   2.336   8.376  12.502 -1.0215 -1.1011 -2.9819
  693MOL0     H93501   2.182   8.470  12.517  0.0728  0.8102  1.0778
  693MOL0     H93502   2.338   8.373  12.717  0.3574  0.0561 -1.1745
  693MOL0     H93503   2.239   8.229  12.692  1.2892  0.4249 -1.1770
  693MOL0     H93504   2.033   8.385  12.692 -0.3187  3.9308  0.1807
  693MOL0     H93505   2.091   8.315  12.836  1.7748 -0.2660  0.3147
  693MOL0     H93506   2.306   8.514  12.936  0.8038  2.1275  1.5058
  693MOL0     H93507   2.218   8.910  12.970  0.8622  0.1692  0.8006
  693MOL0     H93508   2.281   8.799  13.091  0.2237  2.5345  0.4444
  693MOL0     H93509   2.460   8.715  12.933  0.9999 -1.8118 -1.4955
  693MOL0     H93510   2.415   8.823  12.808  1.9630  2.2510  0.5777
  693MOL0     H93511   2.578   8.939  12.874  0.2178 -1.9825  0.3139
  693MOL0     H93512   2.587   8.902  13.045 -2.6470 -0.5292  1.8532
  693MOL0     H93513   2.376   9.040  13.086 -0.6098 -1.4958 -0.5217
  693MOL0     H93514   2.402   9.107  12.923 -0.3476 -0.2099 -0.1103
  693MOL0     H93515   2.510   9.313  13.223 -2.5962  1.1603 -0.6808
  693MOL0     H93516   2.555   9.568  13.172  1.1997  0.2568 -0.6877
  693MOL0     H93517   2.796   9.929  13.072  0.1489  0.1394  1.7596
  693MOL0     H93518   2.752  10.176  13.113  0.6906 -1.1793  3.3957
  693MOL0     H93519   2.311  10.232  13.176 -1.5293  4.0220 -0.5491
  693MOL0     H93520   2.427  10.230  13.290  0.7418 -2.4912 -1.0743
  693MOL0     H93521   2.305  10.422  13.354 -1.1941 -0.0566  0.0150
  693MOL0     H93522   2.431  10.498  13.258 -2.9682  2.4489  0.2446
  693MOL0     H93523   2.246  10.595  13.185 -0.4465 -0.6378  3.5913
  693MOL0     H93524   2.247  10.460  13.059  2.5212 -1.1543 -0.4076
  693MOL0     H93525   2.088  10.442  13.324  1.1853 -1.1042  0.9083
  693MOL0     H93526   2.094  10.326  13.188  0.0521  1.0784 -0.3742
  693MOL0     H93527   1.889  10.436  13.187 -1.0952  0.7655  0.4540
  693MOL0     H93528   1.976  10.502  13.048  2.8169  1.7705 -0.0507
  693MOL0     H93529   2.035  10.693  13.174  1.4484 -1.1368  2.8320
  693MOL0     H93530   1.856  10.662  13.159 -0.4440 -0.7321  0.9794
  693MOL0     H93531   2.005  10.595  13.418  1.7195 -2.4502 -4.2177
  693MOL0     H93532   1.829  10.589  13.385 -0.3306 -0.9779 -1.9460
  693MOL0     H93533   1.846  10.835  13.376  1.0722  1.9096  0.3738
  693MOL0     H93534   1.930  10.776  13.522  3.8025  1.1706 -0.0184
  693MOL0     H93535   2.347  10.120  12.987  2.0230  3.1746  2.1948
  693MOL0     H93536   2.390   9.870  12.980  0.9920 -1.6598  0.2028
  693MOL0     H93537   2.624   9.454  12.771 -2.3832  0.9168 -0.1961
  693MOL0     H93538   2.603   9.225  12.821  0.5576 -3.3766  0.4179
  693MOL0     H93539   1.721   8.244  11.965  2.2597 -1.1998  1.2707
  693MOL0     H93540   1.595   8.155  11.792  0.4618  3.7014  4.7860
  693MOL0     H93541   1.481   8.061  11.435  1.3987  0.7072  1.2709
  693MOL0     H93542   1.350   7.896  11.291 -0.1721 -1.1774 -2.2632
  693MOL0     H93543   1.433   7.698  10.910  1.2816 -0.0007  1.8631
  693MOL0     H93544   1.452   7.873  10.895  0.5572 -1.5037 -0.8432
  693MOL0     H93545   1.223   7.766  10.805 -0.7692 -3.0533  1.1939
  693MOL0     H93546   1.198   7.895  10.931  0.7158 -0.5358  1.2084
  693MOL0     H93547   1.189   7.740  11.105 -0.0690  1.4401 -1.2204
  693MOL0     H93548   1.219   7.603  10.997  0.7733  0.3996 -2.3097
  693MOL0     H93549   1.000   7.602  11.055  2.9315 -0.9268 -0.6885
  693MOL0     H93550   0.961   7.772  11.019 -0.7076  0.4438  0.1135
  693MOL0     H93551   0.954   7.562  10.638 -0.6823  1.1182  0.3644
  693MOL0     H93552   1.654   7.896  11.002  1.1808 -0.7944  0.0119
  693MOL0     H93553   1.880   8.029  11.052  1.7446  2.6636 -1.7840
  693MOL0     H93554   1.798   8.190  11.078 -1.1441 -0.3438 -1.1098
  693MOL0     H93555   1.895   8.100  11.204  0.9511 -1.6795 -0.2061
  694MOL0     O93556   5.333   0.550   5.508 -0.2362 -0.2458 -0.5808
  694MOL0     C93557   5.268   0.518   5.411  0.4583  0.1326  0.1971
  694MOL0     O93558   5.132   0.552   5.402  0.2806 -1.0778  0.1088
  694MOL0     C93559   5.065   0.633   5.497  0.2674  0.1440 -0.6246
  694MOL0     C93560   4.938   0.652   5.452 -0.1936  0.3562 -0.0628
  694MOL0     C93561   4.860   0.748   5.517 -0.0736  0.3101  0.0307
  694MOL0     C93562   4.895   0.806   5.635 -0.1286  0.7726  0.0979
  694MOL0     O93563   4.800   0.890   5.686  0.9423 -0.3493  0.0272
  694MOL0     C93564   4.822   0.942   5.815  0.4739 -0.8515 -0.0551
  694MOL0     C93565   4.703   1.030   5.851  0.2099 -0.2002 -0.1357
  694MOL0     C93566   4.716   1.089   5.988 -1.4006  0.4820  0.3146
  694MOL0     C93567   4.845   1.176   6.010  0.5204  0.0267 -0.4008
  694MOL0     C93568   4.843   1.313   5.949 -0.4175  0.1740 -0.1177
  694MOL0     C93569   4.719   1.404   6.001  0.1708 -0.0672 -0.4007
  694MOL0     C93570   4.730   1.549   5.967  0.5872  0.2524  1.4147
  694MOL0     C93571   4.621   1.629   6.038  0.9201 -0.4466  0.0733
  694MOL0     N93572   4.493   1.615   5.971 -0.1698  0.2531 -0.3800
  694MOL0     C93573   4.473   1.669   5.843 -0.6883  0.1393  0.0257
  694MOL0     C93574   4.345   1.645   5.817  1.0059 -0.0195  0.3306
  694MOL0     C93575   4.281   1.681   5.686  0.4048  0.8468 -0.2424
  694MOL0     C93576   4.127   1.680   5.689  0.6762  0.7011  0.4577
  694MOL0     C93577   4.070   1.792   5.783  0.3642  0.2592  0.9320
  694MOL0     C93578   4.118   1.938   5.739 -0.4913 -0.0938  0.0225
  694MOL0     O93579   4.093   2.035   5.832 -0.6352 -0.0686  0.0894
  694MOL0     C93580   3.959   2.075   5.854 -0.6055 -0.4055  0.7128
  694MOL0     C93581   3.855   2.058   5.761 -0.2701 -0.6859 -0.6196
  694MOL0     C93582   3.727   2.125   5.782 -0.0903 -0.2776  0.2836
  694MOL0     C93583   3.709   2.202   5.899  0.1407  0.9380  0.1496
  694MOL0     C93584   3.569   2.243   5.937  0.9969  0.5860 -0.3878
  694MOL0     O93585   3.471   2.246   5.840  0.3769  0.3643 -0.7311
  694MOL0     C93586   3.342   2.217   5.879  0.7128 -0.5772 -0.3116
  694MOL0     C93587   3.289   2.142   5.991  0.0252  0.5488  0.4092
  694MOL0     C93588   3.154   2.118   6.006  0.3846 -0.2481 -0.7072
  694MOL0     C93589   3.053   2.181   5.925 -0.0465 -0.1987  0.7304
  694MOL0     O93590   2.918   2.189   5.953  0.2057 -0.4130  0.6588
  694MOL0     C93591   2.860   2.097   6.051 -1.0096 -0.0232  0.2357
  694MOL0     C93592   2.713   2.095   6.017  0.8944  0.5236 -0.4937
  694MOL0     C93593   2.677   2.080   5.870 -0.5123  0.6131 -0.8198
  694MOL0     C93594   2.757   1.987   5.789  0.7570 -0.1883  0.2685
  694MOL0     C93595   2.795   2.040   5.649  0.1313  0.1421 -0.2409
  694MOL0     C93596   2.857   1.927   5.559 -0.0730  0.0021 -0.2447
  694MOL0     C93597   2.759   1.837   5.494 -0.1531 -1.1213 -0.1527
  694MOL0     C93598   2.740   1.874   5.347 -0.0015  0.7239  0.9803
  694MOL0    Cl93599   2.862   1.819   5.235  0.0819  0.0719  0.2980
  694MOL0     C93600   3.098   2.269   5.833 -1.0734  0.1159 -0.4525
  694MOL0     C93601   3.237   2.267   5.799  0.4524  0.5838 -0.9190
  694MOL0     O93602   3.549   2.272   6.059  0.2374  0.5167 -0.2396
  694MOL0     C93603   3.812   2.215   5.989 -0.6428  0.1152  0.6000
  694MOL0     C93604   3.936   2.161   5.966 -0.2092  0.5158  0.5472
  694MOL0     N93605   4.292   1.582   5.926  0.3283  0.3013 -0.0556
  694MOL0     N93606   4.381   1.574   6.024  0.1831  0.3775 -0.2623
  694MOL0     C93607   5.015   0.773   5.698  0.5030 -0.3653 -0.3801
  694MOL0     C93608   5.105   0.696   5.624  0.2240  0.1866 -0.3879
  694MOL0     C93609   5.339   0.456   5.305 -0.1378 -0.3270 -1.0226
  694MOL0     C93610   5.466   0.506   5.281  1.1707 -1.1602  0.4597
  694MOL0     C93611   5.547   0.450   5.184 -0.5910  0.2188 -0.1404
  694MOL0     C93612   5.512   0.346   5.093 -1.4149  0.1773 -0.2878
  694MOL0     O93613   5.602   0.302   4.993 -0.8452  0.1070  0.2574
  694MOL0     C93614   5.549   0.247   4.870  0.2808  0.6861  0.1451
  694MOL0     C93615   5.645   0.222   4.748 -0.3582 -0.5534  0.1047
  694MOL0     C93616   5.758   0.134   4.793 -1.0382 -0.1253 -0.1027
  694MOL0     C93617   5.739   0.005   4.879  1.0651  0.6166  0.3343
  694MOL0     C93618   5.619  -0.066   4.824 -0.1654  0.7866 -0.6796
  694MOL0     C93619   5.512  -0.109   4.782 -0.5811 -0.5021 -0.7007
  694MOL0     C93620   5.376   0.303   5.125 -0.8006  0.5232  0.4272
  694MOL0     C93621   5.291   0.354   5.223  0.5112  0.1930 -0.0951
  694MOL0     C93622   5.141   0.318   5.209  0.0215  0.3243 -0.4258
  694MOL0     H93623   4.915   0.608   5.355  1.4083 -0.6634 -0.0175
  694MOL0     H93624   4.760   0.777   5.486  0.3879  0.9534 -0.8927
  694MOL0     H93625   4.835   0.859   5.885 -0.9656 -5.4340 -4.6970
  694MOL0     H93626   4.913   1.001   5.800  1.6323 -2.9223 -1.6502
  694MOL0     H93627   4.610   0.974   5.862 -0.7651  0.6218 -3.2258
  694MOL0     H93628   4.698   1.097   5.765  5.1696 -0.1156 -0.6662
  694MOL0     H93629   4.729   0.996   6.045 -2.5772 -0.8017 -1.3981
  694MOL0     H93630   4.625   1.143   6.012 -2.5261  0.2642 -2.9088
  694MOL0     H93631   4.862   1.187   6.118 -1.8174 -3.3559  0.4856
  694MOL0     H93632   4.932   1.119   5.976  2.3620  1.3302  1.8071
  694MOL0     H93633   4.932   1.368   5.982 -0.2990 -1.8293  3.3730
  694MOL0     H93634   4.837   1.305   5.840  1.4101  0.6995 -0.3052
  694MOL0     H93635   4.624   1.362   5.965 -1.0068  1.4712  0.7395
  694MOL0     H93636   4.720   1.399   6.110  4.0203 -3.1054 -0.3934
  694MOL0     H93637   4.728   1.560   5.858 -2.0588  0.4301  1.4152
  694MOL0     H93638   4.823   1.605   5.978 -1.4840  4.2778  0.1388
  694MOL0     H93639   4.613   1.593   6.141 -0.8931  2.1788  0.9534
  694MOL0     H93640   4.637   1.737   6.045 -1.0077 -0.2196  4.4057
  694MOL0     H93641   4.544   1.714   5.774 -0.3409  0.5403  0.6429
  694MOL0     H93642   4.301   1.780   5.644 -0.1196  0.1298 -2.2811
  694MOL0     H93643   4.305   1.611   5.606  1.0104  2.6201 -1.6857
  694MOL0     H93644   4.087   1.703   5.590  0.7400  2.2607  0.7701
  694MOL0     H93645   4.088   1.581   5.716  0.4478 -0.8130 -4.4214
  694MOL0     H93646   4.076   1.777   5.891 -0.6034  0.7673  1.0677
  694MOL0     H93647   3.966   1.777   5.752 -0.2748  1.8173  2.2331
  694MOL0     H93648   4.094   1.962   5.635 -2.9457 -0.1234  0.5162
  694MOL0     H93649   4.225   1.937   5.764 -0.9712  0.2700  2.3529
  694MOL0     H93650   3.870   1.990   5.678  1.6531 -0.8083 -0.2195
  694MOL0     H93651   3.634   2.099   5.733  0.5744  1.4398 -2.0545
  694MOL0     H93652   3.352   2.086   6.059  0.4007 -0.3915 -0.6782
  694MOL0     H93653   3.106   2.062   6.086  1.1170 -1.3698 -1.0231
  694MOL0     H93654   2.893   1.997   6.023 -2.7245 -0.9823  1.5175
  694MOL0     H93655   2.881   2.134   6.152 -1.4892  3.5880 -0.8458
  694MOL0     H93656   2.681   2.005   6.070  1.2277  1.0498  0.6470
  694MOL0     H93657   2.671   2.181   6.070 -0.6469 -1.8050  2.3646
  694MOL0     H93658   2.573   2.046   5.871  0.1157 -1.5216 -1.6742
  694MOL0     H93659   2.687   2.179   5.825  2.2121 -0.6770 -3.3885
  694MOL0     H93660   2.696   1.898   5.767  1.4663 -1.0643  1.6815
  694MOL0     H93661   2.845   1.944   5.839  1.4151 -4.1424 -3.6904
  694MOL0     H93662   2.869   2.116   5.676  0.2506  0.2871 -0.9551
  694MOL0     H93663   2.716   2.099   5.601  0.7386  1.2639  0.1022
  694MOL0     H93664   2.927   1.969   5.487  4.1174  0.3817  3.5888
  694MOL0     H93665   2.914   1.859   5.623 -1.0563 -0.8274 -0.2128
  694MOL0     H93666   2.660   1.842   5.539  0.3075  0.4244  0.7312
  694MOL0     H93667   2.799   1.739   5.523 -0.3658 -0.3936  2.8325
  694MOL0     H93668   2.645   1.840   5.305 -0.9617 -0.3928  3.7939
  694MOL0     H93669   2.724   1.982   5.338 -0.8804  0.4756 -0.8133
  694MOL0     H93670   3.029   2.323   5.769 -2.7450  0.5902  1.6212
  694MOL0     H93671   3.259   2.335   5.717  2.0858  2.7897  1.1911
  694MOL0     H93672   3.790   2.270   6.080 -1.8189 -0.3505  0.6098
  694MOL0     H93673   4.019   2.185   6.031  2.6542 -2.2207 -1.8066
  694MOL0     H93674   5.049   0.825   5.787 -2.9564  2.2281 -0.3463
  694MOL0     H93675   5.204   0.670   5.659  1.2337  3.2451 -0.6625
  694MOL0     H93676   5.509   0.586   5.340 -0.2048  1.9110 -2.4155
  694MOL0     H93677   5.645   0.493   5.166  0.2064 -2.5111 -3.6884
  694MOL0     H93678   5.470   0.315   4.838  1.8442  1.7852 -1.5809
  694MOL0     H93679   5.493   0.155   4.890  0.4214  0.4036 -0.7255
  694MOL0     H93680   5.670   0.317   4.701  2.3575 -2.4007 -2.6328
  694MOL0     H93681   5.582   0.181   4.668 -1.0052  1.7535 -0.6270
  694MOL0     H93682   5.834   0.193   4.844  1.8698 -3.3354 -0.3722
  694MOL0     H93683   5.814   0.111   4.702 -0.6428 -2.9517  0.7474
  694MOL0     H93684   5.822  -0.065   4.860 -0.0756 -0.0971 -2.7604
  694MOL0     H93685   5.714   0.014   4.985 -0.2766 -0.4865  0.1414
  694MOL0     H93686   5.430  -0.168   4.747  0.6550 -1.5849 -1.9125
  694MOL0     H93687   5.341   0.219   5.066  2.3835 -2.2240  2.0673
  694MOL0     H93688   5.085   0.397   5.158 -1.9589 -1.0577 -0.5127
  694MOL0     H93689   5.124   0.219   5.166 -1.5046 -0.4650  1.8093
  694MOL0     H93690   5.100   0.314   5.311  0.5354 -1.3236 -0.2565
  695MOL0     O93691   3.667  10.104  11.345 -0.3092  1.1616  0.4166
  695MOL0     C93692   3.769  10.047  11.316 -0.5751  0.4583  0.3321
  695MOL0     O93693   3.789   9.920  11.251  0.3068 -1.3398  0.2133
  695MOL0     C93694   3.674   9.863  11.203 -0.7391  0.2576  0.2483
  695MOL0     C93695   3.662   9.803  11.070 -1.0023 -0.8204 -0.5885
  695MOL0     C93696   3.560   9.731  11.034 -0.2082  0.8844 -0.4424
  695MOL0     C93697   3.452   9.716  11.122 -0.4134 -0.0764  0.0953
  695MOL0     O93698   3.339   9.658  11.065  0.2979  0.0701  0.0803
  695MOL0     C93699   3.295   9.686  10.934  0.2689 -0.3459  0.7688
  695MOL0     C93700   3.140   9.668  10.942  0.3323  0.1770  0.4252
  695MOL0     C93701   3.069   9.670  10.799 -0.1190 -0.1292 -0.2655
  695MOL0     C93702   2.923   9.668  10.820  0.4929  0.2616 -1.0855
  695MOL0     C93703   2.835   9.666  10.688 -0.1514 -0.4195  0.6223
  695MOL0     C93704   2.694   9.620  10.707 -0.7221 -0.0038 -0.3790
  695MOL0     C93705   2.598   9.713  10.786 -0.2560  0.4304  0.6179
  695MOL0     C93706   2.580   9.856  10.742 -0.2931  0.1620  0.0100
  695MOL0     N93707   2.531   9.886  10.616  0.1189  0.7322  0.7512
  695MOL0     C93708   2.592   9.873  10.496 -0.3135  0.5166 -0.4577
  695MOL0     C93709   2.497   9.900  10.405 -0.5811  1.0548 -0.2157
  695MOL0     C93710   2.516   9.886  10.260 -0.0093 -0.1792 -0.2765
  695MOL0     C93711   2.551  10.020  10.196  1.1209 -0.7359  0.2629
  695MOL0     C93712   2.438  10.125  10.225 -0.3243  0.8758  0.7015
  695MOL0     C93713   2.301  10.091  10.183 -0.0696  0.5073 -0.2926
  695MOL0     O93714   2.273  10.131  10.049  0.1135 -0.2320  0.0398
  695MOL0     C93715   2.244  10.262  10.024 -0.1101  0.8138  0.7224
  695MOL0     C93716   2.134  10.341  10.073 -0.7331 -1.5587  0.3928
  695MOL0     C93717   2.126  10.481  10.049 -0.2244 -0.2202 -0.7343
  695MOL0     C93718   2.219  10.545   9.977 -0.1153 -0.1111  0.0137
  695MOL0     C93719   2.205  10.688   9.955 -0.2457 -0.7667  0.2450
  695MOL0     O93720   2.078  10.731   9.940  0.9838  0.5633 -0.5648
  695MOL0     C93721   2.043  10.862   9.946 -0.0871  0.2476 -1.1873
  695MOL0     C93722   2.089  10.963   9.862  0.6207  0.2116  0.4949
  695MOL0     C93723   2.053  11.094   9.860 -0.1787 -0.1388 -0.0839
  695MOL0     C93724   1.964  11.131   9.961 -0.1613  0.2537 -0.6034
  695MOL0     O93725   1.921  11.252   9.992  0.2291 -0.0322  0.3673
  695MOL0     C93726   2.029  11.344  10.016  0.2736 -0.4669 -0.7373
  695MOL0     C93727   1.982  11.442  10.129 -0.2236 -0.1820 -0.0349
  695MOL0     C93728   1.870  11.542  10.103 -0.7566  1.2428 -1.1022
  695MOL0     C93729   1.872  11.665  10.202  0.1949  0.0915  0.4070
  695MOL0     C93730   1.860  11.631  10.351 -0.3523  0.3538  0.5705
  695MOL0     C93731   1.724  11.567  10.393 -0.1362  0.4978 -0.1257
  695MOL0     C93732   1.703  11.532  10.535  0.0257 -0.8087 -0.3315
  695MOL0     C93733   1.680  11.386  10.559  1.0950 -0.5135 -0.2940
  695MOL0    Cl93734   1.827  11.298  10.522  0.4631  0.0297 -0.0997
  695MOL0     C93735   1.900  11.031  10.041 -0.3853 -0.2065 -0.3265
  695MOL0     C93736   1.951  10.906  10.037 -0.4533  0.5560  0.6308
  695MOL0     O93737   2.309  10.757   9.945  0.7167 -0.2384  0.3251
  695MOL0     C93738   2.331  10.471   9.926 -0.3608 -0.9585 -0.0861
  695MOL0     C93739   2.344  10.331   9.950  0.5907  0.0228 -0.7840
  695MOL0     N93740   2.376   9.925  10.471 -0.2834 -0.7801 -0.2971
  695MOL0     N93741   2.402   9.921  10.593  0.2361  0.5010 -0.9461
  695MOL0     C93742   3.463   9.759  11.258 -0.8879  1.0324 -0.6527
  695MOL0     C93743   3.576   9.830  11.294  0.2867  1.2295  1.1956
  695MOL0     C93744   3.901  10.094  11.370  1.3708 -0.7510  0.2838
  695MOL0     C93745   4.021  10.037  11.323  1.3221 -0.2629  0.3339
  695MOL0     C93746   4.145  10.096  11.332 -0.4787 -1.4033 -1.4804
  695MOL0     C93747   4.168  10.198  11.428 -0.1039  0.2050 -0.0018
  695MOL0     O93748   4.301  10.240  11.443 -0.7081 -0.0650  0.3676
  695MOL0     C93749   4.334  10.322  11.557  0.0690  0.5705 -0.3105
  695MOL0     C93750   4.490  10.355  11.554  0.2619  0.6845  0.4170
  695MOL0     C93751   4.573  10.232  11.526  0.5511  0.8762 -0.0513
  695MOL0     C93752   4.725  10.258  11.562  0.2215  1.3224 -0.6301
  695MOL0     C93753   4.810  10.144  11.524 -0.9432  1.1892  0.2417
  695MOL0     C93754   4.878  10.055  11.477 -0.1723 -0.1957  0.1616
  695MOL0     C93755   4.056  10.243  11.496  0.3252  1.1404  0.2266
  695MOL0     C93756   3.921  10.196  11.468  0.1426 -0.0416 -0.3227
  695MOL0     C93757   3.811  10.262  11.548  0.4023 -0.0505 -0.7750
  695MOL0     H93758   3.750   9.832  11.013 -0.6030 -0.2597  0.2906
  695MOL0     H93759   3.567   9.674  10.943  0.0482  0.3797 -0.1119
  695MOL0     H93760   3.313   9.788  10.901 -1.1958 -1.2178 -3.3207
  695MOL0     H93761   3.331   9.612  10.862 -1.4872 -3.3350  2.7515
  695MOL0     H93762   3.092   9.748  10.998 -3.0413  0.4315 -2.4704
  695MOL0     H93763   3.120   9.575  10.997  0.6429  0.2410  0.6497
  695MOL0     H93764   3.094   9.580  10.743 -1.0421 -1.2509  1.0636
  695MOL0     H93765   3.108   9.754  10.741 -0.7487 -0.0454 -0.5755
  695MOL0     H93766   2.902   9.571  10.865 -0.5620  0.8137 -0.3567
  695MOL0     H93767   2.892   9.746  10.890  1.6360 -0.1175 -0.1288
  695MOL0     H93768   2.820   9.771  10.662 -1.8748 -1.5967 -4.1934
  695MOL0     H93769   2.875   9.601  10.610 -2.6962  0.8346 -1.9130
  695MOL0     H93770   2.648   9.597  10.611 -0.9172 -1.7707  0.0900
  695MOL0     H93771   2.706   9.524  10.758  0.6157 -0.2117 -1.0381
  695MOL0     H93772   2.638   9.713  10.888 -0.9303  1.7976  0.9085
  695MOL0     H93773   2.496   9.673  10.782  0.2304 -0.7967 -0.0464
  695MOL0     H93774   2.509   9.887  10.820  2.3170  1.9181  1.8612
  695MOL0     H93775   2.664   9.920  10.771 -0.7378  1.5526 -1.6465
  695MOL0     H93776   2.693   9.842  10.474 -0.6259 -0.2326 -0.8759
  695MOL0     H93777   2.605   9.822  10.252  1.0478  1.0110  1.1805
  695MOL0     H93778   2.431   9.842  10.208  0.8865 -1.1983 -0.9372
  695MOL0     H93779   2.635  10.069  10.246 -1.2440  3.1755  0.8966
  695MOL0     H93780   2.574   9.998  10.092  0.2427 -0.8698  0.0885
  695MOL0     H93781   2.462  10.214  10.165 -1.3283 -1.3602 -3.4332
  695MOL0     H93782   2.444  10.143  10.332  1.9982  1.1941  0.5623
  695MOL0     H93783   2.234  10.120  10.264  0.9442 -0.6027  0.9925
  695MOL0     H93784   2.277   9.984  10.186  1.4724  0.1556  0.5327
  695MOL0     H93785   2.051  10.282  10.110 -2.3948  1.6762  2.3279
  695MOL0     H93786   2.046  10.535  10.099  1.2146  1.0933  0.2390
  695MOL0     H93787   2.166  10.938   9.790  0.8385  2.6561 -0.2004
  695MOL0     H93788   2.098  11.162   9.789 -1.0297  1.9281  1.2306
  695MOL0     H93789   2.120  11.304  10.062  1.0630  1.3882 -0.5957
  695MOL0     H93790   2.056  11.400   9.926  3.3097  0.7538  0.7826
  695MOL0     H93791   1.958  11.373  10.211 -3.9046  1.6640  0.6410
  695MOL0     H93792   2.067  11.505  10.157 -0.3266 -0.3860  0.7821
  695MOL0     H93793   1.873  11.584  10.002  4.0429  3.1389 -0.4374
  695MOL0     H93794   1.779  11.485  10.124  0.3399 -0.9484 -1.9973
  695MOL0     H93795   1.795  11.735  10.169 -0.9129 -0.9576  0.7071
  695MOL0     H93796   1.967  11.720  10.203  0.2784 -0.0024  2.5328
  695MOL0     H93797   1.867  11.729  10.397 -1.1224  1.0545 -0.7265
  695MOL0     H93798   1.945  11.571  10.384  0.1691  1.2279  0.8374
  695MOL0     H93799   1.639  11.628  10.360  0.7905  2.3754  0.7929
  695MOL0     H93800   1.711  11.475  10.335 -0.2387 -0.9431  2.0622
  695MOL0     H93801   1.621  11.594  10.570  1.0441  2.3345 -3.0241
  695MOL0     H93802   1.792  11.569  10.586  0.0478  1.3668 -1.8115
  695MOL0     H93803   1.653  11.380  10.665  0.6884 -1.9145 -0.4631
  695MOL0     H93804   1.592  11.355  10.503  1.6636 -3.1602  0.1821
  695MOL0     H93805   1.834  11.059  10.122 -0.6832  3.1738 -1.5871
  695MOL0     H93806   1.906  10.840  10.111 -0.3966  1.6483  1.6660
  695MOL0     H93807   2.418  10.532   9.904  1.2095 -2.2704  2.0886
  695MOL0     H93808   2.437  10.280   9.926  0.3796 -1.0641  0.5196
  695MOL0     H93809   3.390   9.749  11.338  1.2235  0.7279  1.3137
  695MOL0     H93810   3.589   9.849  11.400  2.4810 -1.5747  1.5523
  695MOL0     H93811   4.018   9.959  11.248  0.3448  1.7920 -1.9124
  695MOL0     H93812   4.234  10.077  11.272  2.2972  1.3557  1.3589
  695MOL0     H93813   4.309  10.261  11.644  4.2977  0.2721  0.9524
  695MOL0     H93814   4.278  10.416  11.556 -1.0984  0.0277  2.6443
  695MOL0     H93815   4.516  10.391  11.654 -0.9651 -0.5080  1.1876
  695MOL0     H93816   4.515  10.425  11.473 -3.2794 -2.0312 -3.4524
  695MOL0     H93817   4.582  10.214  11.419 -0.1447 -1.8280  0.2652
  695MOL0     H93818   4.537  10.145  11.583  2.9126  0.9419  1.6776
  695MOL0     H93819   4.763  10.345  11.507  2.0444  0.2516 -1.1654
  695MOL0     H93820   4.743  10.274  11.669 -3.4573  2.7475 -0.0788
  695MOL0     H93821   4.934   9.978  11.429 -0.5436  1.2643 -2.8549
  695MOL0     H93822   4.048  10.319  11.573  2.0719  1.0973  0.4780
  695MOL0     H93823   3.735  10.307  11.483 -2.1185 -3.3811 -0.4038
  695MOL0     H93824   3.759  10.181  11.600 -2.9937  1.6975 -1.1551
  695MOL0     H93825   3.843  10.324  11.632  0.9606 -1.0281 -0.2438
  696MOL0     O93826   2.542   4.568   7.121  0.1758 -0.3703 -1.0783
  696MOL0     C93827   2.474   4.588   7.223 -0.6105  0.4899 -0.2254
  696MOL0     O93828   2.344   4.628   7.222  0.5372  0.5011 -0.3755
  696MOL0     C93829   2.275   4.668   7.116  0.4460 -0.3218 -0.5052
  696MOL0     C93830   2.323   4.774   7.044  0.1272 -0.2123  0.7045
  696MOL0     C93831   2.258   4.808   6.921  0.3136 -0.0292 -0.8026
  696MOL0     C93832   2.132   4.754   6.893  0.2355  0.3951 -0.5544
  696MOL0     O93833   2.057   4.797   6.786  0.9148 -0.7194  0.7408
  696MOL0     C93834   2.074   4.716   6.668 -0.1169 -0.1578  0.5962
  696MOL0     C93835   2.206   4.746   6.609 -0.5999 -0.2750  0.5396
  696MOL0     C93836   2.222   4.688   6.470 -0.6482  0.2863 -0.5263
  696MOL0     C93837   2.181   4.543   6.446 -0.1224  0.0264 -0.1855
  696MOL0     C93838   2.247   4.446   6.547  0.0705  0.4695  0.4081
  696MOL0     C93839   2.399   4.433   6.515 -0.5383  0.0593 -0.6708
  696MOL0     C93840   2.490   4.363   6.620 -0.9969  0.7420 -0.3900
  696MOL0     C93841   2.489   4.215   6.609  0.5954  0.6893  0.7037
  696MOL0     N93842   2.587   4.168   6.704 -0.4690  0.0695  0.6647
  696MOL0     C93843   2.574   4.171   6.836  0.1432  0.0909 -1.0225
  696MOL0     C93844   2.691   4.116   6.888  0.2512  0.6398 -0.3490
  696MOL0     C93845   2.714   4.098   7.037 -0.4190  0.7538 -0.0740
  696MOL0     C93846   2.832   4.187   7.094 -1.1636  0.4771  0.9324
  696MOL0     C93847   2.960   4.106   7.127 -0.0475  0.2434 -0.2072
  696MOL0     C93848   2.938   4.000   7.238 -0.4020  0.0803 -0.3549
  696MOL0     O93849   2.886   4.054   7.369 -0.2343 -0.7539 -0.1377
  696MOL0     C93850   2.971   4.100   7.470  0.0975  0.6104 -0.0509
  696MOL0     C93851   2.924   4.105   7.603  1.0776  0.0348  1.0139
  696MOL0     C93852   3.006   4.143   7.715 -0.5099  0.2288 -0.8054
  696MOL0     C93853   3.142   4.180   7.693 -0.3820  0.6216  0.5637
  696MOL0     C93854   3.233   4.217   7.803  1.2331  0.2163 -0.3883
  696MOL0     O93855   3.174   4.205   7.933 -0.8194  0.1247  0.6891
  696MOL0     C93856   3.271   4.181   8.031 -0.8626  0.5572  0.2410
  696MOL0     C93857   3.383   4.094   8.010  0.8042  0.2042  0.0508
  696MOL0     C93858   3.474   4.083   8.114  0.5829 -1.0089  0.2775
  696MOL0     C93859   3.463   4.144   8.236  0.7343 -1.1324  0.4388
  696MOL0     O93860   3.551   4.119   8.341  0.4751 -0.3819  0.2735
  696MOL0     C93861   3.600   3.983   8.363 -0.4880  0.5403 -0.1985
  696MOL0     C93862   3.657   3.982   8.506 -0.6471 -0.0243  0.0837
  696MOL0     C93863   3.550   3.954   8.604  0.4560 -0.8400 -0.9485
  696MOL0     C93864   3.517   3.804   8.606 -0.7714  0.6651 -0.3993
  696MOL0     C93865   3.400   3.783   8.710  0.9663 -0.9643 -0.3824
  696MOL0     C93866   3.326   3.647   8.701 -0.3080  0.0642 -0.5646
  696MOL0     C93867   3.177   3.641   8.757 -0.3087 -0.5505  0.2925
  696MOL0     C93868   3.141   3.495   8.773  0.4516 -0.2380  0.6137
  696MOL0    Cl93869   3.214   3.433   8.919 -0.0635 -0.3168  0.5522
  696MOL0     C93870   3.356   4.236   8.257 -0.1588  0.3264 -0.0242
  696MOL0     C93871   3.258   4.253   8.153  0.2743 -0.0113 -0.6982
  696MOL0     O93872   3.347   4.254   7.777 -0.4588  0.7215 -1.1832
  696MOL0     C93873   3.180   4.198   7.555  0.5070  0.0634 -0.0689
  696MOL0     C93874   3.106   4.144   7.442 -0.3513 -0.0226  0.2838
  696MOL0     N93875   2.771   4.094   6.774  1.0986  0.3490 -0.0091
  696MOL0     N93876   2.712   4.122   6.665 -0.6464 -0.5508 -0.2180
  696MOL0     C93877   2.074   4.657   6.983  0.3563 -0.1372 -0.9185
  696MOL0     C93878   2.147   4.603   7.086  0.8847  0.2509 -1.3172
  696MOL0     C93879   2.541   4.555   7.358 -0.2829  0.7813  0.8533
  696MOL0     C93880   2.666   4.481   7.353 -0.2219 -0.6441  0.3051
  696MOL0     C93881   2.719   4.434   7.471  0.1532  0.0599  0.4419
  696MOL0     C93882   2.664   4.470   7.591  0.7953  0.4014 -0.4385
  696MOL0     O93883   2.716   4.415   7.707  0.6049  0.3783  0.8284
  696MOL0     C93884   2.852   4.451   7.728  0.1115 -0.2154  0.4313
  696MOL0     C93885   2.900   4.448   7.868  0.0154  0.9478  0.3490
  696MOL0     C93886   2.817   4.536   7.961 -0.1356 -0.4700  0.1842
  696MOL0     C93887   2.906   4.561   8.090  1.3516  0.0948  0.5010
  696MOL0     C93888   2.927   4.439   8.170  1.5689  0.5006 -0.0741
  696MOL0     C93889   2.920   4.341   8.230 -0.2411 -0.2239  0.0150
  696MOL0     C93890   2.552   4.543   7.597 -0.3927  0.3334  0.3738
  696MOL0     C93891   2.484   4.583   7.482  0.5810  0.5287  0.0310
  696MOL0     C93892   2.353   4.661   7.513 -0.1113  0.3396 -1.3907
  696MOL0     H93893   2.406   4.832   7.084 -0.3659 -1.4198  3.7037
  696MOL0     H93894   2.312   4.873   6.853  1.3655  0.9871  0.9180
  696MOL0     H93895   2.071   4.610   6.697 -2.4195 -0.2633  0.1080
  696MOL0     H93896   2.002   4.750   6.594 -0.4832  1.6342  1.7037
  696MOL0     H93897   2.292   4.723   6.674 -1.4705 -1.3512  1.3419
  696MOL0     H93898   2.218   4.854   6.595  3.9037 -0.4619  1.3277
  696MOL0     H93899   2.328   4.691   6.446  0.4432 -1.5752  3.2283
  696MOL0     H93900   2.154   4.755   6.416 -0.1724  2.2932  1.2008
  696MOL0     H93901   2.072   4.533   6.448 -0.1760 -1.3868 -3.3744
  696MOL0     H93902   2.223   4.521   6.347  0.3463 -2.7598  0.5657
  696MOL0     H93903   2.225   4.461   6.653 -0.8399  1.2500  0.1231
  696MOL0     H93904   2.217   4.344   6.522  0.9665  0.3596 -0.2634
  696MOL0     H93905   2.402   4.388   6.416  2.2853 -0.1166 -0.5708
  696MOL0     H93906   2.435   4.535   6.505 -0.8681  0.3299  0.7001
  696MOL0     H93907   2.464   4.384   6.725 -0.9015  2.1179 -0.6168
  696MOL0     H93908   2.590   4.406   6.618 -0.9375  0.5763 -1.7115
  696MOL0     H93909   2.392   4.173   6.635  0.0779 -0.0857 -2.1697
  696MOL0     H93910   2.510   4.177   6.509 -2.2375  3.0640 -0.9435
  696MOL0     H93911   2.486   4.209   6.886  0.8806  0.6040 -0.0836
  696MOL0     H93912   2.622   4.127   7.088  1.1980  0.9662  2.9562
  696MOL0     H93913   2.724   3.991   7.061 -1.4609  0.7472  0.3766
  696MOL0     H93914   2.844   4.259   7.013  2.1319 -0.1058  0.7582
  696MOL0     H93915   2.790   4.249   7.174 -1.5534  1.3989  0.0234
  696MOL0     H93916   3.051   4.162   7.150  0.2136 -0.1191 -0.3312
  696MOL0     H93917   2.986   4.043   7.041 -0.3772  0.3133 -0.3558
  696MOL0     H93918   3.033   3.957   7.273 -1.8748 -0.0075  4.1768
  696MOL0     H93919   2.877   3.917   7.202 -2.1888  1.3677 -0.4151
  696MOL0     H93920   2.820   4.084   7.628  1.3567  0.3124  2.5061
  696MOL0     H93921   2.969   4.131   7.816  1.5030 -2.3847 -0.2680
  696MOL0     H93922   3.387   4.040   7.916 -4.5974  2.7222 -1.9970
  696MOL0     H93923   3.564   4.027   8.088  1.5482 -0.7894  2.8191
  696MOL0     H93924   3.520   3.908   8.355  1.5340 -1.7597  0.2275
  696MOL0     H93925   3.688   3.972   8.300  0.5590 -0.0052  1.3012
  696MOL0     H93926   3.732   3.904   8.514 -0.3884  0.1289 -0.7492
  696MOL0     H93927   3.712   4.072   8.535  0.2060 -1.0362  1.7619
  696MOL0     H93928   3.583   3.991   8.702  0.5937  0.5534 -1.5068
  696MOL0     H93929   3.464   4.016   8.575  1.0321  0.7830  0.6260
  696MOL0     H93930   3.608   3.765   8.651 -0.5569  1.2303 -0.3435
  696MOL0     H93931   3.502   3.762   8.506 -2.8523 -1.3224  0.6429
  696MOL0     H93932   3.323   3.860   8.716 -0.8759 -2.8302  1.9095
  696MOL0     H93933   3.447   3.784   8.809  1.6648 -3.0211 -0.6472
  696MOL0     H93934   3.331   3.616   8.596  2.0312 -0.1393 -0.4540
  696MOL0     H93935   3.380   3.564   8.748  0.6917  1.4303  0.7706
  696MOL0     H93936   3.105   3.680   8.683 -2.1567  1.7650  3.1109
  696MOL0     H93937   3.153   3.695   8.848  0.7930 -1.6757  1.2861
  696MOL0     H93938   3.033   3.479   8.768  0.9471 -3.9061 -2.2547
  696MOL0     H93939   3.179   3.443   8.685  0.6101 -0.2009  0.6588
  696MOL0     H93940   3.343   4.297   8.346 -3.1955  2.5217 -1.7567
  696MOL0     H93941   3.186   4.328   8.182 -2.1873 -0.8676 -4.0331
  696MOL0     H93942   3.265   4.261   7.534 -1.1411  3.3262  2.1475
  696MOL0     H93943   3.132   4.155   7.337  0.0493 -3.0758 -0.0369
  696MOL0     H93944   1.975   4.621   6.955  1.0537 -1.8359 -1.3303
  696MOL0     H93945   2.115   4.520   7.148  0.5162  1.5635  0.3318
  696MOL0     H93946   2.726   4.460   7.265  3.8568 -1.4133  2.9860
  696MOL0     H93947   2.802   4.364   7.467  0.2747  0.2187 -3.3622
  696MOL0     H93948   2.868   4.555   7.698 -4.0930  0.3041 -0.5905
  696MOL0     H93949   2.907   4.391   7.654 -0.1261 -0.0678  0.1326
  696MOL0     H93950   3.006   4.468   7.889 -0.1668  0.0417  2.4819
  696MOL0     H93951   2.903   4.343   7.901  2.1660  1.2234  1.2121
  696MOL0     H93952   2.721   4.499   7.997  1.2530 -2.5299  2.0060
  696MOL0     H93953   2.797   4.634   7.916  0.5649 -0.9347 -1.2113
  696MOL0     H93954   2.996   4.618   8.064  0.1772  1.4132 -0.9156
  696MOL0     H93955   2.844   4.628   8.152 -1.3125 -3.2495  1.7704
  696MOL0     H93956   2.903   4.243   8.269  1.3044 -1.6449 -2.6171
  696MOL0     H93957   2.528   4.573   7.699  2.0082 -0.0224  1.1035
  696MOL0     H93958   2.366   4.733   7.595 -2.1422 -1.8967  1.0932
  696MOL0     H93959   2.308   4.721   7.434 -1.0953  0.9455 -0.3977
  696MOL0     H93960   2.276   4.589   7.545  0.8155 -0.4417 -0.8479
  697MOL0     O93961  10.777   0.292   2.036  0.4460  0.9611 -0.9180
  697MOL0     C93962  10.739   0.177   2.042  0.1981  0.1531  0.2301
  697MOL0     O93963  10.709   0.100   1.941 -0.1630  0.1877 -0.2128
  697MOL0     C93964  10.735   0.154   1.817 -0.3469  0.8997  0.0794
  697MOL0     C93965  10.865   0.198   1.783 -0.3513  0.6971 -0.6358
  697MOL0     C93966  10.891   0.249   1.663 -0.3356  0.0285  0.1158
  697MOL0     C93967  10.791   0.258   1.562 -1.0228  0.1376 -0.1235
  697MOL0     O93968  10.825   0.321   1.443 -0.0972 -0.7390 -0.2523
  697MOL0     C93969  10.889   0.446   1.463  0.0725  0.0642 -0.1228
  697MOL0     C93970  10.863   0.543   1.351 -0.4462  0.6791  0.3855
  697MOL0     C93971  10.875   0.492   1.204 -0.5299  0.2557 -0.3758
  697MOL0     C93972  10.894   0.612   1.117  0.2772 -0.0708  0.3574
  697MOL0     C93973  10.890   0.575   0.970  0.6605  0.6624  0.4323
  697MOL0     C93974  10.962   0.679   0.882 -0.1623  0.0789 -0.4031
  697MOL0     C93975  10.978   0.625   0.739 -0.5619  0.1137 -0.6710
  697MOL0     C93976  11.083   0.712   0.663 -0.2797 -0.3494 -0.9164
  697MOL0     N93977  11.049   0.853   0.642 -0.0739  0.1539 -0.2311
  697MOL0     C93978  10.953   0.904   0.550 -0.2647 -0.4884 -0.3665
  697MOL0     C93979  10.943   1.040   0.588 -0.6720 -0.2851  0.7203
  697MOL0     C93980  10.882   1.140   0.496  0.7328 -0.0910 -0.2060
  697MOL0     C93981  10.981   1.242   0.426  0.0338 -0.8842 -0.8740
  697MOL0     C93982  11.088   1.189   0.339  0.7760  0.3090 -0.6407
  697MOL0     C93983  11.230   1.180   0.380  0.3087  0.2060 -0.3005
  697MOL0     O93984  11.305   1.269   0.296 -0.6234 -0.2121  0.6412
  697MOL0     C93985  11.433   1.293   0.344  0.3356  0.8867  0.3201
  697MOL0     C93986  11.483   1.418   0.323  0.1228 -0.1045  0.8255
  697MOL0     C93987  11.612   1.448   0.365  0.1539 -0.1166 -0.0975
  697MOL0     C93988  11.685   1.365   0.455  0.7121  0.2117 -0.6622
  697MOL0     C93989  11.806   1.412   0.512 -0.2376  0.1549 -0.1498
  697MOL0     O93990  11.842   1.536   0.470 -0.9539  0.5333  0.2445
  697MOL0     C93991  11.968   1.597   0.491 -0.2467 -0.1145 -0.1620
  697MOL0     C93992  11.984   1.736   0.486 -0.1530  0.0082 -0.0140
  697MOL0     C93993  12.107   1.798   0.485 -0.0361  0.9985 -0.1875
  697MOL0     C93994  12.223   1.717   0.482 -0.1705 -0.0764 -0.2783
  697MOL0     O93995  12.341   1.782   0.495 -0.8033 -0.0739  0.2263
  697MOL0     C93996  12.448   1.699   0.451 -0.6220 -0.2550  0.6341
  697MOL0     C93997  12.567   1.782   0.434 -1.0103  0.5168  1.0635
  697MOL0     C93998  12.613   1.842   0.560 -0.7362  0.1380 -0.9890
  697MOL0     C93999  12.749   1.909   0.540 -1.1181 -0.6206 -0.8740
  697MOL0     C94000  12.804   1.982   0.671  0.8835  0.4450  0.5645
  697MOL0     C94001  12.953   2.040   0.664 -0.0029 -1.0611  0.2772
  697MOL0     C94002  12.966   2.194   0.647  0.4285 -0.9828  1.1678
  697MOL0     C94003  13.118   2.244   0.639 -0.4021 -0.1746 -0.2405
  697MOL0    Cl94004  13.191   2.241   0.802  0.3748 -0.0102  0.1743
  697MOL0     C94005  12.209   1.576   0.497  0.5005  0.3707  0.7881
  697MOL0     C94006  12.081   1.521   0.498 -0.5080  0.7832  0.2505
  697MOL0     O94007  11.873   1.337   0.591  0.0364 -0.0695  0.3323
  697MOL0     C94008  11.635   1.240   0.482  0.0105  0.8428  0.7791
  697MOL0     C94009  11.510   1.209   0.424  0.0933 -0.0808  0.1613
  697MOL0     N94010  11.019   1.054   0.704  0.3880 -0.7248  0.3738
  697MOL0     N94011  11.071   0.947   0.735 -0.4467 -0.6688  0.2462
  697MOL0     C94012  10.665   0.202   1.588 -0.1080  0.5137 -1.0668
  697MOL0     C94013  10.640   0.152   1.714  0.6885 -0.5671  0.3831
  697MOL0     C94014  10.716   0.122   2.175 -0.2256 -0.9203 -0.2586
  697MOL0     C94015  10.643   0.002   2.184  0.5079 -0.2609  0.1888
  697MOL0     C94016  10.623  -0.056   2.317 -0.3982  0.3918  1.2276
  697MOL0     C94017  10.691  -0.017   2.426 -0.1037  0.2645 -0.3888
  697MOL0     O94018  10.681  -0.092   2.543  0.0447  0.2115 -0.2815
  697MOL0     C94019  10.740  -0.055   2.667 -0.3896  0.2777  0.8151
  697MOL0     C94020  10.650   0.042   2.758  0.1470 -0.1053  0.3716
  697MOL0     C94021  10.692   0.072   2.902 -0.1263  0.2252 -0.2005
  697MOL0     C94022  10.840   0.098   2.928 -0.3154  0.0178  0.6197
  697MOL0     C94023  10.900   0.210   2.853 -0.1445  0.0412 -0.0934
  697MOL0     C94024  10.947   0.288   2.778 -0.5767 -0.0515  0.2910
  697MOL0     C94025  10.753   0.108   2.419 -0.4732  0.0978  0.2697
  697MOL0     C94026  10.772   0.180   2.297 -0.7710  0.1720  0.0209
  697MOL0     C94027  10.867   0.298   2.309  0.1209  0.4769  0.5627
  697MOL0     H94028  10.946   0.181   1.853 -0.7419 -0.5497 -0.4592
  697MOL0     H94029  10.991   0.285   1.641  0.3570 -1.4599  0.6130
  697MOL0     H94030  10.856   0.491   1.557  4.6188  2.9985  0.3724
  697MOL0     H94031  10.996   0.429   1.475  0.0834  0.3705  0.2486
  697MOL0     H94032  10.925   0.631   1.365  1.8451 -0.1581 -3.3217
  697MOL0     H94033  10.765   0.587   1.374  0.3804  1.7460  2.0892
  697MOL0     H94034  10.783   0.439   1.177 -1.0476  2.3247 -3.0530
  697MOL0     H94035  10.961   0.425   1.200 -1.2065 -0.6798  0.1712
  697MOL0     H94036  10.807   0.677   1.128  1.0625  1.7569 -2.9235
  697MOL0     H94037  10.983   0.672   1.141 -0.1093  0.6753 -0.0357
  697MOL0     H94038  10.924   0.474   0.949  0.1741  0.9030 -1.7455
  697MOL0     H94039  10.784   0.579   0.944  0.8964 -3.4067 -2.0042
  697MOL0     H94040  10.894   0.765   0.893  1.0085  0.7537  2.5758
  697MOL0     H94041  11.059   0.705   0.927  1.5092 -4.9122 -0.5864
  697MOL0     H94042  10.888   0.635   0.678  0.5402 -2.1207 -2.8274
  697MOL0     H94043  11.004   0.519   0.748 -3.7144 -0.5747  4.0535
  697MOL0     H94044  11.180   0.701   0.712 -1.1840  3.1962  2.0236
  697MOL0     H94045  11.104   0.675   0.562  3.2023 -0.4625 -0.2758
  697MOL0     H94046  10.915   0.865   0.457 -1.5105 -2.9008  1.0468
  697MOL0     H94047  10.828   1.094   0.413  0.2923  0.8458 -0.4495
  697MOL0     H94048  10.814   1.189   0.566 -0.8810 -1.5783 -0.6730
  697MOL0     H94049  10.915   1.295   0.356 -0.7815 -3.7990 -2.4880
  697MOL0     H94050  11.019   1.321   0.490  0.0195  0.8011 -2.8475
  697MOL0     H94051  11.081   1.243   0.244 -0.4922 -0.9351 -1.2886
  697MOL0     H94052  11.052   1.089   0.316 -3.1486  1.6617 -1.0490
  697MOL0     H94053  11.269   1.080   0.360  1.3040  0.6179 -0.5118
  697MOL0     H94054  11.243   1.214   0.483 -2.1519  3.3602 -0.8618
  697MOL0     H94055  11.417   1.488   0.273 -1.8785 -1.1926  1.8152
  697MOL0     H94056  11.662   1.543   0.346  0.9878 -0.3325  0.9506
  697MOL0     H94057  11.894   1.792   0.461  0.4634  1.9415  1.8176
  697MOL0     H94058  12.127   1.905   0.487 -0.7109  1.1289  1.2991
  697MOL0     H94059  12.483   1.620   0.518  0.9190 -1.2253 -1.2140
  697MOL0     H94060  12.421   1.653   0.356  0.5975 -1.0190  0.6438
  697MOL0     H94061  12.646   1.718   0.395 -1.9225  0.2368 -0.3926
  697MOL0     H94062  12.549   1.855   0.355 -4.8349 -2.4324 -1.1787
  697MOL0     H94063  12.531   1.911   0.586 -3.1404 -3.2269  1.2432
  697MOL0     H94064  12.621   1.760   0.632 -0.6023  0.2979 -0.8212
  697MOL0     H94065  12.759   1.988   0.465 -0.1818  0.8861  0.7609
  697MOL0     H94066  12.822   1.836   0.507  0.2975  1.0510 -1.5955
  697MOL0     H94067  12.800   1.919   0.760 -1.1919 -1.3939 -0.7233
  697MOL0     H94068  12.735   2.066   0.682 -1.5156 -0.9407 -2.5503
  697MOL0     H94069  13.005   2.016   0.757  2.9800  2.8768 -0.1001
  697MOL0     H94070  13.004   2.007   0.573  2.4662  2.0171  0.3453
  697MOL0     H94071  12.937   2.251   0.736  1.7818  2.1942 -0.2687
  697MOL0     H94072  12.920   2.233   0.556  1.8713 -0.4828  0.6224
  697MOL0     H94073  13.162   2.167   0.575 -0.5675 -0.9678  0.5733
  697MOL0     H94074  13.131   2.350   0.616  7.5283  0.1809  2.6830
  697MOL0     H94075  12.296   1.511   0.502  1.8150  2.1170  1.6136
  697MOL0     H94076  12.086   1.413   0.493 -1.3992  0.7892 -2.3824
  697MOL0     H94077  11.684   1.171   0.550  2.0161 -0.3054 -1.6954
  697MOL0     H94078  11.477   1.113   0.463  1.3753 -1.9517 -3.0444
  697MOL0     H94079  10.584   0.203   1.516 -1.5785 -0.5945  0.5149
  697MOL0     H94080  10.544   0.104   1.730 -0.4630  1.2556 -0.6899
  697MOL0     H94081  10.589  -0.041   2.100 -3.6890  0.2558  2.3869
  697MOL0     H94082  10.556  -0.141   2.319 -0.8029  0.5869 -1.2600
  697MOL0     H94083  10.838  -0.006   2.662 -0.0287 -0.5188 -0.3377
  697MOL0     H94084  10.748  -0.146   2.727  2.3324  0.5043  0.9332
  697MOL0     H94085  10.547   0.004   2.761  0.4891 -1.0065  3.4438
  697MOL0     H94086  10.643   0.134   2.699 -1.3391  0.9812  2.1389
  697MOL0     H94087  10.656  -0.007   2.969  0.3953  1.4451  1.5661
  697MOL0     H94088  10.640   0.166   2.923 -0.0927  0.7292 -2.1197
  697MOL0     H94089  10.856   0.110   3.036 -1.4379 -1.2093  0.9596
  697MOL0     H94090  10.905   0.020   2.888 -1.0405  1.8248 -4.8758
  697MOL0     H94091  10.989   0.371   2.724  1.4564 -1.3785 -0.2714
  697MOL0     H94092  10.793   0.165   2.503 -0.8723  2.2753 -0.9304
  697MOL0     H94093  10.816   0.395   2.317 -3.9494 -1.1679 -2.0627
  697MOL0     H94094  10.933   0.292   2.396  1.8636  1.0913 -0.6693
  697MOL0     H94095  10.924   0.307   2.216 -2.7731  1.3580 -1.2767
  698MOL0     O94096   0.885   7.750  11.506  0.7875  0.8151 -1.0840
  698MOL0     C94097   0.974   7.779  11.434  0.6155  0.0649 -0.4720
  698MOL0     O94098   0.961   7.791  11.299 -0.4273 -0.4146  0.2179
  698MOL0     C94099   0.841   7.798  11.238 -0.7160 -0.7348  0.4121
  698MOL0     C94100   0.797   7.923  11.179  0.3621  0.0156 -1.0936
  698MOL0     C94101   0.674   7.925  11.109 -0.5518 -0.4999  0.3712
  698MOL0     C94102   0.601   7.811  11.101 -0.1567 -0.1101  0.7486
  698MOL0     O94103   0.495   7.816  11.009 -1.4087  0.1977  0.1524
  698MOL0     C94104   0.393   7.907  11.066  0.5664 -0.5103 -0.7708
  698MOL0     C94105   0.250   7.845  11.047 -0.8040  0.0285 -0.2058
  698MOL0     C94106   0.209   7.709  11.117 -0.3900  0.0575  0.5393
  698MOL0     C94107   0.080   7.638  11.052 -0.2547 -0.1599 -0.6877
  698MOL0     C94108   0.122   7.510  10.976 -0.2316 -0.8714 -0.0915
  698MOL0     C94109   0.009   7.470  10.881  0.4645  0.2691  0.8550
  698MOL0     C94110  -0.120   7.411  10.943  0.0685  0.2641  1.2600
  698MOL0     C94111  -0.093   7.271  11.007  0.0783 -0.2558 -0.3508
  698MOL0     N94112  -0.194   7.162  11.024  0.9579 -0.6434 -0.0997
  698MOL0     C94113  -0.333   7.174  10.991 -0.3994 -0.8567 -0.6501
  698MOL0     C94114  -0.392   7.058  11.035  0.7997 -0.5325  0.1294
  698MOL0     C94115  -0.543   7.041  11.037 -0.0772  0.7723 -1.7107
  698MOL0     C94116  -0.573   7.038  11.195  0.4007  0.5399  0.6539
  698MOL0     C94117  -0.726   7.030  11.221 -0.0645 -0.0946  0.3475
  698MOL0     C94118  -0.778   6.897  11.200  0.0813  1.6816 -0.1720
  698MOL0     O94119  -0.713   6.785  11.269 -0.2398 -0.6536  0.5700
  698MOL0     C94120  -0.749   6.775  11.397  0.0075  0.6583  0.2826
  698MOL0     C94121  -0.849   6.844  11.467 -0.7642  0.0427  0.5641
  698MOL0     C94122  -0.907   6.800  11.595  0.4989  0.7924  0.1757
  698MOL0     C94123  -0.824   6.705  11.660  0.7492 -0.2650 -0.9769
  698MOL0     C94124  -0.851   6.672  11.805  0.0312  0.0543  0.7703
  698MOL0     O94125  -0.763   6.588  11.869 -0.0119  1.0631 -0.1129
  698MOL0     C94126  -0.789   6.550  12.000 -0.0274 -0.0884  0.1661
  698MOL0     C94127  -0.915   6.538  12.066  0.7148 -0.3412  0.0809
  698MOL0     C94128  -0.929   6.523  12.208 -1.0855 -0.1753  0.3416
  698MOL0     C94129  -0.813   6.503  12.282  0.3971 -0.0987 -0.8962
  698MOL0     O94130  -0.839   6.481  12.415 -0.3765  0.4132  1.2995
  698MOL0     C94131  -0.753   6.420  12.503 -0.1297  0.2250 -0.2052
  698MOL0     C94132  -0.808   6.436  12.642  0.7342 -0.6423 -0.1147
  698MOL0     C94133  -0.930   6.355  12.669  0.1238 -0.1428  0.7129
  698MOL0     C94134  -1.073   6.404  12.678  0.4823  0.2060  0.3156
  698MOL0     C94135  -1.087   6.491  12.800  0.3079 -0.1031  0.1561
  698MOL0     C94136  -1.228   6.547  12.831 -0.0491  0.5156  0.1109
  698MOL0     C94137  -1.224   6.644  12.953 -0.1192 -0.0334  0.3550
  698MOL0     C94138  -1.241   6.795  12.933 -0.1425  0.2070 -0.0848
  698MOL0    Cl94139  -1.389   6.851  12.854 -0.1694 -0.0128 -0.5407
  698MOL0     C94140  -0.686   6.515  12.217  1.3660 -0.1114  0.1968
  698MOL0     C94141  -0.677   6.539  12.078  0.3993  0.2430  0.1280
  698MOL0     O94142  -0.951   6.726  11.850  0.1713 -1.5577  0.5151
  698MOL0     C94143  -0.704   6.652  11.600  0.0684  0.0281  0.0939
  698MOL0     C94144  -0.675   6.675  11.464  0.1178  0.2057  0.6621
  698MOL0     N94145  -0.289   6.985  11.097 -0.0636 -0.2174 -0.8170
  698MOL0     N94146  -0.177   7.050  11.090 -0.1897  0.7939 -0.7639
  698MOL0     C94147   0.631   7.696  11.167 -0.4651 -1.0802  0.3351
  698MOL0     C94148   0.752   7.687  11.231 -0.2656 -0.6274 -0.5173
  698MOL0     C94149   1.108   7.796  11.489  0.6335  0.6206 -0.3839
  698MOL0     C94150   1.191   7.692  11.454  0.7269 -0.5169  0.7048
  698MOL0     C94151   1.318   7.684  11.513  1.0759  0.6763  0.1505
  698MOL0     C94152   1.358   7.788  11.592  0.2118  0.0647 -0.4764
  698MOL0     O94153   1.483   7.762  11.635  0.3597  0.1917 -0.2029
  698MOL0     C94154   1.544   7.845  11.729 -0.2726 -1.0179  0.0449
  698MOL0     C94155   1.623   7.747  11.812  0.8244 -0.0121  0.0237
  698MOL0     C94156   1.721   7.815  11.911 -0.0382  0.1002 -0.6740
  698MOL0     C94157   1.638   7.868  12.032 -0.3287 -0.4840  0.2643
  698MOL0     C94158   1.731   7.923  12.127  0.3172 -0.5699  0.5560
  698MOL0     C94159   1.819   7.973  12.196  0.0183 -0.9310 -0.0302
  698MOL0     C94160   1.266   7.893  11.631 -0.8761  0.3654 -1.2856
  698MOL0     C94161   1.141   7.898  11.576 -0.0800 -0.1048 -1.0839
  698MOL0     C94162   1.030   7.996  11.633 -0.5794  0.0437 -0.2236
  698MOL0     H94163   0.840   8.022  11.189  1.1778 -0.5302  1.7959
  698MOL0     H94164   0.638   8.021  11.075 -0.3632  0.3773  2.5065
  698MOL0     H94165   0.404   7.932  11.172  0.2546 -3.5893  0.0989
  698MOL0     H94166   0.392   7.998  11.005  3.1928 -0.8387 -1.3977
  698MOL0     H94167   0.245   7.822  10.941 -0.0713 -0.7730 -0.0789
  698MOL0     H94168   0.185   7.929  11.074  0.2534  2.0422 -3.3529
  698MOL0     H94169   0.205   7.733  11.224 -2.6481  0.5263  0.4160
  698MOL0     H94170   0.284   7.630  11.110 -0.1686  0.3642 -0.9959
  698MOL0     H94171   0.016   7.616  11.137  1.5857  1.8626  1.3550
  698MOL0     H94172   0.023   7.706  10.987  1.0560  0.9113 -0.7775
  698MOL0     H94173   0.205   7.538  10.910 -0.5820  1.3668  0.3234
  698MOL0     H94174   0.151   7.424  11.037  0.5864 -3.0413 -3.2656
  698MOL0     H94175  -0.019   7.562  10.830  1.7675  0.4385  0.3951
  698MOL0     H94176   0.061   7.406  10.809 -0.8559  0.0287  0.0897
  698MOL0     H94177  -0.201   7.399  10.870  0.3031  2.3938  0.5829
  698MOL0     H94178  -0.160   7.475  11.022  0.8463 -0.3877  2.1928
  698MOL0     H94179  -0.012   7.225  10.948 -0.9015 -0.6394 -1.4294
  698MOL0     H94180  -0.053   7.296  11.106  1.0987 -0.6413 -0.6469
  698MOL0     H94181  -0.383   7.264  10.957  0.9696 -0.0718 -0.6239
  698MOL0     H94182  -0.598   7.126  10.996 -3.1490  1.9084  3.7598
  698MOL0     H94183  -0.570   6.940  11.004  1.1786 -0.2386  0.1875
  698MOL0     H94184  -0.522   6.959  11.251 -0.7811 -0.5482  0.2290
  698MOL0     H94185  -0.548   7.133  11.243  0.5986  0.4601  0.7123
  698MOL0     H94186  -0.782   7.090  11.149 -1.8452  1.0036  2.5020
  698MOL0     H94187  -0.743   7.049  11.327 -0.9179  0.5837  0.0956
  698MOL0     H94188  -0.762   6.885  11.092 -0.8025  1.2341 -0.2604
  698MOL0     H94189  -0.887   6.891  11.192  0.0527  2.8188 -0.8409
  698MOL0     H94190  -0.906   6.916  11.409 -0.4765 -0.5061 -0.4056
  698MOL0     H94191  -0.998   6.842  11.639 -1.0056 -1.3398 -0.7282
  698MOL0     H94192  -1.010   6.531  12.015 -0.5406 -1.3177  2.3715
  698MOL0     H94193  -1.025   6.520  12.258  0.5482  2.6801  4.1995
  698MOL0     H94194  -0.742   6.313  12.486 -1.6695 -0.0346  0.3263
  698MOL0     H94195  -0.649   6.454  12.494  1.4440 -4.5831 -5.9650
  698MOL0     H94196  -0.725   6.420  12.711  1.8460  0.0894 -1.2308
  698MOL0     H94197  -0.840   6.540  12.646  0.7767 -0.4189 -3.1062
  698MOL0     H94198  -0.935   6.274  12.595 -3.2025 -0.4196  1.0638
  698MOL0     H94199  -0.910   6.294  12.758 -2.4236 -0.6046  1.0668
  698MOL0     H94200  -1.144   6.324  12.699 -0.8400  1.5889  1.3134
  698MOL0     H94201  -1.099   6.439  12.577  2.8547 -1.1143 -0.8309
  698MOL0     H94202  -1.016   6.572  12.781  0.3236  0.3444  1.9120
  698MOL0     H94203  -1.068   6.431  12.890  0.0496 -0.8291 -0.2691
  698MOL0     H94204  -1.252   6.597  12.736  1.6163  1.0175 -0.0713
  698MOL0     H94205  -1.293   6.460  12.847  0.7525 -0.9425 -3.4773
  698MOL0     H94206  -1.130   6.639  13.009 -2.3082 -2.6592  4.1820
  698MOL0     H94207  -1.308   6.618  13.018 -2.5054  1.3768 -1.9362
  698MOL0     H94208  -1.233   6.845  13.030 -1.1705 -0.8551  0.5766
  698MOL0     H94209  -1.154   6.835  12.880 -0.0910  2.6807  1.7214
  698MOL0     H94210  -0.603   6.495  12.285  1.1097  1.5362  1.0464
  698MOL0     H94211  -0.578   6.537  12.035  1.0229 -1.2392  1.5479
  698MOL0     H94212  -0.650   6.574  11.652 -0.6874  1.2829  2.9779
  698MOL0     H94213  -0.585   6.629  11.425  1.7063  3.9645 -0.6040
  698MOL0     H94214   0.562   7.613  11.177  2.0591 -3.2268  1.3279
  698MOL0     H94215   0.777   7.594  11.281  1.4574  0.0937  0.0531
  698MOL0     H94216   1.153   7.608  11.396 -0.0990 -0.5530  1.2874
  698MOL0     H94217   1.375   7.601  11.472  0.1922  0.5198 -0.8081
  698MOL0     H94218   1.467   7.894  11.789 -0.6628 -0.5911 -0.7834
  698MOL0     H94219   1.616   7.914  11.684  0.2541 -0.1005  2.1504
  698MOL0     H94220   1.681   7.682  11.747  1.5462 -1.1253  1.7304
  698MOL0     H94221   1.547   7.685  11.860 -0.7386  1.1389 -0.8349
  698MOL0     H94222   1.780   7.895  11.866  1.1704 -0.6110 -0.3995
  698MOL0     H94223   1.782   7.730  11.944 -0.2243 -2.5832 -6.2316
  698MOL0     H94224   1.557   7.940  12.022  0.3171  0.3766  1.0151
  698MOL0     H94225   1.593   7.777  12.074 -3.3523  0.5748 -0.4670
  698MOL0     H94226   1.901   8.000  12.259 -0.3301  0.9635 -0.3082
  698MOL0     H94227   1.284   7.966  11.709  2.9016 -0.1489 -1.4622
  698MOL0     H94228   1.074   8.070  11.701 -3.4880  0.0549  1.8729
  698MOL0     H94229   0.995   8.057  11.548  0.3063  0.5947 -0.1981
  698MOL0     H94230   0.944   7.939  11.670 -1.3805  0.6296 -1.1226
  699MOL0     O94231   6.844   1.091   9.984 -0.5108  0.3743 -0.2226
  699MOL0     C94232   6.734   1.137  10.016 -0.2201  0.8182  1.0496
  699MOL0     O94233   6.683   1.117  10.146 -0.6306  0.1077  0.3554
  699MOL0     C94234   6.761   1.069  10.253 -0.3591  1.6404 -0.0771
  699MOL0     C94235   6.717   1.114  10.388  0.5203  0.3505  0.9748
  699MOL0     C94236   6.799   1.092  10.502 -0.1425  0.6411 -1.1770
  699MOL0     C94237   6.919   1.019  10.481 -0.3231  0.1544 -0.4862
  699MOL0     O94238   7.018   1.018  10.578  0.4598 -0.0735  0.3427
  699MOL0     C94239   7.100   1.132  10.583  1.2530 -0.2969 -0.0283
  699MOL0     C94240   7.224   1.102  10.659 -0.5357  0.2516  0.7607
  699MOL0     C94241   7.325   1.012  10.569  0.1115 -0.6654  0.4632
  699MOL0     C94242   7.287   0.860  10.589  0.8627 -0.3072 -0.2328
  699MOL0     C94243   7.382   0.760  10.531  0.1666 -0.6323 -0.5276
  699MOL0     C94244   7.520   0.760  10.614  0.9342  0.3335  0.4435
  699MOL0     C94245   7.620   0.715  10.520  0.4715 -0.0290  0.1293
  699MOL0     C94246   7.615   0.553  10.488 -0.2237 -0.1062  0.6248
  699MOL0     N94247   7.746   0.493  10.436  0.0538 -0.2062 -0.4917
  699MOL0     C94248   7.818   0.557  10.336 -0.1874  0.0080  0.3701
  699MOL0     C94249   7.903   0.458  10.306 -0.5808 -0.2281 -0.0127
  699MOL0     C94250   8.014   0.470  10.194 -0.9028  0.9692  0.3754
  699MOL0     C94251   8.134   0.530  10.257  0.4994 -0.0004  0.8585
  699MOL0     C94252   8.261   0.530  10.181 -0.7221  0.3891 -0.7716
  699MOL0     C94253   8.241   0.600  10.050 -0.6796 -0.1082  0.9960
  699MOL0     O94254   8.198   0.729  10.077  0.5964  0.6932  0.3408
  699MOL0     C94255   8.096   0.790  10.007  0.0920  0.0310 -0.2528
  699MOL0     C94256   8.025   0.906  10.043 -0.0284 -0.1556  0.4702
  699MOL0     C94257   7.919   0.952   9.967  0.4107 -0.8636  0.4955
  699MOL0     C94258   7.874   0.900   9.845  0.6800  0.7049 -0.4631
  699MOL0     C94259   7.761   0.958   9.771  0.1731 -1.0558  1.1046
  699MOL0     O94260   7.677   1.056   9.831 -0.5889 -0.4743 -0.5674
  699MOL0     C94261   7.565   1.100   9.771 -0.6107  0.4231 -0.0328
  699MOL0     C94262   7.520   1.232   9.791 -0.2130 -0.2322  0.5557
  699MOL0     C94263   7.403   1.277   9.731  0.1315  0.3263  0.3312
  699MOL0     C94264   7.323   1.195   9.643 -0.5147 -0.9234 -0.0678
  699MOL0     O94265   7.204   1.241   9.583 -0.3595  0.8797  0.3154
  699MOL0     C94266   7.167   1.381   9.582  0.5488  0.8565 -0.2663
  699MOL0     C94267   7.056   1.408   9.478  0.5308 -0.0537 -0.6492
  699MOL0     C94268   6.924   1.334   9.507 -0.4806 -0.2534  0.4113
  699MOL0     C94269   6.819   1.356   9.400 -0.9943  0.1027 -0.5607
  699MOL0     C94270   6.672   1.366   9.441 -0.2040  0.9154 -0.4891
  699MOL0     C94271   6.581   1.420   9.336  0.0982  0.0248  0.2203
  699MOL0     C94272   6.566   1.327   9.224  0.5825 -0.2914  0.4638
  699MOL0     C94273   6.449   1.372   9.143 -0.4033  0.5460  0.4728
  699MOL0    Cl94274   6.300   1.361   9.234  0.1555 -0.3375 -0.5554
  699MOL0     C94275   7.369   1.062   9.630 -0.2172 -0.6924 -0.1247
  699MOL0     C94276   7.488   1.011   9.689 -0.3079 -0.0597 -0.4382
  699MOL0     O94277   7.771   0.942   9.651  0.3328 -0.3218  0.1553
  699MOL0     C94278   7.945   0.791   9.804 -0.2879 -0.0023 -0.0095
  699MOL0     C94279   8.046   0.731   9.884  0.0336 -0.0904  0.9938
  699MOL0     N94280   7.897   0.347  10.385  0.4099 -0.1293 -0.5726
  699MOL0     N94281   7.796   0.372  10.467 -0.0278  0.5145  1.4826
  699MOL0     C94282   6.949   0.955  10.357 -0.4053 -0.6017 -1.0106
  699MOL0     C94283   6.874   0.994  10.251 -0.4336 -0.8072 -0.7232
  699MOL0     C94284   6.645   1.207   9.933 -0.1724 -1.2599  0.8124
  699MOL0     C94285   6.585   1.339   9.966  0.1411  0.2956 -0.7780
  699MOL0     C94286   6.490   1.408   9.890  0.1342  0.2470  0.1627
  699MOL0     C94287   6.455   1.364   9.766 -0.4281 -0.0323  0.9571
  699MOL0     O94288   6.359   1.424   9.686  1.2733 -0.1611 -0.4507
  699MOL0     C94289   6.275   1.523   9.748 -0.1516 -0.1585  0.2273
  699MOL0     C94290   6.139   1.541   9.670  0.5083 -0.2690 -0.4075
  699MOL0     C94291   6.167   1.609   9.536 -0.2975  0.1728  1.0107
  699MOL0     C94292   6.032   1.631   9.471  0.1841  0.3758 -0.2818
  699MOL0     C94293   5.979   1.517   9.410 -0.7829  0.8634 -0.3816
  699MOL0     C94294   5.932   1.409   9.375  1.0909 -0.6765 -0.1048
  699MOL0     C94295   6.500   1.234   9.731  0.3728 -0.2019  0.0272
  699MOL0     C94296   6.596   1.160   9.806  0.3664 -0.4472  0.7287
  699MOL0     C94297   6.660   1.033   9.747 -0.1902  0.2431  0.5923
  699MOL0     H94298   6.620   1.162  10.395 -0.6334 -1.6785  0.0332
  699MOL0     H94299   6.772   1.147  10.591 -0.4696  2.1677 -2.1775
  699MOL0     H94300   7.130   1.152  10.480 -0.3518 -0.6782 -0.6095
  699MOL0     H94301   7.042   1.209  10.634  2.7405  0.8984 -0.0794
  699MOL0     H94302   7.195   1.049  10.750  0.8565 -2.7336 -0.3961
  699MOL0     H94303   7.283   1.193  10.677  3.7231 -2.1000  0.0579
  699MOL0     H94304   7.430   1.035  10.589  0.3054 -1.7711  0.7899
  699MOL0     H94305   7.309   1.042  10.465 -2.0271  3.8375  1.8527
  699MOL0     H94306   7.281   0.845  10.697 -4.1532  3.8616  0.4420
  699MOL0     H94307   7.189   0.843  10.545  0.5617 -0.4065  0.4556
  699MOL0     H94308   7.330   0.665  10.545  1.1529 -0.9848  0.9138
  699MOL0     H94309   7.397   0.778  10.424 -1.4118  0.7556 -0.5578
  699MOL0     H94310   7.543   0.854  10.665 -0.6993  1.0816 -0.1437
  699MOL0     H94311   7.484   0.687  10.687 -4.2697  2.7566  0.7536
  699MOL0     H94312   7.722   0.730  10.554  1.4207  1.4187 -2.9180
  699MOL0     H94313   7.611   0.773  10.427  0.8728 -1.3266 -0.7574
  699MOL0     H94314   7.581   0.505  10.580 -1.9512 -0.7347 -0.3135
  699MOL0     H94315   7.529   0.550  10.422  1.4306  3.5418 -2.0669
  699MOL0     H94316   7.801   0.655  10.294 -3.4514 -0.2882  0.7513
  699MOL0     H94317   8.043   0.380  10.139 -1.6501  1.4011 -0.7747
  699MOL0     H94318   7.966   0.533  10.118 -2.0420 -1.4203 -1.0274
  699MOL0     H94319   8.114   0.635  10.283  1.5594  0.5625 -0.4620
  699MOL0     H94320   8.156   0.482  10.353  0.3029 -1.7586  0.0623
  699MOL0     H94321   8.303   0.429  10.179  0.4188  0.7770  1.1640
  699MOL0     H94322   8.339   0.583  10.235 -0.7516 -1.4356  1.1704
  699MOL0     H94323   8.160   0.547  10.000 -1.5226  2.2985 -0.2993
  699MOL0     H94324   8.329   0.596   9.985  0.1139 -1.3510  2.0806
  699MOL0     H94325   8.059   0.957  10.132 -0.2894  0.5061  0.1949
  699MOL0     H94326   7.865   1.040  10.002 -0.2965 -0.7825 -0.7487
  699MOL0     H94327   7.576   1.296   9.859  0.7125 -0.9351  0.4887
  699MOL0     H94328   7.372   1.375   9.765  0.6970 -0.2678  2.8055
  699MOL0     H94329   7.130   1.407   9.682 -1.2127  0.2176 -0.7237
  699MOL0     H94330   7.249   1.448   9.553 -1.5625  2.7868 -2.2364
  699MOL0     H94331   7.040   1.513   9.451 -1.5705 -0.6463 -1.9717
  699MOL0     H94332   7.110   1.369   9.391  1.9362  4.7292 -2.2591
  699MOL0     H94333   6.934   1.226   9.519  0.8155 -0.2464 -0.4329
  699MOL0     H94334   6.886   1.391   9.593 -0.8955  1.5188 -0.8917
  699MOL0     H94335   6.843   1.296   9.311 -0.1711 -0.7758  0.2292
  699MOL0     H94336   6.828   1.461   9.373 -3.0081  0.6049  0.5520
  699MOL0     H94337   6.657   1.422   9.533 -2.8471 -2.1243  1.1540
  699MOL0     H94338   6.640   1.266   9.473 -1.2467  2.1425  2.7451
  699MOL0     H94339   6.492   1.447   9.393  0.2804  0.0659  0.4855
  699MOL0     H94340   6.637   1.503   9.291  1.5278 -0.5586  0.8391
  699MOL0     H94341   6.549   1.224   9.257  2.5209 -0.5512  0.7283
  699MOL0     H94342   6.652   1.333   9.157 -1.9513  0.2567 -3.0715
  699MOL0     H94343   6.472   1.472   9.104 -0.4759  0.4584  0.2069
  699MOL0     H94344   6.448   1.307   9.055 -0.9929  1.4109 -0.1688
  699MOL0     H94345   7.310   0.988   9.576  0.5718  0.4234 -2.6466
  699MOL0     H94346   7.519   0.907   9.678  1.0447  0.3169 -0.4332
  699MOL0     H94347   7.927   0.749   9.706 -2.6519 -2.8265  1.4898
  699MOL0     H94348   8.115   0.657   9.845  0.4756  0.8269 -0.0321
  699MOL0     H94349   7.043   0.905  10.337  0.1705  0.6345 -1.5192
  699MOL0     H94350   6.921   0.954  10.162 -4.1198  0.4213 -3.4547
  699MOL0     H94351   6.602   1.388  10.061  0.5988  1.9057 -1.6566
  699MOL0     H94352   6.448   1.497   9.935 -3.3610  0.3556 -2.9212
  699MOL0     H94353   6.327   1.619   9.754 -0.0036  0.1145 -3.4618
  699MOL0     H94354   6.248   1.489   9.849  1.1167  1.2413  1.0749
  699MOL0     H94355   6.080   1.612   9.728  0.0113  0.9560 -2.3205
  699MOL0     H94356   6.086   1.447   9.651  0.8375 -0.9988  1.9860
  699MOL0     H94357   6.221   1.539   9.472  0.2063  0.8044  0.7330
  699MOL0     H94358   6.219   1.704   9.549  1.1495  0.2260 -3.5385
  699MOL0     H94359   5.964   1.654   9.553  2.2485  0.8022  1.3761
  699MOL0     H94360   6.031   1.712   9.398 -3.5339  0.8463  0.1181
  699MOL0     H94361   5.885   1.325   9.328  0.2485 -0.3016  0.0484
  699MOL0     H94362   6.466   1.178   9.645  1.6885 -1.4793  0.2870
  699MOL0     H94363   6.592   0.981   9.678  1.2841  2.0732 -2.4268
  699MOL0     H94364   6.738   1.076   9.685  1.8766  2.2254  4.2218
  699MOL0     H94365   6.706   0.969   9.823 -2.7532  0.8249  2.8024
  700MOL0     O94366   2.499   1.473   4.630 -0.4652 -0.4962  0.7468
  700MOL0     C94367   2.392   1.474   4.581  0.3177  0.4507 -0.4551
  700MOL0     O94368   2.332   1.585   4.533 -0.3891  1.2602  0.1448
  700MOL0     C94369   2.381   1.713   4.561 -0.4428 -0.1650 -0.4544
  700MOL0     C94370   2.466   1.758   4.669 -0.4167 -0.5134 -0.2611
  700MOL0     C94371   2.490   1.901   4.678 -0.0303 -0.0621  0.3267
  700MOL0     C94372   2.432   1.985   4.585  0.5354  0.6080  1.3412
  700MOL0     O94373   2.464   2.123   4.596  0.6887 -0.0787  0.2109
  700MOL0     C94374   2.375   2.214   4.512 -0.5185  0.4060 -0.0189
  700MOL0     C94375   2.413   2.360   4.519 -0.2671  0.3855  0.6765
  700MOL0     C94376   2.350   2.434   4.404  1.4914 -0.5196  0.5417
  700MOL0     C94377   2.198   2.416   4.391  0.4110  0.4530 -0.0561
  700MOL0     C94378   2.134   2.498   4.278 -0.4344 -0.3668  0.2492
  700MOL0     C94379   1.981   2.518   4.292 -0.1878  0.2086 -0.1779
  700MOL0     C94380   1.920   2.596   4.172 -0.3306 -0.2639  0.4285
  700MOL0     C94381   1.767   2.594   4.201  0.3685  0.7689  0.3937
  700MOL0     N94382   1.712   2.679   4.094 -0.1334  0.3584  0.3653
  700MOL0     C94383   1.712   2.821   4.101  0.3231 -0.0415 -0.9701
  700MOL0     C94384   1.609   2.858   4.013  0.3908  0.6502 -0.2301
  700MOL0     C94385   1.573   3.002   3.978 -0.1314  0.7457 -0.1149
  700MOL0     C94386   1.537   3.008   3.821  0.5202 -0.1987 -0.1325
  700MOL0     C94387   1.527   3.153   3.779 -1.0757  0.3131 -0.9112
  700MOL0     C94388   1.438   3.182   3.660  0.2969  0.3582  0.6320
  700MOL0     O94389   1.508   3.156   3.533  0.0757  0.0306  0.0570
  700MOL0     C94390   1.573   3.263   3.469  0.2072 -1.2597 -0.4522
  700MOL0     C94391   1.606   3.388   3.528 -0.0370 -0.6578 -0.2863
  700MOL0     C94392   1.678   3.484   3.455  0.0026  0.1071 -0.0860
  700MOL0     C94393   1.716   3.452   3.322  0.4715 -0.5930  0.2388
  700MOL0     C94394   1.797   3.548   3.250 -0.9815 -0.1678  0.2529
  700MOL0     O94395   1.802   3.532   3.112  0.3636  0.5798  0.2689
  700MOL0     C94396   1.876   3.619   3.033  0.3118 -0.3022 -0.3055
  700MOL0     C94397   1.992   3.686   3.065  0.9460 -0.1026 -0.2087
  700MOL0     C94398   2.075   3.756   2.979  0.1028 -0.1700  0.4996
  700MOL0     C94399   2.028   3.762   2.846 -0.3061 -0.6349 -1.3803
  700MOL0     O94400   2.092   3.828   2.748 -0.0810 -0.2184  0.0016
  700MOL0     C94401   2.217   3.887   2.789 -1.3301 -0.4872 -1.0561
  700MOL0     C94402   2.275   3.984   2.677 -0.7869 -0.3916  0.8824
  700MOL0     C94403   2.169   4.086   2.648 -0.8558 -1.3497 -0.6799
  700MOL0     C94404   2.216   4.210   2.573 -0.0710  0.4240  0.3124
  700MOL0     C94405   2.109   4.314   2.529 -0.2094  0.5614 -0.0820
  700MOL0     C94406   2.164   4.434   2.446  1.3306 -0.3028 -0.2583
  700MOL0     C94407   2.190   4.380   2.304  1.2336 -1.1218  0.4051
  700MOL0     C94408   2.073   4.405   2.199  0.7203  0.0386 -0.1612
  700MOL0    Cl94409   2.009   4.572   2.191 -0.0220  0.0006  0.6680
  700MOL0     C94410   1.918   3.690   2.802 -0.2542  0.1915 -0.1271
  700MOL0     C94411   1.838   3.626   2.897 -0.2708  0.0423  0.4763
  700MOL0     O94412   1.839   3.645   3.306 -0.1189 -0.5361 -0.0196
  700MOL0     C94413   1.677   3.332   3.262  0.8177 -0.2546  0.3000
  700MOL0     C94414   1.608   3.239   3.339 -0.2407  0.3106  0.8740
  700MOL0     N94415   1.565   2.742   3.950 -1.1434  0.8195  0.1066
  700MOL0     N94416   1.635   2.640   3.994  0.6230 -0.3674 -0.1308
  700MOL0     C94417   2.335   1.946   4.491  0.4349 -0.1992  0.5264
  700MOL0     C94418   2.315   1.806   4.485  0.1030 -0.7831  1.4159
  700MOL0     C94419   2.324   1.339   4.565  0.1526 -0.3809 -0.6959
  700MOL0     C94420   2.217   1.327   4.478  0.6983  0.1985 -0.3938
  700MOL0     C94421   2.150   1.204   4.464 -1.6499  0.5227  0.5197
  700MOL0     C94422   2.206   1.088   4.525  0.6158 -0.0581  0.0128
  700MOL0     O94423   2.183   0.956   4.497 -0.5911 -0.2471  0.3967
  700MOL0     C94424   2.089   0.925   4.392 -0.2267  0.5848  0.2446
  700MOL0     C94425   2.101   0.774   4.357 -0.6098  0.0429 -0.2690
  700MOL0     C94426   2.000   0.736   4.247 -1.0306 -0.7299  0.0382
  700MOL0     C94427   1.861   0.790   4.269 -0.1440 -0.4584 -0.7870
  700MOL0     C94428   1.772   0.718   4.173 -0.3275  0.6434 -0.1233
  700MOL0     C94429   1.691   0.658   4.102 -0.1517 -0.0188 -0.0540
  700MOL0     C94430   2.302   1.110   4.628  0.0686 -0.0415  1.0757
  700MOL0     C94431   2.365   1.225   4.643  1.0523 -0.6209 -0.5843
  700MOL0     C94432   2.483   1.212   4.749  0.8070 -0.2010  0.3727
  700MOL0     H94433   2.527   1.684   4.721  3.2336  3.2446  1.3663
  700MOL0     H94434   2.563   1.943   4.746 -0.8679  0.4820  0.9132
  700MOL0     H94435   2.385   2.191   4.406  0.3389  0.2436  0.0913
  700MOL0     H94436   2.276   2.200   4.556  0.1335 -0.3323  1.2961
  700MOL0     H94437   2.522   2.371   4.519 -0.0173 -1.0807 -2.4110
  700MOL0     H94438   2.371   2.383   4.617 -0.0125  0.0938  0.8553
  700MOL0     H94439   2.393   2.401   4.309 -1.9466 -1.5152 -0.8423
  700MOL0     H94440   2.366   2.542   4.414  1.7593 -0.1136 -2.9123
  700MOL0     H94441   2.165   2.313   4.379  1.9719  0.0673 -1.4257
  700MOL0     H94442   2.147   2.449   4.483 -0.3945 -2.8448  0.8147
  700MOL0     H94443   2.186   2.592   4.297  2.8090 -2.1198  0.7489
  700MOL0     H94444   2.170   2.454   4.184  0.7852 -0.4450  0.7362
  700MOL0     H94445   1.932   2.420   4.298  1.4755 -0.8633 -2.6916
  700MOL0     H94446   1.957   2.565   4.388  1.8445 -1.0052  0.9905
  700MOL0     H94447   1.944   2.556   4.073 -2.6813  3.8242 -2.1205
  700MOL0     H94448   1.952   2.700   4.161 -2.7290  0.2893 -3.8002
  700MOL0     H94449   1.722   2.495   4.212 -1.3451  1.7379  3.1857
  700MOL0     H94450   1.742   2.651   4.291  0.2925  4.4502 -1.7519
  700MOL0     H94451   1.772   2.899   4.145 -0.1882 -0.9128  1.3967
  700MOL0     H94452   1.490   3.038   4.040  0.0310  1.0773 -0.0891
  700MOL0     H94453   1.654   3.068   4.009 -0.8788  0.4086  2.8887
  700MOL0     H94454   1.614   2.961   3.760  1.8244  1.2309  0.3473
  700MOL0     H94455   1.441   2.957   3.807  1.8500 -3.1339  0.8222
  700MOL0     H94456   1.631   3.185   3.771 -0.6029 -0.4013  1.6143
  700MOL0     H94457   1.484   3.209   3.863  0.4500 -1.4458  1.1479
  700MOL0     H94458   1.401   3.285   3.661  2.9489  1.5119 -2.1734
  700MOL0     H94459   1.353   3.114   3.657  1.5193 -1.2361  0.4245
  700MOL0     H94460   1.586   3.406   3.633 -0.0726 -3.1155  0.1761
  700MOL0     H94461   1.694   3.583   3.498 -0.0838  0.5451 -1.0376
  700MOL0     H94462   2.036   3.655   3.159  6.6770  3.2330 -1.3268
  700MOL0     H94463   2.168   3.790   3.023 -0.1919  2.2107 -0.5128
  700MOL0     H94464   2.203   3.940   2.883 -0.4571  0.5009 -1.4615
  700MOL0     H94465   2.292   3.812   2.817 -0.5137  0.7234  0.0901
  700MOL0     H94466   2.367   4.037   2.705 -0.8731  2.3282 -3.1454
  700MOL0     H94467   2.289   3.924   2.586  0.6847 -1.3837  1.7170
  700MOL0     H94468   2.084   4.046   2.593 -1.1824 -0.1263 -1.1084
  700MOL0     H94469   2.134   4.108   2.749  0.1149 -1.3162 -0.3374
  700MOL0     H94470   2.275   4.185   2.485  3.3237  2.9553  1.6068
  700MOL0     H94471   2.288   4.256   2.642 -1.5757  0.8397  1.6832
  700MOL0     H94472   2.053   4.341   2.619 -3.2658 -2.1934 -0.9810
  700MOL0     H94473   2.027   4.259   2.484 -1.2719 -0.4062  2.8193
  700MOL0     H94474   2.083   4.507   2.445 -0.2614 -1.9180  1.8662
  700MOL0     H94475   2.252   4.481   2.490 -1.0063  3.4500  0.8736
  700MOL0     H94476   2.227   4.278   2.296 -0.7094 -1.7751 -0.9915
  700MOL0     H94477   2.277   4.444   2.283 -0.8648  1.3690 -1.4319
  700MOL0     H94478   2.125   4.383   2.106 -1.6110 -1.0974 -1.3010
  700MOL0     H94479   1.988   4.338   2.218 -0.3063  0.9971 -1.2071
  700MOL0     H94480   1.904   3.691   2.695  4.1608  1.5092 -0.9133
  700MOL0     H94481   1.745   3.583   2.863  0.2833  0.3759 -1.5620
  700MOL0     H94482   1.683   3.315   3.155  2.3509  1.2071  0.1176
  700MOL0     H94483   1.595   3.145   3.286  2.5269  1.2483 -1.7616
  700MOL0     H94484   2.283   2.011   4.422  0.2125  0.0080  0.8890
  700MOL0     H94485   2.236   1.773   4.420 -1.0303  0.7971  1.9327
  700MOL0     H94486   2.175   1.413   4.426 -0.8570  0.2839  0.9358
  700MOL0     H94487   2.069   1.188   4.395 -2.8714 -3.1865  2.5559
  700MOL0     H94488   2.098   0.991   4.306 -2.1600  1.3283  0.5741
  700MOL0     H94489   1.992   0.942   4.439 -1.2947 -1.2652 -1.1377
  700MOL0     H94490   2.095   0.704   4.440 -0.8028 -2.0773 -1.9954
  700MOL0     H94491   2.202   0.749   4.324 -0.1586 -1.0736  1.7946
  700MOL0     H94492   1.994   0.627   4.250  1.0799 -0.8633  0.4644
  700MOL0     H94493   2.036   0.776   4.152 -2.3502  0.3363 -0.0497
  700MOL0     H94494   1.823   0.773   4.370  0.5519 -2.9924 -0.8853
  700MOL0     H94495   1.852   0.898   4.250  1.0477 -0.5853 -2.3005
  700MOL0     H94496   1.632   0.607   4.028 -2.0292 -0.7237  1.8317
  700MOL0     H94497   2.338   1.017   4.673  1.2988  0.0569  0.3399
  700MOL0     H94498   2.449   1.138   4.822 -3.0087  1.3656  0.3720
  700MOL0     H94499   2.574   1.164   4.712  1.3920  0.5507  0.8016
  700MOL0     H94500   2.498   1.304   4.805 -4.1888  2.7429 -2.4041
  701MOL0     O94501   6.205   5.614   0.043 -0.3174 -0.1371  0.0559
  701MOL0     C94502   6.252   5.582   0.153  0.6625 -0.4345 -0.4565
  701MOL0     O94503   6.183   5.515   0.249 -0.2353  1.3845  0.5984
  701MOL0     C94504   6.047   5.485   0.251  0.3077  0.4636  0.3194
  701MOL0     C94505   6.004   5.348   0.287 -0.3635 -0.0739 -0.3077
  701MOL0     C94506   5.862   5.318   0.281 -0.8748 -0.5844  0.5273
  701MOL0     C94507   5.768   5.413   0.237  0.7802 -0.7500  0.0922
  701MOL0     O94508   5.632   5.386   0.239  0.6457 -0.4225  0.7556
  701MOL0     C94509   5.580   5.257   0.207 -0.1481 -0.0528 -0.3097
  701MOL0     C94510   5.565   5.226   0.051  1.0412 -1.2522  0.2844
  701MOL0     C94511   5.508   5.359  -0.023 -0.2274 -0.4002 -1.3710
  701MOL0     C94512   5.443   5.308  -0.156  0.1234 -0.1432  0.3050
  701MOL0     C94513   5.408   5.435  -0.246  0.2899 -0.4924  0.0784
  701MOL0     C94514   5.309   5.538  -0.188 -1.0304  0.2837 -0.4410
  701MOL0     C94515   5.280   5.643  -0.300 -0.9472  0.8011 -0.0277
  701MOL0     C94516   5.124   5.674  -0.325 -0.2825 -0.3074  0.5800
  701MOL0     N94517   5.055   5.583  -0.420 -0.6828  0.3299  0.6802
  701MOL0     C94518   5.074   5.443  -0.423  0.1114 -0.3980  0.9367
  701MOL0     C94519   4.994   5.397  -0.526 -0.1238 -0.2631 -1.4140
  701MOL0     C94520   4.987   5.274  -0.598 -0.6830 -0.5250  1.0576
  701MOL0     C94521   5.103   5.262  -0.701 -0.2815 -0.1307 -0.0482
  701MOL0     C94522   5.081   5.147  -0.800  0.0131  0.3216  0.3542
  701MOL0     C94523   5.140   5.159  -0.944  0.8081 -0.0042 -0.3113
  701MOL0     O94524   5.074   5.268  -1.005  0.6361 -0.3974 -1.1969
  701MOL0     C94525   5.135   5.317  -1.121  0.5103  0.5619  1.8427
  701MOL0     C94526   5.068   5.420  -1.190 -0.6540 -0.1415 -0.5489
  701MOL0     C94527   5.101   5.457  -1.325 -0.7674  0.6785 -0.0167
  701MOL0     C94528   5.218   5.413  -1.380 -0.4246  0.1118 -0.5524
  701MOL0     C94529   5.270   5.464  -1.514 -0.2570 -1.3199  0.1513
  701MOL0     O94530   5.195   5.558  -1.577  0.3063 -0.0399  0.7779
  701MOL0     C94531   5.244   5.620  -1.695 -0.8027 -0.3310 -0.4227
  701MOL0     C94532   5.311   5.563  -1.804  0.3581  0.1519  0.2852
  701MOL0     C94533   5.369   5.648  -1.910 -0.3048 -1.2954  0.5175
  701MOL0     C94534   5.316   5.783  -1.919 -0.1930  0.1252  0.8074
  701MOL0     O94535   5.386   5.877  -1.996 -0.2240  0.0390 -0.2577
  701MOL0     C94536   5.447   5.837  -2.115  0.3054  0.5743  0.5224
  701MOL0     C94537   5.441   5.957  -2.210  0.8260  0.6144 -0.1654
  701MOL0     C94538   5.294   5.991  -2.247 -0.0011 -0.0552 -0.0176
  701MOL0     C94539   5.281   6.102  -2.361  0.0920 -0.3888 -0.5182
  701MOL0     C94540   5.142   6.112  -2.426 -0.5582  0.5917 -0.3673
  701MOL0     C94541   5.143   6.209  -2.547 -0.2887  0.7690  0.4306
  701MOL0     C94542   5.001   6.208  -2.603 -0.9609  0.3324 -1.2763
  701MOL0     C94543   4.976   6.334  -2.670  0.8063  0.2248 -0.4448
  701MOL0    Cl94544   4.853   6.309  -2.804 -0.4396 -0.0746 -0.2105
  701MOL0     C94545   5.235   5.837  -1.824 -0.6591  0.5791 -0.5655
  701MOL0     C94546   5.198   5.758  -1.712  0.6428  0.2361  0.7851
  701MOL0     O94547   5.373   5.417  -1.557 -0.2324 -0.4184 -0.2387
  701MOL0     C94548   5.292   5.317  -1.315  0.0471 -0.0030  0.3408
  701MOL0     C94549   5.246   5.266  -1.192 -0.6499 -0.0587 -0.9228
  701MOL0     N94550   4.935   5.513  -0.575  0.0273  0.2348  0.4834
  701MOL0     N94551   4.964   5.622  -0.517 -0.1506 -0.0129 -0.2766
  701MOL0     C94552   5.815   5.544   0.200 -1.4617  0.1867 -0.6217
  701MOL0     C94553   5.951   5.577   0.193  0.2286 -0.8286 -0.8902
  701MOL0     C94554   6.390   5.607   0.188  0.7233 -0.6525 -0.0923
  701MOL0     C94555   6.475   5.513   0.252  0.5284  0.2037 -0.7235
  701MOL0     C94556   6.610   5.543   0.288  0.1751  0.6336  0.0866
  701MOL0     C94557   6.651   5.673   0.275  0.8528 -0.8682 -0.5538
  701MOL0     O94558   6.776   5.721   0.317  0.1052 -1.2116 -0.5118
  701MOL0     C94559   6.864   5.630   0.372  0.0195  0.4197 -0.2376
  701MOL0     C94560   7.005   5.665   0.355 -0.0339  1.0914  0.6481
  701MOL0     C94561   7.080   5.702   0.480 -0.3577 -0.1260 -0.2780
  701MOL0     C94562   7.230   5.685   0.462  0.2391 -0.6129 -0.1451
  701MOL0     C94563   7.280   5.778   0.365  0.5233  0.2193  1.5596
  701MOL0     C94564   7.304   5.846   0.260  0.0794 -0.2834 -1.1122
  701MOL0     C94565   6.571   5.773   0.224  0.3257  0.0637  0.5908
  701MOL0     C94566   6.441   5.742   0.181 -0.5630  1.1894  0.4163
  701MOL0     C94567   6.350   5.856   0.136 -0.7588  0.0002  0.4057
  701MOL0     H94568   6.072   5.272   0.325 -3.3125 -2.4089  0.7296
  701MOL0     H94569   5.828   5.218   0.308  1.5962 -2.0052 -1.2878
  701MOL0     H94570   5.624   5.169   0.256  1.5138  1.3342  0.7960
  701MOL0     H94571   5.474   5.254   0.236 -0.6390  0.8045 -1.9251
  701MOL0     H94572   5.489   5.149   0.033  0.7462 -0.6008 -1.3103
  701MOL0     H94573   5.658   5.204  -0.003  1.3508  1.1969 -0.2770
  701MOL0     H94574   5.590   5.430  -0.034 -0.0896 -0.3721 -0.2774
  701MOL0     H94575   5.429   5.407   0.037  2.1729 -1.8784  3.5424
  701MOL0     H94576   5.512   5.247  -0.215  4.5413  0.7994  3.8725
  701MOL0     H94577   5.373   5.226  -0.135  3.5877 -3.1005  1.4894
  701MOL0     H94578   5.495   5.489  -0.283  0.0909 -0.7745 -0.8321
  701MOL0     H94579   5.367   5.398  -0.341 -2.3727  1.7826  0.1978
  701MOL0     H94580   5.221   5.496  -0.138 -2.0480  3.3645  0.5707
  701MOL0     H94581   5.349   5.589  -0.100 -2.1976 -0.0876  0.3246
  701MOL0     H94582   5.333   5.622  -0.393  2.3348  1.6075  1.4986
  701MOL0     H94583   5.321   5.737  -0.261  0.4408 -0.5816  2.0752
  701MOL0     H94584   5.086   5.687  -0.223 -1.0376 -1.7971  0.5180
  701MOL0     H94585   5.118   5.774  -0.369 -1.0048 -1.2753 -1.6520
  701MOL0     H94586   5.140   5.378  -0.365 -0.6615 -2.8643 -0.7842
  701MOL0     H94587   4.991   5.199  -0.519  1.0728 -0.2807  1.2375
  701MOL0     H94588   4.889   5.277  -0.647  0.8363  1.0722 -2.2744
  701MOL0     H94589   5.117   5.358  -0.752  0.3723 -0.4386 -0.4517
  701MOL0     H94590   5.200   5.244  -0.653 -0.0396 -0.9887 -0.8354
  701MOL0     H94591   4.976   5.118  -0.809  0.4059 -0.7514 -0.9959
  701MOL0     H94592   5.129   5.061  -0.751  2.2023 -0.0175 -2.2248
  701MOL0     H94593   5.147   5.063  -0.996 -1.8787 -1.9403  2.4854
  701MOL0     H94594   5.245   5.187  -0.934  0.4884  2.4971 -2.7945
  701MOL0     H94595   4.991   5.470  -1.133 -0.8447  0.6797 -1.4832
  701MOL0     H94596   5.043   5.536  -1.371 -0.5424  1.1849  0.5492
  701MOL0     H94597   5.336   5.457  -1.796  1.2855  0.2585 -0.9276
  701MOL0     H94598   5.436   5.602  -1.983 -3.3763 -4.1921 -0.7576
  701MOL0     H94599   5.551   5.818  -2.087 -0.4035 -1.2183  2.1468
  701MOL0     H94600   5.408   5.742  -2.150 -1.1091  1.6685 -1.0309
  701MOL0     H94601   5.482   6.052  -2.174 -1.2614  2.4914 -2.4030
  701MOL0     H94602   5.501   5.937  -2.299 -0.6148  0.0675 -1.0430
  701MOL0     H94603   5.255   5.901  -2.297 -0.4520  0.7993 -1.2540
  701MOL0     H94604   5.228   6.002  -2.161  0.4000 -1.6330  0.5316
  701MOL0     H94605   5.353   6.059  -2.430 -1.5424 -1.5003 -1.6093
  701MOL0     H94606   5.304   6.206  -2.335  0.9392 -0.3936 -1.2228
  701MOL0     H94607   5.081   6.151  -2.344  0.3882  3.2662 -0.8236
  701MOL0     H94608   5.112   6.011  -2.454 -2.4554  1.4441 -1.5837
  701MOL0     H94609   5.174   6.307  -2.509  1.1264  0.1359  0.9579
  701MOL0     H94610   5.208   6.182  -2.630 -0.2444 -0.2532  0.7826
  701MOL0     H94611   4.941   6.213  -2.512  0.2749 -1.3797 -0.3028
  701MOL0     H94612   4.984   6.120  -2.665 -0.8845 -0.2420 -0.4912
  701MOL0     H94613   4.932   6.406  -2.600 -0.2584  0.8325 -1.7018
  701MOL0     H94614   5.070   6.378  -2.704  0.2418  1.8163 -0.0298
  701MOL0     H94615   5.188   5.934  -1.836 -2.6567  0.0334  1.9491
  701MOL0     H94616   5.124   5.788  -1.638  1.1850 -0.0545  1.4538
  701MOL0     H94617   5.374   5.266  -1.364 -2.3108  0.1465 -4.2287
  701MOL0     H94618   5.297   5.180  -1.150 -1.3347 -0.5800 -1.1362
  701MOL0     H94619   5.732   5.603   0.160 -1.9328 -0.5826 -0.7880
  701MOL0     H94620   5.988   5.668   0.149  3.8310 -0.5601  2.2044
  701MOL0     H94621   6.438   5.415   0.279  0.9998  0.2005 -0.0625
  701MOL0     H94622   6.651   5.458   0.341  1.1117  1.1680  0.2422
  701MOL0     H94623   6.852   5.536   0.316 -1.2364 -2.0599  3.7847
  701MOL0     H94624   6.836   5.603   0.474  0.1474  0.1327 -0.2773
  701MOL0     H94625   7.022   5.742   0.279  2.0028  1.1080  1.0439
  701MOL0     H94626   7.047   5.577   0.306 -0.6482  0.9875  0.3086
  701MOL0     H94627   7.051   5.631   0.557 -1.4636 -0.4426 -0.9500
  701MOL0     H94628   7.055   5.808   0.496  1.0804  0.6118 -2.4888
  701MOL0     H94629   7.259   5.706   0.566 -4.9044 -2.7245  2.1011
  701MOL0     H94630   7.250   5.583   0.430  0.9872  0.4582 -3.4877
  701MOL0     H94631   7.324   5.884   0.162 -1.3197  0.6624 -1.0542
  701MOL0     H94632   6.608   5.875   0.214  0.1501  0.0231 -0.6835
  701MOL0     H94633   6.251   5.855   0.183  0.2677 -0.8235  2.7314
  701MOL0     H94634   6.390   5.950   0.176 -3.2038  0.9308  0.8157
  701MOL0     H94635   6.344   5.843   0.028 -0.9366 -0.6085  0.4872
  702MOL0     O94636   2.071   7.880   5.451 -0.7325  0.0365  0.4564
  702MOL0     C94637   1.969   7.949   5.458  0.2324 -0.2764  0.4254
  702MOL0     O94638   1.923   8.011   5.563 -0.5220  0.5852  0.3406
  702MOL0     C94639   1.966   7.971   5.684 -0.7460 -0.4743  0.1070
  702MOL0     C94640   2.046   8.060   5.755  0.3547 -0.7077 -0.1212
  702MOL0     C94641   2.081   8.028   5.885 -0.3152 -0.2341 -0.0696
  702MOL0     C94642   2.045   7.912   5.952  0.9288 -0.2160  0.3532
  702MOL0     O94643   2.072   7.872   6.080 -0.1521 -0.2586 -0.0335
  702MOL0     C94644   2.178   7.780   6.080  0.8782 -0.1409  0.1856
  702MOL0     C94645   2.209   7.758   6.228  0.3253 -0.1647  0.7846
  702MOL0     C94646   2.327   7.663   6.267 -0.0405 -0.2810 -0.2110
  702MOL0     C94647   2.392   7.699   6.397 -0.2546 -0.0452  0.3505
  702MOL0     C94648   2.293   7.706   6.521  0.3145  0.0068  0.0960
  702MOL0     C94649   2.227   7.581   6.575 -0.5744  0.9241  0.4232
  702MOL0     C94650   2.160   7.497   6.475 -0.7777 -1.0245  1.2635
  702MOL0     C94651   2.083   7.384   6.539 -0.1148 -0.2572 -0.2086
  702MOL0     N94652   2.156   7.303   6.644  0.1165 -0.4050 -0.3040
  702MOL0     C94653   2.239   7.201   6.613  0.1489 -0.1522 -0.1131
  702MOL0     C94654   2.283   7.159   6.732  0.1264  0.0795  0.2543
  702MOL0     C94655   2.360   7.036   6.751  0.3141 -0.1420 -0.0852
  702MOL0     C94656   2.329   6.924   6.645  0.3879  0.2999 -0.5508
  702MOL0     C94657   2.416   6.798   6.669  0.0160 -0.2953 -0.1488
  702MOL0     C94658   2.563   6.835   6.629 -0.2438  0.7398 -1.0341
  702MOL0     O94659   2.579   6.839   6.488 -0.5427 -0.0082  0.2325
  702MOL0     C94660   2.708   6.871   6.452 -0.1485  0.4084  0.5505
  702MOL0     C94661   2.715   6.947   6.332 -0.7105 -0.1869  0.1256
  702MOL0     C94662   2.821   7.020   6.301 -1.3415  0.1386 -0.9214
  702MOL0     C94663   2.941   6.995   6.374  0.9591 -0.0099  0.0479
  702MOL0     C94664   3.066   7.061   6.330 -0.0209  0.1240  0.7843
  702MOL0     O94665   3.194   7.009   6.360  0.3321  0.1349  0.5174
  702MOL0     C94666   3.305   7.025   6.281  0.4619  0.2795  0.0333
  702MOL0     C94667   3.425   7.023   6.347  0.1204 -0.5084  0.6008
  702MOL0     C94668   3.547   7.023   6.282  0.5260 -0.3232 -1.3837
  702MOL0     C94669   3.552   7.020   6.142 -0.0061  0.5699  0.2766
  702MOL0     O94670   3.670   7.010   6.083 -1.0224 -0.1508  1.2674
  702MOL0     C94671   3.751   7.124   6.109 -0.4968 -0.2689 -0.7600
  702MOL0     C94672   3.890   7.102   6.043  0.8387  0.5193  0.1886
  702MOL0     C94673   3.980   7.229   6.043  0.2090  0.1022 -0.4401
  702MOL0     C94674   3.956   7.322   5.928  0.3515 -0.0009 -0.6343
  702MOL0     C94675   4.021   7.269   5.800 -0.1553  0.9297  0.4780
  702MOL0     C94676   4.001   7.371   5.686 -0.2716  1.1232  0.4591
  702MOL0     C94677   4.064   7.332   5.547  0.2258  0.3753  0.5382
  702MOL0     C94678   3.977   7.402   5.443  0.3223  0.3024 -1.3870
  702MOL0    Cl94679   4.049   7.391   5.276 -0.4827  0.2616 -0.3340
  702MOL0     C94680   3.431   7.039   6.075 -0.1222  0.0277 -0.2407
  702MOL0     C94681   3.311   7.022   6.141  0.2604 -0.9397 -0.4102
  702MOL0     O94682   3.046   7.177   6.282 -0.1937  0.3751 -0.4342
  702MOL0     C94683   2.949   6.902   6.475  1.2068 -0.7888  0.6223
  702MOL0     C94684   2.831   6.845   6.520  0.7706 -0.1329  0.8905
  702MOL0     N94685   2.228   7.242   6.831 -0.4708  0.4761 -0.4666
  702MOL0     N94686   2.144   7.330   6.779 -0.8192 -0.1053  0.7340
  702MOL0     C94687   1.967   7.816   5.871  0.1767 -0.0315 -0.0547
  702MOL0     C94688   1.922   7.853   5.740 -0.1440  0.3300  0.5157
  702MOL0     C94689   1.884   7.977   5.343  0.8921 -0.2961 -0.8199
  702MOL0     C94690   1.755   8.050   5.355 -0.6965  0.0322  0.1221
  702MOL0     C94691   1.663   8.056   5.253  0.4496  0.4679  0.4269
  702MOL0     C94692   1.684   8.004   5.130  0.5167  0.9628 -0.1106
  702MOL0     O94693   1.586   8.023   5.028 -0.5379 -0.5162  0.6171
  702MOL0     C94694   1.597   7.948   4.904  0.8208  0.4675 -0.0093
  702MOL0     C94695   1.502   8.013   4.801 -0.9229 -0.1254  0.6628
  702MOL0     C94696   1.462   7.908   4.701  0.0021 -0.2154  0.3519
  702MOL0     C94697   1.526   7.933   4.567  0.0756 -0.0847  0.8272
  702MOL0     C94698   1.485   7.817   4.483 -0.4237 -0.5513  0.2230
  702MOL0     C94699   1.432   7.723   4.418 -0.3222  0.4745  0.4716
  702MOL0     C94700   1.803   7.939   5.109 -0.7879 -0.6651  0.1858
  702MOL0     C94701   1.904   7.926   5.205 -0.0488  0.3291 -1.1834
  702MOL0     C94702   2.027   7.850   5.174 -0.2305  0.0337  0.8208
  702MOL0     H94703   2.091   8.150   5.713 -0.1769  0.2158  1.2096
  702MOL0     H94704   2.154   8.097   5.927 -0.6433  1.2420 -1.8230
  702MOL0     H94705   2.155   7.682   6.036 -0.3469 -0.9561  2.5046
  702MOL0     H94706   2.270   7.812   6.029 -0.0975  1.0845 -0.8774
  702MOL0     H94707   2.123   7.709   6.273 -0.3241 -0.5497 -0.8086
  702MOL0     H94708   2.226   7.852   6.281 -0.4381  0.0637  0.6373
  702MOL0     H94709   2.404   7.677   6.190  2.7283 -3.4087  1.7235
  702MOL0     H94710   2.289   7.561   6.257  3.2472 -1.4954 -1.8620
  702MOL0     H94711   2.476   7.640   6.436  1.2094  1.1653 -0.7959
  702MOL0     H94712   2.441   7.794   6.373 -1.2489  0.1931 -0.8046
  702MOL0     H94713   2.350   7.736   6.610  2.4489 -1.7739 -0.5662
  702MOL0     H94714   2.218   7.783   6.500 -1.5404 -1.9412 -0.7173
  702MOL0     H94715   2.297   7.520   6.633 -0.3978  1.5287  0.8531
  702MOL0     H94716   2.150   7.613   6.646  1.9984  2.4868  2.7209
  702MOL0     H94717   2.239   7.445   6.420  0.1900  1.3068  0.3211
  702MOL0     H94718   2.100   7.552   6.402  0.5935 -1.1890 -0.0224
  702MOL0     H94719   1.998   7.425   6.594 -1.6074 -4.6827  1.2431
  702MOL0     H94720   2.029   7.320   6.468  1.7485 -4.7758  2.0813
  702MOL0     H94721   2.262   7.163   6.514 -1.6373 -1.8137  0.0384
  702MOL0     H94722   2.468   7.055   6.750  1.4216 -4.8223  2.3902
  702MOL0     H94723   2.337   6.996   6.850 -0.6660 -0.5127 -0.4472
  702MOL0     H94724   2.222   6.902   6.640  1.0263 -3.2338 -1.4932
  702MOL0     H94725   2.358   6.969   6.549 -0.9677  4.3070  0.7129
  702MOL0     H94726   2.383   6.708   6.617 -0.8523  0.7330 -1.4577
  702MOL0     H94727   2.411   6.768   6.774  3.0754  0.7485  0.3957
  702MOL0     H94728   2.633   6.766   6.679  1.0035  2.5455 -0.1879
  702MOL0     H94729   2.596   6.926   6.680 -3.6454 -0.2086  3.6036
  702MOL0     H94730   2.626   6.950   6.269 -0.5432  0.6744 -0.0834
  702MOL0     H94731   2.823   7.092   6.220 -2.2712  2.1755  0.7507
  702MOL0     H94732   3.425   7.008   6.455 -1.8169  0.2471  0.7393
  702MOL0     H94733   3.633   7.029   6.348  0.7580 -0.8853 -1.6285
  702MOL0     H94734   3.694   7.211   6.076 -0.7245 -1.3279 -3.4123
  702MOL0     H94735   3.759   7.136   6.218  0.5387  0.6777 -0.9117
  702MOL0     H94736   3.944   7.021   6.092 -1.1743 -2.8397 -2.6595
  702MOL0     H94737   3.876   7.084   5.936  0.4655  2.9990 -0.2406
  702MOL0     H94738   3.962   7.276   6.140 -0.0910  1.9889 -1.3629
  702MOL0     H94739   4.089   7.215   6.047  0.5058  2.2751  0.5888
  702MOL0     H94740   4.010   7.414   5.950 -0.0674  0.1941 -0.4055
  702MOL0     H94741   3.849   7.341   5.910  0.2063 -1.2910 -1.2962
  702MOL0     H94742   3.965   7.184   5.761 -0.3084  0.4263  1.7328
  702MOL0     H94743   4.122   7.253   5.839 -1.5855 -0.2078  4.2034
  702MOL0     H94744   3.892   7.384   5.687 -0.3110  0.8448  1.7261
  702MOL0     H94745   4.035   7.472   5.708 -1.3294  1.3647  1.0462
  702MOL0     H94746   4.066   7.225   5.523  0.6087  0.5376 -0.1723
  702MOL0     H94747   4.166   7.369   5.533  0.6388 -1.0140 -0.4025
  702MOL0     H94748   3.881   7.351   5.427 -0.0256  1.4398 -3.2467
  702MOL0     H94749   3.969   7.507   5.473 -2.7417  0.4357 -2.2946
  702MOL0     H94750   3.436   7.061   5.969  3.8590  0.1631 -0.1852
  702MOL0     H94751   3.227   7.034   6.073  1.2640 -0.2660 -1.5947
  702MOL0     H94752   3.046   6.880   6.518  1.0247 -1.2685  0.7985
  702MOL0     H94753   2.834   6.791   6.614 -2.0145  0.2538  1.2971
  702MOL0     H94754   1.960   7.720   5.921  2.0078  0.6028  1.5661
  702MOL0     H94755   1.860   7.783   5.684 -0.5717 -1.0320  2.5750
  702MOL0     H94756   1.727   8.100   5.448 -1.5340 -0.8509  0.3626
  702MOL0     H94757   1.569   8.107   5.273 -1.4156 -1.1282 -3.3780
  702MOL0     H94758   1.572   7.842   4.914  0.7438  0.5039  0.2017
  702MOL0     H94759   1.697   7.945   4.860  0.8049 -1.7751  0.0176
  702MOL0     H94760   1.563   8.095   4.762 -0.8063 -1.0991 -1.3483
  702MOL0     H94761   1.413   8.053   4.850 -0.2520  0.3305  1.5353
  702MOL0     H94762   1.353   7.917   4.689  0.1241  1.0399  0.1149
  702MOL0     H94763   1.474   7.802   4.728  0.4477  0.4125  2.8090
  702MOL0     H94764   1.473   8.017   4.522 -1.3933 -1.9301 -1.0842
  702MOL0     H94765   1.634   7.938   4.585  0.3224 -1.0077 -0.2793
  702MOL0     H94766   1.371   7.650   4.370  2.1217 -1.2146 -0.2341
  702MOL0     H94767   1.828   7.884   5.019 -0.2422 -1.0191  0.5489
  702MOL0     H94768   2.043   7.769   5.246 -2.5932  1.6405  3.3821
  702MOL0     H94769   2.026   7.798   5.078  1.4783  1.6029 -0.0998
  702MOL0     H94770   2.110   7.921   5.162  0.8233 -1.1088  1.2017
  703MOL0     O94771  10.226   0.632   2.997  0.7478  0.3570 -0.2388
  703MOL0     C94772  10.291   0.599   3.095 -0.5122 -1.2302  0.4036
  703MOL0     O94773  10.402   0.520   3.093 -0.8534  0.5999 -0.0608
  703MOL0     C94774  10.436   0.472   2.970  0.1809  0.0801 -0.7695
  703MOL0     C94775  10.505   0.554   2.887 -0.0472  0.1151 -0.3909
  703MOL0     C94776  10.530   0.515   2.747  0.6516  0.6780 -0.3811
  703MOL0     C94777  10.474   0.396   2.701 -0.8137 -0.1192 -0.5018
  703MOL0     O94778  10.488   0.355   2.574  1.2264  0.5395  0.2951
  703MOL0     C94779  10.404   0.423   2.481 -0.0577 -0.6307  0.0471
  703MOL0     C94780  10.375   0.328   2.364 -0.2131  0.1898 -0.2886
  703MOL0     C94781  10.334   0.181   2.413 -0.8117 -0.6506  0.3002
  703MOL0     C94782  10.286   0.092   2.304  0.6102  0.6141  0.1703
  703MOL0     C94783  10.254  -0.042   2.360  0.1621  0.5328 -0.7045
  703MOL0     C94784  10.226  -0.137   2.237  0.1300 -0.1209  0.3568
  703MOL0     C94785  10.141  -0.261   2.270 -0.2849  1.8279 -1.0962
  703MOL0     C94786  10.228  -0.369   2.346 -0.3205 -0.3948  0.0494
  703MOL0     N94787  10.152  -0.488   2.372 -0.1929 -0.2304 -1.1252
  703MOL0     C94788  10.203  -0.621   2.378  0.0132 -0.1523 -0.3493
  703MOL0     C94789  10.099  -0.703   2.411 -0.3046 -0.7132  0.2547
  703MOL0     C94790  10.088  -0.857   2.415 -0.9494 -0.0286 -0.2076
  703MOL0     C94791  10.003  -0.916   2.305  0.4872  1.0584  0.4171
  703MOL0     C94792   9.856  -0.869   2.292 -0.1279  0.1283  0.1986
  703MOL0     C94793   9.792  -0.974   2.190  0.5780 -0.5931 -1.2104
  703MOL0     O94794   9.882  -1.021   2.085 -0.7338 -1.0078 -0.2246
  703MOL0     C94795   9.830  -1.107   1.989  1.1297 -1.0194  0.0210
  703MOL0     C94796   9.908  -1.206   1.934  0.6067  0.0946  0.0267
  703MOL0     C94797   9.851  -1.283   1.837 -0.4839 -0.2833 -0.0824
  703MOL0     C94798   9.721  -1.274   1.787 -0.5323 -0.5583  1.3884
  703MOL0     C94799   9.662  -1.368   1.685  0.4649  0.7445  0.3210
  703MOL0     O94800   9.736  -1.457   1.615 -0.4244 -0.5161  0.0210
  703MOL0     C94801   9.686  -1.559   1.536 -0.4627 -0.8249  1.3870
  703MOL0     C94802   9.787  -1.640   1.480 -0.1700  0.5713  1.0229
  703MOL0     C94803   9.751  -1.745   1.391  0.2401  1.5064  0.1190
  703MOL0     C94804   9.616  -1.760   1.356  0.5446 -0.0772 -0.0903
  703MOL0     O94805   9.560  -1.844   1.261  0.1563  0.2287  0.2655
  703MOL0     C94806   9.624  -1.878   1.136  0.0581 -0.0462  0.3140
  703MOL0     C94807   9.641  -1.758   1.048 -0.5145 -0.2106  0.2312
  703MOL0     C94808   9.721  -1.791   0.921  0.3619  0.2658 -0.3352
  703MOL0     C94809   9.720  -1.675   0.820  0.9173 -0.0337  0.1804
  703MOL0     C94810   9.820  -1.697   0.711  0.1485  0.2668  0.6595
  703MOL0     C94811   9.826  -1.585   0.610  0.6072 -0.3018 -0.1150
  703MOL0     C94812   9.930  -1.614   0.510 -0.0581  0.0557 -0.3144
  703MOL0     C94813   9.901  -1.545   0.369  0.9682  0.4666 -1.1512
  703MOL0    Cl94814   9.848  -1.372   0.388  0.3507 -0.5183 -0.1628
  703MOL0     C94815   9.521  -1.676   1.399 -0.2784  0.2803  0.1071
  703MOL0     C94816   9.550  -1.580   1.489 -0.1674  0.3976  1.3002
  703MOL0     O94817   9.537  -1.349   1.672  0.3044  0.3975  0.0152
  703MOL0     C94818   9.652  -1.167   1.830 -0.3019 -0.8285 -0.0850
  703MOL0     C94819   9.702  -1.084   1.938  0.5778  0.7665 -0.1767
  703MOL0     N94820   9.991  -0.617   2.436  0.4938 -0.5466 -0.3638
  703MOL0     N94821  10.021  -0.494   2.411  0.7557 -0.3348 -0.5205
  703MOL0     C94822  10.397   0.320   2.789 -0.2407 -0.3248  0.1332
  703MOL0     C94823  10.388   0.347   2.922 -0.2276 -0.4743 -0.4054
  703MOL0     C94824  10.237   0.647   3.231 -0.7259 -0.2752  0.6561
  703MOL0     C94825  10.309   0.601   3.341  0.6902  0.6863  0.0722
  703MOL0     C94826  10.296   0.669   3.461  0.3847  0.7227 -0.1646
  703MOL0     C94827  10.212   0.770   3.473  0.5771  1.3421  0.8396
  703MOL0     O94828  10.226   0.838   3.592  0.3037  1.1394  0.1663
  703MOL0     C94829  10.111   0.817   3.679 -0.7154 -0.7840 -0.3559
  703MOL0     C94830  10.050   0.959   3.691 -0.8829 -0.1715  0.2275
  703MOL0     C94831  10.121   1.048   3.798  0.3314  0.0702  0.9362
  703MOL0     C94832  10.072   1.193   3.782  0.2321 -0.2103  0.2757
  703MOL0     C94833  10.181   1.276   3.835 -0.7080 -0.7174 -0.2738
  703MOL0     C94834  10.284   1.337   3.871 -0.0501 -0.3516 -0.3474
  703MOL0     C94835  10.118   0.805   3.377 -1.2338 -0.3984  0.4955
  703MOL0     C94836  10.137   0.745   3.247 -0.2691 -0.4312  0.3386
  703MOL0     C94837  10.014   0.751   3.155 -1.2377  0.0256  0.0245
  703MOL0     H94838  10.537   0.647   2.933  0.7388 -0.2486 -0.1966
  703MOL0     H94839  10.588   0.572   2.674 -0.4721 -1.9949 -3.5812
  703MOL0     H94840  10.305   0.455   2.515  0.3690 -0.0114  0.7195
  703MOL0     H94841  10.456   0.515   2.452 -1.0595  0.2820  1.0453
  703MOL0     H94842  10.478   0.317   2.327  0.0004  3.0334 -0.7740
  703MOL0     H94843  10.307   0.370   2.289 -1.5695 -3.5971 -1.4366
  703MOL0     H94844  10.263   0.187   2.495  3.1333  0.0658  4.0211
  703MOL0     H94845  10.422   0.127   2.449 -1.8431 -1.0219  2.3984
  703MOL0     H94846  10.200   0.146   2.262  1.4353  1.7026 -0.1501
  703MOL0     H94847  10.368   0.085   2.231  1.5268 -1.7248  1.3282
  703MOL0     H94848  10.348  -0.076   2.405 -0.3404  0.6911  0.5129
  703MOL0     H94849  10.173  -0.040   2.434 -0.6743 -3.9462 -1.2156
  703MOL0     H94850  10.152  -0.080   2.180 -1.0778 -0.5578  1.4339
  703MOL0     H94851  10.317  -0.153   2.179 -0.2460  2.7534 -1.2336
  703MOL0     H94852  10.094  -0.305   2.182 -4.3753  1.0955  1.1773
  703MOL0     H94853  10.061  -0.237   2.341 -1.5645  0.6834 -2.1005
  703MOL0     H94854  10.295  -0.404   2.267 -1.3607  0.6649 -1.3565
  703MOL0     H94855  10.281  -0.334   2.435 -1.1168 -0.9394  0.7518
  703MOL0     H94856  10.302  -0.654   2.348 -0.9819 -2.7965 -0.9912
  703MOL0     H94857  10.191  -0.893   2.423 -0.6112  0.3863 -2.2073
  703MOL0     H94858  10.037  -0.894   2.505  0.7318  4.0520  2.7330
  703MOL0     H94859  10.049  -0.911   2.206  0.8498  3.2861  0.6627
  703MOL0     H94860   9.994  -1.022   2.330 -0.8143  1.2400  0.8050
  703MOL0     H94861   9.858  -0.765   2.257  2.6317 -0.6838 -2.4636
  703MOL0     H94862   9.807  -0.887   2.388  0.1865  0.7779  0.4886
  703MOL0     H94863   9.704  -0.930   2.142  0.6454 -0.8328 -1.5551
  703MOL0     H94864   9.755  -1.059   2.248 -1.4632  0.5425 -0.7301
  703MOL0     H94865  10.009  -1.239   1.956 -0.1833 -0.9655  2.3608
  703MOL0     H94866   9.904  -1.367   1.794 -3.3780 -1.1143 -2.3122
  703MOL0     H94867   9.891  -1.634   1.510  0.3933 -0.4292 -0.5696
  703MOL0     H94868   9.823  -1.810   1.342  0.3942 -0.1528  2.3769
  703MOL0     H94869   9.724  -1.919   1.154  0.4939  0.1963 -1.3495
  703MOL0     H94870   9.562  -1.952   1.085  0.5333 -0.1201 -0.1680
  703MOL0     H94871   9.546  -1.710   1.022  1.6600  3.6980 -1.4877
  703MOL0     H94872   9.705  -1.684   1.097 -1.0819  1.5860 -1.6100
  703MOL0     H94873   9.826  -1.803   0.946  0.1761  1.4175  1.1231
  703MOL0     H94874   9.671  -1.874   0.870 -1.1318 -0.7568  2.5975
  703MOL0     H94875   9.748  -1.580   0.868  2.4665 -1.3385  2.0272
  703MOL0     H94876   9.619  -1.673   0.777  0.7297 -2.1546  0.4049
  703MOL0     H94877   9.779  -1.785   0.659  0.0459  0.9467 -0.4469
  703MOL0     H94878   9.914  -1.721   0.761  0.3900  1.4389  0.7889
  703MOL0     H94879   9.729  -1.568   0.563  0.8022  3.8352  0.6113
  703MOL0     H94880   9.846  -1.490   0.660  1.8179 -1.8016  2.4244
  703MOL0     H94881   9.939  -1.722   0.492  1.0085  0.1695 -0.4776
  703MOL0     H94882  10.015  -1.577   0.567 -2.1385  2.6102  1.3683
  703MOL0     H94883   9.997  -1.547   0.318  1.2036 -2.5414 -0.7907
  703MOL0     H94884   9.827  -1.600   0.311  0.4818  1.5106 -1.5472
  703MOL0     H94885   9.420  -1.697   1.365  0.8670 -3.5053 -1.4983
  703MOL0     H94886   9.473  -1.510   1.519  2.0238  2.5414  2.2589
  703MOL0     H94887   9.553  -1.149   1.789  0.0187 -2.5171 -1.7020
  703MOL0     H94888   9.647  -1.000   1.979 -2.3082 -0.3416 -1.5109
  703MOL0     H94889  10.361   0.225   2.750 -2.7898  0.2389  0.9946
  703MOL0     H94890  10.321   0.285   2.980  1.2593 -0.5514  1.3052
  703MOL0     H94891  10.383   0.522   3.331 -1.1043 -0.9581 -0.8839
  703MOL0     H94892  10.360   0.647   3.546  1.7823  0.8988 -1.1414
  703MOL0     H94893  10.147   0.775   3.773 -0.2329 -2.5536 -1.2717
  703MOL0     H94894  10.036   0.743   3.646 -0.7575 -0.5475 -0.7962
  703MOL0     H94895   9.943   0.954   3.710 -0.7183  1.0085  1.7148
  703MOL0     H94896  10.049   1.004   3.592  0.3962 -5.0145 -2.3190
  703MOL0     H94897  10.228   1.034   3.779  0.5715  1.4758  1.1757
  703MOL0     H94898  10.094   1.008   3.896 -1.4573 -0.4790  0.2534
  703MOL0     H94899  10.061   1.212   3.675  1.7472  1.0448  0.2968
  703MOL0     H94900   9.979   1.205   3.839  0.0716  1.6461 -0.2993
  703MOL0     H94901  10.372   1.396   3.884 -2.1919  2.9090  0.4926
  703MOL0     H94902  10.054   0.891   3.398 -1.2839 -0.2969 -0.0536
  703MOL0     H94903  10.041   0.794   3.057  1.7375  1.0213  1.1675
  703MOL0     H94904   9.966   0.654   3.149  0.9833 -1.2187  1.1613
  703MOL0     H94905   9.932   0.812   3.194 -0.5440  3.0811 -2.7725
  704MOL0     O94906   4.092   1.488   2.772 -0.3911 -0.4441 -0.0725
  704MOL0     C94907   4.035   1.460   2.877 -0.2954 -0.0194 -0.0751
  704MOL0     O94908   4.093   1.410   2.992  0.2567 -0.8828 -0.1400
  704MOL0     C94909   4.217   1.357   2.977 -0.4819 -0.7857 -0.6032
  704MOL0     C94910   4.243   1.217   2.993  0.9018 -0.2588  0.7906
  704MOL0     C94911   4.368   1.165   2.989  0.2882 -0.1785  0.7054
  704MOL0     C94912   4.479   1.246   2.969 -0.6752 -0.0372  0.3196
  704MOL0     O94913   4.601   1.185   2.956  0.2149 -1.0383 -0.0661
  704MOL0     C94914   4.719   1.264   2.948  0.4599  0.0928 -0.0118
  704MOL0     C94915   4.830   1.170   2.902 -0.0767 -1.4337  1.1691
  704MOL0     C94916   4.971   1.229   2.927  0.3973  0.4299  0.1642
  704MOL0     C94917   5.087   1.124   2.902  0.7282 -0.6050  0.3694
  704MOL0     C94918   5.229   1.172   2.912  0.3291 -0.3344  0.4441
  704MOL0     C94919   5.327   1.051   2.881 -0.7390 -0.4873  0.6802
  704MOL0     C94920   5.330   1.010   2.734 -0.9979  0.0917 -0.5939
  704MOL0     C94921   5.431   0.894   2.707 -0.1583 -0.2484 -0.8518
  704MOL0     N94922   5.387   0.835   2.576  0.6246 -1.4199 -1.2598
  704MOL0     C94923   5.394   0.900   2.462  0.6681 -0.3284  0.8077
  704MOL0     C94924   5.325   0.820   2.374 -0.3077 -0.0768 -0.0815
  704MOL0     C94925   5.274   0.877   2.251 -0.0464 -0.2826 -0.3242
  704MOL0     C94926   5.336   0.836   2.114 -0.2098 -0.0300 -0.2293
  704MOL0     C94927   5.489   0.852   2.114  0.1663 -0.3968  0.2386
  704MOL0     C94928   5.560   0.820   1.987 -0.5882 -0.0269  0.4542
  704MOL0     O94929   5.702   0.794   2.017 -0.0148  0.3710 -0.2118
  704MOL0     C94930   5.775   0.757   1.905  0.1674 -0.7640  0.3786
  704MOL0     C94931   5.739   0.767   1.763  0.1726 -0.4724  0.4864
  704MOL0     C94932   5.816   0.707   1.668 -0.8267  0.5442 -0.6282
  704MOL0     C94933   5.949   0.652   1.694 -0.6324  0.2646  0.0789
  704MOL0     C94934   6.038   0.600   1.591  0.5042  0.4501 -0.4902
  704MOL0     O94935   6.153   0.536   1.631  0.1218 -0.2512 -0.5953
  704MOL0     C94936   6.232   0.482   1.536 -0.7052 -0.3864  0.4202
  704MOL0     C94937   6.323   0.375   1.564  0.4980  0.3279 -0.2041
  704MOL0     C94938   6.436   0.347   1.478  1.4896  0.4318 -0.9644
  704MOL0     C94939   6.455   0.421   1.356  0.4679  1.0866  1.1102
  704MOL0     O94940   6.552   0.377   1.273  0.0648  0.3460 -0.1426
  704MOL0     C94941   6.573   0.441   1.146 -0.6588 -0.2832 -0.9823
  704MOL0     C94942   6.689   0.356   1.091 -0.0205 -0.7994 -0.5801
  704MOL0     C94943   6.696   0.370   0.941 -0.7146 -0.2788  0.5756
  704MOL0     C94944   6.837   0.347   0.894  0.3079 -0.9517  0.1462
  704MOL0     C94945   6.845   0.306   0.748  0.2518  0.0935 -0.0562
  704MOL0     C94946   6.819   0.423   0.645  0.2712 -0.2232 -0.9274
  704MOL0     C94947   6.947   0.501   0.612 -0.1947 -0.6954  0.6357
  704MOL0     C94948   6.948   0.583   0.486 -0.8877  0.0495 -0.0794
  704MOL0    Cl94949   7.108   0.670   0.502  0.0324 -0.3842  0.1462
  704MOL0     C94950   6.358   0.517   1.327  0.3856 -0.3798 -0.2322
  704MOL0     C94951   6.260   0.558   1.416 -0.3634  0.2775 -0.1551
  704MOL0     O94952   5.981   0.598   1.481 -0.4109  0.2277  0.7629
  704MOL0     C94953   5.989   0.660   1.833  0.5735 -0.0871 -0.0147
  704MOL0     C94954   5.901   0.707   1.939 -0.4111  0.8156  0.3455
  704MOL0     N94955   5.301   0.696   2.430 -0.6377  1.1083 -0.7380
  704MOL0     N94956   5.338   0.711   2.554 -0.6332  0.0637  0.4154
  704MOL0     C94957   4.466   1.394   2.961  0.0988 -0.3762 -0.0442
  704MOL0     C94958   4.335   1.446   2.970  0.9468  0.0128  0.1326
  704MOL0     C94959   3.897   1.496   2.889  0.3655  0.0353 -0.5270
  704MOL0     C94960   3.834   1.573   2.783 -0.3525  0.4423  0.0798
  704MOL0     C94961   3.705   1.622   2.786 -0.8090 -0.5511  0.2175
  704MOL0     C94962   3.630   1.591   2.892  0.2362  0.0902  0.2021
  704MOL0     O94963   3.492   1.620   2.895 -0.3783  0.0352  0.4513
  704MOL0     C94964   3.470   1.729   2.981  0.1996 -0.3113  0.1853
  704MOL0     C94965   3.545   1.853   2.938 -0.2059 -0.9227  0.0956
  704MOL0     C94966   3.520   1.976   3.012  0.4237  0.9807  0.1523
  704MOL0     C94967   3.618   2.083   2.970  0.6693 -0.1024 -1.2520
  704MOL0     C94968   3.757   2.064   2.999 -0.1391  0.1869 -0.0691
  704MOL0     C94969   3.875   2.044   3.014  0.0576  0.3592 -0.4168
  704MOL0     C94970   3.672   1.519   2.992 -0.4205  0.6752  0.1241
  704MOL0     C94971   3.813   1.476   3.000  0.0103  0.2771 -0.8996
  704MOL0     C94972   3.857   1.405   3.133 -0.2117  0.2121  1.2175
  704MOL0     H94973   4.153   1.158   3.006  1.0344 -0.5811  0.2872
  704MOL0     H94974   4.381   1.059   3.009  1.0715 -1.1910 -3.9809
  704MOL0     H94975   4.702   1.341   2.872 -3.5774 -0.0726  0.5173
  704MOL0     H94976   4.747   1.303   3.046 -2.5464 -1.6212  1.6572
  704MOL0     H94977   4.823   1.145   2.796 -0.2266  0.1103  0.7978
  704MOL0     H94978   4.822   1.073   2.952 -0.6492 -2.4950 -0.8955
  704MOL0     H94979   4.982   1.278   3.024  1.5959 -1.6142  1.1303
  704MOL0     H94980   4.971   1.306   2.849 -0.2901  1.6631  1.3384
  704MOL0     H94981   5.073   1.023   2.943 -0.0425  0.3422  2.5931
  704MOL0     H94982   5.077   1.125   2.793 -3.7971 -2.3770  0.5208
  704MOL0     H94983   5.278   1.256   2.861  1.8656 -0.8618  0.9686
  704MOL0     H94984   5.238   1.189   3.020  2.1665 -1.0378  0.4402
  704MOL0     H94985   5.428   1.081   2.912 -0.9627 -0.5483  1.4935
  704MOL0     H94986   5.312   0.960   2.940 -0.6084 -1.5142 -0.8164
  704MOL0     H94987   5.344   1.080   2.652 -4.9202 -0.8632 -2.2892
  704MOL0     H94988   5.229   0.970   2.723 -0.0004 -2.7937 -0.1166
  704MOL0     H94989   5.533   0.930   2.692 -0.5811  0.7410 -1.4939
  704MOL0     H94990   5.433   0.823   2.790 -0.5639 -0.8678 -1.3616
  704MOL0     H94991   5.442   0.997   2.462  2.7251 -1.2446  2.7412
  704MOL0     H94992   5.168   0.848   2.245  0.3959 -1.7106 -2.2317
  704MOL0     H94993   5.280   0.985   2.263  0.5028 -0.3319 -0.1405
  704MOL0     H94994   5.304   0.732   2.104 -6.6851  1.4379  0.7450
  704MOL0     H94995   5.299   0.911   2.044 -1.2092  0.0936  0.4220
  704MOL0     H94996   5.526   0.771   2.178  2.5925 -1.0318 -1.7987
  704MOL0     H94997   5.531   0.948   2.146 -0.3583  0.7765 -2.3688
  704MOL0     H94998   5.546   0.906   1.921 -1.7267  0.1995  0.9692
  704MOL0     H94999   5.513   0.739   1.931 -2.3384  2.6180 -2.1949
  704MOL0     H95000   5.644   0.809   1.734  1.3272  0.9688 -1.5278
  704MOL0     H95001   5.783   0.702   1.565 -0.6982 -1.9878 -0.6256
  704MOL0     H95002   6.315   0.314   1.653 -0.7126  3.2150  1.8113
  704MOL0     H95003   6.512   0.269   1.480  1.0735 -0.0792 -2.6777
  704MOL0     H95004   6.489   0.451   1.076 -1.9565  4.6717  0.8486
  704MOL0     H95005   6.607   0.544   1.159  2.2178 -1.4030  1.3789
  704MOL0     H95006   6.779   0.372   1.151 -1.7203 -0.2234  1.9889
  704MOL0     H95007   6.656   0.253   1.106  0.7858 -1.3168 -2.0917
  704MOL0     H95008   6.625   0.299   0.899 -4.7406  3.4326  0.3311
  704MOL0     H95009   6.658   0.470   0.918  2.2659  1.1405  1.4240
  704MOL0     H95010   6.873   0.269   0.962 -2.4032 -1.4842  1.1270
  704MOL0     H95011   6.889   0.443   0.906  1.6517 -1.6298 -0.1702
  704MOL0     H95012   6.775   0.223   0.736 -0.6016  0.4799  1.9222
  704MOL0     H95013   6.940   0.260   0.722 -0.6035 -1.2340 -1.0050
  704MOL0     H95014   6.779   0.373   0.557 -1.5591  0.2713 -0.4163
  704MOL0     H95015   6.742   0.487   0.690  1.4158  0.7428 -0.2847
  704MOL0     H95016   7.028   0.428   0.602 -0.0856 -0.2575 -2.4467
  704MOL0     H95017   6.965   0.574   0.692 -1.4593 -0.4273  0.6993
  704MOL0     H95018   6.962   0.518   0.399 -1.0945  1.8369 -1.5070
  704MOL0     H95019   6.858   0.644   0.479 -1.3435 -0.4367  1.2762
  704MOL0     H95020   6.350   0.570   1.232 -3.1051  2.2075  1.2905
  704MOL0     H95021   6.208   0.653   1.410  2.6270  2.0099 -0.6316
  704MOL0     H95022   6.079   0.604   1.855 -2.4359 -4.7565  2.1064
  704MOL0     H95023   5.924   0.697   2.044 -1.6396 -0.6215  0.5163
  704MOL0     H95024   4.553   1.456   2.941  1.5013 -1.4763  2.0978
  704MOL0     H95025   4.330   1.555   2.974 -0.5288 -0.0186 -0.2258
  704MOL0     H95026   3.895   1.582   2.693  1.0303 -0.7994  0.8419
  704MOL0     H95027   3.656   1.658   2.696 -0.3171  1.9090  0.8683
  704MOL0     H95028   3.485   1.710   3.088 -0.3888  3.2227  1.0123
  704MOL0     H95029   3.366   1.761   2.975 -0.5348 -2.4152  1.0375
  704MOL0     H95030   3.511   1.860   2.834  4.1129  1.4107 -1.4128
  704MOL0     H95031   3.654   1.844   2.934 -0.1483  0.0043 -3.1657
  704MOL0     H95032   3.530   1.950   3.118  1.0253 -2.8717 -0.6968
  704MOL0     H95033   3.415   1.998   2.989 -0.0877 -1.8571 -0.6695
  704MOL0     H95034   3.615   2.112   2.864  0.5181  2.2040 -0.6663
  704MOL0     H95035   3.594   2.176   3.022 -2.2757 -2.1695  1.4521
  704MOL0     H95036   3.979   2.018   3.017 -0.1900 -0.5911  1.2316
  704MOL0     H95037   3.609   1.489   3.076 -0.4325  0.1950 -0.0495
  704MOL0     H95038   3.918   1.471   3.195  1.0655  0.5407 -0.3197
  704MOL0     H95039   3.775   1.367   3.194  1.1704 -2.1862  1.7011
  704MOL0     H95040   3.913   1.315   3.105  0.5582  1.5190 -1.9637
  705MOL0     O95041   1.752   8.305   1.155 -0.6871  0.3565  0.2605
  705MOL0     C95042   1.639   8.269   1.113 -0.2969  0.3345 -0.6151
  705MOL0     O95043   1.550   8.344   1.053  0.1391  0.1355  0.7884
  705MOL0     C95044   1.535   8.476   1.096 -0.3359  1.1171 -0.7369
  705MOL0     C95045   1.648   8.559   1.103  0.2048  0.1205 -0.2493
  705MOL0     C95046   1.645   8.692   1.150  0.3859 -0.9281 -0.2063
  705MOL0     C95047   1.512   8.739   1.191  0.1731  0.1330 -0.1341
  705MOL0     O95048   1.505   8.871   1.236  0.2766  0.2261  0.4106
  705MOL0     C95049   1.407   8.906   1.323  0.8389  0.1568 -0.0369
  705MOL0     C95050   1.422   8.818   1.453 -0.1246  0.1527 -0.0100
  705MOL0     C95051   1.328   8.866   1.556  0.3613 -0.0100  0.3839
  705MOL0     C95052   1.333   8.786   1.683  0.6817 -0.0138 -0.4172
  705MOL0     C95053   1.237   8.826   1.788  0.0666 -0.0821 -0.6179
  705MOL0     C95054   1.253   8.976   1.843 -0.4475  0.4657 -0.5764
  705MOL0     C95055   1.231   8.968   1.989 -0.2415  0.2674  0.1157
  705MOL0     C95056   1.253   9.109   2.048 -0.1598  0.1354 -0.8672
  705MOL0     N95057   1.232   9.123   2.194 -1.4030  1.0730  0.5016
  705MOL0     C95058   1.325   9.125   2.292 -0.9311 -0.3011 -0.7481
  705MOL0     C95059   1.246   9.153   2.403 -0.2374 -0.1520  0.8196
  705MOL0     C95060   1.311   9.143   2.539  0.4620 -0.8839 -0.3505
  705MOL0     C95061   1.258   9.019   2.615  0.1439  0.0362 -0.6970
  705MOL0     C95062   1.303   8.877   2.539 -0.6988 -0.5884  0.3385
  705MOL0     C95063   1.240   8.846   2.400  0.7218 -0.0206 -0.5503
  705MOL0     O95064   1.247   8.699   2.391  0.0569 -0.3134  0.2385
  705MOL0     C95065   1.188   8.657   2.280  0.4890  0.9357 -0.5258
  705MOL0     C95066   1.081   8.711   2.206 -0.6460 -1.2767 -0.7969
  705MOL0     C95067   1.029   8.641   2.101  0.0689  0.0743  0.5003
  705MOL0     C95068   1.086   8.524   2.054 -1.6211  0.5223 -0.4764
  705MOL0     C95069   1.043   8.454   1.934 -0.0854  0.9521 -0.4021
  705MOL0     O95070   0.973   8.534   1.844  0.3170  0.6240  0.2646
  705MOL0     C95071   0.985   8.515   1.707 -0.3018 -0.0235 -0.5463
  705MOL0     C95072   0.879   8.570   1.639  0.8753 -1.2845  0.5005
  705MOL0     C95073   0.866   8.574   1.496 -0.1595  0.0727 -0.3648
  705MOL0     C95074   0.972   8.511   1.426  0.3597 -0.4456  0.8327
  705MOL0     O95075   0.976   8.521   1.290 -0.2282  0.1526  0.3896
  705MOL0     C95076   0.973   8.653   1.236 -0.8371  0.4121  0.1904
  705MOL0     C95077   0.846   8.686   1.165  0.1433 -0.1212  0.9579
  705MOL0     C95078   0.778   8.570   1.107  0.2126  0.0783  0.7940
  705MOL0     C95079   0.861   8.513   0.988 -0.0594 -0.4087 -0.6748
  705MOL0     C95080   0.770   8.399   0.933  0.2576  0.5041 -0.1815
  705MOL0     C95081   0.842   8.291   0.852  0.2479  0.5147  0.2479
  705MOL0     C95082   0.765   8.185   0.779 -0.5173  0.1696 -0.0769
  705MOL0     C95083   0.700   8.240   0.653  0.1578  0.2783 -0.5273
  705MOL0    Cl95084   0.643   8.099   0.547 -0.1783  0.1052 -0.3023
  705MOL0     C95085   1.072   8.444   1.494  0.5639 -0.6650  0.4764
  705MOL0     C95086   1.078   8.443   1.634 -0.1009  0.9640 -0.1541
  705MOL0     O95087   1.071   8.337   1.921  0.3695 -0.4690  0.3926
  705MOL0     C95088   1.199   8.477   2.125 -0.2096  1.4437  0.3450
  705MOL0     C95089   1.247   8.541   2.232 -0.2082 -0.1087 -0.0358
  705MOL0     N95090   1.113   9.158   2.356  0.5881  0.2498  0.0783
  705MOL0     N95091   1.105   9.123   2.236  0.5881 -0.7723 -0.5244
  705MOL0     C95092   1.400   8.651   1.180  0.4862  0.1974 -0.8535
  705MOL0     C95093   1.405   8.519   1.129  1.0477 -1.4526 -0.8838
  705MOL0     C95094   1.607   8.123   1.123  0.1551  0.3343  0.7643
  705MOL0     C95095   1.707   8.040   1.086  0.6151 -0.0877  0.9083
  705MOL0     C95096   1.697   7.901   1.088  0.0156 -0.3554 -0.6383
  705MOL0     C95097   1.579   7.849   1.130  0.5252  0.2447 -0.1686
  705MOL0     O95098   1.558   7.714   1.138  0.8453  0.9865  0.5366
  705MOL0     C95099   1.648   7.624   1.059  1.0175 -1.0403  0.3258
  705MOL0     C95100   1.588   7.481   1.065  0.5909  0.2812  0.2230
  705MOL0     C95101   1.467   7.471   0.956 -0.3898 -0.0357 -0.8574
  705MOL0     C95102   1.436   7.323   0.911  0.4435 -1.0177  0.0405
  705MOL0     C95103   1.390   7.254   1.027  0.4324  0.2386 -0.1772
  705MOL0     C95104   1.336   7.184   1.113  0.2881 -0.5273 -0.0103
  705MOL0     C95105   1.477   7.927   1.178  1.6590 -0.6785  0.1214
  705MOL0     C95106   1.483   8.067   1.165  0.3092 -0.4189 -0.5453
  705MOL0     C95107   1.365   8.157   1.188  0.0810 -0.6652 -0.2254
  705MOL0     H95108   1.745   8.522   1.070  0.0995 -0.3398 -0.0619
  705MOL0     H95109   1.732   8.756   1.143  0.1501 -0.6919 -1.1918
  705MOL0     H95110   1.430   9.006   1.360 -1.6982 -0.2278  3.0766
  705MOL0     H95111   1.304   8.910   1.287  0.3666  1.2174  1.3228
  705MOL0     H95112   1.522   8.821   1.498 -0.0958 -0.4356 -0.0239
  705MOL0     H95113   1.397   8.712   1.439  4.6763 -1.1889 -0.2826
  705MOL0     H95114   1.226   8.862   1.517  1.0254 -0.7282 -1.3358
  705MOL0     H95115   1.340   8.972   1.581 -2.8829  0.8533 -1.2560
  705MOL0     H95116   1.315   8.680   1.663  0.6547  0.1095 -1.0441
  705MOL0     H95117   1.435   8.779   1.720  0.6254  1.2022  0.0110
  705MOL0     H95118   1.132   8.822   1.757 -1.4397  0.9030  3.6479
  705MOL0     H95119   1.242   8.753   1.869 -2.2464  0.0425 -0.3064
  705MOL0     H95120   1.360   9.000   1.840 -0.5902  1.2477  0.1249
  705MOL0     H95121   1.187   9.055   1.805 -0.3202  3.4506  4.4579
  705MOL0     H95122   1.300   8.899   2.039 -0.6170  0.1046  0.4154
  705MOL0     H95123   1.131   8.931   2.013 -0.8857  0.6315 -1.8383
  705MOL0     H95124   1.353   9.138   2.013  1.0165 -2.0571  0.4731
  705MOL0     H95125   1.183   9.184   2.009  1.1278  1.4137 -0.7768
  705MOL0     H95126   1.430   9.102   2.277 -1.0759 -0.1544 -2.1691
  705MOL0     H95127   1.419   9.130   2.530  0.7123 -0.6823  1.8589
  705MOL0     H95128   1.297   9.240   2.588 -2.2440  0.4491 -3.3657
  705MOL0     H95129   1.287   9.017   2.721 -2.0509  1.2206 -0.0141
  705MOL0     H95130   1.152   9.032   2.635 -0.3632 -2.1450 -1.7127
  705MOL0     H95131   1.278   8.795   2.607  0.1703  0.1919  1.6425
  705MOL0     H95132   1.411   8.862   2.546 -0.3826  2.0891  3.9687
  705MOL0     H95133   1.299   8.891   2.320 -0.5884  0.0575 -1.5026
  705MOL0     H95134   1.142   8.891   2.416  1.4703  0.8339  2.2506
  705MOL0     H95135   1.045   8.813   2.217  1.9296  0.0196 -3.1473
  705MOL0     H95136   0.958   8.702   2.046 -0.4419 -0.6056  0.4014
  705MOL0     H95137   0.795   8.608   1.695 -1.4937 -1.7548 -2.4395
  705MOL0     H95138   0.778   8.615   1.446  1.7845  2.7235 -1.8883
  705MOL0     H95139   0.995   8.726   1.315 -1.4393  0.3762  0.3955
  705MOL0     H95140   1.059   8.645   1.169  1.8874 -2.3313  3.5542
  705MOL0     H95141   0.775   8.730   1.235  1.8043  1.0456  1.9657
  705MOL0     H95142   0.870   8.747   1.077  0.0266 -0.8435  0.4124
  705MOL0     H95143   0.751   8.498   1.185 -2.0506  1.3072  1.2238
  705MOL0     H95144   0.685   8.606   1.062  0.0603  3.2619  3.2983
  705MOL0     H95145   0.961   8.488   1.025  0.4012  2.5616  0.3269
  705MOL0     H95146   0.882   8.589   0.912  0.8889 -0.1836 -0.2116
  705MOL0     H95147   0.691   8.440   0.868  0.6932 -0.1399 -1.1507
  705MOL0     H95148   0.723   8.345   1.016  0.0724 -0.5841 -0.9648
  705MOL0     H95149   0.915   8.333   0.783  0.1450  0.3657  0.0496
  705MOL0     H95150   0.907   8.244   0.926 -0.3326 -0.7181 -0.0068
  705MOL0     H95151   0.686   8.151   0.847  0.4093  1.1897  1.5715
  705MOL0     H95152   0.831   8.106   0.741 -1.7486 -0.7459 -0.3510
  705MOL0     H95153   0.620   8.314   0.667 -3.5836 -3.3233 -0.9820
  705MOL0     H95154   0.788   8.287   0.608  0.4885  0.7249  0.5516
  705MOL0     H95155   1.156   8.401   1.441 -0.2713 -0.6873 -0.8750
  705MOL0     H95156   1.156   8.383   1.680 -1.3508 -0.8027 -0.2271
  705MOL0     H95157   1.221   8.374   2.099 -4.2770 -0.2285  2.6287
  705MOL0     H95158   1.332   8.509   2.291 -1.0529 -0.2771  1.1168
  705MOL0     H95159   1.296   8.676   1.200  0.4904 -0.7479  0.5223
  705MOL0     H95160   1.321   8.454   1.107 -0.2883  0.0932 -0.5128
  705MOL0     H95161   1.810   8.070   1.072 -0.0477  1.2534 -1.8719
  705MOL0     H95162   1.778   7.833   1.060  0.7872 -1.0074  2.8080
  705MOL0     H95163   1.744   7.625   1.110  0.9669  0.0733  0.4191
  705MOL0     H95164   1.654   7.657   0.955 -1.6100 -3.2732 -0.6667
  705MOL0     H95165   1.536   7.471   1.161 -1.1856  1.7147 -0.5380
  705MOL0     H95166   1.668   7.408   1.049  0.0910  0.3107 -3.1171
  705MOL0     H95167   1.496   7.520   0.863 -0.9296 -5.2044 -4.1709
  705MOL0     H95168   1.383   7.526   1.000  1.6666  0.4238  2.9196
  705MOL0     H95169   1.360   7.320   0.833 -2.8037 -0.3837  2.9497
  705MOL0     H95170   1.532   7.282   0.877  0.5982  1.0995 -2.4451
  705MOL0     H95171   1.270   7.116   1.162 -0.0597  0.3079  0.7214
  705MOL0     H95172   1.386   7.879   1.214  1.3491  1.8426  3.1664
  705MOL0     H95173   1.403   8.240   1.249  0.5474  1.1759 -2.8655
  705MOL0     H95174   1.310   8.193   1.100  1.7872  3.9036  0.3166
  705MOL0     H95175   1.285   8.111   1.247  1.3406 -2.5529  0.0753
  706MOL0     O95176   0.154   3.623   4.411 -0.0184  0.1345  0.3287
  706MOL0     C95177   0.141   3.603   4.292 -0.3223  1.0018  0.0968
  706MOL0     O95178   0.047   3.512   4.242 -0.6844 -0.0560  0.0082
  706MOL0     C95179  -0.056   3.473   4.319 -0.6374  0.0032 -0.0983
  706MOL0     C95180  -0.045   3.400   4.436 -0.4126  1.2312  0.4039
  706MOL0     C95181  -0.157   3.373   4.523 -0.9418  0.0030  0.8238
  706MOL0     C95182  -0.286   3.404   4.474  0.1891 -0.3879  0.3259
  706MOL0     O95183  -0.400   3.373   4.544  0.0695  0.2547 -0.0536
  706MOL0     C95184  -0.394   3.257   4.627  0.9237  0.1574 -0.0618
  706MOL0     C95185  -0.538   3.213   4.679 -0.8412 -0.1574 -0.4406
  706MOL0     C95186  -0.625   3.149   4.569 -0.8075  0.0420  0.3610
  706MOL0     C95187  -0.763   3.116   4.605  0.1639 -0.1158 -0.4436
  706MOL0     C95188  -0.816   2.993   4.544  0.3394  0.4362  0.1997
  706MOL0     C95189  -0.842   3.019   4.393 -0.4595  0.7204  0.1003
  706MOL0     C95190  -0.939   3.135   4.364  0.1425 -0.0862 -0.4691
  706MOL0     C95191  -0.998   3.108   4.226 -0.4067 -0.1080 -0.3863
  706MOL0     N95192  -1.055   3.227   4.162  0.0193 -0.0122  0.2249
  706MOL0     C95193  -1.134   3.322   4.221 -1.3494  0.0555 -0.5007
  706MOL0     C95194  -1.143   3.420   4.124  0.2436  0.4043  0.4331
  706MOL0     C95195  -1.201   3.554   4.117 -0.1414 -0.7327 -0.6109
  706MOL0     C95196  -1.146   3.654   4.228  0.8573  1.3082 -0.3166
  706MOL0     C95197  -0.997   3.683   4.202 -0.8684  0.0718  0.7570
  706MOL0     C95198  -0.938   3.811   4.267 -0.6673 -0.2173  0.0350
  706MOL0     O95199  -0.924   3.905   4.166  0.8848 -1.0561 -0.1572
  706MOL0     C95200  -0.881   4.030   4.207 -0.0881  0.9991  0.0419
  706MOL0     C95201  -0.889   4.127   4.111 -0.2182 -0.0124 -0.3452
  706MOL0     C95202  -0.845   4.258   4.142 -0.3153  0.9392  0.1134
  706MOL0     C95203  -0.805   4.289   4.268 -0.1521 -0.2819 -0.1459
  706MOL0     C95204  -0.754   4.429   4.286 -0.2046  0.4719 -0.3082
  706MOL0     O95205  -0.724   4.457   4.412  0.8203 -1.2362 -0.3397
  706MOL0     C95206  -0.695   4.587   4.446  0.4754 -0.7684  0.6198
  706MOL0     C95207  -0.797   4.679   4.475 -0.0031  0.2687  0.7347
  706MOL0     C95208  -0.775   4.812   4.511  0.6411 -0.5417 -0.5887
  706MOL0     C95209  -0.644   4.852   4.532  0.2437 -0.4364 -0.0267
  706MOL0     O95210  -0.632   4.987   4.550 -0.5267  0.0906 -0.3108
  706MOL0     C95211  -0.698   5.059   4.659  0.0027 -0.0782  0.3925
  706MOL0     C95212  -0.784   5.171   4.598  0.3871  0.5983 -0.1571
  706MOL0     C95213  -0.852   5.250   4.714  0.2824  0.3143 -0.2190
  706MOL0     C95214  -0.978   5.328   4.674  0.5629  0.2173  0.5439
  706MOL0     C95215  -1.039   5.386   4.797  0.5319  0.3785 -0.3613
  706MOL0     C95216  -1.133   5.508   4.771 -0.0830  0.5348  0.2873
  706MOL0     C95217  -1.250   5.443   4.689  0.3887  0.0085 -0.1015
  706MOL0     C95218  -1.387   5.516   4.701 -0.5844 -0.2970 -0.0544
  706MOL0    Cl95219  -1.358   5.693   4.684 -0.2955 -0.0469  0.1579
  706MOL0     C95220  -0.544   4.761   4.518  0.4391  0.5796 -0.0153
  706MOL0     C95221  -0.574   4.626   4.482 -0.6987 -0.9214 -0.2842
  706MOL0     O95222  -0.764   4.511   4.192  0.7786 -0.5136 -0.0355
  706MOL0     C95223  -0.802   4.194   4.370 -0.5878 -0.0111 -0.2888
  706MOL0     C95224  -0.834   4.060   4.340  0.0560 -0.7372 -0.1933
  706MOL0     N95225  -1.081   3.375   4.004 -0.3248  0.2311 -1.3426
  706MOL0     N95226  -1.035   3.267   4.035 -0.4639 -0.3007 -0.5268
  706MOL0     C95227  -0.298   3.458   4.348  0.3322 -0.0032 -0.0882
  706MOL0     C95228  -0.183   3.501   4.275  0.9273 -0.2367 -0.7617
  706MOL0     C95229   0.243   3.653   4.191  0.3811 -0.5375  0.2631
  706MOL0     C95230   0.264   3.585   4.059 -0.3195  0.3632  0.4692
  706MOL0     C95231   0.342   3.649   3.961  1.1336  1.0768 -0.0324
  706MOL0     C95232   0.414   3.763   3.987 -0.6338 -0.3317 -0.4480
  706MOL0     O95233   0.490   3.811   3.883  0.3191  0.3359  0.4660
  706MOL0     C95234   0.508   3.950   3.867  0.1395 -0.4154  0.5815
  706MOL0     C95235   0.551   3.996   3.730 -0.0896  0.0434 -0.4474
  706MOL0     C95236   0.426   4.023   3.646  0.3402  0.1499  0.6770
  706MOL0     C95237   0.373   3.889   3.588 -1.0293  0.0071 -0.3942
  706MOL0     C95238   0.415   3.857   3.453  0.1966 -0.0946  0.1502
  706MOL0     C95239   0.439   3.832   3.339  0.8856  0.1490  0.2975
  706MOL0     C95240   0.405   3.822   4.111  0.3444  0.7098 -0.3204
  706MOL0     C95241   0.324   3.774   4.208 -0.6821 -0.5470 -0.4937
  706MOL0     C95242   0.336   3.838   4.346 -0.6690  0.3743 -1.0853
  706MOL0     H95243   0.054   3.369   4.471 -0.6283  1.4130  1.1848
  706MOL0     H95244  -0.136   3.333   4.622  4.0030  1.4664  0.6219
  706MOL0     H95245  -0.338   3.179   4.575  2.3184  0.2244  1.3015
  706MOL0     H95246  -0.337   3.283   4.716  2.5902  1.4812 -1.4435
  706MOL0     H95247  -0.592   3.300   4.717 -1.4157 -1.8428  2.9744
  706MOL0     H95248  -0.525   3.142   4.761 -3.4643  0.4751  0.6330
  706MOL0     H95249  -0.570   3.062   4.531 -1.5198 -0.3162  0.1209
  706MOL0     H95250  -0.637   3.219   4.486 -2.7943 -0.3128  0.2985
  706MOL0     H95251  -0.772   3.105   4.714  0.3174 -2.1101 -0.5990
  706MOL0     H95252  -0.824   3.204   4.580  0.0079 -0.3969 -1.0670
  706MOL0     H95253  -0.739   2.918   4.562 -0.0715  0.5512  2.9113
  706MOL0     H95254  -0.908   2.951   4.587  0.0634 -3.0718 -3.2631
  706MOL0     H95255  -0.751   3.015   4.332 -0.5301  1.3871 -0.0539
  706MOL0     H95256  -0.893   2.926   4.364 -1.6172  0.9494  1.3275
  706MOL0     H95257  -0.888   3.232   4.363  0.3606 -0.0334  3.3262
  706MOL0     H95258  -1.005   3.132   4.451  1.3696  1.0939  0.5257
  706MOL0     H95259  -0.927   3.053   4.163 -0.3568 -2.9112  1.8915
  706MOL0     H95260  -1.080   3.035   4.235 -1.9757  1.3294 -2.1989
  706MOL0     H95261  -1.161   3.332   4.326  3.0094 -0.4723  0.8832
  706MOL0     H95262  -1.189   3.596   4.016 -3.8597 -0.5978 -1.1255
  706MOL0     H95263  -1.308   3.537   4.126  0.0332 -2.7238 -1.7868
  706MOL0     H95264  -1.216   3.739   4.225 -2.2881 -0.8201  3.4347
  706MOL0     H95265  -1.168   3.618   4.329 -0.4182 -1.9266 -1.6009
  706MOL0     H95266  -0.984   3.699   4.095  1.2153  0.7767  1.0720
  706MOL0     H95267  -0.933   3.600   4.232  2.4624  2.3397  0.3777
  706MOL0     H95268  -0.835   3.792   4.301 -0.9602 -1.2130  0.4137
  706MOL0     H95269  -0.983   3.841   4.362  4.7320  0.3707  2.8404
  706MOL0     H95270  -0.907   4.102   4.007  0.2638  0.6416 -0.5969
  706MOL0     H95271  -0.848   4.339   4.069  1.6511  0.1833 -0.8955
  706MOL0     H95272  -0.900   4.644   4.469 -0.4970  1.4939  1.6279
  706MOL0     H95273  -0.848   4.892   4.519 -0.0906 -1.2736  0.2533
  706MOL0     H95274  -0.748   4.992   4.730  0.8665 -1.5078 -0.3196
  706MOL0     H95275  -0.620   5.117   4.709 -0.1681  0.3605  0.1559
  706MOL0     H95276  -0.719   5.238   4.541  1.0026 -0.3737 -0.6107
  706MOL0     H95277  -0.855   5.120   4.532  0.5605 -0.7042  0.6401
  706MOL0     H95278  -0.883   5.180   4.792  0.6813  0.2134 -0.1440
  706MOL0     H95279  -0.784   5.320   4.765  0.5491 -1.1817  1.5573
  706MOL0     H95280  -1.051   5.258   4.633 -0.9657  1.5658  0.8598
  706MOL0     H95281  -0.948   5.391   4.589 -1.8976 -1.6545 -1.8923
  706MOL0     H95282  -0.971   5.413   4.879  1.8643 -0.0916 -1.2870
  706MOL0     H95283  -1.095   5.302   4.839 -0.7267  2.2376  1.9381
  706MOL0     H95284  -1.158   5.563   4.863 -0.7745  3.8415 -1.7039
  706MOL0     H95285  -1.081   5.586   4.715  2.3539 -2.4306 -1.8612
  706MOL0     H95286  -1.269   5.340   4.721 -2.4235  0.5102  0.1377
  706MOL0     H95287  -1.216   5.437   4.585  2.0425  3.6995  0.0807
  706MOL0     H95288  -1.463   5.492   4.625 -1.2843  0.1222  0.4943
  706MOL0     H95289  -1.423   5.502   4.803 -3.4657  2.0178 -0.6068
  706MOL0     H95290  -0.445   4.805   4.526 -0.3413  2.0704  4.6351
  706MOL0     H95291  -0.493   4.553   4.480  2.1100  1.8638  1.8269
  706MOL0     H95292  -0.769   4.217   4.471 -2.3777 -2.8028  1.0618
  706MOL0     H95293  -0.833   3.992   4.425 -1.1748 -0.1350  0.3288
  706MOL0     H95294  -0.395   3.488   4.310  0.5933  1.6317  0.4580
  706MOL0     H95295  -0.200   3.566   4.190  0.2178 -0.9411 -1.1720
  706MOL0     H95296   0.207   3.494   4.046  1.4570 -0.7812  0.3086
  706MOL0     H95297   0.364   3.597   3.869  3.5140  1.2817  0.3721
  706MOL0     H95298   0.590   3.983   3.932 -0.1994  0.7627  0.4379
  706MOL0     H95299   0.421   4.003   3.907  2.1224  2.1597  1.8238
  706MOL0     H95300   0.617   3.927   3.676  0.4477  0.5779 -0.4930
  706MOL0     H95301   0.598   4.093   3.753 -1.1449  0.0485  2.0076
  706MOL0     H95302   0.443   4.090   3.561 -2.9404  0.7720  0.3744
  706MOL0     H95303   0.354   4.081   3.705 -2.6368  0.9248 -3.3216
  706MOL0     H95304   0.392   3.808   3.658  0.0587  0.5261 -0.0632
  706MOL0     H95305   0.266   3.906   3.600 -0.8018 -0.3691  3.0600
  706MOL0     H95306   0.449   3.789   3.242 -5.9358  0.9808 -1.2655
  706MOL0     H95307   0.464   3.905   4.148  1.0152 -0.2856  0.9621
  706MOL0     H95308   0.404   3.924   4.350 -0.5519  0.5038 -4.0409
  706MOL0     H95309   0.238   3.855   4.390 -0.9807 -1.2573 -1.1122
  706MOL0     H95310   0.384   3.776   4.422  0.1861  0.7718 -1.2815
  707MOL0     O95311   8.072   5.813   7.088 -0.3243  0.2750 -0.1980
  707MOL0     C95312   7.997   5.904   7.115  0.3646 -1.1187 -0.3387
  707MOL0     O95313   7.979   6.023   7.054 -0.9406  0.2766  0.3427
  707MOL0     C95314   8.058   6.071   6.950 -0.7702  0.2010  0.5545
  707MOL0     C95315   8.062   6.213   6.915  0.4098  0.0394 -0.5836
  707MOL0     C95316   8.128   6.260   6.799  0.1090 -0.6233  0.1329
  707MOL0     C95317   8.166   6.165   6.703  0.0199 -0.0648 -0.4021
  707MOL0     O95318   8.196   6.188   6.576  0.4637 -0.0010  1.0492
  707MOL0     C95319   8.158   6.318   6.519 -0.0558  0.0108 -0.1685
  707MOL0     C95320   8.195   6.296   6.370  0.6689 -1.6565 -0.2988
  707MOL0     C95321   8.145   6.413   6.289 -0.3845  0.7805  0.1494
  707MOL0     C95322   8.132   6.361   6.136 -0.1315  0.9344 -0.1346
  707MOL0     C95323   8.148   6.489   6.053 -0.3928  0.7006  0.4674
  707MOL0     C95324   8.107   6.474   5.906 -0.0305 -0.0308 -0.3980
  707MOL0     C95325   8.136   6.597   5.819 -0.2391  0.1662  0.4567
  707MOL0     C95326   8.280   6.620   5.752  0.3764  0.0202 -0.0023
  707MOL0     N95327   8.371   6.695   5.838  0.5261  0.3575 -0.3811
  707MOL0     C95328   8.460   6.627   5.921 -0.0178 -0.2981  0.4396
  707MOL0     C95329   8.531   6.730   5.973 -0.2120  0.6449  0.1589
  707MOL0     C95330   8.650   6.733   6.063  0.0377 -0.5422  0.1368
  707MOL0     C95331   8.609   6.656   6.191  0.1366 -0.5219 -0.3174
  707MOL0     C95332   8.510   6.729   6.272  0.9365  0.5228  0.5566
  707MOL0     C95333   8.472   6.669   6.405  0.2911  0.2419 -0.3435
  707MOL0     O95334   8.590   6.630   6.481  0.7802 -0.5552  0.4793
  707MOL0     C95335   8.559   6.582   6.610 -0.4202 -0.9073 -0.1981
  707MOL0     C95336   8.515   6.671   6.713 -0.5074 -0.1202  0.2254
  707MOL0     C95337   8.481   6.604   6.839 -0.3444  0.4034 -0.3439
  707MOL0     C95338   8.472   6.465   6.840  0.0138  0.5851  0.7994
  707MOL0     C95339   8.414   6.400   6.957  1.5229  0.5680 -0.9683
  707MOL0     O95340   8.449   6.270   6.988 -0.3416  0.2937  0.1987
  707MOL0     C95341   8.445   6.225   7.120  0.1959  0.1775  0.9500
  707MOL0     C95342   8.448   6.083   7.152  0.0364 -0.6424  0.1079
  707MOL0     C95343   8.439   6.032   7.280  0.0397  0.5851 -1.0181
  707MOL0     C95344   8.432   6.117   7.390  0.2577  0.3300  0.6145
  707MOL0     O95345   8.433   6.069   7.518 -0.3625 -0.0524  0.6950
  707MOL0     C95346   8.356   6.134   7.625  0.6869 -0.3178  0.6844
  707MOL0     C95347   8.328   6.016   7.716 -0.0859  0.1893  0.1184
  707MOL0     C95348   8.238   6.045   7.830 -0.4347  0.2360 -0.1801
  707MOL0     C95349   8.240   5.938   7.948  1.3364 -0.2477  0.0295
  707MOL0     C95350   8.153   5.985   8.055  0.1120  0.4747 -0.1852
  707MOL0     C95351   8.008   5.931   8.044 -0.1763  0.4659  0.6973
  707MOL0     C95352   7.916   5.940   8.166  0.1946 -0.5102 -0.1223
  707MOL0     C95353   7.927   6.079   8.227  0.4251 -0.2067 -0.0949
  707MOL0    Cl95354   7.916   6.218   8.103 -0.0047 -0.1733 -0.2115
  707MOL0     C95355   8.435   6.258   7.372 -0.1465  0.0640 -1.0589
  707MOL0     C95356   8.444   6.308   7.239  0.7541  0.6330  0.2107
  707MOL0     O95357   8.338   6.467   7.022  0.6923 -0.3874 -0.8592
  707MOL0     C95358   8.513   6.388   6.735  0.1505 -0.0307 -0.1457
  707MOL0     C95359   8.561   6.449   6.618  0.5106  0.4956  0.1072
  707MOL0     N95360   8.484   6.843   5.934  0.3855  0.4234  0.1536
  707MOL0     N95361   8.385   6.828   5.852  0.0728 -0.3103  0.3913
  707MOL0     C95362   8.163   6.028   6.740 -0.9746  0.1352  0.2866
  707MOL0     C95363   8.101   5.978   6.860 -0.2045 -0.5323  0.4054
  707MOL0     C95364   7.912   5.896   7.238  0.5568 -0.3720  0.9362
  707MOL0     C95365   7.961   5.960   7.348  0.3024 -0.7544  0.1045
  707MOL0     C95366   7.910   5.941   7.476 -0.2326 -0.2307  0.8208
  707MOL0     C95367   7.797   5.865   7.493  0.8895  0.6151  0.2538
  707MOL0     O95368   7.754   5.847   7.621 -0.0898 -0.3637 -0.2769
  707MOL0     C95369   7.617   5.796   7.643  0.0604 -0.3098  0.3990
  707MOL0     C95370   7.585   5.774   7.790 -0.3857  0.7362 -0.0526
  707MOL0     C95371   7.677   5.670   7.858 -0.1085 -0.4363  0.3054
  707MOL0     C95372   7.638   5.625   7.996 -0.8601 -0.6670  0.5053
  707MOL0     C95373   7.620   5.734   8.096 -0.3633  0.2961 -0.7522
  707MOL0     C95374   7.596   5.817   8.180  0.1753 -0.7354  0.5558
  707MOL0     C95375   7.733   5.802   7.379  0.0075 -0.0765  0.0225
  707MOL0     C95376   7.799   5.810   7.248  0.3198  0.2959 -0.4518
  707MOL0     C95377   7.735   5.730   7.139 -0.7295 -0.6277  0.5378
  707MOL0     H95378   8.010   6.274   6.987 -3.8665 -1.2054 -2.3151
  707MOL0     H95379   8.137   6.366   6.777 -0.7323 -0.4676  0.5183
  707MOL0     H95380   8.050   6.336   6.517 -0.0614  0.0944 -3.4058
  707MOL0     H95381   8.209   6.398   6.574 -1.7427 -0.1683  1.7978
  707MOL0     H95382   8.132   6.210   6.344 -1.8132 -0.4140  1.2091
  707MOL0     H95383   8.300   6.291   6.340  0.0307 -0.3289 -3.1386
  707MOL0     H95384   8.213   6.498   6.285  2.4325 -1.2967 -4.2892
  707MOL0     H95385   8.058   6.454   6.341  0.3797  2.2651  0.2925
  707MOL0     H95386   8.190   6.279   6.094  0.0057  1.2977 -0.6557
  707MOL0     H95387   8.028   6.328   6.132  0.2491 -0.5171  1.0305
  707MOL0     H95388   8.093   6.563   6.112  1.0507  1.3561  1.0360
  707MOL0     H95389   8.250   6.525   6.041  0.7079 -2.2663  0.1596
  707MOL0     H95390   8.157   6.395   5.849 -0.9998 -0.0061 -1.3171
  707MOL0     H95391   7.999   6.456   5.905  0.0247 -0.3855 -0.1025
  707MOL0     H95392   8.105   6.693   5.862 -0.0892  2.0198 -3.1769
  707MOL0     H95393   8.073   6.586   5.730 -2.1687  0.5797  1.7099
  707MOL0     H95394   8.334   6.527   5.733  1.9111  1.1930 -1.8035
  707MOL0     H95395   8.276   6.670   5.655 -0.5265 -2.6538 -1.4308
  707MOL0     H95396   8.462   6.521   5.944 -1.3206 -0.6879 -1.0676
  707MOL0     H95397   8.741   6.689   6.021 -2.0573 -3.3354 -1.8879
  707MOL0     H95398   8.681   6.836   6.080 -2.0413  0.3831 -1.2501
  707MOL0     H95399   8.569   6.560   6.157  0.1768 -0.4279 -0.6409
  707MOL0     H95400   8.698   6.627   6.248 -0.9258 -1.9053  0.6846
  707MOL0     H95401   8.419   6.769   6.226  2.0297  1.2958 -1.0406
  707MOL0     H95402   8.576   6.814   6.287  0.4436  0.8322  0.9979
  707MOL0     H95403   8.431   6.573   6.374  2.1963 -0.0540 -2.2247
  707MOL0     H95404   8.400   6.722   6.468 -1.1175  0.6753 -2.2099
  707MOL0     H95405   8.514   6.780   6.711 -1.9306 -0.1184 -0.5317
  707MOL0     H95406   8.456   6.659   6.929 -1.2159 -3.0978  1.7229
  707MOL0     H95407   8.429   6.024   7.063  1.8828 -0.9086 -0.1296
  707MOL0     H95408   8.439   5.924   7.293  1.3470  0.7895  1.0952
  707MOL0     H95409   8.411   6.209   7.683  0.2953 -0.6784  1.5435
  707MOL0     H95410   8.266   6.177   7.581  1.0801  0.2558  0.4324
  707MOL0     H95411   8.277   5.939   7.658  2.0346 -2.8018  1.9026
  707MOL0     H95412   8.422   5.977   7.758 -0.4276 -0.8781 -0.0684
  707MOL0     H95413   8.275   6.130   7.887 -0.9971 -0.2494  0.9403
  707MOL0     H95414   8.136   6.056   7.792 -1.3999 -2.8120  1.1562
  707MOL0     H95415   8.339   5.933   7.994  1.5941  0.0251 -0.4809
  707MOL0     H95416   8.223   5.839   7.903 -1.6102  1.8156 -3.9907
  707MOL0     H95417   8.161   6.094   8.066  6.0193  0.3702 -0.3161
  707MOL0     H95418   8.195   5.949   8.149  2.1887  0.5604 -1.0198
  707MOL0     H95419   7.962   5.973   7.953  0.8559 -0.0927 -0.1092
  707MOL0     H95420   8.005   5.823   8.026 -0.6599  0.6124 -0.1833
  707MOL0     H95421   7.943   5.869   8.244 -2.2288 -0.6334  0.6833
  707MOL0     H95422   7.819   5.922   8.119 -0.0997  0.8677 -0.0947
  707MOL0     H95423   7.852   6.078   8.307  0.3042  0.4364 -0.1969
  707MOL0     H95424   8.026   6.073   8.274  1.0155 -3.6814 -1.5258
  707MOL0     H95425   8.427   6.316   7.464 -1.3116 -0.6796 -0.6600
  707MOL0     H95426   8.444   6.417   7.237  0.8373  0.6303 -0.0580
  707MOL0     H95427   8.499   6.281   6.737  1.1863 -0.1702  0.2592
  707MOL0     H95428   8.592   6.393   6.530 -0.5897  0.6729 -0.4184
  707MOL0     H95429   8.188   5.956   6.662  1.3853 -0.6584  1.6735
  707MOL0     H95430   8.077   5.872   6.862  0.8535 -1.0362 -3.9177
  707MOL0     H95431   8.046   6.020   7.321 -1.0541  1.3204  0.2107
  707MOL0     H95432   7.959   5.983   7.563  4.5069  1.5262 -2.2866
  707MOL0     H95433   7.595   5.706   7.585 -0.2348 -0.6127  0.9685
  707MOL0     H95434   7.552   5.878   7.612  1.3415  0.8912  0.7858
  707MOL0     H95435   7.481   5.745   7.807 -0.2033  0.5764  0.8668
  707MOL0     H95436   7.592   5.867   7.848 -3.5729  1.3260 -0.4114
  707MOL0     H95437   7.778   5.710   7.860  0.0362 -0.3698 -2.8804
  707MOL0     H95438   7.684   5.576   7.802  1.6776 -0.8005  1.0835
  707MOL0     H95439   7.546   5.567   7.985 -1.6592  0.7350 -0.6425
  707MOL0     H95440   7.719   5.559   8.029 -2.4887 -2.9989  0.0942
  707MOL0     H95441   7.573   5.897   8.247  0.0626  1.0273 -1.4780
  707MOL0     H95442   7.635   5.756   7.387 -0.3579  1.0241  3.2268
  707MOL0     H95443   7.712   5.788   7.048  0.3318 -0.2694  0.4848
  707MOL0     H95444   7.805   5.657   7.098  1.8619  2.1353 -0.3291
  707MOL0     H95445   7.646   5.681   7.180  1.2192 -2.6627  2.5967
  708MOL0     O95446  10.437   3.606   8.007 -0.1754 -0.3319  0.6329
  708MOL0     C95447  10.537   3.654   7.952  0.5277  0.1668 -0.5422
  708MOL0     O95448  10.660   3.592   7.962  0.4767  0.1754 -0.0042
  708MOL0     C95449  10.660   3.450   7.964 -0.0787  0.0273  0.9849
  708MOL0     C95450  10.666   3.371   8.085  0.4526  0.7827  0.3124
  708MOL0     C95451  10.665   3.228   8.078  0.4923 -0.2342 -0.1362
  708MOL0     C95452  10.658   3.172   7.954 -0.3625  0.0227 -0.4204
  708MOL0     O95453  10.667   3.039   7.937  0.0655  0.0787 -0.2638
  708MOL0     C95454  10.563   2.964   8.009  1.4285 -0.6800  0.6655
  708MOL0     C95455  10.431   2.943   7.934  0.4258  0.2320 -0.4530
  708MOL0     C95456  10.325   3.026   8.006  0.3357  0.2125 -0.1823
  708MOL0     C95457  10.180   3.027   7.945  0.0083  0.1769  1.1375
  708MOL0     C95458  10.173   3.054   7.789 -0.0112 -0.8697 -1.4888
  708MOL0     C95459  10.242   3.175   7.730  0.6190  0.2219 -0.0182
  708MOL0     C95460  10.195   3.315   7.786 -0.2871  0.3972 -0.1187
  708MOL0     C95461  10.230   3.431   7.701 -0.0871  0.1341 -1.1002
  708MOL0     N95462  10.139   3.443   7.584 -0.6485  0.9417  0.3755
  708MOL0     C95463  10.008   3.473   7.580  0.7535 -0.4455 -0.2978
  708MOL0     C95464   9.974   3.483   7.447  0.1092  0.2038  0.3355
  708MOL0     C95465   9.841   3.497   7.374  0.6974  0.2439 -0.2074
  708MOL0     C95466   9.790   3.644   7.373 -0.7009 -0.4088 -0.3724
  708MOL0     C95467   9.786   3.708   7.520 -0.3011 -0.7468  0.1858
  708MOL0     C95468   9.690   3.650   7.618 -0.5470 -1.0381  0.1406
  708MOL0     O95469   9.730   3.673   7.750  0.3516 -0.5809 -0.3357
  708MOL0     C95470   9.708   3.788   7.814  0.7707 -0.6136  0.0720
  708MOL0     C95471   9.593   3.860   7.818 -0.3670  0.6107 -1.0079
  708MOL0     C95472   9.566   3.975   7.910  0.3427  1.6298  0.7229
  708MOL0     C95473   9.685   4.024   7.976  0.1720  0.2165  0.2964
  708MOL0     C95474   9.668   4.135   8.074  1.2319  0.9885 -0.1036
  708MOL0     O95475   9.779   4.190   8.128 -0.0482 -1.2683  0.7753
  708MOL0     C95476   9.789   4.284   8.230  0.0345  0.9452 -0.2612
  708MOL0     C95477   9.693   4.301   8.329 -0.6257 -0.0608 -0.7531
  708MOL0     C95478   9.726   4.379   8.441  0.3464  0.7042  1.3466
  708MOL0     C95479   9.849   4.445   8.449  0.6475  0.1553  0.2952
  708MOL0     O95480   9.886   4.527   8.556  0.8964 -0.0893  0.4637
  708MOL0     C95481   9.802   4.643   8.588 -0.6510  0.7328  0.1927
  708MOL0     C95482   9.886   4.750   8.650  0.0565  0.2977  0.3527
  708MOL0     C95483   9.920   4.852   8.546 -0.3120 -0.4759  0.0551
  708MOL0     C95484  10.015   4.961   8.585  0.5976 -0.7317  0.4549
  708MOL0     C95485   9.994   5.086   8.494  0.7421  0.7905 -0.6447
  708MOL0     C95486  10.079   5.214   8.516  0.5655  0.3794 -0.7447
  708MOL0     C95487  10.042   5.313   8.399  0.3884 -0.0674 -0.5327
  708MOL0     C95488  10.157   5.397   8.334 -0.6279 -0.3942 -0.7423
  708MOL0    Cl95489  10.235   5.305   8.206 -0.0538 -0.0692  0.2403
  708MOL0     C95490   9.942   4.430   8.346  0.3317 -0.2888  0.7107
  708MOL0     C95491   9.910   4.355   8.237 -0.3879  0.2329 -0.5510
  708MOL0     O95492   9.557   4.171   8.100 -0.1657 -0.4445  0.3603
  708MOL0     C95493   9.805   3.956   7.966 -1.7723  0.0945  0.0254
  708MOL0     C95494   9.813   3.845   7.882  0.0375 -0.4090 -0.1138
  708MOL0     N95495  10.088   3.454   7.376 -0.3199 -0.0459  0.8153
  708MOL0     N95496  10.183   3.423   7.453  0.1483 -0.0989 -0.3486
  708MOL0     C95497  10.639   3.241   7.833 -0.0373 -1.0388 -0.5661
  708MOL0     C95498  10.650   3.382   7.842 -0.3386 -0.0455  0.2686
  708MOL0     C95499  10.526   3.788   7.882  0.4371 -0.2298 -0.4962
  708MOL0     C95500  10.647   3.848   7.841 -0.5481  0.0644 -0.3651
  708MOL0     C95501  10.653   3.974   7.790  0.6369 -0.0682 -0.2527
  708MOL0     C95502  10.543   4.048   7.784  0.3803 -0.0769 -0.9554
  708MOL0     O95503  10.565   4.175   7.728  0.3012 -0.0426 -0.0153
  708MOL0     C95504  10.449   4.245   7.674  1.0919 -0.5009  1.6877
  708MOL0     C95505  10.476   4.288   7.529  0.2473 -0.1799 -0.2545
  708MOL0     C95506  10.353   4.333   7.452  0.4757  0.1362  0.0045
  708MOL0     C95507  10.312   4.473   7.487 -0.1031 -1.6979 -0.7032
  708MOL0     C95508  10.406   4.578   7.439 -0.5333  0.5653 -0.1779
  708MOL0     C95509  10.485   4.654   7.383 -0.9605  0.0521 -0.5918
  708MOL0     C95510  10.423   4.001   7.825  0.1841 -0.2790 -0.6038
  708MOL0     C95511  10.408   3.869   7.866  0.0072  0.4078  0.2754
  708MOL0     C95512  10.269   3.806   7.862 -0.1880 -0.7872 -0.5231
  708MOL0     H95513  10.670   3.421   8.181 -0.8831 -1.9929  1.9260
  708MOL0     H95514  10.679   3.168   8.167  0.2251 -1.0415 -0.6317
  708MOL0     H95515  10.605   2.863   8.017 -1.3369 -1.7518  3.5215
  708MOL0     H95516  10.549   2.996   8.112 -2.2623  1.0834 -0.2015
  708MOL0     H95517  10.417   2.835   7.941  2.3323  0.0564  3.4635
  708MOL0     H95518  10.442   2.979   7.832 -1.2515  2.7138  0.1576
  708MOL0     H95519  10.368   3.126   8.022 -3.0312  1.6866  0.5629
  708MOL0     H95520  10.299   2.997   8.109 -0.9038  0.4544 -0.4149
  708MOL0     H95521  10.143   2.925   7.959 -2.0037  0.3962 -1.6137
  708MOL0     H95522  10.104   3.097   7.982 -1.8064  0.2647 -2.2498
  708MOL0     H95523  10.218   2.962   7.752  1.8846  0.2236 -2.0678
  708MOL0     H95524  10.068   3.067   7.760  0.9010  0.7526 -4.5153
  708MOL0     H95525  10.351   3.166   7.742  0.3635 -0.8566  1.9248
  708MOL0     H95526  10.222   3.168   7.623 -1.0279  0.8028  0.2325
  708MOL0     H95527  10.241   3.337   7.882 -0.9402  0.4381  0.1845
  708MOL0     H95528  10.087   3.309   7.799 -0.1082 -1.0576  1.0327
  708MOL0     H95529  10.214   3.520   7.763  2.2714  0.1693 -0.4254
  708MOL0     H95530  10.333   3.423   7.665  1.3390  1.9951  2.0678
  708MOL0     H95531   9.941   3.480   7.664  1.3761 -2.7072  0.4589
  708MOL0     H95532   9.856   3.452   7.276 -2.3583 -0.9774 -0.2366
  708MOL0     H95533   9.775   3.444   7.444  1.2278  2.4238  2.0896
  708MOL0     H95534   9.855   3.701   7.306 -2.3348 -1.6757 -3.2144
  708MOL0     H95535   9.688   3.651   7.333 -0.7069  1.1643 -0.1507
  708MOL0     H95536   9.765   3.815   7.517  3.3487  0.0511 -1.6786
  708MOL0     H95537   9.879   3.693   7.575  0.3453  4.2504  0.9207
  708MOL0     H95538   9.684   3.542   7.606  1.5295 -1.1363 -0.4843
  708MOL0     H95539   9.588   3.683   7.600 -0.1080  0.9974  1.1219
  708MOL0     H95540   9.514   3.797   7.781 -0.1122  0.5197 -1.3982
  708MOL0     H95541   9.469   4.017   7.936 -0.0875  0.9836  0.1959
  708MOL0     H95542   9.603   4.240   8.324  2.4594 -5.1252 -1.6640
  708MOL0     H95543   9.655   4.415   8.515 -1.6116  3.3781 -1.5747
  708MOL0     H95544   9.767   4.687   8.495 -0.5783  1.3691  0.4617
  708MOL0     H95545   9.716   4.628   8.654  1.3844 -0.3824  2.8108
  708MOL0     H95546   9.826   4.802   8.725  1.1331  0.0256  1.4298
  708MOL0     H95547   9.978   4.711   8.694  0.6885  1.3145 -0.0371
  708MOL0     H95548   9.969   4.803   8.460  2.3776  0.0187  1.2030
  708MOL0     H95549   9.828   4.903   8.516 -0.4806 -0.7718  0.0672
  708MOL0     H95550  10.117   4.921   8.586  0.7605 -0.3434 -0.0889
  708MOL0     H95551  10.004   4.992   8.689  4.2223  2.6434  0.0839
  708MOL0     H95552   9.888   5.115   8.503  0.7127  0.3917  0.3887
  708MOL0     H95553  10.002   5.054   8.389 -0.7747 -0.9220 -0.2786
  708MOL0     H95554  10.079   5.261   8.615  3.1821  1.2489 -1.0880
  708MOL0     H95555  10.185   5.187   8.511  0.4923  0.1760 -1.2297
  708MOL0     H95556   9.974   5.392   8.433  0.5912  1.3095 -3.0682
  708MOL0     H95557   9.991   5.267   8.314  0.6920 -1.0201 -0.2095
  708MOL0     H95558  10.106   5.469   8.269 -0.8551 -0.8574 -1.0882
  708MOL0     H95559  10.227   5.445   8.403 -1.7203  0.9262 -0.4974
  708MOL0     H95560  10.035   4.484   8.364  1.8036 -1.9726 -1.3432
  708MOL0     H95561   9.990   4.329   8.168 -0.2430 -1.9911  0.3772
  708MOL0     H95562   9.900   3.981   8.013 -0.6615  1.1256 -2.5857
  708MOL0     H95563   9.902   3.782   7.888 -2.1392 -3.6056  2.0351
  708MOL0     H95564  10.622   3.178   7.746  1.0390 -1.7566 -0.2801
  708MOL0     H95565  10.634   3.439   7.751 -3.9642 -2.8688 -1.1442
  708MOL0     H95566  10.729   3.777   7.851  1.0272  1.4247 -2.8575
  708MOL0     H95567  10.750   4.014   7.761  1.3359 -2.2467 -1.1684
  708MOL0     H95568  10.430   4.329   7.742 -0.2141  0.7451 -0.1345
  708MOL0     H95569  10.360   4.181   7.669 -0.2406  1.3943 -0.7804
  708MOL0     H95570  10.522   4.200   7.482  0.9562 -0.1743  0.4299
  708MOL0     H95571  10.549   4.369   7.530 -0.6194  0.6052  0.4365
  708MOL0     H95572  10.272   4.263   7.474  2.3707 -2.6961 -1.3721
  708MOL0     H95573  10.370   4.336   7.343 -0.3125  4.5369 -0.1957
  708MOL0     H95574  10.219   4.485   7.430 -0.4393 -4.5518 -0.9444
  708MOL0     H95575  10.282   4.475   7.592 -0.6518  1.9661 -0.8175
  708MOL0     H95576  10.546   4.713   7.318  0.2740 -0.7675 -0.1996
  708MOL0     H95577  10.337   4.066   7.840  1.1896  0.8581  0.5071
  708MOL0     H95578  10.251   3.765   7.962 -1.7394  1.7450  0.3308
  708MOL0     H95579  10.186   3.871   7.832 -0.2451 -1.0372 -0.9135
  708MOL0     H95580  10.277   3.718   7.797 -3.0326 -1.3916 -0.2247
  709MOL0     O95581   7.566   0.040   1.375  0.7276  0.1577 -0.0267
  709MOL0     C95582   7.598   0.108   1.470  0.1727  0.4346 -0.1990
  709MOL0     O95583   7.538   0.097   1.586 -0.1656  0.4235 -0.3171
  709MOL0     C95584   7.436   0.002   1.600 -0.0357 -0.2552  0.6338
  709MOL0     C95585   7.342   0.043   1.698  1.4002 -1.0156 -0.1763
  709MOL0     C95586   7.258  -0.049   1.751  0.2423  0.0205  0.3752
  709MOL0     C95587   7.251  -0.182   1.702  0.6694  0.1390 -0.3603
  709MOL0     O95588   7.170  -0.283   1.758 -0.3859  0.3475  0.0065
  709MOL0     C95589   7.068  -0.252   1.846  0.0797  1.2211 -0.1681
  709MOL0     C95590   6.968  -0.372   1.827 -1.0087 -0.1581 -0.3630
  709MOL0     C95591   6.874  -0.374   1.946  0.2311 -0.1962  0.3500
  709MOL0     C95592   6.941  -0.425   2.071  0.0159  0.0410  0.1989
  709MOL0     C95593   6.866  -0.378   2.201 -0.3819 -0.2707 -0.1545
  709MOL0     C95594   6.916  -0.446   2.329 -0.8668  0.2972  1.1431
  709MOL0     C95595   7.068  -0.425   2.367  0.7363 -0.4261  0.7205
  709MOL0     C95596   7.093  -0.467   2.514  0.4225  0.3533 -0.2626
  709MOL0     N95597   7.239  -0.480   2.530  0.2821  0.2278  0.1284
  709MOL0     C95598   7.307  -0.587   2.487 -0.5146 -0.2544  0.3843
  709MOL0     C95599   7.424  -0.596   2.555 -0.5296 -0.8940 -0.0983
  709MOL0     C95600   7.537  -0.705   2.545 -0.4803  0.0754  0.3093
  709MOL0     C95601   7.687  -0.657   2.556  0.5525  0.6716  0.2643
  709MOL0     C95602   7.734  -0.642   2.697 -0.8862  0.4684 -0.8874
  709MOL0     C95603   7.882  -0.598   2.709 -0.4260  0.1824 -0.4730
  709MOL0     O95604   7.972  -0.675   2.625 -0.0513 -0.6594  0.1639
  709MOL0     C95605   8.089  -0.609   2.637  0.0497 -0.6621  0.3729
  709MOL0     C95606   8.185  -0.653   2.724 -0.1885 -0.2903 -0.6160
  709MOL0     C95607   8.311  -0.580   2.745  0.5064  0.7862  0.4786
  709MOL0     C95608   8.338  -0.465   2.668 -0.1078  0.7805 -0.7150
  709MOL0     C95609   8.453  -0.372   2.703  1.6303  0.9347 -0.1109
  709MOL0     O95610   8.528  -0.423   2.802  0.0423 -0.0999  0.5307
  709MOL0     C95611   8.638  -0.350   2.845 -0.5248  0.4898  0.3345
  709MOL0     C95612   8.655  -0.346   2.987  0.2538 -0.0739  0.0455
  709MOL0     C95613   8.769  -0.288   3.043 -0.7081 -0.5483 -0.5405
  709MOL0     C95614   8.876  -0.232   2.963  0.6302 -0.4647 -0.6783
  709MOL0     O95615   8.981  -0.166   3.025  0.6271 -0.9034 -0.1760
  709MOL0     C95616   9.005  -0.033   2.994 -0.0684  0.7850  1.3107
  709MOL0     C95617   8.941   0.067   3.091  0.4587 -1.0033 -0.6900
  709MOL0     C95618   9.002   0.070   3.231  0.1972 -0.0924 -0.6725
  709MOL0     C95619   9.009   0.213   3.280  0.0792 -0.4291  0.6122
  709MOL0     C95620   8.878   0.259   3.355  0.2197  0.6401  0.8162
  709MOL0     C95621   8.855   0.215   3.498 -0.4906 -0.3929  0.4903
  709MOL0     C95622   8.793   0.333   3.587 -0.5221  0.5144 -0.0722
  709MOL0     C95623   8.650   0.358   3.520 -0.9602  0.1031 -0.1467
  709MOL0    Cl95624   8.576   0.481   3.627 -0.6005 -0.2932  0.1816
  709MOL0     C95625   8.852  -0.221   2.823 -0.0541  0.7978 -0.2622
  709MOL0     C95626   8.734  -0.273   2.769  0.3386 -0.2003 -0.1576
  709MOL0     O95627   8.459  -0.258   2.668 -0.3233  0.1475 -0.4906
  709MOL0     C95628   8.239  -0.428   2.571 -0.2600 -0.7497  0.9573
  709MOL0     C95629   8.117  -0.492   2.558  0.1337  1.1258 -0.3627
  709MOL0     N95630   7.417  -0.487   2.649  1.1817  0.9248 -0.4532
  709MOL0     N95631   7.303  -0.422   2.636  0.7326 -0.4576  0.1658
  709MOL0     C95632   7.343  -0.216   1.599 -0.4567  0.0722 -0.7264
  709MOL0     C95633   7.437  -0.132   1.554  0.6840 -0.2040  0.1959
  709MOL0     C95634   7.703   0.225   1.456  1.3722 -0.4047  0.1067
  709MOL0     C95635   7.690   0.330   1.549  0.6938 -0.5642 -0.4833
  709MOL0     C95636   7.767   0.439   1.528  0.1672 -0.5301  0.6807
  709MOL0     C95637   7.875   0.440   1.424  0.5072 -0.7999 -0.5112
  709MOL0     O95638   7.972   0.526   1.399  0.0025 -0.8333  0.3226
  709MOL0     C95639   7.977   0.648   1.482  0.4543  0.7211  0.3472
  709MOL0     C95640   8.073   0.752   1.425 -0.5155 -0.4208  1.0224
  709MOL0     C95641   8.013   0.813   1.295 -0.8522 -1.0251 -0.8304
  709MOL0     C95642   8.112   0.911   1.244 -0.0352  0.0591 -0.7008
  709MOL0     C95643   8.226   0.850   1.177 -0.5405  0.0749  0.8277
  709MOL0     C95644   8.324   0.807   1.116 -0.2291 -0.4126  0.3307
  709MOL0     C95645   7.884   0.337   1.339  0.7596  0.0059 -0.1570
  709MOL0     C95646   7.800   0.223   1.350 -0.7376 -0.4862 -0.2105
  709MOL0     C95647   7.814   0.117   1.249  0.7438  0.5292 -0.7851
  709MOL0     H95648   7.325   0.131   1.760  0.1543 -1.2344 -0.1727
  709MOL0     H95649   7.186  -0.009   1.821  1.3368  2.9460 -0.0209
  709MOL0     H95650   7.100  -0.250   1.951 -3.7770  2.6275  1.1220
  709MOL0     H95651   7.025  -0.155   1.824 -2.2834  0.7877  2.1329
  709MOL0     H95652   7.026  -0.465   1.827  0.2478  0.6010  0.1921
  709MOL0     H95653   6.919  -0.348   1.732  0.1221 -1.1268 -1.2330
  709MOL0     H95654   6.786  -0.434   1.921 -1.2382  1.6263  0.9208
  709MOL0     H95655   6.834  -0.274   1.965 -0.9804 -0.7716  0.9088
  709MOL0     H95656   6.942  -0.534   2.070  0.9115  0.0464 -0.4154
  709MOL0     H95657   7.046  -0.397   2.084  0.8791 -3.4819  1.7232
  709MOL0     H95658   6.863  -0.269   2.196  0.3781 -0.3087 -3.0538
  709MOL0     H95659   6.761  -0.409   2.196 -0.1717 -0.9659 -0.3626
  709MOL0     H95660   6.848  -0.408   2.406 -4.7779 -1.4453 -1.1682
  709MOL0     H95661   6.899  -0.553   2.319 -2.6817  0.7319 -1.5027
  709MOL0     H95662   7.087  -0.318   2.362  0.4413 -0.3869  0.2554
  709MOL0     H95663   7.119  -0.498   2.303 -0.1606 -2.1082  1.8326
  709MOL0     H95664   7.046  -0.390   2.577 -0.4777 -1.6489  1.6733
  709MOL0     H95665   7.038  -0.561   2.517 -2.4346  1.7844 -2.4691
  709MOL0     H95666   7.294  -0.660   2.408  0.6977  0.1069 -0.1717
  709MOL0     H95667   7.511  -0.782   2.618  1.0508  0.5697  1.4253
  709MOL0     H95668   7.526  -0.745   2.444  1.4042  2.9166 -1.1589
  709MOL0     H95669   7.755  -0.731   2.512  2.6254  0.4055  3.5735
  709MOL0     H95670   7.683  -0.563   2.500 -0.4074  0.9507  0.7751
  709MOL0     H95671   7.724  -0.734   2.754 -0.4620  0.3642 -0.9770
  709MOL0     H95672   7.673  -0.569   2.752 -0.3088  0.6852 -0.5308
  709MOL0     H95673   7.904  -0.627   2.812 -1.2110 -1.7157 -0.7949
  709MOL0     H95674   7.892  -0.490   2.702  1.0807  0.3306  2.5849
  709MOL0     H95675   8.155  -0.744   2.774  0.8121 -0.8940 -1.0788
  709MOL0     H95676   8.380  -0.627   2.815 -0.6385 -2.0942 -0.1741
  709MOL0     H95677   8.598  -0.410   3.053  0.5731 -0.4808 -0.0648
  709MOL0     H95678   8.790  -0.291   3.149  1.9750 -1.9870 -1.0198
  709MOL0     H95679   9.113  -0.021   3.004  0.1015 -0.4649  1.0713
  709MOL0     H95680   8.964  -0.004   2.897 -1.0050  1.5840  1.9229
  709MOL0     H95681   8.922   0.168   3.051 -3.1496 -1.9939 -1.7994
  709MOL0     H95682   8.841   0.027   3.104 -0.0669 -0.2637 -2.2212
  709MOL0     H95683   8.936   0.004   3.288  0.7012  0.3472  0.4269
  709MOL0     H95684   9.104   0.031   3.218 -0.2122 -0.5716 -3.0692
  709MOL0     H95685   9.029   0.287   3.201  0.1048  1.1066  2.0099
  709MOL0     H95686   9.098   0.224   3.344  1.7353  1.0989 -1.7740
  709MOL0     H95687   8.797   0.228   3.289  0.5315 -0.7401  1.0532
  709MOL0     H95688   8.877   0.369   3.349 -0.8438  0.5917 -0.2503
  709MOL0     H95689   8.791   0.127   3.498 -2.2828  0.7976 -1.7731
  709MOL0     H95690   8.953   0.185   3.536  1.4171 -1.1062 -4.2828
  709MOL0     H95691   8.859   0.418   3.570 -1.4475  1.2973  0.2055
  709MOL0     H95692   8.781   0.293   3.688  2.9953 -1.9681 -0.4721
  709MOL0     H95693   8.679   0.406   3.427  0.4670 -1.5831 -0.6177
  709MOL0     H95694   8.596   0.265   3.501  0.0424 -0.2432 -1.4171
  709MOL0     H95695   8.919  -0.157   2.767 -0.5797 -0.9536 -3.0893
  709MOL0     H95696   8.725  -0.251   2.663 -0.3439  0.3635  0.0090
  709MOL0     H95697   8.262  -0.341   2.511 -4.6592 -0.5147 -0.7272
  709MOL0     H95698   8.046  -0.458   2.483 -0.7816  1.4331  0.6101
  709MOL0     H95699   7.357  -0.322   1.580 -1.8270 -0.5616  1.3854
  709MOL0     H95700   7.514  -0.173   1.490 -1.2211 -3.2450 -0.3843
  709MOL0     H95701   7.628   0.322   1.638  1.4541  1.5415  0.3236
  709MOL0     H95702   7.750   0.532   1.580  0.3576  0.7388 -1.4263
  709MOL0     H95703   8.006   0.615   1.583 -2.5089 -1.0595  0.7523
  709MOL0     H95704   7.875   0.683   1.499  0.3416  1.5234 -1.8061
  709MOL0     H95705   8.170   0.709   1.398 -0.5417  1.3223 -2.5372
  709MOL0     H95706   8.091   0.832   1.497 -1.0494 -1.1841  2.0267
  709MOL0     H95707   7.927   0.867   1.336 -1.9199 -2.3213 -1.2919
  709MOL0     H95708   7.985   0.744   1.214  0.9680 -0.7104 -1.7911
  709MOL0     H95709   8.066   0.974   1.168  0.1852  1.3161  0.1794
  709MOL0     H95710   8.154   0.984   1.314  0.3321 -0.2648 -0.5760
  709MOL0     H95711   8.409   0.758   1.071  0.0530  2.0519 -2.0529
  709MOL0     H95712   7.970   0.349   1.275  1.3819  1.0272  0.8332
  709MOL0     H95713   7.831   0.016   1.288 -1.6622 -1.2159 -3.7472
  709MOL0     H95714   7.719   0.131   1.196  0.2420 -0.5944 -0.2188
  709MOL0     H95715   7.897   0.142   1.183 -0.0767  1.3341 -1.5337
  710MOL0     O95716   2.622   2.227   5.366  0.5645 -0.3743  0.4652
  710MOL0     C95717   2.718   2.305   5.386  0.4997 -0.0682  1.0319
  710MOL0     O95718   2.731   2.397   5.497  1.0362 -0.3190  0.5622
  710MOL0     C95719   2.644   2.399   5.601  1.0283 -0.1682  0.8533
  710MOL0     C95720   2.504   2.374   5.607 -1.5081 -0.1438  0.3002
  710MOL0     C95721   2.440   2.356   5.730 -0.0583  0.4578 -0.3681
  710MOL0     C95722   2.513   2.388   5.850  0.2321 -0.0972 -0.6181
  710MOL0     O95723   2.464   2.380   5.978  0.7433 -0.0374 -0.7073
  710MOL0     C95724   2.338   2.318   6.017  0.0901 -0.0645  0.4818
  710MOL0     C95725   2.334   2.161   6.010  0.6483  0.2924 -0.7008
  710MOL0     C95726   2.213   2.096   6.087 -0.2646  0.5268  0.0866
  710MOL0     C95727   2.200   2.131   6.239 -0.0442 -0.3309  0.0217
  710MOL0     C95728   2.123   2.014   6.304  0.2430  0.4352 -0.9658
  710MOL0     C95729   2.148   1.996   6.452  0.3388 -0.2585 -0.0732
  710MOL0     C95730   2.107   2.137   6.533 -0.5021  1.0810  1.2079
  710MOL0     C95731   2.097   2.110   6.689  0.2661  0.2568 -0.7537
  710MOL0     N95732   2.040   2.217   6.763  0.0220 -0.5276  0.3540
  710MOL0     C95733   2.108   2.318   6.822 -0.5072  0.0459 -0.4897
  710MOL0     C95734   2.008   2.388   6.881  0.9689  0.0109 -0.5068
  710MOL0     C95735   2.022   2.502   6.983 -0.3730 -0.7621  0.8058
  710MOL0     C95736   2.020   2.636   6.901 -0.6433  0.8925 -0.6000
  710MOL0     C95737   2.169   2.657   6.844 -0.4487  0.9144 -0.5099
  710MOL0     C95738   2.196   2.794   6.786 -0.5360  1.2715 -0.6363
  710MOL0     O95739   2.104   2.814   6.671 -0.5187 -0.2924 -0.0611
  710MOL0     C95740   2.157   2.865   6.550  0.5384  0.6330  0.1766
  710MOL0     C95741   2.064   2.904   6.445  0.5530 -0.8075  0.5867
  710MOL0     C95742   2.104   2.962   6.326 -0.3855 -0.4231  0.3034
  710MOL0     C95743   2.241   2.984   6.290  0.1925 -0.0340 -0.0680
  710MOL0     C95744   2.286   3.054   6.173 -0.1925  0.4432  0.5956
  710MOL0     O95745   2.188   3.116   6.096  0.8528  0.3958 -1.0075
  710MOL0     C95746   2.206   3.200   5.992  1.3232  0.3006 -0.5348
  710MOL0     C95747   2.305   3.196   5.897  0.2971  0.1577  0.2524
  710MOL0     C95748   2.285   3.269   5.773 -0.4543  0.2446 -1.1252
  710MOL0     C95749   2.176   3.340   5.750 -0.2073  0.4788  0.1324
  710MOL0     O95750   2.171   3.427   5.643 -0.8175  0.3859 -0.4836
  710MOL0     C95751   2.045   3.461   5.591  0.2236  0.6072 -0.1153
  710MOL0     C95752   2.039   3.615   5.596  0.8396  0.4359  0.8115
  710MOL0     C95753   2.035   3.677   5.730 -0.6439 -0.5790  0.1202
  710MOL0     C95754   1.897   3.707   5.785  0.4751 -0.4380  0.3566
  710MOL0     C95755   1.898   3.742   5.934  1.0559 -0.1724  0.2949
  710MOL0     C95756   1.860   3.621   6.026 -0.7291 -1.0869  0.8134
  710MOL0     C95757   1.835   3.673   6.163  0.1993  0.7675 -0.2474
  710MOL0     C95758   1.682   3.697   6.183 -0.0679  0.6466  0.0316
  710MOL0    Cl95759   1.592   3.787   6.053 -0.4089 -0.4632  0.0326
  710MOL0     C95760   2.078   3.345   5.850  0.0923  0.4227  0.4649
  710MOL0     C95761   2.091   3.269   5.963  0.9906 -0.8235  1.0754
  710MOL0     O95762   2.406   3.053   6.146 -0.5809  0.0472 -0.3415
  710MOL0     C95763   2.334   2.932   6.388  0.5687 -0.3659 -0.3946
  710MOL0     C95764   2.290   2.882   6.520 -0.8451 -1.1117  0.3014
  710MOL0     N95765   1.885   2.345   6.837  0.3304 -0.8756 -0.1688
  710MOL0     N95766   1.911   2.242   6.766  0.1880 -0.3080  0.3051
  710MOL0     C95767   2.644   2.425   5.837 -1.0686  0.6186  0.0172
  710MOL0     C95768   2.712   2.434   5.716  0.8960  0.7020 -0.0392
  710MOL0     C95769   2.831   2.313   5.293  0.1260  0.3200  0.3181
  710MOL0     C95770   2.947   2.379   5.332  0.2491  0.2777 -1.1294
  710MOL0     C95771   3.069   2.359   5.270 -0.2676  0.3244  0.7486
  710MOL0     C95772   3.079   2.257   5.168 -0.8812 -0.0413  0.5830
  710MOL0     O95773   3.204   2.237   5.112  0.1531 -0.6403  0.4125
  710MOL0     C95774   3.300   2.345   5.084 -0.5908 -1.0605 -0.2640
  710MOL0     C95775   3.233   2.445   4.980  0.0251  0.7021 -0.2566
  710MOL0     C95776   3.307   2.579   4.961  0.1224 -0.4191 -0.0058
  710MOL0     C95777   3.338   2.673   5.084  0.5700  1.0557 -0.7541
  710MOL0     C95778   3.221   2.753   5.126  0.4320 -0.1885 -0.3562
  710MOL0     C95779   3.132   2.810   5.174  0.5558 -0.7570  0.6805
  710MOL0     C95780   2.961   2.191   5.137  0.2631 -0.9284 -0.0812
  710MOL0     C95781   2.832   2.227   5.181 -0.4951  0.8121 -0.5526
  710MOL0     C95782   2.707   2.163   5.109  0.3833  0.6422  0.5972
  710MOL0     H95783   2.444   2.365   5.517 -0.0993 -1.1869 -0.5891
  710MOL0     H95784   2.337   2.323   5.743  0.8453 -2.5354 -0.2405
  710MOL0     H95785   2.320   2.346   6.121 -1.5898  0.4156  0.0888
  710MOL0     H95786   2.256   2.345   5.950 -1.0366 -0.1124  1.8089
  710MOL0     H95787   2.424   2.115   6.051 -0.4011 -0.4616  0.8729
  710MOL0     H95788   2.330   2.131   5.905  0.4499 -0.7940 -0.4004
  710MOL0     H95789   2.214   1.989   6.067  0.7870 -0.0899  3.0911
  710MOL0     H95790   2.118   2.139   6.053 -0.7931 -0.1243  0.7214
  710MOL0     H95791   2.301   2.133   6.280  0.1120 -2.1724 -0.2019
  710MOL0     H95792   2.139   2.219   6.261 -1.6054 -0.7668 -2.2878
  710MOL0     H95793   2.016   2.032   6.288  0.7436  3.5284 -1.5901
  710MOL0     H95794   2.139   1.916   6.259  2.3859 -0.4699  1.5498
  710MOL0     H95795   2.102   1.908   6.498 -0.1808  0.9151  1.7793
  710MOL0     H95796   2.255   1.983   6.471  0.3501  0.0178  0.0605
  710MOL0     H95797   2.011   2.171   6.493 -0.4992  0.4964  0.6894
  710MOL0     H95798   2.175   2.219   6.507 -0.3782  0.7653  0.5087
  710MOL0     H95799   2.018   2.036   6.706 -0.0196  0.5121 -0.9754
  710MOL0     H95800   2.192   2.067   6.721  0.7793 -1.7616 -4.4558
  710MOL0     H95801   2.215   2.330   6.832 -0.3163 -2.3306  1.4115
  710MOL0     H95802   1.943   2.508   7.057 -2.4303 -0.3813 -1.2989
  710MOL0     H95803   2.116   2.497   7.039  2.1195 -2.5529 -3.0273
  710MOL0     H95804   1.940   2.634   6.827 -0.3002 -0.1324 -0.9658
  710MOL0     H95805   2.000   2.716   6.973  1.5613  1.8800 -0.9994
  710MOL0     H95806   2.194   2.589   6.762  0.2496 -0.0317  0.4498
  710MOL0     H95807   2.234   2.650   6.932 -2.2987 -3.1286  0.8073
  710MOL0     H95808   2.299   2.790   6.751 -1.6568  2.1532 -4.5484
  710MOL0     H95809   2.185   2.882   6.850 -0.9076  2.5290 -2.3359
  710MOL0     H95810   1.957   2.886   6.438  0.8233 -1.8946 -2.4274
  710MOL0     H95811   2.028   3.004   6.262  1.3778 -0.7291 -2.1472
  710MOL0     H95812   2.392   3.133   5.887  2.0942  2.8563 -4.1366
  710MOL0     H95813   2.360   3.265   5.696 -0.5865  0.9026 -1.2981
  710MOL0     H95814   2.037   3.416   5.491 -1.5343  1.3656 -0.3583
  710MOL0     H95815   1.957   3.424   5.645 -0.2304 -0.7278 -1.6783
  710MOL0     H95816   2.124   3.653   5.540 -0.1825  2.4590  0.5548
  710MOL0     H95817   1.958   3.641   5.528  0.5390 -4.2390 -1.0007
  710MOL0     H95818   2.090   3.618   5.804  2.6030  0.4770 -1.2709
  710MOL0     H95819   2.086   3.773   5.719  1.8251 -1.7179  0.9385
  710MOL0     H95820   1.818   3.632   5.771 -2.0358  2.1410 -0.3016
  710MOL0     H95821   1.859   3.795   5.732  0.1593 -0.1297  1.0847
  710MOL0     H95822   1.821   3.817   5.955 -1.4230 -1.4407 -3.2464
  710MOL0     H95823   1.980   3.809   5.960 -1.5445  4.2066 -1.4726
  710MOL0     H95824   1.775   3.568   5.983 -0.3400  0.0623 -1.5062
  710MOL0     H95825   1.944   3.551   6.033 -1.2468 -1.8930 -0.7080
  710MOL0     H95826   1.893   3.763   6.184 -0.4427  0.8467  1.3218
  710MOL0     H95827   1.866   3.602   6.240 -0.8040  0.9691  0.3645
  710MOL0     H95828   1.635   3.599   6.197  2.3290 -0.4859  0.8553
  710MOL0     H95829   1.671   3.755   6.275  2.1583 -2.1057  2.2358
  710MOL0     H95830   2.002   3.421   5.836  0.5501  0.3793 -3.2686
  710MOL0     H95831   2.003   3.269   6.026  1.6338  2.1152  2.1221
  710MOL0     H95832   2.441   2.934   6.368  1.0088  1.7796  1.6940
  710MOL0     H95833   2.366   2.833   6.579  0.5947  0.5907 -0.0545
  710MOL0     H95834   2.689   2.456   5.931 -1.6218 -0.1407  0.5470
  710MOL0     H95835   2.819   2.457   5.712  1.0548  0.2296  1.1287
  710MOL0     H95836   2.945   2.429   5.428  0.8430 -2.4200  0.3883
  710MOL0     H95837   3.153   2.411   5.315 -3.2717  1.6966  5.5235
  710MOL0     H95838   3.390   2.314   5.030  1.2750  4.1577 -0.6620
  710MOL0     H95839   3.345   2.387   5.174  2.7452  0.6863 -2.5013
  710MOL0     H95840   3.133   2.454   5.024  1.1155 -0.8813  2.7998
  710MOL0     H95841   3.219   2.395   4.883 -4.0389  0.1526  0.4284
  710MOL0     H95842   3.246   2.638   4.892  0.3360 -2.2454 -1.8531
  710MOL0     H95843   3.405   2.557   4.918  0.7722  0.7445  0.8273
  710MOL0     H95844   3.370   2.603   5.162 -0.5784 -0.5556 -1.6713
  710MOL0     H95845   3.417   2.746   5.064  2.0871 -0.3967 -0.3409
  710MOL0     H95846   3.055   2.862   5.229  0.3140  1.1769 -1.3563
  710MOL0     H95847   2.976   2.110   5.066  1.6434 -0.0447 -0.8326
  710MOL0     H95848   2.692   2.057   5.130 -0.3151  0.5759 -0.1569
  710MOL0     H95849   2.608   2.209   5.119 -1.1776 -2.5048  0.9636
  710MOL0     H95850   2.741   2.155   5.005  0.8791 -3.7557  0.9024
  711MOL0     O95851   5.435   6.336   6.938  0.7449  0.7117 -0.1134
  711MOL0     C95852   5.411   6.450   6.895 -1.1600 -0.0039  1.0091
  711MOL0     O95853   5.289   6.486   6.861 -0.5470  0.0679 -0.1475
  711MOL0     C95854   5.190   6.436   6.940  0.2765  0.0796 -0.6426
  711MOL0     C95855   5.182   6.493   7.075 -0.2544  0.2149  1.1681
  711MOL0     C95856   5.081   6.468   7.161  0.2230 -0.4190 -0.4701
  711MOL0     C95857   4.986   6.376   7.126 -0.2236 -0.4031  0.3361
  711MOL0     O95858   4.879   6.362   7.214 -0.6676  0.3374  0.0868
  711MOL0     C95859   4.820   6.229   7.221 -1.1337 -0.0786 -1.5872
  711MOL0     C95860   4.915   6.121   7.297 -0.0874  0.7887 -1.3016
  711MOL0     C95861   4.914   6.153   7.449 -0.3296  0.1705 -0.6156
  711MOL0     C95862   5.014   6.073   7.516  0.3477 -0.0466 -0.1063
  711MOL0     C95863   5.006   6.101   7.665 -0.5486  0.9009  0.0651
  711MOL0     C95864   5.081   5.990   7.747  0.6014 -0.8576  0.2174
  711MOL0     C95865   5.038   5.983   7.899 -0.0409  0.6317 -0.5643
  711MOL0     C95866   5.052   5.841   7.954 -0.0968 -0.2404  0.6224
  711MOL0     N95867   5.012   5.828   8.098 -0.6357 -0.2546  0.5606
  711MOL0     C95868   5.070   5.901   8.198  0.1175  0.2657 -0.1103
  711MOL0     C95869   5.001   5.873   8.313  0.0386 -0.2362 -0.6390
  711MOL0     C95870   5.020   5.935   8.452  0.5029 -0.0592  0.6230
  711MOL0     C95871   4.933   6.064   8.457 -1.0655 -0.6826 -0.1918
  711MOL0     C95872   5.030   6.194   8.439  0.4620 -0.6083  0.1500
  711MOL0     C95873   4.949   6.294   8.351 -0.3361  0.5101 -0.0644
  711MOL0     O95874   4.962   6.255   8.218  0.3830 -0.3121 -0.1124
  711MOL0     C95875   4.867   6.310   8.130  1.3812  0.1265 -0.2825
  711MOL0     C95876   4.896   6.308   8.002 -1.3217  0.4808  0.8398
  711MOL0     C95877   4.831   6.373   7.898 -0.2209 -0.6023 -0.3225
  711MOL0     C95878   4.715   6.442   7.929  0.5706  0.5467 -0.0568
  711MOL0     C95879   4.649   6.525   7.829 -0.0161  0.8664 -0.6333
  711MOL0     O95880   4.697   6.521   7.705 -0.2905  0.8820  0.5164
  711MOL0     C95881   4.651   6.594   7.594  0.3865  0.1135  0.0210
  711MOL0     C95882   4.578   6.708   7.606  0.3932 -0.9256  0.0643
  711MOL0     C95883   4.524   6.766   7.496 -0.3053 -0.7050 -0.3612
  711MOL0     C95884   4.565   6.724   7.365 -0.6376 -0.5449 -0.1524
  711MOL0     O95885   4.546   6.791   7.245  0.2269  0.1682  0.5152
  711MOL0     C95886   4.483   6.921   7.254 -0.4522 -0.6619  0.8901
  711MOL0     C95887   4.487   6.991   7.117  0.4340  1.0792  1.1266
  711MOL0     C95888   4.397   6.922   7.007 -0.6648 -0.0671 -0.4768
  711MOL0     C95889   4.454   6.920   6.868 -0.1822  1.0712 -0.6779
  711MOL0     C95890   4.574   6.828   6.839 -0.0545  0.8103 -0.5446
  711MOL0     C95891   4.528   6.690   6.794  0.2716 -0.4769 -0.4665
  711MOL0     C95892   4.652   6.625   6.707  0.4321 -0.1272  0.7269
  711MOL0     C95893   4.751   6.558   6.805 -0.1339  0.8290 -0.0031
  711MOL0    Cl95894   4.840   6.421   6.737 -0.7023  0.2103 -0.2634
  711MOL0     C95895   4.648   6.619   7.353 -0.1603  0.3191  0.1817
  711MOL0     C95896   4.681   6.538   7.474 -0.0634 -0.1195  1.0386
  711MOL0     O95897   4.560   6.597   7.875  0.6718 -0.0552 -0.5585
  711MOL0     C95898   4.674   6.434   8.066 -0.7102  0.2919 -0.4534
  711MOL0     C95899   4.746   6.375   8.164  0.6877 -0.1660 -1.2621
  711MOL0     N95900   4.902   5.779   8.277  0.0917  0.1468  0.4253
  711MOL0     N95901   4.909   5.759   8.150 -0.8143  0.3671 -0.2410
  711MOL0     C95902   4.989   6.321   6.992 -0.7707  0.9343 -0.4686
  711MOL0     C95903   5.086   6.343   6.896 -0.2480 -0.3376 -0.0328
  711MOL0     C95904   5.528   6.533   6.861 -0.2337  0.4871 -0.8358
  711MOL0     C95905   5.503   6.629   6.759 -0.4785  0.2625 -0.3118
  711MOL0     C95906   5.613   6.685   6.686  1.2095  0.1612 -0.4979
  711MOL0     C95907   5.742   6.670   6.740  0.2826 -0.2295 -0.9698
  711MOL0     O95908   5.841   6.744   6.680 -0.5066  0.6784 -0.2023
  711MOL0     C95909   5.976   6.734   6.717  0.5659  0.5242 -0.3934
  711MOL0     C95910   6.061   6.734   6.592  0.6221  0.4518  1.7294
  711MOL0     C95911   6.072   6.596   6.521  0.0496 -1.0862  0.9012
  711MOL0     C95912   5.999   6.601   6.377 -0.7473 -0.5603  0.5254
  711MOL0     C95913   6.012   6.461   6.326  0.8693 -0.8475  1.1404
  711MOL0     C95914   6.017   6.352   6.276  0.0253 -0.3425 -0.7722
  711MOL0     C95915   5.764   6.592   6.859 -0.0599  0.5417 -0.3319
  711MOL0     C95916   5.654   6.528   6.923  0.0408  0.9425 -0.7043
  711MOL0     C95917   5.681   6.447   7.041  0.3185  0.5050 -0.5489
  711MOL0     H95918   5.250   6.570   7.111 -0.8683 -0.7718  4.8785
  711MOL0     H95919   5.084   6.512   7.260  1.7215 -0.5517 -0.4313
  711MOL0     H95920   4.731   6.249   7.281  0.4392  2.1039  0.1958
  711MOL0     H95921   4.796   6.174   7.129 -0.3055 -2.7046 -0.3245
  711MOL0     H95922   5.013   6.114   7.249  0.5697 -4.6133  0.1632
  711MOL0     H95923   4.878   6.018   7.296  0.9817  0.3939 -1.1484
  711MOL0     H95924   4.820   6.154   7.505 -1.1905 -2.6757 -1.8357
  711MOL0     H95925   4.948   6.257   7.454 -0.7873  0.3723 -1.5185
  711MOL0     H95926   4.995   5.969   7.490 -1.0078  0.4592 -1.2966
  711MOL0     H95927   5.118   6.085   7.485 -0.1487  3.6128 -0.8541
  711MOL0     H95928   5.045   6.200   7.690 -1.2895  1.1561  0.2436
  711MOL0     H95929   4.904   6.079   7.698  0.4312 -0.8918  2.1565
  711MOL0     H95930   5.053   5.898   7.694  0.5768 -0.0670 -1.1758
  711MOL0     H95931   5.189   5.996   7.730  1.0002 -0.5298  2.5163
  711MOL0     H95932   4.939   6.027   7.917  1.1880  1.9309  5.1550
  711MOL0     H95933   5.098   6.044   7.967  2.5221  0.5094 -2.6064
  711MOL0     H95934   4.981   5.781   7.896  0.3492  2.4084 -3.0408
  711MOL0     H95935   5.151   5.795   7.954 -0.2666 -0.6306 -0.1359
  711MOL0     H95936   5.148   5.974   8.183 -0.4199  0.4924 -1.9586
  711MOL0     H95937   5.011   5.867   8.537  3.9895 -2.2931 -0.5825
  711MOL0     H95938   5.125   5.967   8.458  0.7548 -0.5237 -0.8875
  711MOL0     H95939   4.851   6.066   8.384 -3.4813  0.0934  2.4029
  711MOL0     H95940   4.878   6.066   8.551 -1.6374 -1.1272 -0.5087
  711MOL0     H95941   5.129   6.189   8.393  1.0580  2.9268  0.7531
  711MOL0     H95942   5.050   6.226   8.541  0.2598  0.8722 -0.2509
  711MOL0     H95943   4.994   6.392   8.366 -0.3155  0.0191  4.4660
  711MOL0     H95944   4.848   6.280   8.390 -0.6402  1.1141 -0.6003
  711MOL0     H95945   4.988   6.253   7.982 -0.1642  2.7207 -0.4572
  711MOL0     H95946   4.867   6.358   7.797 -0.4715 -0.3692 -0.4496
  711MOL0     H95947   4.567   6.760   7.701 -1.8044 -1.0050 -0.1092
  711MOL0     H95948   4.450   6.844   7.511 -1.6404 -2.1468  1.0238
  711MOL0     H95949   4.375   6.914   7.273 -0.5775 -3.7605 -0.4367
  711MOL0     H95950   4.529   6.986   7.329 -1.6782 -0.0069  1.0992
  711MOL0     H95951   4.441   7.090   7.125  0.3713  0.9381  2.9847
  711MOL0     H95952   4.591   7.001   7.087  0.4627  1.3436  1.3154
  711MOL0     H95953   4.384   6.819   7.041  0.2638 -0.6190 -1.7487
  711MOL0     H95954   4.292   6.953   7.000 -1.5792 -2.8195 -0.3108
  711MOL0     H95955   4.494   7.021   6.869 -2.3395  2.0112  1.4853
  711MOL0     H95956   4.385   6.905   6.784  1.8565  2.2705 -2.6959
  711MOL0     H95957   4.650   6.830   6.917  1.5309 -0.1254 -1.9992
  711MOL0     H95958   4.639   6.868   6.761 -0.0337  1.1378 -0.3602
  711MOL0     H95959   4.483   6.628   6.872  1.5164 -0.4102  0.3277
  711MOL0     H95960   4.452   6.703   6.716 -0.1069  0.0100 -0.0184
  711MOL0     H95961   4.712   6.697   6.650  1.3748 -1.9683 -0.7253
  711MOL0     H95962   4.603   6.546   6.648 -0.0560  0.6522  0.0543
  711MOL0     H95963   4.814   6.634   6.853  1.9814 -1.1088  0.4669
  711MOL0     H95964   4.686   6.525   6.886 -2.0588  3.3291 -0.3957
  711MOL0     H95965   4.682   6.577   7.259 -0.1515  0.2707  0.2067
  711MOL0     H95966   4.738   6.446   7.478  1.7863  0.9425  0.3987
  711MOL0     H95967   4.579   6.482   8.089 -1.2048  0.6667 -3.0065
  711MOL0     H95968   4.709   6.385   8.266 -0.1167  0.4584 -1.6028
  711MOL0     H95969   4.918   6.243   6.968  1.5914 -0.7120 -2.6568
  711MOL0     H95970   5.082   6.287   6.803  1.6971 -0.6607  0.0433
  711MOL0     H95971   5.398   6.643   6.735 -0.4690  0.4740 -0.2384
  711MOL0     H95972   5.609   6.738   6.591  1.4638 -2.0542 -1.8209
  711MOL0     H95973   5.991   6.645   6.780  0.8438  2.0092  1.7492
  711MOL0     H95974   5.993   6.820   6.783 -3.4685 -0.2585  2.0294
  711MOL0     H95975   6.161   6.764   6.624 -0.0516  3.1071  1.5202
  711MOL0     H95976   6.020   6.807   6.522 -2.9694 -1.8550  1.1789
  711MOL0     H95977   6.033   6.514   6.581  0.8481 -2.2087 -0.0462
  711MOL0     H95978   6.180   6.589   6.504  0.5314  3.0442  1.2405
  711MOL0     H95979   5.894   6.630   6.381 -1.0049 -1.5464  1.5139
  711MOL0     H95980   6.040   6.661   6.296 -2.4129  1.9374  1.4205
  711MOL0     H95981   6.031   6.251   6.242  0.8517 -1.2372  1.9355
  711MOL0     H95982   5.858   6.591   6.912  0.1193  0.0235 -0.6555
  711MOL0     H95983   5.713   6.344   7.020  4.0262  1.4815 -0.3828
  711MOL0     H95984   5.754   6.498   7.104  0.7912 -0.2933 -0.4436
  711MOL0     H95985   5.596   6.445   7.109 -0.3746 -0.9908 -1.3993
  712MOL0     O95986   6.061  10.971   7.417  0.1247  0.0501 -0.5098
  712MOL0     C95987   5.943  10.997   7.398 -0.4387 -0.9628  0.8039
  712MOL0     O95988   5.863  11.080   7.478  0.2904 -0.2562 -0.2187
  712MOL0     C95989   5.902  11.111   7.605 -0.5534  0.7542  0.1532
  712MOL0     C95990   5.865  11.236   7.645  0.0707 -0.4109 -0.2116
  712MOL0     C95991   5.921  11.288   7.764  0.3161 -0.1850 -0.9105
  712MOL0     C95992   6.015  11.211   7.834  0.9401  0.5743  0.2554
  712MOL0     O95993   6.065  11.265   7.948  0.1912 -0.8999  0.0946
  712MOL0     C95994   6.212  11.264   7.959  0.9724  0.0266 -0.0845
  712MOL0     C95995   6.261  11.306   8.099  0.0037  0.3086 -0.5061
  712MOL0     C95996   6.396  11.237   8.111 -0.1848 -0.4055 -0.1650
  712MOL0     C95997   6.457  11.239   8.252 -0.0229  0.0580 -0.1349
  712MOL0     C95998   6.549  11.360   8.286  0.0457 -0.3036  0.4679
  712MOL0     C95999   6.591  11.363   8.435  0.1313  0.5785  0.5658
  712MOL0     C96000   6.625  11.513   8.465  0.0947  0.0162  0.2580
  712MOL0     C96001   6.687  11.529   8.612 -0.0161 -0.3093 -0.5713
  712MOL0     N96002   6.679  11.670   8.649 -0.3824 -0.5750  0.6281
  712MOL0     C96003   6.756  11.768   8.581 -0.2643 -0.2907 -0.0087
  712MOL0     C96004   6.693  11.890   8.596  0.5220 -1.0315 -1.7317
  712MOL0     C96005   6.749  12.030   8.562 -1.0260  0.1146 -0.5725
  712MOL0     C96006   6.686  12.091   8.437 -0.4284  0.2810 -0.1961
  712MOL0     C96007   6.685  12.242   8.455 -1.2561  0.3811 -0.9402
  712MOL0     C96008   6.816  12.319   8.439 -0.6407  0.2176 -0.0105
  712MOL0     O96009   6.840  12.337   8.299  0.1617 -0.1097  0.2834
  712MOL0     C96010   6.965  12.399   8.272 -0.2867 -0.1759  0.0507
  712MOL0     C96011   7.051  12.455   8.372 -0.8229 -0.1010 -0.0201
  712MOL0     C96012   7.163  12.529   8.330  0.0992  0.3364 -1.1873
  712MOL0     C96013   7.191  12.539   8.192  1.2830  0.1283 -0.0266
  712MOL0     C96014   7.307  12.619   8.158 -0.3361 -0.1282 -1.0055
  712MOL0     O96015   7.339  12.711   8.251  0.4299 -0.0450 -0.6943
  712MOL0     C96016   7.467  12.760   8.253  0.0473 -0.3692 -0.6026
  712MOL0     C96017   7.498  12.887   8.197 -0.1420 -0.1159 -0.9409
  712MOL0     C96018   7.631  12.934   8.217 -0.8904  0.0157 -0.1798
  712MOL0     C96019   7.730  12.863   8.285  0.3505 -0.4228  0.8673
  712MOL0     O96020   7.853  12.918   8.297 -0.4151  0.0020 -0.6010
  712MOL0     C96021   7.966  12.837   8.253 -0.5607  0.1014 -0.4805
  712MOL0     C96022   8.087  12.883   8.325  0.2240  0.6125 -0.0863
  712MOL0     C96023   8.179  12.771   8.294 -0.2088  1.3405 -0.0541
  712MOL0     C96024   8.332  12.786   8.342  0.3448 -0.7159  0.6039
  712MOL0     C96025   8.423  12.667   8.296  0.9904  0.0106  0.5977
  712MOL0     C96026   8.575  12.703   8.318 -0.4043  0.7251  0.0318
  712MOL0     C96027   8.672  12.593   8.286 -0.2600  0.3217 -0.0386
  712MOL0     C96028   8.812  12.615   8.344 -0.4077  1.1120  0.8166
  712MOL0    Cl96029   8.895  12.761   8.290  0.1632  0.2371  0.1238
  712MOL0     C96030   7.692  12.744   8.341 -0.4837 -0.2348 -0.9075
  712MOL0     C96031   7.566  12.691   8.323 -0.4591 -0.9806 -1.4493
  712MOL0     O96032   7.366  12.612   8.049  0.0680 -0.1473 -0.9644
  712MOL0     C96033   7.113  12.469   8.100 -0.3713 -0.1526 -0.0081
  712MOL0     C96034   6.998  12.401   8.138  0.1380 -0.2166 -0.4146
  712MOL0     N96035   6.585  11.862   8.685 -0.0078 -0.1254 -0.2882
  712MOL0     N96036   6.572  11.733   8.701  0.2796  1.0464  0.6997
  712MOL0     C96037   6.040  11.074   7.802  0.7969  0.6749  0.0438
  712MOL0     C96038   5.980  11.029   7.692 -0.1067  0.3930  1.6940
  712MOL0     C96039   5.880  10.936   7.292  1.0883  0.7182  1.1611
  712MOL0     C96040   5.848  10.802   7.289  1.1112 -0.1378  1.0082
  712MOL0     C96041   5.787  10.737   7.170  0.7120  1.2486 -0.7859
  712MOL0     C96042   5.756  10.808   7.059 -0.0477 -0.4923 -0.1208
  712MOL0     O96043   5.680  10.757   6.956  0.0009 -0.2948 -0.0566
  712MOL0     C96044   5.723  10.630   6.898  0.1815 -0.0794 -0.0166
  712MOL0     C96045   5.672  10.603   6.753 -1.0190  0.4763  0.1048
  712MOL0     C96046   5.677  10.723   6.658 -0.9201  0.2040  1.3384
  712MOL0     C96047   5.626  10.698   6.515 -0.4656  0.0463 -0.3903
  712MOL0     C96048   5.654  10.822   6.435 -0.3324 -0.2072 -0.5281
  712MOL0     C96049   5.673  10.916   6.362 -0.5467 -0.0869 -0.1425
  712MOL0     C96050   5.798  10.946   7.066  0.3293  0.4950 -0.3586
  712MOL0     C96051   5.857  11.007   7.173 -0.1658  0.8479  0.4209
  712MOL0     C96052   5.900  11.149   7.148 -0.1904  0.1248  0.1474
  712MOL0     H96053   5.799  11.293   7.581 -1.9452 -1.4905  0.8145
  712MOL0     H96054   5.905  11.389   7.800  1.8459  0.1423 -1.0510
  712MOL0     H96055   6.238  11.158   7.952 -1.2597 -0.7259  1.7039
  712MOL0     H96056   6.258  11.326   7.882 -0.9252 -0.7438 -1.9301
  712MOL0     H96057   6.211  11.250   8.179  0.8623 -4.6298 -3.0526
  712MOL0     H96058   6.263  11.415   8.107 -0.3042  0.3770 -1.2410
  712MOL0     H96059   6.466  11.266   8.032 -1.0214 -2.8251 -1.9390
  712MOL0     H96060   6.384  11.130   8.092 -1.3738 -0.3180  0.0160
  712MOL0     H96061   6.377  11.234   8.326 -0.9113 -3.5199 -1.1306
  712MOL0     H96062   6.505  11.142   8.270 -0.5188 -0.1376  0.1484
  712MOL0     H96063   6.639  11.358   8.223 -1.9074  0.0399 -2.5310
  712MOL0     H96064   6.480  11.442   8.265  2.8350  2.3499  0.9347
  712MOL0     H96065   6.506  11.341   8.500 -0.0751 -3.8195 -0.8149
  712MOL0     H96066   6.676  11.301   8.465 -0.2919 -0.3908 -0.1753
  712MOL0     H96067   6.540  11.579   8.449 -0.9095 -1.1080  0.8333
  712MOL0     H96068   6.703  11.547   8.396 -1.5747 -2.7631 -3.3259
  712MOL0     H96069   6.631  11.467   8.683 -2.5448 -0.3036 -2.4440
  712MOL0     H96070   6.791  11.495   8.621  0.5199  1.7045  5.5528
  712MOL0     H96071   6.843  11.748   8.520  0.2175 -1.7233  1.0960
  712MOL0     H96072   6.735  12.093   8.651  1.1817  1.4591 -1.0950
  712MOL0     H96073   6.857  12.028   8.577 -1.4366  0.6754  3.9965
  712MOL0     H96074   6.754  12.055   8.360 -1.5473 -3.5784  0.3743
  712MOL0     H96075   6.585  12.049   8.424 -0.4739  0.6497 -1.0555
  712MOL0     H96076   6.652  12.270   8.555 -1.3402  3.9803 -1.8297
  712MOL0     H96077   6.608  12.302   8.405 -0.3023  1.1119 -1.5801
  712MOL0     H96078   6.887  12.248   8.483  0.8131  1.1216 -0.8333
  712MOL0     H96079   6.825  12.412   8.496  0.7199 -1.1812  2.2271
  712MOL0     H96080   7.032  12.452   8.479  0.1450  0.4743  0.1784
  712MOL0     H96081   7.224  12.565   8.412 -3.1913 -0.4977  1.8902
  712MOL0     H96082   7.418  12.947   8.155 -3.7096 -1.0277  3.6992
  712MOL0     H96083   7.641  13.029   8.165  1.5151 -1.1610 -2.0500
  712MOL0     H96084   7.937  12.738   8.290 -1.8546  0.1947 -1.1795
  712MOL0     H96085   7.966  12.853   8.144  2.0040 -0.1465 -0.5752
  712MOL0     H96086   8.137  12.971   8.282  0.2648 -1.0067 -3.7324
  712MOL0     H96087   8.066  12.889   8.432  0.5323 -1.9103  0.1752
  712MOL0     H96088   8.148  12.680   8.346  3.4685  0.7198  1.3738
  712MOL0     H96089   8.184  12.745   8.188 -1.1958 -4.6431  0.9977
  712MOL0     H96090   8.333  12.786   8.451  2.1395 -2.5654  0.6390
  712MOL0     H96091   8.375  12.882   8.312 -5.4556  1.3639 -2.6609
  712MOL0     H96092   8.406  12.646   8.190 -4.2913  0.8158  1.0247
  712MOL0     H96093   8.390  12.578   8.349 -1.7074 -0.0838 -1.0568
  712MOL0     H96094   8.609  12.789   8.259  0.1053  0.5844  0.1173
  712MOL0     H96095   8.575  12.728   8.424 -2.0035 -1.1151  0.5197
  712MOL0     H96096   8.684  12.568   8.180 -1.0929 -1.5745  0.2736
  712MOL0     H96097   8.651  12.496   8.333  3.1199  0.1566  1.4267
  712MOL0     H96098   8.803  12.609   8.453 -1.0957  2.3576  0.8492
  712MOL0     H96099   8.877  12.530   8.320 -0.8629 -0.2031  3.7956
  712MOL0     H96100   7.767  12.697   8.403 -0.0802  0.3865 -0.9181
  712MOL0     H96101   7.536  12.602   8.378 -1.6364  0.0276 -0.4157
  712MOL0     H96102   7.142  12.486   7.997  2.7207 -3.5986  0.0859
  712MOL0     H96103   6.928  12.359   8.066 -2.2051  0.0978  1.5291
  712MOL0     H96104   6.087  10.995   7.860 -0.4788 -0.7057 -0.7475
  712MOL0     H96105   5.995  10.922   7.681  1.1456  0.7313 -0.5066
  712MOL0     H96106   5.884  10.748   7.375  1.7638  2.8175  2.7482
  712MOL0     H96107   5.751  10.635   7.175 -4.5607  2.6583 -2.9291
  712MOL0     H96108   5.684  10.549   6.961 -0.3228  1.3574  1.5996
  712MOL0     H96109   5.833  10.627   6.899  0.1887 -3.1627  0.2738
  712MOL0     H96110   5.564  10.589   6.761 -1.2321  2.3475  1.1683
  712MOL0     H96111   5.719  10.510   6.719 -0.0090  0.0773  2.4116
  712MOL0     H96112   5.776  10.769   6.649 -1.6037  1.2866 -3.2598
  712MOL0     H96113   5.625  10.806   6.706 -0.1453  2.8237 -1.9446
  712MOL0     H96114   5.689  10.618   6.476 -1.8343 -0.9301 -0.6903
  712MOL0     H96115   5.519  10.675   6.509 -0.0723 -2.0227 -0.0763
  712MOL0     H96116   5.709  11.000   6.306 -0.0572 -1.6680 -2.3542
  712MOL0     H96117   5.765  11.014   6.988  1.3985 -1.3250 -2.5142
  712MOL0     H96118   5.866  11.191   7.053 -1.5533  1.1441  1.0441
  712MOL0     H96119   5.863  11.207   7.233  0.6357  2.1892 -0.8191
  712MOL0     H96120   6.009  11.162   7.150 -0.3243  1.3634  0.6661
  713MOL0     O96121   8.362   3.414   7.521  0.6777 -0.0070 -0.3466
  713MOL0     C96122   8.310   3.501   7.455 -0.0839 -0.3506  0.6599
  713MOL0     O96123   8.222   3.597   7.505 -0.1847  0.1578  0.1112
  713MOL0     C96124   8.106   3.576   7.564 -0.0387  1.0401 -0.1151
  713MOL0     C96125   8.044   3.673   7.646  0.5421  0.4516 -0.3299
  713MOL0     C96126   7.929   3.641   7.721  0.5255 -0.5414 -0.1272
  713MOL0     C96127   7.854   3.525   7.698 -0.0374 -0.7682 -0.7546
  713MOL0     O96128   7.756   3.484   7.786 -0.6781 -0.5536  0.1388
  713MOL0     C96129   7.644   3.568   7.814 -0.4311 -0.0713  0.2693
  713MOL0     C96130   7.516   3.495   7.845 -0.7524  0.1546  0.7759
  713MOL0     C96131   7.484   3.390   7.733  0.1560 -0.0105 -0.2171
  713MOL0     C96132   7.358   3.302   7.776 -1.0998  1.1582  1.7780
  713MOL0     C96133   7.300   3.227   7.651  0.3482 -0.1837 -0.2304
  713MOL0     C96134   7.160   3.170   7.685 -0.3559 -0.7137  0.3367
  713MOL0     C96135   7.114   3.062   7.574 -0.3049 -0.2797  0.6751
  713MOL0     C96136   7.175   2.925   7.603 -0.1861 -0.0548  0.8445
  713MOL0     N96137   7.115   2.857   7.715  0.1604  0.5329 -0.2155
  713MOL0     C96138   7.150   2.873   7.853 -0.2763 -0.4019  0.1870
  713MOL0     C96139   7.064   2.791   7.915  0.4869 -0.6103 -0.7606
  713MOL0     C96140   7.068   2.759   8.064  0.1275  0.0394 -0.3329
  713MOL0     C96141   6.957   2.661   8.103 -0.6610  0.3445 -0.3077
  713MOL0     C96142   6.968   2.625   8.247 -0.6565 -0.6636 -0.4543
  713MOL0     C96143   6.865   2.518   8.283  0.3433  0.1332  0.1366
  713MOL0     O96144   6.833   2.527   8.426  0.2253 -0.7658  0.5981
  713MOL0     C96145   6.700   2.569   8.452 -0.0329 -0.0449  0.0692
  713MOL0     C96146   6.641   2.504   8.553 -0.4300 -0.1304 -0.2377
  713MOL0     C96147   6.515   2.545   8.604 -0.7422 -0.4264  0.7769
  713MOL0     C96148   6.435   2.645   8.542 -0.3378 -0.3187  0.0963
  713MOL0     C96149   6.298   2.688   8.593 -1.2838 -0.3015  0.4426
  713MOL0     O96150   6.248   2.606   8.678 -0.5823  0.4781  0.3028
  713MOL0     C96151   6.115   2.617   8.700  0.6989  0.2114 -0.6974
  713MOL0     C96152   6.065   2.491   8.734 -0.4428 -0.7516  0.9258
  713MOL0     C96153   5.932   2.465   8.752 -1.2707  0.0806  0.0304
  713MOL0     C96154   5.839   2.571   8.752  0.0913 -1.2497  0.5911
  713MOL0     O96155   5.704   2.542   8.753  0.0483  0.2452  0.4088
  713MOL0     C96156   5.606   2.642   8.754  0.2065 -0.0728 -0.0434
  713MOL0     C96157   5.472   2.579   8.733  1.1039  1.0034  0.0020
  713MOL0     C96158   5.440   2.494   8.844 -0.3495  0.3711  0.4885
  713MOL0     C96159   5.318   2.410   8.811  0.2652  0.3460  0.8524
  713MOL0     C96160   5.275   2.326   8.936 -0.5610  0.1238 -0.1466
  713MOL0     C96161   5.143   2.257   8.920 -0.2398  0.3678  1.0176
  713MOL0     C96162   5.128   2.164   9.033  0.8114  1.1869 -0.5017
  713MOL0     C96163   4.996   2.092   9.052  0.4131  0.8107 -0.0277
  713MOL0    Cl96164   4.961   1.968   8.929 -0.1238 -0.1815  0.2211
  713MOL0     C96165   5.888   2.706   8.737 -0.0941 -0.2323  1.0482
  713MOL0     C96166   6.029   2.726   8.716  1.0760 -0.2350 -0.7376
  713MOL0     O96167   6.262   2.806   8.554 -0.3834 -0.2663 -0.7677
  713MOL0     C96168   6.495   2.708   8.433  0.3961 -0.5070 -1.2411
  713MOL0     C96169   6.625   2.674   8.394  0.6747 -0.3050 -0.6899
  713MOL0     N96170   6.987   2.724   7.823 -0.3661  0.1741 -0.7987
  713MOL0     N96171   7.004   2.781   7.710  0.0681 -0.6032 -0.1929
  713MOL0     C96172   7.912   3.429   7.614 -0.0331  0.1670 -0.2094
  713MOL0     C96173   8.035   3.454   7.538 -0.4529  0.5559  0.1401
  713MOL0     C96174   8.338   3.494   7.310  0.5153 -0.4293 -0.2752
  713MOL0     C96175   8.238   3.546   7.226 -0.0061 -0.4284 -0.9058
  713MOL0     C96176   8.260   3.556   7.087  0.5432  0.6129  0.6314
  713MOL0     C96177   8.383   3.510   7.035  0.9355  0.6843  0.0151
  713MOL0     O96178   8.396   3.513   6.900  0.4976 -0.1629  0.4668
  713MOL0     C96179   8.507   3.587   6.849  1.2706 -0.6874 -0.2927
  713MOL0     C96180   8.491   3.739   6.871  0.7572  0.6841 -1.2892
  713MOL0     C96181   8.608   3.806   6.805  0.2847 -0.1212  0.0674
  713MOL0     C96182   8.577   3.866   6.672  0.8402  0.0471  0.9711
  713MOL0     C96183   8.483   3.979   6.672 -0.6536  0.2811 -0.5746
  713MOL0     C96184   8.415   4.083   6.687  0.6706  0.9947  0.3379
  713MOL0     C96185   8.477   3.455   7.116  0.1615 -0.3900  0.1868
  713MOL0     C96186   8.462   3.458   7.256  0.6892  0.8705  0.5957
  713MOL0     C96187   8.592   3.432   7.348  0.3736  0.4886 -0.7094
  713MOL0     H96188   8.090   3.770   7.660 -2.5072  1.8964  0.4017
  713MOL0     H96189   7.887   3.714   7.788 -0.9775  0.4460 -2.0378
  713MOL0     H96190   7.675   3.643   7.887  0.7902 -0.4131  0.1388
  713MOL0     H96191   7.636   3.638   7.730  6.4311  1.2834  0.1571
  713MOL0     H96192   7.431   3.562   7.860 -2.8568 -2.6539  2.4325
  713MOL0     H96193   7.526   3.439   7.938 -0.5222 -0.1539  0.5692
  713MOL0     H96194   7.565   3.317   7.731 -1.5306 -2.0513  1.3811
  713MOL0     H96195   7.484   3.438   7.634 -1.4907 -0.3026 -0.3818
  713MOL0     H96196   7.384   3.231   7.855  0.9964 -0.4273 -0.2097
  713MOL0     H96197   7.280   3.371   7.811 -1.0093  2.4328 -0.3697
  713MOL0     H96198   7.302   3.293   7.564 -2.0754  2.5190  1.5859
  713MOL0     H96199   7.372   3.148   7.628  1.8710  1.6714 -2.1316
  713MOL0     H96200   7.172   3.128   7.785  2.7667  2.0356  1.2788
  713MOL0     H96201   7.096   3.258   7.686 -0.7105 -0.8849 -1.9621
  713MOL0     H96202   7.119   3.104   7.473 -0.1212  1.5386  1.3976
  713MOL0     H96203   7.008   3.044   7.593 -0.2401 -1.9305 -0.3440
  713MOL0     H96204   7.151   2.867   7.513  2.6819  2.0879 -1.5064
  713MOL0     H96205   7.281   2.944   7.617 -0.5685  2.0956  1.1832
  713MOL0     H96206   7.232   2.933   7.891 -0.8557  2.5617 -2.7521
  713MOL0     H96207   7.159   2.704   8.090 -0.8903 -1.3802  0.3272
  713MOL0     H96208   7.066   2.846   8.130  2.2546 -0.0255 -0.1153
  713MOL0     H96209   6.862   2.713   8.090 -1.3392 -0.0132  2.6155
  713MOL0     H96210   6.960   2.565   8.050  1.7667 -0.8742  1.8344
  713MOL0     H96211   6.957   2.710   8.315  0.6664 -2.3229  1.9644
  713MOL0     H96212   7.065   2.580   8.267 -0.1411  0.4038 -0.5064
  713MOL0     H96213   6.902   2.420   8.254 -1.3958  0.0405 -1.9407
  713MOL0     H96214   6.775   2.539   8.225 -2.1323 -1.2687  3.1455
  713MOL0     H96215   6.689   2.422   8.606  2.1862  2.4080  1.6670
  713MOL0     H96216   6.467   2.508   8.694 -2.7267 -0.4274 -0.2394
  713MOL0     H96217   6.129   2.403   8.737 -2.6349 -2.6151 -1.8081
  713MOL0     H96218   5.908   2.362   8.777 -0.0587 -0.3686 -0.5998
  713MOL0     H96219   5.615   2.697   8.848 -1.3390  0.3363 -0.1001
  713MOL0     H96220   5.617   2.718   8.676  0.1783  2.1992  2.0334
  713MOL0     H96221   5.396   2.657   8.730 -0.4855 -0.4989 -2.0948
  713MOL0     H96222   5.462   2.524   8.638 -1.5080 -1.0703  1.3321
  713MOL0     H96223   5.524   2.426   8.861  0.0078 -0.9038 -4.7480
  713MOL0     H96224   5.413   2.558   8.929 -0.3431 -0.6207  1.2491
  713MOL0     H96225   5.340   2.335   8.733 -0.3243  0.2825  0.7426
  713MOL0     H96226   5.240   2.480   8.780  0.4891  0.2106 -0.0475
  713MOL0     H96227   5.254   2.399   9.016 -2.9266 -2.1316  1.4506
  713MOL0     H96228   5.344   2.246   8.962 -0.6567 -1.0448 -3.1061
  713MOL0     H96229   5.062   2.329   8.911 -0.3925  0.1570  0.6723
  713MOL0     H96230   5.131   2.197   8.829 -0.9241  0.4667  1.0405
  713MOL0     H96231   5.135   2.223   9.125 -2.8486  1.0377  0.0320
  713MOL0     H96232   5.201   2.083   9.033 -0.1182  0.3094 -1.2545
  713MOL0     H96233   4.988   2.047   9.151 -0.3403  1.5903  0.2852
  713MOL0     H96234   4.905   2.153   9.046 -0.6182 -0.4244  1.7989
  713MOL0     H96235   5.831   2.798   8.734  1.4045  0.7018 -0.9807
  713MOL0     H96236   6.051   2.832   8.719 -2.7969  0.7508 -0.6247
  713MOL0     H96237   6.455   2.797   8.385  1.0570  0.5383  0.0780
  713MOL0     H96238   6.660   2.737   8.312 -0.1596  3.2826  1.4823
  713MOL0     H96239   7.875   3.327   7.608 -2.3278  0.8587  1.1206
  713MOL0     H96240   8.088   3.388   7.470  1.8119  1.9136  0.4696
  713MOL0     H96241   8.145   3.592   7.260 -1.6991 -4.0971 -0.0148
  713MOL0     H96242   8.183   3.593   7.021  2.1028 -0.9311 -2.2626
  713MOL0     H96243   8.509   3.574   6.740  0.8201  0.0389 -0.3883
  713MOL0     H96244   8.605   3.546   6.878  1.7067  1.3679  1.3925
  713MOL0     H96245   8.513   3.755   6.977  0.4542  2.5268 -1.4754
  713MOL0     H96246   8.391   3.783   6.874  0.0358 -0.8709  2.3990
  713MOL0     H96247   8.695   3.740   6.807  1.1642  0.9950  2.3016
  713MOL0     H96248   8.636   3.881   6.879  4.0776 -2.8342  1.7130
  713MOL0     H96249   8.671   3.912   6.638 -0.2310  0.2922 -2.0207
  713MOL0     H96250   8.553   3.790   6.597  3.2005 -1.8884  2.0209
  713MOL0     H96251   8.348   4.161   6.717 -1.4474 -0.3328 -0.6898
  713MOL0     H96252   8.561   3.408   7.068 -2.2254 -3.6898 -1.1447
  713MOL0     H96253   8.586   3.488   7.441  1.1242 -1.7094  0.7446
  713MOL0     H96254   8.602   3.325   7.372 -0.3116  1.1611  3.1486
  713MOL0     H96255   8.683   3.457   7.292  2.4440  0.5597  2.4470
  714MOL0     O96256   2.636   7.798   4.166  0.2830  0.2730  0.9157
  714MOL0     C96257   2.695   7.805   4.053 -0.5916 -0.1708 -0.6838
  714MOL0     O96258   2.777   7.919   4.020 -0.0511  0.4920  0.1383
  714MOL0     C96259   2.807   8.024   4.111 -0.1953  0.6923 -0.2057
  714MOL0     C96260   2.838   8.142   4.054 -0.1387 -0.0397  0.8193
  714MOL0     C96261   2.870   8.249   4.125  0.8694 -0.1295 -0.7783
  714MOL0     C96262   2.874   8.237   4.271 -0.2251  0.3100  0.8487
  714MOL0     O96263   2.902   8.358   4.339 -1.3086  0.4223  0.0777
  714MOL0     C96264   2.871   8.373   4.477  0.2989  0.5400 -0.2100
  714MOL0     C96265   2.718   8.397   4.494  0.4450  0.3556  0.0116
  714MOL0     C96266   2.671   8.525   4.429 -0.1819 -0.0090 -0.2123
  714MOL0     C96267   2.524   8.541   4.440  0.0284  0.6000  0.0018
  714MOL0     C96268   2.465   8.659   4.356  0.7663 -0.6090  0.2706
  714MOL0     C96269   2.374   8.763   4.429 -1.5077  0.0952 -0.2400
  714MOL0     C96270   2.291   8.850   4.327 -1.2435  0.8617  0.2492
  714MOL0     C96271   2.214   8.953   4.402 -1.2744 -0.1562 -0.2474
  714MOL0     N96272   2.277   9.080   4.426  0.0057 -0.3175 -0.1187
  714MOL0     C96273   2.286   9.182   4.334 -0.3401 -0.2575 -0.2692
  714MOL0     C96274   2.344   9.288   4.404 -0.0925 -0.2766  0.3401
  714MOL0     C96275   2.392   9.423   4.353 -0.5370 -0.8665 -0.2655
  714MOL0     C96276   2.277   9.527   4.379 -0.7082  0.2889 -0.4527
  714MOL0     C96277   2.134   9.475   4.361  0.0396  1.3907 -0.7798
  714MOL0     C96278   2.031   9.578   4.378 -0.5247 -0.1423 -0.8066
  714MOL0     O96279   2.037   9.643   4.503  0.6303 -0.9001 -0.6333
  714MOL0     C96280   1.953   9.750   4.524 -0.9255  0.2101  0.5873
  714MOL0     C96281   1.934   9.801   4.663 -0.0121  0.2270 -0.4504
  714MOL0     C96282   1.840   9.891   4.698 -0.4986 -0.2952  0.6027
  714MOL0     C96283   1.763   9.959   4.597  1.0156 -1.2958 -0.4874
  714MOL0     C96284   1.678  10.070   4.645 -0.2965  1.0409 -0.6867
  714MOL0     O96285   1.569  10.109   4.563 -0.4933  0.0179 -0.4265
  714MOL0     C96286   1.494  10.220   4.594 -0.7063  0.6258 -0.3630
  714MOL0     C96287   1.424  10.219   4.715 -0.3003  1.0612 -0.1757
  714MOL0     C96288   1.355  10.328   4.760  0.1690 -0.1383 -0.6805
  714MOL0     C96289   1.355  10.440   4.687  0.3151 -0.7839  0.2769
  714MOL0     O96290   1.278  10.541   4.729 -0.0732  0.5076  0.3389
  714MOL0     C96291   1.328  10.672   4.703  0.4485 -0.6349 -0.8019
  714MOL0     C96292   1.367  10.756   4.818  0.0008 -0.4679 -0.1849
  714MOL0     C96293   1.269  10.807   4.929  0.3330  0.3968  0.3184
  714MOL0     C96294   1.130  10.834   4.863 -0.0943  0.4702  0.4433
  714MOL0     C96295   1.066  10.959   4.922 -0.3421  0.5186 -0.0741
  714MOL0     C96296   0.935  10.992   4.837 -0.6834 -0.1934 -0.0796
  714MOL0     C96297   0.861  11.130   4.872  0.2232  0.4582 -0.0450
  714MOL0     C96298   0.944  11.249   4.828  0.4390  0.9869  0.2989
  714MOL0    Cl96299   0.889  11.393   4.934 -0.0631 -0.0829 -0.2902
  714MOL0     C96300   1.400  10.437   4.556  0.0513  0.8766 -0.1854
  714MOL0     C96301   1.474  10.324   4.510 -0.5420  0.0979 -0.1668
  714MOL0     O96302   1.705  10.123   4.753 -0.0154 -0.7958 -0.4008
  714MOL0     C96303   1.781   9.916   4.460 -0.1038 -0.1486  0.2920
  714MOL0     C96304   1.868   9.810   4.425 -0.5088 -0.2835 -0.5547
  714MOL0     N96305   2.360   9.238   4.533 -0.5032  0.0346 -0.0742
  714MOL0     N96306   2.321   9.118   4.549 -0.4402  0.1197 -0.6983
  714MOL0     C96307   2.846   8.115   4.334  0.4006 -0.0235  0.1627
  714MOL0     C96308   2.812   8.011   4.250 -0.6956  0.3644 -0.2426
  714MOL0     C96309   2.657   7.710   3.941 -1.5679  0.0408 -0.2248
  714MOL0     C96310   2.709   7.738   3.812  0.8688  0.4644  0.8267
  714MOL0     C96311   2.682   7.644   3.700 -0.0204 -0.1486 -0.0130
  714MOL0     C96312   2.614   7.529   3.728  0.2407  0.0536  0.1115
  714MOL0     O96313   2.606   7.449   3.620 -0.3326  0.0434 -0.2877
  714MOL0     C96314   2.491   7.373   3.592  0.7772  0.6244  0.2162
  714MOL0     C96315   2.504   7.333   3.437  0.3684  0.1937  0.1150
  714MOL0     C96316   2.467   7.446   3.339 -0.0083  0.2757  0.3033
  714MOL0     C96317   2.393   7.571   3.392 -0.8241 -0.3279 -0.2019
  714MOL0     C96318   2.254   7.549   3.404  0.5907  0.0614 -0.2182
  714MOL0     C96319   2.136   7.539   3.410 -0.2470  0.1033  0.3301
  714MOL0     C96320   2.546   7.512   3.848 -0.2271 -0.7293 -0.0189
  714MOL0     C96321   2.575   7.591   3.951  0.1544 -0.2896 -0.5711
  714MOL0     C96322   2.507   7.563   4.079 -0.1147 -1.0469  0.0050
  714MOL0     H96323   2.860   8.146   3.948  0.8424  0.4494  1.0278
  714MOL0     H96324   2.895   8.345   4.080 -3.6213  0.6065 -2.1939
  714MOL0     H96325   2.900   8.291   4.544  3.7261 -0.4328 -2.6266
  714MOL0     H96326   2.924   8.462   4.511 -0.6928  0.7727  0.7650
  714MOL0     H96327   2.705   8.409   4.602  0.4780  0.5761 -0.0073
  714MOL0     H96328   2.662   8.314   4.451  1.2379  0.6650 -1.6844
  714MOL0     H96329   2.708   8.511   4.326  0.3950 -1.5828  0.1749
  714MOL0     H96330   2.694   8.617   4.482 -5.2630  0.7176  1.2526
  714MOL0     H96331   2.475   8.448   4.409  1.1098 -1.7376  4.4872
  714MOL0     H96332   2.495   8.554   4.544 -2.9887  1.3923 -0.8481
  714MOL0     H96333   2.543   8.718   4.309  1.1396 -1.3224 -0.0171
  714MOL0     H96334   2.404   8.626   4.272 -1.6062  1.1572  1.1737
  714MOL0     H96335   2.299   8.699   4.476 -0.0924 -1.2505  0.2713
  714MOL0     H96336   2.429   8.819   4.505  1.3502 -1.5117 -0.9584
  714MOL0     H96337   2.223   8.778   4.283 -0.9636 -1.1658  2.9175
  714MOL0     H96338   2.362   8.894   4.256 -0.2902 -1.8688 -0.6269
  714MOL0     H96339   2.128   8.969   4.336  0.2208 -0.1591 -2.2729
  714MOL0     H96340   2.184   8.904   4.495 -1.2046  0.4431  0.0980
  714MOL0     H96341   2.248   9.172   4.233  0.7516  0.9847 -0.8363
  714MOL0     H96342   2.488   9.457   4.394  0.7898 -2.7750 -1.5979
  714MOL0     H96343   2.409   9.392   4.250 -1.5103 -1.6720 -0.1998
  714MOL0     H96344   2.283   9.551   4.485  0.9036  0.1985 -0.4999
  714MOL0     H96345   2.289   9.617   4.318 -0.6198  3.7112  4.0825
  714MOL0     H96346   2.111   9.398   4.436 -0.0388  2.8417  0.7470
  714MOL0     H96347   2.125   9.435   4.259  1.6712  2.3028 -1.3067
  714MOL0     H96348   1.926   9.546   4.377 -0.2840 -1.9117  3.7724
  714MOL0     H96349   2.045   9.650   4.297  0.4126  0.0092 -0.5274
  714MOL0     H96350   1.991   9.756   4.744 -1.2676  0.8038  0.7965
  714MOL0     H96351   1.839   9.914   4.804 -1.1914 -1.1302  0.7943
  714MOL0     H96352   1.417  10.134   4.782  2.0857 -0.7313 -2.0546
  714MOL0     H96353   1.292  10.313   4.848  1.1781  3.2706  0.8024
  714MOL0     H96354   1.420  10.663   4.644  2.1942 -3.7601  2.0663
  714MOL0     H96355   1.272  10.735   4.634  0.0985  0.3581  0.3544
  714MOL0     H96356   1.450  10.719   4.880 -1.0443  1.2587  2.4252
  714MOL0     H96357   1.392  10.844   4.758 -1.3094 -0.9125 -1.4305
  714MOL0     H96358   1.273  10.750   5.023  0.6832 -2.1352 -1.1288
  714MOL0     H96359   1.301  10.906   4.962  3.1375 -0.8475  1.6775
  714MOL0     H96360   1.058  10.752   4.869 -0.7301  1.0767  1.4769
  714MOL0     H96361   1.141  10.867   4.760  0.8078  0.8034  0.6383
  714MOL0     H96362   1.127  11.049   4.921 -2.2556  1.8964  0.6402
  714MOL0     H96363   1.040  10.949   5.028  1.5587 -1.9345  0.2700
  714MOL0     H96364   0.946  10.990   4.729 -0.6433  1.0196 -0.1160
  714MOL0     H96365   0.864  10.913   4.864  0.5379 -2.3718 -2.7643
  714MOL0     H96366   0.865  11.148   4.980 -1.5070  1.0114 -0.0439
  714MOL0     H96367   0.761  11.143   4.830 -0.3344 -0.0363  1.0841
  714MOL0     H96368   1.051  11.227   4.830 -0.1295 -2.6388 -1.4201
  714MOL0     H96369   0.923  11.279   4.724  3.8269  0.6111 -0.5970
  714MOL0     H96370   1.374  10.513   4.483 -1.7957 -0.4057 -0.9169
  714MOL0     H96371   1.519  10.295   4.415 -1.1022 -1.9045  0.1369
  714MOL0     H96372   1.712   9.961   4.389  0.7392 -3.2273 -2.7104
  714MOL0     H96373   1.887   9.797   4.319  2.5794  1.8134 -0.3783
  714MOL0     H96374   2.851   8.112   4.442 -0.4882  0.8970  0.2488
  714MOL0     H96375   2.800   7.916   4.302 -0.4533  0.1317 -0.6023
  714MOL0     H96376   2.762   7.831   3.793 -0.2406  0.5265 -2.7132
  714MOL0     H96377   2.736   7.653   3.607  1.1245 -1.0831  0.5453
  714MOL0     H96378   2.400   7.418   3.632 -0.1343 -1.1369  0.2001
  714MOL0     H96379   2.489   7.278   3.645 -3.3150  0.3712 -0.0767
  714MOL0     H96380   2.438   7.247   3.420  0.3774  0.2871 -0.4160
  714MOL0     H96381   2.601   7.294   3.405 -1.0588 -4.3429  0.5492
  714MOL0     H96382   2.409   7.408   3.255  0.5425  2.4877 -1.1513
  714MOL0     H96383   2.566   7.472   3.302  2.8359 -2.2385  5.0728
  714MOL0     H96384   2.437   7.608   3.485 -0.3311 -1.1545 -0.1075
  714MOL0     H96385   2.409   7.652   3.320 -0.7023  1.1090  1.3673
  714MOL0     H96386   2.029   7.538   3.423 -0.6280 -0.5363 -2.3113
  714MOL0     H96387   2.472   7.433   3.855  0.2784 -1.0867  1.7620
  714MOL0     H96388   2.449   7.470   4.078 -2.1883  0.1634 -1.7795
  714MOL0     H96389   2.584   7.561   4.156 -0.8088  2.9958  1.0205
  714MOL0     H96390   2.444   7.645   4.114 -1.4246 -1.3201 -1.5898
  715MOL0     O96391  10.624   9.235   9.295 -0.1243  0.0181  0.0899
  715MOL0     C96392  10.529   9.214   9.371  0.4025  0.1634  0.6396
  715MOL0     O96393  10.515   9.098   9.447 -0.0554  1.0136 -0.4449
  715MOL0     C96394  10.623   9.027   9.493 -0.6814 -0.5031 -0.1365
  715MOL0     C96395  10.596   8.907   9.550 -0.1027 -0.2893  0.3352
  715MOL0     C96396  10.702   8.829   9.595  0.7296 -0.1876 -0.4423
  715MOL0     C96397  10.832   8.865   9.604  0.4162  0.4042  0.5654
  715MOL0     O96398  10.914   8.771   9.666  0.0102 -0.6965 -0.9418
  715MOL0     C96399  11.023   8.839   9.730 -0.5623  0.7436 -0.6625
  715MOL0     C96400  10.985   8.920   9.855 -0.3612  0.1393 -0.5109
  715MOL0     C96401  10.926   8.820   9.960  0.2044  1.3170 -0.2702
  715MOL0     C96402  10.871   8.899  10.087  0.6695 -0.2980 -0.4353
  715MOL0     C96403  10.740   8.979  10.079 -0.2726  0.4910 -0.2219
  715MOL0     C96404  10.626   8.905  10.005  0.8298 -0.1963  0.5778
  715MOL0     C96405  10.494   8.993  10.011  1.0120  0.3846  0.2810
  715MOL0     C96406  10.394   8.949   9.904 -0.0793  1.4298 -0.4718
  715MOL0     N96407  10.289   9.052   9.881  0.3889 -0.8146  0.4056
  715MOL0     C96408  10.165   9.069   9.942  0.3479  0.5544 -0.8653
  715MOL0     C96409  10.138   9.204   9.910 -0.1937 -0.6626  0.6158
  715MOL0     C96410  10.008   9.272   9.954  0.2746  0.4919 -0.0326
  715MOL0     C96411   9.895   9.227   9.872 -0.1101 -0.4251 -0.1157
  715MOL0     C96412   9.762   9.312   9.920  0.2017  0.2891 -0.2315
  715MOL0     C96413   9.767   9.454   9.876  0.2721 -0.3455  0.2065
  715MOL0     O96414   9.737   9.479   9.733 -0.3856  1.3622  0.0081
  715MOL0     C96415   9.694   9.602   9.687  0.4727  0.2072 -0.7160
  715MOL0     C96416   9.712   9.719   9.757  0.0456  0.4947 -0.1538
  715MOL0     C96417   9.674   9.840   9.690 -0.4325  0.1490  0.1217
  715MOL0     C96418   9.611   9.842   9.561 -0.6748  0.8886 -0.0668
  715MOL0     C96419   9.551   9.959   9.517 -0.0191 -1.2384  0.7129
  715MOL0     O96420   9.501   9.966   9.394 -0.4354  0.8572 -0.2710
  715MOL0     C96421   9.430  10.079   9.352 -0.9145 -0.1609  0.6063
  715MOL0     C96422   9.476  10.155   9.246  0.3487 -0.2971  0.3075
  715MOL0     C96423   9.406  10.260   9.196  0.1343  0.5750 -0.5080
  715MOL0     C96424   9.270  10.269   9.232 -0.2849 -0.0754 -0.1822
  715MOL0     O96425   9.200  10.360   9.147  0.2220  0.3793 -0.9172
  715MOL0     C96426   9.059  10.374   9.172  1.3761  0.2429  0.4909
  715MOL0     C96427   8.993  10.430   9.050 -0.3300  0.2019  0.8472
  715MOL0     C96428   8.842  10.478   9.087  0.6271  0.6160  0.5572
  715MOL0     C96429   8.725  10.392   9.026 -0.9591 -1.2550 -0.0847
  715MOL0     C96430   8.679  10.267   9.103 -0.0375  0.6499 -0.7029
  715MOL0     C96431   8.536  10.233   9.069 -0.2385 -0.3866  1.4196
  715MOL0     C96432   8.501  10.085   9.126 -0.0317  0.7334  0.4027
  715MOL0     C96433   8.361  10.008   9.091  0.5911 -0.9291  0.6314
  715MOL0    Cl96434   8.216  10.102   9.111  0.1692 -0.1564 -0.2595
  715MOL0     C96435   9.214  10.188   9.328 -0.5903  0.2721  0.1302
  715MOL0     C96436   9.304  10.095   9.384 -0.0838  0.3557 -0.0019
  715MOL0     O96437   9.564  10.056   9.582 -0.5225 -0.2264 -0.2275
  715MOL0     C96438   9.586   9.716   9.501  0.4063 -0.0072 -0.5504
  715MOL0     C96439   9.637   9.599   9.556 -1.2449  0.3114 -0.3709
  715MOL0     N96440  10.241   9.258   9.825  0.1153 -0.2129  0.1118
  715MOL0     N96441  10.328   9.172   9.812  0.7185  0.2555  0.3756
  715MOL0     C96442  10.856   8.996   9.548 -0.2148 -0.1949  0.3810
  715MOL0     C96443  10.754   9.074   9.494  1.1820 -0.6864  0.2782
  715MOL0     C96444  10.420   9.315   9.375  0.1809 -1.2444  0.3383
  715MOL0     C96445  10.326   9.296   9.479 -0.1029  0.2071  0.7026
  715MOL0     C96446  10.216   9.380   9.485  0.0700  0.3013 -0.2511
  715MOL0     C96447  10.187   9.493   9.398  1.4834 -0.6440 -0.7993
  715MOL0     O96448  10.075   9.572   9.403  0.5252 -0.0197  0.7984
  715MOL0     C96449  10.045   9.618   9.534 -0.3113 -0.0594 -0.5626
  715MOL0     C96450  10.145   9.727   9.589 -0.4096  0.5246 -0.3351
  715MOL0     C96451  10.136   9.843   9.493  0.6095  1.2409 -1.1564
  715MOL0     C96452  10.187   9.972   9.557 -0.5803 -0.4806 -0.3638
  715MOL0     C96453  10.085  10.017   9.644  0.3445  0.4879 -0.0196
  715MOL0     C96454   9.988  10.046   9.709 -0.5417 -0.1889 -0.1319
  715MOL0     C96455  10.284   9.502   9.304 -0.7797 -0.4388  0.7146
  715MOL0     C96456  10.387   9.413   9.282 -0.7847  0.2654 -0.4306
  715MOL0     C96457  10.478   9.425   9.160  0.6310 -1.1348 -0.6335
  715MOL0     H96458  10.495   8.884   9.583 -0.3671  1.2249  0.6563
  715MOL0     H96459  10.675   8.732   9.636  1.1708  0.5602  1.7043
  715MOL0     H96460  11.092   8.762   9.768  2.5000  1.2156 -4.5703
  715MOL0     H96461  11.083   8.901   9.663  0.0488 -2.0455 -2.8960
  715MOL0     H96462  10.926   9.010   9.837  2.0526  2.8138  3.3815
  715MOL0     H96463  11.076   8.948   9.908  1.1502 -1.0849 -2.3329
  715MOL0     H96464  10.997   8.748  10.001 -0.1142 -0.3792 -2.5150
  715MOL0     H96465  10.851   8.753   9.919 -0.1770 -0.4397  2.9078
  715MOL0     H96466  10.862   8.824  10.166 -1.1865 -2.7349 -2.7715
  715MOL0     H96467  10.948   8.971  10.116  2.9806 -2.1341 -1.6538
  715MOL0     H96468  10.710   8.992  10.183  0.7101  3.5728 -0.1930
  715MOL0     H96469  10.764   9.074  10.030 -0.2940  1.7360  2.0194
  715MOL0     H96470  10.652   8.891   9.899  0.6137  0.8756  0.3607
  715MOL0     H96471  10.594   8.812  10.052  3.1726 -0.3491  2.0158
  715MOL0     H96472  10.523   9.096   9.990 -2.1862  1.2000 -0.6404
  715MOL0     H96473  10.458   8.977  10.113  1.8368 -1.7969  0.2773
  715MOL0     H96474  10.443   8.921   9.810  0.2586 -0.5825  0.2397
  715MOL0     H96475  10.353   8.848   9.921  2.2950  0.6983  1.3924
  715MOL0     H96476  10.104   9.002  10.001 -2.0418  0.2783 -3.4510
  715MOL0     H96477   9.979   9.259  10.059 -0.4854  0.9572 -0.1815
  715MOL0     H96478  10.012   9.381   9.953 -2.9628  0.8761  3.7898
  715MOL0     H96479   9.913   9.262   9.770 -2.5821  4.9020  0.9816
  715MOL0     H96480   9.880   9.119   9.887  3.3167 -0.7803  1.9368
  715MOL0     H96481   9.763   9.306  10.029 -0.6711  1.6570 -0.1224
  715MOL0     H96482   9.686   9.244   9.879  1.3193 -1.6416  0.7397
  715MOL0     H96483   9.857   9.506   9.911 -0.1893  0.5333  0.1291
  715MOL0     H96484   9.696   9.506   9.941 -2.0161 -2.6155 -0.3387
  715MOL0     H96485   9.755   9.730   9.856 -0.8060  1.7265  0.0971
  715MOL0     H96486   9.702   9.933   9.738  2.5633  2.3935 -5.1230
  715MOL0     H96487   9.583  10.144   9.227 -0.2231 -3.6613 -1.7041
  715MOL0     H96488   9.449  10.320   9.116  1.0848  3.7243  2.1528
  715MOL0     H96489   9.018  10.275   9.194  1.5777  0.2145  0.7271
  715MOL0     H96490   9.054  10.450   9.251  1.0810 -1.0342  1.7291
  715MOL0     H96491   9.054  10.505   9.000 -1.8283  0.2211 -1.0424
  715MOL0     H96492   8.981  10.351   8.976 -3.1907  0.4606  0.9322
  715MOL0     H96493   8.837  10.479   9.196  0.5492  0.4761  0.5552
  715MOL0     H96494   8.831  10.579   9.045  1.3432  0.1710 -0.7729
  715MOL0     H96495   8.747  10.356   8.925  2.2863 -1.5670  0.6317
  715MOL0     H96496   8.641  10.461   9.017  0.5606  0.7594  0.5900
  715MOL0     H96497   8.690  10.278   9.211 -1.5632 -1.9928 -0.1816
  715MOL0     H96498   8.744  10.183   9.077  1.5283  0.9544  1.8937
  715MOL0     H96499   8.485  10.319   9.113  1.7490  0.8587  1.3937
  715MOL0     H96500   8.534  10.233   8.959 -1.9018  3.2698  1.3148
  715MOL0     H96501   8.505  10.085   9.236 -0.2215  2.0590  0.4262
  715MOL0     H96502   8.579  10.016   9.094 -0.1378  1.0399 -0.5282
  715MOL0     H96503   8.370   9.954   8.996 -0.6159 -2.2869  1.2647
  715MOL0     H96504   8.357   9.933   9.170 -0.1006 -1.5165  0.0490
  715MOL0     H96505   9.113  10.206   9.363 -1.6612 -2.0652 -1.5303
  715MOL0     H96506   9.273  10.050   9.478  0.8350  1.9492  1.1216
  715MOL0     H96507   9.530   9.707   9.408  0.4475 -0.1298 -0.5633
  715MOL0     H96508   9.608   9.505   9.510  0.1389 -0.2587 -0.1221
  715MOL0     H96509  10.958   9.031   9.558 -0.5096  0.6509  0.5249
  715MOL0     H96510  10.785   9.164   9.441  2.8935  0.1556  2.5600
  715MOL0     H96511  10.345   9.220   9.554 -2.2149 -1.4403 -0.3229
  715MOL0     H96512  10.158   9.359   9.574  0.2332 -1.4270 -0.5192
  715MOL0     H96513  10.041   9.539   9.610 -0.7691  1.7023  1.3330
  715MOL0     H96514   9.941   9.650   9.543  0.7040  2.8172  3.6398
  715MOL0     H96515  10.245   9.684   9.603  1.0930  3.1628 -2.1658
  715MOL0     H96516  10.095   9.762   9.680 -6.9240 -0.8261 -2.8864
  715MOL0     H96517  10.031   9.859   9.465 -0.0204 -2.1057 -1.0645
  715MOL0     H96518  10.201   9.822   9.407  0.0795  1.3434 -1.5874
  715MOL0     H96519  10.284   9.960   9.606 -0.9173 -3.1240 -0.1596
  715MOL0     H96520  10.198  10.043   9.475  0.3488 -0.1303  0.0451
  715MOL0     H96521   9.904  10.081   9.766 -0.9883 -1.5654  0.0938
  715MOL0     H96522  10.275   9.590   9.240 -0.6880  0.0700  1.3902
  715MOL0     H96523  10.495   9.323   9.124  1.0165 -0.0127 -3.9172
  715MOL0     H96524  10.424   9.486   9.088 -0.0959  2.0138  2.3434
  715MOL0     H96525  10.575   9.470   9.183  0.8764 -1.6390 -0.6624
  716MOL0     O96526   8.832   9.879   7.985 -0.0622  0.0356 -0.4063
  716MOL0     C96527   8.721   9.864   7.948 -0.5483 -0.0244 -0.3388
  716MOL0     O96528   8.618   9.954   7.979 -0.2811 -0.4895 -0.3523
  716MOL0     C96529   8.657  10.077   8.023 -0.0956 -0.5349 -0.6917
  716MOL0     C96530   8.623  10.184   7.946  0.1000  0.0116  0.4925
  716MOL0     C96531   8.659  10.318   7.981  0.2843  1.2822  0.9670
  716MOL0     C96532   8.699  10.348   8.107  0.2343 -0.7737  0.4133
  716MOL0     O96533   8.719  10.478   8.135 -0.3480 -0.4432  0.5659
  716MOL0     C96534   8.730  10.525   8.268 -0.0029 -0.2083 -0.2657
  716MOL0     C96535   8.597  10.531   8.344  0.3266 -0.7656  0.1422
  716MOL0     C96536   8.607  10.608   8.476 -0.5946 -0.1945 -1.1239
  716MOL0     C96537   8.459  10.609   8.544 -0.7326  0.0994 -0.0660
  716MOL0     C96538   8.457  10.578   8.695 -0.4270  0.2326  0.1985
  716MOL0     C96539   8.318  10.622   8.754  0.4480  0.7262  0.0474
  716MOL0     C96540   8.316  10.566   8.896  0.2961 -0.6454  0.7358
  716MOL0     C96541   8.208  10.621   8.996  0.7103  0.0891 -0.8997
  716MOL0     N96542   8.172  10.534   9.107  1.0199  0.4863 -0.3920
  716MOL0     C96543   8.250  10.506   9.220 -0.2380  0.4678 -0.0590
  716MOL0     C96544   8.150  10.468   9.316 -0.2267  0.7925 -0.9667
  716MOL0     C96545   8.194  10.446   9.464  1.2899 -0.0187  0.1951
  716MOL0     C96546   8.224  10.557   9.557 -0.6620 -1.3634 -0.0453
  716MOL0     C96547   8.226  10.492   9.691 -0.5004  0.5525 -0.6704
  716MOL0     C96548   8.227  10.594   9.810 -1.0233  0.5415 -0.5981
  716MOL0     O96549   8.101  10.653   9.829  0.0256 -0.5385 -0.2106
  716MOL0     C96550   8.089  10.743   9.933 -0.3266 -0.3423 -1.2448
  716MOL0     C96551   7.984  10.735  10.013  0.2019  0.0457 -0.6079
  716MOL0     C96552   7.956  10.810  10.120  0.1218  0.4141 -0.6157
  716MOL0     C96553   8.055  10.894  10.157  0.4966  0.1270  0.4363
  716MOL0     C96554   8.038  10.967  10.290  0.6996  0.2537 -0.2049
  716MOL0     O96555   7.955  10.910  10.379  0.5513 -0.4569  0.8750
  716MOL0     C96556   7.970  10.947  10.510 -0.8177  0.9254 -0.1515
  716MOL0     C96557   7.959  11.078  10.544 -1.1522 -1.2745 -0.5823
  716MOL0     C96558   7.959  11.121  10.681 -0.6431 -0.6069  0.2004
  716MOL0     C96559   7.948  11.029  10.789 -0.6248 -0.0399 -0.1699
  716MOL0     O96560   7.956  11.081  10.918  0.1633 -0.0760  1.0078
  716MOL0     C96561   7.931  10.982  11.018  0.4047 -0.6338  0.6359
  716MOL0     C96562   7.874  11.053  11.144  0.6979  0.7605  0.5035
  716MOL0     C96563   7.731  11.095  11.132  0.1489 -0.0668 -0.7833
  716MOL0     C96564   7.710  11.213  11.034 -0.1347 -0.4176  0.0612
  716MOL0     C96565   7.577  11.305  11.075  0.3152 -0.0037  0.6540
  716MOL0     C96566   7.591  11.448  11.014  0.5095  1.0912  0.7781
  716MOL0     C96567   7.598  11.442  10.864 -0.5938  0.1034  0.0893
  716MOL0     C96568   7.615  11.591  10.819  0.3664 -0.1950 -0.9027
  716MOL0    Cl96569   7.456  11.684  10.853  0.1510  0.5757  0.0906
  716MOL0     C96570   7.948  10.898  10.746 -0.8501 -0.4581  0.3749
  716MOL0     C96571   7.973  10.852  10.611 -0.3892  0.0242  1.5986
  716MOL0     O96572   8.124  11.056  10.314  0.8334  0.7208  0.3041
  716MOL0     C96573   8.169  10.925  10.069  0.1803  0.1076  0.2443
  716MOL0     C96574   8.175  10.851   9.943  0.1016 -0.6225  0.2548
  716MOL0     N96575   8.030  10.477   9.261 -0.0631  0.3334  0.1812
  716MOL0     N96576   8.040  10.502   9.136 -0.7208 -0.3114 -0.1969
  716MOL0     C96577   8.724  10.241   8.191  0.0123  0.6418 -0.3736
  716MOL0     C96578   8.697  10.105   8.152 -0.4691 -0.9750 -0.4411
  716MOL0     C96579   8.693   9.743   7.859  0.8524 -0.1299  0.4489
  716MOL0     C96580   8.570   9.754   7.776 -0.1439 -0.5113  0.4751
  716MOL0     C96581   8.527   9.648   7.692 -1.2039  0.0231  0.0688
  716MOL0     C96582   8.613   9.533   7.692 -0.5344  0.8568 -0.3154
  716MOL0     O96583   8.587   9.422   7.611 -0.2014  0.1522 -0.3799
  716MOL0     C96584   8.679   9.379   7.507 -0.2458 -0.3428  0.0120
  716MOL0     C96585   8.690   9.477   7.388 -0.2560  0.4362  0.0183
  716MOL0     C96586   8.568   9.496   7.306  0.1733  0.4094 -0.0364
  716MOL0     C96587   8.604   9.542   7.157 -0.6262  0.0104 -0.9206
  716MOL0     C96588   8.633   9.425   7.071  0.3897 -1.3421  0.2184
  716MOL0     C96589   8.646   9.344   6.981  0.1453 -0.3381  0.4595
  716MOL0     C96590   8.726   9.520   7.772 -0.0524  0.0421  0.1931
  716MOL0     C96591   8.769   9.626   7.856  0.5681  1.2696 -0.0062
  716MOL0     C96592   8.901   9.596   7.927  0.1294  0.9338 -0.0711
  716MOL0     H96593   8.586  10.151   7.849  1.8059 -2.0463  0.4564
  716MOL0     H96594   8.642  10.392   7.903 -2.6903  1.0343  1.2420
  716MOL0     H96595   8.804  10.466   8.324  0.2229 -0.3506 -0.7110
  716MOL0     H96596   8.773  10.625   8.256  1.0642 -0.7450 -1.1392
  716MOL0     H96597   8.549  10.433   8.355 -3.0908  0.8740  1.1103
  716MOL0     H96598   8.528  10.590   8.283  1.9822  0.3240 -0.7763
  716MOL0     H96599   8.659  10.704   8.466 -4.3545  2.4758  1.8601
  716MOL0     H96600   8.669  10.533   8.525 -0.8535 -2.1219 -3.5256
  716MOL0     H96601   8.428  10.713   8.527  1.0036  0.6758  0.0515
  716MOL0     H96602   8.385  10.549   8.491  0.6593  0.2417 -2.3484
  716MOL0     H96603   8.473  10.470   8.705  0.5185  0.0444 -2.4959
  716MOL0     H96604   8.540  10.631   8.742  1.1719 -1.4225 -0.6123
  716MOL0     H96605   8.310  10.731   8.749  2.1535  1.3430  5.1315
  716MOL0     H96606   8.236  10.575   8.699  0.7249 -0.2505  0.4627
  716MOL0     H96607   8.410  10.590   8.947  0.0618 -1.1775  1.4264
  716MOL0     H96608   8.309  10.458   8.886 -0.4046 -0.4728 -0.8238
  716MOL0     H96609   8.227  10.720   9.037  0.1309 -0.3070  0.3738
  716MOL0     H96610   8.112  10.628   8.944  1.4442 -2.7583 -2.9400
  716MOL0     H96611   8.358  10.511   9.227 -0.3129  1.2984  0.6265
  716MOL0     H96612   8.106  10.389   9.494 -1.1585  2.9371 -0.8105
  716MOL0     H96613   8.279  10.378   9.456  1.1036 -0.1921 -0.3253
  716MOL0     H96614   8.323  10.596   9.531 -0.2561 -2.2588  0.1193
  716MOL0     H96615   8.150  10.636   9.541  3.3256  2.1241 -3.6183
  716MOL0     H96616   8.319  10.435   9.691 -1.6404 -1.3725 -0.7920
  716MOL0     H96617   8.132  10.437   9.701 -1.4121  2.2164  0.5303
  716MOL0     H96618   8.297  10.678   9.801 -1.0221  0.9611  2.2702
  716MOL0     H96619   8.247  10.529   9.896  2.0874  0.5311 -1.1899
  716MOL0     H96620   7.914  10.656   9.990  0.4593 -0.6351  0.8438
  716MOL0     H96621   7.858  10.789  10.162 -0.5010  1.1600 -1.6323
  716MOL0     H96622   7.969  11.163  10.478 -1.5600 -0.1058  0.7949
  716MOL0     H96623   7.961  11.223  10.717  4.1007 -1.9640  5.2986
  716MOL0     H96624   7.856  10.906  10.991  1.9325 -2.5113  1.4158
  716MOL0     H96625   8.022  10.928  11.045  2.9209  2.0303 -1.8879
  716MOL0     H96626   7.880  10.974  11.219  0.1755 -0.6703 -0.9008
  716MOL0     H96627   7.932  11.129  11.197  0.5318 -0.0199  1.8346
  716MOL0     H96628   7.665  11.010  11.113 -0.0666 -0.7708  2.4696
  716MOL0     H96629   7.707  11.140  11.229  0.6381  4.7645 -2.6252
  716MOL0     H96630   7.694  11.176  10.932  0.3674  1.2976 -0.6583
  716MOL0     H96631   7.798  11.277  11.032  0.7607 -1.5197  1.7074
  716MOL0     H96632   7.565  11.310  11.184 -0.0096  0.1317  0.6123
  716MOL0     H96633   7.491  11.252  11.034 -0.1918  0.4303  1.1295
  716MOL0     H96634   7.500  11.495  11.051 -0.9027 -1.6880  1.1202
  716MOL0     H96635   7.684  11.494  11.048  0.6964  0.2836  1.3973
  716MOL0     H96636   7.500  11.416  10.824  0.1321  0.6882 -2.1689
  716MOL0     H96637   7.677  11.373  10.832 -2.2075 -0.4579 -3.0310
  716MOL0     H96638   7.696  11.628  10.883  0.6837  0.7970 -1.8550
  716MOL0     H96639   7.628  11.608  10.712 -2.8706 -0.5505 -1.4467
  716MOL0     H96640   7.944  10.809  10.808 -1.2724 -0.6261  0.1087
  716MOL0     H96641   7.979  10.747  10.584 -0.7582  1.0807 -3.7494
  716MOL0     H96642   8.242  10.998  10.101  0.5623 -0.3343  0.3961
  716MOL0     H96643   8.254  10.866   9.870 -1.9591 -0.6936 -2.1224
  716MOL0     H96644   8.759  10.240   8.294 -1.6476 -0.6083  0.2178
  716MOL0     H96645   8.700  10.031   8.231  0.3076 -2.7084 -2.0194
  716MOL0     H96646   8.518   9.848   7.772 -0.9285 -0.9804 -0.8012
  716MOL0     H96647   8.438   9.642   7.630  0.6004 -3.2990 -2.5833
  716MOL0     H96648   8.634   9.285   7.472 -1.3508  0.5311 -0.9888
  716MOL0     H96649   8.781   9.367   7.544  0.4567  1.6670 -1.0969
  716MOL0     H96650   8.769   9.443   7.321  0.6257 -0.5189  1.4852
  716MOL0     H96651   8.724   9.571   7.432 -1.2959  0.9130 -0.1618
  716MOL0     H96652   8.503   9.571   7.351 -2.1562 -0.8249 -1.1761
  716MOL0     H96653   8.517   9.399   7.310 -2.8471  1.9105  0.2781
  716MOL0     H96654   8.539   9.613   7.105  0.8156 -0.3644 -3.4210
  716MOL0     H96655   8.696   9.599   7.171 -2.6220  2.8858  1.8183
  716MOL0     H96656   8.671   9.278   6.901  0.9475  1.9912 -1.3149
  716MOL0     H96657   8.775   9.423   7.773  1.9049  0.9699  1.9642
  716MOL0     H96658   8.894   9.625   8.032 -0.9872 -0.6037  0.3232
  716MOL0     H96659   8.911   9.487   7.934  0.5531  1.0824  3.2622
  716MOL0     H96660   8.989   9.643   7.884  0.6016  3.0860  2.9079
  717MOL0     O96661   0.773   8.488   8.813  0.6107 -0.4906 -0.4978
  717MOL0     C96662   0.670   8.560   8.801  0.6372 -0.2302  0.0631
  717MOL0     O96663   0.581   8.547   8.690 -0.1884 -0.7224 -0.9452
  717MOL0     C96664   0.632   8.514   8.571  0.6193  0.4246  0.1277
  717MOL0     C96665   0.540   8.495   8.466 -0.3139  0.1092  0.1153
  717MOL0     C96666   0.572   8.476   8.328 -0.7838  0.4488  0.1489
  717MOL0     C96667   0.702   8.482   8.294  0.0723  0.7550 -0.0877
  717MOL0     O96668   0.730   8.467   8.164 -0.3661  0.3664 -0.3973
  717MOL0     C96669   0.869   8.437   8.113  0.2579 -0.3750 -0.0299
  717MOL0     C96670   0.855   8.402   7.957 -1.0287  0.8621  0.2411
  717MOL0     C96671   0.809   8.260   7.933  0.0552  0.6389  0.2565
  717MOL0     C96672   0.816   8.223   7.778  0.1675 -1.2401  0.1563
  717MOL0     C96673   0.813   8.071   7.747 -0.4963  0.2306 -0.1851
  717MOL0     C96674   0.833   8.049   7.599  0.9512 -0.6395  0.0305
  717MOL0     C96675   0.836   7.905   7.564  0.5420 -1.1283 -0.0936
  717MOL0     C96676   0.957   7.816   7.592  0.0483  0.3731 -0.6321
  717MOL0     N96677   0.954   7.691   7.515  0.4266  0.1403 -0.0801
  717MOL0     C96678   0.833   7.624   7.500  0.2780  0.1946  0.4621
  717MOL0     C96679   0.859   7.513   7.424 -0.5774 -0.7144  0.4619
  717MOL0     C96680   0.769   7.398   7.368 -0.7348 -0.3168  0.1979
  717MOL0     C96681   0.756   7.413   7.211 -0.3798 -0.1948 -0.8030
  717MOL0     C96682   0.683   7.290   7.155 -0.0760  1.0257  0.3185
  717MOL0     C96683   0.654   7.273   7.008  0.4344  0.7232  1.2640
  717MOL0     O96684   0.774   7.294   6.929 -0.1741  0.5810 -0.0430
  717MOL0     C96685   0.762   7.238   6.808  1.3212  0.0413  0.1773
  717MOL0     C96686   0.865   7.155   6.766  0.0107  0.8946 -0.7640
  717MOL0     C96687   0.857   7.106   6.633  0.8767 -0.1488  0.5115
  717MOL0     C96688   0.750   7.138   6.549 -0.1087  0.3738 -0.8643
  717MOL0     C96689   0.744   7.081   6.412  0.2812  0.5116  1.0103
  717MOL0     O96690   0.649   7.126   6.321  0.1385  0.0038  0.1700
  717MOL0     C96691   0.635   7.061   6.200  0.1233  0.5107 -0.0291
  717MOL0     C96692   0.672   7.126   6.086 -0.5408  0.1133  1.0564
  717MOL0     C96693   0.626   7.067   5.964  0.7517 -0.0861 -0.5687
  717MOL0     C96694   0.566   6.947   5.962  0.0538  0.4782  0.5252
  717MOL0     O96695   0.554   6.887   5.837  0.3871  0.4013  0.1480
  717MOL0     C96696   0.458   6.783   5.809 -0.0540 -0.4704  0.6709
  717MOL0     C96697   0.403   6.788   5.660  0.1826  0.7528 -0.5402
  717MOL0     C96698   0.273   6.703   5.654 -0.0707  0.4115  0.0496
  717MOL0     C96699   0.224   6.694   5.514 -0.5691  0.0499  0.9353
  717MOL0     C96700   0.078   6.637   5.507 -0.2733 -0.5117  0.8328
  717MOL0     C96701   0.034   6.585   5.362 -0.9886  0.1701 -0.4916
  717MOL0     C96702   0.076   6.674   5.251 -0.5336  0.2767  0.2133
  717MOL0     C96703   0.028   6.615   5.113  1.0917 -1.1787  0.7016
  717MOL0    Cl96704   0.114   6.482   5.054  0.1090 -0.2802 -0.0573
  717MOL0     C96705   0.536   6.873   6.082  0.3326 -0.0324 -0.9649
  717MOL0     C96706   0.571   6.935   6.202 -0.1470 -0.3326 -0.4596
  717MOL0     O96707   0.809   6.981   6.403  0.1606  0.7797  0.4588
  717MOL0     C96708   0.646   7.217   6.593 -0.5668  0.4947 -0.4988
  717MOL0     C96709   0.658   7.271   6.721  0.2387 -0.8473 -0.3165
  717MOL0     N96710   1.003   7.520   7.404  0.0061  0.8151  0.2947
  717MOL0     N96711   1.054   7.635   7.451  0.0204  0.1129  0.0523
  717MOL0     C96712   0.798   8.515   8.387 -0.2094  0.5423 -0.0705
  717MOL0     C96713   0.765   8.533   8.529 -0.1057  0.2954  0.7715
  717MOL0     C96714   0.625   8.650   8.915 -0.2249 -0.7265 -0.3532
  717MOL0     C96715   0.701   8.647   9.034 -0.6341 -1.2466  0.0014
  717MOL0     C96716   0.679   8.738   9.137 -0.0283  0.6324 -1.0997
  717MOL0     C96717   0.564   8.823   9.138  0.4475 -0.7616 -0.1797
  717MOL0     O96718   0.526   8.910   9.239 -0.4069 -0.1692 -1.1312
  717MOL0     C96719   0.618   8.912   9.355 -0.6876  0.0804 -0.3106
  717MOL0     C96720   0.569   9.009   9.460 -1.5386  0.8728  0.3454
  717MOL0     C96721   0.597   9.158   9.411  0.3576  0.5152  0.3124
  717MOL0     C96722   0.572   9.259   9.518  0.5336  0.4238 -0.4865
  717MOL0     C96723   0.669   9.254   9.629 -1.0382  1.0019 -0.0306
  717MOL0     C96724   0.773   9.275   9.701  0.2002 -0.1115  0.3947
  717MOL0     C96725   0.493   8.824   9.020  0.1025  0.6325  0.1009
  717MOL0     C96726   0.521   8.746   8.909  0.8952  0.0025  0.2952
  717MOL0     C96727   0.427   8.766   8.788 -0.7947 -0.0217 -0.6257
  717MOL0     H96728   0.442   8.492   8.512  1.2618 -2.4824  3.7978
  717MOL0     H96729   0.506   8.452   8.246 -0.4275  0.3931 -0.1205
  717MOL0     H96730   0.927   8.528   8.134 -1.1273  0.2715  1.2426
  717MOL0     H96731   0.926   8.356   8.158 -0.2652 -1.7867 -1.8090
  717MOL0     H96732   0.951   8.416   7.906 -1.2534 -1.8283 -1.1097
  717MOL0     H96733   0.779   8.469   7.916 -0.9411  0.6661 -0.2542
  717MOL0     H96734   0.707   8.256   7.974 -0.0350  0.5608  0.0270
  717MOL0     H96735   0.864   8.193   7.999 -0.0004  2.0858  1.8467
  717MOL0     H96736   0.745   8.283   7.719  0.0480 -0.4565  1.0639
  717MOL0     H96737   0.911   8.269   7.750 -0.1103  0.0169  1.1802
  717MOL0     H96738   0.872   8.011   7.816 -0.7757  0.2900  0.1135
  717MOL0     H96739   0.713   8.030   7.763 -0.0198 -0.0255  2.7532
  717MOL0     H96740   0.760   8.102   7.537  1.4790 -1.4043 -1.2989
  717MOL0     H96741   0.932   8.086   7.571  1.2650 -1.5764 -0.1691
  717MOL0     H96742   0.824   7.897   7.455 -0.3268 -0.3924 -0.0663
  717MOL0     H96743   0.753   7.854   7.614  0.0738 -0.3376 -0.0468
  717MOL0     H96744   1.037   7.884   7.560 -0.8295  0.5014 -2.7135
  717MOL0     H96745   0.960   7.804   7.701  1.4932  1.9374 -0.4441
  717MOL0     H96746   0.732   7.646   7.532 -0.1008 -3.7582  2.6345
  717MOL0     H96747   0.819   7.302   7.385 -1.8822 -0.7418  1.3694
  717MOL0     H96748   0.672   7.407   7.417 -0.9427 -0.5297 -0.1707
  717MOL0     H96749   0.705   7.506   7.185  0.3432  0.4699  0.0928
  717MOL0     H96750   0.857   7.419   7.168 -0.7861  0.8168 -1.6547
  717MOL0     H96751   0.601   7.273   7.226  0.9525  0.1510  1.3292
  717MOL0     H96752   0.752   7.208   7.178  0.4120  1.3030 -0.1488
  717MOL0     H96753   0.572   7.343   6.988 -1.2593 -1.3931  0.3324
  717MOL0     H96754   0.608   7.176   6.985  4.6724 -0.7767 -2.5398
  717MOL0     H96755   0.931   7.133   6.849  0.2378 -0.7198 -1.3398
  717MOL0     H96756   0.934   7.040   6.594 -0.0325 -1.2498  0.5288
  717MOL0     H96757   0.716   7.225   6.091 -0.8982  0.4311 -0.9461
  717MOL0     H96758   0.637   7.118   5.869 -0.3549 -1.5792 -1.5416
  717MOL0     H96759   0.521   6.694   5.819  0.2931 -0.5422 -1.5399
  717MOL0     H96760   0.382   6.784   5.887  1.0515  0.7242  1.7742
  717MOL0     H96761   0.372   6.891   5.637  0.1815  1.3855  1.9856
  717MOL0     H96762   0.488   6.758   5.598  0.2249  1.5015 -0.8642
  717MOL0     H96763   0.307   6.607   5.693 -0.1253  1.2126  2.1845
  717MOL0     H96764   0.201   6.758   5.715 -3.0791  1.2004 -3.8308
  717MOL0     H96765   0.287   6.632   5.449 -0.9605 -0.6641  1.2269
  717MOL0     H96766   0.222   6.797   5.476  2.4251  0.4297  1.5009
  717MOL0     H96767   0.011   6.718   5.537 -1.5127 -0.9668 -0.5921
  717MOL0     H96768   0.074   6.557   5.581 -2.4446 -0.6081  0.6822
  717MOL0     H96769   0.088   6.490   5.348 -1.8784 -0.5377  0.7147
  717MOL0     H96770  -0.073   6.575   5.348 -0.8234 -1.2878 -0.8511
  717MOL0     H96771   0.182   6.702   5.245 -0.3318  0.1228  2.3317
  717MOL0     H96772   0.013   6.762   5.265  0.8732  1.3530  0.0409
  717MOL0     H96773  -0.080   6.598   5.113  0.7133  0.8060 -0.7776
  717MOL0     H96774   0.043   6.698   5.043  0.3376  0.9754  2.9442
  717MOL0     H96775   0.504   6.769   6.084  0.9054 -0.2070 -0.5607
  717MOL0     H96776   0.555   6.901   6.304 -1.9622  0.1609 -0.5589
  717MOL0     H96777   0.559   7.244   6.534 -0.2990  2.1025 -0.1977
  717MOL0     H96778   0.586   7.338   6.767 -1.9263 -3.1151 -0.1538
  717MOL0     H96779   0.896   8.531   8.344 -0.8272 -0.8397 -2.1516
  717MOL0     H96780   0.831   8.568   8.607  0.2936  0.8729  0.1788
  717MOL0     H96781   0.766   8.562   9.054 -0.5850 -0.9973  0.9088
  717MOL0     H96782   0.754   8.735   9.215  2.8499  0.4462 -3.6843
  717MOL0     H96783   0.717   8.950   9.331  0.0055 -0.8525  0.9101
  717MOL0     H96784   0.630   8.813   9.401  3.6417  0.6966  0.3124
  717MOL0     H96785   0.607   8.996   9.561 -1.8939  0.6051  0.4451
  717MOL0     H96786   0.460   9.001   9.466 -1.3831 -2.0883  0.4231
  717MOL0     H96787   0.521   9.182   9.336  1.5639  2.4590 -0.3491
  717MOL0     H96788   0.699   9.175   9.373  0.3736  2.1954  1.0422
  717MOL0     H96789   0.591   9.352   9.465  1.6510  0.2415 -0.4369
  717MOL0     H96790   0.468   9.256   9.550  0.7752  1.3836  0.4390
  717MOL0     H96791   0.859   9.291   9.763 -1.3431 -0.7546  2.8385
  717MOL0     H96792   0.417   8.901   9.010  1.7013  2.1920 -0.6001
  717MOL0     H96793   0.346   8.837   8.806  0.1431  0.3962  2.5580
  717MOL0     H96794   0.482   8.813   8.705 -2.7976  0.2391 -1.8780
  717MOL0     H96795   0.382   8.670   8.763  0.9552 -1.0777  0.1353
  718MOL0     O96796   7.319   9.508   1.702  0.6906 -0.2357 -0.8099
  718MOL0     C96797   7.295   9.612   1.629 -0.1334  0.9152 -0.8121
  718MOL0     O96798   7.256   9.611   1.496 -0.3015 -0.2107 -0.1603
  718MOL0     C96799   7.285   9.500   1.425 -0.4050 -0.2261  0.5941
  718MOL0     C96800   7.402   9.419   1.444  1.0159  0.0268 -0.3658
  718MOL0     C96801   7.455   9.347   1.340 -0.4647 -0.4509 -0.0608
  718MOL0     C96802   7.381   9.334   1.221 -0.0874 -0.2218 -0.1952
  718MOL0     O96803   7.423   9.260   1.110  0.2425 -0.3381 -0.4295
  718MOL0     C96804   7.556   9.201   1.126 -0.3035  0.0411  0.5657
  718MOL0     C96805   7.584   9.105   1.009 -0.3139  0.0224  0.0736
  718MOL0     C96806   7.602   9.175   0.873  0.2365  0.3608 -1.4615
  718MOL0     C96807   7.745   9.245   0.865  0.1481  0.4647  0.0288
  718MOL0     C96808   7.801   9.247   0.725  0.2840 -0.2110 -0.7328
  718MOL0     C96809   7.933   9.304   0.713  0.3960 -0.0627 -0.8813
  718MOL0     C96810   7.945   9.370   0.570 -0.4366 -0.6791  0.1827
  718MOL0     C96811   7.925   9.524   0.581 -0.0547  0.4747 -0.2081
  718MOL0     N96812   7.901   9.591   0.450  0.4786 -0.3350  0.2998
  718MOL0     C96813   7.912   9.555   0.316  0.1583 -0.3421 -0.4244
  718MOL0     C96814   7.836   9.640   0.242  0.2946 -0.7615  0.3205
  718MOL0     C96815   7.817   9.628   0.096  0.5614 -0.9616  0.0841
  718MOL0     C96816   7.841   9.750   0.025 -0.8296 -0.1540  0.0248
  718MOL0     C96817   7.741   9.862   0.046  0.2216 -0.3985  0.1073
  718MOL0     C96818   7.723   9.965  -0.068 -0.2649  1.2520 -0.6562
  718MOL0     O96819   7.842  10.002  -0.152  0.6549  0.2962 -0.0439
  718MOL0     C96820   7.932  10.083  -0.103 -0.4323  0.1034 -1.0781
  718MOL0     C96821   8.044  10.123  -0.184 -0.4212  0.8113 -0.6829
  718MOL0     C96822   8.158  10.180  -0.127 -0.5662  0.6325 -0.3839
  718MOL0     C96823   8.167  10.209   0.008  0.2286 -0.4139 -1.0021
  718MOL0     C96824   8.293  10.263   0.074  0.9686  0.1552 -0.8745
  718MOL0     O96825   8.302  10.236   0.205 -0.1089  0.3059 -0.5053
  718MOL0     C96826   8.407  10.276   0.280 -0.2827 -0.9679  0.8331
  718MOL0     C96827   8.421  10.402   0.341  0.2257 -0.9122 -0.5239
  718MOL0     C96828   8.549  10.452   0.382  0.5731 -0.4330  0.7524
  718MOL0     C96829   8.659  10.367   0.370 -0.1025  0.1571 -1.1794
  718MOL0     O96830   8.788  10.425   0.404  0.3105  0.5894  0.5443
  718MOL0     C96831   8.872  10.342   0.484 -0.2346 -0.1574  0.1097
  718MOL0     C96832   9.013  10.336   0.431  0.4406  0.0016  0.1614
  718MOL0     C96833   9.090  10.476   0.440  0.1969 -0.1482  0.4001
  718MOL0     C96834   9.242  10.453   0.441  0.8394  0.8264  0.7691
  718MOL0     C96835   9.334  10.577   0.458  0.6886 -0.0273  0.3707
  718MOL0     C96836   9.484  10.534   0.449 -0.6694  0.2385  0.9051
  718MOL0     C96837   9.579  10.658   0.480  0.0466  0.1100  0.0970
  718MOL0     C96838   9.644  10.653   0.628 -0.0666 -0.3563  0.4340
  718MOL0    Cl96839   9.793  10.537   0.609  0.5149 -0.2022  0.4551
  718MOL0     C96840   8.642  10.236   0.320  0.0410 -0.3429 -0.0714
  718MOL0     C96841   8.519  10.193   0.283 -0.8963 -0.6823  1.1233
  718MOL0     O96842   8.379  10.325   0.015 -0.4944  0.0264 -0.0654
  718MOL0     C96843   8.060  10.176   0.086  0.0133  1.2411  0.6823
  718MOL0     C96844   7.938  10.125   0.034 -0.8896 -0.3784  0.8005
  718MOL0     N96845   7.780   9.738   0.320 -1.2696  0.5497  0.8632
  718MOL0     N96846   7.816   9.703   0.444 -0.1221 -0.4975  0.5443
  718MOL0     C96847   7.254   9.398   1.206 -0.1676 -0.8900  0.7654
  718MOL0     C96848   7.213   9.486   1.305  0.7939 -1.0098 -0.7625
  718MOL0     C96849   7.335   9.747   1.684 -0.3378 -0.4269 -0.0055
  718MOL0     C96850   7.438   9.754   1.769 -0.3019  0.3689 -0.3698
  718MOL0     C96851   7.467   9.879   1.822 -0.3296 -0.3229 -0.3956
  718MOL0     C96852   7.385   9.982   1.802  0.5216  0.0124 -0.0938
  718MOL0     O96853   7.408  10.095   1.877 -0.2752 -0.2564  0.2731
  718MOL0     C96854   7.389  10.225   1.817 -0.4261  0.2845 -0.3387
  718MOL0     C96855   7.467  10.323   1.916  0.2140 -0.3807 -0.1098
  718MOL0     C96856   7.577  10.394   1.842 -0.6241 -0.7465  0.1408
  718MOL0     C96857   7.691  10.447   1.922 -0.2352  0.8976  0.0520
  718MOL0     C96858   7.811  10.362   1.923 -0.3240  0.7042  1.1797
  718MOL0     C96859   7.914  10.306   1.934  0.0607 -1.1512  0.0142
  718MOL0     C96860   7.277   9.980   1.707 -1.0497 -0.0323 -0.4503
  718MOL0     C96861   7.254   9.861   1.647  0.5031 -0.1476  0.1835
  718MOL0     C96862   7.122   9.859   1.569 -0.0101  0.7371 -1.2422
  718MOL0     H96863   7.459   9.427   1.537  2.0763 -1.4686 -0.8563
  718MOL0     H96864   7.548   9.295   1.357 -0.2015  0.2539  0.7081
  718MOL0     H96865   7.641   9.265   1.151  0.8685 -1.5103  0.7818
  718MOL0     H96866   7.553   9.147   1.222 -1.6110  2.0801  1.7312
  718MOL0     H96867   7.504   9.030   1.007  2.1408 -2.8621 -3.3536
  718MOL0     H96868   7.682   9.055   1.011 -1.3599 -2.1430  0.0069
  718MOL0     H96869   7.516   9.239   0.851  1.0879  2.1508  0.1076
  718MOL0     H96870   7.604   9.100   0.794  0.5055  0.1140 -1.2246
  718MOL0     H96871   7.736   9.346   0.906  2.0398  1.0179 -0.8200
  718MOL0     H96872   7.824   9.204   0.929  1.8247 -1.4060 -2.9931
  718MOL0     H96873   7.810   9.143   0.691  3.1524 -0.6629  1.0846
  718MOL0     H96874   7.720   9.301   0.675  0.4168 -0.5214 -1.2867
  718MOL0     H96875   7.939   9.386   0.785 -3.3835 -0.3030 -0.0792
  718MOL0     H96876   8.010   9.227   0.726 -0.3081 -0.4079  2.1733
  718MOL0     H96877   7.871   9.324   0.504 -3.8365  2.2142  1.6482
  718MOL0     H96878   8.045   9.366   0.526 -1.7085  1.9032 -3.5110
  718MOL0     H96879   7.852   9.545   0.660  1.0094  1.6195  0.5114
  718MOL0     H96880   8.016   9.569   0.620 -0.9873  2.2673  0.0112
  718MOL0     H96881   7.941   9.462   0.269 -0.4099 -1.9381  2.2203
  718MOL0     H96882   7.878   9.549   0.052 -2.5386 -3.1631 -0.6433
  718MOL0     H96883   7.713   9.599   0.075  0.0224 -0.3720  1.7396
  718MOL0     H96884   7.942   9.781   0.052 -1.5717  1.8401  0.6929
  718MOL0     H96885   7.843   9.723  -0.081 -0.3748  2.5712 -0.7258
  718MOL0     H96886   7.773   9.908   0.140 -3.2646  0.7822  0.8870
  718MOL0     H96887   7.641   9.826   0.072 -1.0641  2.7965  0.0120
  718MOL0     H96888   7.655  10.044  -0.036 -3.2884 -0.9100 -1.2847
  718MOL0     H96889   7.661   9.918  -0.145 -0.5310 -4.9313  2.7260
  718MOL0     H96890   8.049  10.073  -0.281  3.0482 -1.7158  0.6009
  718MOL0     H96891   8.241  10.213  -0.188 -1.1879  1.7244 -0.6530
  718MOL0     H96892   8.345  10.479   0.331  0.9041 -0.2743 -0.9547
  718MOL0     H96893   8.565  10.552   0.420  0.2614  0.4175 -1.2196
  718MOL0     H96894   8.886  10.392   0.581  0.5977 -2.7364  1.4104
  718MOL0     H96895   8.841  10.237   0.486 -0.0935 -0.2423 -1.3939
  718MOL0     H96896   9.072  10.257   0.477  0.9133  0.5131  0.4403
  718MOL0     H96897   9.008  10.311   0.324  2.3571  0.1738  0.0020
  718MOL0     H96898   9.065  10.538   0.354  0.6102  1.0805  1.1326
  718MOL0     H96899   9.055  10.524   0.532  0.6762  1.5287 -0.2500
  718MOL0     H96900   9.262  10.415   0.340  0.8084 -1.8261  1.6678
  718MOL0     H96901   9.254  10.371   0.512 -3.4682 -2.0240 -1.3436
  718MOL0     H96902   9.316  10.619   0.557  0.3343 -0.5190  0.5157
  718MOL0     H96903   9.317  10.654   0.382  1.5594 -1.4095 -1.3046
  718MOL0     H96904   9.486  10.451   0.521  1.3336 -0.5306  0.0374
  718MOL0     H96905   9.504  10.485   0.353 -1.7052 -3.4011  2.3778
  718MOL0     H96906   9.522  10.751   0.474 -1.4188 -0.6919  1.0208
  718MOL0     H96907   9.663  10.662   0.410  0.5336 -2.4295  0.4176
  718MOL0     H96908   9.670  10.755   0.655 -2.6022  2.1818 -5.0126
  718MOL0     H96909   9.572  10.610   0.699  0.9542 -0.9787  1.1079
  718MOL0     H96910   8.723  10.165   0.315 -0.1951 -0.6175 -0.0326
  718MOL0     H96911   8.510  10.094   0.240  3.1537 -0.7246  0.0375
  718MOL0     H96912   8.058  10.198   0.192 -2.2294  0.1708  0.9083
  718MOL0     H96913   7.858  10.113   0.106 -1.7921  1.1632  0.1133
  718MOL0     H96914   7.197   9.386   1.114  1.9081 -0.9802 -0.5948
  718MOL0     H96915   7.124   9.548   1.294  0.7266 -0.9693  0.0190
  718MOL0     H96916   7.499   9.666   1.788  0.4354  0.3625 -2.4601
  718MOL0     H96917   7.550   9.899   1.889 -0.7364 -1.1047  0.3625
  718MOL0     H96918   7.281  10.241   1.813 -0.4939 -0.3074 -1.2716
  718MOL0     H96919   7.428  10.223   1.714 -1.7755 -1.9230 -0.8821
  718MOL0     H96920   7.521  10.261   1.988 -0.2896  1.8008  2.2939
  718MOL0     H96921   7.412  10.379   1.992  2.9854 -1.1410  2.6534
  718MOL0     H96922   7.531  10.474   1.784  1.1004 -0.6963 -1.2509
  718MOL0     H96923   7.634  10.329   1.774  0.2541 -0.2470  0.3767
  718MOL0     H96924   7.718  10.542   1.875  2.2361  0.1495 -0.2020
  718MOL0     H96925   7.669  10.465   2.028  1.1968  1.8979  0.2079
  718MOL0     H96926   8.009  10.271   1.968 -0.1791  0.1521  2.2043
  718MOL0     H96927   7.213  10.068   1.704 -1.3244  0.3425  5.1971
  718MOL0     H96928   7.137   9.907   1.472  0.3757 -0.5204 -1.8171
  718MOL0     H96929   7.070   9.763   1.562  1.2571  0.1242 -2.9781
  718MOL0     H96930   7.061   9.927   1.630  1.4422 -0.5171  1.8658
  719MOL0     O96931   6.939   9.499  11.265  0.1441  0.5755  0.5581
  719MOL0     C96932   6.918   9.493  11.389 -0.0857 -0.2455 -0.2190
  719MOL0     O96933   6.801   9.515  11.452  0.2477 -0.2078 -0.0805
  719MOL0     C96934   6.696   9.596  11.397 -0.6359  0.7384 -0.1758
  719MOL0     C96935   6.701   9.689  11.290 -0.4754 -0.6511  0.1653
  719MOL0     C96936   6.584   9.755  11.253  0.1114  0.0806  0.7093
  719MOL0     C96937   6.469   9.727  11.314  0.5977 -0.1269 -0.4039
  719MOL0     O96938   6.356   9.801  11.281 -0.0859 -0.3777  0.0741
  719MOL0     C96939   6.336   9.915  11.363 -0.3792 -0.2975 -0.1607
  719MOL0     C96940   6.209   9.891  11.444  0.1510  0.4708  0.0488
  719MOL0     C96941   6.183   9.988  11.555  0.4674 -0.6349  0.6988
  719MOL0     C96942   6.078   9.950  11.650 -0.3735  0.1362 -0.3123
  719MOL0     C96943   6.010  10.075  11.713  0.2199 -0.1603  0.2196
  719MOL0     C96944   6.101  10.167  11.787 -0.3389 -0.0717  0.4795
  719MOL0     C96945   6.081  10.181  11.943  0.0229 -0.5623 -0.6289
  719MOL0     C96946   6.157  10.072  12.022  0.1896 -0.1318 -0.1856
  719MOL0     N96947   6.050   9.978  12.072 -1.3657 -0.5175  0.4187
  719MOL0     C96948   6.001   9.969  12.199 -0.2307 -0.3957 -1.0287
  719MOL0     C96949   5.932   9.859  12.211 -0.1444 -1.0635 -0.2595
  719MOL0     C96950   5.857   9.832  12.337  0.5832  1.4791  0.4976
  719MOL0     C96951   5.729   9.913  12.368 -0.4377 -0.5594 -0.2605
  719MOL0     C96952   5.658   9.859  12.502 -0.4875 -0.6489 -0.3218
  719MOL0     C96953   5.550   9.953  12.545 -0.4627 -0.4775 -1.3282
  719MOL0     O96954   5.612  10.065  12.600 -0.4277  0.0163  0.2206
  719MOL0     C96955   5.609  10.092  12.733 -0.5134  1.0249 -0.1769
  719MOL0     C96956   5.638  10.223  12.766 -0.8787  0.5816  0.6550
  719MOL0     C96957   5.656  10.259  12.896  0.0321 -0.3206 -0.0057
  719MOL0     C96958   5.640  10.166  12.998  1.2030  0.0966  0.0102
  719MOL0     C96959   5.664  10.206  13.134 -0.0742  0.2952 -0.1125
  719MOL0     O96960   5.691  10.332  13.154  0.4401  1.1490 -0.6923
  719MOL0     C96961   5.713  10.384  13.274 -1.4158 -0.0895  0.5048
  719MOL0     C96962   5.791  10.501  13.265 -0.6831  0.1888 -0.4918
  719MOL0     C96963   5.845  10.558  13.378 -0.0387  0.9425  0.1483
  719MOL0     C96964   5.826  10.498  13.505  0.4930 -0.2456  0.7929
  719MOL0     O96965   5.895  10.550  13.614  0.0788 -0.0511 -0.6916
  719MOL0     C96966   5.858  10.512  13.748 -0.3592 -0.4015 -0.9911
  719MOL0     C96967   5.977  10.536  13.836 -0.0744 -0.1824  1.1502
  719MOL0     C96968   5.955  10.501  13.986  0.0802  0.5228  0.6098
  719MOL0     C96969   5.859  10.585  14.066 -0.2791 -0.5519 -0.3780
  719MOL0     C96970   5.918  10.591  14.211  0.3793  0.5734  0.0707
  719MOL0     C96971   5.818  10.610  14.315  0.0380 -0.4848  0.0270
  719MOL0     C96972   5.857  10.578  14.457  0.7984 -0.7162  0.5801
  719MOL0     C96973   5.741  10.567  14.560 -0.8050 -0.7386 -0.7983
  719MOL0    Cl96974   5.610  10.692  14.539  0.0988 -0.0850 -0.5438
  719MOL0     C96975   5.730  10.398  13.519  0.1659  0.0769 -0.3389
  719MOL0     C96976   5.669  10.343  13.403 -0.3803  0.3028 -0.9375
  719MOL0     O96977   5.659  10.119  13.220 -0.2134  0.8661 -0.2590
  719MOL0     C96978   5.608  10.034  12.965 -0.9551 -0.2414 -0.8638
  719MOL0     C96979   5.597   9.995  12.835 -0.4568  0.3660  0.9093
  719MOL0     N96980   5.936   9.799  12.089  0.0965 -0.3862  0.8680
  719MOL0     N96981   6.016   9.863  12.008 -0.0248  0.7109 -0.2174
  719MOL0     C96982   6.462   9.651  11.428  0.9146 -0.1945  0.0988
  719MOL0     C96983   6.578   9.583  11.469 -0.0805 -0.4717 -0.9561
  719MOL0     C96984   7.028   9.445  11.473  0.1016  0.2511  0.2210
  719MOL0     C96985   6.998   9.423  11.609 -0.6973  0.8089  0.0852
  719MOL0     C96986   7.093   9.357  11.690  0.0441 -0.0855  0.0099
  719MOL0     C96987   7.221   9.324  11.638 -0.0703  0.2450 -0.2023
  719MOL0     O96988   7.303   9.283  11.738  0.7737 -0.2704 -0.2383
  719MOL0     C96989   7.442   9.268  11.718  0.4863 -0.0645 -1.0523
  719MOL0     C96990   7.510   9.294  11.848 -0.2558 -0.8692 -0.7050
  719MOL0     C96991   7.503   9.431  11.917  0.8091 -0.1552  0.1578
  719MOL0     C96992   7.364   9.462  11.981  0.2820 -0.5771 -0.2007
  719MOL0     C96993   7.347   9.384  12.100 -0.8866 -0.2136 -0.9306
  719MOL0     C96994   7.319   9.331  12.204 -0.9178 -0.5407 -0.3756
  719MOL0     C96995   7.255   9.355  11.506  0.9086  0.0434 -0.6356
  719MOL0     C96996   7.163   9.408  11.424  0.5891  0.0878  1.3450
  719MOL0     C96997   7.211   9.430  11.271  0.4190 -0.6122 -1.1620
  719MOL0     H96998   6.791   9.702  11.231 -0.8046 -2.1148 -0.6922
  719MOL0     H96999   6.576   9.815  11.163 -1.1700 -2.5338 -1.0435
  719MOL0     H97000   6.427   9.940  11.418 -0.2535 -0.7475 -0.1595
  719MOL0     H97001   6.323  10.000  11.295 -1.0897 -0.4721 -0.2514
  719MOL0     H97002   6.216   9.792  11.489  0.2168  1.0228  1.2811
  719MOL0     H97003   6.131   9.910  11.369 -0.4013 -2.5241 -0.2472
  719MOL0     H97004   6.148  10.084  11.515 -0.7871 -2.4134 -2.9610
  719MOL0     H97005   6.278  10.009  11.607  1.5238 -1.3060 -0.8725
  719MOL0     H97006   5.999   9.890  11.605 -1.7906 -2.4483  4.8803
  719MOL0     H97007   6.117   9.891  11.734 -0.4589  1.1018  0.4272
  719MOL0     H97008   5.938  10.121  11.645 -1.7917  0.2536  2.5072
  719MOL0     H97009   5.943  10.034  11.788  0.2765  0.4304  0.5950
  719MOL0     H97010   6.206  10.167  11.755 -0.8700  1.9538 -1.4811
  719MOL0     H97011   6.083  10.270  11.754 -1.4885 -0.7674 -1.1964
  719MOL0     H97012   5.974  10.181  11.964  0.1327  0.3589 -0.0095
  719MOL0     H97013   6.126  10.272  11.984 -3.7498  1.0364  0.3873
  719MOL0     H97014   6.218  10.011  11.955 -0.6672 -1.1484 -0.0584
  719MOL0     H97015   6.223  10.104  12.103 -0.2212 -0.9688  0.4923
  719MOL0     H97016   6.023  10.033  12.283  1.7298 -1.3250 -0.7805
  719MOL0     H97017   5.845   9.724  12.335  0.0297  1.5456  0.1312
  719MOL0     H97018   5.923   9.854  12.422 -0.4357  2.1075  1.1379
  719MOL0     H97019   5.761  10.013  12.399  4.1233 -1.9762  0.2640
  719MOL0     H97020   5.654   9.926  12.289 -0.8055 -3.0438 -0.3983
  719MOL0     H97021   5.728   9.852  12.585 -0.4038 -2.4607 -0.4961
  719MOL0     H97022   5.614   9.762  12.476  0.1748 -0.8882 -0.5712
  719MOL0     H97023   5.473   9.914  12.612 -0.0692  2.4809  1.0335
  719MOL0     H97024   5.500   9.987  12.453  0.7928 -0.2618 -1.9626
  719MOL0     H97025   5.660  10.298  12.691  3.0900  1.1784  2.1419
  719MOL0     H97026   5.699  10.358  12.909 -0.5881 -0.1930  1.3007
  719MOL0     H97027   5.813  10.550  13.171 -0.7189  0.6642 -0.2522
  719MOL0     H97028   5.894  10.655  13.383 -1.8492  1.9330 -0.3520
  719MOL0     H97029   5.767  10.562  13.782 -0.3036 -0.9143 -0.0471
  719MOL0     H97030   5.851  10.404  13.764 -0.3592  0.0697  3.4953
  719MOL0     H97031   6.064  10.477  13.806  0.0772  0.9750 -0.9147
  719MOL0     H97032   6.017  10.634  13.806 -0.7878 -0.7029 -1.8905
  719MOL0     H97033   5.910  10.402  14.002  1.3599 -0.4756 -1.4789
  719MOL0     H97034   6.053  10.503  14.033  0.0682 -0.2445  0.6884
  719MOL0     H97035   5.765  10.529  14.066 -0.6702 -0.0889  2.4923
  719MOL0     H97036   5.849  10.679  14.011 -0.3095 -0.5941 -0.4456
  719MOL0     H97037   6.004  10.657  14.226  2.5400 -1.3750 -2.6522
  719MOL0     H97038   5.956  10.490  14.224  2.4098  1.3706  0.5814
  719MOL0     H97039   5.796  10.716  14.298  1.1244 -0.2391  0.0805
  719MOL0     H97040   5.724  10.560  14.289 -0.7268  1.3578 -0.9179
  719MOL0     H97041   5.910  10.668  14.489  1.8886 -0.1872 -2.3680
  719MOL0     H97042   5.924  10.492  14.462 -0.1995 -1.5275  0.2147
  719MOL0     H97043   5.705  10.464  14.558 -4.8382  0.1833  4.2328
  719MOL0     H97044   5.791  10.581  14.656 -2.9053 -3.3537  0.7922
  719MOL0     H97045   5.690  10.375  13.618 -2.1068  1.9043 -0.7241
  719MOL0     H97046   5.609  10.254  13.418  0.0989  0.0133 -0.7145
  719MOL0     H97047   5.590   9.960  13.043 -4.6630  1.1631 -0.1741
  719MOL0     H97048   5.585   9.890  12.810  0.5318  0.4257  0.0993
  719MOL0     H97049   6.377   9.653  11.496  1.9576 -1.2577  1.4900
  719MOL0     H97050   6.577   9.520  11.558 -2.1337  3.4165  2.1185
  719MOL0     H97051   6.901   9.453  11.649 -0.1702  3.0961 -0.1971
  719MOL0     H97052   7.063   9.350  11.794 -0.8168 -1.2290 -0.2915
  719MOL0     H97053   7.486   9.338  11.646 -1.6942  3.6171  0.8806
  719MOL0     H97054   7.453   9.165  11.685  0.3436  0.5717 -3.1967
  719MOL0     H97055   7.615   9.277  11.824 -0.5076 -2.2856 -0.9051
  719MOL0     H97056   7.488   9.217  11.923  0.7017  1.9552  2.7557
  719MOL0     H97057   7.530   9.512  11.849 -0.0138  2.8123  3.1227
  719MOL0     H97058   7.571   9.431  12.003 -0.3911 -0.9380  1.1370
  719MOL0     H97059   7.342   9.564  12.012  1.2179  0.1100 -1.6837
  719MOL0     H97060   7.291   9.437  11.903 -1.3223 -0.7553  1.2987
  719MOL0     H97061   7.308   9.284  12.300 -2.5941  2.7738  1.2422
  719MOL0     H97062   7.349   9.321  11.464  1.0470 -1.7217  0.9502
  719MOL0     H97063   7.156   9.360  11.208 -0.3242 -0.0649 -1.1334
  719MOL0     H97064   7.195   9.536  11.249 -0.6600  0.3149  3.1703
  719MOL0     H97065   7.320   9.418  11.270  1.0022  0.8775  4.9340
  720MOL0     O97066   9.431   7.068   5.455 -0.0390  0.7374  0.0572
  720MOL0     C97067   9.523   6.981   5.476  0.9076  0.2684  0.5007
  720MOL0     O97068   9.565   6.949   5.600 -0.3137 -0.5378 -0.0732
  720MOL0     C97069   9.557   7.040   5.707 -0.3497  0.4964 -1.0819
  720MOL0     C97070   9.559   7.185   5.699 -0.3427  0.2975 -0.0556
  720MOL0     C97071   9.553   7.261   5.817 -0.0668  0.8175  0.5529
  720MOL0     C97072   9.522   7.198   5.935  0.1737  0.8512  0.0120
  720MOL0     O97073   9.496   7.280   6.037 -0.3235 -1.2224 -1.2082
  720MOL0     C97074   9.390   7.252   6.127  0.4657 -1.3257  0.3796
  720MOL0     C97075   9.323   7.387   6.159  0.0951  0.1809 -0.6301
  720MOL0     C97076   9.266   7.395   6.301 -0.0179  0.0699  0.4293
  720MOL0     C97077   9.253   7.535   6.352  0.1782  0.6725 -0.2702
  720MOL0     C97078   9.372   7.570   6.444  0.5823 -0.4049  0.6155
  720MOL0     C97079   9.381   7.722   6.469 -0.4385 -0.6292  0.1995
  720MOL0     C97080   9.422   7.784   6.341 -0.5779 -0.0168 -0.5707
  720MOL0     C97081   9.504   7.915   6.356  0.9678  0.5777  1.3057
  720MOL0     N97082   9.424   8.028   6.407  0.2242 -0.6889 -0.3948
  720MOL0     C97083   9.398   8.044   6.541  1.0520  0.4577  0.1653
  720MOL0     C97084   9.328   8.158   6.550  0.4064  0.0148 -0.6932
  720MOL0     C97085   9.265   8.208   6.684  0.4456 -0.4571  0.4915
  720MOL0     C97086   9.307   8.352   6.717 -0.6170  0.0184  0.3059
  720MOL0     C97087   9.443   8.354   6.786 -0.2494 -0.0729 -0.3768
  720MOL0     C97088   9.471   8.496   6.829  0.5110 -0.3404  0.1308
  720MOL0     O97089   9.366   8.573   6.902  0.4818  0.0778  0.3667
  720MOL0     C97090   9.348   8.565   7.036  0.3276 -0.8783 -0.1280
  720MOL0     C97091   9.220   8.605   7.074  0.3237  0.4535 -0.5013
  720MOL0     C97092   9.183   8.582   7.206  0.2394  0.1253 -0.3163
  720MOL0     C97093   9.279   8.541   7.302  0.9211 -0.7004 -0.1183
  720MOL0     C97094   9.245   8.542   7.449  0.1090  0.5023 -0.6356
  720MOL0     O97095   9.355   8.551   7.539 -0.0793 -0.3401 -0.3964
  720MOL0     C97096   9.353   8.578   7.675 -0.5795  0.3626 -0.4019
  720MOL0     C97097   9.477   8.550   7.743  0.0939 -0.8328 -0.1859
  720MOL0     C97098   9.484   8.584   7.882  0.0070 -0.1385 -1.1837
  720MOL0     C97099   9.367   8.612   7.958 -0.3295 -1.0276  0.2641
  720MOL0     O97100   9.352   8.621   8.096  0.2628 -0.3352  0.0466
  720MOL0     C97101   9.474   8.614   8.177 -0.3559  0.0718  0.0380
  720MOL0     C97102   9.465   8.561   8.321 -1.2302 -0.4655  0.6312
  720MOL0     C97103   9.439   8.418   8.309  0.3473  0.1643 -0.2302
  720MOL0     C97104   9.416   8.358   8.449 -0.6162  0.6632  0.0192
  720MOL0     C97105   9.392   8.205   8.456 -0.6634  0.2432 -0.2478
  720MOL0     C97106   9.395   8.168   8.607 -0.3034  0.6998  0.3174
  720MOL0     C97107   9.386   8.015   8.634 -0.1507 -0.8965 -0.5054
  720MOL0     C97108   9.415   7.984   8.783  0.5384  0.2757  0.3149
  720MOL0    Cl97109   9.265   8.036   8.877  0.2901  0.3708 -0.3553
  720MOL0     C97110   9.255   8.620   7.886  0.0526 -0.1098  0.6057
  720MOL0     C97111   9.252   8.617   7.750  0.5618  0.6694  0.6401
  720MOL0     O97112   9.128   8.527   7.481 -0.6017  0.8289 -0.2672
  720MOL0     C97113   9.403   8.501   7.267 -0.6922 -0.1829  1.4562
  720MOL0     C97114   9.437   8.517   7.129  0.1221 -1.0174 -0.5182
  720MOL0     N97115   9.319   8.217   6.423  0.0538  0.0880 -0.0001
  720MOL0     N97116   9.371   8.135   6.338 -0.1169  1.0636 -0.4444
  720MOL0     C97117   9.523   7.054   5.942 -0.3140 -0.9130 -0.0679
  720MOL0     C97118   9.541   6.973   5.828  0.6493 -0.3261  0.8388
  720MOL0     C97119   9.579   6.906   5.364  0.2176  0.5269 -0.3038
  720MOL0     C97120   9.685   6.812   5.398 -0.5062 -0.2296  0.4141
  720MOL0     C97121   9.726   6.719   5.305 -0.1597  1.5348 -0.6287
  720MOL0     C97122   9.684   6.732   5.172 -0.8379  0.3170 -0.9055
  720MOL0     O97123   9.723   6.632   5.085 -0.7796  1.0210 -0.2480
  720MOL0     C97124   9.829   6.667   5.002 -0.2644  0.6629  0.2054
  720MOL0     C97125   9.970   6.651   5.065 -0.1728  0.0414 -0.1388
  720MOL0     C97126  10.019   6.504   5.063 -0.0454 -0.5449  0.1888
  720MOL0     C97127  10.147   6.473   5.152  0.0248  0.0271  0.9811
  720MOL0     C97128  10.252   6.546   5.083  0.0019 -0.1375  0.5331
  720MOL0     C97129  10.337   6.619   5.036 -0.6786  0.7664  0.2536
  720MOL0     C97130   9.590   6.820   5.138  0.0814  0.0259  0.2865
  720MOL0     C97131   9.542   6.913   5.224  0.0739 -0.0164 -0.8371
  720MOL0     C97132   9.448   7.012   5.160 -0.6294  0.0944 -0.7016
  720MOL0     H97133   9.570   7.231   5.602  7.4064  0.0318  0.0129
  720MOL0     H97134   9.580   7.366   5.817 -2.3931  1.4870 -1.2929
  720MOL0     H97135   9.314   7.188   6.082 -1.8253  2.0573 -0.9585
  720MOL0     H97136   9.429   7.212   6.221  4.7653  1.5746  0.1292
  720MOL0     H97137   9.261   7.390   6.069  0.9296 -2.3359 -1.3789
  720MOL0     H97138   9.394   7.469   6.142  0.3868 -0.4235 -2.5548
  720MOL0     H97139   9.334   7.337   6.364  1.8014 -0.1084 -1.5823
  720MOL0     H97140   9.168   7.346   6.294  1.1205 -2.1093 -1.5562
  720MOL0     H97141   9.236   7.612   6.276 -0.6355  2.8130  1.9366
  720MOL0     H97142   9.159   7.543   6.407  0.6777 -1.5235  1.0033
  720MOL0     H97143   9.359   7.502   6.529 -0.6512 -3.2412 -1.6854
  720MOL0     H97144   9.471   7.542   6.408  0.8802 -1.5921  2.2230
  720MOL0     H97145   9.288   7.765   6.507  0.2836 -0.0856  1.4206
  720MOL0     H97146   9.458   7.753   6.540 -2.4704  5.4854  0.2608
  720MOL0     H97147   9.331   7.817   6.290  1.4967  1.9242 -3.3088
  720MOL0     H97148   9.484   7.714   6.283 -1.7805 -0.9814 -0.7406
  720MOL0     H97149   9.598   7.898   6.408  1.3640 -1.9031 -0.0547
  720MOL0     H97150   9.537   7.946   6.257 -1.1356  0.1570  0.4120
  720MOL0     H97151   9.416   7.977   6.624  1.9239  1.1928  0.5907
  720MOL0     H97152   9.156   8.214   6.679  0.1686  1.0857  4.5515
  720MOL0     H97153   9.272   8.139   6.768  2.1084  0.1383  0.8679
  720MOL0     H97154   9.309   8.413   6.627 -2.0286 -0.0466  0.2032
  720MOL0     H97155   9.237   8.385   6.795 -1.0437 -0.6482  0.2171
  720MOL0     H97156   9.518   8.307   6.722  0.7729 -1.4941  1.7553
  720MOL0     H97157   9.433   8.290   6.874 -2.2935  0.1981 -0.3671
  720MOL0     H97158   9.485   8.547   6.733 -3.7024 -0.6498 -0.8510
  720MOL0     H97159   9.570   8.500   6.876 -1.2295  1.2896  4.1420
  720MOL0     H97160   9.144   8.657   7.017 -1.0589 -0.3744  0.5093
  720MOL0     H97161   9.079   8.612   7.221 -0.1969 -0.8827 -1.1864
  720MOL0     H97162   9.561   8.518   7.682 -0.4906 -1.0138 -0.9067
  720MOL0     H97163   9.583   8.591   7.926  0.7644  0.5698 -2.9170
  720MOL0     H97164   9.548   8.560   8.117 -0.6030  1.8692 -2.0223
  720MOL0     H97165   9.514   8.715   8.192  0.6345 -0.1208 -1.1237
  720MOL0     H97166   9.569   8.561   8.352 -0.4847 -4.7031 -1.2159
  720MOL0     H97167   9.394   8.608   8.390 -0.5049  0.3687  0.8351
  720MOL0     H97168   9.344   8.411   8.255 -1.9804  2.1202  3.2424
  720MOL0     H97169   9.518   8.372   8.248 -0.1380 -0.7565 -0.1917
  720MOL0     H97170   9.334   8.417   8.490  0.4054 -1.2970  5.8978
  720MOL0     H97171   9.509   8.366   8.507 -0.3449  0.7513 -0.4253
  720MOL0     H97172   9.467   8.149   8.399 -2.3562  0.1710 -2.5275
  720MOL0     H97173   9.293   8.184   8.416 -0.5775 -4.5146  1.3581
  720MOL0     H97174   9.484   8.218   8.647 -0.0196  0.6054 -0.1945
  720MOL0     H97175   9.327   8.215   8.679 -0.6430  1.2417 -0.3480
  720MOL0     H97176   9.463   7.985   8.562  2.4120  2.2370  0.6788
  720MOL0     H97177   9.292   7.968   8.604  0.0158 -3.1563  2.1029
  720MOL0     H97178   9.417   7.875   8.780 -2.0952  0.1755 -0.6775
  720MOL0     H97179   9.510   8.013   8.828  0.7164 -1.3910  1.1033
  720MOL0     H97180   9.158   8.626   7.935 -2.1399  1.9532 -3.4435
  720MOL0     H97181   9.158   8.635   7.698  0.1913 -0.2825  0.9625
  720MOL0     H97182   9.478   8.459   7.333 -0.8989  0.6736  2.2435
  720MOL0     H97183   9.534   8.486   7.089 -1.0191 -2.6790 -2.2044
  720MOL0     H97184   9.478   7.006   6.028  0.0383  0.6324  1.0302
  720MOL0     H97185   9.525   6.866   5.824 -2.1557  0.0545 -0.5057
  720MOL0     H97186   9.726   6.806   5.498 -1.9722  3.4681  1.4196
  720MOL0     H97187   9.800   6.643   5.329  1.4016  2.9289 -0.8728
  720MOL0     H97188   9.802   6.769   4.973 -1.6278  0.2216 -0.1632
  720MOL0     H97189   9.822   6.607   4.911 -1.9542  0.6633  0.2973
  720MOL0     H97190   9.966   6.697   5.164  3.2336  1.2389 -0.4321
  720MOL0     H97191  10.038   6.710   5.003  1.8732 -1.1072  0.8942
  720MOL0     H97192  10.043   6.469   4.963 -3.4373  0.2066 -1.0250
  720MOL0     H97193   9.938   6.443   5.103  1.7137 -2.9041  0.3178
  720MOL0     H97194  10.147   6.514   5.253  1.3427 -4.1345  2.8944
  720MOL0     H97195  10.176   6.368   5.152 -0.1697 -0.0265  1.4271
  720MOL0     H97196  10.416   6.683   5.001 -0.6240  1.1126  0.9945
  720MOL0     H97197   9.569   6.801   5.033 -2.9288  0.3790  0.7234
  720MOL0     H97198   9.349   7.003   5.206  0.3086  0.0172  1.4044
  720MOL0     H97199   9.490   7.111   5.181 -0.3859  0.1001 -1.2190
  720MOL0     H97200   9.455   6.997   5.052  5.2475 -0.4667 -0.5573
  721MOL0     O97201   3.418   1.539   1.226  0.3699  0.2583  0.0976
  721MOL0     C97202   3.312   1.486   1.203  0.3521 -0.0656 -0.0871
  721MOL0     O97203   3.254   1.388   1.279  0.1972  0.5117  0.0199
  721MOL0     C97204   3.321   1.325   1.387 -1.1570  0.0310  0.2103
  721MOL0     C97205   3.455   1.285   1.379  1.0827  0.2172 -0.5948
  721MOL0     C97206   3.523   1.234   1.491  0.4481  0.8012 -0.0611
  721MOL0     C97207   3.453   1.193   1.603  0.2673  0.0777  0.5805
  721MOL0     O97208   3.520   1.130   1.706 -0.1511 -0.2955 -0.2932
  721MOL0     C97209   3.454   1.168   1.835 -0.5675 -0.0144 -0.2438
  721MOL0     C97210   3.548   1.128   1.942 -0.2143 -0.4455 -0.3519
  721MOL0     C97211   3.681   1.194   1.940  0.4398 -0.2047  0.1833
  721MOL0     C97212   3.665   1.328   2.029 -0.6070  0.1495  0.1287
  721MOL0     C97213   3.791   1.420   2.022  0.4141 -0.5518 -0.3908
  721MOL0     C97214   3.922   1.357   2.054  0.5928 -0.2013  0.1454
  721MOL0     C97215   4.035   1.454   2.037 -0.3576 -0.2882 -0.2637
  721MOL0     C97216   4.177   1.385   2.038 -0.0271  0.7636  0.5236
  721MOL0     N97217   4.287   1.492   2.044  0.7794  0.8751 -0.1050
  721MOL0     C97218   4.274   1.618   1.994  0.7671  0.5696  0.0911
  721MOL0     C97219   4.388   1.678   2.040  0.1423 -1.0899 -0.0343
  721MOL0     C97220   4.433   1.812   1.995 -0.8818  0.2177  0.3056
  721MOL0     C97221   4.394   1.922   2.088 -0.4586 -0.3855  0.3230
  721MOL0     C97222   4.481   1.918   2.222  0.8173  0.2347  0.6079
  721MOL0     C97223   4.429   2.013   2.328  0.4381 -1.2365 -0.5806
  721MOL0     O97224   4.451   2.149   2.289 -0.1839  0.3133 -0.6040
  721MOL0     C97225   4.346   2.230   2.324 -0.2693 -0.3386 -0.3806
  721MOL0     C97226   4.284   2.236   2.459  0.3243  0.3781 -0.2622
  721MOL0     C97227   4.184   2.320   2.485  0.8751 -0.8613  0.9092
  721MOL0     C97228   4.138   2.415   2.387 -1.6925  0.3484  0.6437
  721MOL0     C97229   4.037   2.522   2.423 -0.0472 -0.4150  0.2364
  721MOL0     O97230   4.005   2.614   2.326  0.3482  0.4054  0.8094
  721MOL0     C97231   3.902   2.703   2.358 -0.5210  0.3267 -1.1864
  721MOL0     C97232   3.931   2.835   2.330  0.0856 -0.4598 -0.4006
  721MOL0     C97233   3.818   2.919   2.339  0.0991  0.1178  0.6050
  721MOL0     C97234   3.687   2.868   2.367  0.1843 -0.3221 -0.9430
  721MOL0     O97235   3.573   2.955   2.391  0.1800  0.5957 -0.2988
  721MOL0     C97236   3.604   3.055   2.490  0.1229 -0.8962 -0.2444
  721MOL0     C97237   3.474   3.115   2.547 -0.7245 -0.5681 -0.3689
  721MOL0     C97238   3.399   3.214   2.458  0.0423 -0.4879 -0.2655
  721MOL0     C97239   3.326   3.143   2.337 -0.0221 -0.0155 -0.1804
  721MOL0     C97240   3.265   3.253   2.245 -0.0396  0.2230 -0.3880
  721MOL0     C97241   3.145   3.332   2.316 -0.7864  0.4237  0.1115
  721MOL0     C97242   3.059   3.409   2.211  0.1829  0.2274 -0.0985
  721MOL0     C97243   2.971   3.509   2.272 -0.5808  0.0745 -0.0720
  721MOL0    Cl97244   2.853   3.428   2.370 -0.3752  0.0775 -0.4174
  721MOL0     C97245   3.665   2.733   2.396  0.1642 -0.9178 -0.1284
  721MOL0     C97246   3.776   2.653   2.394  0.9263 -0.2879 -1.2020
  721MOL0     O97247   4.007   2.539   2.541 -0.5222  0.7171  0.2812
  721MOL0     C97248   4.192   2.405   2.259  0.1463  0.4638  0.1114
  721MOL0     C97249   4.295   2.312   2.228 -1.1640 -0.6344  0.6881
  721MOL0     N97250   4.458   1.600   2.125  0.1182 -0.3184 -0.3176
  721MOL0     N97251   4.396   1.484   2.129  0.1863  0.5304  0.7467
  721MOL0     C97252   3.319   1.216   1.606  0.9701  0.8029  0.6104
  721MOL0     C97253   3.255   1.299   1.512 -0.5565  0.2420  1.0675
  721MOL0     C97254   3.226   1.536   1.089  0.1258  0.0105 -0.0284
  721MOL0     C97255   3.085   1.518   1.084 -0.2660 -0.4741 -0.2660
  721MOL0     C97256   3.004   1.581   0.987 -0.1874  0.2634 -0.3284
  721MOL0     C97257   3.056   1.646   0.881 -0.1850  0.3523 -0.3387
  721MOL0     O97258   2.978   1.697   0.777  0.0430 -0.4740  0.1209
  721MOL0     C97259   3.039   1.711   0.647  0.4733 -0.1757 -0.6797
  721MOL0     C97260   2.934   1.742   0.547 -0.1952  0.5121 -0.3137
  721MOL0     C97261   2.855   1.617   0.519  0.7071 -0.4270 -1.0306
  721MOL0     C97262   2.742   1.666   0.424  0.1191  0.2755  0.4737
  721MOL0     C97263   2.607   1.611   0.438  0.3485 -1.0013 -0.1409
  721MOL0     C97264   2.494   1.572   0.466  0.0291  0.4889 -0.3370
  721MOL0     C97265   3.190   1.662   0.881  0.2856  0.5512 -0.7982
  721MOL0     C97266   3.275   1.616   0.986 -0.6244 -0.1525 -1.5114
  721MOL0     C97267   3.419   1.632   0.951  0.0589 -0.4485  1.0301
  721MOL0     H97268   3.507   1.317   1.289  0.3278  1.1428 -0.7239
  721MOL0     H97269   3.631   1.233   1.491  0.5780  2.5333  2.8310
  721MOL0     H97270   3.437   1.276   1.835 -0.3664  0.0902  2.5994
  721MOL0     H97271   3.358   1.117   1.840 -1.4101  1.4854 -0.6644
  721MOL0     H97272   3.567   1.021   1.937  1.0312 -0.2799  0.5337
  721MOL0     H97273   3.496   1.146   2.037 -0.2527  0.6588 -0.5704
  721MOL0     H97274   3.717   1.209   1.838 -1.1038 -1.2463 -0.5551
  721MOL0     H97275   3.759   1.128   1.978  1.4114 -0.9617 -2.8750
  721MOL0     H97276   3.583   1.393   1.996 -0.4400 -0.3413 -1.3491
  721MOL0     H97277   3.642   1.306   2.133 -0.2037  0.7908  0.3579
  721MOL0     H97278   3.805   1.455   1.919 -2.2102 -0.4822 -0.7866
  721MOL0     H97279   3.778   1.509   2.084 -1.4267 -2.4543  2.1482
  721MOL0     H97280   3.919   1.311   2.153 -1.4050 -2.2281 -0.7524
  721MOL0     H97281   3.929   1.281   1.977 -1.3122 -0.2068 -0.0859
  721MOL0     H97282   4.031   1.527   2.119  2.2522  2.5996 -2.4482
  721MOL0     H97283   4.021   1.509   1.943 -2.7038  0.3002  0.3770
  721MOL0     H97284   4.180   1.312   2.120  1.0930 -2.2573 -1.9743
  721MOL0     H97285   4.183   1.316   1.953  1.4621  1.1658  0.2885
  721MOL0     H97286   4.194   1.659   1.934  0.0295  2.1126  1.9948
  721MOL0     H97287   4.542   1.803   1.989 -0.8211  0.4727  0.9126
  721MOL0     H97288   4.403   1.828   1.891  2.6228  4.7759 -0.3523
  721MOL0     H97289   4.403   2.020   2.041  2.3226 -0.0892  1.2915
  721MOL0     H97290   4.286   1.910   2.102 -2.2509  3.6245 -5.9657
  721MOL0     H97291   4.587   1.940   2.207  1.8818 -3.3375  1.9555
  721MOL0     H97292   4.477   1.819   2.268 -0.2901  0.2210  0.5191
  721MOL0     H97293   4.478   1.991   2.423 -0.1884 -0.2079  0.0072
  721MOL0     H97294   4.321   1.996   2.338  0.1428  0.8521  0.4954
  721MOL0     H97295   4.325   2.165   2.530  1.2711 -2.0214 -3.0054
  721MOL0     H97296   4.160   2.328   2.591  2.2878 -0.8467  1.2431
  721MOL0     H97297   4.033   2.868   2.320 -0.3187  1.4888  1.3468
  721MOL0     H97298   3.804   3.026   2.327 -0.4511  0.2783  2.3535
  721MOL0     H97299   3.629   3.008   2.585  0.0269  2.7555  1.7946
  721MOL0     H97300   3.673   3.127   2.445 -0.0439  0.9307  2.1955
  721MOL0     H97301   3.404   3.039   2.584  1.3352 -2.4329 -0.0642
  721MOL0     H97302   3.501   3.152   2.646 -1.2474 -0.8783 -0.1050
  721MOL0     H97303   3.325   3.246   2.532  0.1813 -1.8163  0.4826
  721MOL0     H97304   3.465   3.294   2.424 -1.6468  0.2299 -2.0242
  721MOL0     H97305   3.257   3.074   2.387  1.4172  0.7743  3.1675
  721MOL0     H97306   3.398   3.089   2.276  0.5548 -0.1178  0.5729
  721MOL0     H97307   3.206   3.213   2.162  0.5249 -0.2847 -0.5527
  721MOL0     H97308   3.339   3.318   2.197 -1.3167  2.0941  0.0475
  721MOL0     H97309   3.081   3.254   2.358  0.6463 -0.9145 -0.0796
  721MOL0     H97310   3.188   3.396   2.393 -1.9586  0.3802  0.8144
  721MOL0     H97311   2.998   3.347   2.146  1.1180  0.0791 -0.8600
  721MOL0     H97312   3.128   3.447   2.135  0.3053 -1.4739 -0.8853
  721MOL0     H97313   3.015   3.593   2.325  3.5965  0.0647 -3.0759
  721MOL0     H97314   2.915   3.554   2.190 -0.3481  0.4690 -0.0135
  721MOL0     H97315   3.566   2.703   2.428  0.1476  1.3152  2.3732
  721MOL0     H97316   3.770   2.553   2.434 -1.4654  1.1051  2.4273
  721MOL0     H97317   4.164   2.487   2.194 -1.3629 -0.8837 -1.0202
  721MOL0     H97318   4.344   2.315   2.131  2.0317  0.9004  2.1901
  721MOL0     H97319   3.271   1.171   1.692  0.0894  2.7079  1.1657
  721MOL0     H97320   3.153   1.335   1.508 -0.1002  1.4914 -1.4547
  721MOL0     H97321   3.046   1.450   1.160 -4.6082 -1.6351 -3.1489
  721MOL0     H97322   2.897   1.571   1.005  0.0983 -0.0518  1.4127
  721MOL0     H97323   3.091   1.618   0.621  0.6875  0.2703 -1.9214
  721MOL0     H97324   3.105   1.798   0.643 -1.4896  1.4313 -0.0028
  721MOL0     H97325   3.000   1.761   0.462 -0.0861  0.1299 -0.3180
  721MOL0     H97326   2.866   1.824   0.571 -0.1686 -0.4872  3.9745
  721MOL0     H97327   2.821   1.575   0.614  0.6522 -0.3146 -0.9999
  721MOL0     H97328   2.919   1.538   0.479  3.6510  2.4688 -2.5349
  721MOL0     H97329   2.741   1.774   0.410  0.0500  0.2915  0.6092
  721MOL0     H97330   2.783   1.633   0.328 -0.4847 -0.3206  0.4093
  721MOL0     H97331   2.393   1.538   0.477  0.3211 -1.0032 -1.8123
  721MOL0     H97332   3.222   1.730   0.802 -0.6736  1.3849 -0.5022
  721MOL0     H97333   3.443   1.657   0.848  0.9322 -2.1367  0.7771
  721MOL0     H97334   3.457   1.715   1.011 -2.5966  2.3418 -0.8260
  721MOL0     H97335   3.471   1.537   0.968 -0.1879 -1.1167 -1.5167
  722MOL0     O97336   0.234   5.434   3.175  0.2966  1.0374 -0.5691
  722MOL0     C97337   0.119   5.404   3.143 -0.5385 -0.0247  0.5297
  722MOL0     O97338   0.020   5.393   3.234 -0.7504  0.0590 -0.1108
  722MOL0     C97339   0.045   5.380   3.371  0.1810  0.0376  0.2331
  722MOL0     C97340   0.149   5.461   3.440  0.9061  0.0509  0.0661
  722MOL0     C97341   0.167   5.439   3.567 -0.3681 -0.1734 -0.3475
  722MOL0     C97342   0.083   5.358   3.641 -0.7495 -0.4736 -0.9583
  722MOL0     O97343   0.123   5.332   3.770 -0.8427  0.2782 -0.5892
  722MOL0     C97344   0.037   5.352   3.880  0.2300  0.3247  0.0334
  722MOL0     C97345   0.111   5.291   4.007  0.7015  0.2058  0.2396
  722MOL0     C97346   0.016   5.290   4.132 -0.0765  0.3229  0.0255
  722MOL0     C97347  -0.092   5.172   4.144 -0.1936  0.8021  0.3019
  722MOL0     C97348  -0.223   5.205   4.090 -0.3157 -0.2873  0.8489
  722MOL0     C97349  -0.334   5.127   4.145  0.2645 -0.3593  0.1601
  722MOL0     C97350  -0.316   4.976   4.160 -0.3981  0.2016 -0.0805
  722MOL0     C97351  -0.257   4.937   4.295 -0.5387  0.2498 -0.4039
  722MOL0     N97352  -0.258   4.786   4.313  0.6763 -0.0185  0.1862
  722MOL0     C97353  -0.283   4.686   4.221 -0.0441  0.7856  0.1105
  722MOL0     C97354  -0.256   4.563   4.278  0.1945 -0.7511 -0.4578
  722MOL0     C97355  -0.277   4.427   4.228  0.9222 -0.0911  1.6251
  722MOL0     C97356  -0.415   4.364   4.249  0.8403  1.5973 -0.3735
  722MOL0     C97357  -0.422   4.228   4.161  0.1427 -0.7322 -0.9137
  722MOL0     C97358  -0.499   4.233   4.030  0.6865 -0.5148  0.0763
  722MOL0     O97359  -0.423   4.298   3.929 -0.3391  0.2815 -0.3738
  722MOL0     C97360  -0.450   4.422   3.879  0.3786  0.5347 -0.3323
  722MOL0     C97361  -0.513   4.529   3.939  1.4127 -0.4239 -0.0825
  722MOL0     C97362  -0.500   4.662   3.886  1.7837  0.6145  0.1564
  722MOL0     C97363  -0.413   4.683   3.777 -0.4175  0.1081  0.6977
  722MOL0     C97364  -0.399   4.813   3.709  0.1018 -1.1595  0.1443
  722MOL0     O97365  -0.314   4.820   3.606 -0.2104  0.2183  0.4641
  722MOL0     C97366  -0.356   4.905   3.501 -0.0726  0.3182  0.3391
  722MOL0     C97367  -0.411   4.846   3.381 -0.1751 -0.4953 -0.4199
  722MOL0     C97368  -0.448   4.943   3.284  0.0772  0.0130 -0.0477
  722MOL0     C97369  -0.419   5.075   3.297  0.1683 -0.8283 -0.0404
  722MOL0     O97370  -0.450   5.156   3.188 -0.7816  0.0662 -0.2071
  722MOL0     C97371  -0.384   5.285   3.178  0.8199 -0.0891  0.3026
  722MOL0     C97372  -0.385   5.341   3.031  0.3519 -0.3764 -0.6247
  722MOL0     C97373  -0.339   5.491   3.022  0.0694  0.7042  0.4533
  722MOL0     C97374  -0.358   5.557   2.880 -0.8131 -0.6321  0.9676
  722MOL0     C97375  -0.242   5.512   2.791  0.5806 -0.2537 -0.9520
  722MOL0     C97376  -0.258   5.559   2.652 -0.6522 -0.2046  0.4652
  722MOL0     C97377  -0.230   5.704   2.626 -0.0545  0.3729 -0.9525
  722MOL0     C97378  -0.087   5.727   2.584 -0.0957 -0.7870  0.1299
  722MOL0    Cl97379  -0.049   5.648   2.431 -0.0383 -0.6226  0.1110
  722MOL0     C97380  -0.371   5.127   3.419  0.0896  1.0607  0.5998
  722MOL0     C97381  -0.330   5.044   3.517  0.0194  0.3625  0.4521
  722MOL0     O97382  -0.476   4.903   3.740  0.0148 -0.2097 -0.0780
  722MOL0     C97383  -0.337   4.566   3.722 -0.9067 -0.6776  0.4507
  722MOL0     C97384  -0.352   4.441   3.780  0.1401 -0.5521 -0.6853
  722MOL0     N97385  -0.198   4.600   4.406  0.6392 -0.4385  0.6652
  722MOL0     N97386  -0.220   4.728   4.428 -0.2555 -0.8508 -0.2915
  722MOL0     C97387  -0.015   5.281   3.582  0.1072  0.1311 -1.4322
  722MOL0     C97388  -0.037   5.295   3.449 -0.5703 -0.3731  0.6724
  722MOL0     C97389   0.089   5.360   3.015  0.3270 -0.6826  0.5840
  722MOL0     C97390   0.016   5.239   2.995  0.6558  0.4812  0.5916
  722MOL0     C97391  -0.006   5.186   2.863  0.9351 -0.4774  0.1852
  722MOL0     C97392   0.044   5.255   2.751 -0.6132 -0.3995 -0.5546
  722MOL0     O97393   0.022   5.234   2.619  0.1892 -0.4431  0.4096
  722MOL0     C97394  -0.077   5.135   2.577  0.2191  0.2051 -0.1741
  722MOL0     C97395  -0.076   5.115   2.425  0.5394 -0.2205 -0.2712
  722MOL0     C97396  -0.096   5.253   2.356  0.4464 -0.4123 -0.0864
  722MOL0     C97397  -0.102   5.242   2.202 -0.3882  1.2481  0.3374
  722MOL0     C97398  -0.237   5.187   2.166  0.4890  0.0927  0.6342
  722MOL0     C97399  -0.346   5.152   2.125 -0.3419 -0.6455 -0.3018
  722MOL0     C97400   0.119   5.375   2.772  0.6270 -0.5799  0.1459
  722MOL0     C97401   0.138   5.428   2.903  0.0959 -0.2005  0.0498
  722MOL0     C97402   0.210   5.561   2.903  0.5827 -0.4354  0.5103
  722MOL0     H97403   0.206   5.536   3.386  2.4895 -0.3823  1.0627
  722MOL0     H97404   0.230   5.502   3.629 -0.5515 -0.5099  0.1916
  722MOL0     H97405   0.014   5.457   3.899 -2.1542 -0.2454  0.6008
  722MOL0     H97406  -0.060   5.304   3.860 -0.4767  0.7451  2.2362
  722MOL0     H97407   0.194   5.362   4.014  2.6025 -1.8665 -0.2232
  722MOL0     H97408   0.150   5.190   3.994  0.4467  0.0599  0.5932
  722MOL0     H97409  -0.029   5.389   4.137 -1.5932 -0.1258 -2.7918
  722MOL0     H97410   0.073   5.277   4.224 -2.3961  1.6033  1.7444
  722MOL0     H97411  -0.058   5.073   4.110 -1.7830 -1.2573  4.0084
  722MOL0     H97412  -0.111   5.157   4.251 -1.9354 -1.8800 -0.2897
  722MOL0     H97413  -0.250   5.309   4.109 -3.0300 -0.3975 -1.8444
  722MOL0     H97414  -0.224   5.200   3.981  1.4511 -1.6044  0.8505
  722MOL0     H97415  -0.362   5.171   4.242  2.3282 -0.6382  0.9242
  722MOL0     H97416  -0.421   5.131   4.078 -1.6214  0.0308  2.4922
  722MOL0     H97417  -0.263   4.925   4.079 -1.2920 -1.2608  0.2048
  722MOL0     H97418  -0.420   4.944   4.151 -0.7483  1.5020 -0.9063
  722MOL0     H97419  -0.154   4.966   4.318 -0.8033  1.9706 -1.2705
  722MOL0     H97420  -0.318   4.974   4.378 -1.4105 -1.4142 -0.2480
  722MOL0     H97421  -0.323   4.703   4.121 -0.3480  1.7862  0.3908
  722MOL0     H97422  -0.252   4.424   4.122  2.0942 -2.8540  1.9010
  722MOL0     H97423  -0.213   4.352   4.275  0.8582 -1.9386 -1.0698
  722MOL0     H97424  -0.421   4.342   4.356  0.9937 -3.0974 -1.0855
  722MOL0     H97425  -0.490   4.436   4.217  0.3367  1.0697 -0.3956
  722MOL0     H97426  -0.478   4.155   4.220 -1.9318  1.1686 -0.4071
  722MOL0     H97427  -0.323   4.182   4.150  0.8307  1.0861 -2.9430
  722MOL0     H97428  -0.602   4.268   4.045  0.8559 -1.1278  3.5592
  722MOL0     H97429  -0.518   4.130   3.998 -0.2070  0.0081 -1.1672
  722MOL0     H97430  -0.582   4.529   4.023  1.2434  2.5712 -0.0930
  722MOL0     H97431  -0.563   4.735   3.935  0.9476 -1.1399  1.8150
  722MOL0     H97432  -0.406   4.738   3.376  1.9116 -0.4201 -1.2307
  722MOL0     H97433  -0.498   4.916   3.192 -0.1521 -1.7004  0.5324
  722MOL0     H97434  -0.421   5.365   3.243  0.4038 -1.8317  2.2906
  722MOL0     H97435  -0.281   5.282   3.215  0.9087 -1.9930 -0.0089
  722MOL0     H97436  -0.316   5.282   2.970  0.2914  0.3106 -1.3736
  722MOL0     H97437  -0.484   5.330   2.984 -1.1484  3.2224  1.3188
  722MOL0     H97438  -0.409   5.550   3.082  0.2084  1.5207 -0.1677
  722MOL0     H97439  -0.234   5.501   3.054  0.8620 -2.2400 -0.9485
  722MOL0     H97440  -0.355   5.665   2.892  0.3000 -0.5693  0.2743
  722MOL0     H97441  -0.447   5.531   2.822  0.1994 -0.2927 -0.8244
  722MOL0     H97442  -0.235   5.404   2.777  0.7476 -0.0666 -2.5510
  722MOL0     H97443  -0.146   5.539   2.836  0.0804 -0.6215  0.3986
  722MOL0     H97444  -0.193   5.493   2.593 -0.9749  0.4460 -0.6224
  722MOL0     H97445  -0.361   5.540   2.621 -1.5218  2.1987  1.6376
  722MOL0     H97446  -0.251   5.765   2.714 -2.9258 -2.1446  0.3132
  722MOL0     H97447  -0.299   5.726   2.545 -4.1079 -0.8597  1.8590
  722MOL0     H97448  -0.082   5.835   2.572 -0.3557 -0.4381  2.5878
  722MOL0     H97449  -0.013   5.699   2.660  3.2217  2.6530 -1.5157
  722MOL0     H97450  -0.371   5.234   3.438 -0.5569  1.5483 -1.8005
  722MOL0     H97451  -0.300   5.087   3.612  1.7895  2.0257 -0.7827
  722MOL0     H97452  -0.262   4.589   3.647 -1.4263  0.4008  0.2334
  722MOL0     H97453  -0.294   4.358   3.741 -0.2842 -2.5846  2.5872
  722MOL0     H97454  -0.075   5.217   3.646  2.5936 -1.0719 -0.1945
  722MOL0     H97455  -0.118   5.242   3.401 -2.0683  2.8341 -0.6204
  722MOL0     H97456  -0.028   5.181   3.075 -0.0237  0.5159  0.2481
  722MOL0     H97457  -0.055   5.090   2.850  1.3677 -0.6238 -0.4693
  722MOL0     H97458  -0.176   5.169   2.608 -0.5683 -1.5165 -0.6974
  722MOL0     H97459  -0.052   5.044   2.631 -1.5656  0.5047  1.2426
  722MOL0     H97460  -0.147   5.035   2.402  0.1467  0.0167  0.1060
  722MOL0     H97461   0.015   5.079   2.376  2.7065  0.2606  3.1192
  722MOL0     H97462  -0.015   5.322   2.379  0.2129  0.1278 -0.8846
  722MOL0     H97463  -0.184   5.303   2.396  3.4403  1.7596  4.7680
  722MOL0     H97464  -0.092   5.348   2.177 -2.4380  1.6218  0.8743
  722MOL0     H97465  -0.024   5.182   2.156 -1.3711  0.8106 -0.8069
  722MOL0     H97466  -0.450   5.134   2.111 -1.2657  2.1093  1.9483
  722MOL0     H97467   0.176   5.422   2.693  0.1221  0.2728  0.2837
  722MOL0     H97468   0.206   5.613   2.999 -1.9986 -1.0845  0.8292
  722MOL0     H97469   0.313   5.539   2.873 -0.6183 -0.4841 -4.5646
  722MOL0     H97470   0.164   5.630   2.832 -1.5588 -2.3913 -0.1146
  723MOL0     O97471  11.443   3.355   6.247 -1.0095 -0.0064 -0.4034
  723MOL0     C97472  11.393   3.358   6.137  0.5957 -1.4694  0.7618
  723MOL0     O97473  11.466   3.388   6.024  0.0893 -0.8665  1.0093
  723MOL0     C97474  11.602   3.397   6.033  0.3175  0.4677  0.0216
  723MOL0     C97475  11.673   3.289   5.983 -0.5990  0.3382  0.8444
  723MOL0     C97476  11.820   3.283   5.991 -0.3676 -1.4424 -0.5195
  723MOL0     C97477  11.884   3.376   6.063 -1.2932 -0.7178 -0.2342
  723MOL0     O97478  12.026   3.367   6.075  0.4654 -0.2745  0.2276
  723MOL0     C97479  12.100   3.425   6.185  0.1678 -1.0310  0.6858
  723MOL0     C97480  12.209   3.518   6.139 -0.1635 -0.9427 -0.7244
  723MOL0     C97481  12.286   3.495   6.002  0.2079  0.0121  0.3480
  723MOL0     C97482  12.364   3.362   6.024 -0.8303  0.1323 -0.5982
  723MOL0     C97483  12.476   3.340   6.127  0.0611 -0.1282 -0.3011
  723MOL0     C97484  12.617   3.418   6.107 -0.0475 -0.0118 -0.0585
  723MOL0     C97485  12.605   3.559   6.154 -0.5142 -0.3858 -0.2038
  723MOL0     C97486  12.736   3.627   6.139 -0.0991 -0.7003 -0.2911
  723MOL0     N97487  12.747   3.690   6.001 -0.4973 -0.2178 -0.0291
  723MOL0     C97488  12.742   3.631   5.881  0.7844 -0.7727 -0.2698
  723MOL0     C97489  12.731   3.746   5.799 -0.2205 -0.2075  0.2297
  723MOL0     C97490  12.695   3.737   5.651  0.1919  0.6076 -0.0128
  723MOL0     C97491  12.547   3.746   5.624 -0.0207  0.4788 -0.4316
  723MOL0     C97492  12.494   3.890   5.618  0.7702  0.6834 -0.2969
  723MOL0     C97493  12.340   3.899   5.596 -0.4339  0.5008 -0.8146
  723MOL0     O97494  12.313   4.038   5.572 -0.2443 -0.8508  1.2334
  723MOL0     C97495  12.318   4.082   5.434  0.0885  0.2439  0.3735
  723MOL0     C97496  12.294   4.213   5.429 -0.1461 -0.4625 -0.3263
  723MOL0     C97497  12.290   4.281   5.305 -0.0043 -0.4561 -0.8492
  723MOL0     C97498  12.324   4.209   5.187  0.1855 -0.1780  0.2062
  723MOL0     C97499  12.345   4.289   5.062  0.9732 -0.5018 -0.4698
  723MOL0     O97500  12.369   4.212   4.955 -0.5329 -0.4290  0.5718
  723MOL0     C97501  12.408   4.271   4.830 -0.0265  0.4919  0.3307
  723MOL0     C97502  12.393   4.186   4.714 -0.0162  0.4666  0.4786
  723MOL0     C97503  12.434   4.236   4.591  0.3406 -0.2571 -0.2457
  723MOL0     C97504  12.500   4.355   4.577 -0.4081 -0.4626 -0.1845
  723MOL0     O97505  12.558   4.401   4.455 -0.5448  0.3083  0.1458
  723MOL0     C97506  12.682   4.346   4.407  0.0037 -0.5489 -0.0387
  723MOL0     C97507  12.770   4.478   4.407 -0.2997  0.3252 -0.4085
  723MOL0     C97508  12.920   4.433   4.400  0.8488 -0.1838 -0.1480
  723MOL0     C97509  13.017   4.533   4.473  0.8838  0.5689 -0.3962
  723MOL0     C97510  13.162   4.490   4.499 -0.5923 -0.2344 -0.7421
  723MOL0     C97511  13.235   4.607   4.568  0.6543 -0.4918  0.2588
  723MOL0     C97512  13.244   4.740   4.487 -0.3128  0.0367  0.1636
  723MOL0     C97513  13.326   4.841   4.568  0.5809  0.2193 -0.4646
  723MOL0    Cl97514  13.309   5.007   4.493 -0.3111  0.3510  0.2741
  723MOL0     C97515  12.532   4.433   4.689  0.6141  0.5058 -0.2692
  723MOL0     C97516  12.474   4.392   4.812 -0.5391  0.4800 -0.1834
  723MOL0     O97517  12.324   4.410   5.053  0.4661 -1.3634 -0.0858
  723MOL0     C97518  12.351   4.072   5.195 -0.8221  0.9017 -0.8967
  723MOL0     C97519  12.354   4.004   5.321  0.4085 -0.0643  0.7335
  723MOL0     N97520  12.731   3.865   5.864  0.2155 -0.5966 -0.4039
  723MOL0     N97521  12.749   3.832   5.989  0.6151  0.2357 -0.8060
  723MOL0     C97522  11.815   3.485   6.105  0.8437 -0.9703 -0.4023
  723MOL0     C97523  11.677   3.501   6.088  0.0282  0.2866 -0.0328
  723MOL0     C97524  11.253   3.324   6.125  0.2238 -0.1391 -0.6308
  723MOL0     C97525  11.169   3.350   6.235 -0.2321  1.1135 -0.0017
  723MOL0     C97526  11.036   3.322   6.229  0.5407  0.6592 -1.0345
  723MOL0     C97527  10.983   3.265   6.121 -0.3683  0.2511  0.2798
  723MOL0     O97528  10.851   3.231   6.115  0.1422 -0.7692  0.3017
  723MOL0     C97529  10.762   3.293   6.215  0.4919  0.4737  0.0099
  723MOL0     C97530  10.620   3.243   6.181  0.5438  0.5645 -0.0553
  723MOL0     C97531  10.512   3.309   6.282 -0.1542  0.1206 -0.1536
  723MOL0     C97532  10.366   3.265   6.259  0.0749 -0.8951 -0.6876
  723MOL0     C97533  10.273   3.318   6.352  0.3162 -0.1641 -0.3176
  723MOL0     C97534  10.181   3.360   6.425 -0.3418  0.9035  0.3758
  723MOL0     C97535  11.059   3.230   6.011  0.2243 -0.3161 -0.0748
  723MOL0     C97536  11.197   3.260   6.012  0.4821  0.0534 -0.4515
  723MOL0     C97537  11.282   3.224   5.897 -0.2811  0.6095  0.9317
  723MOL0     H97538  11.619   3.208   5.934 -2.9670  0.8889  2.3877
  723MOL0     H97539  11.867   3.193   5.954 -1.3796 -2.9724  1.6447
  723MOL0     H97540  12.028   3.490   6.234  0.6305  2.3856 -2.7334
  723MOL0     H97541  12.124   3.340   6.250  1.6463 -1.1539  0.0396
  723MOL0     H97542  12.276   3.527   6.225  0.1089  1.8629 -1.1172
  723MOL0     H97543  12.165   3.616   6.114  0.8296 -0.4495 -0.5927
  723MOL0     H97544  12.347   3.579   5.967 -0.0614  0.0609 -0.0108
  723MOL0     H97545  12.202   3.476   5.934  0.4843 -1.0829  0.2870
  723MOL0     H97546  12.286   3.291   6.052 -1.3897  0.6871 -0.7504
  723MOL0     H97547  12.409   3.329   5.930 -3.3489 -1.0201 -1.4894
  723MOL0     H97548  12.447   3.372   6.228  4.3165  0.7745  0.8262
  723MOL0     H97549  12.492   3.232   6.133  2.0702 -0.2082 -4.0599
  723MOL0     H97550  12.689   3.368   6.173 -1.2712  0.7003  1.8694
  723MOL0     H97551  12.651   3.402   6.004 -0.7603  0.0202 -0.3028
  723MOL0     H97552  12.598   3.550   6.262 -2.1498  2.9633  0.1186
  723MOL0     H97553  12.515   3.614   6.123 -0.7319  0.1710  1.3657
  723MOL0     H97554  12.750   3.707   6.211 -3.4368  1.4930 -1.8024
  723MOL0     H97555  12.814   3.551   6.150 -1.1070 -2.1985 -2.4831
  723MOL0     H97556  12.742   3.531   5.838 -2.5645 -1.1835  0.3833
  723MOL0     H97557  12.746   3.822   5.605 -0.9375 -0.3357 -3.3088
  723MOL0     H97558  12.749   3.652   5.608  5.2832  2.8671  1.0887
  723MOL0     H97559  12.525   3.690   5.533  1.2001 -2.6776  1.0683
  723MOL0     H97560  12.496   3.700   5.709  4.2527  0.8017  2.5754
  723MOL0     H97561  12.537   3.945   5.534  1.8046  0.4009  0.0216
  723MOL0     H97562  12.522   3.930   5.716 -1.1002 -2.9636  1.9627
  723MOL0     H97563  12.283   3.872   5.685  0.0998  1.0468 -0.3031
  723MOL0     H97564  12.307   3.833   5.515 -1.3730  1.1653 -0.9846
  723MOL0     H97565  12.282   4.275   5.517  3.0556  0.4497 -0.3895
  723MOL0     H97566  12.268   4.387   5.300 -1.0921 -0.7205 -2.2361
  723MOL0     H97567  12.341   4.090   4.716 -1.4691  1.2060 -0.1029
  723MOL0     H97568  12.425   4.169   4.506 -2.5540  0.4949 -0.6217
  723MOL0     H97569  12.706   4.277   4.488 -0.2852  0.6788  1.1342
  723MOL0     H97570  12.673   4.313   4.303  3.3386  3.9580 -2.1167
  723MOL0     H97571  12.743   4.540   4.320 -3.8205 -2.6511 -1.6909
  723MOL0     H97572  12.746   4.533   4.498  0.7753 -3.2096  2.2335
  723MOL0     H97573  12.920   4.336   4.451 -2.1177  0.3181  0.9739
  723MOL0     H97574  12.931   4.422   4.291 -0.6419  0.1413 -0.3500
  723MOL0     H97575  12.970   4.573   4.564  0.1404 -0.6808 -0.1994
  723MOL0     H97576  13.008   4.620   4.407 -3.9374 -1.4207 -2.8613
  723MOL0     H97577  13.223   4.459   4.414 -0.1064 -2.7147  0.4212
  723MOL0     H97578  13.169   4.416   4.580  3.0671  1.2200  0.4635
  723MOL0     H97579  13.183   4.633   4.662  1.6015  0.2746  0.5820
  723MOL0     H97580  13.328   4.574   4.614 -0.3402  0.0805  2.9056
  723MOL0     H97581  13.147   4.786   4.470 -0.5816  0.4206  2.4012
  723MOL0     H97582  13.296   4.717   4.394 -0.3912  0.2597  0.0659
  723MOL0     H97583  13.294   4.836   4.673  2.2624 -1.3129  0.0173
  723MOL0     H97584  13.426   4.801   4.585  0.9575  0.6787 -1.5223
  723MOL0     H97585  12.599   4.519   4.685  0.9264  0.3844  1.5182
  723MOL0     H97586  12.491   4.457   4.898 -0.6247 -0.0470  0.2342
  723MOL0     H97587  12.380   4.024   5.102  2.5956 -0.0204  0.4731
  723MOL0     H97588  12.394   3.903   5.316 -1.7331 -0.9233 -0.5859
  723MOL0     H97589  11.864   3.571   6.150 -1.3725 -0.6274  1.5202
  723MOL0     H97590  11.635   3.587   6.139  1.9800 -1.1950  4.6482
  723MOL0     H97591  11.196   3.400   6.328  2.7980  0.8098 -0.6155
  723MOL0     H97592  10.971   3.354   6.310 -0.7696 -0.8098 -1.4573
  723MOL0     H97593  10.756   3.402   6.202  1.4902  0.3049 -2.3183
  723MOL0     H97594  10.785   3.275   6.321 -1.6949  0.7492  0.5865
  723MOL0     H97595  10.616   3.134   6.191 -2.9223  0.3529 -2.2254
  723MOL0     H97596  10.604   3.272   6.076  1.8880  2.1242  0.1165
  723MOL0     H97597  10.495   3.416   6.274 -1.6052 -0.1350 -0.7572
  723MOL0     H97598  10.539   3.280   6.384 -0.1592 -0.8126 -0.4023
  723MOL0     H97599  10.343   3.309   6.162 -1.5077  2.3344  1.0142
  723MOL0     H97600  10.345   3.158   6.272 -2.8898 -0.1258  2.2972
  723MOL0     H97601  10.123   3.403   6.504 -0.6223  0.6242  0.3221
  723MOL0     H97602  11.007   3.187   5.926  1.2620 -3.7745  0.8739
  723MOL0     H97603  11.243   3.146   5.832  0.8048 -0.2664  1.2905
  723MOL0     H97604  11.316   3.305   5.832 -0.8806 -0.5219 -0.8647
  723MOL0     H97605  11.381   3.191   5.930  0.5700  3.3924  1.4357
  724MOL0     O97606   4.117   8.972   9.793 -0.1599  0.2154  0.6779
  724MOL0     C97607   4.031   8.892   9.762  0.2546  0.0216 -0.8745
  724MOL0     O97608   3.993   8.785   9.837 -0.1879 -0.3769  0.4923
  724MOL0     C97609   4.059   8.769   9.953 -0.1850  0.5684 -0.2538
  724MOL0     C97610   3.974   8.753  10.064 -0.4026 -0.3890 -0.5462
  724MOL0     C97611   4.014   8.713  10.187 -0.1062  0.6865  0.3857
  724MOL0     C97612   4.151   8.691  10.216  1.1203 -0.2575 -0.1186
  724MOL0     O97613   4.176   8.683  10.347  0.3839 -0.5596 -0.2777
  724MOL0     C97614   4.292   8.612  10.377  0.1815  0.3529 -0.5811
  724MOL0     C97615   4.322   8.614  10.532 -0.2126  0.6213 -1.2298
  724MOL0     C97616   4.214   8.528  10.600 -0.7931  0.6488  0.0272
  724MOL0     C97617   4.099   8.606  10.650 -0.3706 -0.0547 -0.1304
  724MOL0     C97618   3.975   8.527  10.660  0.7939  0.2866  0.1017
  724MOL0     C97619   3.856   8.605  10.713 -0.5977 -0.3230  0.8765
  724MOL0     C97620   3.733   8.524  10.696  0.4964 -0.8179 -0.1123
  724MOL0     C97621   3.721   8.424  10.813  0.9386 -0.5432 -0.2075
  724MOL0     N97622   3.587   8.361  10.805 -0.5016  0.3242 -0.2098
  724MOL0     C97623   3.542   8.276  10.708 -0.7239  0.2086  0.4103
  724MOL0     C97624   3.420   8.229  10.750 -0.0168 -0.1005  0.1690
  724MOL0     C97625   3.329   8.127  10.692  0.5522  0.1545 -0.8504
  724MOL0     C97626   3.386   7.989  10.701 -0.1357  0.0038  1.2670
  724MOL0     C97627   3.375   7.912  10.835  0.0741  0.2116  0.5185
  724MOL0     C97628   3.448   7.985  10.948 -0.5463  0.6218  0.4027
  724MOL0     O97629   3.461   7.884  11.049  0.4610 -0.2833 -0.6858
  724MOL0     C97630   3.515   7.929  11.171  0.3420 -0.0958  0.5114
  724MOL0     C97631   3.592   8.050  11.183 -0.3490  1.1790  0.7863
  724MOL0     C97632   3.649   8.083  11.304 -0.4977  0.7031 -0.4110
  724MOL0     C97633   3.632   7.999  11.418 -0.2117  0.0374 -0.1112
  724MOL0     C97634   3.687   8.017  11.553 -0.3131  0.6772 -0.5952
  724MOL0     O97635   3.654   7.941  11.660 -0.4992  0.1524 -0.0855
  724MOL0     C97636   3.718   7.950  11.791  0.0045  0.5334 -0.0894
  724MOL0     C97637   3.839   8.024  11.820  0.2221  1.0400  0.0108
  724MOL0     C97638   3.892   8.016  11.939  0.1513  0.6019  0.3518
  724MOL0     C97639   3.831   7.941  12.044 -0.2265 -0.2962  0.0451
  724MOL0     O97640   3.887   7.926  12.166  0.7429 -0.5518 -0.3797
  724MOL0     C97641   3.942   8.046  12.224  0.1278  0.6217  0.6034
  724MOL0     C97642   3.837   8.121  12.303 -0.0928  0.0543 -0.2896
  724MOL0     C97643   3.749   8.034  12.391 -0.6990  0.4745  0.1891
  724MOL0     C97644   3.776   8.042  12.540 -0.2160  0.5257 -0.0515
  724MOL0     C97645   3.688   7.944  12.618  0.5686 -0.6846  0.9547
  724MOL0     C97646   3.690   7.954  12.761  0.2436  0.5095  0.2509
  724MOL0     C97647   3.621   7.832  12.832 -0.3149  0.3076  1.1009
  724MOL0     C97648   3.622   7.842  12.987  0.2484 -1.2163  0.3916
  724MOL0    Cl97649   3.759   7.749  13.059  0.6054  0.3138 -0.0131
  724MOL0     C97650   3.724   7.855  12.010  0.4656 -0.6553  0.2678
  724MOL0     C97651   3.668   7.859  11.884  0.0574 -0.3535 -0.7184
  724MOL0     O97652   3.762   8.110  11.559  0.4036 -0.0547  0.1021
  724MOL0     C97653   3.548   7.885  11.408 -0.9512 -1.1259  0.2935
  724MOL0     C97654   3.490   7.852  11.288  0.6297 -0.4527  0.2401
  724MOL0     N97655   3.387   8.313  10.849  0.9106 -0.4164  0.6177
  724MOL0     N97656   3.481   8.390  10.884  0.3451 -0.2887 -0.2429
  724MOL0     C97657   4.245   8.705  10.108  0.3107  0.1694  0.3085
  724MOL0     C97658   4.191   8.740   9.974 -0.6022  0.0814 -0.5904
  724MOL0     C97659   3.949   8.935   9.648 -0.4725  0.1647  0.9445
  724MOL0     C97660   3.808   8.895   9.655  0.3739  0.2339 -1.2731
  724MOL0     C97661   3.724   8.945   9.558  0.0983 -0.2098 -0.4138
  724MOL0     C97662   3.760   9.052   9.479  0.3724  0.8548 -0.1144
  724MOL0     O97663   3.652   9.102   9.413  0.5463 -0.1777 -0.3745
  724MOL0     C97664   3.663   9.215   9.329  0.3609  0.3237 -0.2022
  724MOL0     C97665   3.705   9.181   9.190 -0.4606 -0.4587 -0.6951
  724MOL0     C97666   3.697   9.308   9.099  0.3727  0.4239 -0.2458
  724MOL0     C97667   3.758   9.315   8.959 -0.4939 -0.3867 -0.1176
  724MOL0     C97668   3.709   9.207   8.873  0.2252  0.8238 -0.0242
  724MOL0     C97669   3.676   9.115   8.808 -0.2805  0.5003  0.6224
  724MOL0     C97670   3.886   9.099   9.475  0.3359  0.0502  0.3596
  724MOL0     C97671   3.984   9.035   9.549  0.4611 -0.2192  1.0727
  724MOL0     C97672   4.136   9.066   9.513 -0.5785 -0.6155 -0.3241
  724MOL0     H97673   3.872   8.789  10.059  0.4912  2.7146  0.7635
  724MOL0     H97674   3.957   8.699  10.278  2.2286 -1.6164  1.6409
  724MOL0     H97675   4.273   8.510  10.343 -0.8428  0.2349  0.2600
  724MOL0     H97676   4.381   8.653  10.330  0.6587  0.3667  0.3172
  724MOL0     H97677   4.329   8.712  10.579  1.0897 -0.5672  1.2653
  724MOL0     H97678   4.427   8.586  10.538  0.3083  2.3736 -1.7753
  724MOL0     H97679   4.263   8.482  10.686 -0.3231  2.2487  0.6474
  724MOL0     H97680   4.181   8.435  10.553 -0.1118 -0.4514  1.6391
  724MOL0     H97681   4.122   8.655  10.745 -2.1580  1.5061 -0.4392
  724MOL0     H97682   4.068   8.690  10.586 -2.2573  0.0979  0.9219
  724MOL0     H97683   3.942   8.486  10.564 -5.1228  3.4006  0.3728
  724MOL0     H97684   3.992   8.435  10.718 -0.0197  0.4083  0.5521
  724MOL0     H97685   3.865   8.647  10.814  0.4500 -3.9039  2.3997
  724MOL0     H97686   3.841   8.682  10.636  0.4255  0.2736  1.2515
  724MOL0     H97687   3.737   8.479  10.597  4.7995 -2.2677  0.5117
  724MOL0     H97688   3.656   8.596  10.726  0.9432 -0.0782 -0.7265
  724MOL0     H97689   3.809   8.361  10.829  0.2802 -1.8034 -1.3095
  724MOL0     H97690   3.728   8.477  10.908  3.4546  0.2192 -0.7687
  724MOL0     H97691   3.581   8.250  10.610  0.4191  2.8043  0.1064
  724MOL0     H97692   3.231   8.124  10.740 -0.0202  1.5109 -1.8919
  724MOL0     H97693   3.312   8.156  10.588  2.4114 -1.0726 -1.5558
  724MOL0     H97694   3.323   7.926  10.638 -1.6259  2.4819  0.1344
  724MOL0     H97695   3.489   7.996  10.666 -0.7351  0.5611 -0.5022
  724MOL0     H97696   3.412   7.813  10.808  2.0081  1.3865 -1.4015
  724MOL0     H97697   3.273   7.897  10.872  0.4577  1.4169  2.1651
  724MOL0     H97698   3.389   8.072  10.979  2.5958  2.5887  1.3422
  724MOL0     H97699   3.539   8.026  10.904 -1.4612  0.0523 -2.2398
  724MOL0     H97700   3.621   8.115  11.101 -2.0602 -1.7691 -2.4597
  724MOL0     H97701   3.720   8.164  11.314  0.7451 -0.4039  0.0409
  724MOL0     H97702   3.899   8.081  11.749  0.3670  3.6249  2.0421
  724MOL0     H97703   3.987   8.068  11.949  1.0103 -0.9150  0.3278
  724MOL0     H97704   4.010   8.007  12.301  0.2392  0.3140  0.3492
  724MOL0     H97705   4.000   8.106  12.154  0.6178  2.4371  2.4528
  724MOL0     H97706   3.880   8.193  12.373  3.1851 -2.9936  1.1311
  724MOL0     H97707   3.765   8.178  12.243  0.3808 -1.5749 -2.5712
  724MOL0     H97708   3.642   8.048  12.371 -0.6902 -2.1630 -2.2469
  724MOL0     H97709   3.759   7.931  12.356 -0.5079  0.2822  0.7966
  724MOL0     H97710   3.766   8.145  12.575  1.1142  0.6702 -0.0431
  724MOL0     H97711   3.881   8.015  12.557 -0.1766  1.7381  1.9895
  724MOL0     H97712   3.725   7.845  12.589 -1.1320 -0.0980 -4.4052
  724MOL0     H97713   3.587   7.959  12.579  1.1594 -1.3233 -0.9206
  724MOL0     H97714   3.793   7.929  12.789 -0.4700 -2.7948  0.4201
  724MOL0     H97715   3.646   8.050  12.787  0.2021 -0.0877  2.5796
  724MOL0     H97716   3.662   7.742  12.784 -2.1706  0.1057 -0.2485
  724MOL0     H97717   3.514   7.830  12.812 -0.5750  1.3253  2.3363
  724MOL0     H97718   3.628   7.945  13.021  0.5870 -0.1360 -2.6277
  724MOL0     H97719   3.523   7.810  13.020 -0.5409  2.0283  1.4633
  724MOL0     H97720   3.678   7.784  12.078 -2.8782  0.8093 -0.2252
  724MOL0     H97721   3.604   7.777  11.855 -1.1207 -0.8238  2.7827
  724MOL0     H97722   3.527   7.829  11.498  1.2249 -0.1673  1.4804
  724MOL0     H97723   3.432   7.761  11.276  1.7125 -0.8496 -3.2393
  724MOL0     H97724   4.345   8.675  10.139 -0.0589 -2.1630 -0.5510
  724MOL0     H97725   4.255   8.728   9.887  1.8110 -2.4316  1.3730
  724MOL0     H97726   3.765   8.826   9.726  0.3285  0.5930 -0.9497
  724MOL0     H97727   3.621   8.911   9.569  0.7301 -1.5944  2.3192
  724MOL0     H97728   3.733   9.281   9.381  0.7510 -0.1840 -0.0781
  724MOL0     H97729   3.560   9.250   9.313 -0.6826 -2.3521  0.0999
  724MOL0     H97730   3.622   9.112   9.170 -0.7031 -0.7053  0.9571
  724MOL0     H97731   3.798   9.127   9.171  1.0844  2.4223 -1.8628
  724MOL0     H97732   3.745   9.378   9.169  2.2137 -1.5358  0.5812
  724MOL0     H97733   3.592   9.335   9.087  0.2770  0.7480  1.1000
  724MOL0     H97734   3.740   9.407   8.904  1.6663 -0.9489 -1.9179
  724MOL0     H97735   3.865   9.306   8.977 -0.0324  1.8773 -1.3371
  724MOL0     H97736   3.640   9.038   8.743  2.7559 -0.0547 -0.5615
  724MOL0     H97737   3.922   9.183   9.416  0.8126 -0.2830  0.1729
  724MOL0     H97738   4.195   9.092   9.601 -0.6539  1.3994 -0.8154
  724MOL0     H97739   4.170   8.980   9.455 -2.2849 -2.7090  1.5794
  724MOL0     H97740   4.163   9.159   9.462  0.2977 -1.0845 -0.7322
  725MOL0     O97741  10.128   6.901   3.433 -0.2237 -0.1488  0.0393
  725MOL0     C97742  10.162   6.821   3.349 -0.1944  0.4304  0.4005
  725MOL0     O97743  10.130   6.689   3.358  0.6128  1.0758  0.0364
  725MOL0     C97744  10.027   6.629   3.434  0.1567  0.0672 -0.2219
  725MOL0     C97745   9.916   6.698   3.496  0.2192  0.5058  0.0966
  725MOL0     C97746   9.815   6.621   3.562 -1.0369  0.1898 -0.1687
  725MOL0     C97747   9.827   6.486   3.581 -0.4543  0.2011  0.1421
  725MOL0     O97748   9.731   6.416   3.646 -0.7884  0.0646  0.1513
  725MOL0     C97749   9.598   6.476   3.666  0.6818 -0.1509 -0.2798
  725MOL0     C97750   9.505   6.362   3.693  0.2199 -0.3911 -0.4749
  725MOL0     C97751   9.535   6.294   3.829 -1.5181 -0.0279 -0.3052
  725MOL0     C97752   9.447   6.164   3.868 -0.1983 -0.6845 -0.1178
  725MOL0     C97753   9.465   6.107   4.011  0.0504  0.6418  0.5549
  725MOL0     C97754   9.376   5.982   4.036  0.0642 -0.1554  0.4207
  725MOL0     C97755   9.389   5.920   4.172 -0.1831 -1.3921  0.4823
  725MOL0     C97756   9.536   5.866   4.218 -0.6693  0.8670 -0.2051
  725MOL0     N97757   9.610   5.793   4.116  0.1727  0.0044 -0.2072
  725MOL0     C97758   9.581   5.662   4.066  0.5896  0.8481 -0.6354
  725MOL0     C97759   9.679   5.640   3.987 -0.7053 -0.8218  0.8865
  725MOL0     C97760   9.713   5.511   3.916 -0.1840  0.6823 -0.1959
  725MOL0     C97761   9.774   5.416   4.014 -0.7014 -0.2202 -0.5167
  725MOL0     C97762   9.787   5.273   3.948 -0.4844  0.1483 -0.0039
  725MOL0     C97763   9.670   5.181   3.996  0.2166  0.1873 -0.1413
  725MOL0     O97764   9.535   5.225   3.970  0.5328 -0.3436 -0.6587
  725MOL0     C97765   9.490   5.224   3.843 -0.2396  0.7469 -0.4102
  725MOL0     C97766   9.567   5.177   3.742  0.8650  0.4243  0.3240
  725MOL0     C97767   9.516   5.181   3.609  0.3947  0.1118 -0.5318
  725MOL0     C97768   9.379   5.227   3.589 -0.3676  1.3242 -0.2832
  725MOL0     C97769   9.322   5.203   3.451  0.4721  0.9036 -0.1285
  725MOL0     O97770   9.196   5.257   3.424 -0.4926 -0.1852  0.0821
  725MOL0     C97771   9.153   5.221   3.305  0.0427 -0.2098 -0.7404
  725MOL0     C97772   9.040   5.139   3.295 -0.2148 -0.0636 -0.3623
  725MOL0     C97773   9.005   5.086   3.173  0.1114  0.4561 -0.4676
  725MOL0     C97774   9.073   5.114   3.051 -0.1725  0.3914  0.2969
  725MOL0     O97775   9.050   5.023   2.941  0.2301 -1.0283 -0.1187
  725MOL0     C97776   9.139   5.037   2.831 -0.4227  0.0260  1.0087
  725MOL0     C97777   9.120   4.908   2.756  0.0996  0.4240  0.0383
  725MOL0     C97778   8.974   4.888   2.703  0.8511 -0.3239 -0.9990
  725MOL0     C97779   8.897   5.015   2.662 -1.0693 -0.7157  0.1992
  725MOL0     C97780   8.788   4.991   2.556  0.2771 -0.4167 -0.0996
  725MOL0     C97781   8.673   4.922   2.617  0.6080 -0.6348 -0.1704
  725MOL0     C97782   8.542   4.935   2.531 -0.2710 -0.5176  0.6052
  725MOL0     C97783   8.517   4.831   2.425  0.2832 -0.8832 -0.0023
  725MOL0    Cl97784   8.433   4.690   2.510  0.0434 -0.3255 -0.2388
  725MOL0     C97785   9.183   5.207   3.059  0.5904  0.3413  0.3157
  725MOL0     C97786   9.222   5.251   3.183  0.7839  0.5727  0.0169
  725MOL0     O97787   9.376   5.117   3.388 -0.5319 -0.4444  0.5777
  725MOL0     C97788   9.296   5.256   3.698  1.0199  0.3536 -0.3212
  725MOL0     C97789   9.354   5.261   3.823 -0.3538  0.0690 -0.1169
  725MOL0     N97790   9.771   5.752   3.985  0.1288  0.5311 -0.4125
  725MOL0     N97791   9.731   5.840   4.066  0.5878 -0.6893  0.4341
  725MOL0     C97792   9.934   6.425   3.519 -0.4455  0.2029 -0.1637
  725MOL0     C97793  10.033   6.495   3.451  0.3324 -0.2507  1.6029
  725MOL0     C97794  10.246   6.865   3.236 -0.4173 -0.2592 -0.7659
  725MOL0     C97795  10.250   6.773   3.128  0.3050  0.6808 -0.4784
  725MOL0     C97796  10.312   6.802   3.011  0.2182 -0.6210 -0.2093
  725MOL0     C97797  10.389   6.915   3.005  0.8233 -0.8050  0.4326
  725MOL0     O97798  10.464   6.953   2.896  0.5245 -0.1715  0.5729
  725MOL0     C97799  10.403   6.927   2.761 -1.0739 -0.6419 -0.3941
  725MOL0     C97800  10.520   6.949   2.663 -0.2511 -0.2232  0.1563
  725MOL0     C97801  10.569   7.096   2.663 -0.0848  0.6720  0.8521
  725MOL0     C97802  10.714   7.110   2.609 -0.0566 -0.4747  0.2255
  725MOL0     C97803  10.727   7.044   2.477  0.3131  0.4186  0.1694
  725MOL0     C97804  10.716   6.975   2.372 -0.2469 -0.2971 -0.2833
  725MOL0     C97805  10.402   6.995   3.116 -0.2730  0.2065 -0.6559
  725MOL0     C97806  10.334   6.971   3.231 -0.4916 -1.3743  0.5614
  725MOL0     C97807  10.363   7.075   3.347  0.2886 -0.9017  0.6020
  725MOL0     H97808   9.913   6.807   3.495  2.8812  0.6703 -2.1025
  725MOL0     H97809   9.731   6.674   3.606 -2.4072 -3.2023  1.6712
  725MOL0     H97810   9.599   6.555   3.741  2.0991 -0.8592  0.4732
  725MOL0     H97811   9.567   6.532   3.577  1.5403  3.1393  1.3636
  725MOL0     H97812   9.517   6.289   3.612 -0.0210 -1.5314  0.4706
  725MOL0     H97813   9.400   6.393   3.696  0.3225 -0.1420  1.5842
  725MOL0     H97814   9.511   6.365   3.908 -0.6420 -1.1340  1.0112
  725MOL0     H97815   9.641   6.269   3.825 -1.1144  1.7627 -1.5110
  725MOL0     H97816   9.343   6.185   3.840  0.1985  1.7904  0.0604
  725MOL0     H97817   9.483   6.095   3.792 -1.0237  1.0027 -2.1482
  725MOL0     H97818   9.572   6.097   4.035 -0.1374  2.5101  2.4652
  725MOL0     H97819   9.429   6.187   4.076 -2.2230 -2.3765  3.3382
  725MOL0     H97820   9.269   6.003   4.025 -1.6306 -5.5052  3.2536
  725MOL0     H97821   9.408   5.904   3.966  0.2296  1.6269 -1.5763
  725MOL0     H97822   9.328   5.829   4.169 -0.7737 -1.0571 -3.7137
  725MOL0     H97823   9.349   5.985   4.250  0.6670  0.3951 -0.5258
  725MOL0     H97824   9.606   5.943   4.252  2.6287 -1.6905 -0.6843
  725MOL0     H97825   9.528   5.803   4.307 -2.5293  2.2342  0.6699
  725MOL0     H97826   9.500   5.595   4.094  2.1644 -0.8085  0.1098
  725MOL0     H97827   9.617   5.471   3.882 -2.1932  1.6218  3.7517
  725MOL0     H97828   9.783   5.511   3.833 -0.5201 -4.1058 -0.7548
  725MOL0     H97829   9.877   5.448   4.033  0.7283 -5.0237  1.3520
  725MOL0     H97830   9.724   5.395   4.109 -0.4773 -0.0234 -0.3522
  725MOL0     H97831   9.882   5.228   3.978 -1.5485 -2.8984 -0.9073
  725MOL0     H97832   9.799   5.271   3.840  0.6991 -0.7260  0.1200
  725MOL0     H97833   9.684   5.177   4.105 -0.7470 -3.9111 -0.0011
  725MOL0     H97834   9.667   5.079   3.957 -2.8718 -0.2984  1.0586
  725MOL0     H97835   9.667   5.136   3.741  0.0313 -1.7901 -1.2187
  725MOL0     H97836   9.582   5.165   3.524  1.8612  2.0502  0.1486
  725MOL0     H97837   8.977   5.114   3.380 -2.4480 -1.8235 -2.3932
  725MOL0     H97838   8.930   5.007   3.172  1.2284 -0.6468 -0.0880
  725MOL0     H97839   9.123   5.113   2.754 -6.3702 -1.9390 -0.1808
  725MOL0     H97840   9.246   5.053   2.851  0.4843 -0.9319 -2.3893
  725MOL0     H97841   9.182   4.913   2.666 -0.5825 -2.8161 -0.7366
  725MOL0     H97842   9.160   4.826   2.816 -0.0643 -1.4919 -2.3213
  725MOL0     H97843   8.975   4.827   2.612  0.2664 -0.3450 -0.9997
  725MOL0     H97844   8.916   4.834   2.779  1.1876  0.5025 -0.1432
  725MOL0     H97845   8.970   5.081   2.615  0.7687 -2.6215  0.2775
  725MOL0     H97846   8.862   5.068   2.751 -4.4096 -2.5870  0.1675
  725MOL0     H97847   8.827   4.951   2.462 -0.4543 -2.1437  0.3045
  725MOL0     H97848   8.751   5.090   2.529  0.5242 -0.5159 -0.8256
  725MOL0     H97849   8.704   4.817   2.623  5.4231  0.6455  2.7053
  725MOL0     H97850   8.658   4.954   2.721 -2.7997 -1.1190 -0.3982
  725MOL0     H97851   8.559   5.034   2.488  1.6178  0.5926  3.5880
  725MOL0     H97852   8.450   4.941   2.590 -0.9706 -0.4557 -0.4698
  725MOL0     H97853   8.448   4.876   2.353  1.8005  1.2350 -0.2337
  725MOL0     H97854   8.608   4.796   2.376  2.7187  0.6686  3.0536
  725MOL0     H97855   9.228   5.249   2.969 -1.8475  0.2480 -1.0655
  725MOL0     H97856   9.314   5.307   3.178  1.1440 -0.0768 -0.8691
  725MOL0     H97857   9.190   5.272   3.680  1.0805 -2.6970 -5.5286
  725MOL0     H97858   9.313   5.278   3.921  0.1211  0.6293 -0.0100
  725MOL0     H97859   9.956   6.319   3.522 -1.4421 -0.0836 -1.7966
  725MOL0     H97860  10.114   6.455   3.391 -0.7357  0.3870 -0.3621
  725MOL0     H97861  10.185   6.687   3.139  2.9575 -1.3436  0.4236
  725MOL0     H97862  10.292   6.749   2.918 -0.5002 -0.0054 -0.4139
  725MOL0     H97863  10.317   6.989   2.733 -0.1489  0.3399 -1.1795
  725MOL0     H97864  10.368   6.826   2.740 -0.3031 -0.9070 -0.4262
  725MOL0     H97865  10.501   6.922   2.559 -0.4736  3.6841 -0.9752
  725MOL0     H97866  10.596   6.877   2.693  0.5903  0.7976  0.5222
  725MOL0     H97867  10.562   7.142   2.762  1.2236  3.9408 -0.4408
  725MOL0     H97868  10.494   7.144   2.600  0.6893 -1.8933 -2.2868
  725MOL0     H97869  10.742   7.216   2.596  0.3826 -0.2681  2.5146
  725MOL0     H97870  10.783   7.065   2.681  0.7267 -0.9500 -0.7914
  725MOL0     H97871  10.706   6.910   2.288 -2.9071 -0.4391  0.0553
  725MOL0     H97872  10.481   7.067   3.096  0.2892 -0.4030 -0.6445
  725MOL0     H97873  10.462   7.122   3.340  0.0619 -0.4612  0.3890
  725MOL0     H97874  10.294   7.159   3.340 -0.2836 -1.4822 -1.2017
  725MOL0     H97875  10.362   7.033   3.449  1.6889  0.2190  1.1049
  726MOL0     O97876  11.415   4.562   3.407 -0.0143 -0.7098  1.3594
  726MOL0     C97877  11.472   4.611   3.306 -0.0387 -0.2553  0.8738
  726MOL0     O97878  11.454   4.560   3.182  0.3006 -0.3199  0.2276
  726MOL0     C97879  11.379   4.450   3.166 -0.2817  0.3223  0.8573
  726MOL0     C97880  11.441   4.327   3.135 -0.4136 -0.1916 -0.6542
  726MOL0     C97881  11.359   4.213   3.134  0.4155 -0.4120  0.4849
  726MOL0     C97882  11.219   4.218   3.150  0.6252 -1.1114  0.7606
  726MOL0     O97883  11.152   4.100   3.138  0.1273  0.4216  0.3323
  726MOL0     C97884  11.008   4.098   3.105  0.3824  0.5196  0.4032
  726MOL0     C97885  10.923   4.108   3.228 -0.3537 -1.1757 -0.6459
  726MOL0     C97886  10.980   4.002   3.328 -0.0690  0.7679  0.7489
  726MOL0     C97887  10.895   4.008   3.456  0.0700  0.2415 -0.4882
  726MOL0     C97888  10.952   3.904   3.554 -0.1498 -0.1421  0.0780
  726MOL0     C97889  10.849   3.900   3.668  0.6472  0.9167 -0.3931
  726MOL0     C97890  10.893   3.794   3.774  0.3444  0.6302  0.4091
  726MOL0     C97891  10.800   3.791   3.899 -0.0569  0.2544 -0.1439
  726MOL0     N97892  10.846   3.688   3.995  0.0610 -0.6324 -0.3135
  726MOL0     C97893  10.807   3.560   3.993 -0.2870  0.1303 -0.1249
  726MOL0     C97894  10.842   3.523   4.125 -0.3266  0.5592 -0.0314
  726MOL0     C97895  10.824   3.378   4.171  0.7397 -0.0689 -0.1517
  726MOL0     C97896  10.946   3.292   4.195  0.5144 -0.8086  0.7371
  726MOL0     C97897  11.040   3.315   4.078 -0.6222 -0.2599 -0.4509
  726MOL0     C97898  11.170   3.229   4.070 -0.0249 -0.2095  0.2398
  726MOL0     O97899  11.129   3.091   4.063 -0.3524 -0.3479 -0.2785
  726MOL0     C97900  11.092   3.017   4.170  0.1039 -0.3541 -1.0345
  726MOL0     C97901  11.167   3.016   4.287 -0.1039 -0.9174  0.4318
  726MOL0     C97902  11.126   2.927   4.385  0.6740  0.3274 -0.0970
  726MOL0     C97903  11.028   2.826   4.366  1.1193 -0.3646  0.0748
  726MOL0     C97904  11.001   2.719   4.465 -0.4738 -0.1234  0.0966
  726MOL0     O97905  10.904   2.625   4.438 -0.8688  0.6685  0.3945
  726MOL0     C97906  10.887   2.517   4.519 -0.3034 -0.1045  0.2887
  726MOL0     C97907  10.807   2.532   4.634 -0.1270 -0.6780  0.5779
  726MOL0     C97908  10.792   2.422   4.716 -0.7910  0.3458  0.7657
  726MOL0     C97909  10.850   2.297   4.686  0.0933  0.4082  0.6087
  726MOL0     O97910  10.852   2.195   4.769 -0.3224 -0.6773  0.4346
  726MOL0     C97911  10.774   2.202   4.895 -0.1179  0.4334 -0.2285
  726MOL0     C97912  10.858   2.260   5.006  0.1753 -0.3007  0.0321
  726MOL0     C97913  10.799   2.290   5.143 -0.2219 -0.5261 -0.0435
  726MOL0     C97914  10.687   2.376   5.122  0.1697  0.1817  0.3130
  726MOL0     C97915  10.626   2.428   5.261  0.5001 -0.2049  0.0019
  726MOL0     C97916  10.487   2.483   5.249  0.2803  0.2513  0.3817
  726MOL0     C97917  10.389   2.363   5.202 -0.6045 -0.6947 -0.6624
  726MOL0     C97918  10.243   2.400   5.194 -0.1838 -0.3898 -0.0065
  726MOL0    Cl97919  10.138   2.270   5.237  0.0826  0.2419 -0.1797
  726MOL0     C97920  10.901   2.280   4.555 -0.7202  0.4726  0.7373
  726MOL0     C97921  10.920   2.387   4.465 -0.7302  0.8532 -0.2287
  726MOL0     O97922  11.084   2.711   4.556  0.3203 -0.5440 -0.7724
  726MOL0     C97923  10.952   2.843   4.258  0.4685 -0.3977 -0.7628
  726MOL0     C97924  10.986   2.932   4.158 -1.3216 -0.1710 -0.8892
  726MOL0     N97925  10.896   3.620   4.197  0.4124  0.0897 -0.0702
  726MOL0     N97926  10.899   3.726   4.120 -1.0362 -0.6618  0.6807
  726MOL0     C97927  11.162   4.342   3.162 -0.4446  0.8693 -0.9154
  726MOL0     C97928  11.240   4.459   3.178  0.0620 -0.0771  0.0290
  726MOL0     C97929  11.552   4.738   3.296  1.0352 -0.4026  0.0865
  726MOL0     C97930  11.581   4.797   3.170  0.0004 -0.0434  0.3825
  726MOL0     C97931  11.651   4.917   3.157  0.6893 -0.9696  0.0881
  726MOL0     C97932  11.691   4.984   3.274  0.4121  0.0493 -0.8756
  726MOL0     O97933  11.753   5.111   3.273  0.0686  0.3606 -0.5437
  726MOL0     C97934  11.817   5.169   3.385  0.0120 -0.1313  0.0308
  726MOL0     C97935  11.925   5.086   3.444 -0.6759  0.1977 -0.4655
  726MOL0     C97936  12.033   5.066   3.346 -0.0689  1.2793  0.6105
  726MOL0     C97937  12.150   4.987   3.416  1.0277 -0.1996  0.7710
  726MOL0     C97938  12.122   4.847   3.435  0.5137  0.1586 -0.7202
  726MOL0     C97939  12.084   4.737   3.452  0.4212  0.3325  1.3068
  726MOL0     C97940  11.648   4.935   3.397  0.1315  0.8420  0.9398
  726MOL0     C97941  11.588   4.807   3.409  0.3779 -0.8317 -0.5623
  726MOL0     C97942  11.567   4.780   3.554  0.3576  0.5527 -0.0907
  726MOL0     H97943  11.547   4.331   3.111 -0.7323  1.9116 -1.9239
  726MOL0     H97944  11.405   4.119   3.106  0.9282  0.5472 -2.2110
  726MOL0     H97945  10.985   4.171   3.026 -0.4784  2.8258  2.6477
  726MOL0     H97946  10.988   3.998   3.064 -0.2663  0.9748 -0.4425
  726MOL0     H97947  10.818   4.080   3.219 -0.8799  0.8417 -1.2660
  726MOL0     H97948  10.924   4.214   3.255  1.7987 -0.7725 -2.0332
  726MOL0     H97949  11.081   4.027   3.359 -0.3413  1.0112  1.4586
  726MOL0     H97950  10.982   3.904   3.279  2.2690 -0.5588  3.2390
  726MOL0     H97951  10.899   4.112   3.491  1.2064  0.4723 -1.2497
  726MOL0     H97952  10.792   3.991   3.423  1.3811  1.2987 -6.3820
  726MOL0     H97953  10.958   3.801   3.519  0.7539 -0.2948  0.6544
  726MOL0     H97954  11.052   3.933   3.587 -0.3309  0.6126 -0.0041
  726MOL0     H97955  10.818   4.000   3.699 -4.1329 -0.3345 -0.4696
  726MOL0     H97956  10.762   3.848   3.628  0.9021 -1.2882  1.6681
  726MOL0     H97957  10.992   3.821   3.812  0.4132  1.6506 -0.4386
  726MOL0     H97958  10.903   3.699   3.722  2.2313  1.8182 -1.5732
  726MOL0     H97959  10.794   3.883   3.958  2.2210  0.7125 -0.5135
  726MOL0     H97960  10.702   3.777   3.853  0.4384  1.3186 -1.6327
  726MOL0     H97961  10.777   3.491   3.914  1.1591  1.2189 -1.6902
  726MOL0     H97962  10.780   3.391   4.271  0.8990  0.8602 -0.1982
  726MOL0     H97963  10.773   3.316   4.097 -2.2581  1.6637  0.3307
  726MOL0     H97964  10.999   3.329   4.283  1.0443 -0.2393  0.1873
  726MOL0     H97965  10.905   3.191   4.208 -2.4518 -0.0418 -1.4120
  726MOL0     H97966  11.079   3.417   4.082  0.8178 -0.8350  1.9517
  726MOL0     H97967  10.990   3.301   3.981 -0.0964 -2.6085 -0.4560
  726MOL0     H97968  11.236   3.261   4.151  2.9233 -0.2022 -1.9849
  726MOL0     H97969  11.227   3.250   3.979 -0.8800 -0.4394 -0.3575
  726MOL0     H97970  11.255   3.078   4.299  2.0392 -3.9459  1.7878
  726MOL0     H97971  11.187   2.923   4.475  1.6364 -1.8655 -0.7611
  726MOL0     H97972  10.784   2.632   4.669 -1.0168 -0.4475 -0.5990
  726MOL0     H97973  10.736   2.433   4.808 -1.2240  4.1141  0.1769
  726MOL0     H97974  10.681   2.252   4.865  3.0132  5.3024 -3.1997
  726MOL0     H97975  10.741   2.103   4.927  1.7975  0.1211  0.8791
  726MOL0     H97976  10.956   2.213   5.017  0.2286 -0.2957 -0.3996
  726MOL0     H97977  10.881   2.360   4.970  0.1591  0.5622  2.2365
  726MOL0     H97978  10.769   2.201   5.199 -1.0725 -0.2346 -0.0170
  726MOL0     H97979  10.873   2.345   5.203 -2.4850  3.2260 -0.3374
  726MOL0     H97980  10.623   2.307   5.066 -0.6160  1.5002 -0.4673
  726MOL0     H97981  10.718   2.458   5.056  2.2342 -1.6553 -1.1054
  726MOL0     H97982  10.692   2.509   5.292  0.4823  0.4671 -1.6141
  726MOL0     H97983  10.634   2.346   5.333  2.7974  1.2798  1.5711
  726MOL0     H97984  10.458   2.518   5.348  1.0254 -2.6016  1.7288
  726MOL0     H97985  10.491   2.562   5.173 -0.9085  1.4171  1.4981
  726MOL0     H97986  10.399   2.277   5.269 -0.5124  0.0513  0.3014
  726MOL0     H97987  10.414   2.321   5.104 -2.0903 -1.5103 -0.7238
  726MOL0     H97988  10.220   2.480   5.265 -0.1599  1.4759 -2.0268
  726MOL0     H97989  10.222   2.438   5.094  0.3821 -2.3054 -0.8995
  726MOL0     H97990  10.922   2.178   4.527 -3.9652 -0.9362  2.7848
  726MOL0     H97991  10.977   2.376   4.373  2.6761 -1.7922  1.9713
  726MOL0     H97992  10.879   2.766   4.237 -1.2473  1.3262 -1.3470
  726MOL0     H97993  10.935   2.929   4.061 -0.1564 -3.3283 -1.5262
  726MOL0     H97994  11.058   4.366   3.179  0.0174  1.5054  1.2956
  726MOL0     H97995  11.198   4.559   3.172 -1.1637 -0.6600 -3.5052
  726MOL0     H97996  11.560   4.746   3.077 -0.4361  0.6915  0.0785
  726MOL0     H97997  11.697   4.954   3.066  2.7004 -0.7260  1.1565
  726MOL0     H97998  11.748   5.194   3.466  3.2353 -0.6140  3.1593
  726MOL0     H97999  11.861   5.263   3.352 -2.1813  1.4237  1.2590
  726MOL0     H98000  11.886   4.987   3.468 -1.8555  0.8697  0.5465
  726MOL0     H98001  11.952   5.143   3.534  0.6317  0.9154 -1.2914
  726MOL0     H98002  12.072   5.157   3.301  0.2631  0.5444 -0.6454
  726MOL0     H98003  11.993   5.009   3.261 -0.4338  0.3435  1.3824
  726MOL0     H98004  12.229   4.979   3.341  2.1640 -2.5066  2.1040
  726MOL0     H98005  12.199   5.039   3.499  2.1094 -3.7607  2.5892
  726MOL0     H98006  12.051   4.642   3.489 -0.7333  0.4620  0.6367
  726MOL0     H98007  11.677   4.986   3.489 -2.9758 -0.7412  2.9693
  726MOL0     H98008  11.463   4.800   3.578  0.5049 -0.5215  1.5990
  726MOL0     H98009  11.578   4.673   3.574 -0.2624  0.3690 -0.7235
  726MOL0     H98010  11.627   4.837   3.626  0.1347 -0.6444  1.0766
  727MOL0     O98011   9.080   5.618   1.682 -0.6348  0.3646 -0.4484
  727MOL0     C98012   9.034   5.510   1.703  0.5227 -0.0429 -0.8179
  727MOL0     O98013   8.910   5.472   1.659 -0.0069  0.6594  0.1517
  727MOL0     C98014   8.824   5.567   1.600 -0.9430  0.0137  0.7338
  727MOL0     C98015   8.744   5.636   1.689 -0.3505  0.2203 -0.4254
  727MOL0     C98016   8.637   5.721   1.646  0.2533  0.6760 -0.4017
  727MOL0     C98017   8.634   5.757   1.514  0.4034 -0.6046  0.5116
  727MOL0     O98018   8.536   5.834   1.456 -0.1197 -0.3643 -0.0166
  727MOL0     C98019   8.491   5.944   1.550  0.2958  0.5915 -0.6986
  727MOL0     C98020   8.396   6.033   1.477 -0.3214 -0.6717 -0.2599
  727MOL0     C98021   8.251   6.008   1.483 -0.3963 -0.1973  0.5466
  727MOL0     C98022   8.214   5.865   1.444  0.8152  0.1951 -0.2124
  727MOL0     C98023   8.059   5.836   1.438 -0.5396 -0.5151 -0.0171
  727MOL0     C98024   7.991   5.912   1.325 -0.9999  0.5121  0.4894
  727MOL0     C98025   7.845   5.900   1.309 -0.6880  1.3080 -0.6829
  727MOL0     C98026   7.799   6.014   1.214  0.0921 -0.2312  0.0707
  727MOL0     N98027   7.756   6.131   1.282  0.9332  0.3775 -1.0723
  727MOL0     C98028   7.670   6.127   1.389  0.8661 -0.3891 -0.1875
  727MOL0     C98029   7.676   6.250   1.447 -1.3909  0.6790  0.7784
  727MOL0     C98030   7.612   6.295   1.574 -0.3385 -0.4103 -0.0881
  727MOL0     C98031   7.720   6.287   1.689  0.4199  0.4178 -0.2984
  727MOL0     C98032   7.661   6.326   1.819  0.7259  0.0752 -0.7713
  727MOL0     C98033   7.764   6.360   1.930  0.5093  0.1010  0.3966
  727MOL0     O98034   7.685   6.376   2.047  0.0422 -0.4820  0.1810
  727MOL0     C98035   7.679   6.277   2.136 -0.1342  0.4339  0.4824
  727MOL0     C98036   7.572   6.273   2.224  0.6030  0.0847 -0.7845
  727MOL0     C98037   7.539   6.171   2.319 -0.4071 -0.6844  0.9047
  727MOL0     C98038   7.628   6.057   2.313  0.8631 -0.5592 -0.4117
  727MOL0     C98039   7.612   5.960   2.418 -0.3035  0.9912 -0.4449
  727MOL0     O98040   7.500   5.968   2.496 -0.2711  0.2410  0.2943
  727MOL0     C98041   7.499   5.877   2.603  0.6233  0.6297 -0.2629
  727MOL0     C98042   7.424   5.760   2.594 -1.0546  0.2229  0.6425
  727MOL0     C98043   7.432   5.656   2.688  0.5911 -0.3247  0.7332
  727MOL0     C98044   7.502   5.690   2.805 -0.4461  1.4382 -0.0440
  727MOL0     O98045   7.520   5.597   2.910  0.0449 -0.9650  0.8946
  727MOL0     C98046   7.602   5.480   2.864 -0.1534 -0.0897 -0.3388
  727MOL0     C98047   7.625   5.383   2.988 -0.2894 -0.0121  0.6426
  727MOL0     C98048   7.682   5.451   3.121 -0.2043 -0.1132  0.3247
  727MOL0     C98049   7.831   5.505   3.100  1.4266  0.3101  0.5142
  727MOL0     C98050   7.887   5.521   3.242  0.0790  0.5649 -0.9407
  727MOL0     C98051   8.032   5.588   3.233  0.8534  0.6624 -0.1776
  727MOL0     C98052   8.080   5.623   3.375 -0.6386  1.0894  0.3307
  727MOL0     C98053   8.228   5.662   3.381 -0.2482 -0.2311  0.1273
  727MOL0    Cl98054   8.279   5.689   3.561 -0.5559 -0.1207 -0.4665
  727MOL0     C98055   7.571   5.808   2.823  0.0125  0.3552 -0.6685
  727MOL0     C98056   7.573   5.900   2.721 -0.4113 -0.1311  0.1283
  727MOL0     O98057   7.697   5.869   2.424 -0.2592  0.5998  0.0676
  727MOL0     C98058   7.737   6.060   2.224 -0.7290 -0.5658  0.3288
  727MOL0     C98059   7.764   6.164   2.133 -0.1280 -0.6250  0.0536
  727MOL0     N98060   7.774   6.327   1.382 -0.7623 -0.2254 -0.8291
  727MOL0     N98061   7.813   6.255   1.289 -0.6343 -0.5895  0.1106
  727MOL0     C98062   8.736   5.703   1.433  1.1200 -0.1029  0.3276
  727MOL0     C98063   8.832   5.607   1.471  1.1766 -0.3635 -0.0985
  727MOL0     C98064   9.129   5.405   1.769  1.4604  0.7184 -1.1135
  727MOL0     C98065   9.255   5.447   1.803  0.3034 -0.0929  0.8724
  727MOL0     C98066   9.339   5.360   1.860 -0.2188  0.7376 -0.7225
  727MOL0     C98067   9.307   5.231   1.887 -0.7846 -1.0942  0.5344
  727MOL0     O98068   9.401   5.144   1.913  0.0192  0.0698 -0.0944
  727MOL0     C98069   9.390   5.102   2.050 -0.2016  0.3408  0.1858
  727MOL0     C98070   9.471   5.190   2.143 -0.7562  0.9267 -1.4032
  727MOL0     C98071   9.463   5.142   2.291 -0.2358  0.0661  0.7365
  727MOL0     C98072   9.477   5.263   2.391 -0.7024  0.4362  1.4032
  727MOL0     C98073   9.449   5.201   2.518 -0.5437 -0.2081  0.1875
  727MOL0     C98074   9.454   5.149   2.620 -0.3662 -0.2855 -0.0854
  727MOL0     C98075   9.181   5.189   1.858 -0.6252 -0.2446  0.3182
  727MOL0     C98076   9.086   5.275   1.802  0.2336  1.2072  0.4582
  727MOL0     C98077   8.954   5.222   1.774  0.1569 -0.9724 -1.0456
  727MOL0     H98078   8.753   5.616   1.795 -1.4633  2.7593  0.2287
  727MOL0     H98079   8.552   5.747   1.708  0.6387 -0.2742  0.5543
  727MOL0     H98080   8.438   5.897   1.633  0.1030 -0.0250 -1.1608
  727MOL0     H98081   8.580   5.998   1.582  2.3431 -2.6667 -0.3631
  727MOL0     H98082   8.431   6.036   1.373  1.0763 -0.6132  0.2048
  727MOL0     H98083   8.414   6.130   1.524 -1.0384  1.3324 -3.7672
  727MOL0     H98084   8.188   6.079   1.428 -1.0240  0.3783  1.9824
  727MOL0     H98085   8.220   6.032   1.585 -0.1351  2.9936 -0.0157
  727MOL0     H98086   8.267   5.835   1.352 -0.3587 -2.5511 -0.1125
  727MOL0     H98087   8.245   5.802   1.528 -3.8142  0.5808  2.0747
  727MOL0     H98088   8.038   5.729   1.430  0.9036 -0.6971 -2.5181
  727MOL0     H98089   8.015   5.878   1.529 -3.3258 -1.5237 -0.7833
  727MOL0     H98090   8.019   6.017   1.340  0.4635  0.0610  1.1586
  727MOL0     H98091   8.041   5.888   1.230 -2.6864  1.6132 -0.7438
  727MOL0     H98092   7.793   5.899   1.405 -0.8672  0.7960 -0.7847
  727MOL0     H98093   7.829   5.801   1.266  0.1600  1.2430 -0.8665
  727MOL0     H98094   7.874   6.041   1.139 -3.3565  0.3781 -3.4560
  727MOL0     H98095   7.714   5.976   1.157  1.5523 -5.4341  0.8168
  727MOL0     H98096   7.611   6.043   1.423 -1.3706  0.8059 -0.9440
  727MOL0     H98097   7.568   6.395   1.572  1.2671  0.3535  0.7337
  727MOL0     H98098   7.537   6.217   1.591 -0.6818 -0.2802 -0.9628
  727MOL0     H98099   7.782   6.197   1.680  1.2865  1.0261 -0.6219
  727MOL0     H98100   7.782   6.374   1.665  0.4635  0.3731 -0.3487
  727MOL0     H98101   7.595   6.250   1.861 -0.7065  2.9277  2.7693
  727MOL0     H98102   7.598   6.414   1.807 -0.3308 -0.6560 -0.6394
  727MOL0     H98103   7.814   6.448   1.889 -1.9908  1.7100  0.5772
  727MOL0     H98104   7.838   6.279   1.925  0.8268  0.4757 -2.0849
  727MOL0     H98105   7.510   6.362   2.225  4.7377  3.2701 -0.0697
  727MOL0     H98106   7.456   6.183   2.387 -1.7478 -0.5713 -0.6956
  727MOL0     H98107   7.364   5.740   2.505  1.4818  0.3929 -1.2361
  727MOL0     H98108   7.375   5.564   2.684 -1.3118  0.6787  2.4478
  727MOL0     H98109   7.556   5.432   2.778  3.5352  0.6574 -2.9926
  727MOL0     H98110   7.698   5.517   2.826 -0.9080 -1.8892 -4.5184
  727MOL0     H98111   7.536   5.327   3.019 -2.5343  2.0985 -1.5597
  727MOL0     H98112   7.698   5.304   2.964  0.5968  1.5244 -2.2813
  727MOL0     H98113   7.622   5.539   3.146 -1.5015 -0.9981  0.4543
  727MOL0     H98114   7.671   5.385   3.207 -4.0977  0.7030  0.6617
  727MOL0     H98115   7.826   5.600   3.046 -4.8073  2.0374  3.2648
  727MOL0     H98116   7.884   5.439   3.031 -1.5283 -0.7099 -0.9838
  727MOL0     H98117   7.901   5.423   3.287  0.8996  1.2877  0.4198
  727MOL0     H98118   7.822   5.577   3.311 -0.3550 -0.4292 -0.5224
  727MOL0     H98119   8.099   5.530   3.170  1.7065  0.5958  0.7591
  727MOL0     H98120   8.018   5.679   3.175  1.2880 -0.3322 -1.9210
  727MOL0     H98121   8.071   5.536   3.441  4.3858 -0.8574 -1.0046
  727MOL0     H98122   8.015   5.700   3.417 -2.0011 -0.0110  0.3146
  727MOL0     H98123   8.294   5.590   3.332 -1.0826 -0.8068 -0.1752
  727MOL0     H98124   8.237   5.760   3.334 -0.5015  0.0260  0.6004
  727MOL0     H98125   7.618   5.843   2.915 -1.4505  0.1166  0.1957
  727MOL0     H98126   7.640   5.982   2.743  1.6266 -1.1031 -1.9548
  727MOL0     H98127   7.808   5.978   2.230 -2.1027 -1.9488 -1.2346
  727MOL0     H98128   7.854   6.171   2.072 -1.6273  1.8583 -2.0847
  727MOL0     H98129   8.741   5.749   1.335  1.6505  0.8436  0.7738
  727MOL0     H98130   8.897   5.563   1.396 -1.2049 -1.3332 -1.7075
  727MOL0     H98131   9.287   5.542   1.764  0.4678 -0.0203  1.1824
  727MOL0     H98132   9.443   5.392   1.865 -0.1681  0.5403 -0.4755
  727MOL0     H98133   9.430   5.001   2.040 -3.8272 -0.9895 -3.9957
  727MOL0     H98134   9.286   5.087   2.081 -0.3353  1.2807  0.2149
  727MOL0     H98135   9.444   5.295   2.131  2.4970  1.8695 -1.5269
  727MOL0     H98136   9.572   5.164   2.110 -0.0955  1.2425  0.2797
  727MOL0     H98137   9.546   5.071   2.306 -1.3769 -1.6324 -0.5388
  727MOL0     H98138   9.378   5.083   2.324  1.2726 -2.2292  0.7848
  727MOL0     H98139   9.578   5.305   2.389  0.6325 -2.4474  1.8510
  727MOL0     H98140   9.404   5.339   2.362  0.0074  0.7123  0.2429
  727MOL0     H98141   9.451   5.107   2.718  2.1391 -4.4775 -1.5460
  727MOL0     H98142   9.161   5.082   1.863  0.9280 -0.6587 -1.1348
  727MOL0     H98143   8.882   5.285   1.829  0.9792  0.4154 -1.5005
  727MOL0     H98144   8.931   5.224   1.667 -0.5285  0.2191 -0.8973
  727MOL0     H98145   8.949   5.119   1.810  1.2835 -0.7836 -0.3226
  728MOL0     O98146   3.813   7.643   5.628 -0.7255  0.6678 -0.1641
  728MOL0     C98147   3.695   7.640   5.645 -0.2593 -0.0679  0.3974
  728MOL0     O98148   3.601   7.631   5.541  0.5244 -0.5800 -0.0155
  728MOL0     C98149   3.649   7.693   5.422 -0.3775  0.5400 -0.0906
  728MOL0     C98150   3.653   7.827   5.409 -0.1570 -0.9770 -0.5580
  728MOL0     C98151   3.681   7.891   5.290  0.6909  0.9687  1.5099
  728MOL0     C98152   3.705   7.816   5.172 -0.0687 -0.4058 -0.2297
  728MOL0     O98153   3.745   7.870   5.056 -0.2687  0.1462 -0.2589
  728MOL0     C98154   3.652   7.974   5.014 -0.0910 -0.6033 -0.2538
  728MOL0     C98155   3.669   7.990   4.866  0.3678  0.3608  1.3656
  728MOL0     C98156   3.598   7.887   4.789  0.0520 -0.2551  0.5791
  728MOL0     C98157   3.630   7.740   4.827 -0.1900  0.3023  0.2469
  728MOL0     C98158   3.602   7.639   4.710 -0.5128 -0.5079 -0.1003
  728MOL0     C98159   3.462   7.661   4.641 -0.1574  0.4369  0.4571
  728MOL0     C98160   3.428   7.569   4.523 -0.7389  0.0994 -0.2571
  728MOL0     C98161   3.281   7.577   4.495 -0.4182 -0.5060  0.1183
  728MOL0     N98162   3.227   7.714   4.471 -0.0449 -0.8184 -0.0900
  728MOL0     C98163   3.249   7.786   4.353  1.2484  0.6805 -0.0540
  728MOL0     C98164   3.195   7.908   4.386  0.2692 -0.0149 -0.0712
  728MOL0     C98165   3.198   8.034   4.308  0.7741 -0.4854  0.7257
  728MOL0     C98166   3.210   8.162   4.405 -0.0115  0.5174 -0.2518
  728MOL0     C98167   3.239   8.290   4.319  0.3319  0.2017  0.4330
  728MOL0     C98168   3.276   8.417   4.392  0.4498 -0.1060 -0.7483
  728MOL0     O98169   3.284   8.544   4.312  0.1661 -0.1697  0.6578
  728MOL0     C98170   3.162   8.598   4.288  0.1986 -0.9802  1.4958
  728MOL0     C98171   3.110   8.580   4.158 -0.1891 -0.3951  1.0586
  728MOL0     C98172   2.996   8.638   4.109 -0.5198 -0.3282 -0.3188
  728MOL0     C98173   2.921   8.730   4.191  0.3820  0.0769 -0.0377
  728MOL0     C98174   2.808   8.812   4.146 -0.8534  0.9171  0.2024
  728MOL0     O98175   2.775   8.804   4.011 -0.4720 -0.9382  0.2891
  728MOL0     C98176   2.650   8.854   3.971  0.4126 -0.9997 -0.3778
  728MOL0     C98177   2.630   8.987   3.932  0.1156 -0.2777 -0.6368
  728MOL0     C98178   2.492   9.034   3.907 -0.9554  0.0582 -0.0069
  728MOL0     C98179   2.394   8.942   3.915  0.1148 -1.2264 -0.0316
  728MOL0     O98180   2.273   8.979   3.864 -0.7854 -0.2633  0.4132
  728MOL0     C98181   2.274   9.015   3.724 -0.1061  0.6147  0.2736
  728MOL0     C98182   2.133   9.003   3.672 -0.0169  0.2311  0.9900
  728MOL0     C98183   2.028   9.098   3.702  0.1583  0.1588 -0.9666
  728MOL0     C98184   1.984   9.193   3.594 -0.0423  0.7446  0.1483
  728MOL0     C98185   1.874   9.296   3.627  0.1063  0.2943  0.5791
  728MOL0     C98186   1.912   9.414   3.717  0.3725 -0.6139 -0.3415
  728MOL0     C98187   1.799   9.505   3.761  0.9138 -0.0956 -0.3471
  728MOL0     C98188   1.757   9.581   3.630 -0.9993  0.1172 -0.3853
  728MOL0    Cl98189   1.658   9.722   3.677  0.0319  0.2191  0.1315
  728MOL0     C98190   2.417   8.817   3.965  0.2386  0.0172 -0.8063
  728MOL0     C98191   2.539   8.774   4.010 -0.8394 -0.4386  0.4421
  728MOL0     O98192   2.758   8.891   4.228 -0.4801  1.2527  0.6072
  728MOL0     C98193   2.976   8.745   4.325  0.1994  0.4729 -0.3108
  728MOL0     C98194   3.091   8.684   4.364 -0.1599  0.7004 -0.4456
  728MOL0     N98195   3.140   7.906   4.518 -0.7261 -0.3458  0.0046
  728MOL0     N98196   3.167   7.785   4.569  0.4602  0.7499  0.5283
  728MOL0     C98197   3.706   7.678   5.184 -0.7919 -0.2310 -0.6634
  728MOL0     C98198   3.670   7.617   5.308  0.1134 -0.6241 -0.3586
  728MOL0     C98199   3.636   7.625   5.781 -0.3039  1.0478 -1.1866
  728MOL0     C98200   3.527   7.536   5.802  0.0924 -0.0415 -0.2787
  728MOL0     C98201   3.489   7.509   5.936 -0.2866 -0.5873  1.0135
  728MOL0     C98202   3.553   7.575   6.040 -0.1857  0.3674 -0.3416
  728MOL0     O98203   3.524   7.567   6.176  0.1191 -0.0343  0.4784
  728MOL0     C98204   3.472   7.440   6.215 -0.3914  0.5450 -0.3214
  728MOL0     C98205   3.470   7.415   6.370 -0.8710 -0.4653  1.2981
  728MOL0     C98206   3.413   7.536   6.447  0.3183 -0.0525  0.0685
  728MOL0     C98207   3.407   7.527   6.605 -0.0701 -0.5364 -0.4043
  728MOL0     C98208   3.539   7.508   6.660 -0.0248 -0.0822  0.0774
  728MOL0     C98209   3.633   7.476   6.730 -0.3825 -0.6383 -0.6614
  728MOL0     C98210   3.648   7.672   6.020 -0.6495 -0.3073  0.5642
  728MOL0     C98211   3.686   7.708   5.890 -1.1590  1.2683 -0.7697
  728MOL0     C98212   3.793   7.817   5.878  0.2054  0.7209  0.0822
  728MOL0     H98213   3.627   7.867   5.506  1.8306 -2.0630  0.5033
  728MOL0     H98214   3.704   7.995   5.269  3.1112  0.4782  1.4750
  728MOL0     H98215   3.549   7.955   5.047 -0.9087  0.7059 -1.8836
  728MOL0     H98216   3.674   8.059   5.079  1.0897 -1.5133  0.5790
  728MOL0     H98217   3.776   7.989   4.844  0.7512  0.2530  3.1155
  728MOL0     H98218   3.633   8.087   4.829  2.1628  0.1861 -1.1117
  728MOL0     H98219   3.629   7.894   4.684  1.1111  2.5204  0.9898
  728MOL0     H98220   3.492   7.911   4.780  0.0453 -0.6807 -0.7074
  728MOL0     H98221   3.732   7.712   4.857 -0.6455 -2.9818 -0.8754
  728MOL0     H98222   3.564   7.719   4.911  1.4972  1.2919  1.9128
  728MOL0     H98223   3.686   7.653   4.641  1.2992  0.0440  2.0939
  728MOL0     H98224   3.606   7.537   4.748  0.5484 -0.9238 -1.2602
  728MOL0     H98225   3.387   7.657   4.721  0.3378  1.9323  1.0468
  728MOL0     H98226   3.459   7.762   4.598  1.6301 -0.6065 -2.3858
  728MOL0     H98227   3.451   7.466   4.549 -1.0644  0.2530  0.6750
  728MOL0     H98228   3.489   7.597   4.437 -1.3167 -1.1419 -1.0905
  728MOL0     H98229   3.273   7.516   4.403  1.4056  0.9311 -1.0680
  728MOL0     H98230   3.237   7.517   4.575  0.1695 -0.3259  0.5838
  728MOL0     H98231   3.290   7.748   4.260  2.6065 -1.3790  1.3164
  728MOL0     H98232   3.271   8.033   4.227 -2.2261  1.1593 -2.2745
  728MOL0     H98233   3.099   8.037   4.261  1.9349 -0.6058 -1.9359
  728MOL0     H98234   3.123   8.176   4.470 -0.4400  0.5395 -0.8236
  728MOL0     H98235   3.298   8.142   4.468  2.1302  0.2538 -3.1393
  728MOL0     H98236   3.156   8.321   4.254  0.1524  2.3538  1.5997
  728MOL0     H98237   3.320   8.272   4.248 -0.9520 -2.5846 -0.4509
  728MOL0     H98238   3.373   8.395   4.438 -1.0724  0.0184  2.8312
  728MOL0     H98239   3.209   8.436   4.476 -1.0737  3.1657 -2.5360
  728MOL0     H98240   3.171   8.533   4.081 -2.0237 -0.3102 -0.5113
  728MOL0     H98241   2.968   8.628   4.004 -0.6959  0.3371 -0.3412
  728MOL0     H98242   2.702   9.068   3.922 -1.0382  0.8355 -0.2290
  728MOL0     H98243   2.462   9.135   3.880  0.2880  0.0311 -1.6766
  728MOL0     H98244   2.299   9.121   3.719 -2.9742  1.2885 -3.6170
  728MOL0     H98245   2.348   8.961   3.664 -1.7848  0.0238 -1.3467
  728MOL0     H98246   2.133   8.998   3.563 -0.0758 -3.3789  1.0613
  728MOL0     H98247   2.091   8.906   3.700  1.1140  0.0194  2.0458
  728MOL0     H98248   1.938   9.041   3.725  0.9682 -1.4250 -1.5974
  728MOL0     H98249   2.064   9.159   3.786 -2.7967 -0.7069  1.1019
  728MOL0     H98250   1.939   9.141   3.509  2.6548  1.1466 -1.6499
  728MOL0     H98251   2.073   9.232   3.544 -1.1475 -1.1816 -3.7427
  728MOL0     H98252   1.801   9.231   3.677  2.0826 -0.8576  2.0995
  728MOL0     H98253   1.828   9.344   3.540  0.7218  1.8919  1.0926
  728MOL0     H98254   1.948   9.377   3.813 -0.9619  0.6577  0.6900
  728MOL0     H98255   1.989   9.468   3.660  0.3574 -0.3802 -0.1413
  728MOL0     H98256   1.816   9.580   3.838 -2.0792 -1.0866  1.4524
  728MOL0     H98257   1.717   9.439   3.791 -0.1505  1.7683  1.0158
  728MOL0     H98258   1.846   9.604   3.571 -1.5602  1.7938 -0.6381
  728MOL0     H98259   1.694   9.515   3.569  1.2039 -3.5239  0.9681
  728MOL0     H98260   2.330   8.754   3.977  1.6222 -1.7812  0.3367
  728MOL0     H98261   2.555   8.680   4.062  2.6100  0.8226  1.9461
  728MOL0     H98262   2.931   8.805   4.404 -1.1667  3.3729 -3.0434
  728MOL0     H98263   3.131   8.705   4.463 -0.4393  0.8130 -0.3573
  728MOL0     H98264   3.734   7.617   5.099  1.7043  0.7859 -0.6620
  728MOL0     H98265   3.672   7.510   5.328  2.0211 -0.2087  2.0646
  728MOL0     H98266   3.500   7.469   5.720  3.4498 -2.0272  0.0843
  728MOL0     H98267   3.405   7.444   5.957 -1.1731 -0.5929 -2.1342
  728MOL0     H98268   3.514   7.351   6.169  0.8805 -0.1386  1.9752
  728MOL0     H98269   3.368   7.437   6.182  0.4413  0.0596 -3.1390
  728MOL0     H98270   3.569   7.395   6.412  0.8969 -1.6126 -2.8344
  728MOL0     H98271   3.409   7.325   6.383  1.7547 -2.5413  0.4648
  728MOL0     H98272   3.312   7.540   6.404  0.2263  3.6598  0.2411
  728MOL0     H98273   3.463   7.628   6.413  0.9087  0.7815  2.9438
  728MOL0     H98274   3.355   7.614   6.644 -2.2599 -1.1705 -1.7411
  728MOL0     H98275   3.340   7.444   6.628 -0.5273 -1.3095 -3.9298
  728MOL0     H98276   3.712   7.455   6.799 -0.0851  0.4182 -0.6626
  728MOL0     H98277   3.686   7.731   6.102  3.1663 -1.2950 -0.2897
  728MOL0     H98278   3.890   7.774   5.855  0.5207  1.5993 -0.2536
  728MOL0     H98279   3.772   7.891   5.800 -1.2180  1.9257  1.5427
  728MOL0     H98280   3.802   7.858   5.979 -0.2410 -2.1112  1.3592
  729MOL0     O98281   1.095   8.273   6.923 -0.1940 -0.1254  0.1739
  729MOL0     C98282   1.191   8.250   6.847 -0.2285  0.6446 -0.1264
  729MOL0     O98283   1.324   8.260   6.886 -0.3288  0.7673 -0.4905
  729MOL0     C98284   1.370   8.252   7.016 -0.4966 -0.8177 -0.4343
  729MOL0     C98285   1.368   8.371   7.093 -0.3558 -0.7963  0.9262
  729MOL0     C98286   1.437   8.371   7.210 -0.5758  0.4838  0.6760
  729MOL0     C98287   1.502   8.256   7.254  0.1346 -0.4838 -0.0923
  729MOL0     O98288   1.568   8.269   7.363  0.0888 -0.4126 -0.6404
  729MOL0     C98289   1.532   8.172   7.464 -0.2462  0.1481  0.5969
  729MOL0     C98290   1.590   8.194   7.604  0.3752 -0.5319  0.3633
  729MOL0     C98291   1.551   8.331   7.652 -0.2934 -0.6506 -0.1007
  729MOL0     C98292   1.618   8.349   7.785  0.3749  0.5292 -1.4217
  729MOL0     C98293   1.601   8.491   7.837  0.8619  0.3990 -0.0064
  729MOL0     C98294   1.644   8.511   7.984 -0.2378 -0.1664  0.1258
  729MOL0     C98295   1.546   8.603   8.057 -1.0333  1.2107 -0.4326
  729MOL0     C98296   1.585   8.633   8.200  0.4802 -0.7940 -0.7074
  729MOL0     N98297   1.682   8.744   8.217  0.0122  1.3676  0.4952
  729MOL0     C98298   1.649   8.874   8.236 -0.5261 -0.0963  0.3104
  729MOL0     C98299   1.765   8.948   8.244 -0.0695 -0.2764 -0.0011
  729MOL0     C98300   1.780   9.104   8.261 -0.8614  0.1733 -0.5156
  729MOL0     C98301   1.649   9.177   8.214 -0.3712 -0.4391  0.7733
  729MOL0     C98302   1.637   9.166   8.056 -0.4089 -0.0325 -0.9010
  729MOL0     C98303   1.525   9.260   8.024  0.7194  0.1797  0.0107
  729MOL0     O98304   1.490   9.271   7.880 -0.0612  0.6960 -0.0541
  729MOL0     C98305   1.390   9.347   7.848  0.2931  0.0082  1.0076
  729MOL0     C98306   1.266   9.346   7.907  0.3084  0.8682 -0.3511
  729MOL0     C98307   1.166   9.427   7.865 -0.2798  0.7041  0.1334
  729MOL0     C98308   1.181   9.531   7.765 -0.5717  0.1976 -0.9923
  729MOL0     C98309   1.072   9.627   7.733 -0.9488  0.6744 -0.5320
  729MOL0     O98310   1.028   9.651   7.603  0.0378  0.3707 -0.1962
  729MOL0     C98311   0.949   9.758   7.590  0.2340  0.1216  0.3049
  729MOL0     C98312   0.810   9.752   7.622 -0.3335 -0.2290  0.0115
  729MOL0     C98313   0.730   9.865   7.607 -0.2489 -0.2016 -0.2103
  729MOL0     C98314   0.791   9.982   7.559 -0.3754 -0.2483  0.8203
  729MOL0     O98315   0.709  10.090   7.531  0.1038 -1.2993 -0.5285
  729MOL0     C98316   0.662  10.141   7.655 -0.3191 -0.9498  0.0300
  729MOL0     C98317   0.632  10.294   7.628 -0.2318  0.0725 -1.1191
  729MOL0     C98318   0.748  10.389   7.670  0.3266  0.6838 -0.4065
  729MOL0     C98319   0.875  10.376   7.586  0.2507  0.1753  0.1547
  729MOL0     C98320   0.978  10.478   7.619  0.2474 -0.4373  0.6743
  729MOL0     C98321   1.108  10.462   7.539  0.9163  0.5087  0.1660
  729MOL0     C98322   1.206  10.577   7.575  0.7272  0.0950 -0.2168
  729MOL0     C98323   1.182  10.717   7.506 -0.3732  0.1058 -0.2746
  729MOL0    Cl98324   1.256  10.693   7.351 -0.0492 -0.6698 -0.3452
  729MOL0     C98325   0.928   9.995   7.529 -0.4678  0.0623  0.6638
  729MOL0     C98326   1.008   9.880   7.547  0.0859  0.0815  1.4980
  729MOL0     O98327   1.034   9.686   7.833 -0.1775  0.2979  0.0654
  729MOL0     C98328   1.309   9.539   7.706 -0.8300  0.3807  0.1587
  729MOL0     C98329   1.412   9.447   7.753 -0.3663 -0.5769 -0.5183
  729MOL0     N98330   1.871   8.860   8.255  0.3276  0.2419 -0.0080
  729MOL0     N98331   1.818   8.738   8.237 -0.1683 -0.9113 -0.9708
  729MOL0     C98332   1.494   8.141   7.178  0.1103 -0.5485  0.4860
  729MOL0     C98333   1.440   8.139   7.051 -0.3590 -0.7963  0.4809
  729MOL0     C98334   1.170   8.206   6.706 -0.5771 -0.6056  0.2669
  729MOL0     C98335   1.260   8.263   6.609  0.8094  0.7959 -0.7111
  729MOL0     C98336   1.251   8.218   6.475 -1.2092  0.3144  0.4321
  729MOL0     C98337   1.147   8.134   6.425 -0.4289  0.1798 -1.4678
  729MOL0     O98338   1.141   8.104   6.290 -0.2054  0.6836 -0.6388
  729MOL0     C98339   1.029   8.034   6.224 -0.9121 -0.1821  0.2198
  729MOL0     C98340   1.010   8.109   6.085 -0.4001 -0.3964  0.4913
  729MOL0     C98341   1.006   8.013   5.957 -0.5881  0.0171  0.2909
  729MOL0     C98342   0.956   8.086   5.834  0.2977  0.2439  0.1339
  729MOL0     C98343   1.041   8.196   5.790  0.5207 -0.7447 -0.2068
  729MOL0     C98344   1.124   8.286   5.768 -1.1490  0.5020 -0.3735
  729MOL0     C98345   1.057   8.088   6.527 -0.1861 -0.3878  0.1556
  729MOL0     C98346   1.073   8.126   6.657  0.4684  0.3553  0.4384
  729MOL0     C98347   0.966   8.069   6.740 -0.9152  0.4093 -0.5271
  729MOL0     H98348   1.308   8.455   7.060 -0.1888 -1.5351 -1.4025
  729MOL0     H98349   1.442   8.464   7.266 -0.5452  0.2289  1.0984
  729MOL0     H98350   1.423   8.165   7.464 -0.3598  1.5990  1.5791
  729MOL0     H98351   1.563   8.070   7.436 -0.2416 -0.4851  2.7249
  729MOL0     H98352   1.699   8.193   7.611  0.4517  1.8340  0.5441
  729MOL0     H98353   1.538   8.120   7.665 -2.3009 -0.5494 -1.7303
  729MOL0     H98354   1.441   8.328   7.657 -0.4301 -1.8502 -2.6226
  729MOL0     H98355   1.567   8.412   7.581 -2.3144 -0.6640 -0.6472
  729MOL0     H98356   1.560   8.281   7.848  0.0035  1.5995 -0.5753
  729MOL0     H98357   1.725   8.324   7.786  1.1922  2.9911  3.4605
  729MOL0     H98358   1.654   8.560   7.772  0.0506  1.2728  0.2328
  729MOL0     H98359   1.492   8.505   7.842  0.4248 -1.6706 -2.1591
  729MOL0     H98360   1.636   8.414   8.034 -2.4514  0.2922  0.7994
  729MOL0     H98361   1.744   8.554   7.984 -0.5545  0.5987 -0.4830
  729MOL0     H98362   1.459   8.539   8.075  1.4965 -2.4753 -0.2188
  729MOL0     H98363   1.540   8.697   8.002  3.3030  3.7443  2.7374
  729MOL0     H98364   1.500   8.671   8.258  1.7457  4.8072 -1.9071
  729MOL0     H98365   1.626   8.539   8.239  0.4287 -0.3290  0.5231
  729MOL0     H98366   1.545   8.903   8.243 -1.4167 -2.7957 -0.4558
  729MOL0     H98367   1.799   9.108   8.369 -0.3822 -2.2737 -0.4429
  729MOL0     H98368   1.868   9.147   8.212  0.6916  0.9399  2.6673
  729MOL0     H98369   1.564   9.126   8.260 -0.0681  1.1574  3.3080
  729MOL0     H98370   1.639   9.279   8.251 -1.0637 -0.1189 -0.2636
  729MOL0     H98371   1.610   9.067   8.020 -0.7805  0.8979 -3.3332
  729MOL0     H98372   1.732   9.194   8.009 -0.8773  1.8339 -0.8250
  729MOL0     H98373   1.560   9.360   8.050 -2.9789  1.0972  2.3267
  729MOL0     H98374   1.443   9.244   8.095  3.3607  0.0082  3.2775
  729MOL0     H98375   1.236   9.267   7.974 -0.4495 -2.5099 -4.2736
  729MOL0     H98376   1.079   9.398   7.923 -0.1953 -3.5098 -1.5100
  729MOL0     H98377   0.772   9.655   7.651  0.6837 -0.8566 -0.7026
  729MOL0     H98378   0.623   9.851   7.617  0.0626 -2.8605  0.2439
  729MOL0     H98379   0.569  10.096   7.690 -0.2867 -0.6533  0.5213
  729MOL0     H98380   0.737  10.135   7.735 -1.1010 -1.0474  0.7678
  729MOL0     H98381   0.606  10.311   7.523 -2.1104  2.8311 -0.3096
  729MOL0     H98382   0.545  10.321   7.688 -0.1327 -0.5426 -0.6872
  729MOL0     H98383   0.722  10.495   7.670 -2.6355  0.0503  0.1462
  729MOL0     H98384   0.769  10.354   7.772  0.6774  2.3891  0.1351
  729MOL0     H98385   0.840  10.370   7.483 -3.2198  1.7019  1.0967
  729MOL0     H98386   0.920  10.277   7.602  0.9879  0.6050  0.8206
  729MOL0     H98387   1.012  10.465   7.723  0.4014 -1.2341  0.5278
  729MOL0     H98388   0.944  10.582   7.619  0.2360 -0.4157 -1.0704
  729MOL0     H98389   1.159  10.369   7.562  0.1433  0.5416  2.1264
  729MOL0     H98390   1.074  10.476   7.436 -0.6379  1.1493  0.7330
  729MOL0     H98391   1.307  10.539   7.560  0.3987 -2.5023  2.8529
  729MOL0     H98392   1.190  10.590   7.683  0.0061 -1.6316 -0.0786
  729MOL0     H98393   1.075  10.732   7.487 -0.8431 -2.8253 -0.5568
  729MOL0     H98394   1.221  10.801   7.563 -1.8783  1.6570 -1.4478
  729MOL0     H98395   0.973  10.088   7.495 -1.3004  0.0421 -0.5455
  729MOL0     H98396   1.115   9.880   7.526 -0.0622  1.0951  0.6937
  729MOL0     H98397   1.339   9.617   7.638  0.5765  1.1521  1.5949
  729MOL0     H98398   1.511   9.461   7.711  0.1834  3.6558  1.6213
  729MOL0     H98399   1.540   8.051   7.217 -0.6860 -1.7607 -1.2106
  729MOL0     H98400   1.449   8.063   6.973  1.0003  2.0988 -2.4193
  729MOL0     H98401   1.320   8.352   6.626 -0.5870  2.5480 -3.9381
  729MOL0     H98402   1.304   8.263   6.392 -4.1152 -3.0979 -3.7066
  729MOL0     H98403   0.936   8.037   6.281 -0.5788  1.3773  0.7237
  729MOL0     H98404   1.067   7.935   6.197 -0.6532  0.1467 -0.6552
  729MOL0     H98405   1.099   8.172   6.077 -1.3251  1.5792  3.8734
  729MOL0     H98406   0.920   8.171   6.077 -1.6563 -2.1841  0.0210
  729MOL0     H98407   0.942   7.930   5.991 -0.5821  0.9816  2.9013
  729MOL0     H98408   1.108   7.978   5.941  0.1616  2.0795  0.2800
  729MOL0     H98409   0.943   8.018   5.750  0.4551  0.9469 -0.4657
  729MOL0     H98410   0.858   8.130   5.855 -0.9395 -1.9435 -0.8048
  729MOL0     H98411   1.188   8.371   5.756  0.9251 -0.6602  1.5690
  729MOL0     H98412   0.981   8.016   6.503 -0.9553 -0.9716  3.7178
  729MOL0     H98413   0.962   7.961   6.724  1.1725  0.5328 -2.3702
  729MOL0     H98414   0.985   8.083   6.846 -1.8808  1.2668 -0.4504
  729MOL0     H98415   0.861   8.096   6.726 -1.1182  0.0122  0.2104
  730MOL0     O98416   6.246   1.358   4.655  0.0822  0.1569 -0.5108
  730MOL0     C98417   6.193   1.392   4.755 -0.2698  0.1923 -0.3125
  730MOL0     O98418   6.231   1.342   4.879 -0.6935 -0.8972  0.1758
  730MOL0     C98419   6.325   1.247   4.870 -1.1690 -0.0812 -0.3023
  730MOL0     C98420   6.319   1.112   4.836 -0.5792  0.5641 -0.6008
  730MOL0     C98421   6.438   1.025   4.837  0.2103 -0.2035  0.4254
  730MOL0     C98422   6.558   1.087   4.858  0.4490 -0.3214 -0.8157
  730MOL0     O98423   6.676   1.018   4.854 -0.6921  0.2897  0.5177
  730MOL0     C98424   6.713   0.954   4.984 -0.4410 -0.0898 -0.3959
  730MOL0     C98425   6.862   0.927   4.984 -0.3006 -0.4525  0.3066
  730MOL0     C98426   6.938   1.070   4.986 -0.5881  0.7548  0.5488
  730MOL0     C98427   7.092   1.046   5.021  0.1031  0.0856  0.6712
  730MOL0     C98428   7.189   1.160   4.972 -0.0478  0.1060  0.3324
  730MOL0     C98429   7.169   1.297   5.023  0.6381 -0.0916  0.7596
  730MOL0     C98430   7.275   1.402   4.966 -0.3599  0.4462 -0.2146
  730MOL0     C98431   7.419   1.391   5.009 -1.0843  0.2467  0.7009
  730MOL0     N98432   7.503   1.511   4.977 -0.2897 -0.1518 -0.0282
  730MOL0     C98433   7.578   1.590   5.070  0.0884 -0.6624  1.1630
  730MOL0     C98434   7.665   1.657   4.989 -0.6948  0.2922 -0.5443
  730MOL0     C98435   7.791   1.740   5.024 -0.3765 -0.5874 -0.0369
  730MOL0     C98436   7.803   1.794   5.166  0.7347  0.8596 -0.4956
  730MOL0     C98437   7.693   1.886   5.221  0.4942 -0.2865  0.3278
  730MOL0     C98438   7.738   1.975   5.335  0.1493 -0.4234 -0.7110
  730MOL0     O98439   7.813   1.906   5.437 -0.1064  0.3010  0.4778
  730MOL0     C98440   7.852   1.977   5.545  0.5402 -0.0311  0.6535
  730MOL0     C98441   7.837   2.115   5.560  0.7337  0.0628 -0.0302
  730MOL0     C98442   7.897   2.187   5.677 -0.7444 -0.0759  0.1335
  730MOL0     C98443   7.976   2.118   5.770 -0.8656  0.3146 -0.0814
  730MOL0     C98444   8.015   2.198   5.887 -0.6848 -0.4078 -0.7346
  730MOL0     O98445   8.068   2.324   5.869  0.6059 -0.1108 -0.4591
  730MOL0     C98446   8.109   2.404   5.971  0.2822  0.4824  0.0312
  730MOL0     C98447   8.212   2.369   6.046  0.5443  0.9302  0.6182
  730MOL0     C98448   8.265   2.451   6.139 -0.3521 -0.4734 -0.1749
  730MOL0     C98449   8.207   2.576   6.170  0.0029 -0.0885 -0.0004
  730MOL0     O98450   8.254   2.670   6.267  0.5091  0.3279 -0.4413
  730MOL0     C98451   8.386   2.643   6.316 -0.1326 -0.0442  1.7473
  730MOL0     C98452   8.487   2.670   6.199  0.8666  0.7780  0.0519
  730MOL0     C98453   8.499   2.816   6.162  0.0090 -0.3975 -0.0516
  730MOL0     C98454   8.563   2.827   6.016 -1.1507  0.1882 -0.2497
  730MOL0     C98455   8.578   2.963   5.966 -0.6039 -0.5127 -0.1043
  730MOL0     C98456   8.447   3.051   5.969  0.1715 -0.7344  0.6461
  730MOL0     C98457   8.331   2.987   5.889  0.0072 -0.3272  0.8772
  730MOL0     C98458   8.194   3.069   5.895 -0.4995  0.8589  0.2355
  730MOL0    Cl98459   8.188   3.184   5.754 -0.1599 -0.5109  0.0982
  730MOL0     C98460   8.096   2.618   6.086  0.5489  0.7527 -0.4252
  730MOL0     C98461   8.057   2.531   5.984 -0.4685 -0.6776  0.6630
  730MOL0     O98462   7.992   2.143   5.993 -0.4141  0.0767 -1.0151
  730MOL0     C98463   7.976   1.977   5.761 -0.4307  0.2689 -0.4646
  730MOL0     C98464   7.919   1.913   5.649 -0.0054  0.3539  0.1278
  730MOL0     N98465   7.642   1.621   4.860 -0.1613  0.2931 -0.7587
  730MOL0     N98466   7.547   1.537   4.854  0.3498  0.1454 -1.1301
  730MOL0     C98467   6.571   1.223   4.888  0.4092 -0.1581 -1.3166
  730MOL0     C98468   6.455   1.301   4.891  0.1932  0.0845 -0.4759
  730MOL0     C98469   6.080   1.473   4.752 -0.1495 -0.5113  1.1031
  730MOL0     C98470   6.014   1.513   4.870 -0.1603 -0.0414  0.1125
  730MOL0     C98471   5.904   1.609   4.879 -0.3441 -0.6794 -1.1471
  730MOL0     C98472   5.850   1.659   4.763 -0.1210  0.7407  1.2855
  730MOL0     O98473   5.741   1.734   4.764 -0.2528  0.8185  0.5912
  730MOL0     C98474   5.708   1.814   4.876 -1.0097 -0.0482  0.2525
  730MOL0     C98475   5.601   1.921   4.841 -0.2452  0.7440 -0.4196
  730MOL0     C98476   5.674   2.034   4.759 -0.9807  0.4345 -0.0504
  730MOL0     C98477   5.580   2.151   4.709  0.1794  0.6551  0.0356
  730MOL0     C98478   5.492   2.193   4.819 -0.3489 -0.8576 -0.1373
  730MOL0     C98479   5.420   2.241   4.908 -0.2631 -0.3771 -0.4999
  730MOL0     C98480   5.921   1.619   4.644  0.5049 -1.1208 -0.9684
  730MOL0     C98481   6.026   1.531   4.629 -0.4936 -0.0343 -0.9192
  730MOL0     C98482   6.085   1.522   4.488 -0.1080  0.0630  0.0934
  730MOL0     H98483   6.220   1.069   4.823 -1.3154  1.7127  0.8451
  730MOL0     H98484   6.446   0.929   4.786  0.6924  1.4930 -3.0355
  730MOL0     H98485   6.684   1.017   5.068 -1.3748 -0.5526 -0.3612
  730MOL0     H98486   6.661   0.863   5.017  0.3749 -0.1954  0.6724
  730MOL0     H98487   6.878   0.873   4.890  3.7419 -0.3852  0.7557
  730MOL0     H98488   6.891   0.864   5.068  0.5557  1.1274  1.2458
  730MOL0     H98489   6.911   1.128   5.074  2.1163  2.4248  0.3804
  730MOL0     H98490   6.925   1.132   4.897  0.1457 -1.9159 -1.5653
  730MOL0     H98491   7.105   1.032   5.129 -0.2533 -1.2404  0.5590
  730MOL0     H98492   7.117   0.949   4.977  2.3334  1.1372 -0.5706
  730MOL0     H98493   7.294   1.132   4.982  0.5573 -0.6388 -5.1057
  730MOL0     H98494   7.181   1.160   4.863 -2.4498 -1.3056  0.4302
  730MOL0     H98495   7.074   1.338   4.987  1.6916  0.8336 -1.0493
  730MOL0     H98496   7.165   1.294   5.133 -0.4108 -2.3102  0.7313
  730MOL0     H98497   7.246   1.501   5.003  0.5486  0.2323  1.1229
  730MOL0     H98498   7.269   1.406   4.857  2.2030 -0.0054 -0.4381
  730MOL0     H98499   7.427   1.361   5.114  2.4375  2.7919  1.3461
  730MOL0     H98500   7.467   1.308   4.956  1.5294  2.4956 -0.6703
  730MOL0     H98501   7.570   1.592   5.178 -0.9574  1.9812  1.1051
  730MOL0     H98502   7.885   1.686   5.011  1.0728  2.2008 -2.0950
  730MOL0     H98503   7.789   1.822   4.952  2.8128 -1.8061 -1.7043
  730MOL0     H98504   7.790   1.707   5.230  0.4185  1.3594  0.1376
  730MOL0     H98505   7.901   1.843   5.176  2.8872 -3.3074  1.0026
  730MOL0     H98506   7.618   1.816   5.256  0.4722  0.4524  1.8073
  730MOL0     H98507   7.654   1.946   5.138  2.9580 -0.3066 -0.9517
  730MOL0     H98508   7.649   2.027   5.373 -2.9639 -2.6744 -4.1506
  730MOL0     H98509   7.798   2.051   5.284  1.8105 -0.9947  0.3312
  730MOL0     H98510   7.772   2.173   5.496 -1.2595 -1.7833  0.1880
  730MOL0     H98511   7.867   2.287   5.708 -0.8845 -0.8149  2.6086
  730MOL0     H98512   8.262   2.275   6.022 -0.1655  0.6503  0.1909
  730MOL0     H98513   8.347   2.415   6.200 -1.4003  1.6818  2.7483
  730MOL0     H98514   8.416   2.708   6.398  0.4957 -2.4324  3.5321
  730MOL0     H98515   8.402   2.539   6.348  2.2104 -0.0874  0.7061
  730MOL0     H98516   8.587   2.637   6.229  0.6103  1.3074  1.5790
  730MOL0     H98517   8.464   2.620   6.105  5.4796 -1.3181 -0.2525
  730MOL0     H98518   8.399   2.859   6.172  0.5297  0.9176 -0.2877
  730MOL0     H98519   8.570   2.866   6.227  2.5210 -0.9287 -2.2205
  730MOL0     H98520   8.513   2.768   5.939 -0.0942  2.7141 -3.0365
  730MOL0     H98521   8.660   2.777   6.032  0.0617  2.7273  0.9265
  730MOL0     H98522   8.611   2.961   5.862 -3.0365  1.2426 -0.9998
  730MOL0     H98523   8.655   3.006   6.032 -0.0947  1.1520 -1.7123
  730MOL0     H98524   8.401   3.058   6.068 -2.6182 -0.7877 -0.5488
  730MOL0     H98525   8.457   3.154   5.936 -0.7128 -0.8301  0.0467
  730MOL0     H98526   8.301   2.885   5.912 -2.9023 -0.2106 -1.6977
  730MOL0     H98527   8.377   2.989   5.790 -0.1720  0.3212  0.8017
  730MOL0     H98528   8.106   3.009   5.871 -0.3456  1.1485 -1.1419
  730MOL0     H98529   8.179   3.119   5.992  1.1662  2.0578 -0.0779
  730MOL0     H98530   8.032   2.702   6.109 -2.3099 -1.5882  0.8212
  730MOL0     H98531   7.977   2.577   5.928  2.0384  2.0550 -0.9365
  730MOL0     H98532   8.022   1.919   5.840 -1.3356  2.4302  1.7927
  730MOL0     H98533   7.937   1.806   5.641  1.2885  0.5983 -0.5994
  730MOL0     H98534   6.664   1.272   4.915  1.6764 -3.8459  1.9023
  730MOL0     H98535   6.471   1.404   4.920  0.8864 -0.2834  0.5004
  730MOL0     H98536   6.058   1.495   4.967 -0.6931  3.8049  1.1964
  730MOL0     H98537   5.886   1.644   4.980  1.2426 -0.0534 -1.0520
  730MOL0     H98538   5.792   1.867   4.921  0.2335 -1.3429 -0.4459
  730MOL0     H98539   5.667   1.741   4.946  0.2454 -1.5051 -0.4556
  730MOL0     H98540   5.549   1.953   4.932 -0.9059  0.8823 -0.8357
  730MOL0     H98541   5.530   1.871   4.775 -0.3325 -2.7495  2.0489
  730MOL0     H98542   5.740   1.987   4.686 -2.0591 -1.6483  0.2395
  730MOL0     H98543   5.742   2.084   4.828 -1.5770  1.5506 -0.2422
  730MOL0     H98544   5.638   2.229   4.659 -1.2529  0.0271 -2.8111
  730MOL0     H98545   5.519   2.118   4.624  0.5281  1.2330 -0.4494
  730MOL0     H98546   5.352   2.268   4.986 -2.8226 -3.2823 -1.5342
  730MOL0     H98547   5.881   1.674   4.559 -1.0973 -1.9052 -0.7588
  730MOL0     H98548   6.049   1.427   4.446  2.6032 -0.6972 -0.7101
  730MOL0     H98549   6.051   1.594   4.413  1.9026 -0.3194 -1.2491
  730MOL0     H98550   6.194   1.519   4.488 -0.1206 -0.4447 -0.4084
  731MOL0     O98551   6.596   4.328   6.688 -0.1554  0.8996  0.6196
  731MOL0     C98552   6.530   4.425   6.674  1.2266  0.0490  0.5178
  731MOL0     O98553   6.542   4.509   6.570  0.4679  0.0744  0.4972
  731MOL0     C98554   6.635   4.481   6.479 -0.0008 -0.1368  0.5563
  731MOL0     C98555   6.744   4.566   6.459  0.6679 -0.7227  0.3027
  731MOL0     C98556   6.836   4.558   6.350  0.3364  0.1259 -0.0714
  731MOL0     C98557   6.810   4.464   6.249  0.6498  0.3113  0.3622
  731MOL0     O98558   6.878   4.449   6.132 -0.6295  0.5243 -0.6628
  731MOL0     C98559   6.966   4.551   6.092  0.6703 -0.1076 -0.0025
  731MOL0     C98560   7.060   4.518   5.970  0.4132  1.4019  0.4503
  731MOL0     C98561   7.169   4.401   5.992  0.6597 -0.3863 -0.0746
  731MOL0     C98562   7.141   4.307   5.873 -0.2530 -0.4204 -0.0586
  731MOL0     C98563   7.212   4.357   5.743  0.3235 -0.9089 -0.1000
  731MOL0     C98564   7.261   4.253   5.638 -0.7220 -0.6814 -0.7916
  731MOL0     C98565   7.153   4.168   5.578 -0.6143  0.7167  0.0145
  731MOL0     C98566   7.217   4.036   5.537  0.1222  0.0444 -0.2958
  731MOL0     N98567   7.272   3.960   5.653  0.7559  0.2852 -0.2404
  731MOL0     C98568   7.201   3.915   5.760  0.2423 -0.2470 -0.2001
  731MOL0     C98569   7.282   3.883   5.860 -0.0692  0.4202 -0.5447
  731MOL0     C98570   7.232   3.824   5.997  0.4752 -0.1806 -0.0555
  731MOL0     C98571   7.273   3.927   6.099 -0.1898  0.2043 -0.2373
  731MOL0     C98572   7.305   3.853   6.239  0.3289 -0.4949  1.1109
  731MOL0     C98573   7.187   3.800   6.309  0.8574 -0.4642 -0.4121
  731MOL0     O98574   7.130   3.680   6.268  0.3112 -0.1575 -0.2565
  731MOL0     C98575   7.082   3.588   6.361  0.7567 -0.2450 -0.1475
  731MOL0     C98576   7.055   3.460   6.300  0.2517 -0.1707  0.2713
  731MOL0     C98577   7.012   3.364   6.386 -0.9215  0.1486 -0.1157
  731MOL0     C98578   6.986   3.386   6.524  0.3293 -1.1052  1.1129
  731MOL0     C98579   6.932   3.267   6.605 -0.5266  0.0401 -0.1442
  731MOL0     O98580   6.887   3.152   6.539 -0.1007 -0.5664  0.7704
  731MOL0     C98581   6.858   3.047   6.628 -0.1118  0.1647 -0.6929
  731MOL0     C98582   6.724   2.987   6.633  0.1855  0.3949 -0.4653
  731MOL0     C98583   6.714   2.866   6.713 -0.6144 -0.0025  0.4007
  731MOL0     C98584   6.827   2.820   6.787  0.0022 -0.0551  0.1042
  731MOL0     O98585   6.802   2.726   6.877 -0.2825  0.0880  0.1872
  731MOL0     C98586   6.898   2.627   6.902 -1.3771  0.0717  0.4988
  731MOL0     C98587   6.842   2.534   6.996  0.1488  0.1745 -0.2808
  731MOL0     C98588   6.753   2.422   6.946 -0.4828  0.1623 -0.5415
  731MOL0     C98589   6.613   2.470   6.925  0.1942  0.1347 -0.0198
  731MOL0     C98590   6.522   2.357   6.887 -0.3424  1.1089  0.7087
  731MOL0     C98591   6.387   2.389   6.836 -0.6607  0.6646  0.2278
  731MOL0     C98592   6.296   2.265   6.831  0.0348 -0.3457  0.7353
  731MOL0     C98593   6.155   2.300   6.786  0.3195 -0.9098  0.6616
  731MOL0    Cl98594   6.049   2.191   6.868 -0.7384 -0.2298 -0.1160
  731MOL0     C98595   6.937   2.891   6.789 -0.5328  0.8547 -0.5344
  731MOL0     C98596   6.962   3.000   6.711 -0.1214 -0.7239  1.0894
  731MOL0     O98597   6.946   3.282   6.723  0.0574  0.6667 -0.7567
  731MOL0     C98598   7.004   3.515   6.585  0.5434 -0.0143  0.8085
  731MOL0     C98599   7.058   3.608   6.499 -0.6350 -0.2893 -0.3198
  731MOL0     N98600   7.408   3.898   5.809 -1.0330  0.3145 -1.2506
  731MOL0     N98601   7.398   3.959   5.691  0.3170 -0.1965  0.5617
  731MOL0     C98602   6.704   4.367   6.269  0.4408  0.5764 -0.4102
  731MOL0     C98603   6.614   4.384   6.374 -0.0842 -0.7667  0.0526
  731MOL0     C98604   6.428   4.445   6.780  0.1008  0.3213 -0.1043
  731MOL0     C98605   6.403   4.345   6.874  0.4255 -0.0533  0.5432
  731MOL0     C98606   6.304   4.355   6.975 -0.1756  0.3100  0.4369
  731MOL0     C98607   6.222   4.471   6.980  0.7947  0.8050  0.2397
  731MOL0     O98608   6.131   4.472   7.082 -0.0624 -0.8638  0.2692
  731MOL0     C98609   6.151   4.572   7.183 -0.2313 -0.0994  0.5408
  731MOL0     C98610   6.299   4.578   7.232 -0.1913  0.5730  0.4321
  731MOL0     C98611   6.315   4.694   7.341 -0.1231 -0.2552 -0.0004
  731MOL0     C98612   6.462   4.734   7.362  0.5518 -0.1085 -0.1731
  731MOL0     C98613   6.474   4.856   7.450  0.1362  0.2507 -0.4455
  731MOL0     C98614   6.502   4.941   7.526  0.2437  0.8097  0.0852
  731MOL0     C98615   6.255   4.576   6.897  0.1753 -0.3667 -1.5728
  731MOL0     C98616   6.354   4.569   6.795  0.1337 -1.0841  0.3352
  731MOL0     C98617   6.383   4.684   6.717 -0.3504  0.0358  0.2946
  731MOL0     H98618   6.764   4.642   6.534 -1.2054  0.7161 -0.5663
  731MOL0     H98619   6.912   4.636   6.348 -2.9560  3.6674 -0.3787
  731MOL0     H98620   6.901   4.637   6.073 -1.7933 -2.0242 -0.8667
  731MOL0     H98621   7.032   4.561   6.178  2.3733  1.6479 -1.4117
  731MOL0     H98622   7.113   4.609   5.941  3.2081 -0.7966 -2.0596
  731MOL0     H98623   6.995   4.495   5.886  1.7629  2.4784 -0.9322
  731MOL0     H98624   7.153   4.356   6.090  1.5241  0.9003  0.6881
  731MOL0     H98625   7.268   4.448   5.985  0.1875  0.7379  0.5126
  731MOL0     H98626   7.190   4.211   5.888  1.0758 -0.0160 -1.5385
  731MOL0     H98627   7.035   4.287   5.857 -0.4195 -0.3294  0.8769
  731MOL0     H98628   7.160   4.441   5.696 -0.4941 -1.5447 -0.3628
  731MOL0     H98629   7.305   4.405   5.773 -1.4498  1.9351  1.2975
  731MOL0     H98630   7.330   4.294   5.564  1.0196  0.5285  1.3943
  731MOL0     H98631   7.324   4.194   5.706 -1.7010  0.7265  1.4436
  731MOL0     H98632   7.110   4.216   5.490 -0.9140  1.0806  0.3607
  731MOL0     H98633   7.071   4.143   5.646 -1.9661 -1.3538 -2.2427
  731MOL0     H98634   7.140   3.974   5.490 -1.5364  0.0898  2.1740
  731MOL0     H98635   7.295   4.063   5.465  0.9669 -0.0070  0.5993
  731MOL0     H98636   7.093   3.916   5.775  0.1838  1.4567 -0.5606
  731MOL0     H98637   7.126   3.799   6.004  0.1920  0.5537 -1.4322
  731MOL0     H98638   7.287   3.730   6.003  0.2214 -0.3128  0.2165
  731MOL0     H98639   7.373   3.959   6.066 -1.0208 -0.3638 -3.7568
  731MOL0     H98640   7.215   4.020   6.093  1.8364  1.4886 -4.4324
  731MOL0     H98641   7.356   3.930   6.299 -1.7200  2.4478 -0.6218
  731MOL0     H98642   7.376   3.775   6.211  0.8978  0.9627 -1.8914
  731MOL0     H98643   7.111   3.876   6.289  1.2429 -0.7316 -3.3157
  731MOL0     H98644   7.217   3.803   6.414 -1.3033  1.0018  0.2414
  731MOL0     H98645   7.077   3.440   6.196  2.0638 -1.8218  0.9039
  731MOL0     H98646   7.016   3.263   6.347  2.1880 -1.2346  3.1993
  731MOL0     H98647   6.638   3.020   6.576  2.3109  0.5293 -3.9420
  731MOL0     H98648   6.615   2.823   6.715 -0.6307  0.0217  0.1570
  731MOL0     H98649   6.918   2.578   6.806 -1.8608  2.3701 -0.8675
  731MOL0     H98650   6.990   2.668   6.945 -0.4330 -0.7079 -0.7079
  731MOL0     H98651   6.926   2.481   7.042 -0.6358  1.0562  2.3612
  731MOL0     H98652   6.788   2.593   7.071 -0.4846  2.4766 -2.3984
  731MOL0     H98653   6.808   2.384   6.859  0.4741 -0.7542  0.4384
  731MOL0     H98654   6.761   2.336   7.013 -0.6609 -1.6308 -2.6977
  731MOL0     H98655   6.604   2.542   6.843  3.1445 -2.7498 -3.2248
  731MOL0     H98656   6.581   2.529   7.011  1.0819  1.9109 -0.8393
  731MOL0     H98657   6.520   2.283   6.967  3.0005 -3.1422 -2.6405
  731MOL0     H98658   6.572   2.313   6.800  0.9954 -3.0978  3.3261
  731MOL0     H98659   6.346   2.461   6.907 -1.7351 -1.0070  1.3887
  731MOL0     H98660   6.386   2.442   6.740  1.0528  3.8039  1.7899
  731MOL0     H98661   6.297   2.218   6.929 -3.6903  2.9615  2.6549
  731MOL0     H98662   6.327   2.191   6.756 -1.7767 -0.8165  0.3896
  731MOL0     H98663   6.129   2.402   6.813  1.4280 -0.9841  2.1806
  731MOL0     H98664   6.150   2.291   6.677 -0.8674 -2.6502  0.8168
  731MOL0     H98665   7.022   2.866   6.853 -0.7569  1.9724  0.2461
  731MOL0     H98666   7.060   3.046   6.711 -1.5907  2.6585  0.7026
  731MOL0     H98667   6.994   3.521   6.693  2.1108 -0.3776  0.9963
  731MOL0     H98668   7.077   3.702   6.550 -0.6909  0.3490 -1.4294
  731MOL0     H98669   6.683   4.291   6.194  0.3817 -2.2086  2.2236
  731MOL0     H98670   6.519   4.335   6.391 -1.9282  2.7205  0.9646
  731MOL0     H98671   6.447   4.247   6.860 -0.5135 -0.6396  1.5506
  731MOL0     H98672   6.281   4.270   7.037  2.4524  0.4709  1.7696
  731MOL0     H98673   6.094   4.551   7.274  1.3413 -1.0739  1.3399
  731MOL0     H98674   6.116   4.661   7.129 -0.3532 -2.6082 -3.9666
  731MOL0     H98675   6.370   4.604   7.153  1.7964 -4.8646  0.0074
  731MOL0     H98676   6.334   4.486   7.280  2.5469  0.5912 -1.2896
  731MOL0     H98677   6.268   4.664   7.435 -0.3198 -1.9145 -0.5909
  731MOL0     H98678   6.253   4.778   7.309 -1.5402 -1.4907 -0.6347
  731MOL0     H98679   6.512   4.645   7.402 -2.9070 -2.9441 -1.6246
  731MOL0     H98680   6.516   4.761   7.271  1.5853  1.4956  0.8568
  731MOL0     H98681   6.535   5.016   7.596  3.4639  1.1520 -1.5786
  731MOL0     H98682   6.198   4.667   6.909  0.9966 -0.0747  0.6135
  731MOL0     H98683   6.490   4.703   6.706 -0.4677  0.3337 -0.3966
  731MOL0     H98684   6.341   4.666   6.617  0.4901  2.2343 -0.5063
  731MOL0     H98685   6.351   4.773   6.771 -0.1041 -0.4739  1.3096
  732MOL0     O98686   7.991   5.838   0.682 -0.0452  0.2950  0.7975
  732MOL0     C98687   7.949   5.922   0.757 -0.6876 -0.7258  0.3155
  732MOL0     O98688   7.869   5.903   0.869  0.1106 -0.9262  0.0554
  732MOL0     C98689   7.846   5.784   0.933  0.4301 -0.7211  0.0078
  732MOL0     C98690   7.934   5.680   0.943 -0.4380 -0.5768  0.5054
  732MOL0     C98691   7.895   5.554   1.005  0.5523  0.4258 -0.4646
  732MOL0     C98692   7.772   5.534   1.069  0.0206 -0.8363  0.6897
  732MOL0     O98693   7.732   5.411   1.124  0.0344 -0.2805  0.5273
  732MOL0     C98694   7.590   5.380   1.106 -0.4603 -0.4679 -0.5328
  732MOL0     C98695   7.530   5.395   0.963 -0.4311  0.5118 -0.5167
  732MOL0     C98696   7.393   5.320   0.973 -0.7600 -0.4543 -0.0472
  732MOL0     C98697   7.316   5.323   0.847 -0.2725 -0.9577  1.4169
  732MOL0     C98698   7.246   5.461   0.809  0.2562  0.1033  0.6492
  732MOL0     C98699   7.122   5.497   0.895 -0.2738 -0.1172  0.1419
  732MOL0     C98700   7.001   5.406   0.902 -0.3579  0.6204  1.1838
  732MOL0     C98701   6.928   5.403   0.770  0.8961 -0.2429  1.2364
  732MOL0     N98702   6.821   5.307   0.758  0.3479  0.1872 -0.0854
  732MOL0     C98703   6.827   5.174   0.794 -0.9485 -0.3128  0.7838
  732MOL0     C98704   6.714   5.112   0.757 -1.0946  0.4316 -0.3075
  732MOL0     C98705   6.692   4.964   0.783  0.2755  0.5422  0.2559
  732MOL0     C98706   6.629   4.940   0.923 -0.5983  1.0922  0.8697
  732MOL0     C98707   6.612   4.790   0.951 -0.8378 -0.1492  0.7834
  732MOL0     C98708   6.487   4.772   1.024  1.0682  1.0937 -0.7281
  732MOL0     O98709   6.469   4.858   1.139  0.2753  0.1458 -0.5561
  732MOL0     C98710   6.442   4.792   1.262  0.1419 -0.3087  0.9444
  732MOL0     C98711   6.540   4.739   1.342  0.3599 -0.8843  1.0100
  732MOL0     C98712   6.501   4.680   1.465 -0.2681 -0.4816  0.8759
  732MOL0     C98713   6.370   4.639   1.485 -0.2799  0.3352  0.0562
  732MOL0     C98714   6.345   4.558   1.610 -0.2371 -0.4319  0.6589
  732MOL0     O98715   6.251   4.465   1.611  0.1059 -0.3453  1.1511
  732MOL0     C98716   6.225   4.387   1.724  0.3429 -0.1977  0.6001
  732MOL0     C98717   6.227   4.244   1.701 -0.6626 -0.5932 -0.2800
  732MOL0     C98718   6.203   4.159   1.808  0.0835  0.3750  0.0098
  732MOL0     C98719   6.185   4.212   1.942 -0.1174 -0.2142 -0.1583
  732MOL0     O98720   6.154   4.126   2.045  0.2505  0.5192 -0.2327
  732MOL0     C98721   6.202   4.154   2.182 -0.5685 -0.8719  0.4172
  732MOL0     C98722   6.148   4.036   2.270 -0.3575  0.6829 -0.4687
  732MOL0     C98723   6.212   3.894   2.238  0.9619  0.2505  0.1242
  732MOL0     C98724   6.198   3.799   2.350 -0.2011 -0.8832  0.5302
  732MOL0     C98725   6.052   3.761   2.361 -0.3815 -0.4723 -0.0038
  732MOL0     C98726   6.014   3.660   2.467  0.5623  0.8127  0.1180
  732MOL0     C98727   6.008   3.512   2.419 -0.2123  0.6577  1.3662
  732MOL0     C98728   6.097   3.420   2.506 -0.2832  0.2912 -0.0555
  732MOL0    Cl98729   6.075   3.250   2.452 -0.1485  0.2911 -0.2639
  732MOL0     C98730   6.184   4.356   1.952  0.0898  1.0577 -0.1233
  732MOL0     C98731   6.195   4.440   1.842 -0.6247 -0.6655  0.7661
  732MOL0     O98732   6.413   4.589   1.708 -0.9622 -0.7697  0.2305
  732MOL0     C98733   6.273   4.682   1.389 -1.0657 -0.5866 -0.5460
  732MOL0     C98734   6.311   4.767   1.289  0.9163 -0.2880 -0.7042
  732MOL0     N98735   6.636   5.216   0.713  0.3635 -0.6568  0.5891
  732MOL0     N98736   6.701   5.327   0.703 -0.3378  1.0043  0.0956
  732MOL0     C98737   7.690   5.644   1.069 -0.6280  0.2210  0.1281
  732MOL0     C98738   7.728   5.766   1.004  0.8074  0.8559 -0.1902
  732MOL0     C98739   7.956   6.065   0.708  0.3515 -0.0098  0.1092
  732MOL0     C98740   8.055   6.100   0.623  0.0328 -0.9906 -0.2979
  732MOL0     C98741   8.082   6.233   0.593  0.2108  0.3696  0.3538
  732MOL0     C98742   7.980   6.330   0.617  0.8046 -0.3802 -0.7116
  732MOL0     O98743   7.982   6.457   0.572  0.2608 -0.5381  0.2070
  732MOL0     C98744   8.098   6.494   0.497  1.4457 -1.0249  0.5101
  732MOL0     C98745   8.101   6.647   0.481  0.2026 -0.1167 -0.0585
  732MOL0     C98746   8.209   6.708   0.393  0.3349  0.0744  0.9406
  732MOL0     C98747   8.184   6.856   0.378  0.1796 -0.3550 -0.5615
  732MOL0     C98748   8.286   6.925   0.291  0.8373 -0.1881 -0.2641
  732MOL0     C98749   8.362   6.990   0.222  0.4349 -0.0420 -0.1136
  732MOL0     C98750   7.870   6.297   0.687  0.6955 -0.2745 -0.8544
  732MOL0     C98751   7.858   6.167   0.741 -1.3335 -0.0759 -0.7228
  732MOL0     C98752   7.739   6.150   0.826  0.1195  0.1844 -0.3568
  732MOL0     H98753   8.029   5.695   0.892 -0.2167 -0.8306  0.8340
  732MOL0     H98754   7.964   5.470   1.002 -0.1274 -0.1857  0.5027
  732MOL0     H98755   7.579   5.275   1.135 -0.6535 -0.2240  0.3076
  732MOL0     H98756   7.536   5.437   1.182 -0.0797 -2.9193  1.7439
  732MOL0     H98757   7.594   5.359   0.883 -0.0300  1.4701 -0.6484
  732MOL0     H98758   7.511   5.502   0.951  0.1200  1.2320  3.5817
  732MOL0     H98759   7.328   5.360   1.052 -1.1379 -2.8854  0.9711
  732MOL0     H98760   7.407   5.216   1.001 -3.6985 -1.0857 -0.5801
  732MOL0     H98761   7.366   5.275   0.762 -3.1367 -2.6786  0.5429
  732MOL0     H98762   7.226   5.262   0.862 -1.0756 -0.4048 -0.7090
  732MOL0     H98763   7.326   5.535   0.813  2.2970 -1.7798 -1.7499
  732MOL0     H98764   7.221   5.444   0.704  1.1424  0.2389  0.4069
  732MOL0     H98765   7.145   5.511   1.001 -3.0770 -1.5639  1.0341
  732MOL0     H98766   7.104   5.597   0.854 -1.4461 -1.6655 -3.4351
  732MOL0     H98767   6.935   5.444   0.981 -1.2017  1.2733  0.1922
  732MOL0     H98768   7.037   5.306   0.928  0.1609  1.2345  2.9475
  732MOL0     H98769   6.904   5.510   0.759 -0.0735 -0.7043 -3.4371
  732MOL0     H98770   7.010   5.387   0.698 -0.8258  0.7797 -1.0921
  732MOL0     H98771   6.909   5.133   0.852 -0.4163  1.0475  1.0183
  732MOL0     H98772   6.617   4.928   0.712 -0.1295  0.6439  0.6295
  732MOL0     H98773   6.785   4.907   0.770 -0.1053  0.3670 -1.9692
  732MOL0     H98774   6.707   4.963   0.996  1.7711 -1.1682 -0.7545
  732MOL0     H98775   6.549   5.013   0.932 -0.9296  1.0216 -1.0609
  732MOL0     H98776   6.707   4.756   0.993  0.9012  1.5005 -1.5553
  732MOL0     H98777   6.600   4.733   0.858 -4.5890 -0.4141  1.2803
  732MOL0     H98778   6.470   4.667   1.051 -1.7562  0.9911 -2.5432
  732MOL0     H98779   6.399   4.787   0.961  1.3283  0.1008 -1.3525
  732MOL0     H98780   6.643   4.747   1.308 -0.0555  2.4746  0.2094
  732MOL0     H98781   6.585   4.653   1.528 -1.6889  2.7066  4.5163
  732MOL0     H98782   6.258   4.196   1.609 -2.8036 -1.3658 -0.6694
  732MOL0     H98783   6.194   4.052   1.791 -2.6577  0.6144 -0.4469
  732MOL0     H98784   6.311   4.154   2.182 -0.4587  0.5511 -2.6770
  732MOL0     H98785   6.158   4.245   2.223  1.4027 -0.4403  1.6851
  732MOL0     H98786   6.142   4.068   2.375 -3.2809 -1.5803  0.2105
  732MOL0     H98787   6.042   4.023   2.245 -1.2790  0.4843  2.9179
  732MOL0     H98788   6.166   3.864   2.144  2.1622  0.2930 -0.4935
  732MOL0     H98789   6.319   3.906   2.215  0.8521 -0.7497 -0.9753
  732MOL0     H98790   6.240   3.839   2.442  2.0501  2.4652 -1.7301
  732MOL0     H98791   6.248   3.706   2.320  1.1781 -0.3106  0.9502
  732MOL0     H98792   6.025   3.712   2.267  0.1815  1.2882 -1.1299
  732MOL0     H98793   5.992   3.850   2.385  1.3785  0.8900 -0.4514
  732MOL0     H98794   6.069   3.675   2.561  3.3723 -0.5332 -1.1811
  732MOL0     H98795   5.907   3.678   2.479  0.2541  1.1311 -2.5832
  732MOL0     H98796   6.060   3.515   2.322  1.3736  2.2246  2.2042
  732MOL0     H98797   5.906   3.479   2.399  0.8538 -2.3860  0.3240
  732MOL0     H98798   6.205   3.439   2.496  0.3245 -2.8409 -0.4901
  732MOL0     H98799   6.073   3.418   2.612  1.7419 -0.9492  0.4434
  732MOL0     H98800   6.167   4.402   2.049 -2.0930 -0.1134  0.1167
  732MOL0     H98801   6.178   4.547   1.847 -2.5961 -0.9479  0.9004
  732MOL0     H98802   6.170   4.650   1.406 -0.5844 -1.4535  0.9089
  732MOL0     H98803   6.240   4.811   1.219 -0.7892 -0.7302  0.6717
  732MOL0     H98804   7.596   5.647   1.124 -0.9669  0.4698 -0.4535
  732MOL0     H98805   7.654   5.845   0.996  3.8649  4.0527  0.4639
  732MOL0     H98806   8.121   6.025   0.581  2.5060 -0.3229  2.0846
  732MOL0     H98807   8.180   6.251   0.550  1.9406 -0.7721  3.4898
  732MOL0     H98808   8.103   6.452   0.396  1.7759  0.5179 -0.1439
  732MOL0     H98809   8.192   6.474   0.549  2.0167  0.0959 -0.0446
  732MOL0     H98810   8.095   6.698   0.578 -3.3798  1.0679 -0.7589
  732MOL0     H98811   8.005   6.682   0.441  1.0489  0.0858 -2.0265
  732MOL0     H98812   8.196   6.669   0.292 -1.7141  2.6096  0.1172
  732MOL0     H98813   8.309   6.682   0.430  1.2861  1.0837 -0.8016
  732MOL0     H98814   8.086   6.876   0.333  0.1938 -0.5263 -0.6715
  732MOL0     H98815   8.186   6.897   0.479  4.8715 -4.2205  1.3306
  732MOL0     H98816   8.432   7.028   0.151 -1.9304  1.2441 -1.8941
  732MOL0     H98817   7.794   6.372   0.707  1.3374 -0.2592  2.0129
  732MOL0     H98818   7.681   6.241   0.843  0.0025 -0.1859  1.4517
  732MOL0     H98819   7.667   6.079   0.784 -3.3534  1.6296  2.6562
  732MOL0     H98820   7.773   6.120   0.926 -0.4759 -0.1180 -0.2393
  733MOL0     O98821   7.598  10.506   6.986  0.8062 -0.2811  0.7323
  733MOL0     C98822   7.709  10.535   6.949 -1.0557  0.9871  0.2770
  733MOL0     O98823   7.819  10.483   7.009  0.0072 -0.1980 -0.3216
  733MOL0     C98824   7.805  10.382   7.106 -0.0908  0.9078  0.5390
  733MOL0     C98825   7.744  10.256   7.079  0.6452  0.1997 -0.1529
  733MOL0     C98826   7.741  10.162   7.175  0.4170  0.9449  0.2409
  733MOL0     C98827   7.777  10.186   7.310 -0.9426 -1.4008  0.6014
  733MOL0     O98828   7.783  10.094   7.408 -0.6316 -0.2741 -1.1776
  733MOL0     C98829   7.679  10.000   7.400  0.4981  0.3176  0.3524
  733MOL0     C98830   7.686   9.888   7.501 -0.4445  0.3667  0.8309
  733MOL0     C98831   7.697   9.948   7.640 -1.0319  0.1771  0.3109
  733MOL0     C98832   7.660   9.846   7.747 -0.1257 -0.1586 -0.8644
  733MOL0     C98833   7.524   9.869   7.813 -0.6403  0.2226  0.2789
  733MOL0     C98834   7.409   9.848   7.721  0.0434 -0.8745 -0.3082
  733MOL0     C98835   7.387   9.701   7.672  0.5682 -0.1032  0.7277
  733MOL0     C98836   7.370   9.616   7.796  0.4791 -0.4029  0.0948
  733MOL0     N98837   7.281   9.498   7.779 -1.2556 -0.2089 -1.0202
  733MOL0     C98838   7.147   9.492   7.805 -0.7199 -0.1164  0.2958
  733MOL0     C98839   7.116   9.361   7.783 -0.6944 -0.6718  0.1500
  733MOL0     C98840   6.982   9.290   7.802 -0.3529 -0.5599 -0.6696
  733MOL0     C98841   6.855   9.346   7.720 -0.5963 -0.7323 -0.7721
  733MOL0     C98842   6.857   9.323   7.566 -0.1269  0.5613  0.3024
  733MOL0     C98843   6.979   9.380   7.496 -0.0467  1.0349 -0.3916
  733MOL0     O98844   6.970   9.350   7.358  0.4164  0.0308  0.0936
  733MOL0     C98845   7.022   9.449   7.275  0.4124 -0.5458 -0.1577
  733MOL0     C98846   7.144   9.510   7.295 -0.0189  0.5038 -0.8831
  733MOL0     C98847   7.170   9.627   7.231 -0.7126 -0.8666  1.0960
  733MOL0     C98848   7.093   9.670   7.124 -0.2822 -0.5897 -0.5492
  733MOL0     C98849   7.130   9.788   7.036 -0.6432  0.0686 -0.9110
  733MOL0     O98850   7.227   9.872   7.089  0.9146 -0.0336  0.4990
  733MOL0     C98851   7.286   9.965   7.005  0.2919  0.6171 -0.1239
  733MOL0     C98852   7.336   9.934   6.884 -0.5093  0.3439 -0.0265
  733MOL0     C98853   7.401  10.034   6.815 -0.6259 -0.2313 -0.8528
  733MOL0     C98854   7.435  10.163   6.865 -1.1658 -0.3264  0.6982
  733MOL0     O98855   7.504  10.263   6.800  0.2727 -0.4533 -0.2147
  733MOL0     C98856   7.544  10.246   6.660 -0.0718 -0.3748 -0.2245
  733MOL0     C98857   7.685  10.318   6.650  1.0111  0.1426  0.6520
  733MOL0     C98858   7.782  10.272   6.535  0.6734  1.4817 -0.0109
  733MOL0     C98859   7.922  10.325   6.552 -1.0601  0.5787  0.4626
  733MOL0     C98860   8.020  10.323   6.438  0.7975 -0.5378  0.6436
  733MOL0     C98861   7.974  10.400   6.314  0.1722  0.4105  0.0572
  733MOL0     C98862   7.972  10.550   6.323  0.2104 -0.4712  0.3692
  733MOL0     C98863   8.115  10.601   6.328  0.7038 -0.3508 -0.0386
  733MOL0    Cl98864   8.145  10.754   6.264 -0.2157  0.2992  0.7417
  733MOL0     C98865   7.396  10.179   6.998 -0.7918 -0.4969 -0.2740
  733MOL0     C98866   7.316  10.086   7.065 -0.0378  0.0542 -0.4358
  733MOL0     O98867   7.071   9.804   6.933  0.3652 -0.7913  0.0012
  733MOL0     C98868   6.972   9.598   7.097 -0.1530  0.1520 -0.8642
  733MOL0     C98869   6.932   9.492   7.179 -0.9679  0.5975  0.8685
  733MOL0     N98870   7.231   9.293   7.743  0.6625  0.2760  0.2122
  733MOL0     N98871   7.320   9.376   7.735 -1.0398  0.5141 -0.9036
  733MOL0     C98872   7.820  10.312   7.341  0.3478 -0.7380  0.0413
  733MOL0     C98873   7.843  10.402   7.238 -0.0215 -0.5059  0.0591
  733MOL0     C98874   7.715  10.630   6.839 -1.2451 -0.7304 -0.4088
  733MOL0     C98875   7.603  10.701   6.794 -0.1125  0.7588  0.6418
  733MOL0     C98876   7.605  10.781   6.681  0.4322  0.3371 -0.1327
  733MOL0     C98877   7.718  10.812   6.613  0.1567 -0.1528 -0.4025
  733MOL0     O98878   7.727  10.895   6.505  0.1703 -0.2130 -0.2334
  733MOL0     C98879   7.609  10.971   6.478  0.4284 -0.4299  0.2146
  733MOL0     C98880   7.636  11.032   6.341  0.9666  0.4421  0.5268
  733MOL0     C98881   7.519  11.129   6.314  0.0462 -0.2123 -0.5187
  733MOL0     C98882   7.518  11.174   6.166 -0.2575  0.3928  0.4120
  733MOL0     C98883   7.384  11.224   6.138  0.3134  0.1876 -0.0548
  733MOL0     C98884   7.274  11.255   6.107 -0.2058 -0.2723  0.1783
  733MOL0     C98885   7.833  10.745   6.659 -0.3237 -0.2172  0.9221
  733MOL0     C98886   7.837  10.654   6.771  0.0901  0.0425  0.0010
  733MOL0     C98887   7.972  10.598   6.803 -0.8240 -0.3683  0.6863
  733MOL0     H98888   7.707  10.234   6.979 -1.6864 -3.1689  1.3090
  733MOL0     H98889   7.713  10.062   7.145 -3.9746  1.4358  2.0511
  733MOL0     H98890   7.590  10.054   7.432  0.0842  0.7193 -1.4267
  733MOL0     H98891   7.671   9.963   7.298  1.6417  1.4243 -0.1718
  733MOL0     H98892   7.768   9.819   7.480  0.5388  0.8141  2.9184
  733MOL0     H98893   7.590   9.837   7.487 -1.1429  1.9715 -0.6314
  733MOL0     H98894   7.613  10.018   7.652 -1.2243 -0.0278  0.1677
  733MOL0     H98895   7.799   9.985   7.650 -1.0960  0.8498 -1.2688
  733MOL0     H98896   7.663   9.741   7.714  0.2220 -1.0029  1.6283
  733MOL0     H98897   7.731   9.857   7.829  1.8341  2.0649 -2.7127
  733MOL0     H98898   7.523   9.794   7.893  2.3479  1.6690  1.8392
  733MOL0     H98899   7.521   9.965   7.866 -3.3096 -0.9904  2.5905
  733MOL0     H98900   7.327   9.893   7.779  1.8539  0.0290  1.6707
  733MOL0     H98901   7.414   9.916   7.636 -1.1061 -0.3709  0.0012
  733MOL0     H98902   7.472   9.669   7.611  1.4426  2.1582  0.6724
  733MOL0     H98903   7.297   9.704   7.611  0.1523  0.2151  1.3505
  733MOL0     H98904   7.465   9.573   7.830  0.3565 -0.2228  0.6757
  733MOL0     H98905   7.322   9.679   7.871 -0.7278 -2.3192  0.9906
  733MOL0     H98906   7.086   9.566   7.856 -0.6047 -0.2510  0.6353
  733MOL0     H98907   6.984   9.184   7.775 -1.1224 -0.5656 -0.7197
  733MOL0     H98908   6.965   9.294   7.910 -1.0180  0.7674 -0.7968
  733MOL0     H98909   6.762   9.315   7.768 -1.0674  0.7682 -0.6417
  733MOL0     H98910   6.852   9.456   7.720 -0.2839 -0.6176 -4.4753
  733MOL0     H98911   6.764   9.367   7.531  0.8781  2.7044  0.2015
  733MOL0     H98912   6.852   9.214   7.555 -2.4690  0.8872 -3.8632
  733MOL0     H98913   7.067   9.331   7.539 -0.7434 -1.6202 -1.7762
  733MOL0     H98914   6.977   9.487   7.515 -3.1077  0.5105  3.5059
  733MOL0     H98915   7.208   9.458   7.366 -0.6449  1.0896  0.1283
  733MOL0     H98916   7.256   9.676   7.273 -1.5343  1.9792 -0.2927
  733MOL0     H98917   7.319   9.835   6.845  3.5024 -1.0772  1.3674
  733MOL0     H98918   7.415  10.015   6.709  0.8186  2.9000 -1.3504
  733MOL0     H98919   7.568  10.142   6.637 -2.0985 -1.0796  0.6228
  733MOL0     H98920   7.471  10.296   6.597 -1.5648 -0.2808  1.5057
  733MOL0     H98921   7.661  10.424   6.643 -1.0282 -0.3325 -0.0578
  733MOL0     H98922   7.730  10.306   6.750  4.0761  0.8367 -0.5345
  733MOL0     H98923   7.792  10.163   6.529 -0.6710  1.0518  3.2093
  733MOL0     H98924   7.729  10.290   6.441  0.1440 -3.5102 -0.9481
  733MOL0     H98925   7.968  10.274   6.637  3.9096 -0.0959 -2.2387
  733MOL0     H98926   7.904  10.427   6.587 -0.8907 -0.1236  2.7913
  733MOL0     H98927   8.034  10.220   6.406  1.1699  0.1399 -1.5448
  733MOL0     H98928   8.112  10.371   6.472 -0.4203  2.2200  0.3716
  733MOL0     H98929   8.031  10.364   6.228 -2.9278 -1.7246 -1.2940
  733MOL0     H98930   7.875  10.365   6.283  0.1534  3.6503 -4.6851
  733MOL0     H98931   7.916  10.579   6.412 -1.7366 -1.0519 -0.5933
  733MOL0     H98932   7.921  10.590   6.234 -1.3978 -1.1885  0.9247
  733MOL0     H98933   8.162  10.591   6.427  1.7534 -2.9585 -0.7108
  733MOL0     H98934   8.178  10.529   6.275  0.9431 -0.7129  0.7196
  733MOL0     H98935   7.422  10.271   7.048 -3.0754  0.4384 -0.6805
  733MOL0     H98936   7.314  10.096   7.173  2.2363 -0.8222 -0.2514
  733MOL0     H98937   6.906   9.630   7.016 -1.1961 -1.9470 -0.9056
  733MOL0     H98938   6.838   9.439   7.168  0.8923 -3.6655  3.1606
  733MOL0     H98939   7.852  10.336   7.442  3.1066  0.1420 -0.9377
  733MOL0     H98940   7.878  10.503   7.256 -2.1700  0.4480 -0.7879
  733MOL0     H98941   7.501  10.695   6.830 -0.1042  2.3120  0.9883
  733MOL0     H98942   7.506  10.811   6.648  0.7760  1.6276 -0.0062
  733MOL0     H98943   7.603  11.055   6.548  1.9138  0.9630 -1.2459
  733MOL0     H98944   7.518  10.911   6.471 -0.9564  1.2841  2.1663
  733MOL0     H98945   7.636  10.950   6.269 -1.9026  0.0077  0.9059
  733MOL0     H98946   7.730  11.089   6.341  0.3137  1.5588  0.7844
  733MOL0     H98947   7.541  11.213   6.380  1.1101 -1.4794  0.8012
  733MOL0     H98948   7.422  11.086   6.343  1.7987 -1.3168  4.7149
  733MOL0     H98949   7.592  11.248   6.135  1.1470 -2.2836 -3.3007
  733MOL0     H98950   7.539  11.091   6.098  4.2247 -0.0696  2.0594
  733MOL0     H98951   7.176  11.299   6.096 -0.0299  0.7121  2.1261
  733MOL0     H98952   7.926  10.769   6.608 -0.0526  0.0600  1.5305
  733MOL0     H98953   8.046  10.638   6.733 -0.6233  1.9947  2.1380
  733MOL0     H98954   8.017  10.631   6.897 -0.3520 -3.0169  1.4521
  733MOL0     H98955   7.980  10.490   6.796  1.9353 -0.1648 -0.4985
  734MOL0     O98956   6.253   7.540   7.542  0.4345  0.2683  0.5757
  734MOL0     C98957   6.247   7.663   7.544 -0.3338  0.3538 -0.6529
  734MOL0     O98958   6.258   7.757   7.447  0.6197 -0.5992  0.6657
  734MOL0     C98959   6.282   7.722   7.320 -1.2334  0.4566  0.4674
  734MOL0     C98960   6.418   7.730   7.279 -1.0181 -0.1482 -0.4892
  734MOL0     C98961   6.450   7.708   7.141  0.0033  0.6022  0.0903
  734MOL0     C98962   6.359   7.674   7.046 -0.4942 -0.1971  0.0817
  734MOL0     O98963   6.386   7.638   6.922 -0.2502  0.1857 -0.7027
  734MOL0     C98964   6.507   7.551   6.917  0.0970 -0.1352 -0.3420
  734MOL0     C98965   6.479   7.404   6.949 -0.8132  0.2310  0.2023
  734MOL0     C98966   6.606   7.332   7.006  0.1468  0.3368  0.2205
  734MOL0     C98967   6.563   7.211   7.073  0.2239  0.1960 -0.5947
  734MOL0     C98968   6.682   7.125   7.101  0.3375 -0.3744 -0.6614
  734MOL0     C98969   6.701   7.005   7.004 -0.1218 -0.7460  0.2698
  734MOL0     C98970   6.838   6.955   7.000 -0.4849  0.5551  0.5640
  734MOL0     C98971   6.878   6.894   7.134  0.2398  0.4311  0.0896
  734MOL0     N98972   6.803   6.768   7.167 -0.8926  0.4784 -0.6435
  734MOL0     C98973   6.712   6.767   7.273  0.1171  0.5391 -0.6005
  734MOL0     C98974   6.647   6.645   7.252 -0.0598 -0.1475  0.7191
  734MOL0     C98975   6.531   6.596   7.332  0.1175 -0.8981  0.1006
  734MOL0     C98976   6.554   6.488   7.437  0.6637 -0.0563  0.3355
  734MOL0     C98977   6.687   6.519   7.516  0.3411  0.5718  1.0392
  734MOL0     C98978   6.691   6.456   7.661  0.1001 -0.2942  0.1391
  734MOL0     O98979   6.636   6.325   7.658 -0.8033 -0.1897 -0.6781
  734MOL0     C98980   6.585   6.254   7.755  0.0332 -0.6449 -0.5029
  734MOL0     C98981   6.581   6.291   7.893 -0.5358 -0.0758 -0.0880
  734MOL0     C98982   6.512   6.218   7.991  0.8738  0.1087 -0.1424
  734MOL0     C98983   6.454   6.102   7.945  0.0422  0.2417  0.1057
  734MOL0     C98984   6.377   6.021   8.041  0.4874 -0.4370  0.0190
  734MOL0     O98985   6.392   6.060   8.174  0.4431 -0.3920  0.6832
  734MOL0     C98986   6.336   5.967   8.268  0.7867  0.4979  0.3192
  734MOL0     C98987   6.207   5.920   8.261 -0.2537  0.1512 -0.5249
  734MOL0     C98988   6.161   5.829   8.351 -0.5211  0.2346 -0.8419
  734MOL0     C98989   6.236   5.784   8.453 -0.1670  0.1549 -0.1087
  734MOL0     O98990   6.185   5.692   8.545  0.3182  0.2199  0.1548
  734MOL0     C98991   6.055   5.716   8.612 -0.6546 -0.1875  0.6779
  734MOL0     C98992   6.038   5.859   8.670  0.7839  0.0505  0.6692
  734MOL0     C98993   6.128   5.886   8.793  0.3886 -0.7672  0.1062
  734MOL0     C98994   6.099   6.030   8.845  0.1155  1.0256 -0.3005
  734MOL0     C98995   6.071   6.013   8.991  0.0565  0.8081 -0.1735
  734MOL0     C98996   6.045   6.149   9.059  1.4928  0.4901 -0.5697
  734MOL0     C98997   6.181   6.219   9.097  0.3985 -0.3082 -0.0246
  734MOL0     C98998   6.141   6.319   9.214  0.4749  0.2203  0.5930
  734MOL0    Cl98999   5.999   6.420   9.163 -0.0685  0.6735 -0.0550
  734MOL0     C99000   6.373   5.822   8.454  0.2041  0.6098  1.0516
  734MOL0     C99001   6.424   5.911   8.360  0.5184 -0.0408  0.3772
  734MOL0     O99002   6.317   5.920   8.000 -1.0898 -0.2417 -0.1420
  734MOL0     C99003   6.450   6.060   7.809 -0.6428 -0.4269 -0.1748
  734MOL0     C99004   6.509   6.148   7.714  0.9552  0.3557  0.6827
  734MOL0     N99005   6.705   6.574   7.141  0.4486  0.5504 -0.2439
  734MOL0     N99006   6.794   6.655   7.087 -0.1387  0.5547 -0.4403
  734MOL0     C99007   6.222   7.663   7.094  0.0260  0.9463 -0.8101
  734MOL0     C99008   6.185   7.686   7.226  0.2072 -0.1846 -0.5421
  734MOL0     C99009   6.215   7.725   7.679  0.8939 -0.2520  0.4746
  734MOL0     C99010   6.121   7.833   7.675 -0.2280  0.2158 -0.2192
  734MOL0     C99011   6.090   7.900   7.799  0.2999  0.3251  0.1858
  734MOL0     C99012   6.144   7.866   7.922 -1.4444  1.0157 -0.8659
  734MOL0     O99013   6.112   7.955   8.017  0.1523  0.3406  0.9569
  734MOL0     C99014   6.140   7.940   8.165  0.2266  0.0245  0.6931
  734MOL0     C99015   6.021   7.995   8.247  0.7848  0.0958  0.1536
  734MOL0     C99016   6.031   7.945   8.390 -0.1726 -0.8610 -1.2301
  734MOL0     C99017   5.896   7.966   8.453 -0.6470  0.3674  0.9101
  734MOL0     C99018   5.900   7.945   8.598  0.5071  0.3944 -0.5980
  734MOL0     C99019   5.911   7.919   8.720 -0.1452  0.5263 -1.2661
  734MOL0     C99020   6.227   7.757   7.929 -0.2101  0.9239 -0.7683
  734MOL0     C99021   6.263   7.693   7.806 -0.1586 -0.0358  0.5064
  734MOL0     C99022   6.385   7.599   7.814 -0.3428 -0.6782 -0.2895
  734MOL0     H99023   6.489   7.763   7.355 -2.6083 -0.4717  1.2268
  734MOL0     H99024   6.557   7.724   7.126 -0.0475  4.0800  2.3576
  734MOL0     H99025   6.546   7.561   6.816  2.1840  2.6148  0.6057
  734MOL0     H99026   6.593   7.589   6.975  0.2732 -2.1195  0.7979
  734MOL0     H99027   6.439   7.359   6.858 -0.9703  1.6871 -0.4848
  734MOL0     H99028   6.403   7.396   7.027  0.1089  1.1008  1.2163
  734MOL0     H99029   6.655   7.399   7.077 -3.4221  2.1769  1.1742
  734MOL0     H99030   6.673   7.299   6.925  0.2516  0.8209  0.1019
  734MOL0     H99031   6.521   7.246   7.168  0.8461  1.3189 -0.7182
  734MOL0     H99032   6.488   7.153   7.018  1.2400 -0.7812 -0.9858
  734MOL0     H99033   6.776   7.182   7.100 -0.6516  1.4270  1.3965
  734MOL0     H99034   6.663   7.089   7.202  3.1198 -1.6993 -0.5036
  734MOL0     H99035   6.630   6.924   7.022 -2.1657 -0.1649 -3.8805
  734MOL0     H99036   6.671   7.036   6.903  0.4208 -0.2565  0.2545
  734MOL0     H99037   6.896   7.039   6.961 -3.9324  1.8768 -2.2843
  734MOL0     H99038   6.877   6.879   6.931  0.6335 -0.3477  2.1196
  734MOL0     H99039   6.985   6.879   7.116  0.8178 -0.1101  3.2972
  734MOL0     H99040   6.868   6.983   7.198  0.0602  1.1867 -0.9550
  734MOL0     H99041   6.698   6.854   7.336 -3.4853  0.3427 -0.9187
  734MOL0     H99042   6.494   6.686   7.382  1.1190 -0.1573 -0.4544
  734MOL0     H99043   6.462   6.544   7.265  0.3943 -1.8966  0.5734
  734MOL0     H99044   6.471   6.482   7.508  0.2902  1.6867  0.0860
  734MOL0     H99045   6.561   6.392   7.386  0.3961  0.4664 -0.7125
  734MOL0     H99046   6.692   6.628   7.525  0.8824  0.8697 -2.0140
  734MOL0     H99047   6.770   6.482   7.454 -0.3707  1.8341 -0.7455
  734MOL0     H99048   6.637   6.520   7.731  1.7613  0.3513  0.8782
  734MOL0     H99049   6.795   6.459   7.693 -0.4876  3.5258  2.2636
  734MOL0     H99050   6.623   6.388   7.919 -2.0023  0.9370 -1.3109
  734MOL0     H99051   6.523   6.253   8.094  5.8096 -1.8744  0.3134
  734MOL0     H99052   6.143   5.962   8.184 -0.3326 -0.9508 -1.0781
  734MOL0     H99053   6.056   5.806   8.341 -0.2161 -1.3267 -0.6822
  734MOL0     H99054   5.963   5.696   8.556 -1.0498  0.6584  0.9959
  734MOL0     H99055   6.057   5.641   8.691  1.8947 -0.1154  0.7595
  734MOL0     H99056   6.045   5.928   8.585 -0.7424  1.6058  1.7273
  734MOL0     H99057   5.942   5.863   8.722  1.1506 -1.5364  1.5349
  734MOL0     H99058   6.122   5.804   8.865 -1.0774  1.9141  3.2861
  734MOL0     H99059   6.230   5.901   8.756 -1.0426  1.3193 -3.4482
  734MOL0     H99060   6.014   6.074   8.791 -1.0040 -0.6278  0.0259
  734MOL0     H99061   6.192   6.086   8.839  1.5085 -1.0963  0.3259
  734MOL0     H99062   6.158   5.966   9.038 -2.2166 -1.2939  2.2716
  734MOL0     H99063   5.986   5.952   9.024  0.1200  0.8276  0.0293
  734MOL0     H99064   5.989   6.212   8.990 -2.8991 -3.3543 -0.9829
  734MOL0     H99065   5.990   6.127   9.150  1.7438  0.7346 -0.3575
  734MOL0     H99066   6.245   6.259   9.018  4.2129  0.3023  3.0100
  734MOL0     H99067   6.249   6.146   9.143 -0.2440 -0.7903  0.1732
  734MOL0     H99068   6.126   6.263   9.306  1.1190 -0.1072  0.5084
  734MOL0     H99069   6.223   6.391   9.219  0.6390  0.2718 -1.6172
  734MOL0     H99070   6.432   5.786   8.537  1.0472 -0.6951 -0.0659
  734MOL0     H99071   6.527   5.945   8.347  0.7175 -1.0677 -1.0332
  734MOL0     H99072   6.392   5.973   7.779  1.9774 -1.7049 -1.9288
  734MOL0     H99073   6.514   6.134   7.606  1.3784  1.6510  0.5145
  734MOL0     H99074   6.144   7.645   7.021 -0.6547  1.5952 -0.2579
  734MOL0     H99075   6.078   7.688   7.244 -0.1508  1.8513 -2.4160
  734MOL0     H99076   6.068   7.862   7.585  2.9074  3.7513 -1.1607
  734MOL0     H99077   6.015   7.978   7.806 -2.7210 -2.4203  1.6562
  734MOL0     H99078   6.238   7.980   8.191 -0.9492  0.9184  4.3209
  734MOL0     H99079   6.157   7.834   8.186  0.2933  0.1359  1.2169
  734MOL0     H99080   5.932   7.969   8.190  1.3267 -0.4799 -0.4587
  734MOL0     H99081   6.030   8.104   8.250  3.9297  0.0695 -2.2681
  734MOL0     H99082   6.104   7.998   8.452  1.2945 -1.3032 -2.5080
  734MOL0     H99083   6.045   7.837   8.403  0.1945 -0.5074  2.1900
  734MOL0     H99084   5.873   8.073   8.449  1.2793  0.8037  0.3493
  734MOL0     H99085   5.825   7.897   8.407  2.1967 -1.3270 -1.2228
  734MOL0     H99086   5.926   7.893   8.823 -0.3620  0.6139 -1.2118
  734MOL0     H99087   6.280   7.744   8.022  1.0662  3.8374 -0.9831
  734MOL0     H99088   6.454   7.634   7.891 -0.2524  0.1969 -0.7611
  734MOL0     H99089   6.352   7.502   7.853  1.6386 -0.5847  1.8466
  734MOL0     H99090   6.442   7.598   7.721 -1.9614  0.3666 -1.3442
  735MOL0     O99091   6.622   3.179   5.293 -0.1717  0.3102  0.1665
  735MOL0     C99092   6.616   3.214   5.415  0.2829  0.1364 -0.3278
  735MOL0     O99093   6.695   3.300   5.475 -0.4381 -0.1081  0.6080
  735MOL0     C99094   6.783   3.367   5.400  0.5537  0.3737 -0.1612
  735MOL0     C99095   6.909   3.375   5.442 -0.4066 -0.4826 -0.6753
  735MOL0     C99096   7.009   3.443   5.373  0.3245  0.0667 -1.2138
  735MOL0     C99097   6.983   3.495   5.245 -0.2771 -0.4317 -0.5998
  735MOL0     O99098   7.076   3.540   5.157  0.0870 -0.2331 -0.1759
  735MOL0     C99099   7.165   3.637   5.224  0.2544  1.0242 -0.1357
  735MOL0     C99100   7.257   3.728   5.129  0.1025 -0.5356  0.0965
  735MOL0     C99101   7.375   3.784   5.209 -1.4718 -0.1931  0.4256
  735MOL0     C99102   7.475   3.840   5.107 -0.9931 -0.0497  0.1984
  735MOL0     C99103   7.590   3.740   5.052  0.6000  0.2104  0.4575
  735MOL0     C99104   7.689   3.682   5.140 -0.4853 -0.9210 -0.5149
  735MOL0     C99105   7.805   3.778   5.184  0.3458  0.2883 -0.0126
  735MOL0     C99106   7.906   3.687   5.262 -0.4173  0.0007  0.1563
  735MOL0     N99107   7.971   3.761   5.368  0.6221 -0.4669  0.4643
  735MOL0     C99108   8.039   3.879   5.363 -0.1313 -0.1101 -0.6107
  735MOL0     C99109   8.046   3.918   5.490  0.3400  0.3714  0.1762
  735MOL0     C99110   8.088   4.058   5.545 -0.3359  0.1045  0.0657
  735MOL0     C99111   8.033   4.174   5.458  0.2946 -0.8007  0.0388
  735MOL0     C99112   8.110   4.312   5.487 -0.0638  0.1039  0.0316
  735MOL0     C99113   8.078   4.351   5.628 -0.4090 -0.1677  0.2095
  735MOL0     O99114   8.179   4.446   5.661 -0.0327  0.0628 -0.5244
  735MOL0     C99115   8.172   4.491   5.784 -0.1850 -0.4100 -0.3131
  735MOL0     C99116   8.061   4.498   5.865  1.0522 -0.0497 -0.1507
  735MOL0     C99117   8.059   4.552   5.992 -0.4193 -0.8864 -0.2136
  735MOL0     C99118   8.182   4.612   6.032  0.3797  0.0478 -0.6420
  735MOL0     C99119   8.194   4.676   6.161  0.2279 -0.1207  0.1358
  735MOL0     O99120   8.321   4.706   6.198  0.1950 -0.7339 -0.5943
  735MOL0     C99121   8.341   4.794   6.297  0.9563 -0.5486 -0.6005
  735MOL0     C99122   8.248   4.882   6.357 -0.3559  0.0659 -0.1514
  735MOL0     C99123   8.277   4.965   6.467 -0.6692  0.2635  0.2149
  735MOL0     C99124   8.418   4.975   6.492  0.3128  0.9059  0.3874
  735MOL0     O99125   8.468   5.070   6.575  0.8889 -0.4930  0.3415
  735MOL0     C99126   8.473   5.213   6.522 -1.3047 -0.4223  0.4510
  735MOL0     C99127   8.356   5.299   6.581 -1.7110 -0.1027  0.2131
  735MOL0     C99128   8.375   5.288   6.730  0.2518 -0.1256 -0.7134
  735MOL0     C99129   8.271   5.343   6.820 -0.8635  0.2350  0.3143
  735MOL0     C99130   8.300   5.315   6.963  0.3748 -0.0126  1.0553
  735MOL0     C99131   8.181   5.386   7.047 -0.2924  0.2886  1.0659
  735MOL0     C99132   8.193   5.359   7.195 -0.7967 -0.5407  0.6365
  735MOL0     C99133   8.099   5.450   7.264  0.8055 -0.6303  1.1447
  735MOL0    Cl99134   8.124   5.448   7.440  0.0343  0.0500 -0.2405
  735MOL0     C99135   8.511   4.901   6.421 -0.5045  0.3397 -1.1204
  735MOL0     C99136   8.477   4.802   6.325  0.3319  0.3065 -0.3370
  735MOL0     O99137   8.091   4.672   6.229  0.6757 -0.4658  0.1479
  735MOL0     C99138   8.303   4.595   5.960  1.0277  0.6206 -1.2323
  735MOL0     C99139   8.292   4.545   5.837 -0.6747  0.0066  0.2355
  735MOL0     N99140   8.003   3.822   5.577 -0.3124  0.8819 -0.7796
  735MOL0     N99141   7.945   3.731   5.495 -0.4040  0.2481  0.3328
  735MOL0     C99142   6.846   3.491   5.195 -0.5396 -0.5520  0.3041
  735MOL0     C99143   6.744   3.436   5.278 -0.5324 -1.3482  0.1123
  735MOL0     C99144   6.515   3.161   5.507  0.6135 -0.4932 -0.4062
  735MOL0     C99145   6.520   3.183   5.647 -0.9657 -0.8432 -0.0933
  735MOL0     C99146   6.424   3.151   5.738 -0.0750 -0.6480 -0.0238
  735MOL0     C99147   6.311   3.098   5.700  0.6662 -0.0506 -0.0971
  735MOL0     O99148   6.221   3.078   5.803  0.1632 -0.4399 -0.0572
  735MOL0     C99149   6.146   3.194   5.816  0.3163  0.4840  0.6769
  735MOL0     C99150   6.006   3.187   5.756 -0.0831  0.0453  1.0004
  735MOL0     C99151   5.920   3.310   5.791  0.0765 -0.5765  1.5079
  735MOL0     C99152   5.785   3.303   5.712 -0.2971  0.0165  0.1986
  735MOL0     C99153   5.717   3.433   5.729  0.3952 -0.0805  0.1454
  735MOL0     C99154   5.643   3.534   5.742  0.8872  0.3030 -0.3521
  735MOL0     C99155   6.298   3.085   5.555  0.2318  0.1731  0.3929
  735MOL0     C99156   6.393   3.112   5.462 -0.1288  0.6025 -0.1484
  735MOL0     C99157   6.352   3.098   5.320 -0.2078  0.3677  0.1324
  735MOL0     H99158   6.942   3.310   5.522 -0.8884 -2.4426 -1.9840
  735MOL0     H99159   7.110   3.446   5.412  0.2434  2.3738 -1.0298
  735MOL0     H99160   7.113   3.707   5.290  1.5550 -0.6667  2.8975
  735MOL0     H99161   7.231   3.581   5.291  3.1947  2.5715 -1.5448
  735MOL0     H99162   7.183   3.805   5.106  0.2067 -0.0258  1.3797
  735MOL0     H99163   7.291   3.667   5.045  1.7765 -1.1084  1.1533
  735MOL0     H99164   7.421   3.707   5.272 -0.7255 -0.2162 -0.1348
  735MOL0     H99165   7.327   3.857   5.274 -4.2898 -0.1835 -1.4617
  735MOL0     H99166   7.418   3.878   5.021  2.1382 -0.6256 -2.2988
  735MOL0     H99167   7.525   3.926   5.154 -2.2277  0.1377  1.2531
  735MOL0     H99168   7.536   3.661   4.999  1.1547 -0.0291  0.2301
  735MOL0     H99169   7.646   3.800   4.980 -3.3445  2.0701 -1.3626
  735MOL0     H99170   7.638   3.635   5.225 -0.9177 -0.0096 -0.2595
  735MOL0     H99171   7.738   3.598   5.089 -1.9243 -1.8367 -0.4634
  735MOL0     H99172   7.777   3.868   5.238 -4.0060  0.3738 -2.0401
  735MOL0     H99173   7.861   3.820   5.099  1.5091  0.8912  1.0227
  735MOL0     H99174   7.864   3.593   5.296  1.1123 -1.6503 -2.1834
  735MOL0     H99175   7.973   3.665   5.178 -1.6962  4.0263 -2.2165
  735MOL0     H99176   8.052   3.942   5.276 -0.5520  1.1813  0.2371
  735MOL0     H99177   8.063   4.077   5.650  2.1585  1.9503  0.4199
  735MOL0     H99178   8.197   4.066   5.545 -0.3306  0.0548 -0.3990
  735MOL0     H99179   8.024   4.155   5.350 -0.0555  2.8931 -0.7153
  735MOL0     H99180   7.931   4.197   5.491  1.6250  2.7516  2.2053
  735MOL0     H99181   8.077   4.393   5.422  0.0480 -0.1013 -0.2832
  735MOL0     H99182   8.214   4.283   5.471 -0.3592 -1.5834  0.9038
  735MOL0     H99183   8.088   4.275   5.706  1.1760  0.0228  0.2257
  735MOL0     H99184   7.984   4.408   5.629  0.7358  1.8384  2.0781
  735MOL0     H99185   7.962   4.462   5.836  0.6824  0.8941 -0.1057
  735MOL0     H99186   7.975   4.559   6.060 -2.3020 -1.5799 -2.3345
  735MOL0     H99187   8.143   4.888   6.330 -0.2348 -0.9793 -0.9287
  735MOL0     H99188   8.199   5.024   6.516 -2.4210 -0.1867 -1.8463
  735MOL0     H99189   8.573   5.250   6.550  0.5969 -3.5163 -1.6609
  735MOL0     H99190   8.473   5.217   6.413  0.5682 -0.6492  0.4119
  735MOL0     H99191   8.372   5.401   6.544  3.4924 -0.6446  0.2960
  735MOL0     H99192   8.262   5.257   6.543 -1.3972  0.4003 -1.1589
  735MOL0     H99193   8.390   5.185   6.764 -3.8904 -0.6643 -0.0963
  735MOL0     H99194   8.472   5.336   6.750  0.8387 -1.5357 -0.0847
  735MOL0     H99195   8.173   5.295   6.805 -0.2933 -1.0028  0.4341
  735MOL0     H99196   8.264   5.451   6.808 -1.0169  0.0543 -1.4008
  735MOL0     H99197   8.388   5.378   6.980  1.2638  0.0626 -2.8156
  735MOL0     H99198   8.310   5.210   6.990 -3.6181 -0.9946 -0.5698
  735MOL0     H99199   8.181   5.494   7.034 -1.6254  0.3507  1.3711
  735MOL0     H99200   8.084   5.346   7.014  0.4358 -0.3100 -0.4322
  735MOL0     H99201   8.290   5.381   7.240 -1.6041  1.5675  1.4443
  735MOL0     H99202   8.169   5.255   7.220 -1.9293 -0.5178 -0.2580
  735MOL0     H99203   8.108   5.554   7.232  0.0368 -0.3321  1.8827
  735MOL0     H99204   7.994   5.426   7.248  0.3509  2.9181 -3.7168
  735MOL0     H99205   8.614   4.909   6.453  0.7597 -1.1266 -4.4507
  735MOL0     H99206   8.556   4.741   6.283  0.4274 -0.8718  1.4288
  735MOL0     H99207   8.401   4.626   5.995 -0.0894 -0.2360  3.1458
  735MOL0     H99208   8.389   4.541   5.789 -0.2466  0.5517  1.0369
  735MOL0     H99209   6.826   3.541   5.101 -0.7009 -0.7318  0.2429
  735MOL0     H99210   6.645   3.444   5.234 -0.7846 -1.7832  0.5876
  735MOL0     H99211   6.606   3.229   5.695  0.5576 -1.2660 -2.2628
  735MOL0     H99212   6.440   3.172   5.844  0.6539  1.7275 -0.5532
  735MOL0     H99213   6.200   3.282   5.779  1.0254  0.6921  2.1552
  735MOL0     H99214   6.123   3.212   5.921 -1.1178  1.0148  0.2933
  735MOL0     H99215   5.965   3.099   5.806  1.5589 -0.9755  0.6322
  735MOL0     H99216   6.026   3.181   5.648  2.7353  3.1856  1.2076
  735MOL0     H99217   5.974   3.395   5.750 -0.1209 -0.3739  1.6697
  735MOL0     H99218   5.905   3.334   5.897 -1.7406  0.3176  1.0885
  735MOL0     H99219   5.800   3.282   5.606  2.2390  1.8157  0.1165
  735MOL0     H99220   5.723   3.223   5.755 -0.4745  0.9319  1.7144
  735MOL0     H99221   5.574   3.615   5.756  1.2248  0.0245  5.2206
  735MOL0     H99222   6.197   3.051   5.530  0.6365  0.3879 -1.7566
  735MOL0     H99223   6.258   3.044   5.311  0.8293 -1.3114 -1.3945
  735MOL0     H99224   6.341   3.196   5.273  0.9346  0.9239  0.9738
  735MOL0     H99225   6.423   3.035   5.264 -0.0601  1.8012 -1.3800
  736MOL0     O99226   4.131   8.430   3.163 -0.0482 -0.0865  0.4037
  736MOL0     C99227   4.207   8.434   3.064  0.1886 -0.1016  0.0614
  736MOL0     O99228   4.296   8.342   3.024 -0.1764 -0.1268  0.1583
  736MOL0     C99229   4.302   8.228   3.090 -0.6040  0.5827 -0.2670
  736MOL0     C99230   4.328   8.115   3.005 -0.2094  0.1393  0.9743
  736MOL0     C99231   4.343   7.988   3.062  0.2749 -0.1964 -0.8176
  736MOL0     C99232   4.319   7.974   3.200  0.0170 -0.0929  1.2193
  736MOL0     O99233   4.329   7.853   3.259  0.5410 -0.2718 -0.0029
  736MOL0     C99234   4.382   7.733   3.193 -0.3429 -0.6628  0.1455
  736MOL0     C99235   4.361   7.608   3.276 -0.0579 -0.1907 -0.1177
  736MOL0     C99236   4.207   7.579   3.310 -0.1105 -0.0355 -0.6309
  736MOL0     C99237   4.150   7.528   3.177  0.3244 -0.1951 -0.5603
  736MOL0     C99238   4.005   7.500   3.207  0.4821 -0.6476 -0.0981
  736MOL0     C99239   3.918   7.630   3.245 -0.7658  0.5721 -0.7855
  736MOL0     C99240   3.878   7.733   3.144  0.7248  0.1197 -0.3675
  736MOL0     C99241   3.854   7.864   3.215 -0.1697 -0.1365 -0.4940
  736MOL0     N99242   3.833   7.970   3.116 -0.6351  0.2661  0.2671
  736MOL0     C99243   3.922   8.064   3.069 -0.1921 -0.5310 -0.5116
  736MOL0     C99244   3.860   8.131   2.968 -0.0255 -0.2844 -1.4805
  736MOL0     C99245   3.921   8.254   2.900 -0.9317 -0.3258 -0.2948
  736MOL0     C99246   3.926   8.257   2.743 -0.4687  0.0307  0.5813
  736MOL0     C99247   3.954   8.403   2.695 -0.7852  0.1679 -0.6952
  736MOL0     C99248   3.828   8.491   2.688 -0.0039 -0.0497 -0.1284
  736MOL0     O99249   3.748   8.454   2.578  0.7207  0.1950  0.1049
  736MOL0     C99250   3.768   8.505   2.453  0.1519 -0.6922 -0.3466
  736MOL0     C99251   3.685   8.473   2.346 -0.2850  0.0978  0.6086
  736MOL0     C99252   3.703   8.531   2.216  0.8317  0.2161 -0.3433
  736MOL0     C99253   3.803   8.627   2.197 -0.0225 -0.1270 -0.7386
  736MOL0     C99254   3.823   8.671   2.059 -1.0298 -0.6209 -0.4075
  736MOL0     O99255   3.749   8.623   1.954  0.1062 -0.3317 -0.5115
  736MOL0     C99256   3.789   8.647   1.823 -0.3985  0.6274  0.4621
  736MOL0     C99257   3.688   8.688   1.740  0.1359 -0.3595  0.1613
  736MOL0     C99258   3.719   8.708   1.606 -0.0159 -0.2219 -0.0359
  736MOL0     C99259   3.844   8.691   1.553 -0.0734 -1.3024  0.3474
  736MOL0     O99260   3.875   8.727   1.427  0.0967  0.3578 -0.0696
  736MOL0     C99261   3.773   8.758   1.337 -0.5328 -0.7285 -0.5471
  736MOL0     C99262   3.847   8.789   1.200  0.1692  1.1408 -0.2286
  736MOL0     C99263   3.938   8.669   1.176  0.0014  0.1859 -0.0039
  736MOL0     C99264   3.876   8.532   1.148 -0.1484  0.2882  0.1562
  736MOL0     C99265   3.974   8.423   1.129 -0.3252 -0.4415  0.0175
  736MOL0     C99266   4.105   8.429   1.214 -0.8973 -0.1724  0.6692
  736MOL0     C99267   4.176   8.296   1.234  0.7326  0.0001  0.0537
  736MOL0     C99268   4.236   8.250   1.098 -0.0616  0.5896 -0.7394
  736MOL0    Cl99269   4.237   8.074   1.101 -0.7097  0.0518 -0.3394
  736MOL0     C99270   3.947   8.649   1.634  0.2899  0.2607  0.1597
  736MOL0     C99271   3.915   8.625   1.769  0.2263 -0.5809  0.3384
  736MOL0     O99272   3.917   8.751   2.050 -0.1051  0.6291 -0.4005
  736MOL0     C99273   3.888   8.655   2.301  0.1114  0.3766 -0.1799
  736MOL0     C99274   3.874   8.597   2.420 -0.3318  0.3071  0.0398
  736MOL0     N99275   3.737   8.078   2.962  0.0380  0.6019  0.3196
  736MOL0     N99276   3.720   7.980   3.047  0.7606 -0.9437  0.8148
  736MOL0     C99277   4.301   8.081   3.273  0.4848  0.8396 -0.5928
  736MOL0     C99278   4.286   8.206   3.226  0.8751 -0.8734  0.1877
  736MOL0     C99279   4.199   8.557   2.984 -0.0481  0.0700  0.7891
  736MOL0     C99280   4.079   8.632   3.000  0.7466 -0.1162  1.1360
  736MOL0     C99281   4.049   8.751   2.922 -0.8833 -0.4912 -0.0954
  736MOL0     C99282   4.149   8.789   2.825 -0.3795  0.1571  0.2236
  736MOL0     O99283   4.123   8.903   2.739 -0.8991 -0.3496  0.0919
  736MOL0     C99284   3.995   8.915   2.670  0.5458 -0.7552  0.1183
  736MOL0     C99285   3.950   9.065   2.663  0.4981 -0.3750 -0.6137
  736MOL0     C99286   3.990   9.138   2.788 -0.3667 -0.2285 -0.4977
  736MOL0     C99287   3.958   9.280   2.781 -0.4753 -0.7791  1.7106
  736MOL0     C99288   3.813   9.310   2.771  0.0479 -0.3297 -0.9260
  736MOL0     C99289   3.694   9.324   2.749 -1.1824  0.4136 -0.7379
  736MOL0     C99290   4.264   8.719   2.813  0.2354  1.0543  0.7764
  736MOL0     C99291   4.297   8.609   2.900  0.7348  0.2139  0.7234
  736MOL0     C99292   4.429   8.551   2.889  0.0797 -0.0568  0.7414
  736MOL0     H99293   4.339   8.144   2.901  2.6044  1.6606  1.5954
  736MOL0     H99294   4.363   7.900   3.002  0.7756 -2.9753  3.0088
  736MOL0     H99295   4.337   7.717   3.094  1.5719  0.3096 -0.9489
  736MOL0     H99296   4.491   7.745   3.194 -0.2420 -1.3404  2.6087
  736MOL0     H99297   4.422   7.619   3.366 -1.5788 -0.7089  1.0467
  736MOL0     H99298   4.404   7.518   3.230 -0.5971 -0.6496  0.2573
  736MOL0     H99299   4.147   7.667   3.334 -0.1698 -0.0071 -0.8868
  736MOL0     H99300   4.196   7.500   3.385  0.7206  1.0001  0.6312
  736MOL0     H99301   4.150   7.589   3.087  0.2919 -2.9849 -2.5744
  736MOL0     H99302   4.212   7.443   3.148  0.8934 -1.0003  2.5851
  736MOL0     H99303   3.957   7.465   3.115 -0.3888  2.2629 -0.8468
  736MOL0     H99304   4.005   7.426   3.287 -2.1102 -2.1628 -1.3532
  736MOL0     H99305   3.833   7.567   3.271  0.5929 -0.5649  1.1372
  736MOL0     H99306   3.955   7.687   3.330 -0.5141  1.6075 -1.5745
  736MOL0     H99307   3.786   7.706   3.091 -0.6776  1.2417  1.3449
  736MOL0     H99308   3.952   7.750   3.066  1.1623 -1.1839 -0.2653
  736MOL0     H99309   3.764   7.859   3.277 -0.8086 -1.4188 -1.4712
  736MOL0     H99310   3.944   7.887   3.273 -0.0929 -3.0290  0.6924
  736MOL0     H99311   4.020   8.095   3.106 -0.8767  0.8185  0.2594
  736MOL0     H99312   3.860   8.338   2.935 -2.5781 -2.2695  1.8183
  736MOL0     H99313   4.022   8.258   2.941 -0.7829 -2.4350 -0.3414
  736MOL0     H99314   4.004   8.184   2.722 -2.0497 -1.2133 -1.3510
  736MOL0     H99315   3.827   8.223   2.709 -0.0318  0.3576 -1.0866
  736MOL0     H99316   3.999   8.398   2.596 -0.5503 -1.9772 -0.5208
  736MOL0     H99317   4.021   8.459   2.762 -1.1022  1.7163 -1.6268
  736MOL0     H99318   3.847   8.598   2.680 -2.2979  0.6749  2.6360
  736MOL0     H99319   3.776   8.474   2.782  0.3952 -2.3446 -0.2625
  736MOL0     H99320   3.606   8.401   2.367 -2.8578  1.9536 -2.0241
  736MOL0     H99321   3.635   8.501   2.138 -1.7073  0.4054  1.6694
  736MOL0     H99322   3.582   8.704   1.759 -0.6800 -6.0785  2.1175
  736MOL0     H99323   3.640   8.761   1.554  0.7899  2.6832  1.4877
  736MOL0     H99324   3.697   8.680   1.324 -1.9069  0.2546  1.1654
  736MOL0     H99325   3.729   8.851   1.373  2.2542  1.0858 -1.5115
  736MOL0     H99326   3.781   8.793   1.113 -1.5714  1.4298  1.0454
  736MOL0     H99327   3.907   8.880   1.204 -0.3354  1.4361  3.4192
  736MOL0     H99328   3.973   8.696   1.076 -3.3624  1.8808 -0.8739
  736MOL0     H99329   4.013   8.647   1.253  0.4639 -0.9383 -0.7381
  736MOL0     H99330   3.816   8.528   1.056 -0.5387  1.4782  0.3396
  736MOL0     H99331   3.830   8.517   1.247  2.8495 -0.7057  1.5065
  736MOL0     H99332   4.001   8.424   1.023 -2.3786  4.8369 -0.7853
  736MOL0     H99333   3.923   8.328   1.144 -1.5851 -0.4665 -3.4893
  736MOL0     H99334   4.174   8.495   1.160 -0.6388  0.1404  1.3686
  736MOL0     H99335   4.084   8.467   1.315 -0.3432  1.0061  0.3631
  736MOL0     H99336   4.097   8.229   1.270 -1.9449  3.2955  0.8573
  736MOL0     H99337   4.263   8.311   1.298  0.8038 -0.2373  0.0133
  736MOL0     H99338   4.170   8.273   1.014 -1.1019  2.7389  0.5998
  736MOL0     H99339   4.334   8.297   1.085 -0.5677  2.9844  2.8004
  736MOL0     H99340   4.049   8.633   1.599 -0.4569 -1.0660 -1.5653
  736MOL0     H99341   3.994   8.590   1.835 -0.1401 -2.5904 -0.2137
  736MOL0     H99342   3.978   8.712   2.280 -0.3696  0.9655 -0.6728
  736MOL0     H99343   3.952   8.609   2.495 -1.9441 -0.3563  1.8901
  736MOL0     H99344   4.286   8.062   3.379 -0.0708  0.6691 -0.7011
  736MOL0     H99345   4.285   8.299   3.283  0.2734  1.5119 -3.3720
  736MOL0     H99346   4.011   8.608   3.082 -1.4800  0.2473 -0.5202
  736MOL0     H99347   3.961   8.814   2.937 -0.9475  0.2733 -3.0114
  736MOL0     H99348   3.914   8.852   2.709  0.5427 -0.1318  1.1714
  736MOL0     H99349   4.016   8.885   2.567  2.1492 -3.6740  1.1772
  736MOL0     H99350   3.841   9.072   2.660  0.2670 -0.4969  3.0125
  736MOL0     H99351   3.997   9.121   2.581  1.2219  3.2216  1.9934
  736MOL0     H99352   4.098   9.134   2.807 -0.8103 -4.2192  2.5784
  736MOL0     H99353   3.946   9.081   2.870  0.9317 -2.6772 -1.4090
  736MOL0     H99354   4.003   9.310   2.876  2.0113 -2.6301  1.2246
  736MOL0     H99355   4.006   9.334   2.698  0.3178 -1.3324  1.7951
  736MOL0     H99356   3.591   9.322   2.718 -2.2268 -0.9203  2.3894
  736MOL0     H99357   4.329   8.753   2.734  0.2145 -0.2212  0.1945
  736MOL0     H99358   4.479   8.529   2.984  2.1917 -0.5613 -0.4386
  736MOL0     H99359   4.424   8.468   2.818 -0.8931  1.6810 -1.3393
  736MOL0     H99360   4.484   8.625   2.831  1.1309 -1.3576  0.0154
  737MOL0     O99361   2.059   5.208   7.354 -0.9388 -0.6792  0.9754
  737MOL0     C99362   2.165   5.148   7.327 -0.2503 -1.0421 -0.1371
  737MOL0     O99363   2.258   5.095   7.410  0.1423  0.2041 -0.5080
  737MOL0     C99364   2.280   5.147   7.536 -0.8129 -0.0076 -0.5419
  737MOL0     C99365   2.316   5.069   7.639 -1.1343  0.3628 -0.5330
  737MOL0     C99366   2.337   5.123   7.768  0.2490  0.6155  0.4050
  737MOL0     C99367   2.330   5.252   7.795  1.2741 -1.1017 -0.0610
  737MOL0     O99368   2.361   5.306   7.918 -0.1202 -0.9039 -0.5116
  737MOL0     C99369   2.330   5.231   8.029 -0.7017  1.1337 -0.5122
  737MOL0     C99370   2.325   5.314   8.156 -0.4661 -0.2158  0.1334
  737MOL0     C99371   2.217   5.435   8.155 -0.3506  0.7537  0.2982
  737MOL0     C99372   2.076   5.397   8.100  0.2929 -0.1187 -0.2012
  737MOL0     C99373   1.977   5.520   8.097 -0.1341 -1.0714 -0.7504
  737MOL0     C99374   1.850   5.479   8.021  0.1081  0.1131  0.5221
  737MOL0     C99375   1.768   5.607   8.009 -0.2471 -0.4354 -0.2727
  737MOL0     C99376   1.644   5.560   7.918 -0.0192 -0.5726  0.4997
  737MOL0     N99377   1.525   5.511   7.990  0.3087  0.1208 -0.0412
  737MOL0     C99378   1.446   5.595   8.072  0.2428 -0.2410  1.0441
  737MOL0     C99379   1.401   5.516   8.177  1.2782 -0.1587 -0.4512
  737MOL0     C99380   1.333   5.574   8.308  0.0765  0.1353  0.8017
  737MOL0     C99381   1.184   5.555   8.287  0.4912 -0.2105 -0.0912
  737MOL0     C99382   1.106   5.646   8.395 -0.6347 -0.0588  0.0350
  737MOL0     C99383   1.023   5.558   8.485  0.3415  0.1516  0.4133
  737MOL0     O99384   1.077   5.577   8.610 -0.2417  0.9943 -0.6542
  737MOL0     C99385   0.993   5.657   8.695  0.0297  0.2436 -0.1235
  737MOL0     C99386   0.898   5.602   8.780  0.1973 -0.1793 -0.5195
  737MOL0     C99387   0.826   5.688   8.868 -0.3239  0.1741 -0.7293
  737MOL0     C99388   0.856   5.821   8.870 -0.1740 -0.9130  0.5161
  737MOL0     C99389   0.771   5.915   8.954 -0.1752 -1.0653 -0.2832
  737MOL0     O99390   0.735   6.040   8.901 -1.0583 -0.0499  0.7104
  737MOL0     C99391   0.666   6.136   8.980  0.5449  0.4931 -0.0342
  737MOL0     C99392   0.580   6.218   8.916 -0.3364  0.2801  0.9246
  737MOL0     C99393   0.510   6.324   8.988  0.1303  0.7611  0.1517
  737MOL0     C99394   0.541   6.352   9.123  0.3578  0.3488  1.0243
  737MOL0     O99395   0.466   6.443   9.188 -0.1931 -0.2088 -0.1506
  737MOL0     C99396   0.468   6.458   9.330  0.2706  0.6962  0.2676
  737MOL0     C99397   0.378   6.577   9.362 -0.2759 -0.4949 -1.1851
  737MOL0     C99398   0.457   6.707   9.330  0.4029 -0.1033  0.0039
  737MOL0     C99399   0.369   6.821   9.293 -0.0742  0.7124  0.2004
  737MOL0     C99400   0.257   6.856   9.391  0.1108  0.2462  0.1792
  737MOL0     C99401   0.191   6.999   9.377  0.0801  0.8587 -0.3761
  737MOL0     C99402   0.097   7.033   9.482  0.3555 -0.6777  0.8527
  737MOL0     C99403  -0.006   6.935   9.536  0.1423 -0.0335  0.0631
  737MOL0    Cl99404  -0.122   7.031   9.628 -0.4162  0.0799 -0.7551
  737MOL0     C99405   0.635   6.271   9.183 -0.4484  0.3594  0.4138
  737MOL0     C99406   0.696   6.160   9.118  0.4802  0.6549 -0.0521
  737MOL0     O99407   0.730   5.876   9.066 -0.9186 -0.2217 -0.0003
  737MOL0     C99408   0.959   5.873   8.785  0.7694  0.3317 -0.4308
  737MOL0     C99409   1.026   5.798   8.699 -0.1907 -0.5444 -0.4057
  737MOL0     N99410   1.444   5.384   8.148 -0.2610  0.8198  0.1674
  737MOL0     N99411   1.512   5.382   8.031  0.0168  0.1686 -0.1703
  737MOL0     C99412   2.284   5.336   7.695  0.3098  0.3213  0.4482
  737MOL0     C99413   2.252   5.284   7.567 -0.8118  0.5679 -0.2016
  737MOL0     C99414   2.189   5.141   7.176  0.1556  1.1244 -0.9649
  737MOL0     C99415   2.323   5.147   7.143 -0.1295 -0.1861  1.2126
  737MOL0     C99416   2.367   5.152   7.013 -0.1398  0.4697 -0.0994
  737MOL0     C99417   2.275   5.144   6.905  0.2210 -0.0415  0.1960
  737MOL0     O99418   2.329   5.157   6.777 -0.7132 -0.1059 -0.3893
  737MOL0     C99419   2.246   5.111   6.675 -0.1923 -0.2330  0.5703
  737MOL0     C99420   2.200   5.210   6.571 -0.4733 -0.6274 -0.7899
  737MOL0     C99421   2.078   5.150   6.488  0.1852  0.8571  0.1327
  737MOL0     C99422   2.053   5.221   6.356 -1.2986  1.0264  0.8861
  737MOL0     C99423   2.029   5.130   6.239 -0.7425  0.0246  1.4772
  737MOL0     C99424   2.023   5.045   6.149 -0.4694 -0.7338 -0.1650
  737MOL0     C99425   2.135   5.125   6.939 -0.3887  0.3526 -0.2204
  737MOL0     C99426   2.096   5.119   7.080 -0.1985 -0.7850  0.1083
  737MOL0     C99427   1.951   5.105   7.104  0.6113  0.0091 -0.4456
  737MOL0     H99428   2.344   4.965   7.627 -0.2026  0.3641  1.3552
  737MOL0     H99429   2.360   5.054   7.848 -0.0024 -0.2934 -0.2884
  737MOL0     H99430   2.233   5.180   8.030 -0.4099  0.4819  1.8761
  737MOL0     H99431   2.412   5.160   8.042 -1.0885  0.5835 -1.0261
  737MOL0     H99432   2.426   5.343   8.185  0.0150 -2.3511  0.7675
  737MOL0     H99433   2.297   5.250   8.240  0.6494 -0.2359  0.4971
  737MOL0     H99434   2.263   5.511   8.091 -1.1098  1.2801  0.3643
  737MOL0     H99435   2.223   5.488   8.251 -2.2859 -0.1948  0.9878
  737MOL0     H99436   2.082   5.363   7.996  2.1253 -1.5707  0.3422
  737MOL0     H99437   2.035   5.322   8.168 -1.8621 -0.3921 -1.6846
  737MOL0     H99438   1.961   5.539   8.203 -3.4849 -1.2705 -1.1148
  737MOL0     H99439   2.023   5.607   8.050 -0.4806 -1.3997 -1.7163
  737MOL0     H99440   1.883   5.441   7.923  4.8118  1.7252  1.1991
  737MOL0     H99441   1.803   5.399   8.079 -1.2751 -0.2708 -1.0307
  737MOL0     H99442   1.833   5.683   7.965  2.4080  0.1523  3.9886
  737MOL0     H99443   1.748   5.647   8.109 -0.6239 -1.6739  0.1713
  737MOL0     H99444   1.607   5.648   7.865  0.8193 -0.1463  0.6066
  737MOL0     H99445   1.675   5.485   7.845 -4.1595 -1.2849 -0.7872
  737MOL0     H99446   1.453   5.704   8.069  3.4110 -0.3201  1.7695
  737MOL0     H99447   1.373   5.527   8.398  0.1808 -0.8061  0.2741
  737MOL0     H99448   1.354   5.681   8.317  1.2112 -0.0137  0.1804
  737MOL0     H99449   1.141   5.574   8.189 -0.7709 -1.8098  0.1028
  737MOL0     H99450   1.165   5.448   8.298  0.0330 -0.1504 -0.2908
  737MOL0     H99451   1.038   5.710   8.338  2.0541  3.9464  0.9354
  737MOL0     H99452   1.174   5.712   8.450 -0.0552 -1.7812  1.4893
  737MOL0     H99453   1.015   5.452   8.463  2.2984 -0.4870  2.3992
  737MOL0     H99454   0.921   5.598   8.483  0.6475  0.9312 -0.1640
  737MOL0     H99455   0.883   5.495   8.780  1.4203 -0.3812  0.2869
  737MOL0     H99456   0.748   5.649   8.932 -0.8389  2.5891  0.1790
  737MOL0     H99457   0.566   6.203   8.809 -0.1293  0.1011  0.9220
  737MOL0     H99458   0.430   6.385   8.948  0.2055 -0.3269 -1.7518
  737MOL0     H99459   0.429   6.365   9.371 -0.9210  0.8047 -0.5822
  737MOL0     H99460   0.567   6.493   9.360  0.7451  2.7752 -3.1317
  737MOL0     H99461   0.285   6.586   9.304 -1.0351 -0.0389  0.0829
  737MOL0     H99462   0.365   6.591   9.469  1.3099  1.1161 -1.1578
  737MOL0     H99463   0.517   6.740   9.415  0.4181  2.4321 -0.9160
  737MOL0     H99464   0.526   6.692   9.247  0.9321 -0.1034  0.4355
  737MOL0     H99465   0.325   6.798   9.195  0.7724 -0.3751  0.0596
  737MOL0     H99466   0.425   6.912   9.267  1.5511 -0.7138 -1.5415
  737MOL0     H99467   0.301   6.861   9.491  0.4540  1.6868 -0.0233
  737MOL0     H99468   0.183   6.776   9.385  0.6706 -0.2222 -0.8160
  737MOL0     H99469   0.275   7.067   9.396  0.7195 -0.3851  1.6057
  737MOL0     H99470   0.144   7.006   9.279 -0.9066 -0.0272  0.0130
  737MOL0     H99471   0.038   7.111   9.433  1.2110 -0.7546 -0.3548
  737MOL0     H99472   0.148   7.081   9.567  1.8710  3.0130 -1.8715
  737MOL0     H99473  -0.061   6.870   9.468 -0.3370  2.4709 -2.0822
  737MOL0     H99474   0.055   6.860   9.588  2.7675  0.0071 -2.6824
  737MOL0     H99475   0.659   6.283   9.288 -2.2617 -2.9819  1.3659
  737MOL0     H99476   0.765   6.099   9.175 -0.2693 -2.0611 -1.8506
  737MOL0     H99477   0.978   5.979   8.796 -0.5460  0.5477 -0.0157
  737MOL0     H99478   1.104   5.830   8.631 -1.2268  2.4131 -0.3313
  737MOL0     H99479   2.284   5.444   7.701 -2.0121  0.3724  0.4671
  737MOL0     H99480   2.226   5.359   7.494  0.8370  4.1606  2.5791
  737MOL0     H99481   2.396   5.151   7.223  0.9484 -1.3725  0.3243
  737MOL0     H99482   2.470   5.160   6.979 -0.4956  0.6365 -1.1977
  737MOL0     H99483   2.158   5.057   6.710 -2.5047  1.9749 -1.4477
  737MOL0     H99484   2.308   5.039   6.620 -1.7084  0.2540 -1.9239
  737MOL0     H99485   2.290   5.233   6.514  2.8408 -2.7818  3.0243
  737MOL0     H99486   2.174   5.303   6.624  1.5205 -0.0576 -0.7184
  737MOL0     H99487   1.984   5.154   6.544  0.1292  2.4627 -0.0273
  737MOL0     H99488   2.101   5.045   6.469  0.2587  0.4810  2.1119
  737MOL0     H99489   1.963   5.278   6.379 -1.6072  0.4645  1.0770
  737MOL0     H99490   2.144   5.277   6.333 -0.7777 -0.3606 -0.5947
  737MOL0     H99491   1.980   4.971   6.085 -2.7914 -0.6670  1.1926
  737MOL0     H99492   2.065   5.133   6.856 -1.2922  1.0159  0.5847
  737MOL0     H99493   1.904   5.201   7.128 -1.6576 -0.5246 -2.3743
  737MOL0     H99494   1.890   5.072   7.020  0.0200  2.8024 -1.2012
  737MOL0     H99495   1.932   5.044   7.194 -0.7739  0.7943 -0.1796
  738MOL0     O99496   1.180  11.255   8.284  0.3344  0.3501  0.2841
  738MOL0     C99497   1.286  11.191   8.321  0.0345 -0.1552 -1.0767
  738MOL0     O99498   1.295  11.052   8.337 -0.1209 -0.0783 -0.0322
  738MOL0     C99499   1.174  10.990   8.333  0.2725 -0.0842 -0.0597
  738MOL0     C99500   1.059  11.029   8.390  0.1749  0.1200 -0.4540
  738MOL0     C99501   0.949  10.945   8.400 -0.1357  0.7164  0.1626
  738MOL0     C99502   0.961  10.811   8.356  0.3681  0.2718 -0.2509
  738MOL0     O99503   0.844  10.737   8.356 -0.2752 -0.3540  0.4744
  738MOL0     C99504   0.855  10.610   8.294 -0.2086  0.2424  0.0160
  738MOL0     C99505   0.723  10.539   8.286 -0.4992 -0.0550 -0.3119
  738MOL0     C99506   0.707  10.431   8.179 -0.4754  0.3645  0.1712
  738MOL0     C99507   0.569  10.388   8.162  0.1858  0.3471 -0.8933
  738MOL0     C99508   0.549  10.273   8.053 -0.6047  0.4210 -0.0553
  738MOL0     C99509   0.590  10.137   8.103  0.7083 -0.8516  0.3192
  738MOL0     C99510   0.551  10.025   8.004  0.8644 -0.8168 -0.6012
  738MOL0     C99511   0.587   9.880   8.048 -0.0960 -0.2352 -0.3977
  738MOL0     N99512   0.528   9.782   7.950 -0.3632  0.1728  0.2633
  738MOL0     C99513   0.394   9.782   7.908  0.0572 -0.4432 -0.9597
  738MOL0     C99514   0.390   9.688   7.818  0.0628  0.7925  0.5778
  738MOL0     C99515   0.276   9.681   7.724 -0.6281  0.4090 -0.0255
  738MOL0     C99516   0.278   9.774   7.598 -0.8799  0.1279 -0.6244
  738MOL0     C99517   0.178   9.733   7.482 -0.5116  0.0918 -0.0971
  738MOL0     C99518   0.024   9.730   7.519  0.6438  0.0554 -0.1439
  738MOL0     O99519   0.012   9.630   7.619  0.1557 -0.2113  0.2487
  738MOL0     C99520  -0.105   9.567   7.641  0.3751 -0.1685  0.0046
  738MOL0     C99521  -0.080   9.454   7.739  0.6633 -0.3804 -0.0481
  738MOL0     C99522  -0.181   9.370   7.777 -1.7568  0.7716  0.0375
  738MOL0     C99523  -0.306   9.388   7.711  0.8638  0.3822 -0.4992
  738MOL0     C99524  -0.412   9.298   7.749 -1.0559 -0.6438  0.3350
  738MOL0     O99525  -0.372   9.188   7.829 -0.0534  0.2331 -0.1567
  738MOL0     C99526  -0.464   9.093   7.838  0.7166  0.1532 -0.1119
  738MOL0     C99527  -0.434   8.961   7.776  0.1690 -0.2085 -0.2881
  738MOL0     C99528  -0.532   8.861   7.768  0.5745  0.7990 -0.0100
  738MOL0     C99529  -0.657   8.885   7.829  0.1226 -0.0510 -0.0582
  738MOL0     O99530  -0.750   8.792   7.810 -0.7962  0.3291 -0.2843
  738MOL0     C99531  -0.810   8.727   7.926  0.4789  0.4322  0.2176
  738MOL0     C99532  -0.701   8.648   8.016  0.7109 -0.2052 -0.2737
  738MOL0     C99533  -0.604   8.559   7.939  0.3277  0.4390 -0.0398
  738MOL0     C99534  -0.649   8.419   7.894 -0.5256  0.0382  0.1245
  738MOL0     C99535  -0.557   8.360   7.778  1.0247  0.6579 -0.1419
  738MOL0     C99536  -0.599   8.208   7.756  0.0586  0.9547  0.0614
  738MOL0     C99537  -0.689   8.192   7.639  0.1894 -0.7705  0.1383
  738MOL0     C99538  -0.743   8.041   7.628  0.7771 -0.6797 -0.2422
  738MOL0    Cl99539  -0.611   7.925   7.635 -0.0142  0.1552  0.0758
  738MOL0     C99540  -0.692   9.008   7.884 -0.1096 -0.2826 -0.2151
  738MOL0     C99541  -0.596   9.113   7.894  0.1412  0.2138  0.7200
  738MOL0     O99542  -0.523   9.317   7.707 -0.7166  0.8751  0.1675
  738MOL0     C99543  -0.325   9.495   7.615 -0.4101 -0.0543  0.3754
  738MOL0     C99544  -0.226   9.586   7.580 -0.1791  0.5807 -0.1363
  738MOL0     N99545   0.519   9.641   7.787 -0.4359 -0.4319 -0.5788
  738MOL0     N99546   0.600   9.691   7.870  0.1339 -0.3435 -0.3981
  738MOL0     C99547   1.085  10.760   8.297 -0.3068 -0.9033 -0.0554
  738MOL0     C99548   1.191  10.849   8.285  1.1680  0.3605  0.2231
  738MOL0     C99549   1.419  11.264   8.335  0.1664 -0.6038 -0.2143
  738MOL0     C99550   1.455  11.354   8.233  0.0907 -0.2159  0.3397
  738MOL0     C99551   1.568  11.433   8.232 -0.2235  0.9335  0.0618
  738MOL0     C99552   1.649  11.424   8.337 -1.1917  0.1895  0.9932
  738MOL0     O99553   1.766  11.503   8.337  0.2900 -0.5643  0.2080
  738MOL0     C99554   1.887  11.442   8.277  0.2245 -0.1500  0.9265
  738MOL0     C99555   1.910  11.511   8.142  0.1052  0.4075  0.0369
  738MOL0     C99556   2.020  11.443   8.048  0.1478  0.1002  0.4668
  738MOL0     C99557   2.050  11.527   7.924  0.6349  0.5452  1.0694
  738MOL0     C99558   1.935  11.505   7.834 -0.3180 -0.4227 -0.0473
  738MOL0     C99559   1.837  11.498   7.762  0.7847  0.0276 -0.1811
  738MOL0     C99560   1.620  11.339   8.440  0.3050  0.5347 -0.9621
  738MOL0     C99561   1.505  11.255   8.440 -0.6280 -0.5152  0.7297
  738MOL0     C99562   1.490  11.171   8.567 -0.2184 -0.2195  0.4119
  738MOL0     H99563   1.056  11.118   8.451  0.1975 -2.7589  4.2789
  738MOL0     H99564   0.856  10.979   8.444 -0.7367 -2.3556  1.5293
  738MOL0     H99565   0.880  10.635   8.191 -0.7055  2.4027  0.3631
  738MOL0     H99566   0.929  10.541   8.335 -1.5621 -1.3702 -0.1635
  738MOL0     H99567   0.640  10.605   8.257  0.0482  0.2687 -1.1893
  738MOL0     H99568   0.713  10.506   8.390 -2.1014  1.0542 -0.0680
  738MOL0     H99569   0.761  10.338   8.200 -1.0016 -0.1015 -0.4797
  738MOL0     H99570   0.747  10.474   8.086  4.1623 -0.3256  1.6021
  738MOL0     H99571   0.533  10.355   8.260  2.2761 -0.3492 -0.3166
  738MOL0     H99572   0.507  10.468   8.119 -0.7883  0.3624  0.4948
  738MOL0     H99573   0.443  10.263   8.025 -0.5802 -1.3910  0.3688
  738MOL0     H99574   0.611  10.303   7.968 -0.6797  1.9194  0.3867
  738MOL0     H99575   0.698  10.129   8.116  0.8898 -0.3475 -0.7961
  738MOL0     H99576   0.547  10.106   8.199  1.0739 -0.8746  0.4779
  738MOL0     H99577   0.575  10.050   7.900 -0.5633  1.4315 -0.4401
  738MOL0     H99578   0.443  10.015   8.015  0.7062 -1.8640 -2.5923
  738MOL0     H99579   0.692   9.859   8.067 -0.8413 -3.4809  0.7795
  738MOL0     H99580   0.533   9.866   8.143 -1.4016 -2.3494 -1.3773
  738MOL0     H99581   0.323   9.862   7.928  1.2575  0.2934  0.5718
  738MOL0     H99582   0.276   9.576   7.692 -0.4821  0.3914  0.0372
  738MOL0     H99583   0.187   9.705   7.784  1.1119  2.4335  1.8808
  738MOL0     H99584   0.269   9.878   7.633 -1.1582  1.2929 -3.7931
  738MOL0     H99585   0.377   9.774   7.551 -1.2265 -2.8770 -1.5387
  738MOL0     H99586   0.210   9.631   7.459  1.6118  0.7610 -0.3478
  738MOL0     H99587   0.181   9.800   7.395 -1.9526  0.3603  0.0414
  738MOL0     H99588  -0.044   9.724   7.434 -2.6414  2.2338  2.0944
  738MOL0     H99589  -0.001   9.826   7.566 -0.9734 -0.7550  0.7019
  738MOL0     H99590   0.009   9.479   7.797  1.7662  2.6169 -2.7498
  738MOL0     H99591  -0.170   9.310   7.866 -1.1852  1.0269  0.1404
  738MOL0     H99592  -0.332   8.952   7.739  2.4131  0.3074  4.9978
  738MOL0     H99593  -0.539   8.771   7.709 -4.2229  2.1516 -1.9693
  738MOL0     H99594  -0.864   8.797   7.990  0.5508 -0.3471  1.1328
  738MOL0     H99595  -0.876   8.655   7.875  0.3340  1.7444 -1.5568
  738MOL0     H99596  -0.658   8.730   8.074 -1.8526  0.5162  0.7317
  738MOL0     H99597  -0.752   8.588   8.092  0.5243  1.8954  1.3450
  738MOL0     H99598  -0.579   8.617   7.849 -0.4151 -1.5424 -1.5914
  738MOL0     H99599  -0.514   8.557   8.001  1.4893  2.9687 -1.4721
  738MOL0     H99600  -0.749   8.412   7.849  0.0372 -2.6078 -0.8922
  738MOL0     H99601  -0.648   8.349   7.978  1.1033  0.6921  0.6766
  738MOL0     H99602  -0.455   8.359   7.817  1.4352  0.2765 -1.1810
  738MOL0     H99603  -0.557   8.419   7.686 -3.1286  1.1859 -0.0062
  738MOL0     H99604  -0.504   8.161   7.732 -0.8025 -0.7079 -0.2272
  738MOL0     H99605  -0.637   8.164   7.849 -0.5714 -0.3777 -0.8139
  738MOL0     H99606  -0.625   8.209   7.552  0.1305 -0.1535  0.2148
  738MOL0     H99607  -0.767   8.268   7.630  1.1698  0.2696  0.2979
  738MOL0     H99608  -0.803   8.007   7.714 -1.4653 -4.4538 -3.0038
  738MOL0     H99609  -0.796   8.031   7.533  0.2573 -4.9059  0.3231
  738MOL0     H99610  -0.792   9.032   7.918 -0.0290  3.3209 -1.9823
  738MOL0     H99611  -0.640   9.208   7.923 -0.6367 -0.3678  1.4894
  738MOL0     H99612  -0.425   9.507   7.573 -1.3514 -4.5084  0.7770
  738MOL0     H99613  -0.247   9.663   7.507 -3.0169 -1.0096 -1.1617
  738MOL0     H99614   1.106  10.659   8.264  1.5557 -1.0659  1.4929
  738MOL0     H99615   1.291  10.817   8.258  1.4485 -1.3487  2.9114
  738MOL0     H99616   1.386  11.363   8.150 -0.1978  1.8177  0.7546
  738MOL0     H99617   1.596  11.495   8.148  1.8603  0.0198  0.0266
  738MOL0     H99618   1.868  11.335   8.259 -1.5429  0.3947 -0.7338
  738MOL0     H99619   1.979  11.461   8.333  0.8835  0.0061 -0.1868
  738MOL0     H99620   1.931  11.618   8.156  0.7719  0.0406  2.1978
  738MOL0     H99621   1.813  11.502   8.091 -1.0936  2.3093  1.8282
  738MOL0     H99622   2.006  11.338   8.022 -0.8600  0.9191 -2.7262
  738MOL0     H99623   2.105  11.452   8.116 -0.9138  0.6553  1.7551
  738MOL0     H99624   2.054  11.632   7.957  0.5762  0.4072  1.5284
  738MOL0     H99625   2.148  11.504   7.881 -0.1582 -1.9302  0.4601
  738MOL0     H99626   1.753  11.479   7.698  0.2852 -2.8579  1.1559
  738MOL0     H99627   1.691  11.335   8.522 -1.7083 -3.6898  0.8420
  738MOL0     H99628   1.383  11.179   8.590  0.2345  0.9176  2.3396
  738MOL0     H99629   1.524  11.069   8.549  1.1307 -0.2831  2.9116
  738MOL0     H99630   1.532  11.208   8.661 -0.3962 -0.1794  0.4772
  739MOL0     O99631   1.066   9.412   1.838  0.1594  0.6567 -0.1603
  739MOL0     C99632   0.979   9.396   1.749 -0.4152 -0.4753  0.3715
  739MOL0     O99633   0.852   9.459   1.751 -0.5689  0.7993 -0.3622
  739MOL0     C99634   0.825   9.538   1.859 -0.4632  1.2579  0.6628
  739MOL0     C99635   0.834   9.492   1.987  0.3011  1.1889  0.8020
  739MOL0     C99636   0.783   9.571   2.099  0.0554 -0.0976 -0.0964
  739MOL0     C99637   0.723   9.702   2.078 -0.2928  0.9764  1.3312
  739MOL0     O99638   0.674   9.772   2.180  1.2666  0.9371  0.0199
  739MOL0     C99639   0.578   9.882   2.152 -0.3328 -0.1612  0.0899
  739MOL0     C99640   0.491   9.894   2.273 -0.6537 -0.1637  0.1720
  739MOL0     C99641   0.586   9.907   2.391  0.2022  0.5419  0.1211
  739MOL0     C99642   0.510   9.938   2.520 -0.1282  0.7469  0.5976
  739MOL0     C99643   0.566  10.069   2.573  0.6981  0.2675  0.2812
  739MOL0     C99644   0.504  10.109   2.708 -0.1024 -0.2075 -0.2753
  739MOL0     C99645   0.552  10.256   2.733  0.7390  0.2244 -0.1946
  739MOL0     C99646   0.709  10.269   2.755 -0.0325  0.0260  0.2598
  739MOL0     N99647   0.747  10.397   2.808  0.0227 -0.1079  0.5333
  739MOL0     C99648   0.828  10.414   2.923 -0.5124 -1.1131 -0.0005
  739MOL0     C99649   0.837  10.548   2.946 -0.1104 -0.3306  0.1948
  739MOL0     C99650   0.914  10.621   3.050 -0.0716  0.2936 -0.1053
  739MOL0     C99651   0.834  10.658   3.169  0.1547 -0.7747  0.7244
  739MOL0     C99652   0.922  10.707   3.283  0.5184 -0.0343 -0.0400
  739MOL0     C99653   0.837  10.776   3.385 -0.2283 -0.4133 -0.4212
  739MOL0     O99654   0.928  10.830   3.483 -0.5227 -0.4741  0.1861
  739MOL0     C99655   0.883  10.878   3.601  0.1263  0.0772 -0.9546
  739MOL0     C99656   0.983  10.931   3.674 -0.0206 -0.6009 -0.2483
  739MOL0     C99657   0.957  11.006   3.792  0.1614 -0.9199  0.7949
  739MOL0     C99658   0.826  11.013   3.847 -0.7315  0.5831  0.0813
  739MOL0     C99659   0.801  11.081   3.980 -0.1529  0.1695 -0.1036
  739MOL0     O99660   0.904  11.124   4.055  0.3836 -0.3336  0.2047
  739MOL0     C99661   0.880  11.183   4.175  0.1778  0.2669  0.2596
  739MOL0     C99662   0.959  11.295   4.204  0.6198  0.2389 -0.2530
  739MOL0     C99663   0.943  11.367   4.321  0.5277 -1.0693 -0.3053
  739MOL0     C99664   0.838  11.342   4.414  0.3779 -0.4852 -0.8064
  739MOL0     O99665   0.815  11.445   4.508  0.9341 -0.4633 -0.4557
  739MOL0     C99666   0.690  11.450   4.581 -0.1052  0.3236  1.0628
  739MOL0     C99667   0.585  11.519   4.504  0.5140 -0.4924 -0.9843
  739MOL0     C99668   0.629  11.667   4.495  0.0214 -0.0315  0.2205
  739MOL0     C99669   0.507  11.751   4.479 -0.0262  0.1407 -0.6790
  739MOL0     C99670   0.550  11.895   4.446  0.5976 -0.5643 -0.3400
  739MOL0     C99671   0.429  11.992   4.433 -0.1573  0.1941  1.1697
  739MOL0     C99672   0.373  12.024   4.572 -0.6366 -0.1783 -0.1372
  739MOL0     C99673   0.237  12.084   4.565  0.0679  0.3310  0.3063
  739MOL0    Cl99674   0.118  11.949   4.581  0.0426  0.0520  0.3942
  739MOL0     C99675   0.759  11.227   4.384 -0.0218 -0.0069  0.5387
  739MOL0     C99676   0.771  11.153   4.264 -0.6016  0.1694 -1.2591
  739MOL0     O99677   0.683  11.098   4.004  0.4604  0.5721 -0.7106
  739MOL0     C99678   0.728  10.955   3.771 -0.1783  0.0739  1.0773
  739MOL0     C99679   0.749  10.889   3.647 -0.1750 -0.6117 -0.1433
  739MOL0     N99680   0.769  10.606   2.834 -0.5958  0.1746 -0.2386
  739MOL0     N99681   0.714  10.517   2.754 -0.9856 -0.2348  0.0672
  739MOL0     C99682   0.732   9.755   1.947  0.9236  1.1039 -0.1434
  739MOL0     C99683   0.780   9.672   1.835 -0.0038 -0.5088 -0.5480
  739MOL0     C99684   1.008   9.325   1.623  0.2959  0.0284 -0.6399
  739MOL0     C99685   0.899   9.273   1.551 -0.3839 -0.6058  0.5748
  739MOL0     C99686   0.923   9.202   1.429  0.6367 -0.1408  0.5322
  739MOL0     C99687   1.052   9.179   1.392 -0.6769  0.4980  0.4016
  739MOL0     O99688   1.086   9.108   1.275  0.2363 -0.4692  0.2047
  739MOL0     C99689   1.007   9.090   1.153 -0.2488  1.1748  0.4970
  739MOL0     C99690   1.098   9.029   1.045 -1.4292  0.2122  0.7734
  739MOL0     C99691   1.031   9.006   0.904 -0.0620 -0.0139 -0.7995
  739MOL0     C99692   1.020   9.135   0.820  0.5024 -0.0844 -0.4360
  739MOL0     C99693   0.898   9.216   0.846 -1.0988  0.7457 -1.1725
  739MOL0     C99694   0.807   9.280   0.897  0.4257 -0.2464 -0.3036
  739MOL0     C99695   1.163   9.215   1.466 -0.0853  0.2437  0.3825
  739MOL0     C99696   1.141   9.282   1.582 -0.5973  0.4151 -0.2251
  739MOL0     C99697   1.257   9.308   1.668 -0.1892 -0.6067 -0.3620
  739MOL0     H99698   0.872   9.390   1.986  1.9823  1.7766  0.9565
  739MOL0     H99699   0.785   9.519   2.194  0.0113 -1.7863 -0.9829
  739MOL0     H99700   0.634   9.975   2.135  0.2173 -0.2036  1.5276
  739MOL0     H99701   0.501   9.872   2.075 -3.7701  1.5749  2.9691
  739MOL0     H99702   0.418   9.814   2.279 -0.1641 -0.8923 -2.2705
  739MOL0     H99703   0.444   9.993   2.276  2.1968  1.4871 -2.5424
  739MOL0     H99704   0.661   9.983   2.367 -0.8480  1.6140  0.1720
  739MOL0     H99705   0.639   9.816   2.420 -0.2265  0.5589  0.9782
  739MOL0     H99706   0.405   9.933   2.491  0.6933  0.9948 -2.8540
  739MOL0     H99707   0.530   9.854   2.587 -3.9405 -2.4836 -1.8957
  739MOL0     H99708   0.671  10.039   2.583  0.3421 -1.6553 -1.2256
  739MOL0     H99709   0.572  10.151   2.501  0.9926 -1.8428 -2.2310
  739MOL0     H99710   0.395  10.100   2.710 -0.3081 -0.1062  5.6517
  739MOL0     H99711   0.546  10.044   2.785 -0.6719 -2.1776 -1.5627
  739MOL0     H99712   0.507  10.283   2.828 -1.6789 -2.7150 -0.3439
  739MOL0     H99713   0.528  10.320   2.648  2.7083 -1.2814 -2.0123
  739MOL0     H99714   0.733  10.182   2.817 -0.3703 -1.6706 -1.8566
  739MOL0     H99715   0.759  10.257   2.658  0.7031 -2.1677  0.8432
  739MOL0     H99716   0.862  10.334   2.988  1.3780 -1.3727 -1.2491
  739MOL0     H99717   0.995  10.552   3.074 -1.3885 -2.4662 -2.9154
  739MOL0     H99718   0.959  10.708   3.001  1.9749 -0.8222 -0.2961
  739MOL0     H99719   0.757  10.732   3.142  0.9744  0.8128  2.4844
  739MOL0     H99720   0.787  10.567   3.207  1.9697 -2.8590 -1.6872
  739MOL0     H99721   1.007  10.770   3.253  2.2322 -0.5931  3.1472
  739MOL0     H99722   0.979  10.621   3.320  3.2189  0.1308 -3.3656
  739MOL0     H99723   0.775  10.700   3.433  2.6891 -1.5734  1.8297
  739MOL0     H99724   0.768  10.854   3.351 -0.2057 -1.2206 -2.4508
  739MOL0     H99725   1.085  10.936   3.638  0.2298 -1.1003  0.3605
  739MOL0     H99726   1.049  11.027   3.846  0.3050  0.4048  0.0552
  739MOL0     H99727   1.043  11.313   4.138  2.0227  2.6873  2.0438
  739MOL0     H99728   1.015  11.446   4.337  2.8735 -2.8255 -1.6019
  739MOL0     H99729   0.678  11.345   4.607  2.4243  0.3735  2.9163
  739MOL0     H99730   0.700  11.513   4.670 -0.0732  0.5718  0.8838
  739MOL0     H99731   0.579  11.473   4.405  2.9030 -0.8799 -1.0240
  739MOL0     H99732   0.496  11.490   4.561  0.2155 -1.0600 -1.7256
  739MOL0     H99733   0.695  11.705   4.573  2.6374 -0.7305 -1.5489
  739MOL0     H99734   0.683  11.674   4.401  5.1622 -1.0528  2.7283
  739MOL0     H99735   0.441  11.748   4.566 -0.4139 -2.9835 -0.9482
  739MOL0     H99736   0.439  11.715   4.402 -1.4309 -2.7455  1.6938
  739MOL0     H99737   0.592  11.900   4.346 -2.6560  0.1745 -1.8041
  739MOL0     H99738   0.623  11.933   4.518  1.3248  1.6922 -2.1819
  739MOL0     H99739   0.448  12.082   4.374 -4.4587  1.7815  1.8397
  739MOL0     H99740   0.356  11.930   4.382 -0.0752  2.1143 -1.4542
  739MOL0     H99741   0.435  12.101   4.619 -1.2856 -0.1424  0.6782
  739MOL0     H99742   0.370  11.946   4.649 -0.9493  0.5135  0.5642
  739MOL0     H99743   0.222  12.148   4.652  1.4621 -1.3750  1.8833
  739MOL0     H99744   0.219  12.142   4.474 -2.9223 -1.2690 -0.2565
  739MOL0     H99745   0.661  11.215   4.431 -1.5476  3.2484 -1.5058
  739MOL0     H99746   0.693  11.083   4.239 -4.1893  4.3224 -3.1123
  739MOL0     H99747   0.624  10.949   3.801 -0.6573 -3.2987 -0.7012
  739MOL0     H99748   0.669  10.850   3.585 -0.7990  0.0032  0.2747
  739MOL0     H99749   0.694   9.854   1.925  2.6976  1.4940 -1.7338
  739MOL0     H99750   0.760   9.723   1.741  0.6847  0.8650  0.0286
  739MOL0     H99751   0.795   9.289   1.578  0.3023  2.6256  1.7933
  739MOL0     H99752   0.854   9.157   1.359  0.7273  1.3368 -0.5306
  739MOL0     H99753   0.947   9.177   1.126  0.8377  1.5026 -0.9822
  739MOL0     H99754   0.944   9.007   1.188  2.4493 -0.0096  2.8966
  739MOL0     H99755   1.130   8.929   1.076  3.1800  2.0710  2.9137
  739MOL0     H99756   1.199   9.070   1.041  0.5744 -4.0635  1.1731
  739MOL0     H99757   0.931   8.962   0.902 -0.8221  1.5388  0.3344
  739MOL0     H99758   1.096   8.939   0.847  3.7606 -0.0409  3.0250
  739MOL0     H99759   1.108   9.198   0.834  0.8973 -0.9558  1.1340
  739MOL0     H99760   1.008   9.112   0.713 -2.3885  0.4725 -0.3193
  739MOL0     H99761   0.734   9.341   0.946  1.4323  3.1290 -2.5965
  739MOL0     H99762   1.264   9.194   1.430 -0.7131  0.6046 -1.7349
  739MOL0     H99763   1.240   9.266   1.767 -3.6207  0.6470 -0.3024
  739MOL0     H99764   1.351   9.271   1.625 -0.1276 -0.7620 -0.0946
  739MOL0     H99765   1.258   9.417   1.678 -1.4393 -0.6717  0.6989
  740MOL0     O99766   1.981  10.742   5.778 -0.1986 -0.0242 -0.7726
  740MOL0     C99767   1.952  10.753   5.659 -0.4039 -0.1216 -0.5527
  740MOL0     O99768   1.828  10.790   5.606 -0.2761 -0.0119  0.2667
  740MOL0     C99769   1.753  10.852   5.691 -0.0727 -0.2968  0.5818
  740MOL0     C99770   1.642  10.781   5.740 -0.1094 -0.8715 -0.1562
  740MOL0     C99771   1.550  10.862   5.814 -0.3960  0.5860  0.4260
  740MOL0     C99772   1.567  11.000   5.832  0.3046  0.1785 -1.1947
  740MOL0     O99773   1.479  11.072   5.907 -0.3194  0.8419  0.0442
  740MOL0     C99774   1.339  11.049   5.904  0.4569 -0.8962  0.5712
  740MOL0     C99775   1.272  11.175   5.963 -0.2796 -0.1474  0.0023
  740MOL0     C99776   1.121  11.150   5.976  0.3073 -1.1082  0.9521
  740MOL0     C99777   1.085  11.065   6.098 -0.8531 -0.8860 -0.8778
  740MOL0     C99778   0.932  11.034   6.110  0.6825  0.2420 -0.4795
  740MOL0     C99779   0.903  10.931   6.220  0.1870  0.7368  0.7033
  740MOL0     C99780   0.762  10.947   6.277 -0.5865 -0.5437 -0.6147
  740MOL0     C99781   0.729  10.818   6.360  0.3429  0.5640 -0.1573
  740MOL0     N99782   0.633  10.723   6.304  1.0584  0.2823  0.3588
  740MOL0     C99783   0.544  10.740   6.197  0.1655  0.2618  0.0573
  740MOL0     C99784   0.456  10.637   6.197  0.3178  0.1085 -0.7251
  740MOL0     C99785   0.341  10.612   6.107  0.1771 -0.1077 -0.2984
  740MOL0     C99786   0.381  10.535   5.973  0.9269 -1.3365  0.1740
  740MOL0     C99787   0.473  10.615   5.875  0.7577  0.8875 -0.0491
  740MOL0     C99788   0.404  10.730   5.814  0.6730  0.2137 -0.7054
  740MOL0     O99789   0.504  10.813   5.760  0.8965  0.3155  0.2460
  740MOL0     C99790   0.547  10.779   5.634 -0.6582  0.4956  0.1297
  740MOL0     C99791   0.505  10.670   5.557 -0.1656 -0.0686  0.1042
  740MOL0     C99792   0.564  10.643   5.432 -1.1290 -0.4073 -1.0529
  740MOL0     C99793   0.657  10.738   5.374 -0.3629 -0.6175  0.3871
  740MOL0     C99794   0.710  10.727   5.235 -0.4321 -0.4121  0.5178
  740MOL0     O99795   0.681  10.619   5.150 -0.1342 -0.3682  1.1533
  740MOL0     C99796   0.748  10.629   5.033  0.1507  0.7282  0.7927
  740MOL0     C99797   0.698  10.714   4.934 -0.7772  0.4663  0.0183
  740MOL0     C99798   0.749  10.692   4.805 -0.0799 -0.5963  0.2547
  740MOL0     C99799   0.848  10.598   4.777 -0.2040  0.5515 -0.2449
  740MOL0     O99800   0.876  10.589   4.643 -0.2467 -0.8315  0.1647
  740MOL0     C99801   0.975  10.506   4.584  0.0678  0.3584  0.6763
  740MOL0     C99802   0.910  10.446   4.459  0.0497  0.7287  0.7873
  740MOL0     C99803   0.773  10.374   4.472  0.8302 -0.4588  0.0398
  740MOL0     C99804   0.725  10.295   4.353  0.0386 -0.2697  0.8722
  740MOL0     C99805   0.714  10.370   4.218  0.4362  0.4573  0.4215
  740MOL0     C99806   0.654  10.272   4.111 -0.4432  0.2015 -0.4093
  740MOL0     C99807   0.732  10.266   3.981  0.1554 -0.3584  0.4211
  740MOL0     C99808   0.797  10.134   3.949 -0.4090  0.5486 -0.4058
  740MOL0    Cl99809   0.819  10.112   3.767  0.1524 -0.3673  0.0293
  740MOL0     C99810   0.899  10.524   4.880  0.7287 -0.1664  0.2498
  740MOL0     C99811   0.853  10.540   5.005  0.2102 -0.6102  0.0351
  740MOL0     O99812   0.783  10.820   5.195 -0.0949 -0.3276 -1.0909
  740MOL0     C99813   0.690  10.854   5.453  0.5638  0.5225 -0.3428
  740MOL0     C99814   0.646  10.857   5.583  0.4154  0.5542 -0.2343
  740MOL0     N99815   0.482  10.561   6.305  0.0936  0.9212 -0.3430
  740MOL0     N99816   0.596  10.597   6.357  0.1060  0.1888  0.4993
  740MOL0     C99817   1.682  11.066   5.779  0.3294 -0.6060 -0.6849
  740MOL0     C99818   1.765  10.986   5.698 -0.0558 -0.5170  0.0867
  740MOL0     C99819   2.056  10.713   5.563  0.1985  0.0923  0.5158
  740MOL0     C99820   2.024  10.740   5.422  0.4758  0.5195  0.3591
  740MOL0     C99821   2.114  10.695   5.321 -0.9889  0.1211 -0.9661
  740MOL0     C99822   2.239  10.632   5.359  0.1750 -0.2904  0.6800
  740MOL0     O99823   2.339  10.641   5.263 -0.1436  0.8137 -0.5507
  740MOL0     C99824   2.337  10.525   5.179 -0.2295 -0.6192 -0.1457
  740MOL0     C99825   2.367  10.572   5.029 -0.6522  0.7651 -0.1854
  740MOL0     C99826   2.518  10.599   5.012 -0.6523  0.0703 -0.5616
  740MOL0     C99827   2.571  10.693   4.912  0.6152 -0.6822  0.3969
  740MOL0     C99828   2.515  10.670   4.779 -0.0673 -0.2350 -0.5428
  740MOL0     C99829   2.481  10.644   4.663 -1.1295  0.0245 -0.9490
  740MOL0     C99830   2.275  10.615   5.487  0.0360 -0.3975  0.0398
  740MOL0     C99831   2.184  10.656   5.585  0.1696 -0.3138 -0.3402
  740MOL0     C99832   2.241  10.640   5.727  0.2994  0.3600  0.3743
  740MOL0     H99833   1.611  10.678   5.734  2.0905 -1.9231  3.3762
  740MOL0     H99834   1.462  10.808   5.850 -1.1099  1.6252  0.2700
  740MOL0     H99835   1.297  11.037   5.803  2.7965  1.3520 -0.8002
  740MOL0     H99836   1.321  10.957   5.960 -0.7826  0.3188  2.3034
  740MOL0     H99837   1.287  11.249   5.884 -1.2634 -0.8759 -0.8887
  740MOL0     H99838   1.309  11.213   6.059 -1.3439  1.5024 -0.2057
  740MOL0     H99839   1.094  11.092   5.887 -0.1492 -0.0099  0.3563
  740MOL0     H99840   1.073  11.248   5.977  2.5556  0.0624  0.1763
  740MOL0     H99841   1.133  10.969   6.080  0.3349 -0.4062 -0.3680
  740MOL0     H99842   1.118  11.103   6.195  0.4158 -3.9264 -0.0170
  740MOL0     H99843   0.884  11.131   6.126  3.8949  1.8355  0.4002
  740MOL0     H99844   0.887  11.003   6.015 -0.2126  1.8637 -0.6319
  740MOL0     H99845   0.914  10.829   6.181  1.7079  0.4502  1.7839
  740MOL0     H99846   0.972  10.947   6.303  2.4758  0.3009 -1.0279
  740MOL0     H99847   0.684  10.961   6.203 -3.1876  0.1055  2.0742
  740MOL0     H99848   0.760  11.026   6.352  1.5945 -1.1222  0.1312
  740MOL0     H99849   0.815  10.753   6.376 -3.6930 -4.9128  2.7136
  740MOL0     H99850   0.709  10.854   6.462  3.0781  0.4455  0.4893
  740MOL0     H99851   0.529  10.821   6.125  3.4316  1.1808  0.2288
  740MOL0     H99852   0.263  10.549   6.150 -0.1597 -1.4534 -2.6648
  740MOL0     H99853   0.299  10.711   6.084  2.0930  0.5424 -1.2535
  740MOL0     H99854   0.452  10.457   6.002 -1.0504 -3.2411  0.0696
  740MOL0     H99855   0.300  10.489   5.917  0.2478  2.0104 -1.8883
  740MOL0     H99856   0.500  10.548   5.793  2.0971  0.2359  0.8840
  740MOL0     H99857   0.568  10.640   5.924  0.9412 -2.2248  1.4629
  740MOL0     H99858   0.366  10.783   5.902 -0.5840  1.9257 -2.1998
  740MOL0     H99859   0.325  10.699   5.745  1.1114 -1.1616 -0.6124
  740MOL0     H99860   0.420  10.607   5.582 -0.2620  0.1611  0.3561
  740MOL0     H99861   0.532  10.555   5.377  1.9884 -2.7962  0.6308
  740MOL0     H99862   0.622  10.783   4.969  1.0802  0.9744  3.5824
  740MOL0     H99863   0.724  10.762   4.726  2.7918  2.9419  2.1633
  740MOL0     H99864   1.071  10.555   4.567  0.9688 -1.1430  1.2463
  740MOL0     H99865   0.975  10.421   4.652 -2.8239 -0.4010 -0.1361
  740MOL0     H99866   0.897  10.521   4.380  0.0956 -1.7713 -1.7682
  740MOL0     H99867   0.981  10.368   4.430 -2.1726 -1.1830  0.1014
  740MOL0     H99868   0.764  10.313   4.562 -1.0212 -0.3923 -0.0608
  740MOL0     H99869   0.694  10.448   4.485 -1.8308 -2.2392 -3.9430
  740MOL0     H99870   0.628  10.248   4.373  0.4983 -1.3750  0.6064
  740MOL0     H99871   0.792  10.211   4.332 -1.5534 -1.2312 -0.6183
  740MOL0     H99872   0.806  10.416   4.181 -1.8064  2.3255 -3.4868
  740MOL0     H99873   0.648  10.455   4.239 -2.8706 -1.1695 -2.3814
  740MOL0     H99874   0.639  10.174   4.158 -0.5140  0.3527 -0.1076
  740MOL0     H99875   0.553  10.311   4.096 -0.9007 -0.7445  0.1504
  740MOL0     H99876   0.812  10.340   3.974 -0.3748  0.3146  1.2684
  740MOL0     H99877   0.655  10.297   3.909 -0.3262  0.1953  1.1482
  740MOL0     H99878   0.895  10.129   3.997 -1.1575 -0.6517  1.0708
  740MOL0     H99879   0.735  10.055   3.993 -1.2763  1.8227  0.7466
  740MOL0     H99880   0.962  10.436   4.867  0.7015 -0.5457  2.2087
  740MOL0     H99881   0.898  10.483   5.086  2.2714  0.5668 -0.2250
  740MOL0     H99882   0.748  10.931   5.404 -0.0972 -0.1869 -2.3466
  740MOL0     H99883   0.686  10.942   5.638 -0.1217 -0.0522  1.1090
  740MOL0     H99884   1.692  11.172   5.801 -0.0320 -0.8582  0.8219
  740MOL0     H99885   1.850  11.024   5.642 -1.6456  2.8653 -0.2874
  740MOL0     H99886   1.928  10.775   5.386  0.7920  1.5739  0.5074
  740MOL0     H99887   2.104  10.723   5.217 -2.4017 -0.1312 -0.9271
  740MOL0     H99888   2.239  10.477   5.189 -1.1514  1.1696 -0.0874
  740MOL0     H99889   2.411  10.451   5.209  0.0493  0.2324  1.3115
  740MOL0     H99890   2.311  10.665   5.013  2.9975  2.8487 -2.0602
  740MOL0     H99891   2.325  10.497   4.961 -1.4174 -0.2070  1.2935
  740MOL0     H99892   2.559  10.500   4.988 -0.3949  0.6504 -2.7201
  740MOL0     H99893   2.549  10.628   5.113 -2.7732 -0.2502  0.2216
  740MOL0     H99894   2.555  10.799   4.936 -0.0780 -0.4082 -1.1601
  740MOL0     H99895   2.678  10.671   4.922  0.9952  0.8047 -0.1784
  740MOL0     H99896   2.450  10.644   4.561 -1.8114  0.8040 -0.7540
  740MOL0     H99897   2.372  10.572   5.507  0.9878  1.7798  0.3328
  740MOL0     H99898   2.341  10.595   5.722 -0.4696 -1.4518  0.5299
  740MOL0     H99899   2.255  10.742   5.766  2.2700 -0.1757  1.1846
  740MOL0     H99900   2.174  10.582   5.791 -2.3521  0.5907 -2.0130
  741MOL0     O99901   3.847   0.293   7.166  0.2825 -0.1381 -0.2037
  741MOL0     C99902   3.735   0.324   7.122 -0.1342  0.5346  0.4922
  741MOL0     O99903   3.670   0.244   7.029 -0.1701 -0.6624  0.5007
  741MOL0     C99904   3.734   0.126   6.997 -0.3969  0.5476  0.8414
  741MOL0     C99905   3.767   0.102   6.862 -0.5135  0.7992 -0.6206
  741MOL0     C99906   3.833  -0.010   6.815 -0.4533 -0.9982  0.0630
  741MOL0     C99907   3.851  -0.111   6.907 -0.2816 -0.0760  0.6602
  741MOL0     O99908   3.910  -0.237   6.878  0.0988 -0.7301 -0.1007
  741MOL0     C99909   3.995  -0.233   6.758 -0.3200 -0.0641 -0.1202
  741MOL0     C99910   4.065  -0.364   6.749 -0.4300  0.1852  0.8780
  741MOL0     C99911   4.185  -0.380   6.837  0.4300 -1.5022 -1.7036
  741MOL0     C99912   4.308  -0.327   6.774 -0.4686  0.4485  0.0263
  741MOL0     C99913   4.417  -0.314   6.880  0.6662  0.3176  0.1802
  741MOL0     C99914   4.551  -0.323   6.798  0.1406  0.5481  0.0303
  741MOL0     C99915   4.668  -0.363   6.900 -0.2689  0.2022  1.3080
  741MOL0     C99916   4.805  -0.346   6.826 -0.1348  0.9523 -0.9137
  741MOL0     N99917   4.854  -0.207   6.842  0.4268 -0.1853 -0.2379
  741MOL0     C99918   4.890  -0.151   6.965  1.0755 -0.3226  1.4520
  741MOL0     C99919   4.903  -0.015   6.946 -0.3803 -0.3659  0.1751
  741MOL0     C99920   4.918   0.083   7.055  0.2574  0.3683  0.0357
  741MOL0     C99921   5.064   0.098   7.095 -0.1330  0.5281  0.0249
  741MOL0     C99922   5.163   0.131   6.982  0.8197 -0.1014  0.7897
  741MOL0     C99923   5.174   0.278   6.948  0.9094 -0.4499  0.1772
  741MOL0     O99924   5.246   0.311   6.834 -0.9993 -0.2766 -0.5943
  741MOL0     C99925   5.190   0.294   6.710 -0.2740  0.1798  0.4785
  741MOL0     C99926   5.088   0.372   6.659 -0.1873 -0.3287  0.0663
  741MOL0     C99927   5.015   0.329   6.543  0.8392  0.1480  0.1925
  741MOL0     C99928   5.058   0.211   6.475  0.0281  0.9917 -0.2800
  741MOL0     C99929   4.979   0.150   6.371  0.3104 -0.6113  0.1670
  741MOL0     O99930   4.848   0.185   6.357  0.2886 -1.1804  0.2102
  741MOL0     C99931   4.769   0.155   6.247 -0.9359 -0.8859  0.8386
  741MOL0     C99932   4.631   0.159   6.283  0.2577 -0.2370 -1.1127
  741MOL0     C99933   4.533   0.145   6.190 -0.2950 -0.0707  0.4746
  741MOL0     C99934   4.568   0.108   6.058  0.0241 -0.0122 -0.0934
  741MOL0     O99935   4.486   0.057   5.960 -0.1554 -0.3475 -0.0904
  741MOL0     C99936   4.351   0.105   5.962  0.4645  0.4094  0.6691
  741MOL0     C99937   4.279  -0.003   5.882  0.0680  0.0202  0.8994
  741MOL0     C99938   4.339  -0.065   5.759 -0.4420  0.2463  0.3219
  741MOL0     C99939   4.239  -0.085   5.646  0.0795  0.6656 -0.4507
  741MOL0     C99940   4.291  -0.165   5.533 -0.1180  0.3417 -0.3365
  741MOL0     C99941   4.183  -0.195   5.423  0.4301  0.7911  0.6425
  741MOL0     C99942   4.142  -0.060   5.357  0.0824  0.3884  0.4119
  741MOL0     C99943   4.017  -0.081   5.284  0.0832 -0.6111  0.3921
  741MOL0    Cl99944   3.968   0.081   5.238  0.0465  0.0637 -0.1221
  741MOL0     C99945   4.704   0.103   6.028 -0.3116 -0.3002  0.1727
  741MOL0     C99946   4.809   0.133   6.118  0.7247 -0.3131 -1.2398
  741MOL0     O99947   5.031   0.075   6.290  0.1289  0.1359  0.4510
  741MOL0     C99948   5.172   0.144   6.519 -0.4150 -0.0543 -0.1462
  741MOL0     C99949   5.233   0.183   6.634  0.0741 -0.5186  0.8023
  741MOL0     N99950   4.899   0.004   6.807 -0.4662  0.4782  0.4152
  741MOL0     N99951   4.856  -0.105   6.754 -0.1336 -0.1565  0.0797
  741MOL0     C99952   3.814  -0.094   7.038  0.9276 -0.4357 -0.3572
  741MOL0     C99953   3.742   0.023   7.083 -0.0753  0.0544 -0.4531
  741MOL0     C99954   3.670   0.444   7.176 -0.6259 -0.2886  0.0634
  741MOL0     C99955   3.526   0.454   7.157  0.0152  0.1265 -0.4511
  741MOL0     C99956   3.459   0.561   7.227 -0.0812  0.9335 -0.2616
  741MOL0     C99957   3.534   0.654   7.296  0.8719  0.9152  0.0310
  741MOL0     O99958   3.468   0.760   7.341 -0.3846  0.1811 -1.0814
  741MOL0     C99959   3.509   0.873   7.414 -0.0739 -0.5550 -0.3299
  741MOL0     C99960   3.516   0.836   7.563  0.6472 -0.2256 -0.6531
  741MOL0     C99961   3.563   0.951   7.657  0.1896 -0.7860 -0.7161
  741MOL0     C99962   3.451   1.020   7.732  0.8189  0.3438  0.5904
  741MOL0     C99963   3.322   1.045   7.662 -0.1838 -0.3906  0.6366
  741MOL0     C99964   3.221   1.079   7.602  0.5785  0.2481 -0.5578
  741MOL0     C99965   3.674   0.642   7.305 -0.0590  0.2778 -0.1973
  741MOL0     C99966   3.747   0.541   7.248  0.1994  0.8793 -0.4895
  741MOL0     C99967   3.895   0.551   7.265  0.2462 -0.3827 -0.1503
  741MOL0     H99968   3.743   0.182   6.792  1.3828  3.3144  1.4050
  741MOL0     H99969   3.871  -0.010   6.714  0.7023 -0.3567  0.4706
  741MOL0     H99970   3.925  -0.234   6.673 -0.0853 -2.6677 -0.3742
  741MOL0     H99971   4.061  -0.146   6.753  1.6938 -1.4548  0.9778
  741MOL0     H99972   4.092  -0.373   6.644 -0.8627 -0.8126  0.8372
  741MOL0     H99973   4.008  -0.455   6.773 -2.2514  1.3065  1.0263
  741MOL0     H99974   4.193  -0.486   6.863 -2.8933 -0.7514  4.0308
  741MOL0     H99975   4.174  -0.325   6.931 -1.2280 -5.8402  0.8980
  741MOL0     H99976   4.333  -0.384   6.684  0.6925  1.1404 -0.1093
  741MOL0     H99977   4.280  -0.224   6.751 -1.5602  1.4157  4.6147
  741MOL0     H99978   4.401  -0.226   6.943 -1.8722  0.2405 -0.2511
  741MOL0     H99979   4.409  -0.398   6.950  0.3393  1.9817  2.2755
  741MOL0     H99980   4.539  -0.382   6.707 -1.5912  0.5774  0.2106
  741MOL0     H99981   4.571  -0.220   6.766 -1.3351  0.9474  0.3490
  741MOL0     H99982   4.656  -0.467   6.931 -0.1578 -0.5534 -0.9754
  741MOL0     H99983   4.672  -0.305   6.993  0.5410 -0.2924  1.5894
  741MOL0     H99984   4.866  -0.414   6.886 -1.8757  0.3188  0.2081
  741MOL0     H99985   4.802  -0.385   6.723 -3.1914 -1.6856 -0.0102
  741MOL0     H99986   4.886  -0.198   7.063  0.3710  1.9294  2.5740
  741MOL0     H99987   4.900   0.180   7.009  2.9729  0.2850 -1.4106
  741MOL0     H99988   4.844   0.066   7.134 -0.7257  0.2375 -0.8930
  741MOL0     H99989   5.074   0.163   7.183  3.2390  1.1207 -0.6618
  741MOL0     H99990   5.090  -0.002   7.133  0.5804  1.8853  3.5060
  741MOL0     H99991   5.145   0.072   6.892 -2.4856 -0.1992  1.4160
  741MOL0     H99992   5.264   0.101   7.013  0.2445 -3.9502 -0.5779
  741MOL0     H99993   5.202   0.328   7.041  0.7746 -2.0955  1.1320
  741MOL0     H99994   5.071   0.304   6.924  0.0603 -0.2135  3.5778
  741MOL0     H99995   5.053   0.461   6.711 -0.1752  0.1523 -0.7285
  741MOL0     H99996   4.916   0.368   6.521  0.3708 -2.0811 -2.0491
  741MOL0     H99997   4.607   0.171   6.388  1.2102 -1.9560 -0.6583
  741MOL0     H99998   4.429   0.151   6.220 -0.8365 -1.2448 -1.0527
  741MOL0     H99999   4.308   0.109   6.062 -1.3340 -1.3189  0.0363
  741MOL0     H    0   4.353   0.199   5.906  0.9904  0.8894  1.4885
  741MOL0     H    1   4.258  -0.079   5.958 -1.1803 -0.0502  0.5194
  741MOL0     H    2   4.179   0.032   5.855 -1.0631 -2.6757  1.2561
  741MOL0     H    3   4.411   0.002   5.711 -2.2300  1.7970 -0.3268
  741MOL0     H    4   4.384  -0.160   5.787 -1.3964 -0.2068  0.3504
  741MOL0     H    5   4.201   0.014   5.619  0.8421  0.5898 -1.8885
  741MOL0     H    6   4.158  -0.147   5.687 -0.8231  3.1663  1.8961
  741MOL0     H    7   4.329  -0.256   5.580  0.6533  2.0858  2.6537
  741MOL0     H    8   4.378  -0.115   5.487  1.7686 -3.1045 -0.8720
  741MOL0     H    9   4.221  -0.257   5.342  1.6396  0.8312  1.1464
  741MOL0     H   10   4.095  -0.246   5.462 -2.1269  2.5544 -2.3107
  741MOL0     H   11   4.221  -0.033   5.286 -0.0647  2.0567  0.8393
  741MOL0     H   12   4.115   0.016   5.431 -3.3987  1.0501 -1.3491
  741MOL0     H   13   4.017  -0.145   5.195  0.2854 -0.0272 -0.0365
  741MOL0     H   14   3.944  -0.116   5.357  0.3056  1.5820  1.7738
  741MOL0     H   15   4.740   0.073   5.929 -0.0715 -1.9953  0.7389
  741MOL0     H   16   4.910   0.125   6.079  1.3828 -0.9318  0.5086
  741MOL0     H   17   5.203   0.050   6.475 -1.1023 -0.6355  0.6028
  741MOL0     H   18   5.304   0.114   6.679 -0.3238 -0.3811  1.6665
  741MOL0     H   19   3.821  -0.175   7.110  2.5555 -0.8195 -0.9016
  741MOL0     H   20   3.721   0.040   7.188 -2.2957  2.2475 -1.1414
  741MOL0     H   21   3.470   0.372   7.114  2.9047 -1.9525 -0.4978
  741MOL0     H   22   3.352   0.570   7.207 -0.7353 -3.2177  0.3298
  741MOL0     H   23   3.443   0.959   7.397  2.6730  1.4921 -1.2473
  741MOL0     H   24   3.608   0.905   7.381 -0.0532 -0.5193 -0.2326
  741MOL0     H   25   3.581   0.749   7.564  0.2626 -0.5537  1.4842
  741MOL0     H   26   3.415   0.808   7.596  0.8724  0.0170  0.2719
  741MOL0     H   27   3.617   1.017   7.589 -0.4621 -0.5215 -0.9800
  741MOL0     H   28   3.632   0.912   7.734  1.1949 -0.1774 -1.2868
  741MOL0     H   29   3.416   0.962   7.818 -1.7634  0.1838 -0.4831
  741MOL0     H   30   3.493   1.118   7.756  6.2396 -1.8971  1.8711
  741MOL0     H   31   3.127   1.084   7.550 -0.6452 -0.9950  1.3988
  741MOL0     H   32   3.726   0.718   7.362 -0.2956  0.6346 -0.4551
  741MOL0     H   33   3.945   0.500   7.182 -0.0690  3.0097 -2.6128
  741MOL0     H   34   3.918   0.657   7.262  0.0989 -0.3362  0.4076
  741MOL0     H   35   3.925   0.517   7.365  1.2460  1.1885  0.1074
  742MOL0     O   36   4.773   8.721   7.722  0.5836 -0.2159  0.6770
  742MOL0     C   37   4.655   8.751   7.733 -0.6206 -0.0192 -0.1052
  742MOL0     O   38   4.596   8.782   7.855 -0.3789 -0.7900 -0.6590
  742MOL0     C   39   4.678   8.769   7.970 -0.0184 -0.3620  0.0239
  742MOL0     C   40   4.622   8.723   8.088  0.1270  1.5340  0.2437
  742MOL0     C   41   4.691   8.718   8.210  0.3565  0.4444 -0.0413
  742MOL0     C   42   4.830   8.742   8.225 -0.2975 -0.3822  0.3556
  742MOL0     O   43   4.913   8.723   8.335 -0.1526  0.7725  0.6735
  742MOL0     C   44   4.881   8.623   8.431  0.0359 -0.4348 -0.4690
  742MOL0     C   45   5.005   8.582   8.515 -0.0254 -0.4459 -0.1135
  742MOL0     C   46   4.977   8.457   8.604  1.0847  0.0699 -0.0188
  742MOL0     C   47   4.854   8.474   8.696  1.3723 -0.3936 -0.3720
  742MOL0     C   48   4.833   8.348   8.774 -0.4581  0.0210  0.4639
  742MOL0     C   49   4.723   8.360   8.888 -0.3003 -0.1819  0.4789
  742MOL0     C   50   4.762   8.459   8.992 -0.1805 -0.2401 -0.0338
  742MOL0     C   51   4.643   8.479   9.091  0.3439  0.2515  0.1758
  742MOL0     N   52   4.660   8.388   9.207  0.7573  0.3960 -0.0262
  742MOL0     C   53   4.650   8.251   9.201  0.3830  0.3271  0.5278
  742MOL0     C   54   4.659   8.214   9.334 -0.1431 -0.4035 -1.0104
  742MOL0     C   55   4.646   8.076   9.390 -1.2700 -0.0365  0.5999
  742MOL0     C   56   4.506   8.010   9.383  0.1618 -0.7824  0.7224
  742MOL0     C   57   4.401   8.050   9.486  0.2152 -1.2173  1.0036
  742MOL0     C   58   4.317   8.168   9.429 -0.2392 -0.4753 -1.1960
  742MOL0     O   59   4.249   8.117   9.314  0.1976  0.3570 -0.0082
  742MOL0     C   60   4.247   8.197   9.203 -0.6763 -0.2229 -0.6170
  742MOL0     C   61   4.324   8.176   9.096  0.6821  0.1318 -0.2594
  742MOL0     C   62   4.325   8.268   8.994 -0.3762 -0.1048 -0.4286
  742MOL0     C   63   4.239   8.378   9.001 -0.3218  0.6844 -1.0024
  742MOL0     C   64   4.238   8.461   8.887 -0.6261 -0.4156 -1.1117
  742MOL0     O   65   4.353   8.470   8.812  0.0611  0.5952  0.2036
  742MOL0     C   66   4.319   8.506   8.683 -0.5343  0.1227  0.7805
  742MOL0     C   67   4.300   8.641   8.649  0.6784  1.2064  0.8077
  742MOL0     C   68   4.282   8.692   8.521 -0.6879 -0.4289  0.1829
  742MOL0     C   69   4.303   8.601   8.413 -0.1713  0.2749  0.4079
  742MOL0     O   70   4.320   8.651   8.285 -0.2616  0.5675 -0.1049
  742MOL0     C   71   4.271   8.578   8.185 -0.7458 -0.0264  0.1622
  742MOL0     C   72   4.208   8.674   8.080 -0.2120 -0.7923  0.3790
  742MOL0     C   73   4.101   8.765   8.156 -0.8280 -0.5473 -0.7397
  742MOL0     C   74   4.006   8.838   8.060 -1.2953 -0.2865 -0.2547
  742MOL0     C   75   4.082   8.923   7.958  0.2765 -0.5851 -0.5131
  742MOL0     C   76   4.089   9.068   8.018  0.1269  0.1681 -0.3771
  742MOL0     C   77   4.136   9.171   7.918 -0.1984 -0.2272  0.2538
  742MOL0     C   78   4.157   9.299   7.980  1.0438 -0.1237  0.3317
  742MOL0    Cl   79   4.197   9.437   7.856 -0.0608 -0.3382 -0.1045
  742MOL0     C   80   4.317   8.457   8.445 -0.3217  0.3631  0.2572
  742MOL0     C   81   4.323   8.416   8.577 -0.6892 -0.3213 -1.0941
  742MOL0     O   82   4.128   8.515   8.865 -0.2341  0.1671  0.5886
  742MOL0     C   83   4.147   8.396   9.107  0.8013  0.0138 -0.4509
  742MOL0     C   84   4.142   8.302   9.211  0.1903 -0.0934  0.0474
  742MOL0     N   85   4.685   8.320   9.420  0.3651 -0.4705 -1.3106
  742MOL0     N   86   4.674   8.427   9.339 -0.9290  0.2112 -0.3757
  742MOL0     C   87   4.881   8.794   8.099  0.9581  0.2966  0.1978
  742MOL0     C   88   4.813   8.812   7.980 -0.5575 -1.0079 -0.1968
  742MOL0     C   89   4.575   8.797   7.625  0.2611  0.1150  0.9900
  742MOL0     C   90   4.444   8.852   7.646  0.3048 -0.3546  0.3173
  742MOL0     C   91   4.355   8.873   7.534 -1.0257 -0.1824 -0.7585
  742MOL0     C   92   4.389   8.844   7.405 -0.2155  0.3699 -0.5620
  742MOL0     O   93   4.305   8.884   7.304 -0.6612 -0.0896  0.2216
  742MOL0     C   94   4.319   8.831   7.172  0.5003  0.3914 -0.5615
  742MOL0     C   95   4.413   8.918   7.086 -0.4491  0.2977 -0.9405
  742MOL0     C   96   4.464   8.846   6.958 -1.0460 -0.4167  0.1219
  742MOL0     C   97   4.600   8.890   6.892  1.0621 -0.4462 -0.5887
  742MOL0     C   98   4.708   8.852   6.978  0.2496 -0.2439  0.2058
  742MOL0     C   99   4.790   8.846   7.067 -1.0969 -0.8458 -0.8797
  742MOL0     C  100   4.516   8.796   7.383 -0.4005 -0.8126 -0.4829
  742MOL0     C  101   4.611   8.780   7.491 -0.9678 -0.2702  0.1908
  742MOL0     C  102   4.749   8.737   7.440 -0.2977 -0.1989  0.3968
  742MOL0     H  103   4.516   8.700   8.079  0.5713 -1.5316  1.3634
  742MOL0     H  104   4.634   8.653   8.276  3.6372 -1.9902  0.6168
  742MOL0     H  105   4.811   8.671   8.501 -1.8731  0.1768 -2.6727
  742MOL0     H  106   4.829   8.532   8.398  0.2768 -0.3196 -1.1701
  742MOL0     H  107   5.046   8.665   8.573 -3.0734  1.7005 -0.8151
  742MOL0     H  108   5.086   8.545   8.452  2.7844 -0.4142  3.1644
  742MOL0     H  109   5.053   8.435   8.679  0.3549  1.5123  1.2117
  742MOL0     H  110   4.960   8.371   8.539 -1.1430 -0.7527  1.5447
  742MOL0     H  111   4.863   8.548   8.776 -3.3329 -3.8288  3.9742
  742MOL0     H  112   4.754   8.471   8.653  0.5025  0.2111  1.5110
  742MOL0     H  113   4.806   8.265   8.708  0.4825 -2.7380  3.2620
  742MOL0     H  114   4.924   8.308   8.821  0.6630  0.6763 -1.0495
  742MOL0     H  115   4.625   8.386   8.849 -1.0990 -0.7539  2.0253
  742MOL0     H  116   4.721   8.259   8.930 -1.3870 -1.1522 -1.7230
  742MOL0     H  117   4.768   8.563   8.957 -6.0845  0.3410 -0.3588
  742MOL0     H  118   4.853   8.432   9.047  0.1383 -2.2138 -1.4433
  742MOL0     H  119   4.652   8.581   9.129 -3.6237  1.2346 -1.0096
  742MOL0     H  120   4.550   8.467   9.035  0.4401 -0.0619  0.0855
  742MOL0     H  121   4.646   8.179   9.120  1.6739 -1.2291  1.7661
  742MOL0     H  122   4.720   8.012   9.340 -1.2433 -1.3535  2.2393
  742MOL0     H  123   4.683   8.078   9.493  1.2496 -0.0600 -0.2203
  742MOL0     H  124   4.467   8.013   9.281  0.2148  1.2605  0.7251
  742MOL0     H  125   4.525   7.907   9.416 -2.7699 -0.3074  4.5666
  742MOL0     H  126   4.451   8.081   9.577 -1.2411  0.8361  1.1667
  742MOL0     H  127   4.340   7.959   9.492 -2.2124  0.4192  3.0369
  742MOL0     H  128   4.388   8.248   9.409  1.7887 -1.4214  1.5982
  742MOL0     H  129   4.246   8.210   9.500  1.7463 -1.0906  1.3026
  742MOL0     H  130   4.380   8.083   9.088 -1.4142 -1.1299 -0.9752
  742MOL0     H  131   4.390   8.254   8.908  0.4858 -1.4611  0.4131
  742MOL0     H  132   4.305   8.706   8.735  2.1808 -0.9118  2.4213
  742MOL0     H  133   4.281   8.800   8.507  2.7924 -0.0071  2.1295
  742MOL0     H  134   4.356   8.525   8.142 -1.7827 -1.3813 -0.2867
  742MOL0     H  135   4.194   8.508   8.218 -4.6734  4.0564  0.7244
  742MOL0     H  136   4.286   8.742   8.045 -1.8287  1.9277  1.7291
  742MOL0     H  137   4.158   8.613   8.004 -3.6184  1.3901  0.7040
  742MOL0     H  138   4.046   8.709   8.232  0.7184  0.6064  1.3672
  742MOL0     H  139   4.152   8.852   8.200  2.9160 -0.9683 -3.6924
  742MOL0     H  140   3.925   8.895   8.107 -1.6732  0.4046 -1.6572
  742MOL0     H  141   3.963   8.755   8.003 -1.4393 -0.5052  0.1684
  742MOL0     H  142   4.034   8.927   7.859 -0.4219 -0.6215 -0.1852
  742MOL0     H  143   4.184   8.891   7.936  0.9441  1.3397 -0.4146
  742MOL0     H  144   3.999   9.110   8.065 -0.7898  0.2840 -2.1565
  742MOL0     H  145   4.157   9.065   8.104 -0.3135  1.2759  0.0248
  742MOL0     H  146   4.053   9.186   7.848  0.7731  4.1538 -0.2481
  742MOL0     H  147   4.225   9.144   7.860 -0.0282  2.1895 -0.7354
  742MOL0     H  148   4.066   9.323   8.034  0.0956  0.3489 -1.3829
  742MOL0     H  149   4.230   9.290   8.060 -0.0533  0.8778  1.4863
  742MOL0     H  150   4.314   8.387   8.362  0.6305  1.8072 -1.0666
  742MOL0     H  151   4.336   8.310   8.595  2.0921  0.0395 -0.5812
  742MOL0     H  152   4.071   8.474   9.109  0.0958 -0.6741 -0.1483
  742MOL0     H  153   4.066   8.298   9.288  0.6700 -0.6743  0.4972
  742MOL0     H  154   4.986   8.823   8.098  0.9528  0.4111 -1.9665
  742MOL0     H  155   4.850   8.847   7.884 -2.3683 -3.3514 -1.8849
  742MOL0     H  156   4.408   8.872   7.746 -0.0217 -1.1212  0.3578
  742MOL0     H  157   4.258   8.921   7.537 -1.1901 -0.1048 -3.6666
  742MOL0     H  158   4.215   8.821   7.138 -0.0974  0.7783  1.0846
  742MOL0     H  159   4.366   8.732   7.183  1.7304  0.9313 -0.7902
  742MOL0     H  160   4.497   8.956   7.144 -1.9176  1.5353  0.4498
  742MOL0     H  161   4.352   9.006   7.068 -0.4499  0.0409 -2.3755
  742MOL0     H  162   4.386   8.852   6.881 -0.2901  0.6756 -0.5916
  742MOL0     H  163   4.481   8.739   6.975  3.2978 -0.9034 -4.7507
  742MOL0     H  164   4.609   8.833   6.800  0.7524 -2.6274  0.6506
  742MOL0     H  165   4.596   8.996   6.863 -2.5845 -0.5926 -0.9839
  742MOL0     H  166   4.864   8.878   7.138 -3.4000  0.9325  0.8836
  742MOL0     H  167   4.550   8.778   7.282 -1.7946  2.2248 -1.6188
  742MOL0     H  168   4.764   8.758   7.334 -0.5870 -2.6541 -0.2008
  742MOL0     H  169   4.832   8.785   7.493  0.1487 -0.5430  0.0176
  742MOL0     H  170   4.762   8.629   7.455 -1.1665 -0.6459 -1.6573
  743MOL0     O  171   1.640   6.357  10.986 -0.4876  0.3056  0.5251
  743MOL0     C  172   1.537   6.353  11.054 -0.2477 -0.6420 -0.2457
  743MOL0     O  173   1.413   6.332  11.006 -0.2001  0.2545  1.2287
  743MOL0     C  174   1.406   6.265  10.880 -0.2995 -0.6808 -0.4055
  743MOL0     C  175   1.391   6.123  10.873 -0.0626 -0.4533  1.3018
  743MOL0     C  176   1.412   6.058  10.751  0.1249 -0.0626  0.1553
  743MOL0     C  177   1.431   6.129  10.633 -0.1191  0.1902 -1.4794
  743MOL0     O  178   1.464   6.069  10.513  1.0109  0.6047 -0.1801
  743MOL0     C  179   1.434   5.926  10.503  0.1961  0.4964 -0.8388
  743MOL0     C  180   1.438   5.872  10.364 -0.1777 -0.9727  0.7621
  743MOL0     C  181   1.569   5.897  10.291 -0.5633  0.6922  0.2365
  743MOL0     C  182   1.562   5.829  10.160  0.6559  0.2345 -0.7078
  743MOL0     C  183   1.686   5.863  10.079 -0.3379  0.7551  0.0586
  743MOL0     C  184   1.676   5.784   9.951 -0.2794 -0.1686  0.2730
  743MOL0     C  185   1.749   5.636   9.972 -0.3694  0.0128 -0.5384
  743MOL0     C  186   1.903   5.635   9.970  0.2146  0.8849 -1.2501
  743MOL0     N  187   1.966   5.628  10.102  0.4841 -0.7605 -0.6841
  743MOL0     C  188   1.938   5.550  10.213 -0.0385 -0.2705  0.9732
  743MOL0     C  189   2.035   5.571  10.301  0.0195  0.2633  0.8487
  743MOL0     C  190   2.061   5.476  10.412  0.2353 -0.8589  0.2334
  743MOL0     C  191   2.126   5.341  10.375 -0.1155  0.5555  0.7032
  743MOL0     C  192   2.144   5.248  10.497  1.1248  0.1302  0.4652
  743MOL0     C  193   2.250   5.295  10.605  0.2729  0.3760 -0.0750
  743MOL0     O  194   2.377   5.244  10.570 -0.0544  0.5392  0.6078
  743MOL0     C  195   2.429   5.173  10.674 -0.0461 -0.9577 -0.1030
  743MOL0     C  196   2.390   5.050  10.732 -0.2815  0.2174  0.5620
  743MOL0     C  197   2.452   5.012  10.850  0.2281  0.3882 -0.6729
  743MOL0     C  198   2.557   5.083  10.908  0.4661 -0.0444  0.5581
  743MOL0     C  199   2.628   5.010  11.022  0.1958 -0.0775 -0.1066
  743MOL0     O  200   2.769   5.020  11.023 -0.3641  0.5094  0.3544
  743MOL0     C  201   2.832   4.981  11.133 -1.4054  0.3766 -0.8849
  743MOL0     C  202   2.782   4.947  11.260  0.6498 -0.1844 -0.7670
  743MOL0     C  203   2.855   4.921  11.376 -0.9580  0.0264 -0.6302
  743MOL0     C  204   2.995   4.936  11.371  0.0118  0.8593 -0.8529
  743MOL0     O  205   3.066   4.921  11.483 -0.2335  0.5056  0.0037
  743MOL0     C  206   3.008   4.935  11.618  0.5426 -0.3845  0.3652
  743MOL0     C  207   3.114   4.968  11.723 -0.1984  0.4086 -0.3562
  743MOL0     C  208   3.199   5.092  11.707 -0.5868 -1.3584 -0.3590
  743MOL0     C  209   3.288   5.130  11.833 -0.2249  1.0188 -1.0492
  743MOL0     C  210   3.305   5.272  11.855  0.1985  0.3648  0.4208
  743MOL0     C  211   3.382   5.339  11.746 -0.4940 -0.9893 -0.0300
  743MOL0     C  212   3.405   5.487  11.784 -0.5066 -0.3485 -0.6823
  743MOL0     C  213   3.277   5.573  11.760  0.5903  0.5633 -0.0764
  743MOL0    Cl  214   3.292   5.745  11.794  0.4512  0.3153 -0.1275
  743MOL0     C  215   3.057   4.945  11.247 -0.4585  0.4046  0.2921
  743MOL0     C  216   2.976   4.969  11.131  0.5386 -0.4609  0.7690
  743MOL0     O  217   2.553   4.943  11.097 -0.5235 -1.1835  0.3393
  743MOL0     C  218   2.607   5.201  10.844  0.0056  0.1192 -0.0824
  743MOL0     C  219   2.541   5.246  10.735 -1.3897  0.0184 -0.0720
  743MOL0     N  220   2.130   5.657  10.243  0.1468 -0.0028 -0.3469
  743MOL0     N  221   2.077   5.706  10.138  0.3279  0.4165  0.4507
  743MOL0     C  222   1.428   6.267  10.642 -0.0069  0.1165  1.9146
  743MOL0     C  223   1.416   6.339  10.755  0.7825  0.0663  0.3914
  743MOL0     C  224   1.544   6.365  11.203  0.5508  0.1845  1.0901
  743MOL0     C  225   1.422   6.350  11.269 -0.0938 -0.4387  0.2095
  743MOL0     C  226   1.414   6.352  11.404 -0.7995 -0.2894  0.4329
  743MOL0     C  227   1.527   6.360  11.477 -0.0404 -0.9361  0.6042
  743MOL0     O  228   1.551   6.348  11.617 -0.2334 -0.3412  0.6145
  743MOL0     C  229   1.463   6.262  11.679 -0.3804  0.0684 -0.1010
  743MOL0     C  230   1.485   6.253  11.823  0.3640  0.1082  0.6655
  743MOL0     C  231   1.636   6.267  11.862 -0.5159  0.4623  0.1302
  743MOL0     C  232   1.727   6.143  11.804 -0.5073  0.0057  0.5147
  743MOL0     C  233   1.692   6.013  11.859  0.7853  0.8187  0.1143
  743MOL0     C  234   1.642   5.915  11.912 -0.7191 -0.0704 -0.5583
  743MOL0     C  235   1.650   6.382  11.412  0.4783  0.0338  0.3779
  743MOL0     C  236   1.661   6.388  11.274  0.3887  0.6381 -0.5264
  743MOL0     C  237   1.800   6.409  11.215  0.7870 -0.2059  0.2196
  743MOL0     H  238   1.391   6.051  10.953 -1.7783 -1.9718  0.0367
  743MOL0     H  239   1.400   5.951  10.749  0.1767 -0.0906  1.0538
  743MOL0     H  240   1.484   5.862  10.577 -0.5526 -0.1068 -0.8483
  743MOL0     H  241   1.332   5.913  10.539  0.9805  0.5045  1.5694
  743MOL0     H  242   1.348   5.915  10.320  0.5930  0.5390  0.5757
  743MOL0     H  243   1.422   5.765  10.378  0.2554 -1.1783 -0.2693
  743MOL0     H  244   1.645   5.856  10.358  1.6674  2.2126 -1.2356
  743MOL0     H  245   1.592   6.001  10.263 -0.4908 -0.1985 -3.5537
  743MOL0     H  246   1.573   5.720  10.169  2.0876  0.3907 -0.2289
  743MOL0     H  247   1.469   5.856  10.110  0.6220  2.2770  0.3315
  743MOL0     H  248   1.700   5.968  10.050  2.0744  0.5362  0.2514
  743MOL0     H  249   1.778   5.841  10.133 -0.0410  0.9341 -0.3692
  743MOL0     H  250   1.568   5.770   9.935 -1.1086  3.6032  1.5336
  743MOL0     H  251   1.724   5.843   9.873 -2.8111  0.4271 -0.9361
  743MOL0     H  252   1.728   5.588   9.876  1.5040 -0.8856 -0.5540
  743MOL0     H  253   1.706   5.578  10.054 -0.0501  2.1103  1.1985
  743MOL0     H  254   1.933   5.539   9.927 -1.1925  1.0232 -2.6302
  743MOL0     H  255   1.941   5.711   9.902 -1.2567  1.5694 -1.3518
  743MOL0     H  256   1.854   5.482  10.224 -0.1624 -0.5488 -1.2919
  743MOL0     H  257   2.116   5.528  10.491 -2.0444  1.9862  0.0988
  743MOL0     H  258   1.962   5.447  10.448  0.0442 -0.6002 -0.0837
  743MOL0     H  259   2.058   5.286  10.309  2.5806  0.5137 -2.2797
  743MOL0     H  260   2.217   5.364  10.320 -0.2246  0.8791  0.6550
  743MOL0     H  261   2.169   5.147  10.463  1.0691 -0.0777  1.0417
  743MOL0     H  262   2.049   5.231  10.548  1.2207 -0.5048  0.4388
  743MOL0     H  263   2.219   5.250  10.699  2.9506  0.0580  0.7540
  743MOL0     H  264   2.255   5.401  10.629  0.6072  1.0286 -2.6886
  743MOL0     H  265   2.319   4.991  10.676 -0.5174  2.3398 -1.5554
  743MOL0     H  266   2.413   4.919  10.890 -3.6191 -0.2238 -4.9904
  743MOL0     H  267   2.676   4.947  11.285  0.1003  1.9026 -2.7659
  743MOL0     H  268   2.803   4.911  11.470 -1.0713  2.1631 -0.4122
  743MOL0     H  269   2.934   5.015  11.624  0.4976 -0.4243  0.3373
  743MOL0     H  270   2.955   4.843  11.644 -0.2760  0.3160  1.2093
  743MOL0     H  271   3.060   4.968  11.818 -3.2329  1.9779 -1.9363
  743MOL0     H  272   3.176   4.880  11.744 -1.2148 -0.6837 -1.7587
  743MOL0     H  273   3.266   5.071  11.623 -1.9050  1.1206 -2.1733
  743MOL0     H  274   3.134   5.179  11.693 -0.2397 -0.9683  0.4057
  743MOL0     H  275   3.380   5.072  11.821  1.3184  2.7389  1.5682
  743MOL0     H  276   3.234   5.092  11.920  3.4836 -1.0194  0.5593
  743MOL0     H  277   3.359   5.294  11.948 -0.3058  1.8873  0.3717
  743MOL0     H  278   3.210   5.325  11.862 -0.5239 -1.0164  1.7803
  743MOL0     H  279   3.478   5.289  11.726 -0.7832 -0.7574 -2.2095
  743MOL0     H  280   3.319   5.346  11.657  0.4504  3.4936 -0.5728
  743MOL0     H  281   3.479   5.527  11.715  0.2496  1.5160  1.1238
  743MOL0     H  282   3.433   5.500  11.889  0.8359  1.3102 -1.2174
  743MOL0     H  283   3.228   5.565  11.663 -0.8317 -1.1338  0.7225
  743MOL0     H  284   3.205   5.523  11.826  1.8142 -1.3756 -0.1000
  743MOL0     H  285   3.165   4.950  11.238 -0.3197  0.6736  1.8181
  743MOL0     H  286   3.024   4.994  11.037 -0.6901 -0.2860  0.1714
  743MOL0     H  287   2.690   5.254  10.891 -1.0221 -0.1969  2.2266
  743MOL0     H  288   2.584   5.336  10.692  1.2607 -0.0954  2.0492
  743MOL0     H  289   1.431   6.316  10.545 -2.5005 -6.1231 -1.8863
  743MOL0     H  290   1.405   6.447  10.751 -2.5954 -0.2094 -1.9687
  743MOL0     H  291   1.325   6.340  11.221  0.1436  0.0155 -0.3796
  743MOL0     H  292   1.312   6.327  11.431 -2.7630  2.8311 -3.0337
  743MOL0     H  293   1.472   6.165  11.629 -1.2712  0.9690 -2.1345
  743MOL0     H  294   1.357   6.278  11.656 -0.0934 -0.7329 -2.1936
  743MOL0     H  295   1.449   6.158  11.864  1.5059  0.9040  3.8108
  743MOL0     H  296   1.426   6.321  11.885  1.2146  0.8115  0.7308
  743MOL0     H  297   1.652   6.273  11.970 -1.6268  1.0773  0.2785
  743MOL0     H  298   1.673   6.360  11.819 -4.2378  3.2708  2.3106
  743MOL0     H  299   1.703   6.123  11.699 -0.5495 -0.5446  0.6272
  743MOL0     H  300   1.834   6.166  11.806 -0.7634  1.6709 -1.3664
  743MOL0     H  301   1.620   5.818  11.950 -0.7580 -0.1840 -0.8702
  743MOL0     H  302   1.736   6.376  11.477  1.2569  0.8791 -0.5497
  743MOL0     H  303   1.791   6.462  11.120  1.4693 -1.3630 -0.5039
  743MOL0     H  304   1.862   6.468  11.283  2.0647 -0.5940 -0.5845
  743MOL0     H  305   1.849   6.312  11.205  0.8242 -0.0616 -1.2137
  744MOL0     O  306   2.110   0.584  10.638 -0.1382 -0.6056 -0.0272
  744MOL0     C  307   2.091   0.466  10.604 -0.3058 -1.0447 -0.1338
  744MOL0     O  308   1.993   0.430  10.523 -0.5284 -0.2631 -0.2576
  744MOL0     C  309   1.906   0.509  10.455 -0.0961  0.2288  0.5153
  744MOL0     C  310   1.772   0.464  10.461  0.2487 -0.1863 -0.8104
  744MOL0     C  311   1.675   0.546  10.410  0.4165 -0.6435  0.0680
  744MOL0     C  312   1.701   0.680  10.362  0.8287 -0.3914  0.0331
  744MOL0     O  313   1.586   0.762  10.330  0.4403 -0.1803  0.6939
  744MOL0     C  314   1.595   0.899  10.313 -0.4283  0.0508 -0.3986
  744MOL0     C  315   1.453   0.965  10.312  0.3724  0.0089 -0.1016
  744MOL0     C  316   1.365   0.925  10.425  0.2515 -0.3926 -1.3289
  744MOL0     C  317   1.422   0.964  10.555  0.3923  0.2787  0.2447
  744MOL0     C  318   1.338   0.914  10.676  0.0820 -0.1550 -0.0024
  744MOL0     C  319   1.318   0.769  10.689 -0.5215 -0.7414  0.8725
  744MOL0     C  320   1.438   0.674  10.673 -0.4316  0.6321  0.1697
  744MOL0     C  321   1.406   0.540  10.736  0.6612 -0.4327 -0.0621
  744MOL0     N  322   1.516   0.454  10.790  0.5962 -0.0615 -0.8249
  744MOL0     C  323   1.625   0.493  10.853  1.3350  0.3134 -1.1368
  744MOL0     C  324   1.699   0.388  10.876  0.1624 -0.7940 -0.1687
  744MOL0     C  325   1.830   0.389  10.941  0.1168 -0.6625 -0.3964
  744MOL0     C  326   1.831   0.283  11.054  0.3340  0.4648  0.1465
  744MOL0     C  327   1.966   0.225  11.073 -0.5182  0.3251 -0.6007
  744MOL0     C  328   2.079   0.332  11.097  0.0950  0.8971 -0.2654
  744MOL0     O  329   2.182   0.271  11.181  0.2893 -0.0320  0.4133
  744MOL0     C  330   2.311   0.313  11.167  0.5346  0.6162 -0.5852
  744MOL0     C  331   2.392   0.257  11.264  0.2003  0.4286 -0.0261
  744MOL0     C  332   2.522   0.298  11.278 -0.2075  0.5949  0.7804
  744MOL0     C  333   2.582   0.382  11.172  0.2537 -0.1529  0.3055
  744MOL0     C  334   2.727   0.432  11.176 -0.6507 -0.3935  0.4262
  744MOL0     O  335   2.789   0.476  11.067  0.4328 -0.1525 -0.0031
  744MOL0     C  336   2.926   0.513  11.073 -0.3928  0.0655 -0.1695
  744MOL0     C  337   3.012   0.411  11.045  0.1110  0.4698 -0.0085
  744MOL0     C  338   3.144   0.426  11.019 -0.1414  0.0089 -0.0053
  744MOL0     C  339   3.194   0.562  11.024  0.3990  0.2507  0.3208
  744MOL0     O  340   3.322   0.577  10.982 -0.6010 -0.2440  0.3448
  744MOL0     C  341   3.376   0.703  10.963  1.0209  0.5225  0.0455
  744MOL0     C  342   3.520   0.709  10.900  0.3125 -0.1886 -0.5970
  744MOL0     C  343   3.532   0.737  10.752  0.1261  0.5263 -0.3663
  744MOL0     C  344   3.679   0.775  10.720  0.5469 -0.0912  1.4244
  744MOL0     C  345   3.714   0.768  10.568 -0.0808 -1.1142 -0.5600
  744MOL0     C  346   3.867   0.790  10.546  0.4387  0.0315  0.6263
  744MOL0     C  347   3.911   0.932  10.586 -0.2328 -0.0177  0.4273
  744MOL0     C  348   4.059   0.940  10.553  0.3231  0.0565 -1.1119
  744MOL0    Cl  349   4.131   1.079  10.636 -0.0878  0.6788 -0.2120
  744MOL0     C  350   3.107   0.668  11.048  0.5554  0.7603 -0.6029
  744MOL0     C  351   2.968   0.645  11.065 -0.3305  0.0933 -0.2439
  744MOL0     O  352   2.771   0.439  11.288  0.0785  0.5381  0.2164
  744MOL0     C  353   2.494   0.422  11.062 -0.8675 -0.3815  1.0959
  744MOL0     C  354   2.361   0.393  11.065  0.8406  1.2819 -0.1126
  744MOL0     N  355   1.639   0.278  10.818  0.2011 -0.1493 -0.1322
  744MOL0     N  356   1.526   0.324  10.760  0.3849  0.1318  0.2621
  744MOL0     C  357   1.839   0.721  10.372 -0.4624  0.6953 -0.6169
  744MOL0     C  358   1.945   0.639  10.418  0.5386  0.4310  0.4369
  744MOL0     C  359   2.165   0.358  10.681 -0.2355  0.0600  0.0902
  744MOL0     C  360   2.102   0.233  10.682 -0.2297  0.9226  0.1682
  744MOL0     C  361   2.157   0.124  10.743  0.4786 -0.4257 -0.3014
  744MOL0     C  362   2.291   0.137  10.783 -0.5105 -0.0180  0.1466
  744MOL0     O  363   2.370   0.034  10.820 -0.6268  0.3624 -1.0228
  744MOL0     C  364   2.320  -0.049  10.924  0.5081 -0.3613 -0.6171
  744MOL0     C  365   2.445  -0.098  10.996 -0.5641 -0.6913  0.0420
  744MOL0     C  366   2.546   0.009  11.045  0.3447 -0.2552  0.8785
  744MOL0     C  367   2.623  -0.041  11.157 -0.5999  0.7045 -0.1150
  744MOL0     C  368   2.727   0.043  11.210  0.8959 -0.0467  0.4691
  744MOL0     C  369   2.811   0.114  11.261  0.9125 -0.2211 -0.1982
  744MOL0     C  370   2.360   0.262  10.771  0.2231 -0.2399 -0.5981
  744MOL0     C  371   2.297   0.373  10.723 -0.0356 -0.2556 -0.1979
  744MOL0     C  372   2.380   0.499  10.724  0.5047 -0.2323  0.8168
  744MOL0     H  373   1.757   0.365  10.503 -0.3718  0.8320  1.5559
  744MOL0     H  374   1.571   0.517  10.409  0.3889 -0.6073  1.0762
  744MOL0     H  375   1.653   0.943  10.395 -1.6986  0.5641  0.2606
  744MOL0     H  376   1.646   0.913  10.217 -2.2695 -0.6402 -1.5245
  744MOL0     H  377   1.419   0.931  10.213  0.5416  0.4120 -0.3017
  744MOL0     H  378   1.456   1.074  10.327  1.3187 -0.1256  0.7582
  744MOL0     H  379   1.360   0.816  10.418  2.2007 -0.8732  2.4444
  744MOL0     H  380   1.268   0.959  10.389 -0.1595 -1.5251 -1.3440
  744MOL0     H  381   1.519   0.917  10.567  0.5959  0.4167 -0.7385
  744MOL0     H  382   1.434   1.073  10.559  5.0226 -0.0479 -0.0574
  744MOL0     H  383   1.399   0.944  10.762  0.8795 -3.0190  0.5217
  744MOL0     H  384   1.245   0.968  10.694 -0.8099 -2.4877  3.2074
  744MOL0     H  385   1.279   0.768  10.791 -2.1476  2.5301  0.4314
  744MOL0     H  386   1.231   0.742  10.630  1.1223 -1.6910 -1.2463
  744MOL0     H  387   1.527   0.714  10.721  0.4409 -1.0924  0.0554
  744MOL0     H  388   1.465   0.658  10.568 -1.7572 -0.4385 -0.0404
  744MOL0     H  389   1.356   0.554  10.832  1.1169 -2.8824  0.5880
  744MOL0     H  390   1.345   0.478  10.670  0.4445 -0.7652  0.4438
  744MOL0     H  391   1.656   0.590  10.890  0.2461  0.4946 -0.6437
  744MOL0     H  392   1.910   0.359  10.872  2.0178 -2.0325  2.2110
  744MOL0     H  393   1.859   0.492  10.967  0.0130 -0.8290  0.3974
  744MOL0     H  394   1.798   0.326  11.149  0.3086  0.7541  0.0079
  744MOL0     H  395   1.755   0.210  11.026 -2.8491  4.0597 -1.4713
  744MOL0     H  396   2.000   0.167  10.987 -3.3485  1.3304 -2.5420
  744MOL0     H  397   1.950   0.155  11.156  3.6381  0.8782  0.9056
  744MOL0     H  398   2.035   0.421  11.143 -1.1048  0.4891 -0.6110
  744MOL0     H  399   2.111   0.353  10.995  0.5266 -0.9827 -0.5587
  744MOL0     H  400   2.330   0.199  11.332 -2.9980  1.1028 -2.1380
  744MOL0     H  401   2.585   0.266  11.361  0.5643  0.7575  0.2748
  744MOL0     H  402   2.972   0.310  11.041 -1.8723  1.1464  1.2932
  744MOL0     H  403   3.211   0.344  10.995  0.9315  1.5662 -2.8560
  744MOL0     H  404   3.318   0.762  10.891 -0.5320 -0.8834  0.0738
  744MOL0     H  405   3.380   0.762  11.055  3.2522 -0.6797  0.7946
  744MOL0     H  406   3.576   0.785  10.955 -0.0529  0.9145 -1.6923
  744MOL0     H  407   3.572   0.617  10.926  1.8720  0.4471 -1.3715
  744MOL0     H  408   3.507   0.653  10.686 -2.7402 -0.1230  1.3952
  744MOL0     H  409   3.464   0.817  10.723 -3.5205 -1.8806  0.9133
  744MOL0     H  410   3.734   0.690  10.763 -1.6530 -1.0588  2.5109
  744MOL0     H  411   3.703   0.871  10.765 -1.0272  1.5622 -1.0298
  744MOL0     H  412   3.676   0.849  10.505  0.5229  0.3338  0.8580
  744MOL0     H  413   3.690   0.667  10.534 -0.0895 -3.3384  4.9158
  744MOL0     H  414   3.923   0.720  10.609  0.4446  1.1600  1.9377
  744MOL0     H  415   3.900   0.777  10.443 -1.3934  1.7400 -0.2443
  744MOL0     H  416   3.889   0.956  10.691 -2.0117 -1.2765  0.3871
  744MOL0     H  417   3.869   1.013  10.525 -2.9453 -0.3846  1.6645
  744MOL0     H  418   4.107   0.850  10.592 -1.5496  0.1669  1.7190
  744MOL0     H  419   4.085   0.952  10.447  2.3401  3.1922 -0.4193
  744MOL0     H  420   3.144   0.768  11.068 -0.4758  1.4339 -1.8770
  744MOL0     H  421   2.902   0.728  11.086 -0.7365 -0.1125 -0.6919
  744MOL0     H  422   2.549   0.461  10.977  2.1896 -1.7166  2.3098
  744MOL0     H  423   2.287   0.417  10.990  0.1534  1.5885  0.6571
  744MOL0     H  424   1.852   0.825  10.346 -0.0410  1.0111  0.7593
  744MOL0     H  425   2.037   0.692  10.439  0.8215  0.5452 -1.0208
  744MOL0     H  426   1.996   0.218  10.667  0.1497 -0.4682 -1.4439
  744MOL0     H  427   2.102   0.032  10.757  0.6661 -0.7611 -1.6013
  744MOL0     H  428   2.256  -0.133  10.895 -1.5767  0.3007  1.7356
  744MOL0     H  429   2.262   0.005  11.000 -0.2074 -1.6302 -0.2232
  744MOL0     H  430   2.498  -0.162  10.925  1.1669  0.0295  0.6317
  744MOL0     H  431   2.412  -0.162  11.078 -1.0764 -0.6750 -0.1481
  744MOL0     H  432   2.484   0.093  11.078 -1.4325 -0.4879 -1.5577
  744MOL0     H  433   2.616   0.047  10.970  0.4185 -0.3456  0.9028
  744MOL0     H  434   2.566  -0.062  11.248  0.8153 -3.0337  0.1093
  744MOL0     H  435   2.669  -0.133  11.120  0.4894 -0.2148  3.1953
  744MOL0     H  436   2.884   0.179  11.304  1.2170 -0.3824 -0.4674
  744MOL0     H  437   2.461   0.256  10.810 -0.7015 -1.2587  1.8054
  744MOL0     H  438   2.328   0.565  10.794 -0.5678  0.9180 -0.9682
  744MOL0     H  439   2.485   0.477  10.744  0.0566 -1.3926  2.0409
  744MOL0     H  440   2.368   0.541  10.623  1.7966  0.4397  0.9136
  745MOL0     O  441   4.525   1.950   5.649  1.8387 -0.4858  0.0051
  745MOL0     C  442   4.625   2.011   5.617  0.1180 -0.4743 -0.7113
  745MOL0     O  443   4.742   1.959   5.594  0.7218  0.0476  0.4922
  745MOL0     C  444   4.768   1.830   5.558 -0.0246  0.6709 -0.3047
  745MOL0     C  445   4.669   1.732   5.527 -0.5634  0.9365 -0.3547
  745MOL0     C  446   4.707   1.592   5.501  1.0199  0.5320  1.1309
  745MOL0     C  447   4.836   1.556   5.501  0.6880  0.0337 -0.1220
  745MOL0     O  448   4.865   1.432   5.462 -0.0484  0.4144  0.2051
  745MOL0     C  449   4.850   1.331   5.572  0.7408 -0.4606  0.1923
  745MOL0     C  450   4.850   1.196   5.508  1.0904 -0.1657  1.2002
  745MOL0     C  451   4.704   1.155   5.469  0.5835 -0.0759  0.5369
  745MOL0     C  452   4.720   1.056   5.360 -0.0573  0.7199 -0.2262
  745MOL0     C  453   4.590   0.972   5.346  0.0211 -0.6755  0.4764
  745MOL0     C  454   4.482   1.061   5.277 -0.4514  0.5989 -0.2695
  745MOL0     C  455   4.369   0.968   5.239  0.5961  1.4729 -0.7783
  745MOL0     C  456   4.244   1.042   5.175 -0.4637  0.0431  1.0617
  745MOL0     N  457   4.271   1.091   5.038  0.8586  0.5118 -0.0213
  745MOL0     C  458   4.357   1.042   4.937 -0.6782 -0.5080 -0.1797
  745MOL0     C  459   4.347   1.135   4.840  0.6071 -1.3760  0.1787
  745MOL0     C  460   4.425   1.147   4.712 -1.1603 -0.5741  0.8738
  745MOL0     C  461   4.414   1.272   4.629  0.5953 -1.0129  0.0247
  745MOL0     C  462   4.290   1.294   4.538  0.7638  0.4162  0.1159
  745MOL0     C  463   4.309   1.258   4.390  0.0661 -0.1364 -0.0949
  745MOL0     O  464   4.409   1.354   4.334  0.3528  0.3660 -0.5402
  745MOL0     C  465   4.374   1.481   4.311  0.4524  0.4297  0.5215
  745MOL0     C  466   4.240   1.524   4.324  0.1258 -0.3677  0.1604
  745MOL0     C  467   4.206   1.650   4.280  0.0002  0.7931  0.2075
  745MOL0     C  468   4.303   1.731   4.227  0.0837 -0.1527 -0.1731
  745MOL0     C  469   4.265   1.874   4.193 -0.7442  0.1722  0.6217
  745MOL0     O  470   4.137   1.921   4.187  0.3998  0.7417 -0.1543
  745MOL0     C  471   4.115   2.048   4.187 -0.4809 -0.7931 -0.2800
  745MOL0     C  472   4.102   2.112   4.310  0.2927 -0.2216 -0.1171
  745MOL0     C  473   4.067   2.245   4.317 -0.1679 -0.2398  0.4859
  745MOL0     C  474   4.064   2.321   4.191 -0.8290 -0.6552 -0.4344
  745MOL0     O  475   4.048   2.458   4.194 -0.1825  0.6759  0.2537
  745MOL0     C  476   4.171   2.523   4.211  0.0571 -1.0706  1.2349
  745MOL0     C  477   4.187   2.666   4.158  0.1745 -0.1602 -0.3197
  745MOL0     C  478   4.066   2.763   4.179  0.0935  0.3160 -0.5118
  745MOL0     C  479   4.051   2.795   4.329  0.0925  0.1862  0.0220
  745MOL0     C  480   3.960   2.911   4.358 -0.3039 -0.0250  0.1027
  745MOL0     C  481   3.923   2.949   4.506 -0.5010 -0.5090  0.3283
  745MOL0     C  482   3.871   3.092   4.522 -0.0684 -0.4693 -0.7960
  745MOL0     C  483   3.721   3.102   4.512  0.9540  0.0203  0.7657
  745MOL0    Cl  484   3.653   3.006   4.638 -0.0675  0.1583  0.0375
  745MOL0     C  485   4.098   2.253   4.074  0.5531 -1.0005  0.0139
  745MOL0     C  486   4.115   2.127   4.076 -0.2573  0.0570  0.7118
  745MOL0     O  487   4.365   1.950   4.187 -0.0893 -0.4605 -0.4526
  745MOL0     C  488   4.427   1.683   4.203 -0.6728 -0.1538  0.7090
  745MOL0     C  489   4.468   1.559   4.251  0.7823  0.2445  0.7452
  745MOL0     N  490   4.261   1.237   4.878  0.7388  0.5177  0.2335
  745MOL0     N  491   4.217   1.205   4.997  0.1598  0.2519  0.0203
  745MOL0     C  492   4.928   1.654   5.533  0.0325  0.1217  1.0135
  745MOL0     C  493   4.899   1.791   5.554 -0.0039  0.1287 -1.1263
  745MOL0     C  494   4.624   2.153   5.628 -0.1340 -0.2802  0.3208
  745MOL0     C  495   4.502   2.208   5.687 -0.9939 -0.1983  0.3161
  745MOL0     C  496   4.500   2.344   5.715 -0.4385 -0.2053  0.6590
  745MOL0     C  497   4.602   2.425   5.686 -0.1187 -0.8257  0.0993
  745MOL0     O  498   4.590   2.563   5.696 -1.1883  0.1050 -0.0917
  745MOL0     C  499   4.463   2.624   5.699  1.2765  0.2756  0.6185
  745MOL0     C  500   4.401   2.658   5.834  0.4734 -0.1527 -0.5740
  745MOL0     C  501   4.252   2.617   5.861  0.2588  0.5982 -0.1225
  745MOL0     C  502   4.246   2.495   5.953  1.1330 -0.4938 -0.8497
  745MOL0     C  503   4.264   2.535   6.093  0.3161  0.6740 -0.1991
  745MOL0     C  504   4.270   2.569   6.212 -0.5470  0.4874 -0.2178
  745MOL0     C  505   4.719   2.376   5.628  0.2491 -0.3581 -0.0052
  745MOL0     C  506   4.738   2.241   5.603  0.0379 -0.2715  0.6612
  745MOL0     C  507   4.867   2.196   5.545 -0.3048  0.3830 -0.9675
  745MOL0     H  508   4.562   1.753   5.535 -0.6371  1.1483 -1.7259
  745MOL0     H  509   4.633   1.513   5.494  3.8856 -2.2638 -0.2631
  745MOL0     H  510   4.930   1.338   5.646  0.1012 -4.8100  1.5605
  745MOL0     H  511   4.753   1.343   5.622 -0.2282 -2.5180 -1.0328
  745MOL0     H  512   4.891   1.114   5.567 -0.1431 -2.4378 -0.8940
  745MOL0     H  513   4.913   1.197   5.418 -0.3982  0.9042  0.1104
  745MOL0     H  514   4.646   1.238   5.427  0.7495 -0.2674 -0.0712
  745MOL0     H  515   4.655   1.108   5.555  0.2455  0.8002  0.8333
  745MOL0     H  516   4.736   1.121   5.273 -1.8497  2.0625  0.3863
  745MOL0     H  517   4.798   0.982   5.381 -2.8103 -2.4666 -0.3602
  745MOL0     H  518   4.614   0.886   5.284  1.3406  1.2320 -1.8360
  745MOL0     H  519   4.552   0.937   5.442  0.2170  0.0216  0.8172
  745MOL0     H  520   4.455   1.136   5.352 -0.8983 -1.2425  1.5005
  745MOL0     H  521   4.505   1.119   5.187 -1.4252  1.7171  0.1741
  745MOL0     H  522   4.347   0.910   5.329 -0.1068  1.8188 -0.7162
  745MOL0     H  523   4.409   0.882   5.184  2.5908 -1.5336  4.6126
  745MOL0     H  524   4.156   0.978   5.167  0.3280 -0.9763  0.0997
  745MOL0     H  525   4.211   1.126   5.237 -3.9503 -2.0999  2.4315
  745MOL0     H  526   4.416   0.951   4.927 -0.6543 -0.2174 -5.1049
  745MOL0     H  527   4.532   1.135   4.730 -0.9083  2.4849  1.9575
  745MOL0     H  528   4.390   1.063   4.651  1.5977 -3.4395  2.9501
  745MOL0     H  529   4.432   1.360   4.692  2.1420 -1.3337  0.0714
  745MOL0     H  530   4.503   1.273   4.566 -0.2662 -2.2250 -1.2761
  745MOL0     H  531   4.243   1.390   4.564 -0.1790 -0.5607  2.2874
  745MOL0     H  532   4.215   1.227   4.580  0.9716 -2.7813 -3.9880
  745MOL0     H  533   4.214   1.255   4.335  0.2975 -3.1249 -0.4845
  745MOL0     H  534   4.347   1.158   4.371  2.4212  1.0882 -2.4226
  745MOL0     H  535   4.165   1.471   4.380 -0.6402  2.6732  2.2727
  745MOL0     H  536   4.103   1.680   4.298 -1.2476 -3.3006  0.8638
  745MOL0     H  537   4.104   2.041   4.392 -1.4064  1.0349  1.0907
  745MOL0     H  538   4.056   2.296   4.412 -0.5455 -0.3648  0.5099
  745MOL0     H  539   4.178   2.527   4.320  3.7144 -1.6690  1.1465
  745MOL0     H  540   4.260   2.463   4.189 -0.9124 -1.2912 -2.7823
  745MOL0     H  541   4.277   2.705   4.206  1.6543 -1.7026 -1.7111
  745MOL0     H  542   4.212   2.657   4.052  2.7091  1.6791  0.0398
  745MOL0     H  543   4.094   2.856   4.130 -0.5326  0.6974 -0.1521
  745MOL0     H  544   3.976   2.733   4.124  1.7208  3.0558 -5.2933
  745MOL0     H  545   4.155   2.810   4.361  1.3817 -3.2695 -1.9303
  745MOL0     H  546   4.012   2.711   4.386  1.7593 -0.9430 -0.4323
  745MOL0     H  547   3.861   2.903   4.313 -0.4202 -1.0576  0.5191
  745MOL0     H  548   4.004   2.997   4.307 -1.0044  0.6372  0.5985
  745MOL0     H  549   3.842   2.881   4.536 -0.9543 -0.3416 -0.4695
  745MOL0     H  550   4.014   2.930   4.563 -0.3755  0.6459  0.5314
  745MOL0     H  551   3.929   3.156   4.454 -0.1506  0.8036  0.2937
  745MOL0     H  552   3.882   3.135   4.621 -1.9080 -1.0203 -0.3077
  745MOL0     H  553   3.690   3.207   4.514  0.9260  0.1201 -1.8985
  745MOL0     H  554   3.684   3.063   4.417 -2.6740 -1.9580  2.8060
  745MOL0     H  555   4.100   2.321   3.989 -0.7965 -0.0301  0.7281
  745MOL0     H  556   4.132   2.077   3.981 -2.6409 -0.3674  0.4540
  745MOL0     H  557   4.502   1.749   4.159 -2.0527  1.4536  0.6473
  745MOL0     H  558   4.573   1.531   4.241  1.4098  2.3212  0.9934
  745MOL0     H  559   5.029   1.616   5.544 -2.0387 -6.9836  0.4822
  745MOL0     H  560   4.974   1.867   5.575 -2.2531  1.6836  2.1160
  745MOL0     H  561   4.410   2.153   5.706 -2.6178  2.8267  2.0235
  745MOL0     H  562   4.407   2.377   5.759 -2.8201 -1.8257 -2.7334
  745MOL0     H  563   4.392   2.565   5.640  2.1988 -0.2322 -0.0066
  745MOL0     H  564   4.464   2.722   5.650 -1.3080  0.1416  0.1100
  745MOL0     H  565   4.400   2.767   5.834  2.8678 -0.0830 -0.4368
  745MOL0     H  566   4.471   2.638   5.916  0.2010  1.7364  0.1628
  745MOL0     H  567   4.211   2.575   5.768 -2.2437 -1.5903  1.8268
  745MOL0     H  568   4.184   2.689   5.906  0.9270  0.2983  1.4462
  745MOL0     H  569   4.151   2.442   5.948 -0.5693  1.7673  2.8700
  745MOL0     H  570   4.324   2.418   5.954  0.5916 -1.0806  1.0850
  745MOL0     H  571   4.279   2.606   6.312 -0.2274 -0.6580  0.1908
  745MOL0     H  572   4.792   2.455   5.613 -1.1461  0.6926 -1.6958
  745MOL0     H  573   4.939   2.277   5.533  1.3674 -1.0799 -1.3008
  745MOL0     H  574   4.934   2.144   5.614 -1.4000 -1.2225 -1.0513
  745MOL0     H  575   4.864   2.128   5.459 -1.8485 -0.5563 -0.2213
  746MOL0     O  576   4.135   2.916   1.554  0.0335 -0.4939 -0.2391
  746MOL0     C  577   4.107   3.037   1.565 -0.0072  0.1288  0.0129
  746MOL0     O  578   4.024   3.079   1.663 -0.2060  0.9715 -0.4709
  746MOL0     C  579   3.975   2.991   1.749 -0.4378  0.3023  0.2467
  746MOL0     C  580   4.057   2.942   1.852 -0.5406  0.6041 -0.2895
  746MOL0     C  581   4.015   2.837   1.931 -0.9836  0.6889  1.4795
  746MOL0     C  582   3.891   2.776   1.907 -0.3886 -0.1852 -0.0138
  746MOL0     O  583   3.853   2.657   1.972  0.4663 -0.8658 -0.3662
  746MOL0     C  584   3.722   2.609   1.971  0.4628  1.1904  0.1837
  746MOL0     C  585   3.725   2.512   2.088 -0.1570  0.2131 -0.2788
  746MOL0     C  586   3.800   2.383   2.047 -0.0229 -0.0055 -0.1888
  746MOL0     C  587   3.753   2.257   2.113 -0.2621  0.6247  0.1155
  746MOL0     C  588   3.860   2.158   2.154  0.3937  0.2015 -0.3897
  746MOL0     C  589   3.946   2.119   2.044 -0.6433  0.2573  0.1791
  746MOL0     C  590   3.877   2.031   1.928 -0.4508 -0.8041 -1.0024
  746MOL0     C  591   3.849   1.894   1.985 -0.0620  0.6182 -1.6102
  746MOL0     N  592   3.818   1.790   1.888  0.2414 -0.3153 -0.1212
  746MOL0     C  593   3.701   1.719   1.898 -0.0309  0.3903  0.8430
  746MOL0     C  594   3.691   1.658   1.781 -0.0030 -0.2206  0.5124
  746MOL0     C  595   3.570   1.577   1.746 -0.4393  0.4470  0.7082
  746MOL0     C  596   3.462   1.662   1.679 -0.0918 -0.5909  0.1518
  746MOL0     C  597   3.317   1.601   1.694 -0.0402 -0.6495  0.1913
  746MOL0     C  598   3.214   1.668   1.600  0.8596 -0.1334 -0.1442
  746MOL0     O  599   3.209   1.813   1.609  0.1602  0.2495 -0.3290
  746MOL0     C  600   3.129   1.879   1.699 -0.6784  0.6618  0.9499
  746MOL0     C  601   3.043   1.825   1.783  0.5151  0.6901 -0.9446
  746MOL0     C  602   2.958   1.912   1.863 -0.9009  0.4699 -1.0711
  746MOL0     C  603   2.974   2.056   1.855  0.8315 -0.5885  0.7108
  746MOL0     C  604   2.892   2.129   1.953 -0.0427 -1.4704  0.3377
  746MOL0     O  605   2.860   2.065   2.067 -0.1063  0.2571 -0.0345
  746MOL0     C  606   2.803   2.137   2.168 -0.6693  0.2453 -0.1960
  746MOL0     C  607   2.719   2.251   2.162 -0.5822 -0.4251  1.3171
  746MOL0     C  608   2.666   2.301   2.283 -0.1038  0.1809 -0.3944
  746MOL0     C  609   2.705   2.253   2.407  0.2946 -0.4602 -0.2504
  746MOL0     O  610   2.687   2.308   2.534 -0.7111 -0.5295  0.6000
  746MOL0     C  611   2.565   2.384   2.554  0.1974 -0.5604 -0.0808
  746MOL0     C  612   2.491   2.329   2.677 -0.6734  0.3781  0.3366
  746MOL0     C  613   2.480   2.183   2.676  1.1510  0.5285  0.0093
  746MOL0     C  614   2.389   2.125   2.785 -0.1269 -0.3500 -0.8745
  746MOL0     C  615   2.465   2.039   2.887 -0.2152  0.4609 -1.1696
  746MOL0     C  616   2.554   2.121   2.983 -0.2897 -0.4537  0.5752
  746MOL0     C  617   2.568   2.054   3.120  0.4207  0.6259 -0.2389
  746MOL0     C  618   2.676   2.128   3.195 -1.4939 -1.3658 -0.4642
  746MOL0    Cl  619   2.801   2.022   3.281 -0.1214  0.4919 -0.2967
  746MOL0     C  620   2.805   2.146   2.409  0.2173  0.4729  0.9922
  746MOL0     C  621   2.849   2.086   2.291  0.3845 -0.0336 -0.2379
  746MOL0     O  622   2.873   2.247   1.926  0.1098  1.0124 -0.1476
  746MOL0     C  623   3.062   2.108   1.760 -0.0837 -0.4394 -0.0458
  746MOL0     C  624   3.143   2.017   1.691  0.5140 -0.1025  0.3979
  746MOL0     N  625   3.795   1.689   1.699 -0.1722  0.3626 -0.5299
  746MOL0     N  626   3.876   1.772   1.770  0.1780 -0.6076  0.2331
  746MOL0     C  627   3.806   2.832   1.810 -0.1440  1.5527  0.8558
  746MOL0     C  628   3.846   2.935   1.723  0.1228  0.0483 -0.8377
  746MOL0     C  629   4.168   3.141   1.477  0.1050 -0.1961  0.2104
  746MOL0     C  630   4.150   3.278   1.516 -0.5162  0.5457 -0.1880
  746MOL0     C  631   4.211   3.382   1.442 -0.2937 -0.4863 -0.2944
  746MOL0     C  632   4.317   3.356   1.349 -0.3520 -0.3907 -0.1143
  746MOL0     O  633   4.389   3.462   1.295 -0.5220  0.1205 -0.4818
  746MOL0     C  634   4.501   3.447   1.198  0.5667 -0.5614 -0.7488
  746MOL0     C  635   4.567   3.587   1.159  0.0465 -0.5667  0.4925
  746MOL0     C  636   4.635   3.560   1.022 -0.2267 -0.2671 -0.4682
  746MOL0     C  637   4.695   3.696   0.968 -0.7308 -0.2164 -0.3154
  746MOL0     C  638   4.602   3.763   0.871  0.2594 -0.5889 -0.7862
  746MOL0     C  639   4.521   3.819   0.808 -0.3794  0.6171 -0.6213
  746MOL0     C  640   4.346   3.225   1.322 -0.1853 -0.0255  0.4825
  746MOL0     C  641   4.266   3.115   1.372  0.2268 -0.5572 -0.4345
  746MOL0     C  642   4.304   2.984   1.313  0.0066 -0.4516  0.4754
  746MOL0     H  643   4.154   2.984   1.873 -1.3254  1.3962  2.1556
  746MOL0     H  644   4.084   2.800   2.006 -0.0562 -2.3750 -0.6877
  746MOL0     H  645   3.639   2.679   1.981 -0.3249  0.2959  0.0593
  746MOL0     H  646   3.713   2.556   1.876  0.6533  2.3160 -0.4832
  746MOL0     H  647   3.623   2.489   2.121 -0.1635 -1.0685 -1.1323
  746MOL0     H  648   3.777   2.575   2.161  0.3742  2.0769 -2.1797
  746MOL0     H  649   3.904   2.377   2.081  0.2128 -3.4875 -1.1193
  746MOL0     H  650   3.802   2.365   1.939  4.3088  2.8217 -0.8500
  746MOL0     H  651   3.706   2.282   2.209  0.0727  3.4786 -0.3582
  746MOL0     H  652   3.680   2.213   2.045 -2.5841 -1.5444  3.6553
  746MOL0     H  653   3.911   2.218   2.229  0.8305 -0.5393 -0.0827
  746MOL0     H  654   3.824   2.072   2.212 -0.3068  1.5335  1.2186
  746MOL0     H  655   3.989   2.211   2.004 -1.6229  1.7341  2.3658
  746MOL0     H  656   4.034   2.066   2.082  2.6942  4.1443 -1.4467
  746MOL0     H  657   3.945   2.020   1.843  1.3582 -0.4555  0.3233
  746MOL0     H  658   3.783   2.076   1.897 -1.7857 -2.3328  0.5803
  746MOL0     H  659   3.932   1.844   2.037 -0.6562 -0.2131 -1.4365
  746MOL0     H  660   3.758   1.896   2.045 -0.7693  2.0586 -2.6741
  746MOL0     H  661   3.631   1.725   1.980 -0.6300  0.1122  0.3562
  746MOL0     H  662   3.601   1.505   1.669 -2.8493  1.6372 -1.5327
  746MOL0     H  663   3.526   1.515   1.824  1.8655 -2.6904 -0.2994
  746MOL0     H  664   3.463   1.761   1.724  1.9530  0.7562 -2.5727
  746MOL0     H  665   3.484   1.682   1.573 -3.0530  1.9110 -0.1371
  746MOL0     H  666   3.300   1.604   1.802  1.1712 -2.9824  0.5140
  746MOL0     H  667   3.319   1.495   1.666 -0.2685 -1.4780  3.0525
  746MOL0     H  668   3.118   1.626   1.631  2.3082 -3.1978  0.5742
  746MOL0     H  669   3.237   1.627   1.501  0.1778 -0.5468 -0.1380
  746MOL0     H  670   3.024   1.719   1.789  1.3052  0.6211  1.6725
  746MOL0     H  671   2.885   1.864   1.927  1.2662 -1.0325  0.4280
  746MOL0     H  672   2.690   2.287   2.063  0.9163 -1.1916  0.5603
  746MOL0     H  673   2.593   2.381   2.278 -0.0181  0.2081 -1.4242
  746MOL0     H  674   2.580   2.491   2.569  1.7074 -0.6351 -0.8902
  746MOL0     H  675   2.503   2.380   2.463 -0.3317 -3.6570  0.3178
  746MOL0     H  676   2.527   2.362   2.775  1.0557  1.7850 -0.7120
  746MOL0     H  677   2.388   2.361   2.658 -0.2430 -0.0263 -3.6311
  746MOL0     H  678   2.435   2.140   2.586  0.2066 -0.4873  0.9487
  746MOL0     H  679   2.581   2.141   2.686  1.3420  0.6182 -1.3375
  746MOL0     H  680   2.316   2.053   2.747  1.3126 -0.6965 -3.1104
  746MOL0     H  681   2.338   2.211   2.830 -1.2732 -1.0360 -0.8225
  746MOL0     H  682   2.517   1.958   2.836  0.5564 -2.4655  3.6661
  746MOL0     H  683   2.385   2.000   2.951  1.1577 -0.6695 -0.0815
  746MOL0     H  684   2.649   2.154   2.940 -1.1067 -0.1131 -1.0405
  746MOL0     H  685   2.503   2.217   2.996  1.8274  0.3288  5.1634
  746MOL0     H  686   2.596   1.948   3.112 -0.7171  0.1885  1.2141
  746MOL0     H  687   2.474   2.053   3.175  0.1137  1.1224 -0.7428
  746MOL0     H  688   2.727   2.194   3.124 -1.9251 -0.5046  0.0174
  746MOL0     H  689   2.633   2.190   3.273  1.1428 -1.3344  1.0977
  746MOL0     H  690   2.828   2.100   2.504  1.7270  3.8590  2.4240
  746MOL0     H  691   2.904   1.993   2.299 -0.0170 -0.4507 -1.8809
  746MOL0     H  692   3.066   2.215   1.741  0.2300 -0.3158  0.6883
  746MOL0     H  693   3.208   2.053   1.612 -1.8932 -1.9013 -2.6599
  746MOL0     H  694   3.708   2.787   1.796  0.9496 -1.6143  2.4433
  746MOL0     H  695   3.776   2.961   1.645  0.4235 -0.0068 -1.1304
  746MOL0     H  696   4.085   3.315   1.594  1.0984  1.9154  0.5886
  746MOL0     H  697   4.201   3.489   1.456 -1.7695 -0.7970  1.2367
  746MOL0     H  698   4.443   3.416   1.110 -1.1288  0.6318 -0.0928
  746MOL0     H  699   4.573   3.368   1.220  0.5101 -0.6143 -0.7521
  746MOL0     H  700   4.627   3.621   1.244  0.4533 -0.0433  0.0075
  746MOL0     H  701   4.481   3.655   1.151 -0.8579 -1.5807  1.3942
  746MOL0     H  702   4.571   3.498   0.958 -0.9487 -2.1422  1.9103
  746MOL0     H  703   4.723   3.499   1.048 -0.7870 -1.5313 -1.4463
  746MOL0     H  704   4.710   3.769   1.048 -3.4257 -1.2598  1.2892
  746MOL0     H  705   4.786   3.666   0.916 -0.1475  0.1303  0.4838
  746MOL0     H  706   4.456   3.867   0.737 -1.5186  0.4892  0.2980
  746MOL0     H  707   4.425   3.202   1.251 -1.5887 -0.4915 -0.9814
  746MOL0     H  708   4.223   2.911   1.325 -0.7979  0.8456  3.9733
  746MOL0     H  709   4.309   2.994   1.204  2.2626  1.1043  0.6636
  746MOL0     H  710   4.393   2.939   1.358  0.1601 -1.2230 -0.5476
  747MOL0     O  711   5.191   8.782   7.142 -0.4205  0.3553 -0.2500
  747MOL0     C  712   5.144   8.671   7.169  0.2770 -0.4896 -0.3603
  747MOL0     O  713   5.039   8.661   7.258 -0.7056  0.0850  1.0967
  747MOL0     C  714   4.998   8.532   7.273  0.2885  0.2470 -0.7117
  747MOL0     C  715   5.054   8.441   7.363 -0.2116  0.9020  0.0176
  747MOL0     C  716   5.022   8.302   7.362 -0.0207 -0.1294  0.3784
  747MOL0     C  717   4.910   8.252   7.289 -0.2603 -0.0093 -0.2020
  747MOL0     O  718   4.879   8.121   7.275 -0.0605 -0.3505  0.1523
  747MOL0     C  719   4.828   8.050   7.384 -0.4778 -0.7094 -0.2211
  747MOL0     C  720   4.832   7.903   7.350  0.4577 -1.2666 -0.0263
  747MOL0     C  721   4.714   7.872   7.266  0.5002 -0.2022 -0.1104
  747MOL0     C  722   4.733   7.737   7.201 -0.2609  0.2628 -0.2418
  747MOL0     C  723   4.694   7.616   7.296 -0.7735 -0.5011  0.4566
  747MOL0     C  724   4.644   7.483   7.237 -0.1081  0.5854 -0.1006
  747MOL0     C  725   4.627   7.364   7.332 -0.0616  0.6386  0.6538
  747MOL0     C  726   4.531   7.386   7.463  0.4862 -0.2708 -0.0282
  747MOL0     N  727   4.543   7.269   7.548 -0.8286  0.9301 -0.4243
  747MOL0     C  728   4.633   7.270   7.658  1.5719 -0.8162  0.4307
  747MOL0     C  729   4.618   7.143   7.712  0.1986 -0.4611  0.4380
  747MOL0     C  730   4.691   7.113   7.835  0.3936 -0.2217 -0.1650
  747MOL0     C  731   4.698   6.960   7.866 -0.7465  0.2672  0.3315
  747MOL0     C  732   4.815   6.945   7.972  0.4591  0.2375  0.8816
  747MOL0     C  733   4.796   6.825   8.061 -0.4703  0.4782  0.4575
  747MOL0     O  734   4.931   6.780   8.085  0.7001  0.5792 -0.0363
  747MOL0     C  735   4.956   6.802   8.217  0.2456  0.0639  0.2039
  747MOL0     C  736   5.011   6.915   8.262 -0.4906 -0.5456  0.0455
  747MOL0     C  737   5.052   6.930   8.400  0.2973  0.5750  0.1750
  747MOL0     C  738   5.036   6.824   8.489 -0.1455 -1.0639 -1.2812
  747MOL0     C  739   5.069   6.839   8.635 -0.3942  0.6636  0.1243
  747MOL0     O  740   5.022   6.744   8.713 -0.4140 -0.7294 -0.8763
  747MOL0     C  741   5.062   6.745   8.843  0.6178 -0.4576  0.4586
  747MOL0     C  742   5.188   6.685   8.883 -0.1196  1.2457 -0.2372
  747MOL0     C  743   5.218   6.670   9.015  0.4314  0.0331 -0.5497
  747MOL0     C  744   5.143   6.725   9.120  1.0110 -0.5266  0.3403
  747MOL0     O  745   5.181   6.732   9.248 -0.0915 -0.0398  0.1986
  747MOL0     C  746   5.292   6.827   9.259  0.0212  0.3395 -0.5535
  747MOL0     C  747   5.314   6.864   9.411 -0.3018  1.1770 -1.3223
  747MOL0     C  748   5.213   6.951   9.501 -0.0912  0.0719 -0.3014
  747MOL0     C  749   5.281   6.980   9.631 -0.2411 -0.9672 -0.4421
  747MOL0     C  750   5.196   7.058   9.726 -0.5695 -0.4829 -0.6258
  747MOL0     C  751   5.097   7.150   9.658  0.3147  0.1291  0.2246
  747MOL0     C  752   4.999   7.209   9.767  0.0851  0.0053  0.2936
  747MOL0     C  753   5.047   7.334   9.837 -0.5838 -0.1652  0.5054
  747MOL0    Cl  754   4.905   7.399   9.922 -0.3292  0.0174 -0.0375
  747MOL0     C  755   5.023   6.798   9.081 -0.4839  0.1153  0.0824
  747MOL0     C  756   4.981   6.805   8.949 -0.2321  0.4870  0.2950
  747MOL0     O  757   5.127   6.938   8.672 -0.8174 -0.6659  0.4584
  747MOL0     C  758   4.967   6.709   8.443 -0.6385  0.5622 -0.0429
  747MOL0     C  759   4.939   6.701   8.303  0.6725  0.1501 -0.4997
  747MOL0     N  760   4.523   7.071   7.635 -0.5490  0.3485  0.2585
  747MOL0     N  761   4.485   7.148   7.538  0.1870  0.1457 -0.3816
  747MOL0     C  762   4.848   8.351   7.205 -0.1330  0.1441  0.1615
  747MOL0     C  763   4.887   8.494   7.204  0.2601  0.6917  0.7199
  747MOL0     C  764   5.202   8.557   7.090 -0.0214  1.4826 -0.2677
  747MOL0     C  765   5.148   8.514   6.971 -0.3124  0.7915  1.1565
  747MOL0     C  766   5.195   8.397   6.912  0.6031  1.0964  0.3502
  747MOL0     C  767   5.298   8.321   6.972  0.6726 -0.3441 -0.6914
  747MOL0     O  768   5.341   8.205   6.919  0.4165  0.1059 -0.1248
  747MOL0     C  769   5.387   8.193   6.777  0.2358  0.4383 -0.4554
  747MOL0     C  770   5.532   8.234   6.767 -1.3181 -0.0836  0.9041
  747MOL0     C  771   5.612   8.114   6.830  0.4372 -0.3377 -0.0988
  747MOL0     C  772   5.763   8.143   6.850  0.7814  0.6675 -0.2983
  747MOL0     C  773   5.772   8.264   6.931 -1.0811  0.0386 -0.2820
  747MOL0     C  774   5.793   8.356   7.005  0.8817 -0.0074  1.1231
  747MOL0     C  775   5.353   8.366   7.096 -0.2898  0.0816  0.4595
  747MOL0     C  776   5.318   8.488   7.145  0.2774 -0.3590 -0.7009
  747MOL0     C  777   5.388   8.550   7.271 -0.3588 -0.1290 -0.9978
  747MOL0     H  778   5.135   8.475   7.427 -1.1445  0.3114  1.5789
  747MOL0     H  779   5.084   8.224   7.405  1.1991  0.3318 -0.4928
  747MOL0     H  780   4.898   8.060   7.467  3.2193 -0.0104 -3.1697
  747MOL0     H  781   4.727   8.069   7.421 -0.1617 -1.8146  1.3162
  747MOL0     H  782   4.815   7.856   7.448 -0.0835  0.7005  0.8711
  747MOL0     H  783   4.929   7.875   7.308  1.5267  0.0819  1.4190
  747MOL0     H  784   4.693   7.950   7.192  0.1127  2.6743  2.7844
  747MOL0     H  785   4.618   7.867   7.319  2.2915 -0.4283  3.4646
  747MOL0     H  786   4.668   7.738   7.113 -0.0528 -2.2566 -0.5017
  747MOL0     H  787   4.833   7.720   7.160 -0.5052 -1.1337 -0.3008
  747MOL0     H  788   4.787   7.594   7.350  0.2091 -2.9347 -1.9657
  747MOL0     H  789   4.616   7.657   7.361 -2.0625  2.1626 -2.4875
  747MOL0     H  790   4.544   7.504   7.196  1.1854  4.4302 -1.7792
  747MOL0     H  791   4.708   7.456   7.153 -1.5687  1.9032 -1.7233
  747MOL0     H  792   4.725   7.337   7.373  1.0263  0.7206 -1.7633
  747MOL0     H  793   4.579   7.282   7.279  0.2294  0.6055  0.4353
  747MOL0     H  794   4.556   7.473   7.526 -3.5434  3.6607 -3.2133
  747MOL0     H  795   4.425   7.406   7.445 -0.9666 -6.7504 -1.2528
  747MOL0     H  796   4.700   7.350   7.688 -2.5993  1.1546  6.1379
  747MOL0     H  797   4.799   7.126   7.818  0.5501  1.0716  1.5076
  747MOL0     H  798   4.664   7.171   7.924  2.6916  1.1383 -0.2596
  747MOL0     H  799   4.596   6.928   7.888 -1.4346  0.0823 -2.5896
  747MOL0     H  800   4.728   6.905   7.776 -0.8032 -0.4434  0.7406
  747MOL0     H  801   4.840   7.032   8.033  2.1234  3.5634 -3.9451
  747MOL0     H  802   4.910   6.932   7.920 -0.3352 -0.9730 -0.3557
  747MOL0     H  803   4.741   6.739   8.024 -1.4597 -0.3794  3.6124
  747MOL0     H  804   4.740   6.864   8.147 -2.1463 -1.2141  0.1988
  747MOL0     H  805   5.012   7.002   8.199 -0.8324 -1.2120 -0.8961
  747MOL0     H  806   5.094   7.020   8.444  1.9281 -1.0015  2.0546
  747MOL0     H  807   5.251   6.647   8.803  3.9456 -0.5463  3.3847
  747MOL0     H  808   5.307   6.613   9.042 -0.9008 -2.7561 -1.5542
  747MOL0     H  809   5.387   6.786   9.222  1.9395  1.2742  2.8043
  747MOL0     H  810   5.259   6.920   9.213 -2.7711 -0.2553  0.0759
  747MOL0     H  811   5.303   6.768   9.463  1.3329  1.9584  0.5677
  747MOL0     H  812   5.412   6.906   9.435 -1.9249  3.1833  2.8560
  747MOL0     H  813   5.198   7.048   9.453  1.4599  0.0943 -0.8064
  747MOL0     H  814   5.124   6.889   9.518  0.1231 -0.0551  0.3774
  747MOL0     H  815   5.370   7.036   9.599 -1.0828  0.0944 -1.0025
  747MOL0     H  816   5.317   6.890   9.681  1.5059  0.5789  1.2645
  747MOL0     H  817   5.261   7.104   9.801 -1.4690  0.1636 -0.2175
  747MOL0     H  818   5.137   6.985   9.781 -2.9383  1.7537 -0.0175
  747MOL0     H  819   5.156   7.222   9.601  0.8861  1.7577  2.7213
  747MOL0     H  820   5.032   7.093   9.590 -1.7593  0.2771  1.9874
  747MOL0     H  821   4.975   7.134   9.843  4.3548  0.6141  2.5580
  747MOL0     H  822   4.908   7.247   9.721  0.1484  0.7784  0.7954
  747MOL0     H  823   5.121   7.303   9.910 -0.7091  1.0239  1.1645
  747MOL0     H  824   5.082   7.411   9.766 -0.7944 -0.1210  0.4485
  747MOL0     H  825   4.971   6.847   9.163 -0.9607 -1.1443  0.5622
  747MOL0     H  826   4.897   6.857   8.904 -0.4683  1.0650  1.3577
  747MOL0     H  827   4.940   6.628   8.510 -5.3888  0.3728 -1.7950
  747MOL0     H  828   4.883   6.613   8.273 -0.7068  1.5758 -2.3375
  747MOL0     H  829   4.766   8.301   7.154  0.1236 -0.3706  0.2494
  747MOL0     H  830   4.835   8.561   7.137 -1.3092 -3.7564 -2.9959
  747MOL0     H  831   5.076   8.578   6.921  1.9762  0.1444 -3.4984
  747MOL0     H  832   5.141   8.341   6.836 -1.4362  0.6305  2.0409
  747MOL0     H  833   5.341   8.260   6.704  1.7131 -1.0806 -2.9292
  747MOL0     H  834   5.382   8.091   6.737 -2.0966  0.1547  0.4343
  747MOL0     H  835   5.558   8.332   6.807  1.5149 -0.0324 -0.7588
  747MOL0     H  836   5.557   8.226   6.661 -1.8768  0.2643  0.7433
  747MOL0     H  837   5.610   8.032   6.758  0.0835 -0.2262 -0.2166
  747MOL0     H  838   5.558   8.097   6.924 -0.5169  0.7573 -0.4177
  747MOL0     H  839   5.798   8.050   6.896 -6.7733 -2.9174 -0.2607
  747MOL0     H  840   5.817   8.151   6.755  0.3569 -1.9349 -0.8575
  747MOL0     H  841   5.811   8.435   7.075  1.2938  1.4962 -0.6183
  747MOL0     H  842   5.423   8.302   7.148  1.8411  0.8630 -1.3249
  747MOL0     H  843   5.497   8.552   7.267 -0.2782  0.7929  0.7521
  747MOL0     H  844   5.362   8.656   7.282 -0.2835 -0.2918  1.1936
  747MOL0     H  845   5.375   8.491   7.362 -0.9678 -1.6080 -2.0099
  748MOL0     O  846   5.225   7.556   8.890  0.1372 -0.3547  0.1984
  748MOL0     C  847   5.262   7.606   8.999  0.8663 -0.1891  0.7276
  748MOL0     O  848   5.395   7.616   9.042  0.2680  0.0044 -0.4122
  748MOL0     C  849   5.494   7.604   8.946  0.4442 -0.0560  0.3418
  748MOL0     C  850   5.493   7.631   8.802  0.0428  0.3732 -0.5986
  748MOL0     C  851   5.598   7.599   8.725  0.2449 -0.1878  0.4302
  748MOL0     C  852   5.710   7.550   8.783 -0.3552 -0.5268 -0.5050
  748MOL0     O  853   5.804   7.530   8.688  0.0654 -0.1060 -0.7524
  748MOL0     C  854   5.935   7.501   8.725 -0.6098 -0.7967  0.4228
  748MOL0     C  855   6.039   7.525   8.607  0.3536 -0.2903 -0.1158
  748MOL0     C  856   5.985   7.494   8.466 -0.8637 -0.1179 -0.4607
  748MOL0     C  857   6.084   7.495   8.359 -0.2303  0.4037  0.5765
  748MOL0     C  858   6.015   7.411   8.246  0.4977  0.2349 -0.2737
  748MOL0     C  859   6.096   7.435   8.115 -0.0341  0.5877 -0.6135
  748MOL0     C  860   6.027   7.368   7.992 -0.5856  0.2199  0.1743
  748MOL0     C  861   5.890   7.420   7.927  0.6355  0.3252 -0.8327
  748MOL0     N  862   5.865   7.341   7.797 -0.6252 -0.2259 -0.7361
  748MOL0     C  863   5.925   7.377   7.676 -0.0188  0.2881 -0.3130
  748MOL0     C  864   5.917   7.273   7.600  0.6646  0.8155 -0.3725
  748MOL0     C  865   5.963   7.274   7.456 -0.4824 -0.5566 -0.3697
  748MOL0     C  866   5.887   7.371   7.375  0.4051  0.9422  0.1621
  748MOL0     C  867   5.735   7.357   7.393  0.0390  0.4589 -0.0810
  748MOL0     C  868   5.652   7.455   7.299  0.0550  0.1434 -0.3302
  748MOL0     O  869   5.711   7.472   7.170 -0.5653 -0.4272 -1.0723
  748MOL0     C  870   5.672   7.396   7.068 -0.8318 -0.0811  0.4373
  748MOL0     C  871   5.736   7.431   6.945 -0.7480  0.2702 -0.1798
  748MOL0     C  872   5.693   7.379   6.821 -0.3859 -0.3663  0.0671
  748MOL0     C  873   5.583   7.292   6.819  0.8598  0.6914  0.2225
  748MOL0     C  874   5.539   7.248   6.693 -0.1188  0.0460  0.5378
  748MOL0     O  875   5.514   7.343   6.605  0.4101 -0.8386 -0.1402
  748MOL0     C  876   5.489   7.304   6.472  0.6921  0.8891 -0.0628
  748MOL0     C  877   5.369   7.336   6.404  0.1977 -0.7301 -0.4045
  748MOL0     C  878   5.347   7.301   6.268  0.1670 -0.1641  0.2072
  748MOL0     C  879   5.451   7.229   6.202  1.3251 -0.1459 -0.7361
  748MOL0     O  880   5.433   7.220   6.072  0.8405 -0.3598 -0.1305
  748MOL0     C  881   5.537   7.148   6.000  0.8935  1.6113  0.3573
  748MOL0     C  882   5.483   7.166   5.853  0.0048  0.3186  0.7596
  748MOL0     C  883   5.605   7.161   5.761 -0.6520 -0.7354  0.2233
  748MOL0     C  884   5.651   7.015   5.754  0.3490  0.0194 -0.0733
  748MOL0     C  885   5.794   6.994   5.718 -0.3165 -0.7942 -0.2153
  748MOL0     C  886   5.827   7.063   5.580  0.0323  0.9267  0.3376
  748MOL0     C  887   5.981   7.114   5.559  1.6007 -0.1591  0.6430
  748MOL0     C  888   6.087   7.006   5.568 -0.4895 -0.4341  0.4106
  748MOL0    Cl  889   6.109   6.914   5.416 -0.4483 -0.1299 -0.3476
  748MOL0     C  890   5.564   7.183   6.276  0.7880 -0.4399 -0.0710
  748MOL0     C  891   5.576   7.223   6.410  0.4814 -0.0642  0.2204
  748MOL0     O  892   5.545   7.123   6.673  0.2123  0.0534 -0.3807
  748MOL0     C  893   5.532   7.246   6.941 -0.0479  0.7685  0.0514
  748MOL0     C  894   5.575   7.299   7.068 -0.2820 -0.2720 -0.5745
  748MOL0     N  895   5.862   7.165   7.674 -0.6439 -0.3172 -0.1770
  748MOL0     N  896   5.821   7.216   7.788 -0.4260  0.8403 -0.1860
  748MOL0     C  897   5.724   7.532   8.926  0.5719 -0.2763 -0.1205
  748MOL0     C  898   5.616   7.558   9.001 -0.1661  0.6687 -0.7796
  748MOL0     C  899   5.158   7.643   9.101 -0.3300 -0.1844  0.2715
  748MOL0     C  900   5.026   7.612   9.083 -0.2125  0.2548 -0.6694
  748MOL0     C  901   4.929   7.652   9.174  0.0364 -0.3550  0.8120
  748MOL0     C  902   4.964   7.726   9.286  0.1024  0.2625 -0.3386
  748MOL0     O  903   4.878   7.764   9.386 -0.6862  0.2544 -0.7840
  748MOL0     C  904   4.760   7.683   9.383  1.0336 -0.8246  0.3627
  748MOL0     C  905   4.702   7.682   9.528 -0.3763 -0.1798 -0.1971
  748MOL0     C  906   4.587   7.574   9.523 -0.8238 -1.2032  0.8263
  748MOL0     C  907   4.624   7.450   9.602 -0.6165 -0.4886 -0.1513
  748MOL0     C  908   4.507   7.366   9.598 -0.9755  0.1246 -0.0492
  748MOL0     C  909   4.417   7.300   9.582 -0.2796  1.5340 -0.6385
  748MOL0     C  910   5.103   7.771   9.299  0.2550  0.0033 -0.0786
  748MOL0     C  911   5.195   7.742   9.202  0.7400  0.7963  0.2584
  748MOL0     C  912   5.333   7.805   9.223  0.0152 -0.8085 -0.1429
  748MOL0     H  913   5.414   7.682   8.748  1.5249  1.1126 -2.1573
  748MOL0     H  914   5.601   7.612   8.617  3.1946 -1.4848  0.2857
  748MOL0     H  915   5.963   7.573   8.803 -1.6605  0.9376 -0.7208
  748MOL0     H  916   5.953   7.398   8.756  2.7256  0.2085  2.4740
  748MOL0     H  917   6.137   7.476   8.613  2.5211  3.0892 -3.2946
  748MOL0     H  918   6.063   7.631   8.620 -0.9787  0.1942 -1.3429
  748MOL0     H  919   5.916   7.573   8.437 -0.0963  1.0379  0.7386
  748MOL0     H  920   5.928   7.401   8.476 -2.3635  0.9824  2.0344
  748MOL0     H  921   6.097   7.597   8.321  0.0726  0.2036  0.1403
  748MOL0     H  922   6.179   7.458   8.397 -0.8964  1.6499  3.7637
  748MOL0     H  923   6.020   7.306   8.278  1.9836  0.4144  0.1524
  748MOL0     H  924   5.915   7.451   8.228 -0.0132 -1.2817 -0.9666
  748MOL0     H  925   6.105   7.542   8.094  2.7975  1.2886  3.0736
  748MOL0     H  926   6.198   7.401   8.135  0.3146  0.8564 -1.8419
  748MOL0     H  927   6.016   7.261   8.013  0.4931 -0.2244 -1.3666
  748MOL0     H  928   6.098   7.374   7.909 -1.5014  0.8539 -0.5818
  748MOL0     H  929   5.811   7.396   7.998  2.7300  1.3204  2.0173
  748MOL0     H  930   5.889   7.524   7.892  1.2105 -0.2469 -2.6608
  748MOL0     H  931   5.980   7.466   7.648  2.5159 -0.9017  0.5981
  748MOL0     H  932   6.068   7.301   7.455 -0.5459  0.0606  2.6256
  748MOL0     H  933   5.949   7.172   7.417  1.5266 -2.8002  4.0756
  748MOL0     H  934   5.909   7.474   7.402 -0.0302  1.8996 -2.7949
  748MOL0     H  935   5.915   7.354   7.271  0.0664  0.2855  0.1731
  748MOL0     H  936   5.696   7.366   7.494 -3.1180  2.1449 -1.2973
  748MOL0     H  937   5.699   7.262   7.353  0.3185  0.8162 -1.2220
  748MOL0     H  938   5.654   7.554   7.346  0.2390 -0.6961  1.5417
  748MOL0     H  939   5.545   7.433   7.299  0.1100 -0.1224 -0.8782
  748MOL0     H  940   5.818   7.500   6.958 -1.1890  0.7711 -0.0209
  748MOL0     H  941   5.731   7.417   6.726  2.5051 -1.1124  0.8300
  748MOL0     H  942   5.296   7.394   6.460  3.6242  2.6482  1.0420
  748MOL0     H  943   5.258   7.325   6.212  0.2839 -1.6259 -0.6328
  748MOL0     H  944   5.634   7.193   6.018  1.0819  0.2137  3.5989
  748MOL0     H  945   5.538   7.043   6.031  2.1184  1.7569  0.8500
  748MOL0     H  946   5.403   7.093   5.840  0.8295 -0.0253 -4.5338
  748MOL0     H  947   5.441   7.267   5.845 -0.6712 -0.0779 -1.1670
  748MOL0     H  948   5.580   7.201   5.662 -1.6999 -2.6293 -0.3304
  748MOL0     H  949   5.687   7.221   5.802 -0.7241 -1.0911  0.9169
  748MOL0     H  950   5.584   6.950   5.698  1.2942 -1.2282  0.1971
  748MOL0     H  951   5.656   6.968   5.852  2.3242 -2.4459 -1.2259
  748MOL0     H  952   5.812   6.887   5.699 -3.5940 -1.7699  1.4100
  748MOL0     H  953   5.859   7.028   5.799  1.0019  1.5350 -2.1093
  748MOL0     H  954   5.821   6.991   5.497  1.6603 -0.3787  1.2972
  748MOL0     H  955   5.772   7.157   5.569 -1.2364  0.4786  2.5181
  748MOL0     H  956   6.007   7.191   5.633  0.4536  2.3652 -1.4072
  748MOL0     H  957   5.994   7.155   5.458 -2.1316  1.7026  0.7517
  748MOL0     H  958   6.180   7.060   5.593 -1.9458  3.4399 -1.6326
  748MOL0     H  959   6.065   6.939   5.651 -0.1925 -2.9294 -1.4348
  748MOL0     H  960   5.642   7.117   6.242 -0.9227 -1.8368 -1.5365
  748MOL0     H  961   5.670   7.197   6.456  1.5689  1.5045 -1.0093
  748MOL0     H  962   5.461   7.164   6.939  1.2791 -0.4035 -1.1479
  748MOL0     H  963   5.539   7.268   7.166  1.0086 -1.8454 -0.5647
  748MOL0     H  964   5.821   7.510   8.969  0.6248 -0.3437 -0.2732
  748MOL0     H  965   5.628   7.536   9.106 -0.8555 -1.7384 -1.1398
  748MOL0     H  966   4.980   7.542   9.015 -4.2965 -0.8834  2.8350
  748MOL0     H  967   4.829   7.617   9.152  0.0152  0.1367  0.0983
  748MOL0     H  968   4.776   7.579   9.354 -0.9132 -0.7771 -1.1169
  748MOL0     H  969   4.680   7.714   9.315  1.6944 -3.2065 -1.6359
  748MOL0     H  970   4.655   7.778   9.550 -1.7528 -1.5563  3.7708
  748MOL0     H  971   4.776   7.658   9.605  2.3924  0.1113 -2.6147
  748MOL0     H  972   4.559   7.535   9.424 -3.3501  0.5362  0.7518
  748MOL0     H  973   4.497   7.619   9.566 -1.4795 -0.7575 -0.9048
  748MOL0     H  974   4.711   7.404   9.554  0.4533  1.3158 -0.0715
  748MOL0     H  975   4.647   7.471   9.707 -3.6466 -0.8963  0.6644
  748MOL0     H  976   4.342   7.224   9.583  4.2887 -3.5786  0.1766
  748MOL0     H  977   5.117   7.843   9.379 -1.9351  0.4075 -0.0108
  748MOL0     H  978   5.399   7.728   9.262  0.9229 -1.2955 -2.4961
  748MOL0     H  979   5.360   7.854   9.129 -0.4622 -2.0743 -0.9549
  748MOL0     H  980   5.334   7.885   9.298  2.8646  1.1558 -2.0573
  749MOL0     O  981   4.083   3.146   2.500  0.2439  0.3759 -0.8165
  749MOL0     C  982   4.101   3.241   2.420  0.2149  0.3519 -0.2553
  749MOL0     O  983   4.171   3.228   2.295  0.2073 -0.0383 -0.6702
  749MOL0     C  984   4.256   3.116   2.299  0.7451 -0.6932  0.0510
  749MOL0     C  985   4.226   3.002   2.231 -0.0834 -0.2821  0.5903
  749MOL0     C  986   4.318   2.887   2.228  0.4902  0.3257 -0.3655
  749MOL0     C  987   4.441   2.899   2.300  0.1899 -0.1328 -0.0922
  749MOL0     O  988   4.517   2.779   2.309 -0.1584 -0.1401 -0.4211
  749MOL0     C  989   4.651   2.790   2.330  0.8139  0.4316 -0.6716
  749MOL0     C  990   4.723   2.661   2.322  0.0445  0.9046  0.2692
  749MOL0     C  991   4.686   2.584   2.187 -0.1571  0.6197 -0.5945
  749MOL0     C  992   4.814   2.498   2.145 -0.0411  0.3341 -0.4625
  749MOL0     C  993   4.782   2.384   2.044 -0.2212 -0.8350 -0.5873
  749MOL0     C  994   4.773   2.245   2.113 -0.3922  0.7435 -0.4054
  749MOL0     C  995   4.749   2.127   2.011  0.4812 -0.0672 -0.7563
  749MOL0     C  996   4.872   2.105   1.917 -0.6982  0.6916 -0.5066
  749MOL0     N  997   4.998   2.109   2.004 -0.6827  1.0707  0.5407
  749MOL0     C  998   5.099   2.202   1.994 -0.1887 -1.1436 -0.0915
  749MOL0     C  999   5.203   2.143   2.062  0.4158  0.6679 -0.3858
  749MOL0     C 1000   5.342   2.179   2.059 -0.4800 -0.4134  1.5064
  749MOL0     C 1001   5.405   2.220   1.922 -0.3070  0.5327  0.3330
  749MOL0     C 1002   5.410   2.106   1.821 -0.8272  0.4412  0.1031
  749MOL0     C 1003   5.504   2.125   1.708 -1.0409  0.8059  0.4473
  749MOL0     O 1004   5.641   2.095   1.739 -0.0068 -0.0328 -0.7349
  749MOL0     C 1005   5.701   1.995   1.808  0.3820  1.1644  0.3825
  749MOL0     C 1006   5.798   2.032   1.900 -0.4367 -0.4180 -0.2911
  749MOL0     C 1007   5.880   1.928   1.948  0.4565  0.2061 -0.3057
  749MOL0     C 1008   5.868   1.798   1.897 -0.2354  0.9826  0.1997
  749MOL0     C 1009   5.948   1.690   1.956  0.8310 -0.5387 -0.6970
  749MOL0     O 1010   6.000   1.707   2.090  0.1579 -0.3627  0.1826
  749MOL0     C 1011   6.067   1.609   2.158  0.7320 -0.3683  0.0029
  749MOL0     C 1012   6.059   1.591   2.297 -0.1713 -0.7977 -0.4473
  749MOL0     C 1013   6.107   1.480   2.365  0.4758 -0.4564  0.2380
  749MOL0     C 1014   6.165   1.379   2.295 -0.0126 -0.7920  0.5253
  749MOL0     O 1015   6.231   1.283   2.365 -0.3844 -1.0092 -0.3020
  749MOL0     C 1016   6.155   1.212   2.468 -0.4409 -0.3071  0.0369
  749MOL0     C 1017   6.185   1.068   2.443 -0.8337 -0.1171  0.6217
  749MOL0     C 1018   6.336   1.028   2.430  0.4564  0.9047 -0.6328
  749MOL0     C 1019   6.423   1.073   2.550 -0.2371 -0.6450  0.1313
  749MOL0     C 1020   6.551   0.988   2.542 -0.0518 -0.4471  0.1054
  749MOL0     C 1021   6.643   1.035   2.664  1.1691  0.0194  0.3864
  749MOL0     C 1022   6.783   0.973   2.626  0.1214  0.8981  0.1160
  749MOL0     C 1023   6.899   1.038   2.699 -0.4915 -0.7084  0.6069
  749MOL0    Cl 1024   6.896   0.963   2.859  0.1666 -0.0629  0.1599
  749MOL0     C 1025   6.187   1.398   2.157 -0.1744 -0.4971  0.2501
  749MOL0     C 1026   6.147   1.514   2.090 -0.3906 -0.3380 -0.0485
  749MOL0     O 1027   5.945   1.592   1.888 -0.4358  0.3986  0.1044
  749MOL0     C 1028   5.774   1.776   1.796 -0.4058 -0.8272 -0.0617
  749MOL0     C 1029   5.680   1.870   1.756  0.0759 -0.1071 -0.9274
  749MOL0     N 1030   5.155   2.025   2.120  0.4194 -0.5312  0.5742
  749MOL0     N 1031   5.032   2.007   2.091 -0.4963 -0.6056  0.4080
  749MOL0     C 1032   4.473   3.017   2.382  0.7287 -0.9630 -0.5593
  749MOL0     C 1033   4.385   3.130   2.370  1.0017 -0.3736 -0.3567
  749MOL0     C 1034   4.031   3.378   2.449  0.5227  0.9963 -0.0674
  749MOL0     C 1035   4.044   3.465   2.346 -0.6146 -0.4400 -0.4262
  749MOL0     C 1036   4.008   3.602   2.364 -0.2979  0.5965 -0.1398
  749MOL0     C 1037   3.936   3.643   2.477  0.0992 -0.2961 -0.8942
  749MOL0     O 1038   3.913   3.774   2.488  0.0535 -0.3775  0.0070
  749MOL0     C 1039   3.856   3.820   2.610  0.1140  0.0588  0.0673
  749MOL0     C 1040   3.835   3.970   2.591 -0.4042 -0.9773 -0.6731
  749MOL0     C 1041   3.721   4.009   2.496  0.5904  0.0200  0.1000
  749MOL0     C 1042   3.730   4.148   2.435  0.2835 -0.1775 -0.1573
  749MOL0     C 1043   3.754   4.256   2.529  0.5090 -0.0389 -0.3339
  749MOL0     C 1044   3.768   4.341   2.607  0.0130  0.9014  0.5685
  749MOL0     C 1045   3.906   3.545   2.574  0.4958  0.1532  0.4823
  749MOL0     C 1046   3.958   3.416   2.570 -1.2988  0.1716  0.2542
  749MOL0     C 1047   3.928   3.320   2.681 -0.6415 -0.0626  0.4285
  749MOL0     H 1048   4.132   2.998   2.177  2.0134 -0.6104 -3.4241
  749MOL0     H 1049   4.300   2.796   2.171  0.1480  1.6142 -2.4121
  749MOL0     H 1050   4.694   2.860   2.257  1.0055  1.3036  0.2594
  749MOL0     H 1051   4.669   2.829   2.430 -4.7748  0.4729  0.6001
  749MOL0     H 1052   4.693   2.586   2.395 -3.6206  1.1802 -0.7375
  749MOL0     H 1053   4.830   2.681   2.331  1.1968 -3.3212 -1.4073
  749MOL0     H 1054   4.658   2.640   2.097  2.5338 -0.3735 -2.1430
  749MOL0     H 1055   4.607   2.511   2.207  2.3751 -1.4051  3.0437
  749MOL0     H 1056   4.891   2.561   2.100  2.5737 -2.4204 -0.2444
  749MOL0     H 1057   4.871   2.470   2.235 -0.9311  1.4556  0.4854
  749MOL0     H 1058   4.686   2.400   1.994 -0.4065  1.8858  0.4745
  749MOL0     H 1059   4.863   2.373   1.971  0.2892 -0.3424 -0.1098
  749MOL0     H 1060   4.872   2.233   2.158 -0.5584  0.7979 -0.0236
  749MOL0     H 1061   4.693   2.250   2.187 -2.7561  0.6326 -2.8142
  749MOL0     H 1062   4.658   2.151   1.955 -0.1675  1.2909  0.7871
  749MOL0     H 1063   4.743   2.031   2.064  1.4031 -0.6823 -1.7355
  749MOL0     H 1064   4.854   2.002   1.884 -2.5344  1.0256 -0.6655
  749MOL0     H 1065   4.870   2.171   1.830 -1.8029  0.8378 -0.3874
  749MOL0     H 1066   5.104   2.282   1.922  0.1334 -2.1642 -1.2396
  749MOL0     H 1067   5.361   2.269   2.118 -2.3602  1.1138 -0.0732
  749MOL0     H 1068   5.396   2.094   2.101  0.0430 -2.0684 -2.0602
  749MOL0     H 1069   5.346   2.291   1.863 -2.2485 -0.0981  1.4431
  749MOL0     H 1070   5.507   2.261   1.926  0.5326 -0.9314 -2.7120
  749MOL0     H 1071   5.315   2.091   1.767 -1.3275  1.6594  0.6226
  749MOL0     H 1072   5.433   2.007   1.860  1.0454 -0.5225 -3.0534
  749MOL0     H 1073   5.490   2.223   1.660  0.6257  1.9280  2.1296
  749MOL0     H 1074   5.470   2.062   1.625 -0.0785  0.6457  0.1635
  749MOL0     H 1075   5.813   2.132   1.941  0.3501 -0.5978 -0.1362
  749MOL0     H 1076   5.952   1.931   2.029 -1.8598 -0.7085  1.9086
  749MOL0     H 1077   6.001   1.663   2.354  3.0744  2.1875 -0.5630
  749MOL0     H 1078   6.104   1.474   2.474 -1.2377  0.6433  0.2840
  749MOL0     H 1079   6.193   1.234   2.568  1.2209 -1.0252 -0.3999
  749MOL0     H 1080   6.046   1.221   2.471 -0.9793 -4.2081 -1.3071
  749MOL0     H 1081   6.133   1.009   2.519  0.2492 -1.1808  0.5861
  749MOL0     H 1082   6.147   1.035   2.346  0.1596 -0.3544  0.2932
  749MOL0     H 1083   6.318   0.921   2.443  3.6394  0.3581  0.2398
  749MOL0     H 1084   6.373   1.052   2.330  1.3574  1.4766 -0.1786
  749MOL0     H 1085   6.371   1.059   2.646 -0.0556 -3.1052 -0.0582
  749MOL0     H 1086   6.450   1.177   2.530 -2.2907  0.7598  3.5192
  749MOL0     H 1087   6.598   1.027   2.451 -1.7428  2.7933  0.4675
  749MOL0     H 1088   6.533   0.881   2.541 -0.2974 -0.4244 -2.3249
  749MOL0     H 1089   6.642   1.144   2.668  2.0706  0.1715 -2.0413
  749MOL0     H 1090   6.608   1.013   2.766  1.9541 -3.8492 -0.0438
  749MOL0     H 1091   6.801   0.983   2.519  2.5567  0.4474  0.4241
  749MOL0     H 1092   6.793   0.869   2.660  1.2608  1.2578  0.9246
  749MOL0     H 1093   6.995   1.043   2.646 -0.2249 -0.9708  1.0540
  749MOL0     H 1094   6.873   1.141   2.722 -0.1856 -1.0187  2.4629
  749MOL0     H 1095   6.236   1.325   2.095  1.8499  1.3956 -0.5203
  749MOL0     H 1096   6.161   1.532   1.983 -0.9366 -0.6102 -0.1688
  749MOL0     H 1097   5.767   1.678   1.749 -0.1640  0.8744 -4.0286
  749MOL0     H 1098   5.621   1.846   1.668  2.8787 -0.7677 -2.7954
  749MOL0     H 1099   4.568   3.031   2.432 -0.1056 -2.2736  1.5132
  749MOL0     H 1100   4.421   3.218   2.422 -1.5146 -0.3752  1.6298
  749MOL0     H 1101   4.105   3.437   2.261 -0.1425  1.5411 -0.7891
  749MOL0     H 1102   4.038   3.681   2.296 -2.5874  2.0827  0.4892
  749MOL0     H 1103   3.904   3.801   2.706 -1.1481  2.2214  1.2136
  749MOL0     H 1104   3.760   3.770   2.628  0.3182  0.5232  2.8809
  749MOL0     H 1105   3.934   4.008   2.563  0.5249 -3.7194 -1.3568
  749MOL0     H 1106   3.811   4.011   2.690  1.0438 -1.0203 -0.2832
  749MOL0     H 1107   3.621   4.007   2.541  0.8254  1.5494  0.7404
  749MOL0     H 1108   3.725   3.935   2.415 -2.8524  1.4713 -1.6022
  749MOL0     H 1109   3.823   4.149   2.377 -1.0595  1.9881 -2.4748
  749MOL0     H 1110   3.637   4.162   2.378 -0.4830 -1.9587  0.5816
  749MOL0     H 1111   3.801   4.401   2.689 -0.8181 -0.3725  1.8929
  749MOL0     H 1112   3.848   3.573   2.662  1.4190 -1.8457  1.7974
  749MOL0     H 1113   3.873   3.352   2.770  2.0351 -1.3577  2.7020
  749MOL0     H 1114   3.865   3.244   2.635 -1.8411  2.2761 -2.0560
  749MOL0     H 1115   4.021   3.274   2.717 -2.1660 -3.2210  0.6779
  750MOL0     O 1116   7.681   7.169   0.001 -0.1373 -0.7004 -0.0595
  750MOL0     C 1117   7.771   7.119  -0.063  0.4981 -0.4953 -0.7428
  750MOL0     O 1118   7.800   6.978  -0.061  0.8688 -0.3705  0.5473
  750MOL0     C 1119   7.714   6.900   0.008  0.3329  0.6619  0.0459
  750MOL0     C 1120   7.676   6.926   0.144  0.3414 -0.0555 -0.0581
  750MOL0     C 1121   7.598   6.835   0.213  0.7568 -0.6107 -0.0456
  750MOL0     C 1122   7.539   6.729   0.157 -0.1057  0.6106  0.2240
  750MOL0     O 1123   7.439   6.667   0.229 -0.0201 -0.8017 -0.6305
  750MOL0     C 1124   7.352   6.590   0.155 -0.4346 -0.2896 -0.5654
  750MOL0     C 1125   7.249   6.523   0.242  0.3569  0.0019 -0.4164
  750MOL0     C 1126   7.139   6.446   0.161  0.3919 -0.3023 -0.7818
  750MOL0     C 1127   7.020   6.404   0.241  0.2296 -0.2783  0.3985
  750MOL0     C 1128   7.053   6.302   0.350  0.8380 -0.3256 -0.5726
  750MOL0     C 1129   6.932   6.238   0.426  0.2394 -0.1072 -0.3520
  750MOL0     C 1130   6.993   6.105   0.482  0.2453  0.5329 -0.3160
  750MOL0     C 1131   6.972   6.095   0.630 -0.2746  0.1354  0.4130
  750MOL0     N 1132   6.921   5.962   0.672 -1.1270 -1.0227  0.4453
  750MOL0     C 1133   6.783   5.938   0.660  0.4799 -0.3017  0.1950
  750MOL0     C 1134   6.770   5.841   0.751 -0.3634  0.2963  0.1787
  750MOL0     C 1135   6.641   5.787   0.802  0.5465 -0.4631 -0.2140
  750MOL0     C 1136   6.623   5.646   0.744  0.9162  0.0024 -0.7712
  750MOL0     C 1137   6.485   5.634   0.689  0.0477 -0.3386  0.4622
  750MOL0     C 1138   6.446   5.490   0.682  0.1715 -0.4932  0.5092
  750MOL0     O 1139   6.318   5.488   0.619  0.1228 -0.8974  0.7513
  750MOL0     C 1140   6.243   5.380   0.626  0.7338  0.9331 -0.0309
  750MOL0     C 1141   6.279   5.253   0.637 -0.4890  0.1211 -1.0807
  750MOL0     C 1142   6.192   5.143   0.656 -1.1510 -0.4827  0.2870
  750MOL0     C 1143   6.054   5.155   0.681 -1.8282 -0.1565  0.9773
  750MOL0     C 1144   5.962   5.046   0.719  0.6712 -1.6931 -0.3253
  750MOL0     O 1145   5.831   5.084   0.760 -0.3990 -0.5130 -0.4775
  750MOL0     C 1146   5.752   5.004   0.837 -0.3920  0.1937 -0.7865
  750MOL0     C 1147   5.612   4.994   0.810 -0.3983 -0.3832  0.0798
  750MOL0     C 1148   5.522   4.940   0.896 -0.6117  0.4141 -0.1222
  750MOL0     C 1149   5.561   4.892   1.020 -0.4780  0.7951 -0.7989
  750MOL0     O 1150   5.454   4.857   1.109  0.1549 -0.4588  0.0019
  750MOL0     C 1151   5.492   4.801   1.228  0.1519  0.8117 -0.2724
  750MOL0     C 1152   5.376   4.760   1.324 -0.4814  0.6891 -0.3402
  750MOL0     C 1153   5.292   4.891   1.357 -0.9255 -0.0625  0.8304
  750MOL0     C 1154   5.166   4.866   1.434  0.1345 -0.5878  0.2278
  750MOL0     C 1155   5.083   4.992   1.455 -0.0222  0.4655  0.3618
  750MOL0     C 1156   4.992   5.002   1.582  0.4003 -0.8817  0.3152
  750MOL0     C 1157   4.917   4.876   1.631  0.5532  0.5424 -0.0680
  750MOL0     C 1158   4.811   4.828   1.531 -0.8249  0.4357 -0.3586
  750MOL0    Cl 1159   4.726   4.691   1.609  0.0329  0.0727 -0.1740
  750MOL0     C 1160   5.698   4.901   1.053  0.1949 -0.2396  0.2792
  750MOL0     C 1161   5.794   4.956   0.964  0.1017  0.0082  0.1927
  750MOL0     O 1162   6.010   4.936   0.723  0.1271  0.0871  0.0306
  750MOL0     C 1163   6.013   5.296   0.669  0.6470  0.8429 -0.3204
  750MOL0     C 1164   6.105   5.399   0.635 -0.2711 -0.2075  0.4988
  750MOL0     N 1165   6.890   5.790   0.801 -0.3269 -0.1911 -0.1452
  750MOL0     N 1166   6.982   5.867   0.749 -0.3417 -0.0326 -0.4768
  750MOL0     C 1167   7.568   6.706   0.019 -0.1002  0.6828  0.1860
  750MOL0     C 1168   7.657   6.790  -0.048  0.1889 -0.5876  0.8149
  750MOL0     C 1169   7.862   7.210  -0.136  0.5324  0.0258  0.2774
  750MOL0     C 1170   7.940   7.147  -0.237  0.4532  0.0967  0.2129
  750MOL0     C 1171   8.049   7.206  -0.300 -0.1124 -0.5127  0.2350
  750MOL0     C 1172   8.090   7.342  -0.272 -0.9080  0.4154 -0.2868
  750MOL0     O 1173   8.203   7.394  -0.328  0.9076 -0.4796 -0.0859
  750MOL0     C 1174   8.244   7.335  -0.458  0.1556 -0.1573 -0.2565
  750MOL0     C 1175   8.361   7.422  -0.485  0.2962  0.0642  0.0184
  750MOL0     C 1176   8.440   7.394  -0.619 -0.1198  0.2898 -0.8042
  750MOL0     C 1177   8.543   7.497  -0.660 -0.2999 -0.1477  0.1503
  750MOL0     C 1178   8.500   7.641  -0.642  0.7632  0.4774 -0.1817
  750MOL0     C 1179   8.442   7.753  -0.640  0.9444  0.5732 -0.1422
  750MOL0     C 1180   8.023   7.394  -0.161  0.1496  0.5386 -1.1012
  750MOL0     C 1181   7.904   7.344  -0.103 -0.3604 -0.0230  0.1582
  750MOL0     C 1182   7.837   7.422   0.011 -0.7819  0.4590  0.6111
  750MOL0     H 1183   7.709   7.017   0.192 -2.0399 -0.5241  2.7957
  750MOL0     H 1184   7.559   6.867   0.309 -1.8816  1.2669 -1.6077
  750MOL0     H 1185   7.307   6.662   0.085  1.5572 -0.4213 -2.0892
  750MOL0     H 1186   7.397   6.505   0.103  0.6769  0.1483 -0.3370
  750MOL0     H 1187   7.209   6.602   0.305  2.8569  2.4997 -1.7732
  750MOL0     H 1188   7.292   6.456   0.317 -1.5341  0.3578  1.0717
  750MOL0     H 1189   7.191   6.352   0.140  0.2960 -0.9062  1.4200
  750MOL0     H 1190   7.113   6.483   0.062  0.0255  1.2946 -0.1197
  750MOL0     H 1191   6.952   6.483   0.274 -1.2067 -0.4793 -1.8309
  750MOL0     H 1192   6.957   6.363   0.161  0.7592  1.4074 -0.9433
  750MOL0     H 1193   7.114   6.223   0.305 -0.5364 -2.8328  1.6624
  750MOL0     H 1194   7.119   6.360   0.416 -1.9666  1.9949  0.3959
  750MOL0     H 1195   6.892   6.297   0.510 -0.3370 -0.7378 -0.1785
  750MOL0     H 1196   6.846   6.237   0.359  1.0521  2.0726 -1.5469
  750MOL0     H 1197   7.100   6.092   0.460 -0.1830 -2.6372 -1.1162
  750MOL0     H 1198   6.962   6.015   0.428  0.3515 -0.0609  0.5942
  750MOL0     H 1199   7.070   6.110   0.675 -0.4623  0.0999  0.8416
  750MOL0     H 1200   6.904   6.174   0.665 -0.4452  0.7173 -1.1522
  750MOL0     H 1201   6.702   5.985   0.605  1.4629  0.6431 -0.4603
  750MOL0     H 1202   6.637   5.791   0.911  1.4708  3.2739 -0.1970
  750MOL0     H 1203   6.557   5.848   0.768 -0.4052 -1.8247 -0.4145
  750MOL0     H 1204   6.686   5.622   0.657  0.2719  1.1169 -1.5646
  750MOL0     H 1205   6.644   5.580   0.829 -0.9780 -0.1218 -0.3720
  750MOL0     H 1206   6.487   5.675   0.587 -0.0063 -0.5288  0.3853
  750MOL0     H 1207   6.411   5.692   0.745  0.8985  1.4469 -0.1736
  750MOL0     H 1208   6.450   5.446   0.783  4.7014 -2.1626 -0.1656
  750MOL0     H 1209   6.517   5.445   0.612  1.1200  2.1714 -0.3683
  750MOL0     H 1210   6.383   5.222   0.633 -0.4823  0.2559 -3.8727
  750MOL0     H 1211   6.237   5.048   0.683  1.0063  0.2456 -0.5262
  750MOL0     H 1212   5.588   5.036   0.713  1.3980  1.2329  0.2927
  750MOL0     H 1213   5.417   4.937   0.866 -0.4600 -0.0484 -0.6088
  750MOL0     H 1214   5.555   4.715   1.201  0.2112 -0.2666  2.8763
  750MOL0     H 1215   5.559   4.869   1.283  0.6765  0.6062 -0.6456
  750MOL0     H 1216   5.310   4.687   1.276 -0.1579  0.3033 -0.2037
  750MOL0     H 1217   5.404   4.713   1.419 -2.1834 -0.0948 -0.1896
  750MOL0     H 1218   5.358   4.965   1.405  2.6023 -1.1842 -1.9370
  750MOL0     H 1219   5.263   4.950   1.269  0.9588  1.9060  1.4303
  750MOL0     H 1220   5.188   4.831   1.535 -0.7501 -0.0214  0.6291
  750MOL0     H 1221   5.102   4.791   1.387  1.9889 -1.0696 -1.6814
  750MOL0     H 1222   5.012   5.011   1.373 -0.3472  0.4405  0.6367
  750MOL0     H 1223   5.157   5.073   1.459  0.6884 -0.2276  2.0416
  750MOL0     H 1224   5.070   5.023   1.656  0.9024 -0.3433 -0.3636
  750MOL0     H 1225   4.931   5.092   1.569 -0.3764 -1.3928  0.3519
  750MOL0     H 1226   4.861   4.903   1.721  0.4498 -3.4782  1.2726
  750MOL0     H 1227   4.981   4.789   1.647  0.4259  0.2480 -1.0789
  750MOL0     H 1228   4.734   4.902   1.507  0.1765  1.5040 -0.3152
  750MOL0     H 1229   4.860   4.787   1.442 -1.5490  0.7556 -0.9155
  750MOL0     H 1230   5.744   4.882   1.149 -1.4378 -3.1255  0.5955
  750MOL0     H 1231   5.901   4.960   0.982  0.0528  2.6637  0.3668
  750MOL0     H 1232   5.912   5.307   0.706  0.1881 -2.4417 -0.3569
  750MOL0     H 1233   6.064   5.500   0.627 -0.1221 -0.2513 -1.1345
  750MOL0     H 1234   7.530   6.620  -0.035  4.0155 -2.6138  2.0085
  750MOL0     H 1235   7.678   6.780  -0.154 -0.7678  0.4804  0.5102
  750MOL0     H 1236   7.927   7.040  -0.255  2.3177 -0.3498  1.2029
  750MOL0     H 1237   8.094   7.150  -0.382  1.3924  1.2096 -0.1629
  750MOL0     H 1238   8.173   7.363  -0.536  0.7006  2.9975  0.2289
  750MOL0     H 1239   8.268   7.229  -0.455  2.4707  0.3023  0.1900
  750MOL0     H 1240   8.436   7.417  -0.405  1.1523  1.3085 -0.6966
  750MOL0     H 1241   8.333   7.527  -0.481  3.5506  1.0375  0.3130
  750MOL0     H 1242   8.362   7.367  -0.691 -0.3482 -1.2787 -0.0202
  750MOL0     H 1243   8.481   7.293  -0.605 -1.7193  0.0296  3.0134
  750MOL0     H 1244   8.641   7.480  -0.614  1.3720  1.5047 -2.4714
  750MOL0     H 1245   8.548   7.499  -0.770 -3.6254 -0.3772 -0.1027
  750MOL0     H 1246   8.378   7.838  -0.635  0.6596  0.5063 -1.8934
  750MOL0     H 1247   8.045   7.497  -0.132  0.0214 -0.3597  2.7166
  750MOL0     H 1248   7.812   7.347   0.086  2.2407 -2.2876 -0.8441
  750MOL0     H 1249   7.902   7.502   0.048 -0.8332  0.8573 -0.1369
  750MOL0     H 1250   7.748   7.469  -0.031 -1.8323 -3.1524 -1.6909
  751MOL0     O 1251   8.018   5.293   7.815  0.2847  0.2955  1.0670
  751MOL0     C 1252   7.909   5.315   7.858 -0.3024  0.4781 -0.5442
  751MOL0     O 1253   7.796   5.319   7.790 -0.4463  0.1706 -0.1824
  751MOL0     C 1254   7.793   5.318   7.653  0.5615 -0.4658 -0.3251
  751MOL0     C 1255   7.863   5.228   7.572  0.1180 -0.0362 -0.5973
  751MOL0     C 1256   7.854   5.241   7.425 -0.1768  0.0897 -1.0417
  751MOL0     C 1257   7.776   5.335   7.355 -0.0146  0.6831  0.0698
  751MOL0     O 1258   7.772   5.341   7.218 -0.5729 -0.0832 -0.5180
  751MOL0     C 1259   7.799   5.226   7.136 -0.6746  0.6973 -0.2414
  751MOL0     C 1260   7.760   5.257   6.987  0.2567 -0.0976  0.3010
  751MOL0     C 1261   7.830   5.157   6.902 -0.2106 -0.0752 -0.2238
  751MOL0     C 1262   7.782   5.133   6.763 -0.0522 -0.8938  1.0406
  751MOL0     C 1263   7.770   5.269   6.687  1.1478 -0.8425 -0.1455
  751MOL0     C 1264   7.908   5.349   6.694  0.5644  0.5196  0.1120
  751MOL0     C 1265   7.916   5.461   6.597  0.0839 -1.0001  0.9849
  751MOL0     C 1266   7.841   5.586   6.654 -0.7558 -0.3360 -0.4660
  751MOL0     N 1267   7.692   5.580   6.651 -0.3473  0.2050 -0.1423
  751MOL0     C 1268   7.599   5.574   6.549 -0.3539 -0.9916 -0.3286
  751MOL0     C 1269   7.483   5.587   6.615  0.1908  0.1162 -0.8599
  751MOL0     C 1270   7.342   5.591   6.547  0.4649  0.0668 -0.1176
  751MOL0     C 1271   7.278   5.462   6.514  0.2183  0.8739 -0.6034
  751MOL0     C 1272   7.208   5.398   6.645  0.8119  0.1683  0.0830
  751MOL0     C 1273   7.288   5.305   6.721 -0.1639 -0.0627 -0.5036
  751MOL0     O 1274   7.213   5.281   6.847  0.4730  1.1378 -0.0046
  751MOL0     C 1275   7.242   5.339   6.973 -1.0857 -0.7803  1.6878
  751MOL0     C 1276   7.143   5.345   7.070  0.0389  0.8704 -0.8497
  751MOL0     C 1277   7.161   5.420   7.187  0.3503 -0.2748 -1.2742
  751MOL0     C 1278   7.279   5.488   7.216 -0.4576 -0.0583 -0.7447
  751MOL0     C 1279   7.288   5.588   7.327 -0.7112  0.6664 -0.0942
  751MOL0     O 1280   7.165   5.617   7.384  0.3543  0.2930  0.4468
  751MOL0     C 1281   7.173   5.671   7.508  0.6123 -0.3147 -0.1909
  751MOL0     C 1282   7.166   5.810   7.528 -0.8171 -0.0510  0.2170
  751MOL0     C 1283   7.190   5.862   7.656 -0.5160  1.1847  0.0796
  751MOL0     C 1284   7.178   5.783   7.771 -0.4615  0.5152 -0.3732
  751MOL0     O 1285   7.188   5.856   7.891  0.0195 -0.4480  0.2625
  751MOL0     C 1286   7.173   5.777   8.007  1.1006  0.8427 -0.0667
  751MOL0     C 1287   7.230   5.846   8.138  0.3346  1.0899  0.0929
  751MOL0     C 1288   7.184   5.769   8.266 -0.7180 -0.1861 -0.2718
  751MOL0     C 1289   7.236   5.834   8.399  0.2330 -0.1001  0.0188
  751MOL0     C 1290   7.175   5.769   8.519  0.3156  0.1548 -0.4500
  751MOL0     C 1291   7.279   5.732   8.628  0.4237 -0.2001  1.1549
  751MOL0     C 1292   7.296   5.590   8.650 -0.0620 -1.0098  0.0162
  751MOL0     C 1293   7.416   5.570   8.734 -0.1816  0.0070  0.0846
  751MOL0    Cl 1294   7.422   5.401   8.791 -0.1651  0.0051  0.2158
  751MOL0     C 1295   7.163   5.645   7.749 -0.0471  0.8470 -0.6399
  751MOL0     C 1296   7.172   5.586   7.620 -0.1975  0.3795 -0.0019
  751MOL0     O 1297   7.399   5.629   7.374 -0.2066  0.6134 -1.1185
  751MOL0     C 1298   7.381   5.466   7.129  0.2512  0.2970  1.1348
  751MOL0     C 1299   7.369   5.389   7.007 -0.0792 -0.3616  0.0871
  751MOL0     N 1300   7.508   5.615   6.750  0.9334  0.1125 -0.6455
  751MOL0     N 1301   7.629   5.602   6.768 -0.3978  0.8258 -0.1424
  751MOL0     C 1302   7.690   5.406   7.446 -0.7649  1.6499 -0.0272
  751MOL0     C 1303   7.703   5.403   7.582  0.9397 -0.2534 -0.6719
  751MOL0     C 1304   7.887   5.300   8.002  0.0774 -0.4277 -1.0920
  751MOL0     C 1305   7.754   5.268   8.042  0.8495 -0.6083 -0.0760
  751MOL0     C 1306   7.720   5.283   8.176  0.2791 -0.0834  0.3875
  751MOL0     C 1307   7.807   5.330   8.271 -1.0090 -0.5304 -0.6084
  751MOL0     O 1308   7.779   5.336   8.403  0.4052  0.3638 -0.2487
  751MOL0     C 1309   7.664   5.405   8.455  0.8770  0.2280  1.0220
  751MOL0     C 1310   7.660   5.557   8.448  0.3482  0.4735  0.0710
  751MOL0     C 1311   7.791   5.610   8.499 -0.9439  0.2689  1.1365
  751MOL0     C 1312   7.789   5.756   8.524 -0.9888  0.3025  0.0355
  751MOL0     C 1313   7.701   5.810   8.632  0.0689 -1.0216 -0.3373
  751MOL0     C 1314   7.635   5.858   8.723 -0.4719  0.0291  0.0568
  751MOL0     C 1315   7.937   5.350   8.236 -0.7832 -0.1597  0.6430
  751MOL0     C 1316   7.982   5.330   8.108  0.4048  0.6878  0.2816
  751MOL0     C 1317   8.117   5.359   8.071 -0.4997  0.0136 -0.5834
  751MOL0     H 1318   7.933   5.161   7.620  1.5927  1.2273 -0.8779
  751MOL0     H 1319   7.917   5.173   7.370  1.1437 -0.2605  0.7832
  751MOL0     H 1320   7.904   5.195   7.144 -1.3202 -1.7614 -0.5280
  751MOL0     H 1321   7.743   5.140   7.173  1.4701 -0.8563 -0.3857
  751MOL0     H 1322   7.797   5.354   6.953 -1.1148 -0.3084 -1.9449
  751MOL0     H 1323   7.653   5.270   6.967 -0.0248 -1.1864  1.0080
  751MOL0     H 1324   7.811   5.062   6.953 -0.3722  0.0892  0.0188
  751MOL0     H 1325   7.937   5.174   6.888  0.7426 -1.4744  4.0259
  751MOL0     H 1326   7.862   5.080   6.711 -0.3723  0.8736 -1.4209
  751MOL0     H 1327   7.686   5.081   6.757 -1.0513  0.7463  1.7504
  751MOL0     H 1328   7.746   5.254   6.582 -1.3947 -5.1887  0.8152
  751MOL0     H 1329   7.690   5.326   6.735  0.9468 -1.6504  0.4972
  751MOL0     H 1330   7.926   5.388   6.794 -1.6508  0.2593  0.6617
  751MOL0     H 1331   7.990   5.282   6.664 -2.0417 -1.6573 -2.8122
  751MOL0     H 1332   7.874   5.437   6.498 -0.7051 -0.7440  1.2501
  751MOL0     H 1333   8.016   5.490   6.563 -0.2835 -1.1120 -0.2581
  751MOL0     H 1334   7.873   5.594   6.758  3.3311  0.0324 -1.5824
  751MOL0     H 1335   7.871   5.682   6.613 -0.6393 -0.7472 -1.3752
  751MOL0     H 1336   7.628   5.551   6.447  2.2050 -0.4059  0.1905
  751MOL0     H 1337   7.274   5.637   6.618  0.3234 -2.2223  1.3377
  751MOL0     H 1338   7.346   5.652   6.457 -1.6440  0.7536  0.2034
  751MOL0     H 1339   7.191   5.485   6.452 -0.8366  3.0102  1.5268
  751MOL0     H 1340   7.349   5.394   6.465  0.4801  0.4238  0.3777
  751MOL0     H 1341   7.111   5.353   6.623 -0.2608  2.1533  0.4844
  751MOL0     H 1342   7.174   5.474   6.717 -3.9240 -1.9880  0.5322
  751MOL0     H 1343   7.393   5.333   6.732 -0.3709  0.5600 -0.0707
  751MOL0     H 1344   7.299   5.216   6.658  0.1584 -0.8863  0.6870
  751MOL0     H 1345   7.046   5.298   7.057  0.3677 -0.3904  0.8124
  751MOL0     H 1346   7.078   5.415   7.256  0.2843 -1.2238 -1.4132
  751MOL0     H 1347   7.166   5.882   7.446 -1.3008  0.6542  0.8215
  751MOL0     H 1348   7.201   5.970   7.661 -0.6382  1.1750  0.6230
  751MOL0     H 1349   7.069   5.759   8.034  1.8422 -0.7514  2.0622
  751MOL0     H 1350   7.217   5.679   7.986 -3.3501 -1.0346 -1.6901
  751MOL0     H 1351   7.339   5.846   8.144  0.3779 -2.7465  3.2541
  751MOL0     H 1352   7.191   5.948   8.142 -0.4073  0.7869  1.1373
  751MOL0     H 1353   7.075   5.778   8.258 -0.7602 -1.5785 -1.5963
  751MOL0     H 1354   7.208   5.662   8.263 -2.3576 -0.5597 -3.5255
  751MOL0     H 1355   7.226   5.943   8.406  2.4308  0.0372  2.3128
  751MOL0     H 1356   7.344   5.828   8.381  0.0447  1.8238 -2.4225
  751MOL0     H 1357   7.122   5.679   8.485 -2.3542  1.3517  0.2260
  751MOL0     H 1358   7.095   5.830   8.564 -2.9128 -2.5700 -2.0318
  751MOL0     H 1359   7.371   5.790   8.614 -0.6380  1.4385  0.7825
  751MOL0     H 1360   7.233   5.774   8.718 -1.1587 -0.7678  0.6471
  751MOL0     H 1361   7.301   5.522   8.565  1.6836 -1.8579  0.7264
  751MOL0     H 1362   7.205   5.567   8.706  0.8090 -0.4320  1.7525
  751MOL0     H 1363   7.512   5.608   8.697  0.2839  0.8838  2.0876
  751MOL0     H 1364   7.412   5.635   8.822 -1.4002  1.4842 -0.9983
  751MOL0     H 1365   7.163   5.566   7.824  2.5558 -1.2744 -2.6901
  751MOL0     H 1366   7.186   5.480   7.597 -0.1712  0.8598 -2.5400
  751MOL0     H 1367   7.471   5.526   7.141  1.1264 -0.8672  0.6783
  751MOL0     H 1368   7.451   5.369   6.940  0.1362  0.3704  0.1271
  751MOL0     H 1369   7.624   5.470   7.388 -1.3223  1.1320  0.0284
  751MOL0     H 1370   7.643   5.466   7.647  2.1407 -1.5977  1.8926
  751MOL0     H 1371   7.685   5.218   7.974  1.9713  0.5659 -2.1828
  751MOL0     H 1372   7.620   5.262   8.215  0.7796 -3.5618  0.1085
  751MOL0     H 1373   7.662   5.380   8.561 -0.1167 -3.4529  0.2809
  751MOL0     H 1374   7.569   5.365   8.419  0.4822  1.7119  0.3468
  751MOL0     H 1375   7.569   5.598   8.491 -3.3184 -1.6522 -4.6946
  751MOL0     H 1376   7.642   5.585   8.344  0.9129 -0.8675 -0.4199
  751MOL0     H 1377   7.859   5.576   8.421 -0.4840 -1.5577  2.2655
  751MOL0     H 1378   7.821   5.549   8.585 -2.9864 -2.9045 -0.1808
  751MOL0     H 1379   7.891   5.792   8.538 -0.1624 -2.2725  1.2202
  751MOL0     H 1380   7.754   5.805   8.433 -0.0293 -0.0255 -0.5251
  751MOL0     H 1381   7.577   5.899   8.803 -1.0123 -0.7577  0.0845
  751MOL0     H 1382   8.004   5.379   8.317  0.6830 -0.9212 -0.2570
  751MOL0     H 1383   8.161   5.287   8.002  0.7281 -0.0157  0.2075
  751MOL0     H 1384   8.120   5.460   8.028 -0.6221  0.5955  0.6999
  751MOL0     H 1385   8.172   5.362   8.165 -4.5382 -4.3041  2.3784
  752MOL0     O 1386   9.073   2.168  10.421 -0.0415 -0.3522  0.1498
  752MOL0     C 1387   8.962   2.147  10.383 -0.2421 -0.0226  0.1787
  752MOL0     O 1388   8.905   2.023  10.393 -0.2562 -0.1879 -0.5878
  752MOL0     C 1389   8.957   1.913  10.466 -0.7093 -0.2136 -0.8449
  752MOL0     C 1390   8.974   1.927  10.603 -0.8051  0.6664  0.3746
  752MOL0     C 1391   9.013   1.819  10.676 -0.3819 -0.0384 -0.4471
  752MOL0     C 1392   9.051   1.693  10.618  0.0085 -0.7825 -0.1469
  752MOL0     O 1393   9.114   1.592  10.689  1.3362 -0.4955 -0.3518
  752MOL0     C 1394   9.062   1.563  10.817 -0.8994  0.4842 -0.3126
  752MOL0     C 1395   9.107   1.425  10.860  0.1510 -0.1540 -0.3933
  752MOL0     C 1396   9.075   1.400  11.007  0.9509 -0.9879 -0.0089
  752MOL0     C 1397   9.169   1.296  11.056  0.1416 -0.1361  0.6431
  752MOL0     C 1398   9.124   1.231  11.181  0.9131 -0.7494  0.8496
  752MOL0     C 1399   9.185   1.096  11.205  0.6360 -0.9231  0.4238
  752MOL0     C 1400   9.338   1.099  11.242  0.6406  1.2932 -0.2290
  752MOL0     C 1401   9.391   1.214  11.329  0.3552 -0.0062  0.3822
  752MOL0     N 1402   9.312   1.228  11.452 -0.9129  0.0494 -0.2112
  752MOL0     C 1403   9.314   1.137  11.548 -0.5092  0.7645 -0.3617
  752MOL0     C 1404   9.291   1.210  11.658 -0.1115 -0.7675 -0.6735
  752MOL0     C 1405   9.299   1.151  11.802  0.0349  0.6122  0.3100
  752MOL0     C 1406   9.243   1.006  11.814  0.1619  0.2084 -0.3976
  752MOL0     C 1407   9.273   0.956  11.954 -0.5856 -0.2302 -0.2575
  752MOL0     C 1408   9.226   0.810  11.974  0.5151 -0.6050 -0.0245
  752MOL0     O 1409   9.298   0.722  11.890  0.5434 -0.0291 -0.3799
  752MOL0     C 1410   9.265   0.591  11.920  1.2115  0.0851  0.3188
  752MOL0     C 1411   9.352   0.500  11.978 -0.8978 -0.3965  0.2298
  752MOL0     C 1412   9.314   0.363  12.000 -0.2417 -0.3086  0.3378
  752MOL0     C 1413   9.188   0.317  11.965 -0.1152 -0.7346  0.5259
  752MOL0     C 1414   9.154   0.180  11.987  0.2900 -0.3214  0.8100
  752MOL0     O 1415   9.254   0.087  11.962 -0.4507 -0.0926  0.0078
  752MOL0     C 1416   9.242  -0.048  12.003  0.0909 -0.3749  0.0778
  752MOL0     C 1417   9.140  -0.114  12.076  0.3969 -0.8252 -0.5622
  752MOL0     C 1418   9.149  -0.248  12.108 -0.4983  0.4873 -0.9460
  752MOL0     C 1419   9.253  -0.326  12.053 -0.2310  0.2775  0.9358
  752MOL0     O 1420   9.275  -0.456  12.080  0.5176  0.0676 -0.2765
  752MOL0     C 1421   9.178  -0.527  12.170 -0.5507  0.2296 -0.0659
  752MOL0     C 1422   9.201  -0.678  12.169  0.2136  1.8164  1.0990
  752MOL0     C 1423   9.081  -0.746  12.246  0.2363 -0.4793 -1.0872
  752MOL0     C 1424   9.098  -0.735  12.394 -0.0614 -0.1333 -0.4216
  752MOL0     C 1425   9.037  -0.843  12.479  0.3081  0.0608 -0.1192
  752MOL0     C 1426   9.111  -0.981  12.485  0.3423 -0.5426  0.2127
  752MOL0     C 1427   9.259  -0.976  12.527  0.0264  0.2175 -0.0050
  752MOL0     C 1428   9.367  -0.979  12.420 -0.1299 -0.8377  0.4423
  752MOL0    Cl 1429   9.365  -1.145  12.337 -0.6128  0.3586  0.2074
  752MOL0     C 1430   9.348  -0.270  11.972  0.4862 -0.1654  0.7185
  752MOL0     C 1431   9.345  -0.133  11.946  0.4236 -0.4744  0.3924
  752MOL0     O 1432   9.037   0.159  12.020  0.3710  0.0534  0.3301
  752MOL0     C 1433   9.091   0.405  11.914 -0.0805 -0.9128 -0.1006
  752MOL0     C 1434   9.137   0.538  11.887  0.3961  0.7006  0.1076
  752MOL0     N 1435   9.243   1.338  11.624  0.0104 -0.2208  1.3128
  752MOL0     N 1436   9.261   1.345  11.499 -0.1735 -0.1989 -0.4035
  752MOL0     C 1437   9.046   1.684  10.480  0.8418 -0.5846  0.5272
  752MOL0     C 1438   8.994   1.794  10.407  0.2672  0.6185  1.0388
  752MOL0     C 1439   8.860   2.252  10.343 -0.1855  0.2491  0.0421
  752MOL0     C 1440   8.716   2.227  10.352  0.2021 -0.2652 -0.0680
  752MOL0     C 1441   8.617   2.323  10.341  0.4870  0.5561  0.0154
  752MOL0     C 1442   8.658   2.453  10.326 -0.5631 -0.7799 -0.3678
  752MOL0     O 1443   8.559   2.546  10.322 -0.4614  0.4148  0.2755
  752MOL0     C 1444   8.573   2.686  10.349  0.0265 -0.1625 -0.1642
  752MOL0     C 1445   8.610   2.779  10.236 -0.9641 -0.6890  0.1654
  752MOL0     C 1446   8.689   2.899  10.286 -0.0926 -1.0226  0.3522
  752MOL0     C 1447   8.595   2.997  10.357  1.0496  0.0971  0.1625
  752MOL0     C 1448   8.601   3.137  10.312  0.1644  0.0817  0.3473
  752MOL0     C 1449   8.618   3.248  10.273 -0.0038 -0.2946  0.1097
  752MOL0     C 1450   8.797   2.490  10.307  0.0727  0.6652  0.0661
  752MOL0     C 1451   8.892   2.388  10.312  0.3783 -0.3959  0.1175
  752MOL0     C 1452   9.032   2.430  10.286 -0.0694  0.2221  0.5612
  752MOL0     H 1453   8.954   2.021  10.654  1.2575  1.6912 -0.5767
  752MOL0     H 1454   9.037   1.839  10.780  0.6703  4.7902 -1.3876
  752MOL0     H 1455   9.090   1.635  10.895 -0.6646  0.1483 -0.0826
  752MOL0     H 1456   8.953   1.554  10.807 -0.6711 -1.6679 -1.3263
  752MOL0     H 1457   9.215   1.425  10.843  0.0118 -0.2551 -1.3276
  752MOL0     H 1458   9.053   1.346  10.807 -0.5359 -1.5697  2.2302
  752MOL0     H 1459   8.973   1.365  11.024  0.1900  0.3679 -1.4814
  752MOL0     H 1460   9.092   1.492  11.063  0.6907  2.2522 -4.6638
  752MOL0     H 1461   9.173   1.216  10.982  0.8556 -1.3030  1.9006
  752MOL0     H 1462   9.272   1.331  11.063  1.6955 -2.4786 -5.0270
  752MOL0     H 1463   9.145   1.295  11.267  1.6375  2.3139 -1.4177
  752MOL0     H 1464   9.017   1.214  11.168  0.5476  1.9060 -0.3257
  752MOL0     H 1465   9.137   1.054  11.294  1.1514  0.2725  1.2985
  752MOL0     H 1466   9.169   1.034  11.117  2.0739 -2.2553  1.0687
  752MOL0     H 1467   9.390   1.087  11.147  1.0588 -0.4284  0.1883
  752MOL0     H 1468   9.356   1.015  11.310  2.0803  2.8173  1.3790
  752MOL0     H 1469   9.495   1.185  11.343  0.4443  1.1111  2.3886
  752MOL0     H 1470   9.373   1.305  11.272 -1.0889  0.6517  1.8195
  752MOL0     H 1471   9.342   1.034  11.564 -2.9781  0.6168  5.7623
  752MOL0     H 1472   9.401   1.158  11.842  0.9055  0.6024 -1.7844
  752MOL0     H 1473   9.235   1.210  11.869  0.2334  1.1090  0.0635
  752MOL0     H 1474   9.136   1.003  11.792 -0.3102  0.0392  1.6901
  752MOL0     H 1475   9.297   0.935  11.751  0.8815 -0.0384  0.4712
  752MOL0     H 1476   9.229   1.013  12.037  1.4204 -0.6224  1.1527
  752MOL0     H 1477   9.381   0.959  11.972 -0.7734 -1.7716  1.4417
  752MOL0     H 1478   9.122   0.797  11.943  0.3725  0.3572  0.0261
  752MOL0     H 1479   9.248   0.788  12.079  1.7274 -1.5724 -0.4594
  752MOL0     H 1480   9.459   0.507  11.994  0.0356 -3.4970 -3.2473
  752MOL0     H 1481   9.384   0.293  12.044  2.6460  1.1729 -1.5070
  752MOL0     H 1482   9.054  -0.071  12.127  1.5424 -1.8173  2.3509
  752MOL0     H 1483   9.074  -0.293  12.172 -2.8723  0.2628 -3.6955
  752MOL0     H 1484   9.193  -0.480  12.268  2.1479  1.0494 -0.7897
  752MOL0     H 1485   9.076  -0.508  12.136 -1.6544 -1.5985  1.9657
  752MOL0     H 1486   9.191  -0.714  12.066  3.4882  2.1327  0.5642
  752MOL0     H 1487   9.298  -0.721  12.199 -0.1423  0.1115  0.0042
  752MOL0     H 1488   8.979  -0.716  12.224 -0.4706 -1.2332  0.9816
  752MOL0     H 1489   9.086  -0.851  12.214 -0.2786  0.1429 -3.4136
  752MOL0     H 1490   9.044  -0.642  12.414 -0.2976 -0.0465 -1.3899
  752MOL0     H 1491   9.206  -0.734  12.414 -0.0531 -1.3069 -0.3276
  752MOL0     H 1492   8.935  -0.860  12.444  1.4341 -1.0583 -3.1838
  752MOL0     H 1493   9.038  -0.794  12.576 -1.9190  2.6011 -1.2561
  752MOL0     H 1494   9.052  -1.049  12.548 -1.4253 -0.3162 -1.1096
  752MOL0     H 1495   9.110  -1.023  12.384  3.9962 -0.4641  0.0131
  752MOL0     H 1496   9.290  -1.047  12.604 -0.2428  1.3943  1.2327
  752MOL0     H 1497   9.268  -0.878  12.575 -0.7376  0.1596  0.2775
  752MOL0     H 1498   9.342  -0.907  12.342  1.9462  0.1509  0.6410
  752MOL0     H 1499   9.462  -0.955  12.467  1.4408 -1.5766 -2.1281
  752MOL0     H 1500   9.417  -0.326  11.910  1.2256 -1.7883  2.8623
  752MOL0     H 1501   9.429  -0.098  11.887 -0.5993  0.5034 -0.5307
  752MOL0     H 1502   8.991   0.373  11.887  0.5250  0.7595 -5.5252
  752MOL0     H 1503   9.052   0.595  11.849 -1.7185 -1.0380  1.9841
  752MOL0     H 1504   9.077   1.593  10.431  0.0751  0.8616 -2.8950
  752MOL0     H 1505   8.983   1.790  10.299  2.3061 -1.7921  0.8334
  752MOL0     H 1506   8.682   2.130  10.389  0.6713 -0.9255 -1.3244
  752MOL0     H 1507   8.517   2.286  10.356  0.2122  0.3167 -2.0510
  752MOL0     H 1508   8.653   2.695  10.423  0.0766  1.1574 -0.3504
  752MOL0     H 1509   8.488   2.718  10.410  0.4233  2.8053 -1.0177
  752MOL0     H 1510   8.521   2.814  10.184 -1.1694  1.4016  1.7947
  752MOL0     H 1511   8.680   2.736  10.164 -2.6527 -1.3479 -1.1408
  752MOL0     H 1512   8.733   2.948  10.198 -1.2350 -1.4526 -0.4797
  752MOL0     H 1513   8.768   2.868  10.355  1.0957  2.9882  1.0468
  752MOL0     H 1514   8.489   2.967  10.355  0.9891  0.3201 -0.0137
  752MOL0     H 1515   8.631   3.001  10.460  2.2241 -0.8755 -0.1797
  752MOL0     H 1516   8.624   3.351  10.242  0.9498 -0.5750 -0.6635
  752MOL0     H 1517   8.826   2.590  10.276  0.2207  0.7738  0.5606
  752MOL0     H 1518   9.077   2.359  10.215 -0.3757  2.2551 -1.8156
  752MOL0     H 1519   9.041   2.527  10.237  0.3418 -0.9190 -1.7919
  752MOL0     H 1520   9.083   2.429  10.382 -2.7485 -2.9145  2.1568
  753MOL0     O 1521   0.443   6.387   2.878 -0.0061 -0.4668  0.0415
  753MOL0     C 1522   0.429   6.495   2.820  0.0401 -1.2041 -0.0701
  753MOL0     O 1523   0.505   6.545   2.716 -0.4992  0.1086 -0.5754
  753MOL0     C 1524   0.569   6.454   2.632  0.6487 -0.8085 -0.5245
  753MOL0     C 1525   0.513   6.332   2.592 -0.3744 -0.8681 -0.1422
  753MOL0     C 1526   0.582   6.254   2.506  0.3698 -0.7423 -0.2246
  753MOL0     C 1527   0.703   6.290   2.459 -0.1819  0.0692  0.8045
  753MOL0     O 1528   0.764   6.200   2.371  0.0332  0.2786 -0.5533
  753MOL0     C 1529   0.802   6.246   2.248 -0.1500  0.0270 -0.6492
  753MOL0     C 1530   0.832   6.125   2.154  0.7730 -0.4297  0.1356
  753MOL0     C 1531   0.726   6.018   2.141  0.2160  0.6216  0.2500
  753MOL0     C 1532   0.780   5.902   2.046 -0.5136  1.1798 -1.0141
  753MOL0     C 1533   0.660   5.799   2.027 -0.8984 -0.7625  0.0034
  753MOL0     C 1534   0.687   5.692   1.922 -0.1190 -0.2586  0.3461
  753MOL0     C 1535   0.669   5.758   1.784  0.0075  0.8074  0.1043
  753MOL0     C 1536   0.718   5.654   1.665  0.5209  0.4233  0.2249
  753MOL0     N 1537   0.659   5.521   1.657  0.2053  0.2038 -0.6013
  753MOL0     C 1538   0.682   5.444   1.546 -0.2488 -0.7116  0.3014
  753MOL0     C 1539   0.573   5.361   1.528 -0.0733  0.4894 -0.6335
  753MOL0     C 1540   0.561   5.246   1.434  0.5884  0.2509  0.4123
  753MOL0     C 1541   0.430   5.258   1.363  0.6689 -0.0612 -0.5722
  753MOL0     C 1542   0.377   5.130   1.296 -0.2003  0.0769  1.2488
  753MOL0     C 1543   0.255   5.144   1.210  1.2653 -0.1383 -0.2163
  753MOL0     O 1544   0.239   5.006   1.161  0.4989  0.3047 -0.8831
  753MOL0     C 1545   0.122   4.987   1.092  0.2422  0.4851 -0.7918
  753MOL0     C 1546   0.027   5.083   1.072  0.3382  0.1936 -0.1864
  753MOL0     C 1547  -0.091   5.054   1.008  0.6795  0.1179  0.0359
  753MOL0     C 1548  -0.117   4.926   0.960  0.3111  0.0482  0.2337
  753MOL0     C 1549  -0.238   4.901   0.894 -0.5433 -0.5742  0.3212
  753MOL0     O 1550  -0.290   4.774   0.930  0.0498 -0.9233  0.5092
  753MOL0     C 1551  -0.392   4.728   0.852 -0.6824  0.1216  0.0166
  753MOL0     C 1552  -0.417   4.737   0.711  0.1902 -0.0453 -0.0856
  753MOL0     C 1553  -0.538   4.684   0.670 -0.2355  0.4768 -0.6254
  753MOL0     C 1554  -0.623   4.609   0.756  0.1497  0.2504 -0.6559
  753MOL0     O 1555  -0.732   4.529   0.712  0.6342  0.5316 -0.2211
  753MOL0     C 1556  -0.757   4.511   0.572 -0.1037 -0.1331  0.3955
  753MOL0     C 1557  -0.876   4.412   0.567 -0.4301  0.7789  0.3588
  753MOL0     C 1558  -1.013   4.482   0.597  0.1244 -1.1884 -0.7640
  753MOL0     C 1559  -1.138   4.432   0.531 -0.7345  0.4061 -0.7093
  753MOL0     C 1560  -1.147   4.273   0.543 -0.3642  0.3882 -0.7712
  753MOL0     C 1561  -1.154   4.223   0.692  0.2826 -0.3162 -0.9478
  753MOL0     C 1562  -1.198   4.074   0.695 -0.3131  1.2200 -0.4644
  753MOL0     C 1563  -1.196   4.023   0.836  0.2043  0.0252 -0.8355
  753MOL0    Cl 1564  -1.323   4.109   0.927  0.2450 -0.1558  0.0778
  753MOL0     C 1565  -0.596   4.615   0.890  0.8644  0.1151  0.4864
  753MOL0     C 1566  -0.480   4.668   0.936 -0.2429 -0.5938 -0.4175
  753MOL0     O 1567  -0.280   4.986   0.816  0.4375 -0.2068  0.0284
  753MOL0     C 1568  -0.023   4.818   0.987  0.4999 -0.3400  0.6225
  753MOL0     C 1569   0.090   4.852   1.052 -0.7281 -1.0852 -0.5891
  753MOL0     N 1570   0.491   5.390   1.631  0.1994 -0.8854 -1.2231
  753MOL0     N 1571   0.533   5.489   1.701 -0.2998  0.0399  0.4751
  753MOL0     C 1572   0.757   6.409   2.491 -0.4875 -0.3116  0.5833
  753MOL0     C 1573   0.694   6.493   2.578 -0.5058  0.5528 -0.1150
  753MOL0     C 1574   0.331   6.589   2.870  0.9925 -0.2584 -0.2002
  753MOL0     C 1575   0.309   6.710   2.798 -0.4424  0.5097 -0.8290
  753MOL0     C 1576   0.204   6.791   2.832 -0.3528  0.5000 -0.3777
  753MOL0     C 1577   0.109   6.759   2.927  0.2508  0.4986 -0.1017
  753MOL0     O 1578  -0.011   6.817   2.953 -1.6624 -0.7143  0.1010
  753MOL0     C 1579  -0.059   6.912   2.864 -0.0680  0.0770 -0.4226
  753MOL0     C 1580  -0.200   6.955   2.915 -1.1442  0.4133 -0.4450
  753MOL0     C 1581  -0.215   6.994   3.064  0.0375 -0.2506 -0.1089
  753MOL0     C 1582  -0.335   6.925   3.124 -0.4510 -0.5485  0.1198
  753MOL0     C 1583  -0.366   6.971   3.259 -0.4292 -0.1385 -1.0516
  753MOL0     C 1584  -0.402   7.011   3.366  0.2907 -0.3488 -0.3935
  753MOL0     C 1585   0.135   6.644   2.997 -0.2227 -0.3350 -0.0947
  753MOL0     C 1586   0.239   6.555   2.972  0.2384 -0.0143  0.8878
  753MOL0     C 1587   0.236   6.431   3.052  0.4804 -0.1172 -0.5237
  753MOL0     H 1588   0.407   6.321   2.614 -0.2252  1.7438  2.6556
  753MOL0     H 1589   0.532   6.164   2.471  1.7143 -1.1790 -1.1281
  753MOL0     H 1590   0.726   6.313   2.206 -0.2620  0.3784  0.0940
  753MOL0     H 1591   0.896   6.301   2.244  0.5348 -1.0893 -5.5935
  753MOL0     H 1592   0.924   6.079   2.192  1.6909 -0.6996 -2.1841
  753MOL0     H 1593   0.863   6.156   2.053  0.4731  3.2581  1.0347
  753MOL0     H 1594   0.642   6.066   2.090  1.5406  1.0258 -1.6409
  753MOL0     H 1595   0.709   5.984   2.244  0.5032  0.1726  0.1496
  753MOL0     H 1596   0.810   5.951   1.954 -0.9063  0.3231 -1.6102
  753MOL0     H 1597   0.863   5.859   2.103  1.2945  1.2783 -3.4414
  753MOL0     H 1598   0.627   5.760   2.124 -2.1875 -1.4347 -0.6907
  753MOL0     H 1599   0.574   5.852   1.985 -1.8547 -0.8960  1.6826
  753MOL0     H 1600   0.790   5.655   1.932 -1.5894 -5.5955 -0.7089
  753MOL0     H 1601   0.628   5.601   1.936 -1.0572  0.2822 -0.0677
  753MOL0     H 1602   0.728   5.850   1.778 -1.6408  1.9066  0.1089
  753MOL0     H 1603   0.563   5.781   1.770 -0.5502 -1.5938 -0.0384
  753MOL0     H 1604   0.677   5.701   1.575 -0.0453 -1.5687 -0.6160
  753MOL0     H 1605   0.825   5.662   1.686  0.3245  1.9707  0.7893
  753MOL0     H 1606   0.781   5.433   1.504  0.3141  0.6676  1.2056
  753MOL0     H 1607   0.645   5.231   1.365  1.9942  3.8272  1.1406
  753MOL0     H 1608   0.550   5.160   1.501  0.5749  0.8062  1.1261
  753MOL0     H 1609   0.350   5.306   1.420 -0.2722  1.6132 -3.1371
  753MOL0     H 1610   0.439   5.337   1.288  2.4004  0.7090  0.4107
  753MOL0     H 1611   0.355   5.055   1.372 -0.0371 -2.1016 -0.7241
  753MOL0     H 1612   0.456   5.090   1.233 -0.4990  2.5035 -0.8359
  753MOL0     H 1613   0.278   5.210   1.126  5.0396 -0.1789  0.5982
  753MOL0     H 1614   0.174   5.178   1.276  0.4291  0.3491 -1.4520
  753MOL0     H 1615   0.034   5.185   1.110 -0.9462 -0.1697  1.1335
  753MOL0     H 1616  -0.172   5.123   0.989 -1.6080 -2.0043  1.4389
  753MOL0     H 1617  -0.347   4.788   0.645  0.3883 -0.3133 -0.0814
  753MOL0     H 1618  -0.549   4.694   0.562  1.8004 -0.7987 -0.9967
  753MOL0     H 1619  -0.783   4.607   0.525  0.1648  0.7289  1.9342
  753MOL0     H 1620  -0.672   4.470   0.517 -0.3576 -1.5246  1.0175
  753MOL0     H 1621  -0.878   4.366   0.468  4.9570  0.7493 -0.0147
  753MOL0     H 1622  -0.857   4.327   0.634  1.1229  2.6815  2.5023
  753MOL0     H 1623  -1.026   4.490   0.706  1.1921  2.4967 -0.7981
  753MOL0     H 1624  -0.991   4.585   0.570 -0.2454 -1.3174 -1.5882
  753MOL0     H 1625  -1.139   4.462   0.426 -0.1853  3.0594 -0.0268
  753MOL0     H 1626  -1.228   4.471   0.581  0.4308 -0.2166  2.0958
  753MOL0     H 1627  -1.075   4.221   0.479 -3.3100 -2.5399 -1.9730
  753MOL0     H 1628  -1.236   4.247   0.486  0.9042  1.1932 -3.2734
  753MOL0     H 1629  -1.051   4.219   0.729  0.4437  2.2273 -0.9792
  753MOL0     H 1630  -1.205   4.301   0.750  0.6175  2.6204 -4.2571
  753MOL0     H 1631  -1.139   4.013   0.625 -2.9634 -0.3439 -1.4984
  753MOL0     H 1632  -1.305   4.063   0.675 -0.6726  0.6605  1.6042
  753MOL0     H 1633  -1.230   3.919   0.845 -1.1726  0.5227 -0.0418
  753MOL0     H 1634  -1.100   4.044   0.884 -0.5451 -0.5444  1.0211
  753MOL0     H 1635  -0.663   4.563   0.958 -0.3488 -0.1720 -0.8820
  753MOL0     H 1636  -0.453   4.651   1.040  1.4237 -0.1626 -0.7403
  753MOL0     H 1637  -0.047   4.716   0.960 -1.2870  0.5379 -1.4080
  753MOL0     H 1638   0.160   4.772   1.077  0.8462  0.3748 -0.1250
  753MOL0     H 1639   0.841   6.458   2.441 -1.3832 -0.5270 -1.1831
  753MOL0     H 1640   0.733   6.590   2.607 -1.0502  1.0535 -0.9993
  753MOL0     H 1641   0.381   6.731   2.719  0.2986 -1.0672 -0.6250
  753MOL0     H 1642   0.175   6.880   2.776 -4.4660 -1.2931 -1.4519
  753MOL0     H 1643  -0.043   6.878   2.762  0.4508  1.6673 -0.8990
  753MOL0     H 1644   0.004   7.001   2.873 -1.6721  1.4876 -2.4616
  753MOL0     H 1645  -0.272   6.877   2.889 -1.3906  0.5874 -0.2910
  753MOL0     H 1646  -0.227   7.041   2.852 -1.8104  1.7985  1.6386
  753MOL0     H 1647  -0.217   7.103   3.061  2.5903 -0.1424 -0.7220
  753MOL0     H 1648  -0.127   6.958   3.118 -0.8986 -1.7548  0.4711
  753MOL0     H 1649  -0.421   6.945   3.060  0.6406  2.8468 -0.4628
  753MOL0     H 1650  -0.302   6.820   3.121  2.2780  0.2065 -3.6292
  753MOL0     H 1651  -0.433   7.053   3.459 -2.5287 -1.7093 -0.6033
  753MOL0     H 1652   0.058   6.616   3.067 -0.0093 -0.4743  0.0875
  753MOL0     H 1653   0.180   6.454   3.144 -1.1496  0.7531 -1.6859
  753MOL0     H 1654   0.197   6.342   3.002 -2.9186  0.8995  0.0859
  753MOL0     H 1655   0.331   6.407   3.101 -0.0437 -1.6054 -0.1744
  754MOL0     O 1656   0.522   0.410   4.997 -0.5504 -0.7072 -0.0776
  754MOL0     C 1657   0.522   0.320   4.914  0.7221  0.9986 -0.0826
  754MOL0     O 1658   0.603   0.290   4.820 -0.5185  0.3305 -0.5577
  754MOL0     C 1659   0.734   0.339   4.832  0.4524  0.3924  0.3261
  754MOL0     C 1660   0.762   0.469   4.812 -1.2504 -0.1899  0.4131
  754MOL0     C 1661   0.898   0.511   4.831 -0.9164 -0.3036 -0.5579
  754MOL0     C 1662   1.000   0.429   4.882 -1.4883 -0.0027  0.2649
  754MOL0     O 1663   1.129   0.461   4.902  0.4895 -0.8196  0.7453
  754MOL0     C 1664   1.178   0.468   5.033 -0.2125  0.0570 -0.2029
  754MOL0     C 1665   1.299   0.556   5.021  0.2509  0.5128 -0.1828
  754MOL0     C 1666   1.419   0.477   4.988 -0.0457  0.7678  0.8190
  754MOL0     C 1667   1.495   0.418   5.099  0.4414 -0.8400 -0.7711
  754MOL0     C 1668   1.638   0.472   5.121 -0.2930  0.2056  0.2560
  754MOL0     C 1669   1.739   0.433   5.002 -0.2970  0.3805 -0.2812
  754MOL0     C 1670   1.888   0.433   5.035  0.8522 -0.2826 -1.1484
  754MOL0     C 1671   1.929   0.567   5.104  0.0387  0.2991 -0.3611
  754MOL0     N 1672   2.049   0.543   5.182 -0.2467  0.7837 -1.0034
  754MOL0     C 1673   2.069   0.437   5.269 -0.9172 -0.5048 -0.5876
  754MOL0     C 1674   2.188   0.465   5.335 -0.0838  1.1330  0.8616
  754MOL0     C 1675   2.252   0.370   5.438  0.4764  0.3259 -0.2636
  754MOL0     C 1676   2.235   0.423   5.584  0.9688 -0.0609 -0.0196
  754MOL0     C 1677   2.099   0.440   5.636  0.0523 -0.4185  0.1892
  754MOL0     C 1678   2.081   0.515   5.768 -0.2064 -0.3373  0.2917
  754MOL0     O 1679   2.110   0.433   5.879 -0.1142  0.2879  0.0404
  754MOL0     C 1680   2.228   0.451   5.958  0.7373 -0.6918 -0.3897
  754MOL0     C 1681   2.228   0.405   6.090 -0.1700  0.8671 -0.5406
  754MOL0     C 1682   2.328   0.436   6.182 -0.5767 -0.5564 -1.2705
  754MOL0     C 1683   2.446   0.507   6.140  0.3144  0.0272 -0.2322
  754MOL0     C 1684   2.545   0.548   6.249 -0.2868  0.2582  0.2891
  754MOL0     O 1685   2.606   0.671   6.229  0.2695 -0.4244 -0.8593
  754MOL0     C 1686   2.693   0.712   6.331  0.2749  0.1502  0.8088
  754MOL0     C 1687   2.644   0.737   6.454  0.5805 -0.2697 -0.8696
  754MOL0     C 1688   2.727   0.785   6.553  0.2687  0.0617  0.2118
  754MOL0     C 1689   2.863   0.801   6.533  0.2197 -1.0481  0.1691
  754MOL0     O 1690   2.947   0.846   6.633  0.4284  0.1287 -0.2153
  754MOL0     C 1691   2.927   0.764   6.739 -1.0993 -0.1603 -0.3346
  754MOL0     C 1692   3.048   0.788   6.825 -0.5608  0.1327  0.0229
  754MOL0     C 1693   3.188   0.756   6.757 -0.4451 -1.0327  0.0875
  754MOL0     C 1694   3.288   0.774   6.870 -0.7093 -0.5854 -0.7615
  754MOL0     C 1695   3.430   0.732   6.842  0.6459  0.3678  0.1038
  754MOL0     C 1696   3.446   0.578   6.822  0.5423 -0.0631 -0.3027
  754MOL0     C 1697   3.589   0.548   6.775  1.0472  0.5529  0.3808
  754MOL0     C 1698   3.588   0.398   6.730  0.6902 -0.9598 -0.8480
  754MOL0    Cl 1699   3.468   0.371   6.586 -0.1907 -0.1806  0.1091
  754MOL0     C 1700   2.921   0.776   6.413  0.3897 -0.2350 -0.2665
  754MOL0     C 1701   2.830   0.726   6.309 -0.0516 -0.2995  0.3618
  754MOL0     O 1702   2.566   0.476   6.340  1.2961  0.1288 -0.4528
  754MOL0     C 1703   2.450   0.546   6.002 -0.0527  0.5064 -0.5985
  754MOL0     C 1704   2.337   0.536   5.922  0.4690  1.0000  0.2725
  754MOL0     N 1705   2.243   0.584   5.293  1.2510  0.8303  0.3182
  754MOL0     N 1706   2.151   0.634   5.217 -0.3099  0.0259 -0.0004
  754MOL0     C 1707   0.959   0.301   4.913 -0.7352  0.0070 -0.1566
  754MOL0     C 1708   0.831   0.259   4.889  0.2530  0.0213  0.4373
  754MOL0     C 1709   0.402   0.236   4.921 -0.1038  0.2682  0.2169
  754MOL0     C 1710   0.418   0.098   4.877 -0.2838 -0.2196  0.0693
  754MOL0     C 1711   0.323  -0.001   4.915 -0.2334 -1.1744  0.3555
  754MOL0     C 1712   0.216   0.044   4.992 -0.4057 -0.3431 -0.3847
  754MOL0     O 1713   0.125  -0.060   5.013  0.2994  0.8155 -0.2574
  754MOL0     C 1714   0.141  -0.128   5.140 -0.5054  0.2805 -0.5204
  754MOL0     C 1715   0.012  -0.183   5.190 -0.1724  0.7701  0.2655
  754MOL0     C 1716  -0.098  -0.079   5.191  0.0390  0.7743 -0.6581
  754MOL0     C 1717  -0.072   0.027   5.299 -0.1426 -0.4160 -0.1370
  754MOL0     C 1718  -0.081  -0.025   5.437 -0.3382 -0.4884 -0.2746
  754MOL0     C 1719  -0.090  -0.062   5.558 -0.3386 -0.4703 -0.0852
  754MOL0     C 1720   0.197   0.180   5.020  0.0039  0.4750  0.5729
  754MOL0     C 1721   0.281   0.283   4.969 -0.7699 -0.6371  0.0842
  754MOL0     C 1722   0.245   0.432   4.972 -0.6334 -0.1849 -0.2954
  754MOL0     H 1723   0.691   0.539   4.769  0.9998  1.2982 -1.1105
  754MOL0     H 1724   0.934   0.610   4.804  2.7630 -0.9965  1.1195
  754MOL0     H 1725   1.101   0.510   5.098  0.4983  1.7425 -0.4050
  754MOL0     H 1726   1.190   0.364   5.063  0.6808  0.2558  0.1314
  754MOL0     H 1727   1.323   0.624   5.103  1.0974  1.5133 -1.2270
  754MOL0     H 1728   1.283   0.614   4.929  0.1663 -0.6683 -0.9396
  754MOL0     H 1729   1.488   0.544   4.936  0.4864 -0.1207  0.3516
  754MOL0     H 1730   1.398   0.385   4.933 -2.9158  1.6054  0.3547
  754MOL0     H 1731   1.435   0.425   5.190 -2.5808 -0.5384 -2.6655
  754MOL0     H 1732   1.513   0.311   5.088  5.1371 -0.2008 -1.2898
  754MOL0     H 1733   1.641   0.581   5.131 -1.7668  0.0584  3.6817
  754MOL0     H 1734   1.675   0.439   5.218  0.5682  2.9058  0.9307
  754MOL0     H 1735   1.713   0.329   4.981 -2.3795  0.2506  2.4150
  754MOL0     H 1736   1.716   0.504   4.922 -2.8758  2.1118  1.8209
  754MOL0     H 1737   1.947   0.413   4.945  2.2082 -2.2048  0.0761
  754MOL0     H 1738   1.898   0.351   5.107  0.7298 -1.2515 -2.2048
  754MOL0     H 1739   1.943   0.641   5.024 -4.4794  1.3270 -0.4775
  754MOL0     H 1740   1.859   0.604   5.179  1.9388 -0.4965  1.9337
  754MOL0     H 1741   2.004   0.352   5.284 -0.9260 -0.3993 -0.0271
  754MOL0     H 1742   2.220   0.266   5.426  0.7459  0.2446 -0.2781
  754MOL0     H 1743   2.359   0.374   5.418  0.2706 -0.5843 -1.7037
  754MOL0     H 1744   2.298   0.361   5.649  1.8285  1.4794  0.6586
  754MOL0     H 1745   2.275   0.524   5.587 -0.8871  0.7114 -0.0469
  754MOL0     H 1746   2.064   0.337   5.646  0.7511 -0.6324  0.5307
  754MOL0     H 1747   2.045   0.499   5.562 -1.5707  1.9862  3.0668
  754MOL0     H 1748   1.976   0.544   5.775  0.1577  0.6862  2.0222
  754MOL0     H 1749   2.136   0.609   5.773 -3.7790  1.9086  1.0224
  754MOL0     H 1750   2.149   0.342   6.131  2.3173 -0.9310  1.8229
  754MOL0     H 1751   2.302   0.412   6.285  0.9254  2.7673  0.0769
  754MOL0     H 1752   2.541   0.716   6.482  0.7008 -1.6180 -1.3775
  754MOL0     H 1753   2.682   0.829   6.641  0.9404  0.0513  0.5655
  754MOL0     H 1754   2.837   0.789   6.796 -0.3917 -0.3943  0.9106
  754MOL0     H 1755   2.913   0.662   6.701 -0.6987 -0.7698  1.1007
  754MOL0     H 1756   3.051   0.890   6.864 -1.7265 -0.6723  2.4202
  754MOL0     H 1757   3.037   0.721   6.911  2.5243 -2.3926 -1.3487
  754MOL0     H 1758   3.188   0.651   6.725  0.1682 -1.0957  0.2936
  754MOL0     H 1759   3.187   0.817   6.666 -0.4975 -3.1205 -1.4144
  754MOL0     H 1760   3.254   0.729   6.964  1.8016 -0.5281  0.2509
  754MOL0     H 1761   3.293   0.878   6.903  0.9760 -0.6057 -0.8521
  754MOL0     H 1762   3.482   0.750   6.936  1.9931  0.0797 -0.5664
  754MOL0     H 1763   3.480   0.791   6.765  0.3301 -0.5447 -0.8228
  754MOL0     H 1764   3.419   0.542   6.921 -3.0284  3.8981  0.4769
  754MOL0     H 1765   3.363   0.544   6.759  0.6111  0.1867 -0.5355
  754MOL0     H 1766   3.656   0.563   6.861 -0.9308 -1.4545  2.3969
  754MOL0     H 1767   3.620   0.606   6.688  1.7701  0.0600  0.3009
  754MOL0     H 1768   3.685   0.370   6.688  0.4493  0.9678 -2.8753
  754MOL0     H 1769   3.555   0.336   6.813  0.2721  1.0940  0.5946
  754MOL0     H 1770   3.027   0.798   6.400  0.4375  2.9344  3.4582
  754MOL0     H 1771   2.873   0.707   6.212  3.2586  2.3542  1.1109
  754MOL0     H 1772   2.536   0.598   5.962  0.9648 -0.8079 -0.2063
  754MOL0     H 1773   2.363   0.573   5.824  1.7571 -1.0500 -0.2241
  754MOL0     H 1774   1.040   0.239   4.950 -0.9205  1.3462  2.8835
  754MOL0     H 1775   0.826   0.151   4.897  0.1616 -0.1521 -1.5137
  754MOL0     H 1776   0.512   0.061   4.837 -0.8443  0.1973 -1.7282
  754MOL0     H 1777   0.327  -0.106   4.890 -0.0844 -1.6953  2.4112
  754MOL0     H 1778   0.188  -0.063   5.214  0.3790  0.6151 -1.3479
  754MOL0     H 1779   0.209  -0.214   5.136  2.1691  2.3085 -0.7721
  754MOL0     H 1780   0.019  -0.218   5.294  0.3472  0.5157  0.1440
  754MOL0     H 1781  -0.021  -0.271   5.135  2.0252  0.0999 -0.0479
  754MOL0     H 1782  -0.197  -0.120   5.213 -0.1146  0.9333 -1.0480
  754MOL0     H 1783  -0.110  -0.036   5.091 -1.8694 -0.8300 -1.1689
  754MOL0     H 1784   0.026   0.073   5.278  0.0559  0.6621  2.7240
  754MOL0     H 1785  -0.148   0.106   5.293  1.4574  1.1147 -1.3234
  754MOL0     H 1786  -0.097  -0.063   5.665  1.9967  1.4729  0.1564
  754MOL0     H 1787   0.099   0.189   5.066 -0.5405 -0.7335 -0.2845
  754MOL0     H 1788   0.299   0.495   5.044 -2.4017  1.9564 -0.7267
  754MOL0     H 1789   0.270   0.475   4.875 -0.1181  0.3792  0.0790
  754MOL0     H 1790   0.141   0.458   4.995  0.3977  3.6268  0.7690
  755MOL0     O 1791   9.446   4.174   3.733  0.2323  0.2880  0.2574
  755MOL0     C 1792   9.384   4.142   3.635  0.0670 -0.3568  0.3650
  755MOL0     O 1793   9.254   4.176   3.609  0.0823  0.2193  0.0959
  755MOL0     C 1794   9.175   4.256   3.685  0.6523 -0.3100 -0.1289
  755MOL0     C 1795   9.210   4.390   3.704 -0.0225  0.2309 -0.6525
  755MOL0     C 1796   9.137   4.461   3.798  0.0609  0.5597  0.8310
  755MOL0     C 1797   9.029   4.399   3.872  0.5949 -0.9619 -0.3028
  755MOL0     O 1798   8.945   4.468   3.959  0.3039 -0.2866 -0.6942
  755MOL0     C 1799   9.012   4.574   4.026 -0.6358 -0.1957 -0.8938
  755MOL0     C 1800   8.909   4.631   4.126 -0.2549  0.0687 -0.7477
  755MOL0     C 1801   8.828   4.744   4.056 -1.0056  0.2141  0.6925
  755MOL0     C 1802   8.691   4.769   4.127 -0.2911  0.6985  0.0280
  755MOL0     C 1803   8.610   4.892   4.080 -0.2768 -1.0408 -0.1674
  755MOL0     C 1804   8.662   5.032   4.126  0.1302  0.6448 -0.3679
  755MOL0     C 1805   8.554   5.125   4.183 -0.0213  0.8072 -0.3507
  755MOL0     C 1806   8.605   5.254   4.240 -0.3058 -0.3984 -0.0779
  755MOL0     N 1807   8.694   5.221   4.358  0.4675  0.2731  0.4646
  755MOL0     C 1808   8.647   5.220   4.479  1.3271  0.0710  0.7089
  755MOL0     C 1809   8.743   5.183   4.566 -0.3545  0.2416  0.2254
  755MOL0     C 1810   8.736   5.179   4.716 -1.1658 -0.3615 -1.5804
  755MOL0     C 1811   8.866   5.113   4.781 -0.4982  0.8169 -0.7835
  755MOL0     C 1812   8.891   4.967   4.742 -0.5669 -1.1212 -0.5882
  755MOL0     C 1813   9.032   4.919   4.759 -1.3430 -0.1254  0.2905
  755MOL0     O 1814   9.043   4.781   4.705  0.1671 -0.1761  0.4285
  755MOL0     C 1815   9.111   4.790   4.586  0.6432  0.4307  0.6110
  755MOL0     C 1816   9.085   4.865   4.478 -0.0048 -0.0376  0.4988
  755MOL0     C 1817   9.175   4.864   4.371 -0.4358  0.1555 -0.5222
  755MOL0     C 1818   9.272   4.762   4.364  0.1492 -0.4533 -0.5328
  755MOL0     C 1819   9.356   4.734   4.245 -0.6164 -0.6905  0.9848
  755MOL0     O 1820   9.326   4.804   4.131 -0.5335 -0.6867  0.6673
  755MOL0     C 1821   9.372   4.782   4.003  0.4499  1.0518 -0.3947
  755MOL0     C 1822   9.390   4.652   3.957 -1.0588  0.9757 -1.0573
  755MOL0     C 1823   9.431   4.619   3.829 -0.6236 -0.2548  0.0276
  755MOL0     C 1824   9.448   4.728   3.736  0.7009 -0.4958  0.5801
  755MOL0     O 1825   9.489   4.713   3.607  0.3055 -1.0188 -0.0360
  755MOL0     C 1826   9.598   4.623   3.594  0.5785  0.4140 -0.0736
  755MOL0     C 1827   9.666   4.651   3.463 -0.9141  0.4591  0.0063
  755MOL0     C 1828   9.712   4.801   3.460  0.1807 -0.2164  0.2313
  755MOL0     C 1829   9.811   4.819   3.355  1.1632 -0.1120  0.6731
  755MOL0     C 1830   9.883   4.961   3.363  1.2763 -0.0462  0.4721
  755MOL0     C 1831   9.952   4.997   3.496  0.6837  0.5451 -0.0359
  755MOL0     C 1832  10.058   5.107   3.477  0.6754 -0.4156 -0.6692
  755MOL0     C 1833   9.996   5.239   3.424 -0.4221  0.6362 -1.4322
  755MOL0    Cl 1834   9.870   5.307   3.537  0.0515  0.0239  0.4021
  755MOL0     C 1835   9.438   4.859   3.781  0.3540 -0.1568  0.2858
  755MOL0     C 1836   9.398   4.883   3.910 -0.0820  1.0162 -1.1883
  755MOL0     O 1837   9.448   4.650   4.251  0.3236 -0.2449 -0.6402
  755MOL0     C 1838   9.294   4.672   4.471 -0.4391 -0.5963 -0.8079
  755MOL0     C 1839   9.204   4.686   4.583 -0.1380 -0.0491 -0.7002
  755MOL0     N 1840   8.845   5.150   4.484 -0.5083 -0.4386 -0.2700
  755MOL0     N 1841   8.823   5.179   4.358 -1.0533 -0.1472  0.4675
  755MOL0     C 1842   8.996   4.271   3.837 -0.3403 -0.1120  0.2640
  755MOL0     C 1843   9.069   4.192   3.741 -0.2180 -0.2822 -0.3209
  755MOL0     C 1844   9.457   4.050   3.547 -0.0181  1.0088  0.6519
  755MOL0     C 1845   9.492   3.918   3.593  0.1220  0.5263 -0.4976
  755MOL0     C 1846   9.555   3.838   3.508 -0.0839  0.0752  0.6178
  755MOL0     C 1847   9.583   3.870   3.377 -1.0422  0.0177  0.1525
  755MOL0     O 1848   9.647   3.771   3.307  0.0260  0.4239 -0.3707
  755MOL0     C 1849   9.591   3.756   3.170 -0.0746  0.1726 -0.1831
  755MOL0     C 1850   9.590   3.613   3.148 -0.0703 -0.2625 -0.5490
  755MOL0     C 1851   9.725   3.584   3.092 -0.3945  0.3983  0.2391
  755MOL0     C 1852   9.742   3.429   3.067  0.3414  0.4957  0.7285
  755MOL0     C 1853   9.802   3.405   2.937  0.5763 -0.1947  0.1711
  755MOL0     C 1854   9.860   3.390   2.828 -0.7206  1.0202 -0.7752
  755MOL0     C 1855   9.569   4.004   3.333 -0.6826 -0.0152 -0.1523
  755MOL0     C 1856   9.511   4.097   3.420  0.3996 -1.0585 -0.5256
  755MOL0     C 1857   9.496   4.238   3.372  0.3221 -0.1963  0.3045
  755MOL0     H 1858   9.301   4.422   3.653 -0.3762  0.1672 -1.3326
  755MOL0     H 1859   9.154   4.566   3.815 -1.5565  0.2104  7.2528
  755MOL0     H 1860   9.094   4.531   4.085  0.3359 -1.3546 -2.9517
  755MOL0     H 1861   9.052   4.649   3.957  2.0905 -3.3153 -3.0471
  755MOL0     H 1862   8.957   4.693   4.201 -0.0457  2.0315 -2.4090
  755MOL0     H 1863   8.847   4.557   4.178  0.4963 -0.3437 -0.4352
  755MOL0     H 1864   8.805   4.722   3.951 -2.4203  1.2395  0.7715
  755MOL0     H 1865   8.869   4.845   4.058  1.0049 -0.5252 -0.1821
  755MOL0     H 1866   8.625   4.686   4.104 -2.1039  2.1633 -0.2569
  755MOL0     H 1867   8.693   4.769   4.237 -2.0751  1.8047  0.0929
  755MOL0     H 1868   8.601   4.887   3.971 -0.6789  0.2528 -0.2100
  755MOL0     H 1869   8.513   4.883   4.129 -0.1591  2.6128  1.0448
  755MOL0     H 1870   8.739   5.025   4.203  1.2757  0.7505 -1.4551
  755MOL0     H 1871   8.715   5.080   4.042  0.6350  0.6551 -0.0480
  755MOL0     H 1872   8.483   5.075   4.249 -0.6155  1.4215 -0.5053
  755MOL0     H 1873   8.508   5.148   4.087 -0.7405 -0.9543 -0.4616
  755MOL0     H 1874   8.671   5.306   4.170  4.0470 -1.0692  3.0651
  755MOL0     H 1875   8.527   5.317   4.284  0.2242 -1.6642  2.9494
  755MOL0     H 1876   8.545   5.246   4.506  0.9164 -0.7199 -0.0223
  755MOL0     H 1877   8.728   5.283   4.749 -0.4220 -0.7420 -0.1651
  755MOL0     H 1878   8.654   5.118   4.753 -1.2998  0.4709 -0.4505
  755MOL0     H 1879   8.959   5.167   4.760 -0.0755 -0.3336 -2.0202
  755MOL0     H 1880   8.876   5.115   4.890  4.2606 -2.8967 -0.8722
  755MOL0     H 1881   8.872   4.965   4.634 -0.6481  1.0115 -0.6539
  755MOL0     H 1882   8.825   4.904   4.803  0.8500 -2.2932 -0.1974
  755MOL0     H 1883   9.051   4.914   4.867  2.8060 -0.2975 -0.2804
  755MOL0     H 1884   9.105   4.990   4.718 -1.6352 -0.3299 -0.6041
  755MOL0     H 1885   8.995   4.926   4.485 -1.7075 -2.0745 -1.9082
  755MOL0     H 1886   9.142   4.903   4.275  3.2785 -0.1093 -2.0621
  755MOL0     H 1887   9.362   4.588   4.040 -1.8654  1.2221 -1.1357
  755MOL0     H 1888   9.447   4.517   3.793  1.2931  0.3097 -0.8954
  755MOL0     H 1889   9.676   4.630   3.670  0.4234 -0.5934  0.1919
  755MOL0     H 1890   9.568   4.518   3.602  1.1801  0.3802  2.6866
  755MOL0     H 1891   9.737   4.568   3.457  0.8219  1.5527  3.1666
  755MOL0     H 1892   9.593   4.646   3.381  0.0078  1.7692 -0.9288
  755MOL0     H 1893   9.633   4.876   3.453  0.6330  0.2194 -0.3215
  755MOL0     H 1894   9.764   4.829   3.552 -0.6358  0.2530  0.5602
  755MOL0     H 1895   9.779   4.811   3.251  3.7291  0.8663 -0.2796
  755MOL0     H 1896   9.889   4.742   3.361 -0.9841 -2.2986  2.7331
  755MOL0     H 1897   9.808   5.040   3.346  0.7601 -0.6135  0.0648
  755MOL0     H 1898   9.949   4.978   3.277  0.1582 -0.0661 -0.4250
  755MOL0     H 1899   9.877   5.028   3.570  3.0526  1.1089  2.2762
  755MOL0     H 1900   9.997   4.914   3.553 -2.2752 -2.0969 -1.2127
  755MOL0     H 1901  10.130   5.062   3.408  0.7348 -3.0593  0.9518
  755MOL0     H 1902  10.106   5.142   3.569 -1.7437  0.5264  0.3005
  755MOL0     H 1903  10.070   5.318   3.407 -1.1744  1.7304  0.1365
  755MOL0     H 1904   9.949   5.208   3.330  1.6066 -2.8787 -1.4820
  755MOL0     H 1905   9.469   4.936   3.712  2.8581 -2.5345 -1.4668
  755MOL0     H 1906   9.379   4.982   3.950  0.7535  0.4231  0.7896
  755MOL0     H 1907   9.367   4.593   4.475  1.9488  1.5309  2.6795
  755MOL0     H 1908   9.206   4.623   4.672  1.4532  0.5337 -0.2733
  755MOL0     H 1909   8.916   4.225   3.894  0.3250 -3.2634 -1.0857
  755MOL0     H 1910   9.041   4.089   3.721  0.6693 -0.9609  1.6710
  755MOL0     H 1911   9.449   3.872   3.681  0.2620  0.2768 -0.5572
  755MOL0     H 1912   9.578   3.734   3.529  0.8973  0.5533  2.0395
  755MOL0     H 1913   9.654   3.820   3.107  1.2939 -0.5952  0.3427
  755MOL0     H 1914   9.486   3.785   3.169 -0.7539 -2.0930  0.4495
  755MOL0     H 1915   9.499   3.587   3.093 -0.5247  0.1139  0.0214
  755MOL0     H 1916   9.575   3.570   3.247 -3.9398 -0.9635 -1.3023
  755MOL0     H 1917   9.809   3.625   3.149 -0.6530 -0.9636  1.6907
  755MOL0     H 1918   9.724   3.633   2.995 -0.5540  1.3522  0.7167
  755MOL0     H 1919   9.795   3.375   3.146  1.2786  1.2730  0.6520
  755MOL0     H 1920   9.640   3.389   3.061 -1.1173  3.1077  4.3946
  755MOL0     H 1921   9.912   3.388   2.735  0.7805  1.3998  0.0101
  755MOL0     H 1922   9.596   4.019   3.229 -1.5539 -0.0655 -0.3906
  755MOL0     H 1923   9.587   4.291   3.400  2.0344 -2.1507 -1.1761
  755MOL0     H 1924   9.502   4.235   3.262 -1.7173 -5.9148  0.0093
  755MOL0     H 1925   9.400   4.277   3.406  0.5996  0.2225  0.6082
  756MOL0     O 1926   6.834  10.706   6.910  0.2562 -0.4387  0.0425
  756MOL0     C 1927   6.910  10.725   6.817  0.6674 -0.1712 -0.3698
  756MOL0     O 1928   6.882  10.680   6.694  1.4628 -0.1669  0.1851
  756MOL0     C 1929   6.790  10.583   6.659  0.3909 -0.3201 -0.4103
  756MOL0     C 1930   6.705  10.597   6.547  0.1417  0.0847  0.3793
  756MOL0     C 1931   6.619  10.494   6.515 -0.0893  1.3003  0.1020
  756MOL0     C 1932   6.614  10.377   6.590  0.3886  0.0349 -0.3768
  756MOL0     O 1933   6.517  10.287   6.552 -0.4641 -0.0636 -0.4230
  756MOL0     C 1934   6.513  10.152   6.605  1.3779 -0.0501 -0.4364
  756MOL0     C 1935   6.427  10.069   6.514  1.1420  0.5328 -0.1204
  756MOL0     C 1936   6.296  10.142   6.491 -0.4204  1.3561  0.3542
  756MOL0     C 1937   6.224  10.187   6.621  0.6257 -0.8049  0.1172
  756MOL0     C 1938   6.082  10.237   6.589  0.4971  1.3163 -0.3078
  756MOL0     C 1939   5.984  10.108   6.598  0.5142  0.2367 -1.0779
  756MOL0     C 1940   5.841  10.162   6.619  0.0591  0.2021 -0.0280
  756MOL0     C 1941   5.743  10.068   6.550 -0.4013 -0.0960  0.9523
  756MOL0     N 1942   5.615  10.123   6.563 -0.4689 -0.2776 -0.6370
  756MOL0     C 1943   5.526  10.089   6.665 -0.2093  0.2844  0.1680
  756MOL0     C 1944   5.420  10.161   6.624  0.0087 -0.0180 -0.2572
  756MOL0     C 1945   5.301  10.172   6.711  0.1493  1.3631 -1.3098
  756MOL0     C 1946   5.263  10.305   6.775  0.1197  0.2520 -0.7010
  756MOL0     C 1947   5.117  10.303   6.810 -0.0617  0.2341  0.8313
  756MOL0     C 1948   5.053  10.436   6.867 -0.1982  0.2608 -0.3863
  756MOL0     O 1949   5.073  10.469   7.008  0.6276  0.4963  0.0507
  756MOL0     C 1950   4.969  10.459   7.100 -0.4756 -0.7682 -0.0532
  756MOL0     C 1951   4.863  10.377   7.080  0.3385  1.2578 -1.1276
  756MOL0     C 1952   4.754  10.377   7.174 -0.4979 -0.0796  0.9408
  756MOL0     C 1953   4.762  10.458   7.289 -0.3169  0.2853 -0.4597
  756MOL0     C 1954   4.639  10.472   7.375 -0.6979  0.2458 -0.6223
  756MOL0     O 1955   4.530  10.404   7.331  0.4010  0.2700 -0.0407
  756MOL0     C 1956   4.406  10.455   7.384  0.6789 -0.0189 -0.1747
  756MOL0     C 1957   4.346  10.574   7.335  0.3317  0.5775  0.4261
  756MOL0     C 1958   4.221  10.617   7.385  0.2766  1.0025 -1.2958
  756MOL0     C 1959   4.148  10.540   7.474  0.2984  0.1553 -0.5534
  756MOL0     O 1960   4.025  10.579   7.531  0.1645 -0.0005  0.3887
  756MOL0     C 1961   3.930  10.475   7.528  0.2441 -0.1460  0.2295
  756MOL0     C 1962   3.795  10.532   7.526  1.0410  0.4664 -0.5147
  756MOL0     C 1963   3.750  10.612   7.404 -0.4266 -0.3681  0.4177
  756MOL0     C 1964   3.670  10.729   7.447  0.4634 -0.3440  0.2165
  756MOL0     C 1965   3.654  10.849   7.350 -0.4358 -0.4106 -0.3842
  756MOL0     C 1966   3.802  10.920   7.347 -0.1505  0.1622  0.4678
  756MOL0     C 1967   3.780  11.065   7.298  0.1796  0.2610 -0.2222
  756MOL0     C 1968   3.917  11.121   7.270  0.4345  0.3759 -0.9131
  756MOL0    Cl 1969   3.991  11.062   7.117  0.1609 -0.0197  0.0870
  756MOL0     C 1970   4.208  10.425   7.516  0.3733  0.2978 -0.4571
  756MOL0     C 1971   4.327  10.375   7.461 -0.4527 -0.6006 -1.0953
  756MOL0     O 1972   4.640  10.545   7.470  0.6538  0.4919 -0.1325
  756MOL0     C 1973   4.869  10.546   7.300  0.1289  0.2359 -0.3754
  756MOL0     C 1974   4.970  10.552   7.211  0.1216 -0.0531  0.0004
  756MOL0     N 1975   5.426  10.219   6.503 -0.1869  0.5361  0.2695
  756MOL0     N 1976   5.553  10.203   6.475 -0.2937 -0.2339  0.6356
  756MOL0     C 1977   6.702  10.362   6.702  0.0935  0.6166  0.4025
  756MOL0     C 1978   6.790  10.462   6.731 -0.1271 -0.2997 -0.0501
  756MOL0     C 1979   7.037  10.802   6.830 -0.1835 -0.7603  0.1292
  756MOL0     C 1980   7.091  10.855   6.708  0.2470  0.2578 -0.7232
  756MOL0     C 1981   7.215  10.927   6.712 -0.8390  0.2216 -1.1696
  756MOL0     C 1982   7.286  10.956   6.829  0.0217  0.2735 -0.2345
  756MOL0     O 1983   7.404  11.010   6.815  0.0375  0.2299  0.4140
  756MOL0     C 1984   7.465  11.055   6.934  0.3331 -0.5448 -0.0744
  756MOL0     C 1985   7.602  11.119   6.909 -1.0767  0.2269 -0.8341
  756MOL0     C 1986   7.602  11.233   6.809 -0.2291  0.5796 -0.1420
  756MOL0     C 1987   7.759  11.275   6.800 -0.3523 -0.1091  0.4078
  756MOL0     C 1988   7.764  11.400   6.727 -0.3854 -0.1150 -0.7886
  756MOL0     C 1989   7.782  11.496   6.658  0.2242 -0.3709  1.0146
  756MOL0     C 1990   7.224  10.905   6.948  0.2021  0.2238  0.9122
  756MOL0     C 1991   7.102  10.828   6.951 -0.2199 -1.2616  0.5010
  756MOL0     C 1992   7.044  10.802   7.086  0.8904 -0.3200  0.1079
  756MOL0     H 1993   6.737  10.675   6.480 -0.4943 -1.1737 -1.4579
  756MOL0     H 1994   6.551  10.485   6.430 -0.3484 -1.7610  0.5446
  756MOL0     H 1995   6.608  10.100   6.618  0.0876 -2.6171 -0.5772
  756MOL0     H 1996   6.463  10.151   6.702  4.8599 -2.8584  1.5582
  756MOL0     H 1997   6.401   9.967   6.541 -1.7875  1.1659 -0.2348
  756MOL0     H 1998   6.478  10.045   6.420 -0.4777  0.5408 -1.0474
  756MOL0     H 1999   6.238  10.074   6.428  0.6328 -0.9412  1.7428
  756MOL0     H 2000   6.322  10.231   6.432  1.6664  0.1027 -0.6942
  756MOL0     H 2001   6.217  10.102   6.691  0.2392 -2.6023 -2.0086
  756MOL0     H 2002   6.263  10.276   6.672  0.0467  0.4585 -1.5605
  756MOL0     H 2003   6.047  10.295   6.675 -2.0174  0.4702 -0.6934
  756MOL0     H 2004   6.087  10.289   6.493 -0.3193  2.0212  0.0186
  756MOL0     H 2005   5.996  10.045   6.510 -0.6986  2.6424 -3.1066
  756MOL0     H 2006   6.019  10.050   6.683  1.3398  1.6243 -0.4391
  756MOL0     H 2007   5.840  10.262   6.574 -1.8705  1.3879  2.4308
  756MOL0     H 2008   5.807  10.172   6.722 -1.2502 -3.3641  0.0278
  756MOL0     H 2009   5.762  10.067   6.442  2.9149  1.6107  1.3831
  756MOL0     H 2010   5.756   9.962   6.574  6.1345 -0.7677 -2.9359
  756MOL0     H 2011   5.554  10.041   6.758  3.0155 -0.3016 -0.9553
  756MOL0     H 2012   5.215  10.139   6.652  0.0946  0.3578 -0.6829
  756MOL0     H 2013   5.309  10.098   6.791  0.5530  1.2782 -1.4218
  756MOL0     H 2014   5.339  10.323   6.852  2.2042 -1.2990 -2.2704
  756MOL0     H 2015   5.277  10.384   6.700  2.6525 -0.9291 -1.5988
  756MOL0     H 2016   5.105  10.227   6.888 -0.5037  0.9154  1.4422
  756MOL0     H 2017   5.058  10.279   6.721 -0.3166  1.0467  0.7718
  756MOL0     H 2018   4.946  10.419   6.853 -0.8058  2.8475  0.6246
  756MOL0     H 2019   5.073  10.526   6.808  1.8829 -0.1921 -0.4479
  756MOL0     H 2020   4.860  10.303   7.000 -0.6569 -1.3545  1.1400
  756MOL0     H 2021   4.667  10.319   7.146  1.1465 -2.6681  0.7971
  756MOL0     H 2022   4.388  10.639   7.259  1.3862 -1.2262 -0.6249
  756MOL0     H 2023   4.181  10.710   7.347  1.3066  0.8721 -2.7762
  756MOL0     H 2024   3.944  10.408   7.442  2.6122 -2.3518  2.1676
  756MOL0     H 2025   3.934  10.415   7.619  1.2756 -0.0804  0.2383
  756MOL0     H 2026   3.727  10.448   7.536  1.7817  0.0470  1.6588
  756MOL0     H 2027   3.767  10.577   7.622 -2.8559 -0.3571 -1.1290
  756MOL0     H 2028   3.842  10.647   7.356  0.8604  0.7642  3.4072
  756MOL0     H 2029   3.698  10.553   7.329 -0.4632  1.0697 -0.7198
  756MOL0     H 2030   3.706  10.771   7.541  0.6950 -0.7695  0.3213
  756MOL0     H 2031   3.570  10.695   7.474  0.6472  0.7881  2.6048
  756MOL0     H 2032   3.572  10.915   7.377 -0.5091 -0.0532 -1.4251
  756MOL0     H 2033   3.630  10.813   7.249  0.5505 -2.2811  0.0085
  756MOL0     H 2034   3.842  10.920   7.449 -0.3809  1.3137  0.5704
  756MOL0     H 2035   3.862  10.873   7.268 -1.4763 -0.0026 -0.4681
  756MOL0     H 2036   3.724  11.125   7.371 -0.0456  3.6914 -2.9360
  756MOL0     H 2037   3.724  11.075   7.204  0.8935 -0.2585 -0.7182
  756MOL0     H 2038   3.892  11.227   7.258  1.3302  0.6273 -0.6139
  756MOL0     H 2039   3.977  11.108   7.361 -3.8347 -0.2408  2.1395
  756MOL0     H 2040   4.154  10.359   7.584  1.3224 -2.0209 -1.8063
  756MOL0     H 2041   4.361  10.275   7.485 -1.4367 -0.2196  2.5823
  756MOL0     H 2042   4.866  10.630   7.370  0.5497 -0.1396  0.0944
  756MOL0     H 2043   5.043  10.632   7.214 -1.3569  1.4284 -1.4645
  756MOL0     H 2044   6.702  10.275   6.767  0.4735  2.1370  2.5671
  756MOL0     H 2045   6.851  10.459   6.821 -2.0183 -0.0176  1.2933
  756MOL0     H 2046   7.035  10.850   6.615  2.6234  0.2440 -2.2298
  756MOL0     H 2047   7.255  10.978   6.625 -2.3450 -1.5160 -2.9816
  756MOL0     H 2048   7.484  10.974   7.005 -2.7882 -0.7399  0.6573
  756MOL0     H 2049   7.401  11.127   6.987  2.1829  1.6806 -0.6869
  756MOL0     H 2050   7.664  11.039   6.868 -0.3625  0.1808  0.3071
  756MOL0     H 2051   7.646  11.157   7.002  1.2082 -2.1459 -0.8188
  756MOL0     H 2052   7.533  11.309   6.846 -0.9082  0.4870 -1.1571
  756MOL0     H 2053   7.550  11.195   6.720 -2.2629  2.0262  0.3499
  756MOL0     H 2054   7.789  11.299   6.903 -2.4273 -0.8076  1.2247
  756MOL0     H 2055   7.813  11.197   6.746  2.5108  2.4903 -0.8135
  756MOL0     H 2056   7.806  11.578   6.594  0.4427  1.4445  3.2555
  756MOL0     H 2057   7.264  10.940   7.043  0.1294  1.3789  0.5381
  756MOL0     H 2058   7.098  10.865   7.157  2.2027 -0.2258 -0.9371
  756MOL0     H 2059   6.937  10.825   7.093  0.7674  0.0060 -2.0519
  756MOL0     H 2060   7.063  10.701   7.124  0.0194 -0.5923 -0.1482
  757MOL0     O 2061   7.117  10.342   9.365  0.0896  0.3063 -0.1409
  757MOL0     C 2062   7.065  10.340   9.474  0.4774 -0.5624 -0.1388
  757MOL0     O 2063   6.927  10.314   9.492 -0.1876 -0.2225 -0.8958
  757MOL0     C 2064   6.852  10.266   9.383 -0.4488  0.8945  0.2269
  757MOL0     C 2065   6.732  10.335   9.337 -0.6567 -0.5028  0.3716
  757MOL0     C 2066   6.656  10.281   9.234 -0.4624 -0.3436 -0.8900
  757MOL0     C 2067   6.671  10.149   9.194  0.7969 -0.3478  1.2607
  757MOL0     O 2068   6.581  10.073   9.123  0.3271  0.3345  0.6722
  757MOL0     C 2069   6.505  10.133   9.011 -0.4446 -0.3722 -0.3103
  757MOL0     C 2070   6.567  10.127   8.877  0.3906  0.4941 -0.7639
  757MOL0     C 2071   6.473  10.193   8.777  1.5407  0.5586  0.2805
  757MOL0     C 2072   6.559  10.240   8.662  0.1657  0.1144 -0.0499
  757MOL0     C 2073   6.486  10.278   8.525 -0.6825 -1.0382 -0.1637
  757MOL0     C 2074   6.379  10.178   8.484 -0.1932 -0.9732 -0.1796
  757MOL0     C 2075   6.366  10.177   8.337  0.4018  0.8896  0.6947
  757MOL0     C 2076   6.329  10.304   8.277 -0.2155  0.1496 -0.7944
  757MOL0     N 2077   6.332  10.297   8.124  0.2088  0.6342 -0.3035
  757MOL0     C 2078   6.272  10.196   8.049 -0.1308 -0.1824 -0.3186
  757MOL0     C 2079   6.345  10.191   7.931  0.6207  0.8324 -0.2021
  757MOL0     C 2080   6.313  10.100   7.815 -0.0372  0.3284  0.1864
  757MOL0     C 2081   6.351   9.959   7.846 -0.3119 -0.2557  1.0125
  757MOL0     C 2082   6.341   9.867   7.727 -0.1391 -0.7369  0.4282
  757MOL0     C 2083   6.195   9.804   7.702 -0.6727  0.1793  0.3252
  757MOL0     O 2084   6.092   9.906   7.672 -0.2466  0.5336  0.1389
  757MOL0     C 2085   6.002   9.871   7.573  0.7610 -0.0989 -0.2285
  757MOL0     C 2086   5.920   9.976   7.515  0.0545 -0.6706  0.2123
  757MOL0     C 2087   5.816   9.951   7.417  0.1733  1.0071  0.1682
  757MOL0     C 2088   5.780   9.820   7.390  0.0805 -0.8105  0.8261
  757MOL0     C 2089   5.655   9.795   7.304  0.4121 -0.5984 -0.1160
  757MOL0     O 2090   5.563   9.897   7.305 -0.7747  0.2883 -0.5308
  757MOL0     C 2091   5.438   9.886   7.243 -0.3289  0.4467  0.8984
  757MOL0     C 2092   5.379  10.013   7.253  0.8269  0.5473 -1.1445
  757MOL0     C 2093   5.254  10.032   7.182 -0.2457 -0.3180  0.0074
  757MOL0     C 2094   5.192   9.931   7.113 -0.3503  0.9736  0.3578
  757MOL0     O 2095   5.081   9.965   7.038 -0.1501 -0.4682 -0.0747
  757MOL0     C 2096   5.005   9.863   6.992  0.4390  0.3087 -0.4032
  757MOL0     C 2097   4.875   9.916   6.924 -0.3355  0.7200  0.3083
  757MOL0     C 2098   4.777   9.988   7.023  0.3351  0.0872 -0.7221
  757MOL0     C 2099   4.634   9.953   6.969  1.0940 -0.1331 -0.2065
  757MOL0     C 2100   4.522  10.013   7.056  0.3240  0.4437  0.4926
  757MOL0     C 2101   4.377   9.984   7.008  0.3168 -0.1784 -0.9389
  757MOL0     C 2102   4.282   9.993   7.125  0.2682 -0.1417 -0.3054
  757MOL0     C 2103   4.243  10.134   7.166  0.2387  0.3025  0.4795
  757MOL0    Cl 2104   4.109  10.135   7.285 -0.1774  0.1146 -0.2092
  757MOL0     C 2105   5.251   9.797   7.113 -0.6945 -0.2879  0.4299
  757MOL0     C 2106   5.375   9.777   7.168 -0.2453  0.0932  0.9864
  757MOL0     O 2107   5.647   9.699   7.234 -0.0977 -0.0641 -0.3585
  757MOL0     C 2108   5.856   9.718   7.458  0.7722  0.0487  0.5620
  757MOL0     C 2109   5.965   9.742   7.541 -0.6304  0.0198 -0.6081
  757MOL0     N 2110   6.452  10.270   7.941 -0.3797 -0.2504 -0.5334
  757MOL0     N 2111   6.449  10.338   8.053  0.6124  0.8923  0.3793
  757MOL0     C 2112   6.786  10.080   9.240  0.0135  0.4508 -0.5844
  757MOL0     C 2113   6.877  10.138   9.333  0.4729  0.2931  0.6849
  757MOL0     C 2114   7.148  10.347   9.595 -1.1983 -0.1288  1.2811
  757MOL0     C 2115   7.089  10.325   9.714 -0.4817  0.2237 -0.4055
  757MOL0     C 2116   7.161  10.339   9.833 -0.2514  0.0240 -0.1892
  757MOL0     C 2117   7.299  10.361   9.836 -0.1068  0.2013 -1.0493
  757MOL0     O 2118   7.364  10.364   9.958  0.2512 -0.5196  0.8925
  757MOL0     C 2119   7.504  10.382   9.957 -0.3181 -0.9385  0.3858
  757MOL0     C 2120   7.574  10.382  10.100 -1.1803 -0.4519  0.5653
  757MOL0     C 2121   7.712  10.317  10.089  0.0698 -0.2086 -0.0649
  757MOL0     C 2122   7.772  10.300  10.239 -0.2098 -0.0042  1.1710
  757MOL0     C 2123   7.872  10.404  10.261 -0.2979 -0.0699  0.0175
  757MOL0     C 2124   7.955  10.485  10.295 -0.5642 -0.2250 -0.2531
  757MOL0     C 2125   7.360  10.379   9.713 -1.3270  0.3556 -0.7383
  757MOL0     C 2126   7.287  10.380   9.595 -0.2605 -0.2484  0.0900
  757MOL0     C 2127   7.356  10.436   9.474  0.1284  0.2774 -0.1620
  757MOL0     H 2128   6.701  10.430   9.380  0.0896  1.0614 -2.3663
  757MOL0     H 2129   6.570  10.343   9.213  1.2297  1.6243 -2.4227
  757MOL0     H 2130   6.410  10.079   9.004 -1.8993  2.2218 -1.9428
  757MOL0     H 2131   6.477  10.236   9.035 -5.4382 -1.2966 -1.0961
  757MOL0     H 2132   6.577  10.020   8.856 -1.0406  0.4684 -1.4202
  757MOL0     H 2133   6.663  10.180   8.881 -0.4803  2.3080 -2.3714
  757MOL0     H 2134   6.417  10.283   8.805 -0.4616 -0.7644  0.7491
  757MOL0     H 2135   6.405  10.113   8.747  2.5721 -1.2975  2.5666
  757MOL0     H 2136   6.624  10.322   8.693  0.9423 -1.2228  2.0758
  757MOL0     H 2137   6.630  10.157   8.657  0.0981 -0.2557  3.1886
  757MOL0     H 2138   6.432  10.371   8.547 -0.3704 -0.6539 -0.9950
  757MOL0     H 2139   6.557  10.312   8.450  0.3485 -1.5687  0.5511
  757MOL0     H 2140   6.422  10.083   8.518 -0.6475 -1.5009 -1.0462
  757MOL0     H 2141   6.280  10.192   8.528 -0.4155 -1.2940 -0.5685
  757MOL0     H 2142   6.290  10.104   8.312  1.5859 -0.3637  0.6455
  757MOL0     H 2143   6.460  10.137   8.299  0.6230 -0.3793  2.4422
  757MOL0     H 2144   6.226  10.331   8.302  0.0004 -0.3883  0.7970
  757MOL0     H 2145   6.401  10.380   8.307 -1.7829  1.0249  0.9799
  757MOL0     H 2146   6.184  10.139   8.078 -3.7500  4.3238 -1.2829
  757MOL0     H 2147   6.204  10.099   7.811 -0.0708  0.7723  0.7274
  757MOL0     H 2148   6.349  10.136   7.719  0.7821 -0.5963  0.1350
  757MOL0     H 2149   6.451   9.951   7.890 -0.5002  2.5283  2.1273
  757MOL0     H 2150   6.288   9.913   7.923 -4.1274 -0.8974 -2.1688
  757MOL0     H 2151   6.404   9.779   7.739  2.6723  1.0887  0.0457
  757MOL0     H 2152   6.384   9.914   7.638  2.7957 -2.3029  0.8830
  757MOL0     H 2153   6.164   9.753   7.794  1.3003 -0.4135  0.7204
  757MOL0     H 2154   6.197   9.723   7.628 -0.2159  1.1103 -0.7148
  757MOL0     H 2155   5.935  10.073   7.562  2.0195 -1.9953  2.5034
  757MOL0     H 2156   5.756  10.037   7.388 -1.1601  1.3701  3.5228
  757MOL0     H 2157   5.415  10.094   7.315 -0.9609  2.0757 -1.9940
  757MOL0     H 2158   5.216  10.133   7.178 -3.9600 -1.4904  1.4236
  757MOL0     H 2159   5.059   9.812   6.912  2.4153  0.9855  0.4545
  757MOL0     H 2160   4.986   9.797   7.077  3.2119  1.4766  1.2692
  757MOL0     H 2161   4.906   9.997   6.857  1.5281 -1.6108 -1.8171
  757MOL0     H 2162   4.823   9.839   6.867 -2.5015  0.8111  2.0333
  757MOL0     H 2163   4.796   9.953   7.125  0.0642  1.5463 -0.1575
  757MOL0     H 2164   4.788  10.097   7.025  0.9463  0.0314 -0.7231
  757MOL0     H 2165   4.629   9.844   6.972  3.7803 -0.3470 -0.9227
  757MOL0     H 2166   4.622   9.980   6.864 -0.4622  2.8233  0.6033
  757MOL0     H 2167   4.533  10.121   7.069 -2.2252  0.8744 -0.3609
  757MOL0     H 2168   4.543   9.975   7.157  3.5388  4.6705  1.7139
  757MOL0     H 2169   4.348  10.063   6.938 -4.9278 -1.4164 -0.5831
  757MOL0     H 2170   4.368   9.885   6.962 -0.5180 -1.7782  2.3790
  757MOL0     H 2171   4.330   9.946   7.212 -0.8705 -0.9961 -0.1077
  757MOL0     H 2172   4.202   9.918   7.120 -0.0337 -0.1745  2.7834
  757MOL0     H 2173   4.325  10.190   7.213 -0.3118  2.0333 -0.5257
  757MOL0     H 2174   4.213  10.195   7.080  1.6056 -2.7174 -2.3133
  757MOL0     H 2175   5.198   9.722   7.056  0.9221 -1.3304  0.2542
  757MOL0     H 2176   5.420   9.678   7.172 -0.7761 -0.3472 -1.6735
  757MOL0     H 2177   5.820   9.616   7.454 -1.5488  0.7897  1.2013
  757MOL0     H 2178   6.017   9.658   7.586  1.9354  2.4562  1.3562
  757MOL0     H 2179   6.809   9.980   9.203  0.7252 -0.8916  2.9796
  757MOL0     H 2180   6.957  10.079   9.376  0.4376  0.7289  1.3680
  757MOL0     H 2181   6.984  10.315   9.737 -0.2206 -0.9246  0.3525
  757MOL0     H 2182   7.125  10.292   9.924 -0.0753 -3.6836 -1.8667
  757MOL0     H 2183   7.517  10.479   9.908 -2.3123 -0.7764  0.0760
  757MOL0     H 2184   7.553  10.312   9.889  1.9234  0.7984  0.0868
  757MOL0     H 2185   7.523  10.343  10.188  2.3577  1.0934  3.5679
  757MOL0     H 2186   7.594  10.485  10.129 -0.4015 -0.2566 -0.5750
  757MOL0     H 2187   7.771  10.386  10.029 -0.1353  1.2265  1.3287
  757MOL0     H 2188   7.695  10.223  10.035  1.5927  0.3787 -1.6359
  757MOL0     H 2189   7.702  10.302  10.322  0.6025  0.5074  1.8585
  757MOL0     H 2190   7.825  10.205  10.253  0.7877  0.5766  1.4597
  757MOL0     H 2191   8.042  10.545  10.312 -0.9831 -0.2942  2.7477
  757MOL0     H 2192   7.467  10.397   9.703 -0.8775 -0.5475  1.7882
  757MOL0     H 2193   7.292  10.515   9.433 -0.3210 -0.7727 -1.5679
  757MOL0     H 2194   7.460  10.453   9.501  0.2445  0.3319 -0.6466
  757MOL0     H 2195   7.368  10.360   9.397  2.1266  0.8945 -0.5102
  758MOL0     O 2196   3.727   5.459   9.885 -0.3062 -0.2221  0.2617
  758MOL0     C 2197   3.742   5.534   9.789 -1.4767 -0.9712 -0.4396
  758MOL0     O 2198   3.682   5.656   9.781 -0.5816  0.1714 -0.0140
  758MOL0     C 2199   3.620   5.719   9.893  0.0022 -0.2545 -0.3135
  758MOL0     C 2200   3.541   5.667   9.987  0.2570  0.8391 -0.3849
  758MOL0     C 2201   3.485   5.754  10.089 -0.4409 -0.1619 -0.4065
  758MOL0     C 2202   3.527   5.885  10.094 -0.3853 -0.9949 -0.8688
  758MOL0     O 2203   3.486   5.973  10.195  0.7248 -0.7629 -0.6324
  758MOL0     C 2204   3.525   5.937  10.332 -0.1733 -0.4170 -0.1621
  758MOL0     C 2205   3.549   6.058  10.415  0.3799  0.2529  0.8117
  758MOL0     C 2206   3.460   6.176  10.383  0.2115  0.3623  0.9829
  758MOL0     C 2207   3.461   6.265  10.509 -0.3868 -0.3197  0.4031
  758MOL0     C 2208   3.478   6.415  10.491 -0.7378  0.3761  0.2786
  758MOL0     C 2209   3.489   6.492  10.623 -0.1784  0.3352 -0.3222
  758MOL0     C 2210   3.495   6.644  10.617  0.2006 -0.1899  0.4423
  758MOL0     C 2211   3.458   6.708  10.751  0.6065 -0.4408 -0.0691
  758MOL0     N 2212   3.572   6.694  10.839 -0.2829 -0.4746  0.1308
  758MOL0     C 2213   3.547   6.649  10.960  0.9650  0.0892 -0.7657
  758MOL0     C 2214   3.641   6.689  11.047  0.1175 -0.9851  0.1149
  758MOL0     C 2215   3.642   6.656  11.194 -0.5785 -0.8872  1.0143
  758MOL0     C 2216   3.740   6.548  11.247 -0.0251 -0.4420 -0.3366
  758MOL0     C 2217   3.705   6.405  11.209  0.3765 -0.9336  0.1994
  758MOL0     C 2218   3.796   6.306  11.272 -0.1458  0.6654  0.3749
  758MOL0     O 2219   3.931   6.339  11.251 -0.4932  0.6189 -0.0881
  758MOL0     C 2220   4.002   6.287  11.143 -0.9537 -0.7197  0.2224
  758MOL0     C 2221   4.143   6.315  11.150  0.1349  1.1422  0.4361
  758MOL0     C 2222   4.220   6.257  11.054 -1.1306  0.3624 -1.8144
  758MOL0     C 2223   4.166   6.166  10.951  0.6845 -0.5628 -0.4068
  758MOL0     C 2224   4.252   6.105  10.855 -0.0771 -0.1828  0.2142
  758MOL0     O 2225   4.196   6.053  10.740 -0.2614  0.1138  0.1936
  758MOL0     C 2226   4.273   5.995  10.643  0.5310  0.0914  0.3742
  758MOL0     C 2227   4.355   6.072  10.560  0.3964 -0.0674  0.5356
  758MOL0     C 2228   4.440   6.009  10.464  0.8197  0.5926 -0.5971
  758MOL0     C 2229   4.445   5.871  10.460 -0.4866  0.1783 -0.4559
  758MOL0     O 2230   4.521   5.817  10.364 -0.0785  0.0830 -0.3657
  758MOL0     C 2231   4.584   5.686  10.383  0.4284  0.0955  0.4010
  758MOL0     C 2232   4.592   5.619  10.249 -0.2510 -0.9193  1.2126
  758MOL0     C 2233   4.681   5.498  10.251 -0.2412 -0.4703  1.1368
  758MOL0     C 2234   4.711   5.473  10.111 -0.4657 -0.5283  0.4703
  758MOL0     C 2235   4.797   5.343  10.100 -0.1880 -0.6648  0.0817
  758MOL0     C 2236   4.849   5.322   9.964 -0.7155  1.1653  1.0829
  758MOL0     C 2237   4.948   5.210   9.967 -0.3577 -0.0263  0.5596
  758MOL0     C 2238   5.034   5.199   9.843 -0.7913 -0.5861 -0.5050
  758MOL0    Cl 2239   4.948   5.114   9.699  0.4207  0.0846 -0.0100
  758MOL0     C 2240   4.361   5.794  10.541  0.2807  0.0430 -0.3302
  758MOL0     C 2241   4.281   5.856  10.636  0.9534 -0.2137  1.5098
  758MOL0     O 2242   4.368   6.093  10.881 -0.9746  0.0334 -0.6176
  758MOL0     C 2243   4.032   6.138  10.962 -0.9128 -0.9139  0.7224
  758MOL0     C 2244   3.956   6.211  11.049  0.0156  0.6218 -0.0982
  758MOL0     N 2245   3.726   6.771  10.972  0.4691 -0.3605 -0.0017
  758MOL0     N 2246   3.682   6.772  10.849 -0.5781  0.7066 -0.5574
  758MOL0     C 2247   3.624   5.938  10.004  0.0912 -0.2001  0.1123
  758MOL0     C 2248   3.666   5.855   9.903  0.8893  0.1471  0.4434
  758MOL0     C 2249   3.837   5.510   9.682 -0.5750  0.2079  0.5116
  758MOL0     C 2250   3.852   5.596   9.573 -0.5971 -0.3367  0.1456
  758MOL0     C 2251   3.941   5.571   9.466 -0.0897  0.2949 -1.0647
  758MOL0     C 2252   4.009   5.453   9.464 -0.3484 -0.7871 -0.6632
  758MOL0     O 2253   4.085   5.424   9.353 -0.5326  0.2247  0.0815
  758MOL0     C 2254   4.208   5.349   9.378 -0.3452  0.7274 -0.5366
  758MOL0     C 2255   4.333   5.420   9.324 -0.7261 -0.6832  0.1234
  758MOL0     C 2256   4.303   5.443   9.183 -0.1046 -0.0006  0.4403
  758MOL0     C 2257   4.429   5.502   9.119  0.7364  0.5258 -0.1350
  758MOL0     C 2258   4.422   5.646   9.089  0.2428 -0.4414  0.8888
  758MOL0     C 2259   4.423   5.772   9.085  0.3590  0.0225  0.1419
  758MOL0     C 2260   3.990   5.365   9.579 -0.8057 -0.5858  0.3520
  758MOL0     C 2261   3.916   5.395   9.690  0.2757  0.4581 -0.1953
  758MOL0     C 2262   3.928   5.298   9.805 -0.7541 -0.7921 -0.4845
  758MOL0     H 2263   3.518   5.561   9.978  1.7803  0.4956 -0.5952
  758MOL0     H 2264   3.425   5.714  10.171  2.5520 -1.4178  1.3311
  758MOL0     H 2265   3.443   5.887  10.384 -2.5228  3.6103  0.3862
  758MOL0     H 2266   3.619   5.881  10.323  0.2247  0.1068  0.5873
  758MOL0     H 2267   3.653   6.088  10.399  0.6778 -1.7257 -1.3650
  758MOL0     H 2268   3.531   6.031  10.520  2.2998 -2.4752  0.5391
  758MOL0     H 2269   3.361   6.134  10.364 -0.8909  1.0720  4.5135
  758MOL0     H 2270   3.492   6.245  10.304 -2.7624  0.4440 -0.2993
  758MOL0     H 2271   3.359   6.254  10.547 -1.9885  0.8836 -3.1071
  758MOL0     H 2272   3.535   6.228  10.582  1.9233 -0.8227 -2.0249
  758MOL0     H 2273   3.569   6.428  10.431 -0.6511  0.4404  0.4229
  758MOL0     H 2274   3.397   6.460  10.434  0.3556 -2.2197 -3.7732
  758MOL0     H 2275   3.400   6.467  10.681  1.2469  0.9877  2.3275
  758MOL0     H 2276   3.558   6.439  10.690 -2.1333  1.2889  2.6196
  758MOL0     H 2277   3.426   6.689  10.544  1.8026  0.9321 -0.4570
  758MOL0     H 2278   3.592   6.678  10.579  0.3218  0.3800  1.2445
  758MOL0     H 2279   3.447   6.816  10.736  4.1029 -0.0431 -0.5946
  758MOL0     H 2280   3.375   6.649  10.790 -0.1031 -0.3272 -1.3547
  758MOL0     H 2281   3.466   6.585  10.991  2.4585 -1.0798  0.9618
  758MOL0     H 2282   3.658   6.752  11.245  0.4589  0.1855 -1.2046
  758MOL0     H 2283   3.538   6.634  11.220 -0.6201 -0.6674  1.0415
  758MOL0     H 2284   3.835   6.573  11.201 -0.2914  2.0512  0.3355
  758MOL0     H 2285   3.752   6.554  11.356  0.4471  0.7070 -0.4415
  758MOL0     H 2286   3.707   6.403  11.099  2.2647 -0.8055  0.2008
  758MOL0     H 2287   3.604   6.382  11.244  0.3035 -0.2523  0.4570
  758MOL0     H 2288   3.774   6.207  11.230  1.7041  0.3433  0.0769
  758MOL0     H 2289   3.780   6.313  11.380  3.4269  3.2963  0.9176
  758MOL0     H 2290   4.168   6.381  11.233 -2.8772  0.9250  1.6313
  758MOL0     H 2291   4.325   6.278  11.036 -1.1070 -0.3986 -2.6348
  758MOL0     H 2292   4.343   6.179  10.569  1.9498  0.1275  0.7058
  758MOL0     H 2293   4.483   6.066  10.382 -1.8367  2.6324 -0.7027
  758MOL0     H 2294   4.687   5.704  10.413  1.2354 -2.4874 -0.5053
  758MOL0     H 2295   4.544   5.618  10.459  0.7466 -0.5103  0.0358
  758MOL0     H 2296   4.489   5.594  10.223 -0.5991  0.5041  1.1394
  758MOL0     H 2297   4.619   5.700  10.180  0.7351 -3.4843 -1.6177
  758MOL0     H 2298   4.773   5.525  10.303 -0.4407  3.0773 -0.1249
  758MOL0     H 2299   4.644   5.409  10.303  0.8448 -2.0333 -0.6458
  758MOL0     H 2300   4.762   5.559  10.067 -0.5897 -1.7614 -2.2538
  758MOL0     H 2301   4.626   5.464  10.043  1.3073 -0.1915 -1.9141
  758MOL0     H 2302   4.733   5.259  10.128  1.5495 -1.6967  1.1121
  758MOL0     H 2303   4.880   5.345  10.172  1.0510  3.2711 -1.1602
  758MOL0     H 2304   4.773   5.300   9.888  0.2206  0.2907  0.3728
  758MOL0     H 2305   4.906   5.412   9.939 -0.4814  1.0365  1.1502
  758MOL0     H 2306   4.896   5.115   9.979  1.4200 -1.4646 -2.1802
  758MOL0     H 2307   5.006   5.214  10.061 -1.3396 -0.8417  1.2161
  758MOL0     H 2308   5.071   5.298   9.815  0.0576 -0.7999 -0.1632
  758MOL0     H 2309   5.123   5.140   9.866 -0.8589  0.6385  3.7184
  758MOL0     H 2310   4.340   5.688  10.546 -0.6478  0.2606  1.3774
  758MOL0     H 2311   4.212   5.807  10.704 -1.8725  0.0672 -0.9127
  758MOL0     H 2312   3.990   6.066  10.893  2.9474 -0.1293 -2.8122
  758MOL0     H 2313   3.850   6.205  11.026 -0.0966 -4.8750  0.5276
  758MOL0     H 2314   3.651   6.043  10.011 -0.7448  0.1371 -1.3945
  758MOL0     H 2315   3.740   5.886   9.829  0.1682 -0.0386 -0.3667
  758MOL0     H 2316   3.805   5.694   9.579 -1.7313 -0.9464  3.9109
  758MOL0     H 2317   3.948   5.643   9.385  0.0330  2.1676  0.5173
  758MOL0     H 2318   4.208   5.249   9.332 -1.8312  1.4095 -2.1406
  758MOL0     H 2319   4.227   5.328   9.483 -0.5147 -0.2709 -0.6855
  758MOL0     H 2320   4.418   5.353   9.335  1.0041  1.5182  0.8631
  758MOL0     H 2321   4.348   5.506   9.389 -2.8177  0.8933 -1.3055
  758MOL0     H 2322   4.218   5.512   9.173  3.0036  4.1191 -0.4056
  758MOL0     H 2323   4.262   5.366   9.118 -1.0239  2.0328 -1.5329
  758MOL0     H 2324   4.517   5.494   9.183 -0.0356 -3.6301  0.6675
  758MOL0     H 2325   4.453   5.442   9.030 -2.1638 -0.5963 -0.2774
  758MOL0     H 2326   4.433   5.878   9.088 -2.0844  0.2985  0.4396
  758MOL0     H 2327   4.037   5.268   9.567  2.1775  0.7692  0.1324
  758MOL0     H 2328   3.835   5.256   9.845  0.3260 -1.5006  1.3998
  758MOL0     H 2329   4.001   5.218   9.788  0.7792  0.2989  0.6256
  758MOL0     H 2330   3.979   5.354   9.885  0.3594 -0.2547 -1.5483
  759MOL0     O 2331   1.242   6.976   8.894 -0.5637 -0.1665 -0.2851
  759MOL0     C 2332   1.180   6.878   8.855  0.4277 -0.6535  0.5965
  759MOL0     O 2333   1.063   6.883   8.788  0.3085 -0.8336  0.1600
  759MOL0     C 2334   0.970   6.988   8.779 -0.2993  1.2058  0.2281
  759MOL0     C 2335   0.983   7.109   8.848 -0.1549 -0.1574 -0.4830
  759MOL0     C 2336   0.886   7.214   8.840 -0.9687  0.5770  0.4293
  759MOL0     C 2337   0.764   7.199   8.778  1.2695  0.4381 -0.8705
  759MOL0     O 2338   0.669   7.292   8.813  0.2093  0.0262  0.0390
  759MOL0     C 2339   0.548   7.302   8.741  0.0942  0.0254 -0.2828
  759MOL0     C 2340   0.466   7.418   8.791  0.6271 -0.2025 -0.1692
  759MOL0     C 2341   0.348   7.453   8.708 -0.0062  0.2610  0.0222
  759MOL0     C 2342   0.237   7.340   8.684  0.9019  0.0499 -0.8721
  759MOL0     C 2343   0.146   7.345   8.560 -0.1329 -0.0008 -0.5984
  759MOL0     C 2344   0.222   7.313   8.432  0.3263 -0.7212  0.2306
  759MOL0     C 2345   0.285   7.170   8.419  0.1254 -0.3742  0.4974
  759MOL0     C 2346   0.356   7.146   8.291  0.2578 -0.4104  0.7422
  759MOL0     N 2347   0.252   7.137   8.184 -0.0897  0.5796 -0.1182
  759MOL0     C 2348   0.165   7.034   8.160 -0.6247 -0.0931 -0.5143
  759MOL0     C 2349   0.085   7.089   8.071  0.5386 -0.4664 -0.4090
  759MOL0     C 2350  -0.038   7.015   8.033 -1.0490  0.7462  0.3051
  759MOL0     C 2351  -0.032   6.879   7.955 -0.6775 -0.5842 -0.2437
  759MOL0     C 2352  -0.159   6.810   7.927 -0.0164  0.7669 -0.7817
  759MOL0     C 2353  -0.278   6.889   7.867  0.1687  0.5843 -0.2047
  759MOL0     O 2354  -0.383   6.789   7.864 -0.2542 -0.0518  0.2574
  759MOL0     C 2355  -0.386   6.700   7.749 -0.3896 -0.1858  0.5803
  759MOL0     C 2356  -0.504   6.633   7.718 -0.6522  0.1318 -0.0408
  759MOL0     C 2357  -0.525   6.577   7.589 -0.5149 -0.5829 -0.1739
  759MOL0     C 2358  -0.437   6.595   7.488  1.0594  1.4162  0.4978
  759MOL0     C 2359  -0.469   6.567   7.351  0.2323  0.2543  0.1514
  759MOL0     O 2360  -0.609   6.545   7.330  0.0994  0.1479 -0.8272
  759MOL0     C 2361  -0.671   6.571   7.213  0.3271  0.6098  0.4430
  759MOL0     C 2362  -0.808   6.581   7.221  0.7987 -0.8296 -0.5471
  759MOL0     C 2363  -0.888   6.611   7.114 -0.1505 -0.4816 -0.3151
  759MOL0     C 2364  -0.825   6.624   6.988  0.1196  0.0236 -1.3632
  759MOL0     O 2365  -0.897   6.658   6.876  0.4213  0.4050 -0.3622
  759MOL0     C 2366  -1.039   6.657   6.870 -0.1979 -0.0975 -0.0254
  759MOL0     C 2367  -1.087   6.704   6.730  0.7464 -0.5022 -0.0587
  759MOL0     C 2368  -1.244   6.715   6.710 -1.3008  1.1442  0.3352
  759MOL0     C 2369  -1.309   6.782   6.833  0.1541  0.5109  0.0785
  759MOL0     C 2370  -1.451   6.802   6.804 -0.0556  0.2610  0.9089
  759MOL0     C 2371  -1.525   6.909   6.893 -0.2151  0.7489 -0.0578
  759MOL0     C 2372  -1.529   6.873   7.042  0.0802  0.2358  0.5576
  759MOL0     C 2373  -1.633   6.759   7.067 -0.0654  0.2421  0.4545
  759MOL0    Cl 2374  -1.785   6.782   6.987 -0.0132 -0.2047  0.0137
  759MOL0     C 2375  -0.686   6.625   6.984 -0.2490 -0.7108 -0.3233
  759MOL0     C 2376  -0.609   6.591   7.095  0.9612 -0.0311  0.9896
  759MOL0     O 2377  -0.379   6.573   7.265  0.2039 -0.4096  0.5874
  759MOL0     C 2378  -0.317   6.650   7.509 -1.0666 -0.5478 -0.4625
  759MOL0     C 2379  -0.291   6.709   7.640  0.2931 -0.4502 -0.8186
  759MOL0     N 2380   0.114   7.223   8.040  0.8829 -0.0510  0.4979
  759MOL0     N 2381   0.216   7.249   8.115  0.4474 -0.7978 -0.4045
  759MOL0     C 2382   0.744   7.069   8.712 -0.0613  0.5538 -0.0367
  759MOL0     C 2383   0.846   6.965   8.706  0.1387 -0.5033 -0.3214
  759MOL0     C 2384   1.239   6.751   8.878 -0.8684  0.6280  1.5524
  759MOL0     C 2385   1.201   6.639   8.793 -0.5138 -0.9029 -0.0477
  759MOL0     C 2386   1.235   6.511   8.795 -0.6960  0.1610 -0.1028
  759MOL0     C 2387   1.338   6.475   8.888  0.1534 -0.1710  1.1640
  759MOL0     O 2388   1.371   6.334   8.893  0.5794  0.0022  0.1475
  759MOL0     C 2389   1.476   6.294   8.975  0.0957 -1.1429 -0.5595
  759MOL0     C 2390   1.599   6.290   8.888 -0.2105  0.3945 -0.2594
  759MOL0     C 2391   1.626   6.143   8.846 -0.0685 -0.1418 -0.7430
  759MOL0     C 2392   1.536   6.111   8.733  0.1888  0.7372 -1.6295
  759MOL0     C 2393   1.541   5.960   8.721 -0.0308 -0.3526 -0.0249
  759MOL0     C 2394   1.529   5.845   8.687 -1.5853  0.7664 -0.2302
  759MOL0     C 2395   1.386   6.583   8.969  0.1147  0.1061  0.6306
  759MOL0     C 2396   1.328   6.713   8.978 -0.5770  0.7988  1.0135
  759MOL0     C 2397   1.377   6.790   9.088 -0.1617 -0.2195  0.0884
  759MOL0     H 2398   1.072   7.132   8.904 -0.3684  0.1981 -0.2846
  759MOL0     H 2399   0.916   7.306   8.887  1.2829 -1.9597  4.5442
  759MOL0     H 2400   0.570   7.331   8.638 -2.4193 -2.3198 -1.6145
  759MOL0     H 2401   0.495   7.207   8.734  0.1199 -0.0669  0.6857
  759MOL0     H 2402   0.530   7.506   8.801 -0.4127  0.6718 -1.0700
  759MOL0     H 2403   0.432   7.405   8.895  0.1104 -0.1996 -0.3355
  759MOL0     H 2404   0.391   7.478   8.610 -2.2766 -1.1583 -1.4525
  759MOL0     H 2405   0.316   7.537   8.770 -1.4668 -0.7083  0.6406
  759MOL0     H 2406   0.277   7.238   8.684 -3.2843 -1.9864  3.7032
  759MOL0     H 2407   0.174   7.327   8.772  0.2034  0.0419 -1.3660
  759MOL0     H 2408   0.063   7.275   8.561 -2.1348  2.1336  2.4993
  759MOL0     H 2409   0.107   7.447   8.552 -1.1825 -0.5355 -5.3003
  759MOL0     H 2410   0.144   7.324   8.356 -1.9958  2.9548  2.8071
  759MOL0     H 2411   0.294   7.392   8.411 -0.8936 -0.1152 -2.0796
  759MOL0     H 2412   0.214   7.088   8.429  1.3346 -1.3120  1.7819
  759MOL0     H 2413   0.352   7.144   8.502  1.0606 -2.3769 -0.8102
  759MOL0     H 2414   0.421   7.230   8.264 -0.6558  0.5033  1.3043
  759MOL0     H 2415   0.411   7.052   8.298 -0.2523 -0.7017  0.8720
  759MOL0     H 2416   0.152   6.944   8.220  0.6663  1.0059  1.5375
  759MOL0     H 2417  -0.087   6.990   8.127  0.5901  0.7698  1.2025
  759MOL0     H 2418  -0.101   7.089   7.982 -3.4973  0.9352  3.3479
  759MOL0     H 2419   0.019   6.912   7.864  0.8277 -0.5599  0.5860
  759MOL0     H 2420   0.031   6.808   8.010  2.2022  0.5682 -1.8494
  759MOL0     H 2421  -0.199   6.765   8.019 -1.6822  0.8644 -1.4108
  759MOL0     H 2422  -0.125   6.732   7.858  1.2200  2.0225 -1.6315
  759MOL0     H 2423  -0.245   6.929   7.771 -2.6086 -0.6436 -1.8148
  759MOL0     H 2424  -0.306   6.963   7.942 -4.7362 -0.0105 -1.1295
  759MOL0     H 2425  -0.573   6.617   7.800 -1.0713  1.1389 -0.1761
  759MOL0     H 2426  -0.619   6.526   7.571 -1.8622  1.8761 -0.6279
  759MOL0     H 2427  -0.865   6.563   7.311 -0.8896 -2.4857 -1.8742
  759MOL0     H 2428  -0.996   6.617   7.120 -0.0342  0.2854  1.9632
  759MOL0     H 2429  -1.081   6.557   6.884 -0.4914  0.4063  3.5887
  759MOL0     H 2430  -1.072   6.716   6.956  2.8119  0.7939  0.6271
  759MOL0     H 2431  -1.036   6.800   6.719  1.9433 -1.2422 -1.4395
  759MOL0     H 2432  -1.051   6.629   6.658 -4.1850 -2.2343 -1.0951
  759MOL0     H 2433  -1.260   6.778   6.622 -3.0479  1.5773  0.9214
  759MOL0     H 2434  -1.292   6.620   6.683 -5.2758  2.6730  1.3816
  759MOL0     H 2435  -1.273   6.884   6.846  0.8350  0.1004  1.7679
  759MOL0     H 2436  -1.289   6.730   6.928  2.6547 -1.2670 -1.2770
  759MOL0     H 2437  -1.509   6.709   6.815 -2.1757  1.4834  0.6861
  759MOL0     H 2438  -1.466   6.826   6.699  0.7288  0.4618  0.8389
  759MOL0     H 2439  -1.475   7.005   6.880  1.7265 -0.1545  0.4586
  759MOL0     H 2440  -1.623   6.939   6.854 -0.4408  0.9756  0.6591
  759MOL0     H 2441  -1.556   6.968   7.087 -0.5402  1.2844 -1.8637
  759MOL0     H 2442  -1.431   6.847   7.083  1.0699  1.3033 -1.0138
  759MOL0     H 2443  -1.589   6.666   7.029  0.1313  0.7272 -0.5297
  759MOL0     H 2444  -1.636   6.762   7.177  0.9721  1.1098  0.4759
  759MOL0     H 2445  -0.631   6.648   6.893 -0.5170 -3.9373 -1.4519
  759MOL0     H 2446  -0.503   6.601   7.079  0.3683  2.0491 -2.7597
  759MOL0     H 2447  -0.236   6.660   7.438  1.0208 -0.5589  1.7873
  759MOL0     H 2448  -0.197   6.764   7.643  0.9934 -1.5341 -1.5569
  759MOL0     H 2449   0.642   7.041   8.689  0.9016 -3.1526 -0.4158
  759MOL0     H 2450   0.821   6.869   8.662 -0.7892  0.3336 -1.6904
  759MOL0     H 2451   1.116   6.653   8.727 -2.1603 -1.4400  1.8588
  759MOL0     H 2452   1.191   6.445   8.721 -1.7295  1.6599 -0.8570
  759MOL0     H 2453   1.433   6.205   9.022 -3.0634  0.6669  0.2506
  759MOL0     H 2454   1.495   6.353   9.066 -0.6602  2.2349 -2.4344
  759MOL0     H 2455   1.680   6.326   8.952 -0.8920  1.3076  0.1091
  759MOL0     H 2456   1.597   6.371   8.815 -0.3282  0.2541 -0.4138
  759MOL0     H 2457   1.610   6.070   8.926  1.4125 -2.1118 -2.1317
  759MOL0     H 2458   1.726   6.132   8.803  0.2106  3.2028 -1.2442
  759MOL0     H 2459   1.436   6.148   8.756  1.8739  3.9498  1.6221
  759MOL0     H 2460   1.559   6.165   8.641 -4.4423  5.5523 -0.4604
  759MOL0     H 2461   1.505   5.746   8.651  0.3552  0.8226 -1.8385
  759MOL0     H 2462   1.456   6.559   9.048 -0.6687 -1.3094  0.9375
  759MOL0     H 2463   1.401   6.721   9.170  0.6586  0.1921  0.2090
  759MOL0     H 2464   1.455   6.865   9.068 -3.7429  4.0067  0.4717
  759MOL0     H 2465   1.292   6.847   9.125 -0.2820  0.0457 -0.5992
  760MOL0     O 2466   5.800   9.884  10.216 -0.5546 -0.1709  0.3094
  760MOL0     C 2467   5.904   9.861  10.156 -0.2364  0.2195 -0.2525
  760MOL0     O 2468   6.030   9.879  10.218 -0.7735  0.3423 -0.0572
  760MOL0     C 2469   6.037   9.970  10.320  0.0051  1.2244  0.0521
  760MOL0     C 2470   6.129  10.073  10.318 -0.2465 -0.3519  0.5894
  760MOL0     C 2471   6.150  10.169  10.417  0.1031 -0.2769 -0.0408
  760MOL0     C 2472   6.074  10.155  10.531 -0.6914  0.0492 -0.4774
  760MOL0     O 2473   6.090  10.233  10.640  0.1103 -0.6406  0.6504
  760MOL0     C 2474   6.121  10.365  10.635  1.1306 -0.7269  1.0945
  760MOL0     C 2475   6.134  10.425  10.770 -0.0184  0.1557 -0.7735
  760MOL0     C 2476   5.992  10.467  10.817 -0.5371 -1.2703 -0.5125
  760MOL0     C 2477   5.896  10.341  10.833 -0.1409 -0.2547  0.5627
  760MOL0     C 2478   5.760  10.352  10.900 -0.7294 -0.2839 -0.4295
  760MOL0     C 2479   5.677  10.238  10.894 -0.1649  0.1150 -1.2225
  760MOL0     C 2480   5.546  10.262  10.968 -0.2350  0.8765 -0.3409
  760MOL0     C 2481   5.472  10.125  10.996 -0.5745 -0.3874  0.0249
  760MOL0     N 2482   5.361  10.159  11.078  0.1203  0.6116  0.1114
  760MOL0     C 2483   5.371  10.153  11.211  0.0793  1.1091 -0.1005
  760MOL0     C 2484   5.240  10.185  11.253 -0.6874 -1.0807  0.9095
  760MOL0     C 2485   5.187  10.194  11.382 -0.0845 -0.6294 -0.2689
  760MOL0     C 2486   5.222  10.331  11.451 -0.2394  0.0435  0.8036
  760MOL0     C 2487   5.184  10.334  11.605 -0.3807  0.6733  0.1054
  760MOL0     C 2488   5.228  10.465  11.666  0.0592 -0.1737 -1.0069
  760MOL0     O 2489   5.177  10.494  11.795  0.4454 -0.4685  0.1423
  760MOL0     C 2490   5.203  10.411  11.903 -0.0401  0.5590 -0.4056
  760MOL0     C 2491   5.306  10.318  11.910  0.5757  0.1120  1.6219
  760MOL0     C 2492   5.315  10.232  12.017 -0.4107  0.2299 -0.4694
  760MOL0     C 2493   5.240  10.242  12.137  0.4739 -1.1542 -0.1109
  760MOL0     C 2494   5.252  10.165  12.258  0.6218  0.0442  0.2937
  760MOL0     O 2495   5.129  10.151  12.322 -0.0579  0.3148  0.4355
  760MOL0     C 2496   5.126  10.100  12.449 -0.2705  1.0267 -0.3168
  760MOL0     C 2497   5.229  10.122  12.541  0.1085 -0.5172  0.3248
  760MOL0     C 2498   5.223  10.059  12.668  0.2449  0.0902  1.3819
  760MOL0     C 2499   5.125   9.971  12.701  0.4800  1.0712 -0.3396
  760MOL0     O 2500   5.115   9.909  12.825 -0.5953  0.1331 -0.2599
  760MOL0     C 2501   5.233   9.859  12.899  0.1189 -0.2276 -0.5030
  760MOL0     C 2502   5.190   9.802  13.043 -1.5222 -0.6774 -0.7514
  760MOL0     C 2503   5.285   9.694  13.091  0.4436 -0.0659  0.1493
  760MOL0     C 2504   5.414   9.756  13.138 -0.0410  0.5384  0.7715
  760MOL0     C 2505   5.507   9.640  13.201  0.4930 -0.2033  0.2441
  760MOL0     C 2506   5.630   9.688  13.265 -0.1365  0.9056  0.3671
  760MOL0     C 2507   5.600   9.775  13.385 -0.6342 -0.4178 -1.3995
  760MOL0     C 2508   5.728   9.823  13.457 -0.3716  0.0818  0.2995
  760MOL0    Cl 2509   5.855   9.701  13.472 -0.1888  0.3140  0.3330
  760MOL0     C 2510   5.019   9.946  12.611 -0.5976  0.2883 -0.1009
  760MOL0     C 2511   5.009  10.021  12.489 -0.4884 -0.2106 -0.1167
  760MOL0     O 2512   5.359  10.116  12.287 -0.6055  0.0185 -0.5901
  760MOL0     C 2513   5.131  10.339  12.123  0.6469 -0.1389 -0.5584
  760MOL0     C 2514   5.112  10.420  12.010  0.2771  0.2907  0.7639
  760MOL0     N 2515   5.157  10.193  11.145  0.0628  0.5256  0.3227
  760MOL0     N 2516   5.232  10.156  11.044  0.6636 -0.0257 -0.3187
  760MOL0     C 2517   5.983  10.045  10.541  0.0882 -0.3020  0.8105
  760MOL0     C 2518   5.964   9.948  10.436 -0.1117 -0.9750  0.5176
  760MOL0     C 2519   5.902   9.781  10.032 -1.1359  0.3765  0.5228
  760MOL0     C 2520   5.991   9.676  10.026  0.0763 -1.0165  1.0065
  760MOL0     C 2521   5.988   9.584   9.924  0.3159  0.0475 -0.0724
  760MOL0     C 2522   5.898   9.590   9.820  0.2526 -0.0432  0.3848
  760MOL0     O 2523   5.884   9.483   9.733  1.0476 -0.1244  1.3311
  760MOL0     C 2524   5.759   9.442   9.684  0.7464 -0.3055 -0.6714
  760MOL0     C 2525   5.779   9.296   9.634 -0.2641  0.3634 -0.4107
  760MOL0     C 2526   5.747   9.189   9.748 -0.2103 -0.1697 -0.7406
  760MOL0     C 2527   5.789   9.041   9.713  0.2352  0.1305 -0.3234
  760MOL0     C 2528   5.845   8.951   9.817 -0.5239 -1.0611  0.4212
  760MOL0     C 2529   5.878   8.872   9.907  0.2230  0.5414  0.1242
  760MOL0     C 2530   5.807   9.694   9.833 -0.2959  0.2669  1.2601
  760MOL0     C 2531   5.814   9.794   9.921  0.6221 -0.4095 -0.6091
  760MOL0     C 2532   5.719   9.905   9.919 -0.4461 -0.5693 -1.1318
  760MOL0     H 2533   6.206  10.063  10.243  2.1595 -3.2858  3.1642
  760MOL0     H 2534   6.226  10.245  10.399 -0.5779  0.2029 -0.9986
  760MOL0     H 2535   6.209  10.383  10.573 -0.8013  0.4560 -1.4537
  760MOL0     H 2536   6.042  10.421  10.585  1.6077  2.4478  3.5656
  760MOL0     H 2537   6.193  10.517  10.764 -0.8044  0.7473  0.3152
  760MOL0     H 2538   6.181  10.358  10.843  0.4225  2.4836  1.2078
  760MOL0     H 2539   5.961  10.554  10.758 -1.5184 -0.8666  0.5575
  760MOL0     H 2540   5.997  10.521  10.912  0.1524  0.0795 -1.2806
  760MOL0     H 2541   5.882  10.312  10.729  0.0505  0.8178  0.2259
  760MOL0     H 2542   5.953  10.269  10.893  2.4093  2.4749  1.6642
  760MOL0     H 2543   5.774  10.386  11.003 -0.0863  0.5853 -0.7803
  760MOL0     H 2544   5.714  10.437  10.849  2.0343  0.2621 -2.2431
  760MOL0     H 2545   5.662  10.190  10.797  0.1906 -1.4745 -0.5165
  760MOL0     H 2546   5.732  10.162  10.950 -1.8655  1.5778  2.7715
  760MOL0     H 2547   5.491  10.339  10.914  1.0435  2.4591  0.5368
  760MOL0     H 2548   5.572  10.311  11.062 -0.5286 -0.9598  0.7567
  760MOL0     H 2549   5.440  10.083  10.900  2.4323 -3.2973  0.1191
  760MOL0     H 2550   5.546  10.056  11.039 -1.8615 -1.3618  0.7424
  760MOL0     H 2551   5.450  10.124  11.280 -2.6487  0.4338  3.0167
  760MOL0     H 2552   5.078  10.187  11.384 -0.2658  0.6329 -2.2516
  760MOL0     H 2553   5.229  10.101  11.420 -0.7194 -1.8393 -2.3436
  760MOL0     H 2554   5.330  10.351  11.447 -0.6215  2.9687  2.2063
  760MOL0     H 2555   5.168  10.414  11.404 -2.5693 -1.6308  0.3405
  760MOL0     H 2556   5.235  10.246  11.646 -1.0818 -0.3774 -1.2353
  760MOL0     H 2557   5.076  10.320  11.615 -0.2093  0.6761  2.8947
  760MOL0     H 2558   5.216  10.545  11.592 -0.6501 -1.4796 -2.3542
  760MOL0     H 2559   5.337  10.461  11.673  0.0992 -0.8732 -1.9257
  760MOL0     H 2560   5.381  10.315  11.831 -0.4836 -1.0851  0.6180
  760MOL0     H 2561   5.387  10.151  12.022 -2.3203 -1.5477  0.0037
  760MOL0     H 2562   5.320  10.179  12.527  1.7600 -2.4087  2.4354
  760MOL0     H 2563   5.304  10.096  12.730  1.0407  3.9674 -1.5942
  760MOL0     H 2564   5.272   9.792  12.822 -1.5164 -1.6450 -0.1474
  760MOL0     H 2565   5.305   9.941  12.901  1.1412 -1.0976  0.5779
  760MOL0     H 2566   5.191   9.891  13.107 -0.1008  0.0763 -1.7740
  760MOL0     H 2567   5.090   9.757  13.041 -2.4220  1.1878  0.1636
  760MOL0     H 2568   5.247   9.630  13.171  0.9343 -0.4136  0.1103
  760MOL0     H 2569   5.292   9.628  13.004 -0.6601  0.2424 -0.1857
  760MOL0     H 2570   5.397   9.841  13.205  2.4187  1.1548  0.7081
  760MOL0     H 2571   5.461   9.803  13.051  2.0393 -0.9385  1.0024
  760MOL0     H 2572   5.532   9.573  13.118  0.5008  2.0643 -1.6893
  760MOL0     H 2573   5.448   9.586  13.276  1.0674 -0.3725  0.5837
  760MOL0     H 2574   5.692   9.605  13.299  1.0788  1.8885  0.5899
  760MOL0     H 2575   5.699   9.737  13.195 -1.3735 -1.5270 -2.8247
  760MOL0     H 2576   5.549   9.707  13.453 -2.0154  0.8316 -1.1514
  760MOL0     H 2577   5.531   9.857  13.367  0.4088  0.9935  0.6075
  760MOL0     H 2578   5.770   9.911  13.407 -1.3346  1.2109  1.4052
  760MOL0     H 2579   5.715   9.870  13.555  2.3284  3.1825 -0.6445
  760MOL0     H 2580   4.940   9.873  12.620 -1.6142  1.1071 -1.9201
  760MOL0     H 2581   4.928  10.007  12.418 -0.0525  1.1086 -0.9167
  760MOL0     H 2582   5.064  10.353  12.208  0.5962 -1.1779 -0.4066
  760MOL0     H 2583   5.026  10.486  12.006  1.5920  2.1828  1.9844
  760MOL0     H 2584   5.919  10.035  10.628 -1.0693  0.8255  0.1275
  760MOL0     H 2585   5.895   9.864  10.436 -0.0168 -1.0568  0.7943
  760MOL0     H 2586   6.048   9.653  10.116 -1.2633 -3.0335  1.4036
  760MOL0     H 2587   6.056   9.500   9.937 -0.6902 -0.6423  0.9864
  760MOL0     H 2588   5.740   9.512   9.602  1.3027  2.1348  1.1880
  760MOL0     H 2589   5.679   9.448   9.757  3.0589 -1.1925  2.1220
  760MOL0     H 2590   5.880   9.280   9.596  0.1447 -1.0143  1.1303
  760MOL0     H 2591   5.707   9.267   9.557  2.2822 -1.6157 -2.2098
  760MOL0     H 2592   5.643   9.202   9.780 -0.9702 -1.1222 -2.6051
  760MOL0     H 2593   5.816   9.208   9.830 -0.4497 -0.3827 -0.4864
  760MOL0     H 2594   5.703   8.997   9.661  1.1905  0.0598 -1.9018
  760MOL0     H 2595   5.871   9.053   9.641 -0.6235 -0.5772 -1.4644
  760MOL0     H 2596   5.901   8.801   9.984  1.1856 -1.2954 -1.7440
  760MOL0     H 2597   5.716   9.700   9.774  1.3331 -2.2303 -1.8117
  760MOL0     H 2598   5.650   9.919   9.835 -0.0841  2.1923 -1.0561
  760MOL0     H 2599   5.661   9.899  10.011 -1.8376  2.9372 -1.6464
  760MOL0     H 2600   5.768  10.003   9.924 -1.5149 -0.0873  0.8915
  761MOL0     O 2601   5.001   3.372   9.584  0.1807 -0.1137  0.1008
  761MOL0     C 2602   4.883   3.383   9.544  0.7334  0.3372 -0.6387
  761MOL0     O 2603   4.849   3.467   9.440 -0.3415  0.5000  0.4611
  761MOL0     C 2604   4.938   3.556   9.383 -1.3242 -0.5796 -0.7195
  761MOL0     C 2605   5.027   3.632   9.455  0.4284  0.8296  0.0425
  761MOL0     C 2606   5.111   3.724   9.385  0.1503  0.3334 -0.7315
  761MOL0     C 2607   5.109   3.736   9.242  0.2408  0.3319 -0.0186
  761MOL0     O 2608   5.209   3.809   9.183 -0.2948  0.5137  0.4428
  761MOL0     C 2609   5.348   3.753   9.173  0.7931  0.7955 -0.5635
  761MOL0     C 2610   5.377   3.712   9.027 -0.1235 -0.1261  0.4415
  761MOL0     C 2611   5.341   3.569   8.999  0.0671  0.1761  0.0482
  761MOL0     C 2612   5.363   3.526   8.860 -0.4798 -0.9186 -0.2396
  761MOL0     C 2613   5.299   3.393   8.830 -0.0771  0.3854 -0.1406
  761MOL0     C 2614   5.325   3.360   8.684 -0.1257 -0.2517  0.4847
  761MOL0     C 2615   5.231   3.259   8.611  1.1239  0.0986  0.4576
  761MOL0     C 2616   5.124   3.343   8.532 -0.5448  0.0325 -0.4480
  761MOL0     N 2617   5.027   3.265   8.453  0.5951 -1.0389 -0.2937
  761MOL0     C 2618   4.929   3.169   8.488  0.8403 -0.5230 -0.0181
  761MOL0     C 2619   4.896   3.100   8.375 -0.1067 -1.2487  0.3915
  761MOL0     C 2620   4.811   2.978   8.370  0.4214 -0.6403  0.1963
  761MOL0     C 2621   4.881   2.854   8.432  0.2078  0.9472 -1.1679
  761MOL0     C 2622   5.021   2.811   8.371  0.1507 -0.0727 -0.6825
  761MOL0     C 2623   5.073   2.679   8.423  0.3807  0.4350  0.0190
  761MOL0     O 2624   4.971   2.577   8.403  0.2350  0.2944 -1.3673
  761MOL0     C 2625   5.012   2.451   8.436 -1.2560  0.7206  0.0074
  761MOL0     C 2626   5.133   2.414   8.506 -0.2553 -0.0582 -0.0002
  761MOL0     C 2627   5.164   2.279   8.521 -1.2784 -0.3821 -0.4754
  761MOL0     C 2628   5.087   2.176   8.470  0.8923 -0.1949  0.1089
  761MOL0     C 2629   5.118   2.031   8.467 -0.7020 -0.8879 -0.1564
  761MOL0     O 2630   5.032   1.948   8.414 -0.1965  0.7012  0.2145
  761MOL0     C 2631   5.048   1.812   8.395  0.4441 -0.6535  0.1830
  761MOL0     C 2632   5.115   1.741   8.493 -0.4964  0.0493 -0.3327
  761MOL0     C 2633   5.158   1.611   8.465  0.0281  0.6050  0.9047
  761MOL0     C 2634   5.134   1.551   8.337 -0.5834  0.6519 -0.2588
  761MOL0     O 2635   5.174   1.424   8.306 -0.5829 -0.0715 -0.3761
  761MOL0     C 2636   5.306   1.372   8.337 -0.4219  0.1683  0.0731
  761MOL0     C 2637   5.365   1.342   8.195 -0.2285 -0.1029  1.1085
  761MOL0     C 2638   5.465   1.226   8.201  1.1953  0.4671  0.5890
  761MOL0     C 2639   5.564   1.219   8.077 -0.5573 -0.4860  0.6062
  761MOL0     C 2640   5.497   1.230   7.939  0.2150  0.0055 -0.8964
  761MOL0     C 2641   5.577   1.162   7.827 -0.2955 -0.1718 -0.4349
  761MOL0     C 2642   5.709   1.221   7.796 -0.1960  0.2348 -0.7430
  761MOL0     C 2643   5.740   1.173   7.660 -0.6753  0.7111  0.1580
  761MOL0    Cl 2644   5.909   1.222   7.620 -0.1457 -0.2071  0.0993
  761MOL0     C 2645   5.046   1.614   8.251 -0.0675 -0.1197 -0.5182
  761MOL0     C 2646   5.007   1.749   8.276 -0.3522 -0.3683 -0.8272
  761MOL0     O 2647   5.239   2.011   8.484  0.6844  0.1538 -0.3188
  761MOL0     C 2648   4.956   2.212   8.420  0.1141  0.8563 -0.5875
  761MOL0     C 2649   4.925   2.352   8.409 -0.1815 -0.6980 -0.4285
  761MOL0     N 2650   4.966   3.160   8.274  0.1406  0.1487 -0.3237
  761MOL0     N 2651   5.034   3.258   8.320  0.1020 -0.5312 -0.7465
  761MOL0     C 2652   5.009   3.663   9.173 -0.4376 -0.2600 -0.5056
  761MOL0     C 2653   4.926   3.584   9.248  0.3822  0.5893  0.5829
  761MOL0     C 2654   4.777   3.292   9.601 -0.9197  0.3199 -0.3154
  761MOL0     C 2655   4.830   3.181   9.673 -0.2373 -0.1398 -1.0431
  761MOL0     C 2656   4.740   3.080   9.710  1.1465 -0.2587 -0.1335
  761MOL0     C 2657   4.605   3.084   9.694 -0.1509  0.9216  0.5623
  761MOL0     O 2658   4.545   2.969   9.742 -0.1353 -0.2782 -0.3485
  761MOL0     C 2659   4.405   2.972   9.726  1.4004 -1.0900 -0.8937
  761MOL0     C 2660   4.347   2.842   9.784 -0.4926 -0.0736 -0.5037
  761MOL0     C 2661   4.196   2.812   9.754  0.7076  0.9678  0.4384
  761MOL0     C 2662   4.117   2.739   9.858  1.0171 -0.1694  0.6585
  761MOL0     C 2663   3.967   2.747   9.825  0.0870 -0.0735 -0.4466
  761MOL0     C 2664   3.846   2.741   9.806  0.6570 -0.1792 -0.9224
  761MOL0     C 2665   4.548   3.199   9.624  1.1706  0.6229  0.1137
  761MOL0     C 2666   4.632   3.300   9.583 -1.1445  0.7158  0.4385
  761MOL0     C 2667   4.576   3.430   9.515 -0.1780  0.5265 -0.2867
  761MOL0     H 2668   5.036   3.605   9.560 -0.3964 -2.5501 -0.6573
  761MOL0     H 2669   5.177   3.782   9.448 -0.7284  0.4179  0.1516
  761MOL0     H 2670   5.407   3.841   9.201  1.1304  1.3478 -2.8242
  761MOL0     H 2671   5.371   3.673   9.243  1.0149  1.4323  0.1131
  761MOL0     H 2672   5.481   3.732   9.001 -0.6933  2.4220 -0.1555
  761MOL0     H 2673   5.319   3.781   8.964 -0.2651  4.0952  4.5593
  761MOL0     H 2674   5.233   3.557   9.009 -0.0772  0.3439 -1.1237
  761MOL0     H 2675   5.390   3.493   9.060 -0.5061  0.6980  1.1897
  761MOL0     H 2676   5.329   3.602   8.789  0.7781  1.2192  1.3078
  761MOL0     H 2677   5.470   3.525   8.835 -1.3033  0.6168 -4.9696
  761MOL0     H 2678   5.333   3.308   8.890 -1.5696  0.0009  0.2057
  761MOL0     H 2679   5.191   3.408   8.825  0.3078  4.0408  0.2972
  761MOL0     H 2680   5.339   3.451   8.625 -0.6812 -1.7591 -2.1100
  761MOL0     H 2681   5.426   3.318   8.689  0.8407  1.7466 -0.7795
  761MOL0     H 2682   5.192   3.194   8.689 -1.4389  1.6898  0.6137
  761MOL0     H 2683   5.291   3.205   8.537 -2.6752  0.0596 -2.9304
  761MOL0     H 2684   5.068   3.409   8.598  0.5855 -1.2496  1.9418
  761MOL0     H 2685   5.184   3.398   8.459 -3.4857  1.4423 -2.0018
  761MOL0     H 2686   4.895   3.139   8.587 -0.3588  1.9620  0.4153
  761MOL0     H 2687   4.715   3.006   8.413  0.8936  3.0280 -0.8679
  761MOL0     H 2688   4.782   2.950   8.269  0.0986 -1.8213  0.5941
  761MOL0     H 2689   4.894   2.885   8.536  4.2516 -0.6366 -1.0116
  761MOL0     H 2690   4.806   2.775   8.431  0.2609  0.6530  3.1703
  761MOL0     H 2691   5.089   2.895   8.391 -0.4666  0.7247 -1.7819
  761MOL0     H 2692   5.008   2.807   8.263  0.5451  3.4598 -0.9960
  761MOL0     H 2693   5.095   2.681   8.530 -0.2697 -3.4203  0.3554
  761MOL0     H 2694   5.169   2.648   8.380  0.5517  0.1163  0.6360
  761MOL0     H 2695   5.199   2.494   8.539 -3.7578  2.2292  2.1308
  761MOL0     H 2696   5.262   2.252   8.559 -0.6094  0.4278 -1.5570
  761MOL0     H 2697   5.138   1.799   8.582 -0.5855  0.2496 -0.4389
  761MOL0     H 2698   5.217   1.555   8.537  0.3531  0.0538  0.2174
  761MOL0     H 2699   5.360   1.444   8.398 -1.0871  1.9355 -1.3067
  761MOL0     H 2700   5.293   1.279   8.392  0.9478  1.4539  2.7249
  761MOL0     H 2701   5.288   1.319   8.121  0.7646 -2.1304  0.6477
  761MOL0     H 2702   5.426   1.425   8.156 -1.0981  0.2045  0.3597
  761MOL0     H 2703   5.526   1.217   8.292  0.0721 -0.4296  1.2841
  761MOL0     H 2704   5.399   1.139   8.205  0.1239  1.2884  4.2978
  761MOL0     H 2705   5.619   1.125   8.081 -0.6826 -0.8598 -2.9022
  761MOL0     H 2706   5.640   1.297   8.084  3.1981 -3.5884 -1.3954
  761MOL0     H 2707   5.484   1.334   7.907  0.4167 -0.8127 -3.9773
  761MOL0     H 2708   5.400   1.181   7.940 -0.7094  1.7198 -1.3603
  761MOL0     H 2709   5.586   1.061   7.869  1.0509 -1.4705 -3.5357
  761MOL0     H 2710   5.514   1.149   7.739  0.3250 -1.5575 -0.6998
  761MOL0     H 2711   5.783   1.184   7.868 -0.5831 -2.0658 -1.4311
  761MOL0     H 2712   5.698   1.330   7.801  0.5195  0.3865 -2.0547
  761MOL0     H 2713   5.743   1.064   7.655 -0.6727  0.6933  0.4992
  761MOL0     H 2714   5.672   1.195   7.577  0.6928 -0.9066 -1.4687
  761MOL0     H 2715   5.016   1.581   8.152  2.0365 -0.7879 -0.9685
  761MOL0     H 2716   4.945   1.805   8.206 -0.4054 -2.1037 -2.2347
  761MOL0     H 2717   4.883   2.142   8.380 -0.7791 -1.6934  4.6305
  761MOL0     H 2718   4.826   2.369   8.369  0.1246 -0.9352 -1.3086
  761MOL0     H 2719   5.000   3.651   9.066  1.4172 -2.5040 -0.4713
  761MOL0     H 2720   4.851   3.532   9.188  1.6761 -1.6762  0.8189
  761MOL0     H 2721   4.934   3.167   9.702 -0.4054  1.4677  0.5480
  761MOL0     H 2722   4.784   2.996   9.763 -0.6570 -0.0672  1.8156
  761MOL0     H 2723   4.374   2.992   9.623 -1.7853 -0.6694  0.0374
  761MOL0     H 2724   4.348   3.049   9.780 -0.7076 -1.8664 -1.8915
  761MOL0     H 2725   4.358   2.855   9.892  1.0199  0.4054 -0.6964
  761MOL0     H 2726   4.398   2.747   9.765 -3.6126 -2.6001  2.3326
  761MOL0     H 2727   4.181   2.763   9.657 -2.7510  0.4489  1.0993
  761MOL0     H 2728   4.141   2.907   9.746 -0.1575  0.6591  2.2887
  761MOL0     H 2729   4.147   2.637   9.884 -0.6609  0.1812  4.6986
  761MOL0     H 2730   4.129   2.795   9.952  0.9656  0.5275  0.2573
  761MOL0     H 2731   3.740   2.754   9.801  0.4014  0.2095  2.7590
  761MOL0     H 2732   4.440   3.204   9.614  1.2676  0.1050 -1.4718
  761MOL0     H 2733   4.469   3.436   9.537 -0.4745 -0.1036 -1.4842
  761MOL0     H 2734   4.624   3.520   9.555  3.7517 -2.1041  1.4666
  761MOL0     H 2735   4.584   3.435   9.406  0.9899 -0.6104 -0.2707
  762MOL0     O 2736   6.907   7.608   6.573 -0.3861  0.2463 -0.2673
  762MOL0     C 2737   6.892   7.727   6.553 -0.1811 -0.8511 -0.2278
  762MOL0     O 2738   6.951   7.810   6.462 -0.9204 -0.4440 -0.1721
  762MOL0     C 2739   7.060   7.761   6.387 -1.2078 -0.9078  0.3318
  762MOL0     C 2740   7.084   7.628   6.350  0.0098  0.2627 -0.9720
  762MOL0     C 2741   7.210   7.601   6.280 -0.4394  0.2531 -0.9010
  762MOL0     C 2742   7.299   7.706   6.247 -0.0754  0.5624 -0.5826
  762MOL0     O 2743   7.415   7.698   6.176  0.4540 -0.7558  0.5744
  762MOL0     C 2744   7.505   7.614   6.240  0.1019 -0.6380 -0.6697
  762MOL0     C 2745   7.603   7.557   6.142 -0.0002  0.2201 -0.3604
  762MOL0     C 2746   7.695   7.641   6.063  0.1053  0.5059  0.8107
  762MOL0     C 2747   7.806   7.548   5.989  0.3771 -0.3757 -0.3807
  762MOL0     C 2748   7.897   7.641   5.912 -0.3631  0.1330 -0.6805
  762MOL0     C 2749   8.015   7.559   5.855  0.4885  0.0322  0.3267
  762MOL0     C 2750   8.130   7.659   5.807  0.4313 -0.2405  0.4051
  762MOL0     C 2751   8.242   7.593   5.725  0.1990 -0.4059  0.6313
  762MOL0     N 2752   8.368   7.667   5.707  0.4908  0.4892 -0.0300
  762MOL0     C 2753   8.494   7.621   5.749  0.0258 -0.1018  0.1760
  762MOL0     C 2754   8.585   7.684   5.667  0.2564 -0.8083  0.0486
  762MOL0     C 2755   8.733   7.658   5.660  0.3916 -0.9624  0.3749
  762MOL0     C 2756   8.806   7.705   5.793  0.6089 -0.2178 -0.0468
  762MOL0     C 2757   8.937   7.634   5.821 -0.5655 -0.1570  0.3634
  762MOL0     C 2758   9.020   7.700   5.937 -0.7425 -1.0532  0.8620
  762MOL0     O 2759   9.100   7.815   5.876  0.0302  0.3943 -0.1532
  762MOL0     C 2760   9.234   7.802   5.905  0.3747  0.0624  0.3052
  762MOL0     C 2761   9.299   7.688   5.884 -1.1425 -0.2740 -0.3598
  762MOL0     C 2762   9.434   7.681   5.930  0.8896  0.3732 -0.6056
  762MOL0     C 2763   9.502   7.793   5.981  0.2963  0.5293  0.0700
  762MOL0     C 2764   9.648   7.774   6.005 -0.2747 -0.4462  0.0832
  762MOL0     O 2765   9.703   7.668   5.956 -0.8213 -0.2890 -0.1857
  762MOL0     C 2766   9.839   7.673   5.944  0.2923  0.0262 -0.8352
  762MOL0     C 2767   9.923   7.603   6.036  0.4179 -0.5492  0.1313
  762MOL0     C 2768  10.059   7.583   6.008 -1.0003 -0.3006 -0.1949
  762MOL0     C 2769  10.114   7.661   5.903 -0.3367 -0.1541  0.0111
  762MOL0     O 2770  10.239   7.632   5.848  0.1205  0.4049 -0.7196
  762MOL0     C 2771  10.321   7.747   5.836  0.8287  0.3663 -0.1968
  762MOL0     C 2772  10.464   7.690   5.812 -0.1069 -0.2172 -0.6955
  762MOL0     C 2773  10.556   7.801   5.768 -0.3587 -0.4231 -0.4784
  762MOL0     C 2774  10.533   7.842   5.621  0.5179  0.6882 -0.3290
  762MOL0     C 2775  10.609   7.760   5.518 -0.2268 -0.6357  0.3064
  762MOL0     C 2776  10.596   7.810   5.377 -0.5727 -0.3564 -0.6255
  762MOL0     C 2777  10.455   7.833   5.324  1.1748  0.3730 -1.0187
  762MOL0     C 2778  10.458   7.831   5.173 -0.5354 -0.2997  0.3398
  762MOL0    Cl 2779  10.297   7.888   5.108 -0.6958  0.0912 -0.0683
  762MOL0     C 2780  10.034   7.742   5.825  0.9158  0.3131  0.7329
  762MOL0     C 2781   9.892   7.744   5.844  0.0741  0.2684  0.9448
  762MOL0     O 2782   9.709   7.865   6.059  0.8951  0.4105  0.2428
  762MOL0     C 2783   9.431   7.913   5.996 -0.7010 -0.2546 -0.5069
  762MOL0     C 2784   9.301   7.914   5.954 -1.5840 -0.2335 -0.6456
  762MOL0     N 2785   8.507   7.777   5.600 -0.8602  0.9025 -0.0748
  762MOL0     N 2786   8.377   7.765   5.614 -0.0670  0.2909  0.1485
  762MOL0     C 2787   7.252   7.839   6.256  0.7486 -0.6817  0.6307
  762MOL0     C 2788   7.142   7.866   6.335  0.0230 -0.2778  0.4303
  762MOL0     C 2789   6.807   7.790   6.656 -0.0077 -0.0433  0.0620
  762MOL0     C 2790   6.675   7.787   6.639  0.4940 -0.5681 -0.1292
  762MOL0     C 2791   6.591   7.846   6.737 -1.6109 -0.1010 -0.0682
  762MOL0     C 2792   6.643   7.911   6.849  0.4117 -0.1068 -0.1996
  762MOL0     O 2793   6.543   7.954   6.935  0.0851  0.5504  1.0316
  762MOL0     C 2794   6.580   8.029   7.048  0.4184 -0.3506 -0.1795
  762MOL0     C 2795   6.603   8.176   7.037 -0.7698 -0.6254 -0.9969
  762MOL0     C 2796   6.562   8.258   7.161 -0.1373 -0.3357  0.4772
  762MOL0     C 2797   6.665   8.359   7.194 -0.0807  0.5547 -1.8232
  762MOL0     C 2798   6.615   8.459   7.290 -0.2383  0.2759  0.0397
  762MOL0     C 2799   6.588   8.545   7.366  0.5216  0.2498 -0.5421
  762MOL0     C 2800   6.785   7.922   6.861  0.3632 -0.2610 -0.1991
  762MOL0     C 2801   6.863   7.864   6.760 -0.8298 -0.0540 -0.1211
  762MOL0     C 2802   7.012   7.869   6.757 -0.2745  0.3135 -0.9578
  762MOL0     H 2803   7.019   7.550   6.386  0.4706  1.1861  2.1410
  762MOL0     H 2804   7.233   7.499   6.250  1.2901  0.9310 -2.0425
  762MOL0     H 2805   7.552   7.676   6.317  0.1614 -0.3758 -0.9166
  762MOL0     H 2806   7.457   7.530   6.291  1.7383 -2.0335 -1.3390
  762MOL0     H 2807   7.552   7.486   6.077  0.3275 -1.5461  1.2198
  762MOL0     H 2808   7.670   7.496   6.204 -0.0453 -0.4163 -0.9336
  762MOL0     H 2809   7.749   7.706   6.132  0.8904  0.1075  0.5818
  762MOL0     H 2810   7.638   7.705   5.995  1.1595 -0.7808 -1.4223
  762MOL0     H 2811   7.871   7.508   6.067 -3.1049 -1.4559  2.2379
  762MOL0     H 2812   7.784   7.462   5.925  3.5012 -2.0961  0.6480
  762MOL0     H 2813   7.834   7.679   5.831 -1.0970  2.6742  0.9793
  762MOL0     H 2814   7.926   7.722   5.979  0.4054 -1.2881  0.7798
  762MOL0     H 2815   8.060   7.484   5.921 -2.7544 -3.5234 -1.1321
  762MOL0     H 2816   7.969   7.497   5.777 -0.6829 -0.8425  1.6543
  762MOL0     H 2817   8.177   7.700   5.897 -1.4725 -1.0411  1.8386
  762MOL0     H 2818   8.085   7.737   5.746 -0.6302 -0.8663  0.3650
  762MOL0     H 2819   8.256   7.500   5.781 -0.2014 -0.2314  1.0289
  762MOL0     H 2820   8.209   7.577   5.622  3.2775  0.7442 -0.6465
  762MOL0     H 2821   8.504   7.537   5.817  0.9576  0.4838  0.7805
  762MOL0     H 2822   8.751   7.555   5.629 -3.4319 -1.2711 -1.4590
  762MOL0     H 2823   8.756   7.728   5.579 -3.2369  1.3895  1.1584
  762MOL0     H 2824   8.825   7.812   5.787 -0.4474 -0.0605 -0.9715
  762MOL0     H 2825   8.737   7.700   5.878  3.6398  1.4623  2.7191
  762MOL0     H 2826   8.999   7.623   5.732  1.5148 -0.1637  1.7549
  762MOL0     H 2827   8.919   7.532   5.856  2.1989  0.4219  4.0343
  762MOL0     H 2828   9.080   7.612   5.960 -3.1252 -2.8369  0.5901
  762MOL0     H 2829   8.968   7.727   6.030 -0.7519  4.0089 -0.3228
  762MOL0     H 2830   9.267   7.593   5.843 -2.5051 -0.6237  1.3953
  762MOL0     H 2831   9.471   7.583   5.901 -0.8428 -1.1523  1.9509
  762MOL0     H 2832   9.887   7.528   6.106 -1.1707 -0.0628 -0.1167
  762MOL0     H 2833  10.131   7.521   6.060 -0.1694  0.1886 -0.7397
  762MOL0     H 2834  10.283   7.821   5.765  0.4852 -1.0999 -1.6000
  762MOL0     H 2835  10.309   7.798   5.932 -2.3849 -0.9349  0.2342
  762MOL0     H 2836  10.509   7.650   5.903  2.9593  2.2777 -0.9408
  762MOL0     H 2837  10.447   7.605   5.746  0.0672 -0.8562  0.0679
  762MOL0     H 2838  10.540   7.895   5.821  0.4842 -0.2829 -0.4494
  762MOL0     H 2839  10.662   7.781   5.789  0.2298  0.1202 -2.6984
  762MOL0     H 2840  10.553   7.949   5.614  0.5459  0.8892  1.9543
  762MOL0     H 2841  10.432   7.843   5.581  0.6862  1.7342 -0.7330
  762MOL0     H 2842  10.569   7.659   5.526 -1.7178  0.0309  2.5636
  762MOL0     H 2843  10.715   7.764   5.545  0.0128 -3.7940  0.0973
  762MOL0     H 2844  10.641   7.910   5.380 -1.3042 -0.0133 -0.9628
  762MOL0     H 2845  10.656   7.744   5.314  2.4677  0.7204  0.9533
  762MOL0     H 2846  10.417   7.926   5.367 -0.8198  0.9018 -3.6634
  762MOL0     H 2847  10.388   7.755   5.361 -1.2694  2.2047 -1.3286
  762MOL0     H 2848  10.533   7.902   5.136 -0.2988 -0.5014  0.4277
  762MOL0     H 2849  10.477   7.729   5.141 -0.3252 -1.0392  2.6616
  762MOL0     H 2850  10.072   7.804   5.745 -0.7410  1.2319  0.6047
  762MOL0     H 2851   9.830   7.796   5.772 -0.8260  0.0678  1.5612
  762MOL0     H 2852   9.467   8.004   6.043 -2.2341 -0.0973  0.4092
  762MOL0     H 2853   9.236   7.998   5.974  0.6584  1.6110 -0.5622
  762MOL0     H 2854   7.304   7.918   6.204  0.1655 -1.7867 -1.7719
  762MOL0     H 2855   7.103   7.962   6.364 -1.0468 -1.2503  2.4001
  762MOL0     H 2856   6.636   7.730   6.555 -1.2677  0.2493  0.1067
  762MOL0     H 2857   6.485   7.841   6.714 -0.9358  0.1574 -4.0678
  762MOL0     H 2858   6.657   7.982   7.110 -0.0266 -1.8583 -0.7425
  762MOL0     H 2859   6.500   8.022   7.122  0.2555 -2.8234 -0.5352
  762MOL0     H 2860   6.551   8.209   6.947 -0.0191  2.1572 -0.5054
  762MOL0     H 2861   6.707   8.188   7.006 -1.0933 -0.1493 -1.9226
  762MOL0     H 2862   6.551   8.188   7.244  0.3668  2.0158  2.6616
  762MOL0     H 2863   6.466   8.306   7.142  0.5336  0.3442 -1.3752
  762MOL0     H 2864   6.751   8.307   7.237  1.8328  3.6579 -1.5618
  762MOL0     H 2865   6.708   8.410   7.107 -1.3039  0.7911 -2.3028
  762MOL0     H 2866   6.536   8.619   7.423  0.8727 -0.4664  0.7479
  762MOL0     H 2867   6.845   7.962   6.942  1.1977 -0.3251 -0.7757
  762MOL0     H 2868   7.048   7.888   6.859  0.6854  3.3253 -1.7482
  762MOL0     H 2869   7.065   7.782   6.718  0.9902 -0.3911  2.0621
  762MOL0     H 2870   7.047   7.953   6.696  2.1777  0.7456  0.8649
  763MOL0     O 2871   5.688  11.418  11.214  0.2381  1.2151  0.2720
  763MOL0     C 2872   5.587  11.440  11.146 -0.4658 -0.0427  0.6881
  763MOL0     O 2873   5.461  11.385  11.167  0.4223  0.2852  0.6191
  763MOL0     C 2874   5.438  11.308  11.278 -0.0123  1.2433  0.0293
  763MOL0     C 2875   5.382  11.349  11.395  0.4285 -0.1558 -0.0320
  763MOL0     C 2876   5.375  11.267  11.509 -0.5539 -0.0026 -0.4801
  763MOL0     C 2877   5.404  11.126  11.496  0.8690  0.5137 -0.3497
  763MOL0     O 2878   5.372  11.035  11.599  0.7283 -1.3652 -0.7470
  763MOL0     C 2879   5.418  11.078  11.727  0.4620 -0.4615 -0.1312
  763MOL0     C 2880   5.373  10.977  11.833 -1.1701  0.0158  0.1379
  763MOL0     C 2881   5.445  11.008  11.969  0.5856 -0.0178  0.8671
  763MOL0     C 2882   5.413  10.903  12.077  0.2343 -0.0772 -1.6250
  763MOL0     C 2883   5.423  10.751  12.031 -0.3835 -0.1173 -0.9127
  763MOL0     C 2884   5.549  10.701  11.971 -0.1759  0.1877  0.0240
  763MOL0     C 2885   5.647  10.632  12.067 -0.3131  0.2942  0.3648
  763MOL0     C 2886   5.602  10.488  12.101  0.1357 -0.8645 -0.8631
  763MOL0     N 2887   5.629  10.384  12.011 -0.3217  0.1976 -0.4122
  763MOL0     C 2888   5.637  10.253  12.058  0.1438 -0.8197 -0.9800
  763MOL0     C 2889   5.646  10.188  11.942  0.0407  0.2643  0.6962
  763MOL0     C 2890   5.663  10.039  11.935 -0.7717 -1.2793  0.0739
  763MOL0     C 2891   5.532   9.955  11.961  0.2960  0.0392  1.1166
  763MOL0     C 2892   5.543   9.807  11.931 -1.2110  0.1706  0.4232
  763MOL0     C 2893   5.446   9.724  12.010 -0.7608 -0.7305  0.0490
  763MOL0     O 2894   5.315   9.789  12.013 -0.3313  0.6050  0.1034
  763MOL0     C 2895   5.239   9.743  12.115 -0.1206 -0.3857  0.6334
  763MOL0     C 2896   5.277   9.762  12.252 -0.5701  0.6670  0.4960
  763MOL0     C 2897   5.190   9.714  12.353  0.0030  0.0925 -0.7639
  763MOL0     C 2898   5.063   9.655  12.314 -1.4999 -0.6003 -1.1319
  763MOL0     C 2899   4.979   9.604  12.416 -0.1955 -0.2062  0.0586
  763MOL0     O 2900   5.042   9.570  12.529 -0.8099  0.5143  0.2765
  763MOL0     C 2901   4.978   9.496  12.630  0.4015  0.3344 -0.3399
  763MOL0     C 2902   5.002   9.539  12.763 -0.0539  0.1726 -0.2640
  763MOL0     C 2903   4.934   9.480  12.872 -0.3492 -0.4954 -0.3017
  763MOL0     C 2904   4.845   9.370  12.846  0.2549 -0.3190  0.3651
  763MOL0     O 2905   4.794   9.293  12.944  0.2542 -0.1669  0.2128
  763MOL0     C 2906   4.697   9.356  13.024  0.4541  0.0777  0.0469
  763MOL0     C 2907   4.655   9.291  13.149  0.0505 -0.0314 -0.2039
  763MOL0     C 2908   4.627   9.148  13.122  0.3702 -0.0365  0.1780
  763MOL0     C 2909   4.614   9.059  13.249 -0.4015  0.8186  0.2460
  763MOL0     C 2910   4.481   9.068  13.330 -0.4807  0.8816 -0.6687
  763MOL0     C 2911   4.356   9.004  13.273 -1.0251  1.0847 -1.6131
  763MOL0     C 2912   4.266   8.981  13.386 -0.2132 -0.1812 -0.1527
  763MOL0     C 2913   4.140   8.908  13.356  0.5016  1.2667  0.5274
  763MOL0    Cl 2914   4.038   8.995  13.239  0.0518  0.4533  0.0212
  763MOL0     C 2915   4.834   9.314  12.718 -0.2496  0.2437  0.0424
  763MOL0     C 2916   4.898   9.375  12.611 -0.1210 -0.2736 -0.5763
  763MOL0     O 2917   4.862   9.591  12.391  0.8724 -0.1634 -0.2541
  763MOL0     C 2918   5.029   9.643  12.183 -0.0158  0.2398  0.1882
  763MOL0     C 2919   5.125   9.667  12.084  0.5300 -0.1051  0.0692
  763MOL0     N 2920   5.657  10.272  11.832 -0.4047 -0.0650 -0.2773
  763MOL0     N 2921   5.631  10.390  11.881 -0.6711  0.0902 -1.6362
  763MOL0     C 2922   5.444  11.080  11.370  0.0008 -0.8856  0.1891
  763MOL0     C 2923   5.465  11.171  11.265 -0.1740 -0.4868 -0.5726
  763MOL0     C 2924   5.599  11.540  11.042 -0.1369 -0.9538  0.0055
  763MOL0     C 2925   5.481  11.589  10.978  0.3301  0.6220 -0.5004
  763MOL0     C 2926   5.489  11.692  10.884  0.1252  0.7201  0.1831
  763MOL0     C 2927   5.612  11.736  10.836 -0.6020 -0.2520 -0.2671
  763MOL0     O 2928   5.628  11.838  10.742  0.3931 -0.3063  1.0348
  763MOL0     C 2929   5.565  11.956  10.782  0.3755  0.6193 -0.7463
  763MOL0     C 2930   5.476  12.008  10.660  0.5724  0.2151  0.3557
  763MOL0     C 2931   5.406  12.148  10.693  0.3756  0.5767 -0.9574
  763MOL0     C 2932   5.281  12.171  10.607  0.8566  0.9506  0.6628
  763MOL0     C 2933   5.325  12.190  10.463  0.4610 -0.2969  1.0340
  763MOL0     C 2934   5.358  12.203  10.349  0.1782 -0.3818  0.0428
  763MOL0     C 2935   5.733  11.691  10.889  0.1059 -0.0940 -0.6454
  763MOL0     C 2936   5.727  11.597  10.995  0.2810 -1.2729  0.4955
  763MOL0     C 2937   5.864  11.569  11.055 -0.1617 -1.2539 -1.1284
  763MOL0     H 2938   5.366  11.456  11.397 -0.7280 -0.2462  3.6819
  763MOL0     H 2939   5.338  11.311  11.601  1.6672  0.8018  0.1098
  763MOL0     H 2940   5.526  11.091  11.712  0.0221  2.1853 -1.5674
  763MOL0     H 2941   5.389  11.177  11.762 -0.4757 -0.8252  0.1300
  763MOL0     H 2942   5.401  10.878  11.795 -3.8113  0.0547 -2.2627
  763MOL0     H 2943   5.264  10.985  11.842 -1.0526  1.3066  0.4619
  763MOL0     H 2944   5.411  11.108  11.996 -0.9224  0.3112 -1.8595
  763MOL0     H 2945   5.553  11.010  11.955  0.2087  3.3411 -4.2153
  763MOL0     H 2946   5.485  10.922  12.157 -1.3209 -2.2252  0.4202
  763MOL0     H 2947   5.316  10.914  12.126  0.3229 -1.8090 -0.9600
  763MOL0     H 2948   5.401  10.692  12.120  0.7610  0.4102 -0.2600
  763MOL0     H 2949   5.341  10.728  11.962 -3.1460  0.8995  1.7888
  763MOL0     H 2950   5.513  10.633  11.893  1.0319 -1.8325  1.1234
  763MOL0     H 2951   5.589  10.791  11.924  0.5332 -1.1422 -2.0600
  763MOL0     H 2952   5.666  10.684  12.161 -0.6520  0.2809  0.4432
  763MOL0     H 2953   5.746  10.630  12.020 -1.4625 -0.3377 -2.2673
  763MOL0     H 2954   5.651  10.460  12.194  0.3769 -2.2734 -1.3846
  763MOL0     H 2955   5.495  10.490  12.122  0.5207  0.9409  1.3284
  763MOL0     H 2956   5.626  10.218  12.161 -0.8860  3.2793  0.4751
  763MOL0     H 2957   5.702  10.023  11.835  0.2415 -3.0638  0.7040
  763MOL0     H 2958   5.739   9.998  12.002 -0.7189  0.1098  0.8915
  763MOL0     H 2959   5.513   9.954  12.068 -4.3860 -0.7912  0.4887
  763MOL0     H 2960   5.446  10.003  11.913  1.3629  1.8088  0.8692
  763MOL0     H 2961   5.645   9.772  11.948 -0.6851  2.0882  1.5191
  763MOL0     H 2962   5.522   9.797  11.824  1.1719 -0.4685 -0.0388
  763MOL0     H 2963   5.477   9.711  12.114 -1.3702  0.7839  0.4457
  763MOL0     H 2964   5.428   9.626  11.965 -0.8743 -1.0965  0.8762
  763MOL0     H 2965   5.370   9.810  12.279  0.2912 -1.3122  1.2076
  763MOL0     H 2966   5.221   9.717  12.457 -0.4974 -1.8054 -0.5238
  763MOL0     H 2967   5.071   9.622  12.773 -1.2711  1.0341  1.3920
  763MOL0     H 2968   4.963   9.511  12.972 -1.6379  0.7633 -0.2788
  763MOL0     H 2969   4.735   9.453  13.060 -0.5611 -0.8200  4.0176
  763MOL0     H 2970   4.614   9.383  12.958  0.6835 -3.2337 -1.8167
  763MOL0     H 2971   4.739   9.308  13.217  0.4466  2.6614 -1.2362
  763MOL0     H 2972   4.568   9.338  13.195  0.2517 -0.2938  0.4554
  763MOL0     H 2973   4.543   9.141  13.053  0.8956  1.5042 -0.6765
  763MOL0     H 2974   4.711   9.103  13.068  0.2442 -0.8512  0.6352
  763MOL0     H 2975   4.705   9.064  13.310  2.1796  1.8193 -3.3522
  763MOL0     H 2976   4.613   8.958  13.206 -1.0597  0.3483  1.3250
  763MOL0     H 2977   4.463   9.173  13.353  1.4180  1.4354 -1.5633
  763MOL0     H 2978   4.505   9.008  13.419 -1.5733 -1.8012 -2.0487
  763MOL0     H 2979   4.312   9.059  13.190  0.1434  1.1448 -2.2109
  763MOL0     H 2980   4.394   8.910  13.233 -1.7583 -0.1834  0.5150
  763MOL0     H 2981   4.223   9.077  13.415 -3.8528 -0.7316 -2.9762
  763MOL0     H 2982   4.315   8.932  13.470  0.3479  0.3927 -0.1376
  763MOL0     H 2983   4.153   8.812  13.305 -1.3453  1.1814  0.1358
  763MOL0     H 2984   4.075   8.895  13.444  1.3788 -1.4487  0.8596
  763MOL0     H 2985   4.773   9.224  12.711  0.7388 -0.5151  1.0142
  763MOL0     H 2986   4.888   9.344  12.508 -1.7512  2.3100 -1.3048
  763MOL0     H 2987   4.937   9.593  12.156  1.6618 -2.6015 -0.8042
  763MOL0     H 2988   5.099   9.649  11.980 -3.9354  0.4515  0.9304
  763MOL0     H 2989   5.456  10.974  11.350  0.4286 -0.6727 -0.7365
  763MOL0     H 2990   5.502  11.124  11.174  1.1135 -0.0704 -0.2818
  763MOL0     H 2991   5.395  11.529  11.009  0.6969 -0.8241 -2.0779
  763MOL0     H 2992   5.400  11.735  10.838  1.0774  1.7232 -0.7750
  763MOL0     H 2993   5.637  12.036  10.800  0.7025  0.2091 -0.2041
  763MOL0     H 2994   5.511  11.950  10.877 -1.8019  0.8736 -1.8981
  763MOL0     H 2995   5.397  11.935  10.637  0.8488 -0.4258  1.3586
  763MOL0     H 2996   5.529  12.029  10.567 -0.9502  2.8283 -0.0315
  763MOL0     H 2997   5.480  12.227  10.680  0.3270  0.8954  0.5229
  763MOL0     H 2998   5.368  12.141  10.795 -0.1547  0.4265 -1.1598
  763MOL0     H 2999   5.217  12.084  10.616  2.2672 -0.0091  2.0909
  763MOL0     H 3000   5.229  12.264  10.633 -2.4325 -0.3632 -0.7136
  763MOL0     H 3001   5.413  12.188  10.258  3.7119 -2.0814  2.2062
  763MOL0     H 3002   5.828  11.737  10.866 -0.4593  0.7730 -1.3467
  763MOL0     H 3003   5.845  11.621  11.149  2.7996 -0.1059 -1.0389
  763MOL0     H 3004   5.874  11.460  11.058  1.9196 -1.1258  2.6276
  763MOL0     H 3005   5.943  11.611  10.992 -0.7364  1.6200 -0.1081
  764MOL0     O 3006   9.596   4.789   7.235  1.1069 -0.1048 -0.3988
  764MOL0     C 3007   9.501   4.833   7.299 -0.0687  0.4948 -0.3167
  764MOL0     O 3008   9.409   4.910   7.248  0.0231 -0.7740 -0.6078
  764MOL0     C 3009   9.414   4.963   7.124  0.1366 -1.1196 -0.2939
  764MOL0     C 3010   9.449   4.901   7.004 -0.1368  0.7899 -0.4904
  764MOL0     C 3011   9.432   4.965   6.883  0.2348 -0.3512  0.1966
  764MOL0     C 3012   9.395   5.103   6.877  0.3381  0.0121  0.4856
  764MOL0     O 3013   9.373   5.185   6.764 -0.5741  0.7771 -0.1644
  764MOL0     C 3014   9.443   5.153   6.645 -1.3699 -0.7838  0.0490
  764MOL0     C 3015   9.488   5.280   6.571  0.6710 -0.3526  0.5187
  764MOL0     C 3016   9.564   5.370   6.666 -0.0356 -0.4916  0.1562
  764MOL0     C 3017   9.606   5.493   6.588  0.5807  0.5357 -0.7207
  764MOL0     C 3018   9.681   5.605   6.671 -0.5125 -0.4853 -0.0567
  764MOL0     C 3019   9.831   5.567   6.671  0.5179  1.3849 -0.2882
  764MOL0     C 3020   9.928   5.686   6.711  0.0819  0.3801  0.5721
  764MOL0     C 3021   9.926   5.702   6.860 -0.2554 -0.7286 -0.0564
  764MOL0     N 3022  10.055   5.765   6.896 -0.0094  0.6403 -0.6315
  764MOL0     C 3023  10.179   5.697   6.925  0.1747 -0.3471  0.2860
  764MOL0     C 3024  10.264   5.782   6.967  0.1450  0.0811 -0.0072
  764MOL0     C 3025  10.406   5.755   7.004  0.5443  1.0758 -0.4526
  764MOL0     C 3026  10.442   5.793   7.148  0.6530  0.0211  0.1182
  764MOL0     C 3027  10.577   5.758   7.190  0.3111 -0.0512  0.3673
  764MOL0     C 3028  10.606   5.615   7.243  0.5402  0.3218  0.6360
  764MOL0     O 3029  10.734   5.602   7.313  0.1714 -0.3727 -0.3083
  764MOL0     C 3030  10.847   5.587   7.238 -0.1905  0.6908  0.1107
  764MOL0     C 3031  10.859   5.549   7.100  0.0607 -0.3745  0.3062
  764MOL0     C 3032  10.976   5.549   7.033 -0.1271 -0.4844 -1.1764
  764MOL0     C 3033  11.099   5.562   7.110  0.4974  0.7393 -0.3482
  764MOL0     C 3034  11.240   5.561   7.056  0.2676 -0.2591  0.7749
  764MOL0     O 3035  11.342   5.606   7.121 -0.0202 -0.3061 -0.2719
  764MOL0     C 3036  11.465   5.611   7.062  0.4274 -0.0087  0.4313
  764MOL0     C 3037  11.532   5.495   7.020  0.2174  0.2901  0.3873
  764MOL0     C 3038  11.651   5.504   6.943 -0.1967 -0.3122 -0.1122
  764MOL0     C 3039  11.704   5.629   6.912 -0.7709  0.4961  0.1644
  764MOL0     O 3040  11.831   5.638   6.850 -0.0234 -0.2632  0.1416
  764MOL0     C 3041  11.824   5.567   6.721 -0.5770 -0.1050  0.5691
  764MOL0     C 3042  11.897   5.435   6.712 -0.0175 -0.5709  0.4916
  764MOL0     C 3043  12.037   5.443   6.766 -1.0264 -0.5598  0.3200
  764MOL0     C 3044  12.144   5.426   6.651 -1.2100  0.1337  0.1501
  764MOL0     C 3045  12.272   5.505   6.682  0.3178  0.0151 -0.8073
  764MOL0     C 3046  12.383   5.487   6.569  0.0732 -0.2675 -0.0329
  764MOL0     C 3047  12.496   5.596   6.585  0.2096 -0.0975  0.4794
  764MOL0     C 3048  12.582   5.559   6.704  0.5708 -0.5837  0.2250
  764MOL0    Cl 3049  12.721   5.678   6.709  0.2401 -0.1176  0.1819
  764MOL0     C 3050  11.631   5.743   6.947 -0.1423 -0.5165 -0.3647
  764MOL0     C 3051  11.518   5.733   7.025  0.8564  0.0551 -0.4777
  764MOL0     O 3052  11.245   5.515   6.934 -0.2806 -0.5691 -0.9144
  764MOL0     C 3053  11.093   5.596   7.248  0.1299  0.5149  0.5402
  764MOL0     C 3054  10.967   5.618   7.304 -1.2083  1.2125  0.2674
  764MOL0     N 3055  10.205   5.905   6.946  0.9140  0.6361  0.1250
  764MOL0     N 3056  10.076   5.899   6.916 -0.0243  0.0145  0.0554
  764MOL0     C 3057   9.368   5.168   6.990  0.1475  0.1094  0.5503
  764MOL0     C 3058   9.376   5.100   7.111 -0.5083  0.9744 -0.0105
  764MOL0     C 3059   9.491   4.785   7.445  0.1743  0.3096  0.2943
  764MOL0     C 3060   9.528   4.651   7.475 -0.1142 -0.5889 -0.1195
  764MOL0     C 3061   9.526   4.601   7.600 -1.1156  0.5037  0.0754
  764MOL0     C 3062   9.505   4.682   7.706  0.5652 -1.0329  0.5745
  764MOL0     O 3063   9.495   4.632   7.828 -0.2715 -0.2233  0.2015
  764MOL0     C 3064   9.606   4.577   7.891 -0.3044 -0.4368  0.1737
  764MOL0     C 3065   9.641   4.655   8.027  0.2008 -0.2116 -0.0041
  764MOL0     C 3066   9.542   4.639   8.151  0.4377  0.3508  0.5639
  764MOL0     C 3067   9.615   4.682   8.281  0.3792 -0.0650  0.3051
  764MOL0     C 3068   9.636   4.824   8.304 -0.1480  0.2067  0.2485
  764MOL0     C 3069   9.666   4.940   8.311 -0.4009  0.3141  0.2305
  764MOL0     C 3070   9.466   4.824   7.686 -0.0161 -0.7093 -0.4918
  764MOL0     C 3071   9.468   4.876   7.553  0.4167  0.4354  0.1208
  764MOL0     C 3072   9.436   5.027   7.531  0.3833  0.5942  0.3640
  764MOL0     H 3073   9.469   4.795   7.015  0.0684  0.8891  0.1179
  764MOL0     H 3074   9.446   4.916   6.788 -1.2374 -1.1244  0.3446
  764MOL0     H 3075   9.521   5.077   6.660 -0.0631  0.9484  2.7224
  764MOL0     H 3076   9.373   5.095   6.584  0.5442 -3.7266  0.4592
  764MOL0     H 3077   9.404   5.342   6.535  0.3728 -1.2423 -0.3694
  764MOL0     H 3078   9.546   5.254   6.482 -2.2067 -2.7798 -0.8117
  764MOL0     H 3079   9.655   5.316   6.695  1.6570  1.2801 -1.5923
  764MOL0     H 3080   9.506   5.403   6.753  0.5859 -1.2952  0.8998
  764MOL0     H 3081   9.677   5.468   6.509 -0.0923  1.6895 -1.7283
  764MOL0     H 3082   9.523   5.542   6.537 -0.5880  0.2236  0.7876
  764MOL0     H 3083   9.659   5.707   6.637  0.2300 -0.1387  0.4650
  764MOL0     H 3084   9.644   5.595   6.773 -0.4190  2.6870  0.4013
  764MOL0     H 3085   9.858   5.473   6.720 -0.0218  2.0723  1.4037
  764MOL0     H 3086   9.863   5.546   6.569 -0.2833 -0.6846 -0.1600
  764MOL0     H 3087   9.899   5.777   6.658 -1.6222 -0.3184  0.2399
  764MOL0     H 3088  10.024   5.643   6.679 -0.4705 -1.5721  1.3507
  764MOL0     H 3089   9.849   5.772   6.893 -0.0301 -0.0206 -0.9740
  764MOL0     H 3090   9.916   5.605   6.909 -3.8429 -1.2549 -1.5410
  764MOL0     H 3091  10.190   5.589   6.919 -0.9671 -0.3797 -3.3595
  764MOL0     H 3092  10.406   5.646   7.011 -3.5640  0.9269  0.1717
  764MOL0     H 3093  10.472   5.794   6.926  1.8777  0.5621  0.3993
  764MOL0     H 3094  10.443   5.903   7.148  0.9208  0.0243 -0.5770
  764MOL0     H 3095  10.364   5.759   7.216  0.0110 -3.3772 -2.0804
  764MOL0     H 3096  10.596   5.830   7.270 -1.8695  2.0605 -0.9035
  764MOL0     H 3097  10.648   5.784   7.111  1.6711  0.8163  1.8018
  764MOL0     H 3098  10.601   5.545   7.160 -1.0053  0.6544  0.4192
  764MOL0     H 3099  10.519   5.586   7.303  0.5478 -0.0000  0.4898
  764MOL0     H 3100  10.773   5.528   7.036  0.1051 -4.4996  1.2785
  764MOL0     H 3101  10.984   5.498   6.937  0.9534 -2.7148  0.0193
  764MOL0     H 3102  11.493   5.406   7.070  3.6008 -1.2545  0.5647
  764MOL0     H 3103  11.718   5.421   6.925  0.2788  0.0826 -0.2050
  764MOL0     H 3104  11.721   5.548   6.689 -0.2424 -0.9281 -0.0502
  764MOL0     H 3105  11.864   5.632   6.643 -0.5761  1.8093  2.0876
  764MOL0     H 3106  11.835   5.359   6.761 -2.1601  0.7831  0.0003
  764MOL0     H 3107  11.899   5.405   6.607  0.2016 -0.0528  0.3437
  764MOL0     H 3108  12.050   5.530   6.831  0.3103 -1.3984  1.2288
  764MOL0     H 3109  12.050   5.360   6.835 -1.2027 -2.5768 -1.9581
  764MOL0     H 3110  12.117   5.453   6.549  1.7639  1.5503 -0.3850
  764MOL0     H 3111  12.164   5.318   6.657  0.9214  0.4097 -0.8587
  764MOL0     H 3112  12.320   5.461   6.769  0.5755  2.2169  0.2196
  764MOL0     H 3113  12.262   5.613   6.696  0.0116 -0.3260  2.0047
  764MOL0     H 3114  12.420   5.384   6.573 -0.2085 -0.4154 -0.9839
  764MOL0     H 3115  12.340   5.519   6.474  0.9389 -1.2819 -0.7945
  764MOL0     H 3116  12.454   5.697   6.593 -0.6171 -0.1397 -2.4844
  764MOL0     H 3117  12.554   5.583   6.494 -1.3288 -1.0556 -0.4041
  764MOL0     H 3118  12.525   5.553   6.797 -0.1225  0.2200 -0.1397
  764MOL0     H 3119  12.619   5.459   6.677 -2.2675 -1.2648 -1.6232
  764MOL0     H 3120  11.672   5.841   6.924  1.4880 -1.4734 -1.8182
  764MOL0     H 3121  11.467   5.823   7.059  2.9250  0.6533  1.2232
  764MOL0     H 3122  11.181   5.627   7.304  1.4653  0.8441 -1.6124
  764MOL0     H 3123  10.971   5.658   7.405 -0.8030 -1.3153  1.3244
  764MOL0     H 3124   9.326   5.268   6.982  1.2571  0.4000 -4.0426
  764MOL0     H 3125   9.321   5.144   7.194 -0.1349 -0.1984  0.8904
  764MOL0     H 3126   9.537   4.583   7.390 -1.2577 -1.3125  0.3142
  764MOL0     H 3127   9.532   4.495   7.623  0.2959 -0.3208 -3.4099
  764MOL0     H 3128   9.697   4.571   7.831 -0.0531  0.0569  0.5065
  764MOL0     H 3129   9.579   4.473   7.915  1.0566 -0.6009  1.1599
  764MOL0     H 3130   9.644   4.763   8.009 -0.9221 -0.5301 -2.6932
  764MOL0     H 3131   9.733   4.607   8.058  0.6800  0.6969  0.0180
  764MOL0     H 3132   9.514   4.533   8.153  0.7338  0.2808  1.5729
  764MOL0     H 3133   9.459   4.710   8.138  0.4791  0.0557 -1.6013
  764MOL0     H 3134   9.560   4.642   8.367 -1.2951 -0.3085 -0.8285
  764MOL0     H 3135   9.710   4.627   8.286 -0.2488 -1.1832  0.2225
  764MOL0     H 3136   9.711   5.037   8.318 -1.1344  0.5964  1.3441
  764MOL0     H 3137   9.433   4.889   7.766  0.6587  0.7481 -1.3706
  764MOL0     H 3138   9.441   5.058   7.426 -1.2055  1.3412  0.4809
  764MOL0     H 3139   9.332   5.044   7.562  1.4907  0.3251  4.7824
  764MOL0     H 3140   9.506   5.090   7.586 -0.8649  0.6831  1.9345
  765MOL0     O 3141   9.284   7.185   8.485 -0.0880  0.0266 -0.5752
  765MOL0     C 3142   9.282   7.112   8.586 -0.5321 -0.3630  0.3999
  765MOL0     O 3143   9.178   7.029   8.626 -0.3368 -0.5631  0.5472
  765MOL0     C 3144   9.059   7.027   8.559  0.1932 -0.2441 -0.3527
  765MOL0     C 3145   8.960   7.122   8.601 -0.1090  0.2500  0.4438
  765MOL0     C 3146   8.844   7.134   8.525  0.6169  1.7969  0.3203
  765MOL0     C 3147   8.813   7.043   8.424 -0.0049 -0.1192  0.0723
  765MOL0     O 3148   8.692   7.040   8.354 -0.9846  0.3460 -0.4721
  765MOL0     C 3149   8.623   7.166   8.338  0.2868 -0.4579  0.2376
  765MOL0     C 3150   8.504   7.138   8.251 -0.6601 -0.6844 -0.1774
  765MOL0     C 3151   8.545   7.160   8.103  1.2412 -0.0127 -0.2783
  765MOL0     C 3152   8.608   7.037   8.032  0.5416  0.2050  0.1618
  765MOL0     C 3153   8.589   7.029   7.882  0.1961  0.6303 -1.0714
  765MOL0     C 3154   8.638   7.149   7.808  0.2265  0.8844  0.5022
  765MOL0     C 3155   8.621   7.125   7.657  0.3343  0.1099  0.7291
  765MOL0     C 3156   8.715   7.207   7.571  0.8464 -1.7886  0.5319
  765MOL0     N 3157   8.710   7.172   7.422  0.1966  0.1789 -0.4782
  765MOL0     C 3158   8.673   7.247   7.312 -0.3115 -0.0995 -0.4277
  765MOL0     C 3159   8.708   7.178   7.201 -0.1781  0.3345 -0.5953
  765MOL0     C 3160   8.693   7.225   7.064  0.0366 -0.8408  1.1450
  765MOL0     C 3161   8.825   7.282   7.001 -1.0516 -0.3569 -0.9348
  765MOL0     C 3162   8.819   7.439   7.015 -0.1960 -0.1769 -0.4037
  765MOL0     C 3163   8.843   7.486   7.164 -0.4510 -0.2470  1.2065
  765MOL0     O 3164   8.862   7.626   7.169  0.5555  0.5822 -1.0295
  765MOL0     C 3165   8.851   7.688   7.291  0.4619 -0.2253  0.6651
  765MOL0     C 3166   8.872   7.618   7.413 -0.1880 -0.3241  0.6537
  765MOL0     C 3167   8.851   7.683   7.538 -0.2279 -0.5599  0.4073
  765MOL0     C 3168   8.813   7.817   7.543 -0.3000 -0.1346 -0.7428
  765MOL0     C 3169   8.798   7.892   7.672  0.1842 -0.5704  0.1248
  765MOL0     O 3170   8.695   7.982   7.668 -0.2566 -0.6477 -0.0791
  765MOL0     C 3171   8.683   8.080   7.768  0.6550  0.3080 -0.3982
  765MOL0     C 3172   8.605   8.197   7.741  0.9347 -1.0435  0.0506
  765MOL0     C 3173   8.590   8.304   7.827 -0.7215  0.0589 -0.5989
  765MOL0     C 3174   8.668   8.294   7.952 -0.0597 -0.1780  0.8954
  765MOL0     O 3175   8.659   8.385   8.057 -0.7332  0.2744  0.7601
  765MOL0     C 3176   8.527   8.394   8.103 -0.4523  0.2429  0.6241
  765MOL0     C 3177   8.522   8.529   8.184 -0.4518 -1.2206 -0.9564
  765MOL0     C 3178   8.564   8.535   8.333  0.8113  0.1280  0.1641
  765MOL0     C 3179   8.436   8.485   8.401 -0.9201  0.5529  0.1620
  765MOL0     C 3180   8.436   8.493   8.553 -0.0749  0.4363 -0.0293
  765MOL0     C 3181   8.540   8.397   8.614  0.3015  0.4433  0.2493
  765MOL0     C 3182   8.507   8.371   8.768  0.4415 -0.1640 -0.3272
  765MOL0     C 3183   8.622   8.361   8.862 -0.0422 -0.3020 -0.3532
  765MOL0    Cl 3184   8.732   8.502   8.873  0.1565 -0.0677  0.2179
  765MOL0     C 3185   8.746   8.188   7.980  0.2329  0.4218 -0.7100
  765MOL0     C 3186   8.751   8.072   7.897  0.8429 -0.2200 -0.5395
  765MOL0     O 3187   8.871   7.862   7.768  0.6166 -0.3700  0.0295
  765MOL0     C 3188   8.801   7.885   7.419  0.1996 -0.0095 -0.3670
  765MOL0     C 3189   8.819   7.825   7.294  0.4103  0.3261 -0.6413
  765MOL0     N 3190   8.772   7.066   7.248  0.2967  0.3593  0.3595
  765MOL0     N 3191   8.771   7.058   7.377  0.0262 -0.0097  0.0540
  765MOL0     C 3192   8.909   6.952   8.384  1.3607  0.2461 -0.8894
  765MOL0     C 3193   9.032   6.942   8.452  0.6108 -0.0099 -0.1490
  765MOL0     C 3194   9.385   7.118   8.691  0.8597 -0.3995 -0.8824
  765MOL0     C 3195   9.393   7.018   8.791  0.4684 -1.1036 -0.0334
  765MOL0     C 3196   9.485   7.009   8.890  0.2794  0.0483 -0.7233
  765MOL0     C 3197   9.584   7.100   8.902 -0.1363 -0.0326 -0.7826
  765MOL0     O 3198   9.674   7.079   9.004 -0.4500  0.1200 -0.3725
  765MOL0     C 3199   9.778   7.184   9.019  0.7431 -0.5305 -0.3284
  765MOL0     C 3200   9.889   7.119   9.101 -1.4991  0.3132 -0.3831
  765MOL0     C 3201   9.832   7.023   9.216 -0.7488  0.2746  0.0702
  765MOL0     C 3202   9.936   6.987   9.320 -0.4264 -0.6646  0.5418
  765MOL0     C 3203  10.031   6.889   9.255  0.6913 -0.1572 -0.4234
  765MOL0     C 3204  10.084   6.791   9.200  0.0519 -0.6351 -0.1525
  765MOL0     C 3205   9.581   7.212   8.817 -0.0183 -0.3188  0.3282
  765MOL0     C 3206   9.470   7.221   8.721  0.1451  0.0212 -0.0614
  765MOL0     C 3207   9.451   7.355   8.658 -0.7898  0.1913  0.1760
  765MOL0     H 3208   8.973   7.191   8.685  1.0573  2.1166 -1.1807
  765MOL0     H 3209   8.773   7.204   8.569  0.7167  1.6979  0.6455
  765MOL0     H 3210   8.584   7.183   8.439 -1.9478 -2.2918 -0.2437
  765MOL0     H 3211   8.697   7.239   8.303  1.4377 -2.1420 -0.9475
  765MOL0     H 3212   8.428   7.211   8.279 -2.2948 -2.0126 -0.9606
  765MOL0     H 3213   8.469   7.034   8.257  0.0105 -0.9454 -0.6047
  765MOL0     H 3214   8.622   7.237   8.098 -0.0487  1.2475 -1.7722
  765MOL0     H 3215   8.458   7.195   8.046 -2.2344 -1.5043  3.6347
  765MOL0     H 3216   8.712   7.028   8.063 -0.0171  0.9849  2.4619
  765MOL0     H 3217   8.563   6.943   8.066 -1.4573  0.8871 -0.4690
  765MOL0     H 3218   8.646   6.939   7.858  2.2071  0.0152  4.5920
  765MOL0     H 3219   8.482   7.012   7.866 -0.3535  3.7415 -1.4037
  765MOL0     H 3220   8.584   7.241   7.830  1.1337  1.7961 -0.9188
  765MOL0     H 3221   8.743   7.162   7.835  0.6508 -0.9015 -0.1407
  765MOL0     H 3222   8.516   7.147   7.637  0.0950  0.2877  2.0955
  765MOL0     H 3223   8.633   7.019   7.635 -1.5745 -0.7001  3.1324
  765MOL0     H 3224   8.701   7.316   7.577 -0.2346 -1.7415 -1.7953
  765MOL0     H 3225   8.813   7.179   7.610 -1.3009 -4.4669  4.8313
  765MOL0     H 3226   8.614   7.338   7.314  0.4552  0.5476 -2.9586
  765MOL0     H 3227   8.659   7.139   7.006 -1.8656 -1.7197  3.4103
  765MOL0     H 3228   8.617   7.303   7.064 -0.7716 -1.5890  2.3934
  765MOL0     H 3229   8.905   7.243   7.065  1.0251  0.1183 -3.0726
  765MOL0     H 3230   8.844   7.258   6.896  1.5457  1.8516 -1.0941
  765MOL0     H 3231   8.728   7.481   6.972 -1.9616 -1.1044  2.1878
  765MOL0     H 3232   8.890   7.487   6.948 -0.1461  0.1158 -0.1408
  765MOL0     H 3233   8.939   7.441   7.193  1.0152  2.5479  1.0395
  765MOL0     H 3234   8.760   7.462   7.230 -2.3617  1.1443 -0.5498
  765MOL0     H 3235   8.906   7.515   7.416 -0.3349 -0.4187  4.8515
  765MOL0     H 3236   8.862   7.634   7.634 -2.6227  0.3109  1.1750
  765MOL0     H 3237   8.548   8.199   7.649 -0.2498  0.9928  0.7660
  765MOL0     H 3238   8.527   8.389   7.804  0.4760  1.2913  0.4431
  765MOL0     H 3239   8.451   8.387   8.025 -1.6028 -1.1575  1.8016
  765MOL0     H 3240   8.508   8.304   8.162 -0.6985  0.6622  1.1920
  765MOL0     H 3241   8.600   8.589   8.138 -0.6689  0.9609  1.3072
  765MOL0     H 3242   8.431   8.588   8.169 -1.5757 -2.5976  0.1197
  765MOL0     H 3243   8.651   8.472   8.352  1.6782  1.3962  0.5398
  765MOL0     H 3244   8.600   8.635   8.357 -0.0567  1.0394 -2.0411
  765MOL0     H 3245   8.423   8.382   8.367  0.8274  0.9622 -1.9722
  765MOL0     H 3246   8.347   8.540   8.368 -0.3197  2.4015  1.4206
  765MOL0     H 3247   8.337   8.454   8.578 -1.1811 -0.6982 -4.9898
  765MOL0     H 3248   8.433   8.597   8.586 -0.3540  0.7841 -1.1068
  765MOL0     H 3249   8.531   8.303   8.559  1.1732  0.2106  0.4959
  765MOL0     H 3250   8.643   8.429   8.593  0.1691 -0.0288 -1.2593
  765MOL0     H 3251   8.439   8.286   8.755  0.0548  0.4534 -2.7507
  765MOL0     H 3252   8.443   8.454   8.799  1.5048  0.7321 -0.4912
  765MOL0     H 3253   8.588   8.325   8.960 -0.6134 -1.3488 -0.9141
  765MOL0     H 3254   8.683   8.274   8.837  0.9462  0.4191 -0.4856
  765MOL0     H 3255   8.804   8.185   8.071 -0.0192 -0.0833 -0.5606
  765MOL0     H 3256   8.822   7.999   7.935 -1.9118 -3.2364 -0.7797
  765MOL0     H 3257   8.766   7.987   7.424 -0.6892 -0.3043 -0.5041
  765MOL0     H 3258   8.801   7.877   7.200 -0.5238  0.7705 -0.2369
  765MOL0     H 3259   8.880   6.875   8.314 -1.1167  0.4784 -0.2186
  765MOL0     H 3260   9.108   6.872   8.421  2.9213  1.5594  1.6198
  765MOL0     H 3261   9.322   6.936   8.787 -0.0935 -0.6808  0.9266
  765MOL0     H 3262   9.487   6.924   8.958  0.2470  0.7379  0.1599
  765MOL0     H 3263   9.743   7.278   9.062 -1.2364 -1.0091 -0.7571
  765MOL0     H 3264   9.818   7.197   8.918 -0.5007  1.2603 -0.6282
  765MOL0     H 3265   9.941   7.196   9.160 -1.6229 -1.2080  1.8464
  765MOL0     H 3266   9.957   7.065   9.035 -2.0883 -0.5627 -0.2847
  765MOL0     H 3267   9.798   6.934   9.163 -1.8866 -0.5942  2.1297
  765MOL0     H 3268   9.742   7.057   9.268 -2.8362 -0.2219 -3.0062
  765MOL0     H 3269  10.008   7.066   9.340  3.2509 -3.5722 -0.1119
  765MOL0     H 3270   9.895   6.958   9.417  3.2194 -1.1279  2.1118
  765MOL0     H 3271  10.094   6.687   9.174 -0.2662 -0.8052  0.3942
  765MOL0     H 3272   9.653   7.292   8.830  0.7324 -0.8388 -0.5481
  765MOL0     H 3273   9.352   7.400   8.667 -1.4753 -1.1804 -0.2604
  765MOL0     H 3274   9.523   7.434   8.684 -0.5003  0.7824 -2.1713
  765MOL0     H 3275   9.468   7.348   8.551 -3.7023  1.3030 -0.4482
  766MOL0     O 3276   9.267   2.280   8.452 -1.0279  0.0502  0.9087
  766MOL0     C 3277   9.382   2.324   8.420  0.1772  0.1988 -0.1554
  766MOL0     O 3278   9.461   2.286   8.321  0.5723  0.7625  0.8116
  766MOL0     C 3279   9.409   2.187   8.243  0.4761 -0.8549 -0.5389
  766MOL0     C 3280   9.473   2.058   8.253 -0.6156  0.4102 -0.2404
  766MOL0     C 3281   9.421   1.951   8.183  0.4826 -0.2660  1.0212
  766MOL0     C 3282   9.309   1.969   8.099 -0.5918 -0.7561  0.7655
  766MOL0     O 3283   9.269   1.857   8.022 -0.3143 -0.1463 -0.2781
  766MOL0     C 3284   9.154   1.860   7.936 -0.4279 -1.3361  0.6665
  766MOL0     C 3285   9.034   1.862   8.020 -0.3632 -0.6812 -0.1910
  766MOL0     C 3286   8.903   1.829   7.948 -0.6573 -0.7743 -0.2155
  766MOL0     C 3287   8.914   1.682   7.907  0.3048  1.0522  0.0698
  766MOL0     C 3288   8.776   1.635   7.866  0.6230 -0.3864 -0.4100
  766MOL0     C 3289   8.670   1.617   7.975  0.1003  0.5397 -0.6078
  766MOL0     C 3290   8.547   1.539   7.928  0.6994  1.2249  0.0466
  766MOL0     C 3291   8.483   1.467   8.048  0.1367 -0.0336  0.0359
  766MOL0     N 3292   8.437   1.556   8.149 -0.5364  0.2436 -0.0427
  766MOL0     C 3293   8.315   1.608   8.146  0.3725 -0.3363 -0.3164
  766MOL0     C 3294   8.300   1.655   8.271  0.4270  0.4883 -0.4383
  766MOL0     C 3295   8.179   1.727   8.319  0.4146 -0.7502 -0.4029
  766MOL0     C 3296   8.144   1.870   8.244 -0.8139 -0.1329  0.5433
  766MOL0     C 3297   8.229   1.991   8.284  0.9300 -0.6579 -0.4341
  766MOL0     C 3298   8.380   1.971   8.297 -0.1731  0.3009  0.4527
  766MOL0     O 3299   8.452   2.088   8.326  0.3359 -0.5880  0.5261
  766MOL0     C 3300   8.466   2.118   8.463  0.7162 -0.1637  0.2820
  766MOL0     C 3301   8.520   2.245   8.494  0.5085 -0.3749 -0.4380
  766MOL0     C 3302   8.513   2.304   8.620  0.3987 -0.6559  0.2601
  766MOL0     C 3303   8.464   2.226   8.720 -0.0143  0.3432  0.0826
  766MOL0     C 3304   8.454   2.283   8.859  0.5134 -0.8581  0.7838
  766MOL0     O 3305   8.341   2.253   8.922 -1.0294 -0.4921 -0.3450
  766MOL0     C 3306   8.288   2.311   9.038 -0.5298 -0.3461 -0.0292
  766MOL0     C 3307   8.166   2.269   9.084 -0.2336  0.4246  0.1772
  766MOL0     C 3308   8.100   2.309   9.197  0.6557  0.2881  0.9273
  766MOL0     C 3309   8.169   2.386   9.279  0.2848 -1.4838 -0.6812
  766MOL0     O 3310   8.093   2.424   9.397 -0.1321 -0.7881 -0.0544
  766MOL0     C 3311   8.095   2.572   9.442  0.3815  0.0041 -0.9830
  766MOL0     C 3312   7.956   2.613   9.491  0.5311  0.2647  0.4019
  766MOL0     C 3313   7.975   2.765   9.525 -0.7208  0.7827  0.2691
  766MOL0     C 3314   7.893   2.827   9.422  0.4385  0.4737  0.6534
  766MOL0     C 3315   7.891   2.975   9.456 -0.0249 -0.0006 -0.3404
  766MOL0     C 3316   7.849   3.063   9.335 -0.2722  1.1718  0.1026
  766MOL0     C 3317   7.821   3.207   9.368  0.8153  0.9357 -0.0859
  766MOL0     C 3318   7.929   3.303   9.334  0.4781  0.5347  0.1329
  766MOL0    Cl 3319   7.938   3.320   9.148  0.0793  0.0303 -0.2064
  766MOL0     C 3320   8.305   2.424   9.251  0.4070  0.0794  0.0657
  766MOL0     C 3321   8.354   2.395   9.127  0.2510  0.0822 -0.5653
  766MOL0     O 3322   8.532   2.372   8.896 -0.9243  0.3976 -0.5374
  766MOL0     C 3323   8.415   2.091   8.702  0.5856  0.0052  0.7720
  766MOL0     C 3324   8.421   2.041   8.569 -0.3294  0.4896 -0.5534
  766MOL0     N 3325   8.406   1.637   8.344  0.5256 -0.1955  0.2118
  766MOL0     N 3326   8.490   1.594   8.264 -0.7136  1.2039 -0.8664
  766MOL0     C 3327   9.247   2.097   8.085 -0.6218 -0.8492  0.9327
  766MOL0     C 3328   9.299   2.195   8.161 -0.0206 -0.8212  0.5179
  766MOL0     C 3329   9.425   2.440   8.494  0.0499 -0.0896 -0.4382
  766MOL0     C 3330   9.525   2.525   8.437 -0.2320  0.4566 -0.6635
  766MOL0     C 3331   9.558   2.638   8.495  0.4284 -0.3473 -0.5622
  766MOL0     C 3332   9.524   2.669   8.630 -0.1809  0.1513 -0.2345
  766MOL0     O 3333   9.593   2.780   8.687  0.4085 -0.1139  0.7767
  766MOL0     C 3334   9.564   2.829   8.821  0.9714  0.0640 -0.4437
  766MOL0     C 3335   9.467   2.950   8.814  0.4098  0.4720  0.4819
  766MOL0     C 3336   9.547   3.074   8.798  0.1388  0.2267  0.1131
  766MOL0     C 3337   9.570   3.148   8.937  0.6072  0.4770  0.1959
  766MOL0     C 3338   9.622   3.281   8.920  0.3678 -0.8351  0.1215
  766MOL0     C 3339   9.672   3.387   8.921 -0.4777  0.2691 -0.6813
  766MOL0     C 3340   9.428   2.593   8.692 -1.0801  0.6580 -0.1383
  766MOL0     C 3341   9.376   2.479   8.629  1.0156  0.2847  0.0945
  766MOL0     C 3342   9.266   2.403   8.710 -0.5145  0.4707 -0.0439
  766MOL0     H 3343   9.561   2.040   8.315 -1.6228  0.6318  1.3282
  766MOL0     H 3344   9.470   1.854   8.181  1.6868  0.3058 -0.9993
  766MOL0     H 3345   9.157   1.954   7.880  1.1318  0.3634  3.4022
  766MOL0     H 3346   9.158   1.777   7.865 -0.5659  2.5143 -4.3976
  766MOL0     H 3347   9.028   1.962   8.065  0.3028 -0.9801  0.5774
  766MOL0     H 3348   9.053   1.794   8.103  4.2081  1.9295  1.2633
  766MOL0     H 3349   8.896   1.898   7.863  2.9065 -0.9482 -0.8123
  766MOL0     H 3350   8.820   1.851   8.016  0.0357 -0.1318  0.4522
  766MOL0     H 3351   8.991   1.663   7.832 -0.5232 -2.6571 -0.0355
  766MOL0     H 3352   8.943   1.631   7.999  2.3816 -0.7372 -1.4857
  766MOL0     H 3353   8.736   1.689   7.780 -1.9911 -1.8371 -0.2414
  766MOL0     H 3354   8.805   1.534   7.837  2.4872 -1.6121  4.6587
  766MOL0     H 3355   8.724   1.558   8.050  1.5249 -1.3516 -2.9862
  766MOL0     H 3356   8.642   1.713   8.019 -0.3388 -0.1350  0.6393
  766MOL0     H 3357   8.583   1.460   7.861  1.3732  0.8185  0.8636
  766MOL0     H 3358   8.473   1.605   7.880 -2.7142 -1.6215  0.9741
  766MOL0     H 3359   8.399   1.408   8.011 -1.1453 -0.5734  3.4292
  766MOL0     H 3360   8.555   1.408   8.106  0.5442 -0.0815 -0.5147
  766MOL0     H 3361   8.245   1.612   8.062  2.5227 -0.5025 -2.2078
  766MOL0     H 3362   8.084   1.674   8.307 -3.9539  5.5935  0.9052
  766MOL0     H 3363   8.195   1.737   8.427 -0.7259 -0.7827 -0.2138
  766MOL0     H 3364   8.143   1.869   8.135  2.6449 -2.1357  0.4121
  766MOL0     H 3365   8.043   1.904   8.269 -1.3206 -1.2199  0.0265
  766MOL0     H 3366   8.198   2.014   8.387  1.9172 -2.4914  0.3136
  766MOL0     H 3367   8.203   2.080   8.226 -0.2133 -1.4763 -1.2101
  766MOL0     H 3368   8.428   1.933   8.206 -1.3504  0.2126 -0.1413
  766MOL0     H 3369   8.402   1.893   8.370 -2.3896  0.5825  1.4955
  766MOL0     H 3370   8.554   2.310   8.414  1.6804  2.1620  1.9307
  766MOL0     H 3371   8.541   2.408   8.636 -1.5809 -0.1967  0.9647
  766MOL0     H 3372   8.108   2.199   9.024 -0.4467  2.5241 -2.2620
  766MOL0     H 3373   7.996   2.288   9.219 -0.6340  4.4628 -0.2052
  766MOL0     H 3374   8.163   2.595   9.524  0.6858  1.9934 -1.7392
  766MOL0     H 3375   8.123   2.641   9.362  1.8417 -2.8817 -3.1190
  766MOL0     H 3376   7.883   2.584   9.415  0.6248  0.9404  0.0435
  766MOL0     H 3377   7.939   2.561   9.586 -0.9454  0.8765  0.5121
  766MOL0     H 3378   7.946   2.790   9.627  3.7271 -1.7274  2.4535
  766MOL0     H 3379   8.077   2.804   9.526 -1.0319  1.6007  1.1992
  766MOL0     H 3380   7.796   2.779   9.410  0.6061  0.0580  0.9688
  766MOL0     H 3381   7.943   2.816   9.325  1.4114  0.1610  1.1731
  766MOL0     H 3382   7.986   3.009   9.498  0.0930 -0.8510  0.1038
  766MOL0     H 3383   7.807   2.989   9.524 -0.9655 -1.7154 -1.0814
  766MOL0     H 3384   7.925   3.050   9.257 -2.6573 -0.8553 -2.0872
  766MOL0     H 3385   7.757   3.026   9.289  0.4651  1.5340 -1.7254
  766MOL0     H 3386   7.796   3.217   9.474  3.6710  0.9998  0.6436
  766MOL0     H 3387   7.735   3.238   9.307  0.8252 -0.4937 -0.8814
  766MOL0     H 3388   7.915   3.399   9.385 -1.6722  0.3884 -0.1010
  766MOL0     H 3389   8.020   3.255   9.370  1.0511  0.7573 -0.9625
  766MOL0     H 3390   8.359   2.481   9.326 -0.4810  1.3791 -0.2508
  766MOL0     H 3391   8.455   2.434   9.114 -0.7196  2.3612 -1.8350
  766MOL0     H 3392   8.386   2.028   8.785 -0.9774  0.5429  0.6646
  766MOL0     H 3393   8.374   1.944   8.561 -0.0036 -0.7373  6.5830
  766MOL0     H 3394   9.179   2.139   8.011  2.4681 -0.3755 -1.9133
  766MOL0     H 3395   9.266   2.298   8.153  2.2844 -0.0981 -0.5664
  766MOL0     H 3396   9.571   2.515   8.339 -0.9545  2.5543 -1.2814
  766MOL0     H 3397   9.635   2.701   8.452 -1.1360  1.4254 -0.9283
  766MOL0     H 3398   9.660   2.855   8.866  0.0257  3.0725  0.0749
  766MOL0     H 3399   9.517   2.760   8.892  1.8088  2.5734  2.7882
  766MOL0     H 3400   9.416   2.948   8.911 -2.3559  0.9176 -0.8858
  766MOL0     H 3401   9.391   2.936   8.738 -0.2444 -0.1082  1.2218
  766MOL0     H 3402   9.485   3.147   8.745  1.4171  2.1649  1.1480
  766MOL0     H 3403   9.640   3.067   8.741  1.1231  1.6453  1.4622
  766MOL0     H 3404   9.476   3.146   8.993  1.4914 -1.4272  1.7411
  766MOL0     H 3405   9.638   3.089   8.999  2.0423  1.6230 -0.2536
  766MOL0     H 3406   9.721   3.474   8.961  0.4331 -0.4640 -0.1750
  766MOL0     H 3407   9.387   2.625   8.787 -2.0380 -2.9123  0.7848
  766MOL0     H 3408   9.274   2.443   8.812 -1.0309  0.2278  0.0964
  766MOL0     H 3409   9.169   2.418   8.662  1.4482  0.8442 -4.3923
  766MOL0     H 3410   9.272   2.294   8.714 -3.0745  0.2594  0.0442
  767MOL0     O 3411   4.542   4.565  11.501  0.6703 -0.2502  0.7004
  767MOL0     C 3412   4.503   4.501  11.590 -0.3895  0.0827 -0.0609
  767MOL0     O 3413   4.438   4.378  11.581  0.1529 -0.1816 -0.9672
  767MOL0     C 3414   4.453   4.297  11.472 -0.4620 -0.3387  0.2646
  767MOL0     C 3415   4.341   4.266  11.410  0.5426  0.3834  0.3401
  767MOL0     C 3416   4.347   4.162  11.305  0.5413 -0.0958  0.5364
  767MOL0     C 3417   4.471   4.115  11.268  0.4258  0.5914 -0.6417
  767MOL0     O 3418   4.495   4.020  11.165  0.8778 -0.1208  0.4345
  767MOL0     C 3419   4.411   4.023  11.047  0.8131 -0.1031  0.7073
  767MOL0     C 3420   4.433   4.147  10.959 -0.1658 -0.4716  0.3249
  767MOL0     C 3421   4.545   4.127  10.848 -0.3394 -0.6150 -0.7205
  767MOL0     C 3422   4.573   4.250  10.759  0.7233 -0.1845  0.2951
  767MOL0     C 3423   4.686   4.227  10.655  0.7845 -0.3772 -1.0918
  767MOL0     C 3424   4.762   4.355  10.620  0.2910 -0.3086  0.5990
  767MOL0     C 3425   4.842   4.325  10.489  0.4548 -0.3499  0.2181
  767MOL0     C 3426   4.980   4.264  10.522 -0.3642  1.1776  0.1989
  767MOL0     N 3427   5.067   4.357  10.584 -0.4895 -0.2163  0.7711
  767MOL0     C 3428   5.147   4.341  10.694 -0.0170  0.4156  0.5648
  767MOL0     C 3429   5.231   4.447  10.700  0.6460 -0.2878  0.4869
  767MOL0     C 3430   5.349   4.445  10.790 -0.5574 -0.1169  0.9494
  767MOL0     C 3431   5.312   4.527  10.913 -0.8966  0.4720 -0.5439
  767MOL0     C 3432   5.443   4.567  10.989  1.3205 -0.2076 -0.3341
  767MOL0     C 3433   5.510   4.457  11.070 -1.0581  0.5265  0.4121
  767MOL0     O 3434   5.426   4.408  11.173  0.7869 -0.0985  0.3512
  767MOL0     C 3435   5.429   4.282  11.232 -0.0167  0.2627  1.1007
  767MOL0     C 3436   5.340   4.262  11.338 -0.7033 -0.7838  0.4766
  767MOL0     C 3437   5.340   4.149  11.418  0.9153  0.2426  0.2706
  767MOL0     C 3438   5.427   4.044  11.378 -0.4712  0.2905  0.0964
  767MOL0     C 3439   5.429   3.916  11.450 -0.3877  0.7488 -0.7118
  767MOL0     O 3440   5.522   3.824  11.406 -1.0659 -0.2474 -0.2926
  767MOL0     C 3441   5.558   3.716  11.487 -0.6565  0.2284 -0.8814
  767MOL0     C 3442   5.629   3.742  11.603  0.4846  0.3627 -0.0458
  767MOL0     C 3443   5.634   3.649  11.708 -1.0127 -0.3460  2.0009
  767MOL0     C 3444   5.572   3.518  11.690  0.3825  0.1957  0.3107
  767MOL0     O 3445   5.555   3.427  11.795 -0.3292 -0.5859  1.0380
  767MOL0     C 3446   5.531   3.490  11.924  0.5695 -0.1070  0.6274
  767MOL0     C 3447   5.528   3.381  12.033 -0.1164  0.4835 -0.6615
  767MOL0     C 3448   5.426   3.414  12.150 -1.3694 -0.2429  0.0933
  767MOL0     C 3449   5.416   3.285  12.242  0.2601  0.7451  0.1645
  767MOL0     C 3450   5.363   3.322  12.387  0.3313  0.4773 -0.5348
  767MOL0     C 3451   5.214   3.347  12.387  0.6376 -0.5612 -0.3379
  767MOL0     C 3452   5.156   3.393  12.521  0.5295 -0.4831 -0.6441
  767MOL0     C 3453   5.038   3.485  12.502  0.0273  0.5217 -0.5892
  767MOL0    Cl 3454   4.985   3.572  12.644  0.6399 -0.2677  0.1582
  767MOL0     C 3455   5.520   3.487  11.568  0.0527  0.6097  0.3611
  767MOL0     C 3456   5.528   3.580  11.461  0.3643  0.6679 -0.7990
  767MOL0     O 3457   5.378   3.909  11.563 -0.0598  0.0036 -0.2900
  767MOL0     C 3458   5.519   4.060  11.272 -0.5196  0.0002 -0.0113
  767MOL0     C 3459   5.525   4.184  11.205 -0.2558  0.4756  0.1693
  767MOL0     N 3460   5.174   4.544  10.613 -0.0653  0.0492 -0.3933
  767MOL0     N 3461   5.087   4.481  10.539  0.2672 -0.7087  0.3931
  767MOL0     C 3462   4.580   4.148  11.343  0.3596 -0.9423 -0.2143
  767MOL0     C 3463   4.578   4.245  11.443 -0.0449  0.7090  0.6289
  767MOL0     C 3464   4.510   4.560  11.724  0.9858 -1.1531  0.4758
  767MOL0     C 3465   4.530   4.697  11.739  0.2014 -0.8144 -0.3165
  767MOL0     C 3466   4.537   4.756  11.865  0.6594  0.0201 -0.4260
  767MOL0     C 3467   4.531   4.682  11.977  0.3100 -0.7186 -0.2575
  767MOL0     O 3468   4.532   4.754  12.093 -0.0101  0.1659  0.4784
  767MOL0     C 3469   4.577   4.707  12.224 -0.0634  0.4469 -0.0972
  767MOL0     C 3470   4.515   4.801  12.327 -0.2304  0.0710 -0.6219
  767MOL0     C 3471   4.367   4.802  12.339 -0.0949 -0.2956  0.6220
  767MOL0     C 3472   4.319   4.948  12.313 -0.9975 -0.0096 -0.4179
  767MOL0     C 3473   4.178   4.953  12.333 -0.8662 -0.8771  0.0560
  767MOL0     C 3474   4.067   4.985  12.358 -1.5135 -0.9604  0.2002
  767MOL0     C 3475   4.523   4.542  11.965  0.6648 -0.5490  0.8608
  767MOL0     C 3476   4.505   4.478  11.840 -0.2757 -0.4173 -0.4764
  767MOL0     C 3477   4.519   4.322  11.829  0.4011 -0.4054  1.3554
  767MOL0     H 3478   4.252   4.325  11.431 -1.8090  0.0886 -6.3044
  767MOL0     H 3479   4.250   4.173  11.258 -0.3756  2.7903  2.8195
  767MOL0     H 3480   4.423   3.930  10.991  2.1644 -0.1145  0.9676
  767MOL0     H 3481   4.307   4.034  11.078  0.4486 -0.3666 -0.3739
  767MOL0     H 3482   4.456   4.234  11.022 -2.6733  1.9557 -1.8680
  767MOL0     H 3483   4.348   4.161  10.892 -1.8685 -3.8939  1.5613
  767MOL0     H 3484   4.502   4.048  10.786 -1.6941  0.5049 -1.2655
  767MOL0     H 3485   4.634   4.096  10.904  1.3901  4.3999 -0.1783
  767MOL0     H 3486   4.484   4.281  10.704  2.0513  0.9553 -1.2904
  767MOL0     H 3487   4.583   4.332  10.831 -2.2211 -0.5231  1.2235
  767MOL0     H 3488   4.757   4.154  10.695 -2.4403 -3.4912 -0.5970
  767MOL0     H 3489   4.636   4.166  10.579 -2.1995 -1.7961  1.7273
  767MOL0     H 3490   4.684   4.429  10.601 -1.0335 -0.9934  2.8779
  767MOL0     H 3491   4.818   4.395  10.705 -0.5278  1.8756  0.1590
  767MOL0     H 3492   4.861   4.427  10.457 -0.7702 -0.3692 -0.6579
  767MOL0     H 3493   4.789   4.270  10.411  0.6758  4.7443 -4.0741
  767MOL0     H 3494   4.974   4.167  10.573 -0.5960  0.5084 -1.0624
  767MOL0     H 3495   5.027   4.243  10.425  0.8620  1.0124  0.8019
  767MOL0     H 3496   5.151   4.250  10.753 -3.7736 -0.9333 -1.0093
  767MOL0     H 3497   5.375   4.339  10.800  1.3567  0.0527 -1.3633
  767MOL0     H 3498   5.430   4.484  10.728 -0.6930  0.4617  1.1319
  767MOL0     H 3499   5.266   4.623  10.884  1.0722  2.3924  2.1264
  767MOL0     H 3500   5.253   4.468  10.984  1.0047 -0.7515  0.0793
  767MOL0     H 3501   5.412   4.651  11.052 -0.3395 -1.0329  0.0076
  767MOL0     H 3502   5.518   4.591  10.914  0.1910 -4.2665 -3.1125
  767MOL0     H 3503   5.596   4.493  11.128 -1.8596  2.2378  0.6086
  767MOL0     H 3504   5.541   4.386  10.994 -2.2830  1.8902 -1.4452
  767MOL0     H 3505   5.272   4.340  11.372  1.8531  1.2500  1.2725
  767MOL0     H 3506   5.271   4.130  11.499 -1.1209 -0.9791 -1.6258
  767MOL0     H 3507   5.668   3.843  11.607 -0.9309  0.8949  1.3184
  767MOL0     H 3508   5.680   3.682  11.801  2.6466  2.4389 -0.5035
  767MOL0     H 3509   5.603   3.565  11.958  1.1161  0.5600 -1.8162
  767MOL0     H 3510   5.430   3.529  11.905  0.5622  0.4959  1.8217
  767MOL0     H 3511   5.505   3.287  11.982  4.7558 -1.2921 -0.1028
  767MOL0     H 3512   5.629   3.363  12.070 -0.4935  0.2495  0.2896
  767MOL0     H 3513   5.468   3.501  12.200 -0.0873 -0.8829  0.1713
  767MOL0     H 3514   5.327   3.426  12.104 -1.8316 -3.7927 -0.1948
  767MOL0     H 3515   5.515   3.243  12.261 -0.6847 -0.8122  2.0572
  767MOL0     H 3516   5.364   3.203  12.192  0.2767 -1.4512  3.4006
  767MOL0     H 3517   5.411   3.410  12.431  0.1213  1.1623 -1.6463
  767MOL0     H 3518   5.387   3.228  12.438 -0.3613 -0.3877 -1.7482
  767MOL0     H 3519   5.202   3.422  12.309  1.7078  2.2655  2.0580
  767MOL0     H 3520   5.155   3.257  12.365 -0.2831  0.3978 -1.8980
  767MOL0     H 3521   5.227   3.437  12.591 -3.4279 -1.0235  4.2984
  767MOL0     H 3522   5.133   3.307  12.586  0.9574 -0.2367 -0.1630
  767MOL0     H 3523   5.071   3.561  12.431  3.0476 -1.0493 -1.0198
  767MOL0     H 3524   4.952   3.440  12.452 -0.7052  0.6290  0.5286
  767MOL0     H 3525   5.487   3.384  11.562  4.4880 -1.0349 -0.0517
  767MOL0     H 3526   5.481   3.550  11.368 -1.2856 -0.3143  0.2953
  767MOL0     H 3527   5.592   3.985  11.245  0.0567  0.4196  0.3376
  767MOL0     H 3528   5.593   4.192  11.121 -2.1897 -0.7510 -1.6284
  767MOL0     H 3529   4.674   4.102  11.314 -0.1007 -1.1299 -1.4902
  767MOL0     H 3530   4.656   4.277  11.510 -1.1711  0.2447  2.2103
  767MOL0     H 3531   4.546   4.771  11.661 -2.2011  2.5157  2.0043
  767MOL0     H 3532   4.526   4.864  11.859 -1.3113 -0.2198 -2.4768
  767MOL0     H 3533   4.684   4.711  12.248 -0.5627  0.5136  2.3927
  767MOL0     H 3534   4.539   4.607  12.246  0.8414  0.5305  2.1356
  767MOL0     H 3535   4.554   4.901  12.307  1.6236 -0.7115 -1.0802
  767MOL0     H 3536   4.564   4.788  12.423  0.2174  1.5822 -0.6201
  767MOL0     H 3537   4.326   4.757  12.430  2.5414  0.1664  2.1435
  767MOL0     H 3538   4.323   4.744  12.258  2.0000 -4.1505  2.0051
  767MOL0     H 3539   4.375   5.020  12.373  0.6072 -2.2903  0.9742
  767MOL0     H 3540   4.338   4.978  12.210  0.0182  0.8003 -0.0120
  767MOL0     H 3541   3.969   5.009  12.392 -0.7240  0.9100  1.3055
  767MOL0     H 3542   4.503   4.482  12.054 -1.7732 -1.4297 -0.1951
  767MOL0     H 3543   4.598   4.291  11.761 -0.1717 -4.2725  2.2436
  767MOL0     H 3544   4.529   4.276  11.927 -0.2604 -1.5295  0.9172
  767MOL0     H 3545   4.426   4.284  11.785  0.3051 -0.0624  1.2536
  768MOL0     O 3546   3.725   2.717  11.310 -0.4482  0.9144  0.8007
  768MOL0     C 3547   3.752   2.729  11.424  0.0506 -0.7867 -0.2006
  768MOL0     O 3548   3.778   2.630  11.513  0.6706 -0.2622  0.8184
  768MOL0     C 3549   3.782   2.505  11.453  0.8234 -0.3006 -0.3513
  768MOL0     C 3550   3.898   2.425  11.434 -0.3407 -0.3654 -0.1001
  768MOL0     C 3551   3.895   2.299  11.378 -0.7531  0.0831  0.1921
  768MOL0     C 3552   3.781   2.236  11.345  0.2333 -0.4194  0.0573
  768MOL0     O 3553   3.770   2.104  11.313 -0.5876 -0.2549  0.1048
  768MOL0     C 3554   3.765   2.073  11.177  0.1228 -0.3888 -0.6340
  768MOL0     C 3555   3.908   2.068  11.126  0.3326  0.3164 -1.1051
  768MOL0     C 3556   3.966   1.947  11.184  0.1662  0.6490  1.0382
  768MOL0     C 3557   4.120   1.937  11.141 -0.4863  0.8217  0.1640
  768MOL0     C 3558   4.181   1.814  11.202  0.5279 -0.1936 -0.6001
  768MOL0     C 3559   4.336   1.828  11.206  0.0120 -0.5264  1.1145
  768MOL0     C 3560   4.372   1.904  11.328  0.6740 -0.2606 -0.4709
  768MOL0     C 3561   4.517   1.893  11.358  0.1295  0.1096  0.0069
  768MOL0     N 3562   4.538   1.964  11.489 -0.1917 -0.1922  0.2610
  768MOL0     C 3563   4.476   1.935  11.608  0.0676  0.4783 -0.3623
  768MOL0     C 3564   4.500   2.035  11.697 -0.5261  0.0219  0.1603
  768MOL0     C 3565   4.483   2.043  11.842 -0.3164  0.8366 -0.6261
  768MOL0     C 3566   4.367   2.131  11.888 -0.3256 -0.6456  0.6899
  768MOL0     C 3567   4.245   2.062  11.953 -0.1510 -0.1714 -0.0662
  768MOL0     C 3568   4.146   1.999  11.843 -0.7233  0.0668  0.2585
  768MOL0     O 3569   4.034   1.957  11.908  0.8919  0.9229 -0.5962
  768MOL0     C 3570   3.918   1.934  11.840  0.8018  0.3626  1.0349
  768MOL0     C 3571   3.915   1.939  11.703 -0.4228  0.0172 -0.0408
  768MOL0     C 3572   3.793   1.937  11.628  0.4618 -0.0469 -0.4599
  768MOL0     C 3573   3.675   1.894  11.695  0.9786  0.4528 -0.1681
  768MOL0     C 3574   3.546   1.866  11.631  0.5889  0.8135  0.2744
  768MOL0     O 3575   3.546   1.858  11.491 -0.6908 -1.0475  0.1224
  768MOL0     C 3576   3.437   1.814  11.423  0.3693  1.3548 -0.1910
  768MOL0     C 3577   3.376   1.683  11.458  0.1443  0.3713  0.4877
  768MOL0     C 3578   3.275   1.625  11.388 -0.2708 -0.4953  0.1819
  768MOL0     C 3579   3.214   1.704  11.289  0.3427 -1.3204 -0.6173
  768MOL0     O 3580   3.104   1.669  11.218 -0.2724  0.4047 -0.3361
  768MOL0     C 3581   3.008   1.587  11.280 -0.4859  0.0599  0.2925
  768MOL0     C 3582   2.960   1.630  11.414  0.8726 -0.2241  0.0344
  768MOL0     C 3583   2.877   1.766  11.401 -0.1974 -0.0263  0.1967
  768MOL0     C 3584   2.777   1.794  11.513  0.7346  0.9870 -0.3587
  768MOL0     C 3585   2.641   1.728  11.472 -0.6531  0.0956 -0.1017
  768MOL0     C 3586   2.537   1.739  11.573  0.0541  0.5469  0.9325
  768MOL0     C 3587   2.415   1.670  11.507 -0.1906 -0.1657 -0.2575
  768MOL0     C 3588   2.274   1.683  11.574  0.3891 -0.3999  0.2963
  768MOL0    Cl 3589   2.261   1.605  11.735 -0.2501  0.0302  0.2558
  768MOL0     C 3590   3.272   1.833  11.260  0.2084  0.8863 -0.3710
  768MOL0     C 3591   3.385   1.881  11.320  0.0240  0.0657 -0.2329
  768MOL0     O 3592   3.451   1.836  11.700 -0.3810 -0.0760 -0.0455
  768MOL0     C 3593   3.678   1.890  11.840  0.5607 -0.2352  0.1169
  768MOL0     C 3594   3.797   1.911  11.906 -0.7785  0.3163  0.5139
  768MOL0     N 3595   4.547   2.134  11.610 -0.2885 -1.0016  0.4537
  768MOL0     N 3596   4.574   2.092  11.489  0.2497  0.2830 -0.6593
  768MOL0     C 3597   3.665   2.308  11.362  0.3602  0.4520 -0.1333
  768MOL0     C 3598   3.666   2.436  11.423 -0.2298 -0.0122  0.9601
  768MOL0     C 3599   3.761   2.862  11.474  0.5412 -0.6622 -0.6033
  768MOL0     C 3600   3.882   2.892  11.538 -0.0163 -0.5366 -0.3595
  768MOL0     C 3601   3.897   3.017  11.601 -0.0793 -0.9099  0.5630
  768MOL0     C 3602   3.797   3.117  11.600  0.2205  0.0271  0.3799
  768MOL0     O 3603   3.801   3.248  11.643  0.0516 -0.0634 -0.0001
  768MOL0     C 3604   3.932   3.287  11.697  0.4524  0.5994  0.8011
  768MOL0     C 3605   4.008   3.351  11.577  0.0367 -0.0601 -0.5275
  768MOL0     C 3606   4.135   3.416  11.640  0.0386  0.1256  0.1989
  768MOL0     C 3607   4.220   3.506  11.544  0.0686 -0.5077 -0.3119
  768MOL0     C 3608   4.226   3.435  11.418 -0.2626  0.4804 -1.1483
  768MOL0     C 3609   4.233   3.368  11.318  0.2689 -0.5830 -0.0409
  768MOL0     C 3610   3.682   3.087  11.543  0.4282 -0.1037  0.1918
  768MOL0     C 3611   3.655   2.957  11.487  0.5740  0.3875  0.2810
  768MOL0     C 3612   3.526   2.932  11.422 -0.4789  0.0858  1.0989
  768MOL0     H 3613   3.992   2.475  11.458 -0.6490 -0.7376  2.1144
  768MOL0     H 3614   3.990   2.248  11.361 -0.5151  0.3138  0.7762
  768MOL0     H 3615   3.724   1.973  11.164  1.1027 -1.5518  3.5980
  768MOL0     H 3616   3.707   2.145  11.118  0.1994  1.3960  1.3430
  768MOL0     H 3617   3.962   2.160  11.150  1.3055 -0.4336 -0.3891
  768MOL0     H 3618   3.900   2.076  11.017 -2.0903  0.5931 -0.9649
  768MOL0     H 3619   3.912   1.854  11.165 -1.1133  0.6826  3.9535
  768MOL0     H 3620   3.977   1.956  11.293  1.7615  1.0853  0.8733
  768MOL0     H 3621   4.106   1.916  11.034 -0.4984  1.1174  0.1076
  768MOL0     H 3622   4.160   2.035  11.165  2.7921 -0.4007  0.1130
  768MOL0     H 3623   4.148   1.798  11.305 -2.2073 -1.0670 -1.5235
  768MOL0     H 3624   4.152   1.724  11.148  1.9818 -0.7825 -0.4494
  768MOL0     H 3625   4.379   1.727  11.209  0.7567 -0.4238 -2.2754
  768MOL0     H 3626   4.373   1.880  11.118 -3.0077 -1.2017 -0.6970
  768MOL0     H 3627   4.314   1.863  11.411  0.7381 -1.3794 -0.9553
  768MOL0     H 3628   4.332   2.006  11.325  1.6305  0.1205 -0.3380
  768MOL0     H 3629   4.550   1.792  11.383  2.0867  1.2970  2.7120
  768MOL0     H 3630   4.579   1.940  11.281  0.3376 -0.8280 -0.4028
  768MOL0     H 3631   4.441   1.835  11.633 -2.8073  1.4939  0.0457
  768MOL0     H 3632   4.484   1.947  11.894  1.5058  1.3232  0.3406
  768MOL0     H 3633   4.576   2.092  11.873  0.7345 -0.2071 -1.9993
  768MOL0     H 3634   4.421   2.194  11.960  2.6754  0.5460 -2.3675
  768MOL0     H 3635   4.340   2.201  11.809 -2.8875  1.0447  2.8906
  768MOL0     H 3636   4.186   2.131  12.013 -0.8900 -0.7394 -0.1225
  768MOL0     H 3637   4.284   1.979  12.012  1.2253 -0.7939 -1.7702
  768MOL0     H 3638   4.193   1.906  11.810  0.0887  0.7713 -0.6732
  768MOL0     H 3639   4.121   2.056  11.752 -1.9958 -1.9451 -0.7175
  768MOL0     H 3640   3.999   1.959  11.638  1.0499 -2.5154  0.9419
  768MOL0     H 3641   3.797   1.959  11.521  4.2722  1.2043 -0.2189
  768MOL0     H 3642   3.438   1.617  11.517  1.3939  0.3894 -0.7654
  768MOL0     H 3643   3.249   1.520  11.394 -1.2480 -0.3216 -0.6927
  768MOL0     H 3644   2.933   1.581  11.201  0.7048  3.8521 -1.3756
  768MOL0     H 3645   3.056   1.490  11.294  1.6851  0.7553 -1.6462
  768MOL0     H 3646   2.890   1.555  11.453 -1.9538  1.2412 -1.8604
  768MOL0     H 3647   3.036   1.654  11.489 -1.9367  5.7610  1.5353
  768MOL0     H 3648   2.950   1.847  11.399  0.3053 -0.3859  1.9770
  768MOL0     H 3649   2.827   1.786  11.305  0.1136 -0.6972 -0.1052
  768MOL0     H 3650   2.765   1.902  11.524 -0.9001  0.8570 -0.5489
  768MOL0     H 3651   2.808   1.742  11.604 -0.4773 -2.3407 -1.6808
  768MOL0     H 3652   2.660   1.624  11.444  0.3606  0.8605 -2.5362
  768MOL0     H 3653   2.608   1.782  11.383 -0.7897  3.0161  1.6033
  768MOL0     H 3654   2.575   1.689  11.662  3.7105 -1.6090 -1.5332
  768MOL0     H 3655   2.518   1.844  11.594  2.0256  0.8918  1.1665
  768MOL0     H 3656   2.430   1.563  11.491 -1.9713 -0.2301 -1.9404
  768MOL0     H 3657   2.397   1.718  11.410  0.6269 -1.7139 -1.2048
  768MOL0     H 3658   2.262   1.791  11.579  2.7765 -0.0290 -0.7253
  768MOL0     H 3659   2.206   1.632  11.504  3.4716 -2.5247 -1.3821
  768MOL0     H 3660   3.239   1.892  11.175  0.1571  0.7227 -0.4656
  768MOL0     H 3661   3.432   1.973  11.285 -0.4352  0.1839 -0.5504
  768MOL0     H 3662   3.591   1.858  11.897  1.0871  0.6977  1.4928
  768MOL0     H 3663   3.809   1.899  12.013  5.0162 -0.8461  0.0658
  768MOL0     H 3664   3.573   2.260  11.331  1.1364 -0.4262 -1.1795
  768MOL0     H 3665   3.572   2.489  11.438 -0.6842  0.2917 -2.1982
  768MOL0     H 3666   3.961   2.822  11.564  2.7556  1.8476 -1.8310
  768MOL0     H 3667   3.989   3.034  11.656 -2.0350  0.4910  3.6698
  768MOL0     H 3668   3.976   3.222  11.774 -2.1393 -0.9131  1.1145
  768MOL0     H 3669   3.913   3.377  11.755  0.9519  2.6526 -2.0158
  768MOL0     H 3670   3.956   3.436  11.531  1.8182  0.7524 -1.1212
  768MOL0     H 3671   4.030   3.277  11.500 -0.0206 -0.9234  0.2757
  768MOL0     H 3672   4.211   3.349  11.681  1.8715  1.8297 -0.2394
  768MOL0     H 3673   4.114   3.467  11.734 -1.2608 -2.7729  1.5826
  768MOL0     H 3674   4.163   3.597  11.525 -1.5007 -0.9141  1.9080
  768MOL0     H 3675   4.320   3.532  11.581 -0.6465  0.1177  1.2957
  768MOL0     H 3676   4.225   3.305  11.232  1.9675  0.3584 -0.9416
  768MOL0     H 3677   3.595   3.151  11.527  1.0310  0.5636 -0.5110
  768MOL0     H 3678   3.505   2.826  11.409 -1.4134  0.4399 -0.5302
  768MOL0     H 3679   3.445   2.975  11.482 -0.2749  0.0574  1.3995
  768MOL0     H 3680   3.524   3.004  11.339 -1.5409  5.0200  4.8988
  769MOL0     O 3681   9.490   4.075   1.588 -0.0514  0.2131  1.0600
  769MOL0     C 3682   9.463   4.117   1.701  0.3178 -0.5425  0.1573
  769MOL0     O 3683   9.535   4.221   1.763 -0.8175  0.3082  0.0173
  769MOL0     C 3684   9.670   4.234   1.758  0.0604 -0.1357  1.0061
  769MOL0     C 3685   9.767   4.137   1.748 -0.4654  0.5199 -0.2887
  769MOL0     C 3686   9.895   4.179   1.753  0.3483  0.2431  0.7981
  769MOL0     C 3687   9.933   4.309   1.791  0.2729 -0.4460 -0.5394
  769MOL0     O 3688  10.071   4.335   1.792  0.4705 -0.7366  0.2780
  769MOL0     C 3689  10.124   4.465   1.801 -0.3472  0.1700 -0.0037
  769MOL0     C 3690  10.126   4.513   1.946 -0.8322  0.0343  1.1057
  769MOL0     C 3691  10.208   4.645   1.961 -0.1319 -0.6483  0.6256
  769MOL0     C 3692  10.181   4.693   2.104 -0.0296 -0.5127 -0.4385
  769MOL0     C 3693  10.262   4.820   2.140 -0.2712 -0.8250  0.1900
  769MOL0     C 3694  10.213   4.945   2.060 -0.0976  1.5322 -0.2808
  769MOL0     C 3695  10.278   5.063   2.137  0.2674  0.2427  0.0808
  769MOL0     C 3696  10.248   5.188   2.068 -0.4546 -0.4465  0.4378
  769MOL0     N 3697  10.267   5.308   2.151 -0.4323 -0.3673  0.4944
  769MOL0     C 3698  10.220   5.332   2.279 -0.6197  0.5091  0.0160
  769MOL0     C 3699  10.224   5.471   2.292 -0.1976 -1.3355  0.4935
  769MOL0     C 3700  10.186   5.557   2.411  0.0619  0.1787  0.0094
  769MOL0     C 3701  10.041   5.603   2.402 -0.0797  1.1183  0.2368
  769MOL0     C 3702  10.016   5.657   2.543  0.4821  0.3075 -0.6129
  769MOL0     C 3703   9.880   5.621   2.587 -0.2185  0.7364 -0.7488
  769MOL0     O 3704   9.852   5.479   2.587 -0.4193 -0.6919  0.6996
  769MOL0     C 3705   9.915   5.408   2.687  0.7103 -0.0959 -1.1477
  769MOL0     C 3706   9.954   5.280   2.655 -0.5424  0.7079 -0.1693
  769MOL0     C 3707   9.991   5.185   2.756 -0.7483  0.1608 -0.6353
  769MOL0     C 3708   9.989   5.231   2.887  0.2915 -0.0361 -0.7370
  769MOL0     C 3709  10.048   5.142   2.991 -0.0699 -0.2322  0.9432
  769MOL0     O 3710  10.054   4.999   2.959 -0.2052 -0.2925 -0.9040
  769MOL0     C 3711  10.131   4.924   3.047 -0.7738  0.3749  0.0057
  769MOL0     C 3712  10.267   4.944   3.073  0.3246  0.6837 -0.1009
  769MOL0     C 3713  10.330   4.855   3.160 -0.9508 -0.1435  0.1035
  769MOL0     C 3714  10.266   4.744   3.205 -0.0990  0.3438  0.1964
  769MOL0     O 3715  10.345   4.649   3.268 -0.7051 -0.0551 -0.6386
  769MOL0     C 3716  10.270   4.537   3.320 -0.4403  1.6077  0.2151
  769MOL0     C 3717  10.378   4.434   3.361  0.7424 -0.3618 -0.4449
  769MOL0     C 3718  10.311   4.297   3.391  0.3232 -0.1021  0.1855
  769MOL0     C 3719  10.410   4.207   3.468  0.3315  0.1141 -0.4633
  769MOL0     C 3720  10.511   4.116   3.395  0.0604  0.1456 -0.0802
  769MOL0     C 3721  10.428   4.014   3.311  0.6230  0.9152 -0.1159
  769MOL0     C 3722  10.499   3.893   3.246 -0.8062  0.2526  0.1237
  769MOL0     C 3723  10.527   3.906   3.101  0.3127 -0.8100 -0.5947
  769MOL0    Cl 3724  10.525   3.758   3.003 -0.0961  0.7685 -0.1783
  769MOL0     C 3725  10.128   4.729   3.189 -0.4588  0.1387 -0.8431
  769MOL0     C 3726  10.058   4.818   3.102 -0.6107  0.3802  0.2021
  769MOL0     O 3727  10.064   5.188   3.102  0.3008  0.0007 -1.1237
  769MOL0     C 3728   9.943   5.359   2.928  0.2065  0.3212 -0.2568
  769MOL0     C 3729   9.916   5.455   2.822 -0.4668  0.4235  0.4960
  769MOL0     N 3730  10.284   5.523   2.173 -0.3212  0.2757 -0.2456
  769MOL0     N 3731  10.310   5.425   2.097  0.1759 -0.2525 -0.0654
  769MOL0     C 3732   9.834   4.407   1.803 -0.2495 -0.5073  0.3344
  769MOL0     C 3733   9.702   4.371   1.784  0.2825  0.3872 -0.3936
  769MOL0     C 3734   9.330   4.087   1.752  0.8888 -0.0212  0.7652
  769MOL0     C 3735   9.304   3.946   1.746 -0.2482  0.1527  0.6302
  769MOL0     C 3736   9.209   3.888   1.837  0.1018  0.4718  1.0039
  769MOL0     C 3737   9.140   3.967   1.924 -0.1817  0.8920  0.0632
  769MOL0     O 3738   9.040   3.924   2.015 -0.0093 -0.2668  0.1934
  769MOL0     C 3739   9.026   3.788   2.053  0.0594  1.2876  0.1370
  769MOL0     C 3740   9.142   3.714   2.132  0.2422 -0.0704  0.2491
  769MOL0     C 3741   9.159   3.772   2.271  0.2744 -0.1215  1.0550
  769MOL0     C 3742   9.275   3.726   2.350  0.1973 -0.1895 -0.7562
  769MOL0     C 3743   9.286   3.576   2.345 -0.0369  0.0631  0.0058
  769MOL0     C 3744   9.291   3.457   2.322  0.0032  0.6229  0.4916
  769MOL0     C 3745   9.156   4.107   1.922  0.3860  0.1081  0.7744
  769MOL0     C 3746   9.247   4.167   1.835 -0.0177  0.7864 -0.5246
  769MOL0     C 3747   9.252   4.316   1.845 -0.5741 -0.7376 -0.8287
  769MOL0     H 3748   9.739   4.040   1.709  1.9132  0.3696 -1.8232
  769MOL0     H 3749   9.967   4.098   1.744  1.2753  1.1025  0.2617
  769MOL0     H 3750  10.228   4.462   1.768  0.2628  1.9109  1.5792
  769MOL0     H 3751  10.060   4.524   1.734 -1.3504 -2.2798 -1.3501
  769MOL0     H 3752  10.175   4.435   2.005 -0.4342 -0.9194 -0.4181
  769MOL0     H 3753  10.022   4.521   1.979 -2.3476 -1.8949 -2.5425
  769MOL0     H 3754  10.177   4.716   1.884  2.4352 -2.2430 -2.1148
  769MOL0     H 3755  10.314   4.619   1.948  0.0399 -0.5425  1.7155
  769MOL0     H 3756  10.074   4.696   2.127 -0.4712  1.4232 -2.4332
  769MOL0     H 3757  10.209   4.606   2.164 -0.9180 -1.4159 -1.2982
  769MOL0     H 3758  10.248   4.839   2.247 -1.2600 -0.7798  0.0618
  769MOL0     H 3759  10.371   4.813   2.135 -0.1940 -0.3741  1.0190
  769MOL0     H 3760  10.240   4.940   1.954 -3.6952 -2.4740 -1.2586
  769MOL0     H 3761  10.105   4.933   2.060  0.0803 -1.6146 -3.8309
  769MOL0     H 3762  10.387   5.053   2.141  0.2063  0.0528  2.7097
  769MOL0     H 3763  10.249   5.065   2.242  2.2530 -0.0808  0.6819
  769MOL0     H 3764  10.306   5.200   1.976  0.9820 -2.2869  1.0593
  769MOL0     H 3765  10.142   5.183   2.044 -0.7396 -2.8016  1.8970
  769MOL0     H 3766  10.193   5.256   2.351 -0.3037 -2.6118 -2.9222
  769MOL0     H 3767  10.186   5.488   2.496 -1.3970 -1.9246 -1.5968
  769MOL0     H 3768  10.249   5.644   2.431  2.3499 -1.7828  2.0950
  769MOL0     H 3769  10.011   5.684   2.335 -4.1736 -1.1256 -0.9640
  769MOL0     H 3770   9.986   5.510   2.387  0.9204 -0.2411  3.8573
  769MOL0     H 3771  10.029   5.765   2.554  0.6069  0.1596  1.0199
  769MOL0     H 3772  10.071   5.602   2.620 -2.0788 -0.5701  0.7136
  769MOL0     H 3773   9.818   5.657   2.504 -1.5266 -0.4384 -0.3115
  769MOL0     H 3774   9.843   5.675   2.675 -2.3501  0.5603 -1.4911
  769MOL0     H 3775   9.954   5.253   2.550  0.0179  1.6017 -0.4163
  769MOL0     H 3776  10.013   5.081   2.732 -0.7272 -0.4772  1.8582
  769MOL0     H 3777  10.326   5.024   3.028 -2.2999  1.5019 -2.4124
  769MOL0     H 3778  10.435   4.869   3.182 -1.6894  2.3563  2.6937
  769MOL0     H 3779  10.197   4.556   3.400  2.2803  0.8394  3.0703
  769MOL0     H 3780  10.210   4.490   3.241 -4.1855 -0.4245  3.8515
  769MOL0     H 3781  10.454   4.423   3.282 -0.3117 -1.9143 -1.3014
  769MOL0     H 3782  10.416   4.468   3.458 -1.2758  0.3563  0.1376
  769MOL0     H 3783  10.215   4.303   3.443  0.6903 -1.9726  1.1651
  769MOL0     H 3784  10.283   4.253   3.294  3.4098  0.2215 -0.9510
  769MOL0     H 3785  10.343   4.138   3.521 -2.1801  0.7106 -2.6636
  769MOL0     H 3786  10.469   4.270   3.536 -0.4835 -0.5200  0.8738
  769MOL0     H 3787  10.571   4.056   3.465  0.0556  1.0337  0.6991
  769MOL0     H 3788  10.579   4.173   3.330  0.8230 -1.7275 -1.0190
  769MOL0     H 3789  10.348   3.971   3.371  0.3777 -1.2305 -1.8668
  769MOL0     H 3790  10.362   4.060   3.237  0.6672  2.7578  0.9259
  769MOL0     H 3791  10.428   3.812   3.266  0.1195 -1.5187 -3.0684
  769MOL0     H 3792  10.592   3.864   3.297 -0.5260  2.6581  1.0669
  769MOL0     H 3793  10.464   3.977   3.046  0.7378 -1.9337 -2.6425
  769MOL0     H 3794  10.624   3.953   3.082 -1.3239  1.7535 -3.4625
  769MOL0     H 3795  10.074   4.650   3.240  3.4442 -0.5154  2.9312
  769MOL0     H 3796   9.956   4.797   3.073 -0.3808 -0.0833 -0.2971
  769MOL0     H 3797   9.938   5.400   3.029  2.5894 -0.9419  0.4555
  769MOL0     H 3798   9.899   5.558   2.851  1.2182  0.9114 -0.0759
  769MOL0     H 3799   9.856   4.512   1.818  0.7257  0.0850 -3.8922
  769MOL0     H 3800   9.628   4.450   1.787  0.7431  0.9456 -2.4631
  769MOL0     H 3801   9.356   3.880   1.678 -0.9339 -0.6427  0.8608
  769MOL0     H 3802   9.202   3.780   1.843 -0.8884  0.5114  0.6494
  769MOL0     H 3803   8.987   3.735   1.966  1.1596  0.3872  0.1577
  769MOL0     H 3804   8.944   3.794   2.126 -2.9385  1.7243 -3.0084
  769MOL0     H 3805   9.232   3.725   2.071  2.3155  0.3828  3.1285
  769MOL0     H 3806   9.104   3.611   2.136 -6.0671  1.9051  1.2436
  769MOL0     H 3807   9.064   3.770   2.324 -1.8182  4.0005 -1.9093
  769MOL0     H 3808   9.170   3.880   2.257  1.6375 -0.1411  1.7736
  769MOL0     H 3809   9.364   3.776   2.312 -0.3684 -1.3489 -3.8628
  769MOL0     H 3810   9.261   3.759   2.453 -1.8393  1.2861 -1.4385
  769MOL0     H 3811   9.300   3.359   2.281  2.3847  1.8485 -2.3104
  769MOL0     H 3812   9.080   4.158   1.981  1.1522  0.9399  1.0583
  769MOL0     H 3813   9.253   4.369   1.749 -3.4788  0.4254 -0.3198
  769MOL0     H 3814   9.161   4.346   1.897  0.2331 -0.7297  0.6420
  769MOL0     H 3815   9.335   4.332   1.914  0.3774 -5.2488 -0.6124
  770MOL0     O 3816   3.220   0.936   2.000  0.1915 -0.5345 -0.4730
  770MOL0     C 3817   3.110   0.940   2.048  0.7307  0.0596  0.3384
  770MOL0     O 3818   2.999   0.900   1.981 -0.2762 -0.7031 -0.3997
  770MOL0     C 3819   3.000   0.803   1.889  0.6395  0.6246 -0.0271
  770MOL0     C 3820   3.095   0.695   1.904  0.4524 -0.7741  0.2376
  770MOL0     C 3821   3.098   0.590   1.818 -0.3229 -0.9756 -0.0946
  770MOL0     C 3822   3.017   0.585   1.702 -0.3454  0.5457 -0.6018
  770MOL0     O 3823   3.015   0.476   1.612 -0.4229  0.8720  0.4499
  770MOL0     C 3824   3.012   0.349   1.686  0.1146 -0.2482 -0.6629
  770MOL0     C 3825   3.141   0.276   1.678  0.0056 -0.2825 -0.1237
  770MOL0     C 3826   3.159   0.200   1.544 -0.6633 -0.1782  0.7663
  770MOL0     C 3827   3.170   0.278   1.415  1.3178 -1.6084 -0.5128
  770MOL0     C 3828   3.285   0.378   1.419 -0.6311  0.0208  0.1137
  770MOL0     C 3829   3.290   0.463   1.291 -0.2078 -0.2841  0.6641
  770MOL0     C 3830   3.439   0.490   1.261 -0.3442  0.2393  0.0866
  770MOL0     C 3831   3.442   0.610   1.155 -0.2706  0.4331  1.2010
  770MOL0     N 3832   3.427   0.571   1.010  0.2200 -0.5500  0.4124
  770MOL0     C 3833   3.323   0.506   0.939 -0.2546 -0.6163  0.1172
  770MOL0     C 3834   3.377   0.507   0.818 -0.3278 -0.6811 -0.1644
  770MOL0     C 3835   3.306   0.453   0.699 -0.1810  0.7566 -0.0556
  770MOL0     C 3836   3.397   0.341   0.643 -0.0989 -0.7564  0.6420
  770MOL0     C 3837   3.409   0.226   0.751  0.5062  0.1247  0.6351
  770MOL0     C 3838   3.492   0.120   0.703 -0.0933  0.5840 -0.6615
  770MOL0     O 3839   3.431   0.049   0.595 -0.6649  0.3968 -0.2985
  770MOL0     C 3840   3.348  -0.055   0.619  0.3960  0.2313 -0.3935
  770MOL0     C 3841   3.263  -0.078   0.514  0.3914 -0.5951  0.5905
  770MOL0     C 3842   3.154  -0.163   0.526  0.6219 -0.0954  0.0871
  770MOL0     C 3843   3.119  -0.223   0.655 -0.2132  0.1220  0.1252
  770MOL0     C 3844   3.018  -0.326   0.662 -0.2783  0.0991  0.7016
  770MOL0     O 3845   3.044  -0.447   0.719  0.7943 -0.2228 -0.7788
  770MOL0     C 3846   2.933  -0.534   0.744  0.3616  0.9164 -0.9267
  770MOL0     C 3847   2.844  -0.589   0.644 -0.3335  1.2086  0.3221
  770MOL0     C 3848   2.746  -0.684   0.674  0.8516  0.1558  0.2921
  770MOL0     C 3849   2.730  -0.734   0.802  0.0973  0.2487 -0.9408
  770MOL0     O 3850   2.626  -0.816   0.839 -0.2701  0.0297 -1.3376
  770MOL0     C 3851   2.495  -0.792   0.798 -0.0068 -0.3568 -0.1090
  770MOL0     C 3852   2.418  -0.763   0.921  0.0302 -0.2650  0.4464
  770MOL0     C 3853   2.276  -0.701   0.910 -0.5299  0.1408 -0.5977
  770MOL0     C 3854   2.278  -0.554   0.944  0.9675  0.1823  0.2558
  770MOL0     C 3855   2.285  -0.467   0.820 -0.2046 -0.7101 -0.4473
  770MOL0     C 3856   2.426  -0.416   0.761  0.7632  0.6612 -0.4777
  770MOL0     C 3857   2.418  -0.372   0.620 -0.5143 -0.1290 -0.0253
  770MOL0     C 3858   2.558  -0.327   0.582  0.6151 -0.3038 -0.5786
  770MOL0    Cl 3859   2.562  -0.332   0.404  0.2120  0.1389  0.1691
  770MOL0     C 3860   2.812  -0.683   0.907 -0.0142 -0.1850  0.8547
  770MOL0     C 3861   2.905  -0.588   0.870 -0.3211  0.2198 -0.3190
  770MOL0     O 3862   2.914  -0.289   0.611  0.7518  0.4034  0.4600
  770MOL0     C 3863   3.218  -0.209   0.758 -0.9193 -0.6695 -0.4108
  770MOL0     C 3864   3.323  -0.121   0.742  0.1383 -1.4292 -0.2584
  770MOL0     N 3865   3.498   0.563   0.806  0.2845 -0.0420 -0.0367
  770MOL0     N 3866   3.531   0.595   0.921 -0.6348  0.5937  0.2743
  770MOL0     C 3867   2.927   0.685   1.685  0.3611  0.5043 -0.9476
  770MOL0     C 3868   2.916   0.786   1.782 -0.2151 -0.5414  0.7961
  770MOL0     C 3869   3.082   1.040   2.157 -0.7249 -0.4343  0.1433
  770MOL0     C 3870   2.961   1.103   2.170  0.0712  0.1170 -0.6180
  770MOL0     C 3871   2.935   1.193   2.273 -0.4005 -0.7211 -0.0035
  770MOL0     C 3872   3.034   1.213   2.379 -0.3012 -0.0037 -0.6625
  770MOL0     O 3873   3.010   1.282   2.497 -0.3013  0.5547  0.3157
  770MOL0     C 3874   2.874   1.318   2.524 -0.2491 -0.9684 -0.1272
  770MOL0     C 3875   2.786   1.196   2.568 -0.6541  0.4531  0.1484
  770MOL0     C 3876   2.633   1.225   2.571 -0.9176 -0.1271  0.2100
  770MOL0     C 3877   2.609   1.332   2.676  0.0207  0.1247 -0.0214
  770MOL0     C 3878   2.622   1.277   2.812 -1.2581 -0.2833 -0.1229
  770MOL0     C 3879   2.645   1.245   2.929  0.6331  0.0630 -0.4423
  770MOL0     C 3880   3.156   1.152   2.365 -1.1182 -1.3289  0.4064
  770MOL0     C 3881   3.185   1.068   2.264  0.5426 -0.4195 -0.4474
  770MOL0     C 3882   3.319   1.001   2.280  0.9323  0.3118 -0.1561
  770MOL0     H 3883   3.171   0.696   1.981  1.9769  1.0701 -1.2167
  770MOL0     H 3884   3.174   0.518   1.847 -0.0346  0.9253  5.0310
  770MOL0     H 3885   2.988   0.376   1.789 -4.8894  2.2289 -2.1728
  770MOL0     H 3886   2.933   0.278   1.658 -1.9384  1.1060  1.3342
  770MOL0     H 3887   3.165   0.197   1.750  1.2368  0.6906  0.6008
  770MOL0     H 3888   3.219   0.351   1.696  0.4404 -1.3666  3.3354
  770MOL0     H 3889   3.081   0.123   1.540  3.5147 -5.0355  1.2582
  770MOL0     H 3890   3.245   0.133   1.555  0.6686  1.1924 -0.8034
  770MOL0     H 3891   3.179   0.201   1.338  2.4831 -1.5052 -0.4910
  770MOL0     H 3892   3.079   0.335   1.393  2.4409 -0.1286 -1.5705
  770MOL0     H 3893   3.284   0.445   1.505 -0.9769  0.4777 -0.2406
  770MOL0     H 3894   3.373   0.316   1.436  0.1904  0.1771 -2.9862
  770MOL0     H 3895   3.239   0.420   1.204  0.7818  0.7327 -0.4644
  770MOL0     H 3896   3.241   0.557   1.318 -0.2675 -0.8084  2.4894
  770MOL0     H 3897   3.477   0.395   1.220 -2.6429 -1.4338  1.5598
  770MOL0     H 3898   3.495   0.513   1.352  0.3825  1.7304 -0.7139
  770MOL0     H 3899   3.356   0.676   1.173 -0.8275 -0.3222  1.3547
  770MOL0     H 3900   3.531   0.671   1.174 -0.5688  1.0711  0.5694
  770MOL0     H 3901   3.226   0.469   0.972  0.3606 -2.3533  0.0279
  770MOL0     H 3902   3.205   0.412   0.714 -0.4903  1.9069  1.2714
  770MOL0     H 3903   3.306   0.538   0.631 -1.6675 -0.0770 -1.1613
  770MOL0     H 3904   3.356   0.296   0.552  1.0630 -2.0785  0.7361
  770MOL0     H 3905   3.484   0.398   0.610 -2.4148  1.6187 -1.9602
  770MOL0     H 3906   3.307   0.190   0.769 -1.2563  1.7916 -4.4349
  770MOL0     H 3907   3.443   0.264   0.848  0.6980 -1.1313  1.0734
  770MOL0     H 3908   3.516   0.050   0.783 -1.6520 -0.1185 -0.7758
  770MOL0     H 3909   3.587   0.161   0.668 -0.4330  1.0106 -1.1006
  770MOL0     H 3910   3.288  -0.041   0.415 -1.4497 -0.6702  0.0567
  770MOL0     H 3911   3.090  -0.179   0.440  0.1233 -2.3041  0.7963
  770MOL0     H 3912   2.857  -0.549   0.543  0.1274 -0.5128 -0.3367
  770MOL0     H 3913   2.682  -0.722   0.595  1.8324  0.6694 -0.7690
  770MOL0     H 3914   2.480  -0.715   0.721 -0.3713  1.4207  1.6432
  770MOL0     H 3915   2.459  -0.883   0.749  1.1257 -0.4751 -0.7500
  770MOL0     H 3916   2.433  -0.851   0.984  1.3412  1.0035  1.9795
  770MOL0     H 3917   2.473  -0.683   0.970 -0.4452  2.0074 -2.4464
  770MOL0     H 3918   2.224  -0.729   0.818  0.7611  0.0422 -1.3171
  770MOL0     H 3919   2.228  -0.745   0.999 -0.4379  0.2768 -0.4814
  770MOL0     H 3920   2.356  -0.521   1.013  0.8406 -2.1596  1.6063
  770MOL0     H 3921   2.182  -0.536   0.994 -0.0331  0.8881 -1.8053
  770MOL0     H 3922   2.242  -0.369   0.842  1.2794 -0.3486  1.0994
  770MOL0     H 3923   2.209  -0.503   0.750 -2.4110 -0.8574  1.8609
  770MOL0     H 3924   2.446  -0.326   0.821 -2.2055  2.0911 -1.4338
  770MOL0     H 3925   2.500  -0.491   0.792 -1.5871 -1.5773  0.0559
  770MOL0     H 3926   2.343  -0.293   0.606  1.4035  1.5172 -1.6615
  770MOL0     H 3927   2.391  -0.456   0.557 -0.0826 -0.3219  0.0407
  770MOL0     H 3928   2.563  -0.225   0.621  1.0036 -0.5112 -0.0744
  770MOL0     H 3929   2.638  -0.383   0.631  0.7033  2.0947  2.2416
  770MOL0     H 3930   2.796  -0.712   1.010  2.1497 -0.2457  1.2164
  770MOL0     H 3931   2.967  -0.536   0.943 -1.7100  1.9898 -0.3190
  770MOL0     H 3932   3.212  -0.256   0.856  1.9387 -0.1255  0.1300
  770MOL0     H 3933   3.382  -0.123   0.833 -3.7698  1.7959  2.7214
  770MOL0     H 3934   2.878   0.688   1.588  1.7409  0.4862 -1.6642
  770MOL0     H 3935   2.844   0.865   1.765  0.4313 -0.2626 -0.8103
  770MOL0     H 3936   2.881   1.073   2.102  0.6820 -2.3603 -0.3388
  770MOL0     H 3937   2.833   1.232   2.268  0.2834  1.2162  0.3544
  770MOL0     H 3938   2.841   1.375   2.436  0.7052  2.3495  1.5081
  770MOL0     H 3939   2.876   1.393   2.604 -0.5960  1.4424 -2.2420
  770MOL0     H 3940   2.822   1.139   2.654 -1.2200 -1.5586 -0.8773
  770MOL0     H 3941   2.808   1.115   2.497  1.4708  0.2252  1.0172
  770MOL0     H 3942   2.588   1.130   2.601  1.5747 -1.0145  1.4176
  770MOL0     H 3943   2.590   1.266   2.479 -0.5654 -0.1812  0.0181
  770MOL0     H 3944   2.666   1.425   2.671  0.1309  0.0585 -0.0328
  770MOL0     H 3945   2.505   1.365   2.670 -1.5466 -4.2235 -0.4201
  770MOL0     H 3946   2.658   1.214   3.031  0.6673 -0.3908 -0.5830
  770MOL0     H 3947   3.232   1.185   2.434 -0.4607  1.1396 -1.3828
  770MOL0     H 3948   3.398   1.051   2.222  2.6297 -0.8465  1.0517
  770MOL0     H 3949   3.346   1.009   2.386  2.0294  0.2650 -0.4111
  770MOL0     H 3950   3.313   0.895   2.257 -0.0322  0.0041  1.3727
  771MOL0     O 3951   9.979   3.605   3.954  0.2555  1.1771 -0.7030
  771MOL0     C 3952   9.922   3.627   3.852  0.0955 -0.6502  1.2346
  771MOL0     O 3953   9.829   3.721   3.834 -0.1532  0.3801 -0.1697
  771MOL0     C 3954   9.777   3.815   3.922  0.3381 -0.1456 -0.5283
  771MOL0     C 3955   9.763   3.805   4.054  0.7282  0.4598 -0.8081
  771MOL0     C 3956   9.713   3.904   4.134  0.2731 -0.7459 -0.4840
  771MOL0     C 3957   9.685   4.031   4.072  0.6945 -0.9261  0.3776
  771MOL0     O 3958   9.648   4.131   4.159  0.3259  0.3608 -0.5475
  771MOL0     C 3959   9.555   4.220   4.102 -0.3301  0.2235  1.2546
  771MOL0     C 3960   9.509   4.319   4.214  0.2597 -0.6000 -0.3359
  771MOL0     C 3961   9.392   4.293   4.306 -0.0906 -0.1244  0.6111
  771MOL0     C 3962   9.261   4.334   4.251 -0.2259  0.4388  0.5944
  771MOL0     C 3963   9.142   4.272   4.326 -0.1890 -0.5855  0.4247
  771MOL0     C 3964   9.140   4.313   4.473  0.2242  0.3009 -0.4701
  771MOL0     C 3965   9.020   4.247   4.560  0.7860 -0.4231  0.5227
  771MOL0     C 3966   9.012   4.291   4.705 -0.5475  0.3496  0.4769
  771MOL0     N 3967   9.118   4.239   4.784  0.1189  1.3764 -0.4458
  771MOL0     C 3968   9.107   4.136   4.871  0.0479  0.3037  1.0934
  771MOL0     C 3969   9.219   4.141   4.942 -0.2652 -0.4070 -1.2995
  771MOL0     C 3970   9.243   4.056   5.067 -0.3422  0.6266  0.3514
  771MOL0     C 3971   9.360   3.955   5.048  0.1323  0.1793 -0.3707
  771MOL0     C 3972   9.389   3.889   5.184  0.1160  0.1906  0.0406
  771MOL0     C 3973   9.533   3.826   5.174  0.1371  0.3787  0.4501
  771MOL0     O 3974   9.592   3.821   5.302 -0.1158  0.5439 -0.2982
  771MOL0     C 3975   9.703   3.742   5.324  0.2473  0.8299  1.1694
  771MOL0     C 3976   9.746   3.719   5.455  0.3025  0.1182 -0.3552
  771MOL0     C 3977   9.869   3.649   5.482 -0.3781 -0.1135 -0.1861
  771MOL0     C 3978   9.957   3.629   5.377 -1.0804  0.5643  0.1304
  771MOL0     C 3979  10.098   3.582   5.404 -0.3527  0.3499 -0.5011
  771MOL0     O 3980  10.136   3.566   5.531  0.3133  0.6157 -0.0651
  771MOL0     C 3981  10.275   3.562   5.570 -0.1436  0.5216  0.2038
  771MOL0     C 3982  10.369   3.655   5.541 -0.5766  0.1691 -0.0682
  771MOL0     C 3983  10.496   3.652   5.599 -0.1917  0.0455 -0.1528
  771MOL0     C 3984  10.549   3.537   5.661  0.0457  0.2722 -0.1272
  771MOL0     O 3985  10.681   3.520   5.685  0.2216  0.1010 -0.4565
  771MOL0     C 3986  10.721   3.436   5.793 -0.2435 -0.2722  0.3939
  771MOL0     C 3987  10.833   3.518   5.861 -0.7048  0.1877  1.1249
  771MOL0     C 3988  10.971   3.502   5.783 -0.2750  1.2300  0.6008
  771MOL0     C 3989  11.035   3.640   5.754 -0.6989  0.2225  0.3796
  771MOL0     C 3990  11.095   3.681   5.886 -0.5445 -0.2486 -1.0169
  771MOL0     C 3991  11.193   3.802   5.868  0.6695 -0.4969  0.6380
  771MOL0     C 3992  11.263   3.834   5.998  1.4793 -0.2923  0.3076
  771MOL0     C 3993  11.182   3.874   6.113  1.1459 -0.2424 -0.0704
  771MOL0    Cl 3994  11.126   4.045   6.081 -0.1068  0.8797 -0.2000
  771MOL0     C 3995  10.448   3.435   5.692 -0.2279  0.1196 -0.0970
  771MOL0     C 3996  10.317   3.448   5.652 -0.3621 -0.3697 -0.0093
  771MOL0     O 3997  10.165   3.554   5.308  0.7183 -0.6645  0.2847
  771MOL0     C 3998   9.916   3.647   5.244 -0.5197  0.2145  0.0174
  771MOL0     C 3999   9.792   3.700   5.220  0.4245  0.0200 -0.2355
  771MOL0     N 4000   9.288   4.258   4.914  0.2355 -0.5691  0.8030
  771MOL0     N 4001   9.229   4.312   4.811 -0.2156 -0.1275  0.5001
  771MOL0     C 4002   9.684   4.042   3.931 -0.0892  0.9528  0.2473
  771MOL0     C 4003   9.725   3.929   3.856 -0.0706 -0.2680 -0.1969
  771MOL0     C 4004   9.961   3.545   3.729 -0.3935  0.0734 -0.0771
  771MOL0     C 4005   9.909   3.576   3.599 -0.4290  0.5711 -0.1860
  771MOL0     C 4006   9.956   3.512   3.485 -0.2395  0.9202 -0.0369
  771MOL0     C 4007  10.049   3.403   3.491  0.6158 -0.4665 -0.2651
  771MOL0     O 4008  10.084   3.343   3.373 -0.1842 -0.4262  0.0448
  771MOL0     C 4009  10.143   3.216   3.377  0.6103 -0.3368  0.4140
  771MOL0     C 4010  10.138   3.171   3.239 -0.4517 -0.3178  0.0771
  771MOL0     C 4011  10.168   3.026   3.246  0.0810  0.3580  0.2879
  771MOL0     C 4012  10.165   2.960   3.101 -0.0337 -0.4294 -0.3293
  771MOL0     C 4013  10.141   2.818   3.120  0.4210 -0.2261 -0.1595
  771MOL0     C 4014  10.107   2.700   3.140  0.7217 -0.6795  0.5226
  771MOL0     C 4015  10.104   3.369   3.619 -0.2077 -0.9697  0.0723
  771MOL0     C 4016  10.063   3.443   3.728 -0.6661  0.2435  0.0646
  771MOL0     C 4017  10.134   3.404   3.855  0.1737 -0.0374 -0.2175
  771MOL0     H 4018   9.796   3.703   4.076  1.6018 -0.6881 -6.1699
  771MOL0     H 4019   9.710   3.884   4.241 -0.8037  2.5943  0.2246
  771MOL0     H 4020   9.598   4.270   4.015  2.3118 -0.7237  1.9363
  771MOL0     H 4021   9.469   4.165   4.062  0.5047 -0.1496 -0.0969
  771MOL0     H 4022   9.484   4.419   4.178 -0.6359  0.1981  2.3197
  771MOL0     H 4023   9.596   4.340   4.277  0.4893  2.3519 -1.4660
  771MOL0     H 4024   9.421   4.351   4.395  3.1806  2.0764 -1.6680
  771MOL0     H 4025   9.395   4.194   4.351  2.8714  0.6049  2.3063
  771MOL0     H 4026   9.248   4.443   4.245 -5.2927  0.1618  1.5592
  771MOL0     H 4027   9.254   4.288   4.152  1.7212 -1.9253  1.4551
  771MOL0     H 4028   9.049   4.302   4.277  1.1628  0.4916 -1.5969
  771MOL0     H 4029   9.139   4.164   4.308 -2.6266 -0.5615  0.3887
  771MOL0     H 4030   9.235   4.283   4.520  1.4745  4.9514  0.4985
  771MOL0     H 4031   9.153   4.421   4.478  4.8816  0.0117 -1.7649
  771MOL0     H 4032   9.037   4.140   4.543  1.2877  0.0268 -2.3324
  771MOL0     H 4033   8.925   4.259   4.508  1.7189 -1.1778 -1.4842
  771MOL0     H 4034   9.023   4.400   4.705 -1.6602  0.4999 -1.3926
  771MOL0     H 4035   8.920   4.279   4.763 -0.1385 -1.6231  0.7989
  771MOL0     H 4036   9.029   4.061   4.881  2.6704 -2.4675  2.2765
  771MOL0     H 4037   9.251   4.118   5.156  1.1965  0.1603  0.5703
  771MOL0     H 4038   9.157   3.989   5.080  0.3301 -0.7262 -1.6254
  771MOL0     H 4039   9.341   3.877   4.973 -3.1817  0.3332  0.1671
  771MOL0     H 4040   9.444   4.015   5.013 -1.1021  2.1898 -0.0554
  771MOL0     H 4041   9.312   3.814   5.206  0.1883 -0.5521 -2.0697
  771MOL0     H 4042   9.386   3.964   5.264  0.2043 -0.4148  0.6247
  771MOL0     H 4043   9.597   3.882   5.106 -0.9349  2.6262  1.2098
  771MOL0     H 4044   9.529   3.726   5.130  0.8409  0.8635 -0.7540
  771MOL0     H 4045   9.685   3.733   5.543 -0.8884  1.2495 -1.3185
  771MOL0     H 4046   9.899   3.618   5.582 -0.2067 -0.6523 -0.4071
  771MOL0     H 4047  10.345   3.750   5.494  2.6701  2.3627  2.2463
  771MOL0     H 4048  10.574   3.723   5.574  3.2307 -2.7709  1.6017
  771MOL0     H 4049  10.651   3.424   5.877 -0.0483  0.8293  0.7208
  771MOL0     H 4050  10.764   3.338   5.768  1.2022  0.7852 -1.4605
  771MOL0     H 4051  10.799   3.621   5.876 -1.0416 -0.1110  2.6200
  771MOL0     H 4052  10.846   3.483   5.964 -1.8090 -3.7428  0.1022
  771MOL0     H 4053  11.033   3.438   5.845 -1.3953 -3.0905 -2.3182
  771MOL0     H 4054  10.972   3.460   5.682 -0.0419  4.0199 -0.6451
  771MOL0     H 4055  10.965   3.718   5.724 -3.2323 -1.6553  1.0485
  771MOL0     H 4056  11.109   3.636   5.673 -0.6228  1.3774  0.3780
  771MOL0     H 4057  11.148   3.596   5.931  1.2707  2.0653  1.5166
  771MOL0     H 4058  11.019   3.715   5.957  0.8160  1.6097 -0.3706
  771MOL0     H 4059  11.266   3.778   5.791  1.2138 -0.6331  1.1858
  771MOL0     H 4060  11.135   3.887   5.829 -0.2934 -2.0562 -1.5408
  771MOL0     H 4061  11.343   3.906   5.978 -0.1827  1.8855  1.2135
  771MOL0     H 4062  11.314   3.739   6.019  4.0465 -0.6428 -5.5780
  771MOL0     H 4063  11.102   3.802   6.133  2.1875 -1.2250  0.6594
  771MOL0     H 4064  11.236   3.872   6.208 -1.9849  1.1313  1.8934
  771MOL0     H 4065  10.480   3.347   5.746 -0.2612  0.1225 -0.0727
  771MOL0     H 4066  10.241   3.379   5.687 -1.1735  1.6823  2.6942
  771MOL0     H 4067   9.979   3.623   5.159  0.0959  0.2308  0.4601
  771MOL0     H 4068   9.761   3.708   5.117 -0.6317 -3.5173 -0.3129
  771MOL0     H 4069   9.646   4.131   3.882 -0.9458 -0.1658 -1.2169
  771MOL0     H 4070   9.728   3.908   3.750  0.2293 -1.7744  0.0971
  771MOL0     H 4071   9.836   3.655   3.591 -0.3352  0.6561 -0.2119
  771MOL0     H 4072   9.915   3.535   3.387  3.2094  0.6740 -1.6937
  771MOL0     H 4073  10.090   3.144   3.441 -0.8429 -1.5854 -2.0596
  771MOL0     H 4074  10.245   3.239   3.410  0.9446  0.5518 -1.1751
  771MOL0     H 4075  10.214   3.228   3.183  0.4735 -2.8405 -1.4247
  771MOL0     H 4076  10.039   3.167   3.194 -0.1593 -2.9072 -0.5227
  771MOL0     H 4077  10.095   2.973   3.309  1.7986 -3.2358 -0.4653
  771MOL0     H 4078  10.263   2.999   3.291 -1.8472 -2.8936  2.8862
  771MOL0     H 4079  10.081   2.989   3.038 -1.8792 -1.9359  1.3037
  771MOL0     H 4080  10.259   2.977   3.048 -0.1047 -3.0204 -1.4308
  771MOL0     H 4081  10.065   2.604   3.162 -3.0152  1.1344  2.0744
  771MOL0     H 4082  10.178   3.289   3.618  0.2500 -0.5688 -1.7695
  771MOL0     H 4083  10.185   3.308   3.847  0.0871  0.0826 -4.5985
  771MOL0     H 4084  10.205   3.481   3.888  3.7999 -2.5141 -1.5108
  771MOL0     H 4085  10.059   3.389   3.932  2.0851 -2.8997  1.2566
  772MOL0     O 4086   8.262   9.054   7.188  0.3756  0.0712  0.0275
  772MOL0     C 4087   8.331   9.154   7.182  0.6015 -0.2157 -0.4037
  772MOL0     O 4088   8.459   9.162   7.139  0.9213 -0.3012 -0.4917
  772MOL0     C 4089   8.518   9.052   7.100 -1.0320  1.0232  0.3587
  772MOL0     C 4090   8.506   8.992   6.974  1.0616 -0.3527  1.1070
  772MOL0     C 4091   8.562   8.867   6.941  0.4744 -1.1235  0.2180
  772MOL0     C 4092   8.656   8.822   7.033 -0.5433 -0.7105  0.0862
  772MOL0     O 4093   8.734   8.714   6.982 -0.2332 -0.4277 -0.1066
  772MOL0     C 4094   8.881   8.729   6.996  1.0448  0.2760 -0.2365
  772MOL0     C 4095   8.927   8.707   6.854  0.2849 -0.1768 -0.8426
  772MOL0     C 4096   8.907   8.562   6.801 -0.1780 -0.0555 -0.7908
  772MOL0     C 4097   8.803   8.547   6.704  0.6558 -0.1340 -0.0477
  772MOL0     C 4098   8.803   8.394   6.662  0.7856 -0.5098  0.2876
  772MOL0     C 4099   8.675   8.345   6.600 -0.0898 -1.0021 -0.3381
  772MOL0     C 4100   8.682   8.197   6.562 -0.3389 -0.0665  0.9529
  772MOL0     C 4101   8.551   8.135   6.519  0.4788 -0.7698  0.1025
  772MOL0     N 4102   8.457   8.119   6.624  0.7097 -0.1619 -0.0981
  772MOL0     C 4103   8.391   8.225   6.690 -0.4905  0.4263  0.3658
  772MOL0     C 4104   8.294   8.167   6.765  0.4653  0.6031  0.4140
  772MOL0     C 4105   8.193   8.238   6.847  0.1582 -0.3053  0.4018
  772MOL0     C 4106   8.114   8.353   6.778 -1.4113  0.1584  1.5496
  772MOL0     C 4107   8.042   8.433   6.874  0.4194  0.4365  0.5868
  772MOL0     C 4108   8.125   8.546   6.949  0.8097 -0.0814 -0.7391
  772MOL0     O 4109   8.211   8.623   6.859 -0.6802  0.7848 -0.6493
  772MOL0     C 4110   8.166   8.699   6.755  0.1297 -1.0240  0.9524
  772MOL0     C 4111   8.239   8.700   6.629  0.4356 -1.1760 -0.2736
  772MOL0     C 4112   8.190   8.791   6.532 -0.7122  0.8070  0.7593
  772MOL0     C 4113   8.069   8.860   6.549  0.5205 -0.2197 -0.7078
  772MOL0     C 4114   8.004   8.939   6.446  0.4673  0.1402  0.8976
  772MOL0     O 4115   7.989   8.872   6.324  0.4081 -0.0809  0.0531
  772MOL0     C 4116   7.975   8.953   6.215  0.7888 -1.2987  0.3481
  772MOL0     C 4117   7.845   9.007   6.173  0.0711 -0.1662 -0.4617
  772MOL0     C 4118   7.841   9.107   6.073  0.7673 -0.9951  0.2840
  772MOL0     C 4119   7.960   9.143   6.000  0.1517  0.6567 -0.2748
  772MOL0     O 4120   7.945   9.226   5.896 -0.3304 -0.3788  0.2812
  772MOL0     C 4121   8.045   9.250   5.801  0.1630 -0.1332  0.4161
  772MOL0     C 4122   8.141   9.354   5.870  0.5289  0.7564 -0.6315
  772MOL0     C 4123   8.280   9.369   5.805  0.1177 -1.8206  0.7433
  772MOL0     C 4124   8.271   9.397   5.652  0.1338 -0.2882  0.0083
  772MOL0     C 4125   8.415   9.389   5.577  0.7705 -0.4499 -0.0767
  772MOL0     C 4126   8.406   9.412   5.426 -0.8341  0.4385 -1.4507
  772MOL0     C 4127   8.340   9.547   5.371 -0.1945 -0.2644 -0.1213
  772MOL0     C 4128   8.319   9.532   5.215 -0.3749  0.1755  0.4097
  772MOL0    Cl 4129   8.221   9.666   5.156 -0.3805  0.1562 -0.0036
  772MOL0     C 4130   8.087   9.077   6.035  0.3854 -0.7213  1.5915
  772MOL0     C 4131   8.091   8.991   6.141  1.0593  0.2919 -0.0471
  772MOL0     O 4132   7.983   9.054   6.464  1.2658  0.7023  0.5343
  772MOL0     C 4133   8.000   8.866   6.674  0.2729  0.3777 -0.2316
  772MOL0     C 4134   8.041   8.776   6.771 -0.4605  0.7643 -0.2006
  772MOL0     N 4135   8.315   8.027   6.754  0.1143  0.6179 -0.2608
  772MOL0     N 4136   8.406   7.995   6.664  0.3088  0.3223  0.0647
  772MOL0     C 4137   8.675   8.873   7.162  0.8683 -0.4855 -0.0927
  772MOL0     C 4138   8.601   8.986   7.195  0.7968  0.6527 -0.5015
  772MOL0     C 4139   8.265   9.288   7.216 -0.4067  0.3795 -0.4312
  772MOL0     C 4140   8.273   9.377   7.106 -0.1120 -0.7056  0.3287
  772MOL0     C 4141   8.206   9.496   7.104 -0.9231  0.0152 -0.6317
  772MOL0     C 4142   8.144   9.539   7.220 -0.7138  0.2818  0.6631
  772MOL0     O 4143   8.093   9.658   7.241  0.4200  0.1482 -0.2341
  772MOL0     C 4144   8.148   9.767   7.171  1.1513 -0.1120  0.2273
  772MOL0     C 4145   8.282   9.800   7.224  0.3528 -0.9021  0.0377
  772MOL0     C 4146   8.329   9.939   7.162  1.0400  0.0739  0.7784
  772MOL0     C 4147   8.476   9.980   7.182 -0.5521  1.2291  0.3335
  772MOL0     C 4148   8.514  10.117   7.143  1.0511 -0.3668  0.1797
  772MOL0     C 4149   8.521  10.240   7.109  0.4091  0.5193  0.0753
  772MOL0     C 4150   8.138   9.448   7.333 -0.3375 -2.0063  0.1467
  772MOL0     C 4151   8.190   9.321   7.328 -0.0852  0.0371  0.4855
  772MOL0     C 4152   8.170   9.236   7.450  0.4923  0.7266  0.7389
  772MOL0     H 4153   8.440   9.043   6.904  1.7732  0.1694  0.8001
  772MOL0     H 4154   8.533   8.826   6.845  1.2058  2.2280 -1.5941
  772MOL0     H 4155   8.917   8.824   7.037  4.3425  0.5837 -3.4049
  772MOL0     H 4156   8.920   8.651   7.062 -1.4310  1.4598  2.8694
  772MOL0     H 4157   9.031   8.741   6.846  0.8525 -1.7921 -0.6850
  772MOL0     H 4158   8.865   8.773   6.793  3.0333  2.0158 -1.4353
  772MOL0     H 4159   8.894   8.497   6.888 -0.0803  1.4264  0.3706
  772MOL0     H 4160   8.999   8.528   6.753  2.4477  1.5953  2.5844
  772MOL0     H 4161   8.711   8.584   6.752  0.7366  1.9300 -1.3592
  772MOL0     H 4162   8.836   8.605   6.618 -4.8701  1.3203 -1.5948
  772MOL0     H 4163   8.887   8.371   6.596  2.7111  0.2749  2.3203
  772MOL0     H 4164   8.828   8.330   6.747  0.9851  0.1879  0.7593
  772MOL0     H 4165   8.608   8.354   6.687  2.5773 -1.6119  1.9332
  772MOL0     H 4166   8.644   8.418   6.525  3.7765  1.3042  0.0280
  772MOL0     H 4167   8.729   8.139   6.642  2.4764 -0.3946 -0.7885
  772MOL0     H 4168   8.758   8.199   6.483  0.4863  3.3384  1.6783
  772MOL0     H 4169   8.509   8.192   6.435  4.0235  2.4554  0.2855
  772MOL0     H 4170   8.583   8.035   6.488  0.2730 -0.1829 -2.1697
  772MOL0     H 4171   8.410   8.332   6.684  2.0334 -0.0329 -1.5069
  772MOL0     H 4172   8.116   8.170   6.883 -1.8158  0.7472 -1.5860
  772MOL0     H 4173   8.247   8.280   6.933 -0.2578 -1.2876  1.1666
  772MOL0     H 4174   8.171   8.421   6.714 -4.2847 -1.8427 -3.8397
  772MOL0     H 4175   8.037   8.311   6.713 -0.4965  1.3686 -0.4338
  772MOL0     H 4176   8.009   8.381   6.964 -0.8448 -2.7817 -1.5163
  772MOL0     H 4177   7.953   8.478   6.827  0.1644  0.0326  0.6778
  772MOL0     H 4178   8.203   8.507   7.014  1.2280  1.6810 -0.1344
  772MOL0     H 4179   8.057   8.610   7.005  1.9906  1.8897 -1.4581
  772MOL0     H 4180   8.333   8.647   6.621  1.3391  0.4168 -0.6336
  772MOL0     H 4181   8.236   8.813   6.436 -1.5285  1.0989  0.4193
  772MOL0     H 4182   7.764   8.968   6.233 -0.7775  2.1971  0.0509
  772MOL0     H 4183   7.744   9.151   6.054  2.4220  3.7295  1.3178
  772MOL0     H 4184   8.086   9.155   5.766 -1.0942 -0.0287 -1.5122
  772MOL0     H 4185   8.004   9.302   5.714  0.6049  1.8831  1.3572
  772MOL0     H 4186   8.095   9.453   5.858 -0.2190  0.6968  1.2391
  772MOL0     H 4187   8.148   9.333   5.977 -0.9544  2.2212 -0.1913
  772MOL0     H 4188   8.333   9.450   5.856  1.3345 -2.3056  0.2940
  772MOL0     H 4189   8.343   9.283   5.828  1.0604 -0.9997  1.3493
  772MOL0     H 4190   8.240   9.501   5.639  2.1911  0.2547 -0.9342
  772MOL0     H 4191   8.198   9.329   5.607  2.3686 -2.3827 -0.6671
  772MOL0     H 4192   8.435   9.282   5.592 -2.7354 -1.2049  0.2592
  772MOL0     H 4193   8.481   9.465   5.618 -1.1058  1.0778  0.2291
  772MOL0     H 4194   8.506   9.416   5.381 -0.2467  2.0895 -0.1193
  772MOL0     H 4195   8.369   9.324   5.373 -1.1611 -1.7469  2.1025
  772MOL0     H 4196   8.404   9.633   5.392 -0.8389 -0.2501  2.0254
  772MOL0     H 4197   8.244   9.571   5.418  0.2297 -1.2161  1.3190
  772MOL0     H 4198   8.411   9.529   5.156  1.1778  5.0282  2.1456
  772MOL0     H 4199   8.252   9.448   5.192  1.2420 -0.2957 -3.4036
  772MOL0     H 4200   8.168   9.112   5.972  0.6991 -2.2621  1.0945
  772MOL0     H 4201   8.186   8.960   6.184  0.6244 -3.0177 -1.1689
  772MOL0     H 4202   7.912   8.926   6.691  0.2535  0.1185  0.6118
  772MOL0     H 4203   7.989   8.785   6.866 -1.0373 -1.1328 -0.3102
  772MOL0     H 4204   8.743   8.835   7.238  1.9372 -1.3144 -1.4263
  772MOL0     H 4205   8.619   9.010   7.300 -0.1464 -2.0274  0.3702
  772MOL0     H 4206   8.329   9.353   7.016 -0.7146  0.1397 -0.2832
  772MOL0     H 4207   8.209   9.564   7.019  2.4470  2.8550  1.4391
  772MOL0     H 4208   8.077   9.847   7.193  2.0635  1.7853 -3.0197
  772MOL0     H 4209   8.163   9.748   7.064  0.6655  2.3651 -0.3380
  772MOL0     H 4210   8.363   9.727   7.211  1.1495 -1.1072  4.4034
  772MOL0     H 4211   8.283   9.822   7.331  1.4393  0.2675 -0.1809
  772MOL0     H 4212   8.268  10.015   7.211  2.0059  1.4320 -0.0646
  772MOL0     H 4213   8.304   9.947   7.056 -1.8282 -0.1659  1.3704
  772MOL0     H 4214   8.513   9.984   7.285 -1.8800 -1.7618  1.0317
  772MOL0     H 4215   8.535   9.904   7.131  0.4614  1.3090  1.3503
  772MOL0     H 4216   8.524  10.346   7.095  0.2754  0.1396 -4.3367
  772MOL0     H 4217   8.086   9.484   7.421 -0.5857  0.1633 -0.8050
  772MOL0     H 4218   8.133   9.297   7.533 -2.5643  1.2352 -0.8584
  772MOL0     H 4219   8.106   9.152   7.424  0.2523  0.6157  1.6340
  772MOL0     H 4220   8.271   9.205   7.479  1.1379  0.4649 -1.5704
  773MOL0     O 4221  11.365   5.248  11.263  0.3549 -0.4774  0.0036
  773MOL0     C 4222  11.415   5.316  11.174  0.2275 -0.0911 -0.2528
  773MOL0     O 4223  11.394   5.452  11.164  0.0421  0.2659 -0.2237
  773MOL0     C 4224  11.339   5.515  11.274  0.0652 -0.9576 -0.4935
  773MOL0     C 4225  11.429   5.600  11.344  0.1356  0.0039 -0.1225
  773MOL0     C 4226  11.383   5.688  11.445 -0.3011  0.8071  0.1159
  773MOL0     C 4227  11.251   5.673  11.485 -0.2272  0.1202  0.3340
  773MOL0     O 4228  11.209   5.759  11.592  0.4014  0.3171  0.4694
  773MOL0     C 4229  11.070   5.750  11.618 -0.2782 -0.8010 -0.7898
  773MOL0     C 4230  11.019   5.847  11.729 -0.0620 -0.1809  1.2276
  773MOL0     C 4231  11.040   5.804  11.871 -0.1419  0.0942  0.4040
  773MOL0     C 4232  11.124   5.898  11.952 -0.4269  0.1107 -0.1754
  773MOL0     C 4233  11.158   5.840  12.084 -0.3320  0.1439 -0.3677
  773MOL0     C 4234  11.036   5.780  12.151  0.4681  0.1128 -0.0917
  773MOL0     C 4235  11.074   5.732  12.293 -0.4463 -0.1014 -0.3452
  773MOL0     C 4236  10.966   5.654  12.388 -0.3782 -0.2644 -0.2578
  773MOL0     N 4237  11.025   5.561  12.484 -0.4178 -0.1373  0.0006
  773MOL0     C 4238  11.129   5.591  12.566 -0.3337  1.6482  0.1051
  773MOL0     C 4239  11.139   5.479  12.647 -0.4115 -0.7336  0.2005
  773MOL0     C 4240  11.237   5.456  12.748 -0.1170  0.1036 -0.9674
  773MOL0     C 4241  11.300   5.323  12.758 -0.8302 -0.2324 -0.8024
  773MOL0     C 4242  11.404   5.327  12.876  0.1215  0.0746 -0.4842
  773MOL0     C 4243  11.400   5.193  12.947  0.5711 -0.8902 -0.1849
  773MOL0     O 4244  11.515   5.182  13.031  0.2654 -0.5626 -0.1413
  773MOL0     C 4245  11.567   5.056  13.055 -0.9400  0.2628  1.4593
  773MOL0     C 4246  11.698   5.051  13.096 -0.2225  0.7964  0.0193
  773MOL0     C 4247  11.769   4.939  13.127 -0.5102  0.1248  0.2615
  773MOL0     C 4248  11.697   4.818  13.098  0.6544 -0.1140 -1.0657
  773MOL0     C 4249  11.756   4.683  13.134  0.0411 -0.7935 -0.6373
  773MOL0     O 4250  11.674   4.574  13.134  0.0861 -0.5453 -0.3072
  773MOL0     C 4251  11.718   4.460  13.196 -0.1544  0.2568 -0.4517
  773MOL0     C 4252  11.645   4.400  13.304 -0.6499 -0.0633 -0.5833
  773MOL0     C 4253  11.676   4.276  13.365 -0.5133  0.0425  1.0141
  773MOL0     C 4254  11.788   4.200  13.310 -0.3594 -0.7225 -0.0656
  773MOL0     O 4255  11.811   4.069  13.347 -0.7130 -0.6526  0.3944
  773MOL0     C 4256  11.751   4.019  13.469 -0.3727  0.0629 -0.2871
  773MOL0     C 4257  11.790   3.876  13.515 -0.0095  0.2557  0.1785
  773MOL0     C 4258  11.729   3.778  13.419  0.0651  0.4670  0.3203
  773MOL0     C 4259  11.721   3.633  13.479  0.4309  0.1704  1.0758
  773MOL0     C 4260  11.655   3.528  13.376  0.4732  0.6016  0.4363
  773MOL0     C 4261  11.672   3.380  13.417 -0.0633  0.5809  0.2946
  773MOL0     C 4262  11.576   3.287  13.336 -0.5852  0.3160  0.3639
  773MOL0     C 4263  11.627   3.149  13.323  0.0078 -0.3871  0.1063
  773MOL0    Cl 4264  11.610   3.072  13.480 -0.1334 -0.0653 -0.1053
  773MOL0     C 4265  11.866   4.266  13.212  0.8976  0.5577  0.2606
  773MOL0     C 4266  11.829   4.393  13.156 -0.3153  1.8215 -0.6872
  773MOL0     O 4267  11.872   4.691  13.185 -0.3111  0.7254  0.1149
  773MOL0     C 4268  11.561   4.818  13.051 -0.3065 -0.0204 -0.4846
  773MOL0     C 4269  11.493   4.937  13.029  0.3709  0.5005 -0.5082
  773MOL0     N 4270  11.027   5.398  12.616 -0.0914 -0.8479 -1.1265
  773MOL0     N 4271  10.966   5.443  12.521 -0.3099 -0.4094 -0.8155
  773MOL0     C 4272  11.168   5.580  11.422  0.0052  0.2689  0.6799
  773MOL0     C 4273  11.206   5.509  11.299 -0.3743  0.7767  0.8322
  773MOL0     C 4274  11.483   5.235  11.067  0.5942  0.4403  0.3683
  773MOL0     C 4275  11.485   5.094  11.073 -1.0808 -0.0418  0.1508
  773MOL0     C 4276  11.574   5.014  11.000  0.6737 -0.5735  1.5043
  773MOL0     C 4277  11.662   5.073  10.892  0.8503  0.8374 -0.2063
  773MOL0     O 4278  11.756   4.988  10.841 -0.2474  0.3231  0.4845
  773MOL0     C 4279  11.858   5.042  10.749  0.4933  0.7528 -0.2580
  773MOL0     C 4280  11.951   4.931  10.714  0.7886 -0.3884 -0.1082
  773MOL0     C 4281  12.043   4.895  10.838  0.0724 -0.4136  0.4414
  773MOL0     C 4282  12.137   4.779  10.800  0.4741 -0.0260 -0.1923
  773MOL0     C 4283  12.248   4.833  10.723 -0.9456  0.4935 -0.2378
  773MOL0     C 4284  12.335   4.877  10.645 -0.3712  0.3298  0.0072
  773MOL0     C 4285  11.640   5.202  10.868  1.2238  0.5114  0.1687
  773MOL0     C 4286  11.559   5.290  10.962  0.5137  0.0092  0.1698
  773MOL0     C 4287  11.573   5.436  10.927 -0.5355  0.7489  0.7428
  773MOL0     H 4288  11.535   5.604  11.323  0.3866 -4.4624 -0.5805
  773MOL0     H 4289  11.461   5.755  11.479  2.1949 -0.4166 -2.7101
  773MOL0     H 4290  11.014   5.784  11.530 -1.7545  0.4532  0.5626
  773MOL0     H 4291  11.033   5.651  11.647 -1.6659 -0.0358  0.1829
  773MOL0     H 4292  10.912   5.841  11.707  0.1948 -0.3793 -0.0822
  773MOL0     H 4293  11.043   5.950  11.699  1.1503 -1.4028 -2.5940
  773MOL0     H 4294  11.082   5.703  11.869  0.9800  0.4904  1.9749
  773MOL0     H 4295  10.940   5.801  11.915  2.0604 -0.9850  6.2590
  773MOL0     H 4296  11.216   5.920  11.898 -0.9796  2.6699 -0.1826
  773MOL0     H 4297  11.063   5.988  11.964  2.6256  2.2152  0.5917
  773MOL0     H 4298  11.234   5.761  12.079  1.7552  2.0626 -0.3960
  773MOL0     H 4299  11.201   5.920  12.145 -2.3443  0.5612  0.6018
  773MOL0     H 4300  10.951   5.849  12.156  1.0081  0.8319 -0.6040
  773MOL0     H 4301  11.007   5.693  12.092  0.0218 -0.1359  0.4854
  773MOL0     H 4302  11.117   5.816  12.348  0.8807  1.2652 -3.2211
  773MOL0     H 4303  11.150   5.655  12.277  1.3454  1.3718  0.7170
  773MOL0     H 4304  10.902   5.728  12.436 -0.6863  1.2052 -2.7846
  773MOL0     H 4305  10.906   5.596  12.317 -0.3114 -1.6111  0.7386
  773MOL0     H 4306  11.199   5.673  12.552  2.8443 -0.8056  0.3933
  773MOL0     H 4307  11.312   5.535  12.742 -1.3296  1.4911  0.9232
  773MOL0     H 4308  11.190   5.473  12.845 -1.9084 -0.2529 -1.7294
  773MOL0     H 4309  11.234   5.242  12.788  2.0264 -2.2810  0.4544
  773MOL0     H 4310  11.353   5.299  12.665  0.3904 -0.1357 -0.1528
  773MOL0     H 4311  11.397   5.412  12.945 -0.3340 -0.8990  0.6967
  773MOL0     H 4312  11.497   5.334  12.819 -1.3042 -1.6693 -3.2163
  773MOL0     H 4313  11.396   5.116  12.870  3.1147 -0.0263 -1.2630
  773MOL0     H 4314  11.310   5.194  13.010  0.7386  2.1829  0.1501
  773MOL0     H 4315  11.745   5.145  13.122  0.7703  0.0131  1.1671
  773MOL0     H 4316  11.865   4.930  13.177 -2.0408  1.3968  3.7144
  773MOL0     H 4317  11.549   4.441  13.334 -0.6152 -1.0036  0.9352
  773MOL0     H 4318  11.612   4.251  13.448  0.2229  1.5650  2.0837
  773MOL0     H 4319  11.766   4.085  13.555  1.5216 -4.5647  3.4220
  773MOL0     H 4320  11.643   4.016  13.451 -0.4868  0.6124  0.2719
  773MOL0     H 4321  11.898   3.863  13.507 -0.1612 -3.7314  2.1612
  773MOL0     H 4322  11.749   3.864  13.615 -0.1469 -0.4690  0.0383
  773MOL0     H 4323  11.623   3.800  13.408  0.2432  2.2532  1.6697
  773MOL0     H 4324  11.789   3.785  13.328  2.7198  1.5262  2.0067
  773MOL0     H 4325  11.650   3.623  13.563 -0.4184 -2.9669  0.1206
  773MOL0     H 4326  11.821   3.602  13.510 -0.3690 -0.9918  2.6870
  773MOL0     H 4327  11.699   3.539  13.277 -1.7904 -1.5430 -0.9262
  773MOL0     H 4328  11.548   3.549  13.372  0.1483 -1.0243 -0.3337
  773MOL0     H 4329  11.773   3.338  13.409 -0.8005 -2.2592  3.4685
  773MOL0     H 4330  11.645   3.371  13.522  0.3809 -1.5050  0.2662
  773MOL0     H 4331  11.581   3.321  13.232 -1.8404  2.0402  0.8266
  773MOL0     H 4332  11.468   3.289  13.355 -1.9102 -1.9903 -5.0618
  773MOL0     H 4333  11.566   3.100  13.247  1.3219 -0.5340 -0.8873
  773MOL0     H 4334  11.731   3.151  13.286 -0.7198  1.7092 -2.1523
  773MOL0     H 4335  11.939   4.195  13.175 -1.3756 -1.5561 -0.4083
  773MOL0     H 4336  11.899   4.448  13.094  1.6717  2.4688  1.9377
  773MOL0     H 4337  11.511   4.723  13.032 -4.0718  1.8395 -0.7769
  773MOL0     H 4338  11.389   4.933  12.995 -0.2295  2.4190  0.9409
  773MOL0     H 4339  11.063   5.563  11.445 -0.4539 -1.5096 -2.1196
  773MOL0     H 4340  11.137   5.441  11.250  0.5498  1.1658 -1.1077
  773MOL0     H 4341  11.425   5.039  11.145 -4.7416  0.6790 -2.0345
  773MOL0     H 4342  11.580   4.908  11.023 -2.8802 -0.6253  2.7255
  773MOL0     H 4343  11.908   5.127  10.795  1.8019  0.0348 -0.3128
  773MOL0     H 4344  11.810   5.071  10.655 -5.0292 -1.7498  1.3240
  773MOL0     H 4345  12.020   4.951  10.632  0.7863 -2.9459 -0.8049
  773MOL0     H 4346  11.894   4.844  10.683  0.6844  0.0512 -1.1859
  773MOL0     H 4347  11.982   4.864  10.923 -0.8196 -1.9178 -0.6834
  773MOL0     H 4348  12.103   4.982  10.866  1.2762 -1.7687  2.3661
  773MOL0     H 4349  12.174   4.732  10.891  0.6896 -0.3008 -0.4220
  773MOL0     H 4350  12.084   4.708  10.735 -1.4382  0.1626  1.0947
  773MOL0     H 4351  12.398   4.912  10.566  0.8480 -3.3494 -0.8282
  773MOL0     H 4352  11.692   5.258  10.792 -4.7471  3.6746 -2.3017
  773MOL0     H 4353  11.599   5.452  10.823  0.8127  1.1339  1.1264
  773MOL0     H 4354  11.477   5.483  10.952 -1.6318  0.2211 -2.0964
  773MOL0     H 4355  11.651   5.480  10.989  1.8057 -1.2002 -0.6496
  774MOL0     O 4356   7.581   5.684  11.150  0.0291  0.0065  0.6105
  774MOL0     C 4357   7.471   5.657  11.110 -0.3585  0.2037 -0.4339
  774MOL0     O 4358   7.404   5.715  11.018  0.7319 -0.1924 -0.2048
  774MOL0     C 4359   7.474   5.826  10.962 -0.2470  0.1632 -0.6580
  774MOL0     C 4360   7.514   5.821  10.824 -1.7859 -0.2427  0.3499
  774MOL0     C 4361   7.578   5.928  10.759 -0.1623  0.3906  0.1012
  774MOL0     C 4362   7.601   6.053  10.828  0.1993  0.2805 -0.2606
  774MOL0     O 4363   7.663   6.167  10.777  0.7217  0.1394 -0.5960
  774MOL0     C 4364   7.574   6.279  10.746 -0.1051 -0.6552  0.7932
  774MOL0     C 4365   7.654   6.406  10.736  0.6745  0.8207  0.7334
  774MOL0     C 4366   7.560   6.523  10.690  0.5714 -0.2359 -0.1274
  774MOL0     C 4367   7.535   6.522  10.538 -0.1614 -0.1982 -0.5259
  774MOL0     C 4368   7.440   6.634  10.503  0.4144 -0.1208 -0.6819
  774MOL0     C 4369   7.424   6.649  10.355 -0.6209  0.6241 -0.4840
  774MOL0     C 4370   7.331   6.759  10.312 -1.1597 -0.6824  0.4577
  774MOL0     C 4371   7.184   6.718  10.302 -0.0197  0.0174 -0.7547
  774MOL0     N 4372   7.119   6.762  10.429  0.0742 -0.3175 -0.1887
  774MOL0     C 4373   7.105   6.688  10.544  0.6636 -0.7349  0.4173
  774MOL0     C 4374   7.040   6.768  10.637 -0.4376 -0.5836 -0.4847
  774MOL0     C 4375   6.998   6.727  10.772  0.2488  0.5505 -0.7178
  774MOL0     C 4376   7.114   6.772  10.874 -0.0682  0.3718 -0.3150
  774MOL0     C 4377   7.228   6.663  10.884 -0.5920 -0.7013 -0.3872
  774MOL0     C 4378   7.206   6.537  10.976 -0.3122 -0.0669  0.2819
  774MOL0     O 4379   7.127   6.436  10.906  0.0384  0.3762 -0.6602
  774MOL0     C 4380   7.119   6.313  10.977  0.1921  0.6275  0.3092
  774MOL0     C 4381   7.196   6.202  10.954 -0.9671  1.7422 -0.8694
  774MOL0     C 4382   7.171   6.082  11.019 -0.1078  0.9933 -1.0021
  774MOL0     C 4383   7.077   6.080  11.122  0.6653 -1.1390 -0.5583
  774MOL0     C 4384   7.059   5.958  11.198 -0.1904  0.4663  0.9632
  774MOL0     O 4385   6.941   5.954  11.263  0.0242  0.1012  0.0529
  774MOL0     C 4386   6.894   5.839  11.320  1.4151  0.1930  0.2446
  774MOL0     C 4387   6.758   5.800  11.302 -0.4218  0.5625 -0.1191
  774MOL0     C 4388   6.699   5.694  11.364 -0.2403  0.1392 -0.0080
  774MOL0     C 4389   6.774   5.608  11.441  0.1459 -0.3258  0.0742
  774MOL0     O 4390   6.734   5.491  11.498 -0.8635  0.1775  0.0584
  774MOL0     C 4391   6.596   5.454  11.462 -0.3318 -0.0041 -0.3756
  774MOL0     C 4392   6.544   5.315  11.509 -0.0636  0.5431  0.7797
  774MOL0     C 4393   6.393   5.295  11.488  0.5163 -0.0642 -0.9992
  774MOL0     C 4394   6.355   5.151  11.534 -0.5146 -0.6531 -0.2257
  774MOL0     C 4395   6.339   5.147  11.687 -0.7664  1.4234  1.0515
  774MOL0     C 4396   6.296   5.008  11.727 -0.8371  0.3851 -0.4956
  774MOL0     C 4397   6.287   4.997  11.879  0.5069 -0.0914  0.1249
  774MOL0     C 4398   6.337   4.853  11.920  0.9051 -0.7821  0.5779
  774MOL0    Cl 4399   6.311   4.845  12.098 -0.4847  0.5460 -0.3114
  774MOL0     C 4400   6.908   5.648  11.456  0.4380  1.1291 -0.3515
  774MOL0     C 4401   6.967   5.757  11.395  0.0447  0.8914 -0.0288
  774MOL0     O 4402   7.149   5.872  11.185  0.0915 -0.1685  0.2616
  774MOL0     C 4403   7.000   6.198  11.152 -0.1039  1.6173 -1.0974
  774MOL0     C 4404   7.028   6.312  11.086  0.4823 -0.0766  0.3167
  774MOL0     N 4405   7.032   6.894  10.573  0.1109  0.1261 -1.0437
  774MOL0     N 4406   7.087   6.892  10.461 -0.1002 -0.0608  0.7169
  774MOL0     C 4407   7.569   6.056  10.968  0.8516 -0.1033 -1.0902
  774MOL0     C 4408   7.503   5.948  11.040  0.3318 -1.6756  0.1459
  774MOL0     C 4409   7.409   5.543  11.178 -0.1016  0.1257  0.0189
  774MOL0     C 4410   7.264   5.556  11.194  0.1062  0.2065 -0.3188
  774MOL0     C 4411   7.204   5.456  11.247  0.2784 -0.1035 -0.5644
  774MOL0     C 4412   7.254   5.350  11.315 -0.2370 -0.0248 -0.1970
  774MOL0     O 4413   7.174   5.258  11.369  0.3089 -0.7192 -0.0369
  774MOL0     C 4414   7.130   5.295  11.496  0.5043  0.9188  0.2561
  774MOL0     C 4415   6.976   5.299  11.505  0.5979  0.1271 -0.6115
  774MOL0     C 4416   6.906   5.165  11.495  0.0878  0.1795  0.3633
  774MOL0     C 4417   6.905   5.118  11.354  0.2609  0.6527  0.6499
  774MOL0     C 4418   6.803   5.020  11.308 -0.2919  0.4001 -0.6773
  774MOL0     C 4419   6.716   4.939  11.266 -0.3856  0.9832 -0.3928
  774MOL0     C 4420   7.390   5.339  11.314 -0.7225 -0.4151 -1.2875
  774MOL0     C 4421   7.473   5.431  11.245 -0.0880  0.1081 -0.2396
  774MOL0     C 4422   7.618   5.412  11.262  0.3461  0.1842  0.2386
  774MOL0     H 4423   7.508   5.730  10.764 -3.2085  0.6610 -0.9542
  774MOL0     H 4424   7.614   5.915  10.658  3.1578  1.3392  1.0418
  774MOL0     H 4425   7.523   6.261  10.651 -0.1546  6.1727 -0.9690
  774MOL0     H 4426   7.500   6.286  10.826  1.8595 -0.8046  2.7226
  774MOL0     H 4427   7.722   6.381  10.654 -2.7185 -3.1130 -1.2489
  774MOL0     H 4428   7.716   6.429  10.823  5.3197 -0.8429 -1.7885
  774MOL0     H 4429   7.621   6.613  10.697  2.6908 -1.3389 -2.5694
  774MOL0     H 4430   7.464   6.521  10.742  0.2737  1.5403 -0.5658
  774MOL0     H 4431   7.632   6.533  10.489 -0.2548 -0.4183 -0.7629
  774MOL0     H 4432   7.500   6.424  10.505  1.0097 -0.6261 -0.5299
  774MOL0     H 4433   7.338   6.612  10.534 -0.1994  2.2720 -0.8187
  774MOL0     H 4434   7.456   6.729  10.554 -1.2457 -0.0168 -0.3207
  774MOL0     H 4435   7.519   6.672  10.307 -1.5161  2.1427 -1.6548
  774MOL0     H 4436   7.376   6.556  10.323 -0.4381  0.4071 -0.1343
  774MOL0     H 4437   7.373   6.797  10.218  0.0536  0.7933  1.5557
  774MOL0     H 4438   7.343   6.839  10.385  1.6019  0.7269 -1.3493
  774MOL0     H 4439   7.145   6.774  10.217 -0.8717  2.2477  1.0158
  774MOL0     H 4440   7.174   6.610  10.283  1.0979  0.1721 -2.3828
  774MOL0     H 4441   7.131   6.585  10.564 -1.4993 -1.3384  0.4425
  774MOL0     H 4442   6.907   6.785  10.794 -0.9885 -0.8627 -1.8752
  774MOL0     H 4443   6.969   6.622  10.784 -0.3800  0.7053 -0.8316
  774MOL0     H 4444   7.161   6.865  10.841  1.9408 -0.6111 -0.3655
  774MOL0     H 4445   7.057   6.779  10.967 -0.7317 -0.3746 -0.6465
  774MOL0     H 4446   7.320   6.716  10.910 -2.2318  2.2234 -0.0042
  774MOL0     H 4447   7.235   6.619  10.785 -1.9036 -0.3073 -0.6781
  774MOL0     H 4448   7.165   6.560  11.075 -1.1296  1.1045 -0.3033
  774MOL0     H 4449   7.305   6.501  11.007 -1.1890 -2.7936  0.2182
  774MOL0     H 4450   7.264   6.197  10.870 -0.7866  0.6129 -0.6834
  774MOL0     H 4451   7.224   5.991  10.990  0.6618  1.9673 -2.7905
  774MOL0     H 4452   6.694   5.864  11.243 -1.3437  0.0677  0.3263
  774MOL0     H 4453   6.595   5.673  11.342 -0.5608  2.4900 -1.0456
  774MOL0     H 4454   6.524   5.531  11.490 -1.6031 -0.5701 -1.9576
  774MOL0     H 4455   6.585   5.460  11.353 -3.8766 -3.6825 -0.4398
  774MOL0     H 4456   6.598   5.246  11.443  1.4871  1.7734  0.7107
  774MOL0     H 4457   6.564   5.299  11.616  1.6137  1.6285  0.6584
  774MOL0     H 4458   6.347   5.377  11.545  0.5828 -0.6724 -0.0549
  774MOL0     H 4459   6.360   5.312  11.385  1.7641  2.1130 -1.0988
  774MOL0     H 4460   6.424   5.071  11.505 -1.7571 -2.0027  0.3945
  774MOL0     H 4461   6.258   5.124  11.492 -0.8404  0.9507 -0.5693
  774MOL0     H 4462   6.275   5.223  11.735 -0.0368  1.0305  2.7360
  774MOL0     H 4463   6.440   5.154  11.727 -0.5383 -0.5195  0.9205
  774MOL0     H 4464   6.213   4.979  11.662  0.3960  0.2851 -2.0829
  774MOL0     H 4465   6.372   4.932  11.707 -1.0278 -1.1114  3.5233
  774MOL0     H 4466   6.184   5.004  11.914  0.3344 -0.8600 -0.2039
  774MOL0     H 4467   6.338   5.077  11.933  1.0875 -0.3691 -0.0025
  774MOL0     H 4468   6.273   4.773  11.883 -0.2005  0.8722 -1.3339
  774MOL0     H 4469   6.440   4.835  11.888  0.0556 -1.7549 -1.8012
  774MOL0     H 4470   6.960   5.591  11.532 -0.1218  0.8892 -0.1432
  774MOL0     H 4471   7.074   5.774  11.405 -0.0539  1.7923 -0.4019
  774MOL0     H 4472   6.930   6.191  11.235  1.4042 -1.1907  0.0976
  774MOL0     H 4473   6.972   6.403  11.102  1.3120  0.6634 -0.7887
  774MOL0     H 4474   7.589   6.151  11.017 -0.7257  1.8618 -4.0304
  774MOL0     H 4475   7.471   5.957  11.143 -3.3075 -2.6520 -0.7445
  774MOL0     H 4476   7.219   5.644  11.148  0.1147  0.3908  0.0250
  774MOL0     H 4477   7.098   5.469  11.267  0.4483 -0.5972  0.7477
  774MOL0     H 4478   7.169   5.393  11.525 -3.0500  2.6171 -0.2262
  774MOL0     H 4479   7.162   5.218  11.567 -5.1679 -1.7807  0.3947
  774MOL0     H 4480   6.949   5.374  11.430  2.5192  0.7862 -0.7139
  774MOL0     H 4481   6.958   5.342  11.604 -0.2149 -1.3439 -0.0939
  774MOL0     H 4482   6.801   5.165  11.526 -0.6451  1.9560 -1.8874
  774MOL0     H 4483   6.966   5.088  11.545  1.1377 -0.9831 -2.5190
  774MOL0     H 4484   6.885   5.206  11.293 -2.4235 -0.7875 -0.7195
  774MOL0     H 4485   7.005   5.075  11.341  0.1689 -0.2028  2.3951
  774MOL0     H 4486   6.655   4.858  11.231  0.1431 -1.5224  3.7440
  774MOL0     H 4487   7.424   5.260  11.380 -2.3999 -1.9372 -2.1333
  774MOL0     H 4488   7.646   5.439  11.364  1.3436  1.2782 -0.3025
  774MOL0     H 4489   7.653   5.312  11.235  0.2809 -0.0649  1.0531
  774MOL0     H 4490   7.682   5.481  11.205 -3.1634  4.1096  0.5130
  775MOL0     O 4491  10.050   1.122   4.104 -0.0624  0.3189 -0.4088
  775MOL0     C 4492   9.986   1.114   4.205 -0.4946  0.6342  0.2196
  775MOL0     O 4493   9.883   1.027   4.225  0.5040  0.2085 -0.3683
  775MOL0     C 4494   9.847   0.915   4.148  0.4720  0.6974 -0.3192
  775MOL0     C 4495   9.940   0.819   4.106 -0.4194 -0.1546 -0.2293
  775MOL0     C 4496   9.904   0.697   4.048  0.1949 -0.0136  0.8150
  775MOL0     C 4497   9.770   0.673   4.028 -0.5965 -0.2619  0.5753
  775MOL0     O 4498   9.717   0.562   3.974  0.6114  0.1073 -0.6163
  775MOL0     C 4499   9.787   0.437   3.938 -0.2016  0.3657  0.0739
  775MOL0     C 4500   9.682   0.349   3.868 -0.0837 -0.2483 -0.6940
  775MOL0     C 4501   9.732   0.204   3.843  0.0743 -0.1385  0.3401
  775MOL0     C 4502   9.705   0.118   3.963 -0.5105 -1.4457 -0.5427
  775MOL0     C 4503   9.766  -0.017   3.942  0.1095 -0.6134  0.3724
  775MOL0     C 4504   9.918  -0.017   3.930  0.2986 -0.4138  0.5130
  775MOL0     C 4505   9.969  -0.151   3.974  0.8448  0.2256 -0.6187
  775MOL0     C 4506   9.926  -0.247   3.869  0.7509 -0.4665 -0.3755
  775MOL0     N 4507   9.956  -0.385   3.901  0.4127  0.2998 -0.0873
  775MOL0     C 4508  10.071  -0.454   3.878 -0.6218 -0.1828 -0.5014
  775MOL0     C 4509  10.034  -0.587   3.895  0.1019  0.2972 -0.3440
  775MOL0     C 4510  10.128  -0.698   3.881 -0.6389  0.0274  0.8089
  775MOL0     C 4511  10.130  -0.775   3.736  0.3328 -0.3175 -0.2028
  775MOL0     C 4512  10.150  -0.694   3.606  0.6641  0.4945 -0.1165
  775MOL0     C 4513  10.299  -0.655   3.580  0.4341 -0.7773  0.2319
  775MOL0     O 4514  10.392  -0.763   3.581 -0.4865 -0.7219 -0.9008
  775MOL0     C 4515  10.524  -0.731   3.585  0.6711 -0.1401  0.1033
  775MOL0     C 4516  10.588  -0.605   3.551 -0.3481 -0.3859  0.4503
  775MOL0     C 4517  10.724  -0.594   3.586  0.7933 -0.2830  0.5995
  775MOL0     C 4518  10.792  -0.696   3.654 -0.2321  0.2624  0.0601
  775MOL0     C 4519  10.944  -0.682   3.662  0.1836  0.2417 -0.3800
  775MOL0     O 4520  11.004  -0.559   3.635 -0.3413  0.7811  0.2224
  775MOL0     C 4521  11.140  -0.555   3.602  0.4926  0.5125  0.8424
  775MOL0     C 4522  11.223  -0.447   3.627 -0.1970 -0.1229 -0.1184
  775MOL0     C 4523  11.354  -0.441   3.573  0.6583  0.2201  0.0619
  775MOL0     C 4524  11.393  -0.539   3.485  0.0407 -0.3562  0.6182
  775MOL0     O 4525  11.524  -0.513   3.452 -0.4337 -0.2985  0.7038
  775MOL0     C 4526  11.573  -0.567   3.332  0.0084 -0.6869 -0.2954
  775MOL0     C 4527  11.517  -0.494   3.213 -0.0759  0.9082 -0.5402
  775MOL0     C 4528  11.547  -0.562   3.087  0.3177 -0.2973 -0.1680
  775MOL0     C 4529  11.489  -0.487   2.967  0.3860  0.7731 -0.2077
  775MOL0     C 4530  11.570  -0.521   2.843 -0.2440 -0.2837  0.6325
  775MOL0     C 4531  11.538  -0.649   2.782 -0.0083  0.2427  1.2413
  775MOL0     C 4532  11.526  -0.653   2.622 -0.8952 -0.7808 -0.9160
  775MOL0     C 4533  11.565  -0.795   2.578 -0.4167 -0.7250 -0.1311
  775MOL0    Cl 4534  11.461  -0.925   2.646 -0.5019 -0.0319 -0.7121
  775MOL0     C 4535  11.306  -0.640   3.433  0.7382 -0.2304 -1.0990
  775MOL0     C 4536  11.180  -0.641   3.500  0.8460 -0.8187  0.1037
  775MOL0     O 4537  11.009  -0.781   3.675  0.6453  0.6424  0.3197
  775MOL0     C 4538  10.729  -0.814   3.700  0.4465  0.1733 -0.5420
  775MOL0     C 4539  10.593  -0.831   3.663  0.2517 -0.6666  1.5184
  775MOL0     N 4540   9.908  -0.597   3.929  0.3831 -1.1520 -0.5960
  775MOL0     N 4541   9.857  -0.469   3.940  0.3602  0.6119 -0.1662
  775MOL0     C 4542   9.669   0.759   4.069 -0.4302 -0.7412  0.7122
  775MOL0     C 4543   9.706   0.887   4.127 -0.1885 -0.5940 -0.7453
  775MOL0     C 4544  10.007   1.211   4.321  0.4387 -0.3156 -0.2714
  775MOL0     C 4545   9.922   1.212   4.428  0.4157 -0.5767 -0.4858
  775MOL0     C 4546   9.956   1.294   4.531  0.4022 -0.5560  0.0482
  775MOL0     C 4547  10.058   1.380   4.539 -0.4801  0.1450 -0.3319
  775MOL0     O 4548  10.088   1.460   4.652  0.3186 -0.3463  0.0867
  775MOL0     C 4549  10.026   1.451   4.779  0.2028  0.7117 -0.1241
  775MOL0     C 4550  10.098   1.532   4.889  0.5091  0.0208  0.2946
  775MOL0     C 4551  10.237   1.477   4.928  0.2268 -0.6107  0.6204
  775MOL0     C 4552  10.298   1.549   5.042  1.1366 -0.5532 -1.0475
  775MOL0     C 4553  10.431   1.507   5.087 -0.7084  0.1157 -0.1424
  775MOL0     C 4554  10.548   1.470   5.102  0.5660  0.3795 -0.0517
  775MOL0     C 4555  10.138   1.387   4.428  0.7751  0.2219 -0.8942
  775MOL0     C 4556  10.115   1.309   4.322  0.1546 -0.6129  0.2664
  775MOL0     C 4557  10.212   1.329   4.206 -0.1812  0.8112  0.3718
  775MOL0     H 4558  10.045   0.826   4.131  0.4314  0.5267 -3.5555
  775MOL0     H 4559   9.983   0.627   4.025  1.2244  1.1864  0.5695
  775MOL0     H 4560   9.871   0.453   3.870  1.0965  3.2641  2.1679
  775MOL0     H 4561   9.832   0.391   4.027 -1.7363 -1.1525  0.1138
  775MOL0     H 4562   9.667   0.405   3.775  0.7918 -2.2109 -2.0911
  775MOL0     H 4563   9.591   0.350   3.928  0.7732  1.7499  0.7030
  775MOL0     H 4564   9.839   0.204   3.818 -0.0189 -0.5280 -0.0655
  775MOL0     H 4565   9.678   0.147   3.767 -0.2371 -0.7047  0.9714
  775MOL0     H 4566   9.748   0.163   4.053 -2.4317  0.0620 -0.3101
  775MOL0     H 4567   9.597   0.104   3.973 -0.7054 -0.4662 -1.1115
  775MOL0     H 4568   9.743  -0.080   4.029  0.5660 -1.8505 -0.3900
  775MOL0     H 4569   9.716  -0.058   3.853 -0.6302  1.0933 -0.0372
  775MOL0     H 4570   9.945   0.016   3.829 -1.3472 -1.5684 -0.3492
  775MOL0     H 4571   9.965   0.051   4.002  1.8748 -0.5679 -0.3137
  775MOL0     H 4572   9.929  -0.176   4.072  0.5334 -0.9999 -1.0448
  775MOL0     H 4573  10.076  -0.126   3.969  0.6361  0.9687 -2.4873
  775MOL0     H 4574   9.818  -0.239   3.859  0.4386  2.1599  3.1317
  775MOL0     H 4575   9.961  -0.212   3.772 -1.5375 -0.4674 -1.2573
  775MOL0     H 4576  10.161  -0.420   3.827 -1.0891 -0.2693 -1.4103
  775MOL0     H 4577  10.228  -0.670   3.916 -0.3028 -1.6022  1.2534
  775MOL0     H 4578  10.101  -0.776   3.953 -2.5881  1.7206  2.0251
  775MOL0     H 4579  10.200  -0.859   3.743 -1.3099 -1.7079  0.3363
  775MOL0     H 4580  10.027  -0.810   3.725  1.0140 -2.2755 -0.7182
  775MOL0     H 4581  10.090  -0.603   3.610 -0.5606 -0.2963  3.6764
  775MOL0     H 4582  10.115  -0.751   3.519  2.3835 -1.5097  0.4046
  775MOL0     H 4583  10.332  -0.586   3.657  1.8773  1.4755 -2.2355
  775MOL0     H 4584  10.300  -0.599   3.486 -0.5266  0.7175  1.0662
  775MOL0     H 4585  10.538  -0.521   3.504  0.1546  1.0223  2.3391
  775MOL0     H 4586  10.770  -0.502   3.552 -1.3919  0.0826 -1.6412
  775MOL0     H 4587  11.186  -0.373   3.698 -2.5421  1.6182 -2.9526
  775MOL0     H 4588  11.416  -0.358   3.605 -0.6906  1.1487  0.3421
  775MOL0     H 4589  11.683  -0.570   3.329  0.0538  0.7668 -3.4678
  775MOL0     H 4590  11.546  -0.673   3.324 -1.3616 -0.4795  1.1599
  775MOL0     H 4591  11.407  -0.494   3.210 -0.1546  1.6297  1.2431
  775MOL0     H 4592  11.552  -0.391   3.216  2.1296  0.1873  0.1156
  775MOL0     H 4593  11.656  -0.570   3.084  0.2243 -1.4123 -0.9333
  775MOL0     H 4594  11.501  -0.660   3.097  0.1109 -0.2116 -0.2696
  775MOL0     H 4595  11.501  -0.380   2.984  0.1779  0.4577  2.3365
  775MOL0     H 4596  11.383  -0.509   2.951  0.7646 -0.2978 -1.3937
  775MOL0     H 4597  11.678  -0.521   2.862 -0.5566 -2.4069  3.0238
  775MOL0     H 4598  11.547  -0.442   2.772 -2.1089 -1.5200 -0.2239
  775MOL0     H 4599  11.604  -0.726   2.821 -0.0406 -0.6466 -0.3904
  775MOL0     H 4600  11.438  -0.678   2.817 -0.8258 -1.3754 -2.0312
  775MOL0     H 4601  11.590  -0.577   2.577 -1.8909  0.0050 -1.0361
  775MOL0     H 4602  11.424  -0.626   2.592 -2.0047  0.7464  3.5125
  775MOL0     H 4603  11.558  -0.805   2.469  0.2980 -0.6533 -0.1917
  775MOL0     H 4604  11.669  -0.818   2.603 -0.1947  0.1640 -0.1998
  775MOL0     H 4605  11.321  -0.715   3.357 -3.4138 -0.6005 -1.7894
  775MOL0     H 4606  11.105  -0.717   3.481  2.5027 -2.4761 -0.0972
  775MOL0     H 4607  10.773  -0.884   3.769 -4.8556 -1.6028  1.4816
  775MOL0     H 4608  10.532  -0.912   3.700 -1.4152  0.7631  2.0745
  775MOL0     H 4609   9.572   0.732   4.029  0.1442  1.2633 -2.3311
  775MOL0     H 4610   9.627   0.954   4.159  0.5833  1.3125 -2.5841
  775MOL0     H 4611   9.843   1.139   4.443  0.6455 -1.0913 -1.7132
  775MOL0     H 4612   9.889   1.270   4.613 -1.7532  0.5382 -1.2965
  775MOL0     H 4613  10.023   1.347   4.813  2.4586  1.1169  1.5642
  775MOL0     H 4614   9.919   1.476   4.775 -0.9767 -3.2896  1.2838
  775MOL0     H 4615  10.035   1.520   4.978  2.0947 -2.3342  1.1925
  775MOL0     H 4616  10.099   1.634   4.848 -1.5931  0.4495  1.1412
  775MOL0     H 4617  10.301   1.485   4.840 -1.5352  0.8910 -0.6101
  775MOL0     H 4618  10.218   1.374   4.960  0.2286  0.2889  3.7904
  775MOL0     H 4619  10.281   1.657   5.032 -5.4653 -1.1005 -0.2021
  775MOL0     H 4620  10.228   1.525   5.122 -2.0342  1.7793 -2.8868
  775MOL0     H 4621  10.648   1.446   5.132  0.1509 -2.0221 -0.3935
  775MOL0     H 4622  10.221   1.457   4.426  0.2670  0.8993 -4.7069
  775MOL0     H 4623  10.279   1.415   4.216  0.4181  0.2407  1.3572
  775MOL0     H 4624  10.288   1.253   4.187 -0.2653 -0.7433  5.1290
  775MOL0     H 4625  10.144   1.333   4.120 -1.5736  0.1734  1.4082
  776MOL0     O 4626   0.185  10.222   9.902 -0.2888  0.9453  0.0792
  776MOL0     C 4627   0.276  10.272   9.846  0.5551  0.7007  0.8515
  776MOL0     O 4628   0.368  10.213   9.762 -0.7733  0.0386  1.0419
  776MOL0     C 4629   0.368  10.079   9.779 -0.0240  0.8308  0.9074
  776MOL0     C 4630   0.360  10.010   9.892  1.0066  0.6725  0.4081
  776MOL0     C 4631   0.354   9.871   9.883  0.1170  0.5054  0.0791
  776MOL0     C 4632   0.381   9.805   9.760 -0.5907  0.0562 -0.6579
  776MOL0     O 4633   0.386   9.668   9.755  0.3143 -0.0592  0.0075
  776MOL0     C 4634   0.426   9.590   9.875  0.0858  0.4072 -0.6358
  776MOL0     C 4635   0.294   9.517   9.931  0.0424 -0.2260 -1.0127
  776MOL0     C 4636   0.320   9.406  10.031  0.0144  0.1488 -0.1091
  776MOL0     C 4637   0.392   9.280   9.971 -0.3026  1.4955 -0.1242
  776MOL0     C 4638   0.390   9.143  10.054 -0.8833  0.4475  0.1747
  776MOL0     C 4639   0.443   9.019   9.984 -0.5491 -0.4713  0.3347
  776MOL0     C 4640   0.576   9.038   9.898  0.2071 -0.6842  0.5537
  776MOL0     C 4641   0.701   9.074   9.986  0.2481  0.0769  0.3771
  776MOL0     N 4642   0.701   8.990  10.104  0.3634 -0.1142 -0.7115
  776MOL0     C 4643   0.673   9.041  10.234  0.3634  0.6219  0.4538
  776MOL0     C 4644   0.676   8.929  10.312  0.1321 -0.9488 -0.6152
  776MOL0     C 4645   0.657   8.927  10.458 -0.0373  0.4410  0.8831
  776MOL0     C 4646   0.546   8.835  10.493  0.7474  0.1966  0.2982
  776MOL0     C 4647   0.541   8.813  10.644  0.0235  0.2443  0.7356
  776MOL0     C 4648   0.659   8.732  10.692 -0.2626 -0.2205 -1.1180
  776MOL0     O 4649   0.649   8.686  10.833 -0.6341 -0.0504  0.8429
  776MOL0     C 4650   0.591   8.769  10.912 -0.3320 -0.1179 -0.8754
  776MOL0     C 4651   0.656   8.883  10.963  0.2651  0.3407  0.0139
  776MOL0     C 4652   0.604   8.958  11.069 -0.2090 -0.2764  0.1805
  776MOL0     C 4653   0.480   8.927  11.128  0.2912 -0.2287  0.1549
  776MOL0     C 4654   0.415   9.007  11.237 -0.2355 -0.2971 -0.0699
  776MOL0     O 4655   0.285   8.980  11.259 -0.1324 -0.1008 -0.5987
  776MOL0     C 4656   0.198   9.069  11.310  1.0722 -0.5692  0.2399
  776MOL0     C 4657   0.217   9.212  11.325 -0.4813 -0.1927 -0.0036
  776MOL0     C 4658   0.127   9.283  11.397 -0.6896 -0.0938 -0.2533
  776MOL0     C 4659   0.015   9.226  11.451  0.0172  0.0485 -0.5744
  776MOL0     O 4660  -0.076   9.315  11.516  0.4839  0.2485 -0.1069
  776MOL0     C 4661  -0.179   9.252  11.598  0.0883  0.0245  0.2351
  776MOL0     C 4662  -0.316   9.253  11.523 -0.7808 -0.1154 -0.6008
  776MOL0     C 4663  -0.390   9.389  11.499  0.0978  0.1875 -0.3947
  776MOL0     C 4664  -0.307   9.469  11.392 -1.1591  0.1541  0.1315
  776MOL0     C 4665  -0.374   9.601  11.350  0.3947  0.0583  0.0233
  776MOL0     C 4666  -0.487   9.582  11.252  0.6785 -0.3734 -0.0490
  776MOL0     C 4667  -0.450   9.515  11.118 -1.1141 -0.3819  1.2099
  776MOL0     C 4668  -0.560   9.570  11.027 -0.4947  0.4514  1.0261
  776MOL0    Cl 4669  -0.552   9.492  10.868  0.4007  0.3990 -0.1195
  776MOL0     C 4670  -0.018   9.103  11.410 -0.5018  0.7636  0.6512
  776MOL0     C 4671   0.077   9.017  11.349  0.1989  0.1373  0.2080
  776MOL0     O 4672   0.485   9.091  11.294 -0.1931  0.0286  0.7997
  776MOL0     C 4673   0.406   8.834  11.059 -0.0650  0.6319  0.2902
  776MOL0     C 4674   0.460   8.750  10.955  0.2594  0.1835 -0.2563
  776MOL0     N 4675   0.703   8.822  10.224 -0.3144  0.0589  0.1660
  776MOL0     N 4676   0.721   8.853  10.103  0.0451 -0.2582 -0.0507
  776MOL0     C 4677   0.420   9.880   9.644  0.0343 -0.5223 -0.6500
  776MOL0     C 4678   0.401  10.013   9.652 -1.7473 -0.7086 -0.1581
  776MOL0     C 4679   0.325  10.400   9.897 -0.3847 -1.3127 -0.7278
  776MOL0     C 4680   0.355  10.407  10.029  0.1187 -0.6638 -0.2583
  776MOL0     C 4681   0.426  10.515  10.084  1.3366  0.0374 -0.3574
  776MOL0     C 4682   0.450  10.632  10.002  0.4458 -0.5033 -0.0881
  776MOL0     O 4683   0.490  10.740  10.072 -0.4107  0.0306 -0.1775
  776MOL0     C 4684   0.546  10.851  10.001  0.2421  0.0346 -0.0954
  776MOL0     C 4685   0.617  10.942  10.107  0.3011 -0.3207  0.4092
  776MOL0     C 4686   0.732  10.860  10.145 -0.8110  0.0380  0.4736
  776MOL0     C 4687   0.839  10.915  10.238 -0.2534 -0.3249  0.5224
  776MOL0     C 4688   0.903  11.033  10.178  0.3676  0.2582  0.6565
  776MOL0     C 4689   0.931  11.133  10.116  0.4869 -0.0690  0.3809
  776MOL0     C 4690   0.414  10.629   9.869 -0.4668  1.3328 -0.1491
  776MOL0     C 4691   0.369  10.506   9.812  0.8673 -0.5247  0.2496
  776MOL0     C 4692   0.332  10.507   9.668 -0.1377  0.0306  0.7909
  776MOL0     H 4693   0.342  10.065   9.985 -1.0002  2.8713 -1.1627
  776MOL0     H 4694   0.328   9.820   9.975  0.5584 -0.6790 -0.4363
  776MOL0     H 4695   0.501   9.513   9.860 -1.2965 -1.2971  0.8363
  776MOL0     H 4696   0.452   9.651   9.962  2.7741 -2.5147  0.7865
  776MOL0     H 4697   0.229   9.471   9.855 -2.3614 -1.1870  1.4669
  776MOL0     H 4698   0.228   9.589   9.980  1.4702  0.7090 -0.3831
  776MOL0     H 4699   0.222   9.373  10.065 -1.3022  1.1534 -2.6520
  776MOL0     H 4700   0.380   9.439  10.117  0.6205 -1.6832  0.2062
  776MOL0     H 4701   0.326   9.256   9.887  0.0568 -1.5311  0.3612
  776MOL0     H 4702   0.494   9.292   9.933 -0.5534  0.0734 -1.3677
  776MOL0     H 4703   0.446   9.161  10.146 -0.5463 -3.6396  0.9272
  776MOL0     H 4704   0.284   9.130  10.079 -2.5464  2.3764 -4.6122
  776MOL0     H 4705   0.453   8.937  10.056 -1.9756  0.0782  1.2028
  776MOL0     H 4706   0.368   8.992   9.909 -2.6763  2.0618  1.4027
  776MOL0     H 4707   0.558   9.102   9.811  0.8256  2.3879  2.5623
  776MOL0     H 4708   0.590   8.934   9.864  2.5710  0.0126 -0.7729
  776MOL0     H 4709   0.793   9.062   9.928 -1.1455 -0.8498 -1.7539
  776MOL0     H 4710   0.682   9.176  10.019 -0.6768 -0.5096  1.7406
  776MOL0     H 4711   0.639   9.140  10.262 -2.2660  0.0692 -0.4556
  776MOL0     H 4712   0.748   8.889  10.505  0.6238  0.2962 -0.4583
  776MOL0     H 4713   0.633   9.024  10.502 -3.6432  0.3601 -0.5865
  776MOL0     H 4714   0.448   8.881  10.476  0.8444  0.3238  0.0852
  776MOL0     H 4715   0.544   8.742  10.434 -2.3732  0.4768 -0.1913
  776MOL0     H 4716   0.447   8.762  10.666  2.0122 -3.2390  1.9878
  776MOL0     H 4717   0.535   8.912  10.689  0.8799  1.4581 -1.6626
  776MOL0     H 4718   0.744   8.800  10.688 -1.0455  0.7933 -0.9134
  776MOL0     H 4719   0.676   8.645  10.627  0.1987  0.6626 -2.2232
  776MOL0     H 4720   0.755   8.885  10.919 -0.5942 -2.4536 -2.3226
  776MOL0     H 4721   0.660   9.043  11.106 -0.7280 -0.3400  1.1468
  776MOL0     H 4722   0.292   9.265  11.267 -1.5061  0.1307 -1.0518
  776MOL0     H 4723   0.121   9.392  11.398 -0.1605 -0.0587 -0.5842
  776MOL0     H 4724  -0.151   9.151  11.627  1.7588  0.6607  0.9495
  776MOL0     H 4725  -0.188   9.312  11.688  1.1459  1.1610 -0.3922
  776MOL0     H 4726  -0.310   9.206  11.424 -2.4768 -2.6086  0.3823
  776MOL0     H 4727  -0.387   9.184  11.569  1.5279 -1.1143  1.6914
  776MOL0     H 4728  -0.483   9.362  11.449  1.8180 -3.5417 -2.0147
  776MOL0     H 4729  -0.397   9.429  11.600  1.3991 -1.1897  0.2814
  776MOL0     H 4730  -0.283   9.411  11.302 -0.5403 -1.1542  1.1082
  776MOL0     H 4731  -0.214   9.495  11.443  0.3865 -1.3025 -1.7716
  776MOL0     H 4732  -0.311   9.675  11.299  0.8010  1.7307  2.7281
  776MOL0     H 4733  -0.395   9.652  11.444 -2.3283  0.3914 -0.6894
  776MOL0     H 4734  -0.573   9.532  11.298 -1.2292  1.5116 -1.3387
  776MOL0     H 4735  -0.524   9.683  11.230  2.6620  0.3349 -0.3057
  776MOL0     H 4736  -0.460   9.408  11.136  1.1651 -1.0394 -0.8174
  776MOL0     H 4737  -0.344   9.529  11.093 -1.5700  2.2812  0.4844
  776MOL0     H 4738  -0.656   9.550  11.074 -2.4760  1.3443 -2.2921
  776MOL0     H 4739  -0.550   9.678  11.011  0.4047  0.3141  0.5757
  776MOL0     H 4740  -0.121   9.068  11.411 -0.3637  0.3616  1.5884
  776MOL0     H 4741   0.049   8.913  11.334 -3.1169  1.1280 -1.5315
  776MOL0     H 4742   0.300   8.823  11.075 -0.0869 -0.2340 -0.3847
  776MOL0     H 4743   0.406   8.665  10.914  1.6040 -0.6180 -0.4463
  776MOL0     H 4744   0.446   9.833   9.550  1.1377  0.7018 -0.9931
  776MOL0     H 4745   0.433  10.072   9.567  0.9552  0.3459  1.4478
  776MOL0     H 4746   0.338  10.320  10.092  1.4296  0.4644  1.7900
  776MOL0     H 4747   0.460  10.512  10.187 -1.2834  0.6439  0.6210
  776MOL0     H 4748   0.463  10.900   9.950 -1.6989 -1.6619  1.2526
  776MOL0     H 4749   0.619  10.817   9.927  1.2595 -1.6303  1.5666
  776MOL0     H 4750   0.539  10.970  10.179 -0.2820  3.9088 -1.5876
  776MOL0     H 4751   0.657  11.038  10.073 -2.7253  0.6674 -0.6917
  776MOL0     H 4752   0.787  10.845  10.051 -3.6007 -1.5843 -1.0264
  776MOL0     H 4753   0.711  10.759  10.181 -2.5061  0.5454  0.9919
  776MOL0     H 4754   0.795  10.948  10.332  1.8550 -0.9685  1.7965
  776MOL0     H 4755   0.914  10.837  10.252  2.3995  2.2176  1.5239
  776MOL0     H 4756   0.974  11.200  10.044  1.5171 -0.5007  0.5706
  776MOL0     H 4757   0.420  10.712   9.799 -2.9030  2.6927  1.1469
  776MOL0     H 4758   0.335  10.600   9.609  0.1446 -2.3013 -3.2214
  776MOL0     H 4759   0.403  10.439   9.621 -2.2856 -1.4404 -0.4862
  776MOL0     H 4760   0.229  10.475   9.652  0.1118 -0.7259  0.6724
  777MOL0     O 4761   7.483   3.440   7.337 -0.0142  0.6433 -0.5881
  777MOL0     C 4762   7.507   3.494   7.233  0.1477  0.2649  0.6376
  777MOL0     O 4763   7.441   3.460   7.116  0.0796 -0.1315 -0.2548
  777MOL0     C 4764   7.348   3.357   7.107  0.1521  0.5636  0.3000
  777MOL0     C 4765   7.394   3.251   7.026 -0.2793  0.1730  0.6038
  777MOL0     C 4766   7.316   3.135   7.011  0.1376  0.3379  0.2912
  777MOL0     C 4767   7.183   3.131   7.071 -0.5586 -0.1484  0.5888
  777MOL0     O 4768   7.123   3.009   7.076  0.0636 -0.5634 -0.5953
  777MOL0     C 4769   7.016   2.997   7.173 -0.2743  0.3352  0.2150
  777MOL0     C 4770   6.987   2.845   7.197 -0.5049 -0.0510  0.6855
  777MOL0     C 4771   6.855   2.822   7.276 -0.7935 -0.0555 -0.1029
  777MOL0     C 4772   6.861   2.686   7.338  0.1913 -0.3074 -0.1628
  777MOL0     C 4773   6.721   2.639   7.380 -0.2989 -0.3281  0.9914
  777MOL0     C 4774   6.655   2.733   7.470  0.1239  0.2747  0.0125
  777MOL0     C 4775   6.534   2.674   7.536  0.1414  0.2490  0.7302
  777MOL0     C 4776   6.409   2.767   7.540 -0.2258 -0.9722  0.3716
  777MOL0     N 4777   6.285   2.697   7.560 -0.7182  0.6793  0.4916
  777MOL0     C 4778   6.246   2.612   7.669  0.0877 -0.3843  0.4279
  777MOL0     C 4779   6.112   2.608   7.664 -0.3855 -0.6578 -0.2318
  777MOL0     C 4780   6.018   2.530   7.751 -0.4140  0.3757 -0.3992
  777MOL0     C 4781   5.904   2.471   7.665  0.8373  0.0640 -0.3068
  777MOL0     C 4782   5.795   2.413   7.760 -0.3979  0.6476  1.0378
  777MOL0     C 4783   5.839   2.285   7.839  0.3957  0.5692  0.8088
  777MOL0     O 4784   5.846   2.161   7.757 -0.0655 -0.1653 -0.2833
  777MOL0     C 4785   5.730   2.120   7.694  0.0273  0.3725 -0.0112
  777MOL0     C 4786   5.750   2.080   7.559 -0.1431 -0.4453  0.1861
  777MOL0     C 4787   5.644   2.005   7.502  0.1608 -0.5164 -0.3206
  777MOL0     C 4788   5.512   1.981   7.562 -0.1883  0.5928 -0.6115
  777MOL0     C 4789   5.403   1.903   7.505  0.3239  0.3011  0.7766
  777MOL0     O 4790   5.447   1.819   7.394  0.3100 -0.3482 -0.4052
  777MOL0     C 4791   5.357   1.772   7.299 -0.7170 -0.5126  0.9985
  777MOL0     C 4792   5.308   1.848   7.195 -1.4299 -0.9388 -0.9589
  777MOL0     C 4793   5.222   1.785   7.107 -1.4972 -0.4765  0.6438
  777MOL0     C 4794   5.204   1.651   7.103  0.7843  0.0002 -0.4404
  777MOL0     O 4795   5.143   1.598   6.996 -0.1767  0.3030  0.3447
  777MOL0     C 4796   4.998   1.610   6.989  0.3236  0.1826 -0.0423
  777MOL0     C 4797   4.922   1.500   7.072 -0.2401  0.4296  1.0244
  777MOL0     C 4798   4.943   1.356   7.014 -0.4967  0.2916  0.0473
  777MOL0     C 4799   4.888   1.260   7.116  0.7954 -0.2387 -0.3264
  777MOL0     C 4800   4.736   1.268   7.141 -1.2816 -0.5112  0.1264
  777MOL0     C 4801   4.682   1.157   7.235  0.2841 -0.5767  0.5485
  777MOL0     C 4802   4.534   1.137   7.188 -1.1767  0.1681 -0.4865
  777MOL0     C 4803   4.448   1.100   7.307  0.6445  0.0156 -0.3344
  777MOL0    Cl 4804   4.293   1.065   7.224  0.1748  0.1535  0.4181
  777MOL0     C 4805   5.274   1.571   7.198 -1.1439 -0.3386  0.5223
  777MOL0     C 4806   5.347   1.630   7.299  0.4793  0.6938  0.2274
  777MOL0     O 4807   5.282   1.924   7.539 -0.3107  0.0762  0.2475
  777MOL0     C 4808   5.504   2.032   7.697  0.2576  0.7897 -0.2858
  777MOL0     C 4809   5.606   2.101   7.757 -0.4540 -0.5511 -0.0834
  777MOL0     N 4810   6.069   2.687   7.556 -0.3325  0.2615  0.2848
  777MOL0     N 4811   6.172   2.737   7.498  0.4729  0.0115  0.0789
  777MOL0     C 4812   7.139   3.240   7.148 -0.2072  0.1500 -0.6056
  777MOL0     C 4813   7.224   3.351   7.172  0.7154  0.4000  0.1711
  777MOL0     C 4814   7.627   3.583   7.230  0.4530  0.2198 -1.4716
  777MOL0     C 4815   7.699   3.593   7.349 -0.1799 -0.1171 -0.4395
  777MOL0     C 4816   7.794   3.689   7.363 -0.2617 -0.9726 -0.2899
  777MOL0     C 4817   7.828   3.781   7.253 -0.6129  0.4925 -0.3223
  777MOL0     O 4818   7.928   3.871   7.279 -0.4129  0.6409 -0.3968
  777MOL0     C 4819   7.990   3.928   7.173 -0.5192  0.4799 -0.4892
  777MOL0     C 4820   8.134   3.977   7.203 -0.5749  0.5072  0.4799
  777MOL0     C 4821   8.153   4.137   7.216  0.1436  1.7884 -0.7053
  777MOL0     C 4822   8.105   4.207   7.084  0.2783 -0.6507 -0.0799
  777MOL0     C 4823   8.092   4.357   7.115  0.0946 -0.0627  0.3529
  777MOL0     C 4824   8.086   4.471   7.154 -0.0668  0.8328  0.2165
  777MOL0     C 4825   7.749   3.762   7.134 -0.0154  0.3910  0.5753
  777MOL0     C 4826   7.660   3.662   7.117  0.6844  0.6264  0.3142
  777MOL0     C 4827   7.600   3.634   6.979  0.1053 -0.1908  0.5971
  777MOL0     H 4828   7.494   3.241   6.985  0.0095  2.8812  0.4982
  777MOL0     H 4829   7.376   3.057   6.966 -0.0222  1.3888 -1.8867
  777MOL0     H 4830   7.059   3.027   7.269  0.1490 -0.3951  0.2544
  777MOL0     H 4831   6.930   3.061   7.148  1.0947  2.3702  0.4455
  777MOL0     H 4832   7.073   2.811   7.256  1.5630 -0.4529 -2.3174
  777MOL0     H 4833   6.980   2.794   7.100 -0.6109 -1.1669  1.2634
  777MOL0     H 4834   6.771   2.828   7.206 -0.7589  0.2775 -0.1187
  777MOL0     H 4835   6.847   2.899   7.354  2.8798  0.5629 -0.2008
  777MOL0     H 4836   6.899   2.604   7.277 -2.0424 -3.2845  2.1336
  777MOL0     H 4837   6.930   2.678   7.422  2.3238 -0.4854 -1.8339
  777MOL0     H 4838   6.665   2.632   7.286 -2.2972  3.5266  1.6841
  777MOL0     H 4839   6.742   2.544   7.430  1.8193 -0.2688  0.3058
  777MOL0     H 4840   6.722   2.759   7.552 -0.7913 -0.9759  1.1847
  777MOL0     H 4841   6.632   2.822   7.410 -2.5313 -0.8552 -0.7793
  777MOL0     H 4842   6.563   2.650   7.639  0.0345  0.6886  0.8612
  777MOL0     H 4843   6.507   2.578   7.489  0.7842 -0.2710  1.3991
  777MOL0     H 4844   6.436   2.847   7.610  4.1295 -2.5195  0.7630
  777MOL0     H 4845   6.406   2.818   7.444 -0.2245 -2.2370 -0.3161
  777MOL0     H 4846   6.303   2.563   7.748  0.5385 -0.2956  0.1601
  777MOL0     H 4847   6.080   2.448   7.789 -0.3231  0.0593 -1.2032
  777MOL0     H 4848   5.998   2.593   7.838 -0.7507  0.3634 -0.4669
  777MOL0     H 4849   5.861   2.554   7.609 -1.3407 -0.5613  0.3028
  777MOL0     H 4850   5.939   2.394   7.596  1.1341 -2.7735  2.7240
  777MOL0     H 4851   5.712   2.384   7.695  0.1662  3.0208 -0.8569
  777MOL0     H 4852   5.758   2.486   7.833 -2.5158  1.3079 -0.6012
  777MOL0     H 4853   5.775   2.265   7.925  0.9866  2.2106  1.6757
  777MOL0     H 4854   5.937   2.309   7.882  1.0740  1.0946 -0.9679
  777MOL0     H 4855   5.842   2.082   7.501 -0.1034 -2.1115  0.1430
  777MOL0     H 4856   5.651   1.968   7.400  0.4453 -0.4158 -0.3392
  777MOL0     H 4857   5.333   1.953   7.189 -2.1599 -0.6289  0.8354
  777MOL0     H 4858   5.182   1.854   7.033  1.8802 -1.1602 -2.0786
  777MOL0     H 4859   4.973   1.703   7.040  0.2825 -1.5375  3.3467
  777MOL0     H 4860   4.968   1.604   6.884  3.1949 -1.4008 -0.8836
  777MOL0     H 4861   4.945   1.511   7.178  3.8434 -0.4061  0.3546
  777MOL0     H 4862   4.813   1.508   7.061 -0.4182 -1.7086  0.7986
  777MOL0     H 4863   4.904   1.341   6.913 -2.8936 -1.9099  1.2065
  777MOL0     H 4864   5.051   1.341   7.000 -0.8295  0.3305 -3.8514
  777MOL0     H 4865   4.937   1.278   7.212  0.1405 -0.3154  0.0301
  777MOL0     H 4866   4.902   1.157   7.084 -0.8713  0.1284 -2.4650
  777MOL0     H 4867   4.699   1.261   7.038  2.3531  2.4335 -1.6047
  777MOL0     H 4868   4.713   1.366   7.185 -2.3238 -1.0322  0.7926
  777MOL0     H 4869   4.742   1.068   7.215  1.3121  0.0122  0.9430
  777MOL0     H 4870   4.707   1.170   7.340  3.2908  2.0175 -0.3497
  777MOL0     H 4871   4.527   1.052   7.119 -0.1355 -1.8937  1.7960
  777MOL0     H 4872   4.483   1.223   7.143  1.1646  2.6802  1.2672
  777MOL0     H 4873   4.491   1.023   7.373 -2.1077 -0.1653  1.4265
  777MOL0     H 4874   4.432   1.185   7.374  2.0896 -0.2885  0.4556
  777MOL0     H 4875   5.256   1.464   7.196 -4.0991  0.0180  2.2386
  777MOL0     H 4876   5.393   1.572   7.378  2.3481 -1.7376 -2.4665
  777MOL0     H 4877   5.420   2.000   7.759  0.6147 -4.9762 -2.1698
  777MOL0     H 4878   5.583   2.118   7.862 -1.6328 -1.2819 -0.2023
  777MOL0     H 4879   7.047   3.252   7.204  0.2009 -0.6245  0.2718
  777MOL0     H 4880   7.193   3.429   7.240 -4.6277 -2.0151  1.0429
  777MOL0     H 4881   7.679   3.528   7.434 -0.3389  1.6905  0.9723
  777MOL0     H 4882   7.847   3.701   7.456 -0.7476  4.0742 -0.3990
  777MOL0     H 4883   7.933   4.011   7.130  0.5007  0.4662 -1.9185
  777MOL0     H 4884   8.005   3.855   7.094 -1.0826 -0.7560  0.5139
  777MOL0     H 4885   8.210   3.936   7.137 -2.8042 -0.5693 -1.5438
  777MOL0     H 4886   8.157   3.932   7.300  2.5498 -0.9700 -0.8194
  777MOL0     H 4887   8.259   4.149   7.243 -0.3982 -0.1156  3.0326
  777MOL0     H 4888   8.094   4.180   7.298 -2.7267 -0.9940 -1.1303
  777MOL0     H 4889   8.169   4.165   7.006 -0.4975 -3.0652  0.4896
  777MOL0     H 4890   8.003   4.178   7.059 -0.4404 -0.7921  2.7141
  777MOL0     H 4891   8.080   4.566   7.204  1.5756  2.1047 -1.8450
  777MOL0     H 4892   7.756   3.825   7.046  0.0319 -1.5017 -0.8552
  777MOL0     H 4893   7.654   3.691   6.903 -3.0903 -1.8252 -3.3272
  777MOL0     H 4894   7.610   3.528   6.954 -1.7960 -1.0386  3.0433
  777MOL0     H 4895   7.495   3.664   6.972 -0.2883 -1.0726  2.2220
  778MOL0     O 4896   4.018   8.906   3.902 -0.2678  0.4790 -0.6046
  778MOL0     C 4897   4.131   8.878   3.933 -0.5716 -0.0279 -0.7758
  778MOL0     O 4898   4.206   8.774   3.882  0.2586 -0.4717 -0.1283
  778MOL0     C 4899   4.133   8.677   3.811  0.0303  0.3380  0.2431
  778MOL0     C 4900   4.148   8.666   3.672  0.4704 -0.3505 -0.5445
  778MOL0     C 4901   4.065   8.584   3.599 -0.0353  0.7184  0.1126
  778MOL0     C 4902   3.972   8.495   3.662 -0.6682  0.5860 -0.4355
  778MOL0     O 4903   3.897   8.397   3.603 -0.0426  0.7096  0.3707
  778MOL0     C 4904   3.968   8.335   3.488  0.0201  0.0523 -0.1517
  778MOL0     C 4905   3.946   8.188   3.488  0.4110  0.0620 -0.6984
  778MOL0     C 4906   3.814   8.152   3.433 -0.3337  0.1164  0.0969
  778MOL0     C 4907   3.686   8.186   3.521  0.3176  0.0928 -0.0275
  778MOL0     C 4908   3.559   8.122   3.463  0.6125  0.2935  0.1683
  778MOL0     C 4909   3.511   8.189   3.328  0.5704  0.0135 -0.0940
  778MOL0     C 4910   3.356   8.205   3.324 -0.0468 -0.5854  0.6143
  778MOL0     C 4911   3.300   8.328   3.402  0.7702 -0.0539 -0.9637
  778MOL0     N 4912   3.384   8.378   3.512  0.2752  0.2162  0.3445
  778MOL0     C 4913   3.453   8.490   3.500  0.4440  0.4512  0.8565
  778MOL0     C 4914   3.519   8.501   3.614 -0.7211  0.0435  0.5310
  778MOL0     C 4915   3.612   8.618   3.654  0.1697  0.1019 -1.2472
  778MOL0     C 4916   3.589   8.642   3.806 -0.7549 -0.4585 -0.5694
  778MOL0     C 4917   3.673   8.772   3.841  0.9196  0.6581  0.6082
  778MOL0     C 4918   3.702   8.798   3.988  0.6456  0.2997 -0.5240
  778MOL0     O 4919   3.590   8.811   4.071  0.1992  0.0533 -0.5095
  778MOL0     C 4920   3.498   8.909   4.049  0.7777  0.6853  0.2496
  778MOL0     C 4921   3.527   9.024   3.971  0.0054  0.4979 -0.8108
  778MOL0     C 4922   3.426   9.118   3.943  0.5182  0.4616  0.5381
  778MOL0     C 4923   3.289   9.090   3.981 -0.4356 -0.3558 -0.0719
  778MOL0     C 4924   3.173   9.181   3.935 -0.2245 -0.1538 -0.1192
  778MOL0     O 4925   3.204   9.283   3.850  0.2973 -1.4303  0.6738
  778MOL0     C 4926   3.119   9.379   3.796 -0.7733  0.8095 -0.8304
  778MOL0     C 4927   3.178   9.485   3.737 -0.2505 -1.0487 -1.0458
  778MOL0     C 4928   3.100   9.595   3.686 -0.3407  0.6095  0.8692
  778MOL0     C 4929   2.959   9.592   3.695 -0.6504 -0.1444 -0.0857
  778MOL0     O 4930   2.905   9.703   3.641 -0.4168  0.4200 -0.6345
  778MOL0     C 4931   2.767   9.721   3.649 -0.7293 -0.2438 -0.5202
  778MOL0     C 4932   2.727   9.782   3.502 -0.0510  0.6211 -0.2971
  778MOL0     C 4933   2.580   9.824   3.508  0.1148  0.0992  1.3610
  778MOL0     C 4934   2.547   9.888   3.365 -0.4773  0.1684 -0.3419
  778MOL0     C 4935   2.411   9.848   3.317 -0.3796  0.0147  0.5609
  778MOL0     C 4936   2.381   9.944   3.192  0.3312 -0.2640 -0.4153
  778MOL0     C 4937   2.268   9.889   3.099  0.0415  0.6637  0.0926
  778MOL0     C 4938   2.203  10.008   3.012  0.1909 -0.1741  0.1866
  778MOL0    Cl 4939   2.140  10.141   3.109  0.1412  0.3043  0.3213
  778MOL0     C 4940   2.904   9.474   3.749  0.1380  0.0942 -0.1835
  778MOL0     C 4941   2.983   9.370   3.796 -0.5586  0.2811 -0.5296
  778MOL0     O 4942   3.064   9.147   3.973  0.9517 -0.0201  0.5574
  778MOL0     C 4943   3.261   8.978   4.052 -0.7182 -1.0056  0.6381
  778MOL0     C 4944   3.365   8.884   4.081  0.9653  0.2930 -0.4229
  778MOL0     N 4945   3.473   8.389   3.699 -0.2431 -0.3353  0.1552
  778MOL0     N 4946   3.377   8.330   3.640 -0.2651 -0.3665  1.1918
  778MOL0     C 4947   3.947   8.508   3.796 -0.3298  0.7849 -0.5705
  778MOL0     C 4948   4.029   8.598   3.872 -0.5064  0.3999 -0.5692
  778MOL0     C 4949   4.217   8.968   4.003  0.0399 -0.8405 -0.6398
  778MOL0     C 4950   4.211   8.956   4.145 -1.2853  0.3817 -0.0131
  778MOL0     C 4951   4.291   9.032   4.233 -0.3796 -0.4082 -0.0759
  778MOL0     C 4952   4.378   9.125   4.178  0.6147  0.7708  0.4016
  778MOL0     O 4953   4.431   9.203   4.272  0.5441  0.0470 -0.3074
  778MOL0     C 4954   4.545   9.281   4.237  0.4883  0.1379 -0.4001
  778MOL0     C 4955   4.582   9.351   4.365 -0.7840 -0.3951  0.2082
  778MOL0     C 4956   4.728   9.399   4.363  0.4520  0.7043  0.0816
  778MOL0     C 4957   4.785   9.421   4.500  0.5993  0.7377 -0.4619
  778MOL0     C 4958   4.925   9.461   4.525 -0.1210  0.6439  0.1923
  778MOL0     C 4959   5.044   9.498   4.526  0.0875 -0.3742  0.0976
  778MOL0     C 4960   4.395   9.133   4.040 -0.6035  0.0502 -0.9486
  778MOL0     C 4961   4.310   9.062   3.951 -0.5774 -0.2081 -0.2294
  778MOL0     C 4962   4.337   9.089   3.807  0.0310  0.2399 -0.4217
  778MOL0     H 4963   4.223   8.723   3.617  0.5760  2.2922  2.1063
  778MOL0     H 4964   4.071   8.592   3.491 -0.8622  3.6437  0.1976
  778MOL0     H 4965   3.925   8.374   3.395  0.6694 -2.9450 -1.8260
  778MOL0     H 4966   4.075   8.348   3.501  0.1702 -0.5054 -0.7890
  778MOL0     H 4967   3.966   8.141   3.585  0.9958  0.6207 -0.5402
  778MOL0     H 4968   4.022   8.136   3.429 -0.1554 -1.7399  0.0804
  778MOL0     H 4969   3.820   8.043   3.426  1.9479  0.2648 -1.0686
  778MOL0     H 4970   3.806   8.192   3.332  3.6153 -1.3688 -1.0060
  778MOL0     H 4971   3.681   8.150   3.624  0.7558  0.8554  0.2688
  778MOL0     H 4972   3.671   8.295   3.522 -2.4984 -0.2186  1.7524
  778MOL0     H 4973   3.571   8.018   3.432 -4.0416  0.1476 -1.9694
  778MOL0     H 4974   3.482   8.116   3.541  2.7209 -0.0274  2.3523
  778MOL0     H 4975   3.556   8.289   3.330 -0.7079  0.6596 -1.7947
  778MOL0     H 4976   3.553   8.132   3.244  0.0621 -1.2076  0.4542
  778MOL0     H 4977   3.304   8.119   3.367  2.1412 -0.0463  4.8278
  778MOL0     H 4978   3.333   8.218   3.217 -0.9639  5.1761  1.1950
  778MOL0     H 4979   3.287   8.408   3.328  3.1910  1.3885  0.0586
  778MOL0     H 4980   3.202   8.309   3.446  0.5040 -1.1869 -1.9926
  778MOL0     H 4981   3.456   8.548   3.408 -0.0932 -2.0674 -0.8395
  778MOL0     H 4982   3.715   8.588   3.632  0.0422 -0.9155 -0.5443
  778MOL0     H 4983   3.590   8.714   3.607  0.4478  2.3256  2.7244
  778MOL0     H 4984   3.486   8.659   3.840  0.0376  1.4966  1.0201
  778MOL0     H 4985   3.630   8.557   3.862  0.7759 -1.8225 -3.5309
  778MOL0     H 4986   3.626   8.859   3.795 -0.1035  0.1911  0.7527
  778MOL0     H 4987   3.773   8.762   3.798  0.2865 -1.0430 -0.6113
  778MOL0     H 4988   3.752   8.893   4.006  1.0327 -0.2583  1.6291
  778MOL0     H 4989   3.772   8.724   4.027 -1.9392 -1.0698  1.8308
  778MOL0     H 4990   3.622   9.048   3.924 -0.0710  1.9737 -0.2674
  778MOL0     H 4991   3.461   9.206   3.891  0.0263  2.2553  3.0442
  778MOL0     H 4992   3.286   9.492   3.726 -0.0030 -0.6619  1.0823
  778MOL0     H 4993   3.137   9.695   3.663 -2.3155  1.0402 -0.6803
  778MOL0     H 4994   2.717   9.623   3.654 -0.7270 -0.3403 -2.0092
  778MOL0     H 4995   2.735   9.763   3.745  1.0146 -0.3167  0.1294
  778MOL0     H 4996   2.781   9.878   3.498 -0.9801  1.2492  1.3988
  778MOL0     H 4997   2.742   9.707   3.424  0.1208  0.4282 -0.0774
  778MOL0     H 4998   2.522   9.734   3.529 -0.2910  0.3420  1.2888
  778MOL0     H 4999   2.557   9.885   3.596  2.7265 -0.5558  2.6136
  778MOL0     H 5000   2.624   9.864   3.292  0.6874 -0.1237  0.9545
  778MOL0     H 5001   2.569   9.995   3.375 -0.2874  0.0515  0.6204
  778MOL0     H 5002   2.344   9.871   3.400  2.8588  3.4809  2.5142
  778MOL0     H 5003   2.398   9.742   3.293 -3.0442  0.3072  0.3718
  778MOL0     H 5004   2.371  10.044   3.233  4.5624  1.6400 -3.2761
  778MOL0     H 5005   2.476   9.948   3.138  1.0915 -0.0975  0.8933
  778MOL0     H 5006   2.192   9.841   3.161  0.2988  1.7558  1.2782
  778MOL0     H 5007   2.313   9.808   3.040 -0.5901 -0.8116  1.5523
  778MOL0     H 5008   2.279  10.048   2.944  2.1792 -0.7074  1.9696
  778MOL0     H 5009   2.118   9.965   2.958  0.9235 -1.5999  0.1199
  778MOL0     H 5010   2.802   9.439   3.762  1.3434 -3.0157  2.2481
  778MOL0     H 5011   2.928   9.286   3.836  0.8744 -0.2828  0.3530
  778MOL0     H 5012   3.161   8.962   4.092 -0.9981  1.8660  1.3463
  778MOL0     H 5013   3.327   8.794   4.129 -0.2048 -0.2661 -2.2848
  778MOL0     H 5014   3.878   8.441   3.847  0.7769 -2.0587 -2.4967
  778MOL0     H 5015   4.024   8.602   3.980  4.8989  4.0185 -0.1127
  778MOL0     H 5016   4.135   8.884   4.172  0.3416 -1.7521 -0.8468
  778MOL0     H 5017   4.274   9.022   4.340 -1.9982 -0.6370 -0.3326
  778MOL0     H 5018   4.510   9.352   4.161  0.0045 -2.0030 -2.2886
  778MOL0     H 5019   4.620   9.206   4.209 -1.8172 -2.3915 -0.2905
  778MOL0     H 5020   4.559   9.279   4.444  0.1936 -0.4079  0.4891
  778MOL0     H 5021   4.519   9.441   4.373 -0.1655  0.0622  0.0465
  778MOL0     H 5022   4.727   9.497   4.315  1.8957 -0.5533 -2.7775
  778MOL0     H 5023   4.792   9.331   4.305 -0.6212  0.3555 -0.7201
  778MOL0     H 5024   4.722   9.490   4.556  1.7303  0.4568  1.2499
  778MOL0     H 5025   4.776   9.323   4.546  0.2768  0.9206 -0.1335
  778MOL0     H 5026   5.145   9.533   4.524 -0.0563  0.4056  2.4292
  778MOL0     H 5027   4.452   9.214   3.994 -0.5191  0.6080  0.1021
  778MOL0     H 5028   4.445   9.071   3.798 -0.4087 -2.7468 -0.9416
  778MOL0     H 5029   4.279   9.026   3.740 -2.9395  0.8917  1.3603
  778MOL0     H 5030   4.310   9.186   3.766  2.2831  0.1586 -2.3501
  779MOL0     O 5031   4.706   7.741  11.413  0.0916  0.1314  0.5707
  779MOL0     C 5032   4.626   7.811  11.356  0.7182  0.1232 -0.6663
  779MOL0     O 5033   4.602   7.938  11.386  0.4962 -0.0878  0.2004
  779MOL0     C 5034   4.663   7.984  11.498  0.0964 -0.1532 -0.2943
  779MOL0     C 5035   4.776   8.064  11.489  0.5130 -0.1794 -0.5377
  779MOL0     C 5036   4.848   8.096  11.603  0.4632 -0.1127 -1.2306
  779MOL0     C 5037   4.805   8.059  11.735 -0.4659 -0.1294 -0.1146
  779MOL0     O 5038   4.883   8.080  11.851  0.4895  0.3406 -0.2207
  779MOL0     C 5039   4.887   8.224  11.883  0.2373 -0.3377  0.6051
  779MOL0     C 5040   4.968   8.246  12.011 -0.5808 -0.0629  0.4639
  779MOL0     C 5041   5.124   8.212  11.995  0.0652  0.0443  0.1523
  779MOL0     C 5042   5.175   8.154  12.132  0.5343  0.5883 -0.6432
  779MOL0     C 5043   5.122   8.014  12.173  0.6230  0.9864  0.1671
  779MOL0     C 5044   5.141   7.921  12.058 -0.3187  0.7046  0.4479
  779MOL0     C 5045   5.019   7.838  12.018 -0.8660  0.1434 -0.2623
  779MOL0     C 5046   5.035   7.773  11.878 -0.3276 -0.7322  0.7294
  779MOL0     N 5047   4.927   7.683  11.861 -0.6690  0.4077  0.8720
  779MOL0     C 5048   4.801   7.713  11.824 -0.1069 -0.5371  0.8592
  779MOL0     C 5049   4.714   7.614  11.833  0.1918 -0.6742 -0.3595
  779MOL0     C 5050   4.560   7.615  11.829 -0.6126  0.5874 -0.6251
  779MOL0     C 5051   4.496   7.479  11.884  0.5228 -0.4458 -0.4075
  779MOL0     C 5052   4.340   7.500  11.902  0.2193 -0.7741 -0.1978
  779MOL0     C 5053   4.260   7.495  11.765 -0.0373 -1.0157  0.1189
  779MOL0     O 5054   4.119   7.504  11.797 -0.1051  0.9759 -0.1041
  779MOL0     C 5055   4.017   7.499  11.712  0.7712  0.2417  0.2662
  779MOL0     C 5056   4.024   7.480  11.578  0.2174  0.1412 -0.4265
  779MOL0     C 5057   3.913   7.482  11.491  0.8142 -0.2628 -0.3256
  779MOL0     C 5058   3.782   7.498  11.554 -0.4671 -0.1825  0.1091
  779MOL0     C 5059   3.671   7.506  11.464  1.2779 -0.1066  0.9012
  779MOL0     O 5060   3.671   7.428  11.352 -0.3998  0.0342  0.1862
  779MOL0     C 5061   3.556   7.434  11.282  0.6384  0.5123 -0.3845
  779MOL0     C 5062   3.563   7.473  11.150  0.7263 -0.0775  0.8482
  779MOL0     C 5063   3.447   7.484  11.067 -0.0117  0.4837  0.9764
  779MOL0     C 5064   3.326   7.450  11.129  0.0288  0.0863  0.2875
  779MOL0     O 5065   3.208   7.471  11.071  0.3317  0.1410  0.1097
  779MOL0     C 5066   3.164   7.598  11.070 -0.0813  0.2859 -0.7951
  779MOL0     C 5067   3.015   7.588  11.055  0.4407  0.4318 -0.7883
  779MOL0     C 5068   2.949   7.510  11.168 -0.8910 -0.5982 -0.1225
  779MOL0     C 5069   2.814   7.478  11.136 -0.1717 -0.0702 -0.1357
  779MOL0     C 5070   2.741   7.458  11.264 -0.9493 -0.7289  0.1800
  779MOL0     C 5071   2.583   7.450  11.266  0.2832 -0.7653  0.9978
  779MOL0     C 5072   2.531   7.488  11.413  0.4875 -0.2498  0.2465
  779MOL0     C 5073   2.390   7.544  11.415 -0.2151 -0.6836 -0.2543
  779MOL0    Cl 5074   2.391   7.700  11.331 -0.1610 -0.0681  0.4770
  779MOL0     C 5075   3.318   7.418  11.261 -0.4663  0.3742 -0.3634
  779MOL0     C 5076   3.435   7.385  11.332 -0.2883 -0.4156 -0.9498
  779MOL0     O 5077   3.584   7.588  11.493  1.0745  0.9976 -0.4690
  779MOL0     C 5078   3.770   7.525  11.688  0.0790  0.0287  0.7773
  779MOL0     C 5079   3.885   7.515  11.766 -0.2495  0.0773 -0.0249
  779MOL0     N 5080   4.796   7.505  11.862  0.0460  0.6587 -0.0780
  779MOL0     N 5081   4.919   7.541  11.878  0.5059  0.0631  0.3501
  779MOL0     C 5082   4.674   8.004  11.753 -0.6866 -0.0810  0.6049
  779MOL0     C 5083   4.609   7.965  11.629 -0.6784 -0.1583  0.9005
  779MOL0     C 5084   4.550   7.757  11.238 -0.8940  1.2336 -0.2586
  779MOL0     C 5085   4.497   7.841  11.145  0.2458  0.5446 -0.1475
  779MOL0     C 5086   4.427   7.791  11.037  0.0485  0.6179 -0.4112
  779MOL0     C 5087   4.418   7.648  11.005 -1.0154 -0.2662 -0.0673
  779MOL0     O 5088   4.357   7.605  10.893 -0.0764  0.3019  0.1715
  779MOL0     C 5089   4.277   7.684  10.806  0.6376  0.5742  0.3229
  779MOL0     C 5090   4.279   7.618  10.665  0.5367  0.0533 -0.3786
  779MOL0     C 5091   4.177   7.503  10.652 -0.2501 -0.0293 -0.2248
  779MOL0     C 5092   4.190   7.432  10.521 -0.2315 -0.1625 -0.0685
  779MOL0     C 5093   4.105   7.528  10.437 -0.4288 -0.8146  0.0003
  779MOL0     C 5094   4.061   7.603  10.351  0.1525  0.1751  0.6126
  779MOL0     C 5095   4.483   7.568  11.097  0.0722 -0.5671 -0.1002
  779MOL0     C 5096   4.549   7.616  11.208  0.1611  0.5381  0.0812
  779MOL0     C 5097   4.595   7.515  11.310 -0.1583 -1.3570 -0.1863
  779MOL0     H 5098   4.816   8.109  11.399 -1.1709  0.5640 -0.9528
  779MOL0     H 5099   4.944   8.146  11.596 -0.6005  2.0265 -1.5991
  779MOL0     H 5100   4.942   8.277  11.805 -1.5169  1.8176  0.7439
  779MOL0     H 5101   4.788   8.265  11.904  0.8082  0.7070  1.3810
  779MOL0     H 5102   4.928   8.197  12.100  3.3296 -2.7648  1.0147
  779MOL0     H 5103   4.981   8.350  12.041 -1.5034  0.8183 -1.9512
  779MOL0     H 5104   5.184   8.303  11.989 -0.0296  0.1984  1.2141
  779MOL0     H 5105   5.133   8.148  11.907  1.2237 -0.3075  0.5083
  779MOL0     H 5106   5.284   8.150  12.128  0.4694 -2.2633 -1.3792
  779MOL0     H 5107   5.159   8.229  12.211 -1.6457  1.7019 -2.0439
  779MOL0     H 5108   5.166   7.969  12.263 -2.9734 -3.6541 -0.0105
  779MOL0     H 5109   5.016   8.030  12.195 -0.0735  2.1549 -3.4636
  779MOL0     H 5110   5.179   7.971  11.969  1.1330 -1.2176 -0.0825
  779MOL0     H 5111   5.212   7.840  12.081 -0.6578  0.1736 -0.3487
  779MOL0     H 5112   4.934   7.907  12.011  0.1242  1.2952 -1.4009
  779MOL0     H 5113   4.992   7.764  12.095 -3.3796 -0.4020 -1.5626
  779MOL0     H 5114   5.053   7.844  11.796  4.9020 -1.0482  1.2703
  779MOL0     H 5115   5.128   7.716  11.881  0.2110  0.0284 -0.6427
  779MOL0     H 5116   4.763   7.812  11.797 -4.5042 -1.2248  3.4633
  779MOL0     H 5117   4.515   7.698  11.884  0.4498 -0.8599  2.6959
  779MOL0     H 5118   4.525   7.628  11.727  1.4361 -0.8082 -1.5703
  779MOL0     H 5119   4.521   7.398  11.814 -1.0252  1.2520 -3.1173
  779MOL0     H 5120   4.529   7.459  11.986 -2.5594 -4.4784  0.0164
  779MOL0     H 5121   4.316   7.590  11.959 -1.1837 -0.4389 -1.2599
  779MOL0     H 5122   4.297   7.419  11.963  2.0135 -1.9039 -0.3495
  779MOL0     H 5123   4.292   7.404  11.714 -1.1700  1.6065 -6.2801
  779MOL0     H 5124   4.276   7.581  11.699 -5.6112 -0.2121 -0.7329
  779MOL0     H 5125   4.119   7.472  11.528  0.1708 -2.6590 -0.2130
  779MOL0     H 5126   3.919   7.458  11.385 -0.8633  1.6358 -0.9007
  779MOL0     H 5127   3.662   7.488  11.108 -0.2670  3.3534 -0.5879
  779MOL0     H 5128   3.452   7.519  10.964  1.6492 -1.1059  0.4554
  779MOL0     H 5129   3.191   7.646  11.165 -0.4064  0.3049 -0.7097
  779MOL0     H 5130   3.201   7.651  10.982  0.3149 -1.2104 -1.5699
  779MOL0     H 5131   2.972   7.688  11.051 -2.5508 -0.7124  0.3401
  779MOL0     H 5132   3.010   7.521  10.969  0.6806 -0.8081  0.1351
  779MOL0     H 5133   3.006   7.421  11.195  1.2049 -0.2693 -2.9478
  779MOL0     H 5134   2.965   7.572  11.257 -2.0965  0.2110 -0.4522
  779MOL0     H 5135   2.812   7.388  11.074  5.1875 -2.0634  2.0155
  779MOL0     H 5136   2.772   7.563  11.082  1.7230 -0.0302 -1.6614
  779MOL0     H 5137   2.761   7.540  11.333  0.3682 -1.4131  0.6478
  779MOL0     H 5138   2.795   7.374  11.309  3.1510 -0.3874 -3.4107
  779MOL0     H 5139   2.543   7.506  11.181  0.1651 -2.4194 -0.0922
  779MOL0     H 5140   2.556   7.345  11.250 -0.0991 -1.1277  3.6691
  779MOL0     H 5141   2.595   7.556  11.470 -0.7103 -1.2088  2.9237
  779MOL0     H 5142   2.541   7.401  11.478 -1.5787 -0.6805  0.0604
  779MOL0     H 5143   2.334   7.458  11.378  1.7050 -2.0599 -0.1088
  779MOL0     H 5144   2.367   7.564  11.521 -0.8235 -1.1427 -0.2965
  779MOL0     H 5145   3.225   7.396  11.311 -0.2706 -0.1916 -0.2399
  779MOL0     H 5146   3.436   7.320  11.419  0.3057  0.9336  0.0881
  779MOL0     H 5147   3.674   7.544  11.735 -0.6353 -0.8265 -0.2729
  779MOL0     H 5148   3.877   7.541  11.872  1.3132  1.7108 -0.2519
  779MOL0     H 5149   4.624   7.974  11.845 -2.6005 -1.0988 -0.7145
  779MOL0     H 5150   4.507   7.933  11.650 -0.7116  1.1138  2.9256
  779MOL0     H 5151   4.511   7.948  11.158 -0.7714  0.9177 -1.8420
  779MOL0     H 5152   4.382   7.861  10.966  1.2945  0.9800 -0.8669
  779MOL0     H 5153   4.310   7.788  10.801  1.1871  0.3753 -0.3582
  779MOL0     H 5154   4.177   7.674  10.848  0.3927 -1.4209 -0.6254
  779MOL0     H 5155   4.378   7.573  10.671  0.8147  0.8365  1.6415
  779MOL0     H 5156   4.265   7.682  10.577 -2.4919 -0.1036 -0.1299
  779MOL0     H 5157   4.075   7.543  10.658  0.1855  0.8974  1.7022
  779MOL0     H 5158   4.206   7.430  10.728  4.5897  0.0159 -1.6972
  779MOL0     H 5159   4.296   7.424  10.494  0.1049 -0.1768  1.2015
  779MOL0     H 5160   4.137   7.337  10.528 -1.7101  0.5643 -0.9333
  779MOL0     H 5161   4.023   7.685  10.292  0.7625  1.5367  2.0493
  779MOL0     H 5162   4.472   7.462  11.078  2.3841 -1.3293  2.1958
  779MOL0     H 5163   4.558   7.546  11.409 -0.4860 -0.9603 -0.4321
  779MOL0     H 5164   4.547   7.421  11.284 -2.6941 -0.0691 -0.4884
  779MOL0     H 5165   4.705   7.520  11.307 -0.1991 -0.0349 -0.1579
  780MOL0     O 5166   8.303   9.429   0.224  0.2540  0.2543  0.1641
  780MOL0     C 5167   8.318   9.316   0.262 -0.7271 -0.1410  0.5862
  780MOL0     O 5168   8.361   9.280   0.383 -0.4390  0.5408 -0.6656
  780MOL0     C 5169   8.373   9.360   0.497  0.1799 -0.6382 -0.1362
  780MOL0     C 5170   8.419   9.306   0.616  0.0206  1.3202 -0.8358
  780MOL0     C 5171   8.455   9.386   0.727  0.0325  0.2323  0.2503
  780MOL0     C 5172   8.438   9.524   0.731  0.7509  0.1720  0.3505
  780MOL0     O 5173   8.472   9.592   0.843 -1.1809 -0.3224 -0.6046
  780MOL0     C 5174   8.385   9.696   0.891  1.2129 -0.5732  0.8187
  780MOL0     C 5175   8.252   9.648   0.939 -0.0201 -0.4112 -0.3036
  780MOL0     C 5176   8.234   9.533   1.046  0.3161  0.1047  0.0504
  780MOL0     C 5177   8.089   9.534   1.103 -0.1393 -0.1726  0.2279
  780MOL0     C 5178   8.067   9.443   1.233  0.9742  0.5510 -0.3656
  780MOL0     C 5179   8.086   9.298   1.211 -0.3296  0.0266 -0.6341
  780MOL0     C 5180   8.062   9.230   1.357  0.3207  0.3921 -0.1713
  780MOL0     C 5181   8.081   9.074   1.363 -0.5180 -0.7467  1.4831
  780MOL0     N 5182   7.992   8.999   1.276 -0.3871 -0.1400  0.0390
  780MOL0     C 5183   8.039   8.902   1.192  0.5512  0.3380  0.1987
  780MOL0     C 5184   7.926   8.848   1.142  1.1223  0.4442  0.9919
  780MOL0     C 5185   7.932   8.744   1.035  0.1170  0.3211  0.5972
  780MOL0     C 5186   7.904   8.603   1.090 -0.6915 -0.7387  0.5509
  780MOL0     C 5187   7.772   8.593   1.142  0.4341  0.0739 -0.4517
  780MOL0     C 5188   7.736   8.450   1.196 -0.2400  0.9049 -0.3952
  780MOL0     O 5189   7.622   8.461   1.287  0.2310  0.6298 -0.3459
  780MOL0     C 5190   7.568   8.352   1.342 -0.4463  0.0481 -0.1883
  780MOL0     C 5191   7.456   8.362   1.422 -0.2473 -0.1958 -1.1419
  780MOL0     C 5192   7.399   8.254   1.491 -0.6068  0.1561  0.2694
  780MOL0     C 5193   7.448   8.127   1.478 -0.7675 -0.0016 -0.6664
  780MOL0     C 5194   7.387   8.010   1.541  0.0230  0.0268  0.1914
  780MOL0     O 5195   7.463   7.896   1.542 -0.2947 -0.1164 -0.2436
  780MOL0     C 5196   7.405   7.783   1.484 -0.1862 -1.3148 -1.1004
  780MOL0     C 5197   7.329   7.777   1.372  0.6474  0.8451  0.1527
  780MOL0     C 5198   7.252   7.661   1.337 -0.8580 -0.3625  0.2051
  780MOL0     C 5199   7.289   7.545   1.407  0.4073 -0.4788  0.1433
  780MOL0     O 5200   7.231   7.426   1.370  0.4041 -0.4496 -0.3460
  780MOL0     C 5201   7.091   7.404   1.411 -0.2156  0.4462 -0.1677
  780MOL0     C 5202   7.033   7.270   1.357 -0.9333 -0.1298  1.0176
  780MOL0     C 5203   7.076   7.238   1.210 -0.5628 -0.1212 -0.4885
  780MOL0     C 5204   7.023   7.332   1.110  0.8563  0.6696  1.7217
  780MOL0     C 5205   6.980   7.270   0.983  0.9189  0.0295 -0.3937
  780MOL0     C 5206   6.945   7.384   0.875 -0.3154  0.7311  0.8845
  780MOL0     C 5207   6.856   7.336   0.760  0.9164 -0.5325  0.1263
  780MOL0     C 5208   6.925   7.229   0.677 -0.7590 -0.6464 -1.1508
  780MOL0    Cl 5209   6.826   7.181   0.544 -0.3131 -0.2047  0.2451
  780MOL0     C 5210   7.371   7.545   1.512  0.6991 -0.8229 -1.0000
  780MOL0     C 5211   7.428   7.662   1.555 -0.2859 -0.6100  0.1382
  780MOL0     O 5212   7.276   8.015   1.593 -0.3709  0.7861 -0.5274
  780MOL0     C 5213   7.562   8.115   1.396  0.1551 -0.6286 -0.7755
  780MOL0     C 5214   7.621   8.228   1.336 -0.0084  0.1944  0.0944
  780MOL0     N 5215   7.821   8.914   1.202 -0.4191 -0.2169  0.5781
  780MOL0     N 5216   7.861   9.005   1.269 -0.0722 -1.3120 -0.3469
  780MOL0     C 5217   8.384   9.578   0.619  0.1423  0.3686 -0.2227
  780MOL0     C 5218   8.355   9.500   0.508 -0.0091  0.8826  0.7316
  780MOL0     C 5219   8.296   9.207   0.165 -0.3110  0.2103  0.3061
  780MOL0     C 5220   8.265   9.255   0.032 -0.5277  0.7267 -0.5346
  780MOL0     C 5221   8.230   9.172  -0.067  0.2443  0.2649  0.5573
  780MOL0     C 5222   8.218   9.039  -0.040  0.6473 -0.8194  0.8452
  780MOL0     O 5223   8.172   8.942  -0.122 -0.2612  0.2422  0.3542
  780MOL0     C 5224   8.195   8.945  -0.261  0.1050  0.0338 -0.1323
  780MOL0     C 5225   8.151   8.811  -0.312  0.4109 -0.2691  1.0651
  780MOL0     C 5226   8.251   8.698  -0.265  0.3554 -0.2324  0.4162
  780MOL0     C 5227   8.199   8.568  -0.330 -0.1985 -0.7925  0.5631
  780MOL0     C 5228   8.202   8.554  -0.474  0.3418  0.1075 -0.0530
  780MOL0     C 5229   8.228   8.549  -0.592 -0.9447 -0.6012 -0.6035
  780MOL0     C 5230   8.250   8.994   0.083 -0.2553  0.5783  0.2964
  780MOL0     C 5231   8.288   9.071   0.195 -0.7402  0.0015  0.0106
  780MOL0     C 5232   8.302   9.013   0.347  0.0190  0.9777  0.0213
  780MOL0     H 5233   8.430   9.198   0.621 -1.0160  1.2744  2.1679
  780MOL0     H 5234   8.493   9.333   0.814 -1.7270 -0.7516  0.4863
  780MOL0     H 5235   8.429   9.756   0.971  1.3984  1.0849 -0.4730
  780MOL0     H 5236   8.385   9.758   0.801  3.5164 -0.3748  0.9165
  780MOL0     H 5237   8.187   9.614   0.858 -2.1608 -3.0156  2.3033
  780MOL0     H 5238   8.205   9.743   0.969 -1.8043 -2.5031  4.5659
  780MOL0     H 5239   8.313   9.542   1.121  0.5774  0.7121 -0.2891
  780MOL0     H 5240   8.262   9.435   1.006 -2.5107 -0.1663 -1.5289
  780MOL0     H 5241   8.071   9.638   1.131 -0.7245  0.1274 -1.1827
  780MOL0     H 5242   8.022   9.503   1.022 -0.8578  3.9261 -0.9644
  780MOL0     H 5243   8.121   9.486   1.318 -0.2300 -0.2982  0.8655
  780MOL0     H 5244   7.965   9.450   1.271  2.4807 -0.1962  4.5419
  780MOL0     H 5245   8.023   9.253   1.134  0.2105 -1.9830  0.0604
  780MOL0     H 5246   8.189   9.282   1.178  0.2216 -2.8943  2.0486
  780MOL0     H 5247   7.957   9.253   1.378  0.6620  1.4336  0.4735
  780MOL0     H 5248   8.118   9.283   1.434 -0.4217  2.2973 -0.8942
  780MOL0     H 5249   8.187   9.058   1.344 -0.5222  1.9544 -1.6492
  780MOL0     H 5250   8.075   9.046   1.469 -0.4390 -0.2757  1.6154
  780MOL0     H 5251   8.143   8.874   1.175 -0.1806 -1.0540 -2.5542
  780MOL0     H 5252   7.855   8.769   0.961  1.4428  3.2154  0.0425
  780MOL0     H 5253   8.032   8.744   0.991  0.5317  2.2399  1.4209
  780MOL0     H 5254   7.914   8.527   1.013 -5.8764  0.6986 -1.9807
  780MOL0     H 5255   7.967   8.585   1.178 -0.6110  0.3983  0.7510
  780MOL0     H 5256   7.702   8.643   1.074  0.9650  0.7917 -0.4875
  780MOL0     H 5257   7.771   8.656   1.231 -2.3041 -2.0722  1.2084
  780MOL0     H 5258   7.822   8.411   1.252 -0.4288 -1.8373 -1.8193
  780MOL0     H 5259   7.717   8.388   1.108 -1.0938  0.8443 -0.1795
  780MOL0     H 5260   7.396   8.452   1.426 -0.0869 -0.1345  1.9338
  780MOL0     H 5261   7.314   8.272   1.557  0.4567  2.8731  1.0509
  780MOL0     H 5262   7.316   7.862   1.307 -1.1810 -0.9578 -2.0077
  780MOL0     H 5263   7.180   7.656   1.256 -1.5254  4.1855  0.2653
  780MOL0     H 5264   7.083   7.401   1.520 -0.9532 -3.7606 -0.1861
  780MOL0     H 5265   7.026   7.484   1.374 -0.8003  0.8850  1.6981
  780MOL0     H 5266   7.090   7.191   1.407  2.5311  1.6743  0.2540
  780MOL0     H 5267   6.924   7.262   1.368 -0.8588 -0.2890  1.6550
  780MOL0     H 5268   7.185   7.237   1.196 -0.8452 -1.6832 -3.3025
  780MOL0     H 5269   7.038   7.137   1.196  1.7882 -1.2718  0.9013
  780MOL0     H 5270   7.099   7.405   1.082 -3.2224  3.6856 -3.3278
  780MOL0     H 5271   6.942   7.390   1.155 -1.7961 -1.6116  0.2662
  780MOL0     H 5272   6.890   7.213   1.008 -0.4944  2.4878  0.4850
  780MOL0     H 5273   7.061   7.205   0.948  4.4055  2.7488  1.9592
  780MOL0     H 5274   6.888   7.462   0.927  0.7873  1.5612  0.8959
  780MOL0     H 5275   7.031   7.433   0.829 -0.9793 -0.2292 -1.5254
  780MOL0     H 5276   6.837   7.424   0.698  3.7358 -0.3463 -0.6416
  780MOL0     H 5277   6.764   7.288   0.795  0.1624 -1.0062 -2.2933
  780MOL0     H 5278   7.019   7.275   0.643 -0.3327  0.3141  1.1646
  780MOL0     H 5279   6.955   7.149   0.745  3.2575  3.2861  2.3725
  780MOL0     H 5280   7.396   7.458   1.571  2.4729 -0.6065 -1.3982
  780MOL0     H 5281   7.483   7.658   1.648  1.8055 -1.8407 -1.0668
  780MOL0     H 5282   7.622   8.025   1.385  1.1988 -0.3283  1.8528
  780MOL0     H 5283   7.711   8.202   1.281 -0.5744  0.7210 -1.1139
  780MOL0     H 5284   8.374   9.686   0.610 -1.7044  0.4754  2.0946
  780MOL0     H 5285   8.311   9.554   0.425  0.8898 -1.3695 -1.3299
  780MOL0     H 5286   8.253   9.360   0.007  0.4426  0.7346 -1.0496
  780MOL0     H 5287   8.188   9.206  -0.162  1.7412 -2.2045 -1.1001
  780MOL0     H 5288   8.303   8.955  -0.272  0.0003  2.2863  0.3675
  780MOL0     H 5289   8.153   9.023  -0.325  2.9549  2.3477  0.5765
  780MOL0     H 5290   8.152   8.808  -0.421  2.3306 -4.4247  0.9925
  780MOL0     H 5291   8.048   8.790  -0.280 -1.2856 -2.5233 -4.6075
  780MOL0     H 5292   8.255   8.698  -0.155 -1.3449 -0.2385  0.5179
  780MOL0     H 5293   8.346   8.720  -0.313 -0.6989 -1.1624 -2.2922
  780MOL0     H 5294   8.260   8.488  -0.289  1.4299 -0.4491 -1.0714
  780MOL0     H 5295   8.092   8.560  -0.309 -0.5361  1.0622 -0.2328
  780MOL0     H 5296   8.261   8.546  -0.693  1.5891  1.6715  0.0475
  780MOL0     H 5297   8.226   8.891   0.107 -1.4345  1.1791  1.8980
  780MOL0     H 5298   8.234   9.051   0.423 -0.4954 -1.8245  1.0678
  780MOL0     H 5299   8.282   8.906   0.352 -1.0665  1.2382  2.5658
  780MOL0     H 5300   8.400   9.033   0.393 -0.9603  0.1558  2.6364
  781MOL0     O 5301   5.123   5.349   0.430  0.1144  0.1076 -0.0805
  781MOL0     C 5302   5.139   5.327   0.309 -0.6042 -1.3708  0.3181
  781MOL0     O 5303   5.222   5.223   0.258  1.0038 -0.7167 -0.6154
  781MOL0     C 5304   5.228   5.107   0.332  0.0524  0.3260  0.9629
  781MOL0     C 5305   5.311   5.096   0.443  0.6356 -0.7475 -0.0934
  781MOL0     C 5306   5.326   4.974   0.509 -0.3419 -0.1689  0.7450
  781MOL0     C 5307   5.269   4.853   0.453  0.2641 -0.5913  0.6451
  781MOL0     O 5308   5.279   4.729   0.499  0.2099 -0.0372 -0.7956
  781MOL0     C 5309   5.352   4.703   0.621  1.5963  0.2151 -0.5044
  781MOL0     C 5310   5.354   4.550   0.638  0.6226 -0.3912  0.3667
  781MOL0     C 5311   5.462   4.499   0.735 -0.4189  0.6589  0.6633
  781MOL0     C 5312   5.459   4.347   0.770 -0.2557 -0.0001 -0.0841
  781MOL0     C 5313   5.593   4.296   0.830  0.3317 -0.8676 -0.0764
  781MOL0     C 5314   5.577   4.243   0.970  0.7500 -0.7168  0.6359
  781MOL0     C 5315   5.713   4.247   1.039  0.6946 -0.0517 -0.5034
  781MOL0     C 5316   5.692   4.194   1.184 -0.3508  0.7061 -0.9253
  781MOL0     N 5317   5.602   4.283   1.259 -0.0772 -0.3472  0.4445
  781MOL0     C 5318   5.524   4.250   1.363 -1.0799 -0.3688 -0.2419
  781MOL0     C 5319   5.477   4.366   1.410  0.1454  0.5810 -0.5894
  781MOL0     C 5320   5.382   4.404   1.524 -0.4483  0.5556  0.6127
  781MOL0     C 5321   5.238   4.385   1.473  0.5039 -0.2131 -0.8613
  781MOL0     C 5322   5.135   4.428   1.575 -0.6431  0.0678 -0.5845
  781MOL0     C 5323   5.117   4.325   1.690 -0.1664  0.1303  0.7292
  781MOL0     O 5324   5.195   4.373   1.800  1.1106  0.1584  0.0774
  781MOL0     C 5325   5.122   4.439   1.899  0.0625 -0.8360 -0.0413
  781MOL0     C 5326   5.202   4.476   2.008  0.3745 -1.2479 -0.3146
  781MOL0     C 5327   5.143   4.528   2.127 -0.1555 -0.1908  0.4919
  781MOL0     C 5328   5.009   4.559   2.126 -0.5544 -0.4575 -0.4921
  781MOL0     C 5329   4.951   4.634   2.249  0.1927  0.5106 -0.3081
  781MOL0     O 5330   4.818   4.638   2.249  1.2663  0.1437 -0.3266
  781MOL0     C 5331   4.762   4.717   2.347 -0.1819  1.0187  0.4707
  781MOL0     C 5332   4.765   4.852   2.336 -1.2520 -0.3705 -0.0615
  781MOL0     C 5333   4.726   4.935   2.440 -1.2235  0.9406  0.0831
  781MOL0     C 5334   4.690   4.879   2.555 -0.3849  0.9169  0.6088
  781MOL0     O 5335   4.649   4.945   2.661  0.3148 -0.2937 -0.7502
  781MOL0     C 5336   4.729   4.930   2.778  1.0145 -0.0447  0.6293
  781MOL0     C 5337   4.793   5.056   2.802  0.6792  0.4949 -0.0518
  781MOL0     C 5338   4.867   5.119   2.686  0.2188  0.2091  0.7893
  781MOL0     C 5339   4.994   5.042   2.644  0.9287  0.1555  0.4452
  781MOL0     C 5340   5.087   5.114   2.550  0.1781 -0.1155 -0.3033
  781MOL0     C 5341   5.178   5.204   2.635  1.0745 -0.3083 -1.3078
  781MOL0     C 5342   5.295   5.249   2.561 -1.0768 -0.5568  0.5795
  781MOL0     C 5343   5.397   5.332   2.649  0.3660  0.6943  1.2263
  781MOL0    Cl 5344   5.560   5.364   2.574  0.3264  0.2600  0.4083
  781MOL0     C 5345   4.671   4.741   2.564  0.4660 -0.2536  0.9695
  781MOL0     C 5346   4.709   4.658   2.461  0.3879 -0.0927  0.2884
  781MOL0     O 5347   5.028   4.689   2.326 -0.0117  0.4024 -0.5180
  781MOL0     C 5348   4.937   4.552   2.008  0.3431 -0.1034  0.2984
  781MOL0     C 5349   4.991   4.491   1.897  0.0516 -0.0156 -1.2467
  781MOL0     N 5350   5.525   4.465   1.341 -0.6977  0.1255  0.6966
  781MOL0     N 5351   5.603   4.417   1.248 -0.3359 -0.0272  0.0356
  781MOL0     C 5352   5.188   4.865   0.338 -0.2548  0.5428  1.1274
  781MOL0     C 5353   5.161   4.995   0.280 -0.0638 -0.2151 -1.2567
  781MOL0     C 5354   5.070   5.425   0.218 -1.1897  0.4394  1.4799
  781MOL0     C 5355   5.034   5.546   0.259  0.5632 -0.6904  0.0163
  781MOL0     C 5356   4.971   5.642   0.177 -0.1406  0.8542 -0.0086
  781MOL0     C 5357   4.948   5.626   0.042  0.0278 -1.4257 -0.0544
  781MOL0     O 5358   4.885   5.724  -0.019  0.4149  1.0185  0.2116
  781MOL0     C 5359   4.779   5.697  -0.108  0.8900 -0.2769  0.6668
  781MOL0     C 5360   4.694   5.836  -0.121 -0.1566 -0.3600  0.2542
  781MOL0     C 5361   4.772   5.951  -0.204 -0.7717  0.5902 -0.0912
  781MOL0     C 5362   4.692   6.074  -0.225  0.2705 -0.5294 -0.3481
  781MOL0     C 5363   4.665   6.148  -0.098 -0.2728 -0.3130  0.3857
  781MOL0     C 5364   4.643   6.214  -0.000 -0.3571  0.0774 -0.7854
  781MOL0     C 5365   4.984   5.502   0.001  0.4068  1.0287  1.0841
  781MOL0     C 5366   5.042   5.397   0.080 -0.5838 -0.7734  0.3458
  781MOL0     C 5367   5.050   5.265   0.012 -0.2980  0.0084  0.2829
  781MOL0     H 5368   5.357   5.193   0.462  0.5287 -0.3546 -1.7052
  781MOL0     H 5369   5.380   4.972   0.603  0.2170 -4.1506  0.5018
  781MOL0     H 5370   5.451   4.745   0.604  1.2756  1.2829  0.1892
  781MOL0     H 5371   5.318   4.755   0.710  1.9719 -0.5824  0.1167
  781MOL0     H 5372   5.353   4.495   0.543  3.3109 -1.0270  0.6298
  781MOL0     H 5373   5.258   4.534   0.688  0.6300  0.4834  0.6782
  781MOL0     H 5374   5.473   4.564   0.822  1.6186  2.1106 -0.5877
  781MOL0     H 5375   5.552   4.505   0.674 -0.0066  1.1933  1.3184
  781MOL0     H 5376   5.383   4.337   0.848 -0.4056  1.9005  0.0696
  781MOL0     H 5377   5.438   4.294   0.677 -2.2473 -2.6364  1.7032
  781MOL0     H 5378   5.652   4.219   0.780  0.4231  0.6475 -2.4894
  781MOL0     H 5379   5.655   4.387   0.837  0.6507 -0.6205 -3.8588
  781MOL0     H 5380   5.507   4.301   1.031  2.5087 -1.2907  3.3802
  781MOL0     H 5381   5.537   4.141   0.968 -1.9571  0.2555  0.8596
  781MOL0     H 5382   5.750   4.350   1.035  1.1256 -0.0877  1.4394
  781MOL0     H 5383   5.791   4.192   0.987  3.5230  1.8730  1.4042
  781MOL0     H 5384   5.652   4.092   1.189 -3.9301  1.9556 -1.0926
  781MOL0     H 5385   5.791   4.198   1.230 -1.3997 -0.2343  1.5282
  781MOL0     H 5386   5.508   4.149   1.400  0.8817  0.0736  1.9772
  781MOL0     H 5387   5.410   4.337   1.606  4.5212 -1.7927 -2.5117
  781MOL0     H 5388   5.397   4.504   1.565 -3.3357  2.0785 -1.6973
  781MOL0     H 5389   5.229   4.444   1.382  3.2699  1.5263 -0.1324
  781MOL0     H 5390   5.216   4.282   1.443 -0.5582 -0.4180  0.5434
  781MOL0     H 5391   5.043   4.444   1.518  0.7769  3.3305 -2.2670
  781MOL0     H 5392   5.171   4.523   1.616 -0.8074 -1.2881  3.0148
  781MOL0     H 5393   5.155   4.227   1.659 -2.0996 -0.1984 -0.8105
  781MOL0     H 5394   5.015   4.309   1.727 -0.0529 -0.5435  0.7690
  781MOL0     H 5395   5.310   4.471   2.009  0.6840  2.7991  0.4438
  781MOL0     H 5396   5.210   4.557   2.206 -2.1172  1.4697  1.6411
  781MOL0     H 5397   4.802   4.897   2.245 -2.2190 -1.8157 -1.2166
  781MOL0     H 5398   4.713   5.041   2.422  3.3775  1.4852 -1.5895
  781MOL0     H 5399   4.676   4.895   2.867  1.3149 -0.7248  0.5502
  781MOL0     H 5400   4.808   4.855   2.766  3.9544  2.8624  0.1914
  781MOL0     H 5401   4.714   5.127   2.830  2.0453  1.9011  0.3640
  781MOL0     H 5402   4.857   5.041   2.889 -0.1249 -1.1968  0.2893
  781MOL0     H 5403   4.799   5.140   2.603  0.0807 -2.2365  0.2217
  781MOL0     H 5404   4.901   5.213   2.730 -4.1276  2.3609  0.1560
  781MOL0     H 5405   4.971   4.948   2.593  1.1829 -0.4575  1.4298
  781MOL0     H 5406   5.045   5.012   2.736  1.4034  0.8938  0.4333
  781MOL0     H 5407   5.037   5.156   2.463 -1.1518 -2.5491 -0.8178
  781MOL0     H 5408   5.153   5.039   2.505  1.8035  0.5886  0.7805
  781MOL0     H 5409   5.130   5.290   2.681 -0.5452 -2.4471  1.2636
  781MOL0     H 5410   5.215   5.137   2.713  2.1888 -0.9994 -2.3809
  781MOL0     H 5411   5.257   5.311   2.479 -3.9055 -1.6324  0.9532
  781MOL0     H 5412   5.351   5.165   2.519 -1.4987 -0.7878  0.4775
  781MOL0     H 5413   5.349   5.428   2.672  2.8158  2.3314 -0.0454
  781MOL0     H 5414   5.414   5.278   2.742  2.8920 -1.0752 -0.1595
  781MOL0     H 5415   4.634   4.702   2.658 -1.2424  2.8398  1.7014
  781MOL0     H 5416   4.683   4.553   2.454  1.5033 -0.3421 -0.2538
  781MOL0     H 5417   4.836   4.593   2.007  0.4639  0.4233  2.7629
  781MOL0     H 5418   4.925   4.486   1.810  2.1107 -0.8661 -2.8511
  781MOL0     H 5419   5.154   4.775   0.288 -0.6721  0.5845  1.3290
  781MOL0     H 5420   5.095   5.008   0.194 -2.5261 -1.0726  0.3919
  781MOL0     H 5421   5.064   5.565   0.361  2.8599 -0.8114 -0.5808
  781MOL0     H 5422   4.943   5.739   0.217 -2.4871  0.2844 -0.1465
  781MOL0     H 5423   4.710   5.620  -0.071  1.9716 -2.0113 -0.7504
  781MOL0     H 5424   4.813   5.662  -0.206  2.5961 -0.9408  1.4440
  781MOL0     H 5425   4.660   5.869  -0.022 -1.3489 -1.8233  0.3738
  781MOL0     H 5426   4.598   5.813  -0.169 -0.1212  0.9578 -0.5194
  781MOL0     H 5427   4.794   5.901  -0.299  1.7332  0.5086  0.4762
  781MOL0     H 5428   4.857   5.990  -0.147 -1.2468  3.1472 -0.9719
  781MOL0     H 5429   4.759   6.135  -0.287 -0.6354 -0.6422 -1.4701
  781MOL0     H 5430   4.602   6.059  -0.285 -0.7439  0.0164  0.9934
  781MOL0     H 5431   4.629   6.260   0.096  1.6644 -1.3924  0.3087
  781MOL0     H 5432   4.958   5.476  -0.101 -0.3608  1.7988  1.0729
  781MOL0     H 5433   5.014   5.184   0.076  0.2144 -1.8392 -1.6856
  781MOL0     H 5434   4.979   5.257  -0.071  0.7262 -3.8292 -0.3836
  781MOL0     H 5435   5.148   5.249  -0.033 -1.7217 -2.6150 -2.2261
  782MOL0     O 5436   1.516   1.009   6.866 -0.1646 -0.2363  0.4193
  782MOL0     C 5437   1.519   1.121   6.905 -0.2021 -0.7715 -0.3553
  782MOL0     O 5438   1.436   1.177   6.996 -0.0090 -0.3150 -0.6348
  782MOL0     C 5439   1.327   1.114   7.057 -0.2794  0.6211 -0.2075
  782MOL0     C 5440   1.194   1.146   7.017 -0.1040 -0.3711  0.3038
  782MOL0     C 5441   1.078   1.084   7.070 -0.4014 -0.4839  0.4454
  782MOL0     C 5442   1.096   0.985   7.172  0.0929 -0.0395  0.2567
  782MOL0     O 5443   0.996   0.897   7.222  0.2163  0.5636  0.5532
  782MOL0     C 5444   0.860   0.934   7.189  0.2012 -0.7360  0.1279
  782MOL0     C 5445   0.740   0.856   7.248  0.2051 -0.5711  0.2035
  782MOL0     C 5446   0.609   0.934   7.249 -0.2598  0.0054  0.0101
  782MOL0     C 5447   0.484   0.844   7.286 -1.1984 -0.3635  0.6205
  782MOL0     C 5448   0.446   0.758   7.168  0.5318 -0.2616  0.3421
  782MOL0     C 5449   0.360   0.644   7.215  0.8626 -0.5834  0.4661
  782MOL0     C 5450   0.317   0.555   7.099  1.1196  0.6631  0.2507
  782MOL0     C 5451   0.260   0.428   7.154 -0.2833  0.6769  0.1089
  782MOL0     N 5452   0.199   0.340   7.051 -0.2396 -0.0956  0.3638
  782MOL0     C 5453   0.254   0.288   6.936  0.8212 -0.0173  0.3473
  782MOL0     C 5454   0.155   0.216   6.876  1.1680  0.0047 -0.4517
  782MOL0     C 5455   0.145   0.131   6.750 -0.5916 -0.4906 -0.6646
  782MOL0     C 5456   0.124   0.209   6.622 -0.3340  0.3489 -0.0076
  782MOL0     C 5457   0.178   0.126   6.503 -0.2080 -0.6745 -0.0457
  782MOL0     C 5458   0.117  -0.015   6.485  0.9054 -0.1079  0.2486
  782MOL0     O 5459  -0.029  -0.023   6.452 -0.3220 -0.5626 -0.4219
  782MOL0     C 5460  -0.082  -0.119   6.369 -0.1487 -0.3643 -0.4835
  782MOL0     C 5461  -0.036  -0.256   6.375 -0.0209 -0.9278 -1.3426
  782MOL0     C 5462  -0.047  -0.332   6.260  0.4116  0.6206 -0.0231
  782MOL0     C 5463  -0.118  -0.288   6.153  0.6234 -0.4113 -0.3903
  782MOL0     C 5464  -0.156  -0.374   6.042  0.3232  0.7030 -0.2465
  782MOL0     O 5465  -0.188  -0.313   5.923 -0.3856  0.1284 -0.7686
  782MOL0     C 5466  -0.230  -0.396   5.823 -0.6769  1.1618 -0.0317
  782MOL0     C 5467  -0.354  -0.455   5.826  0.5882  0.6485  0.2273
  782MOL0     C 5468  -0.398  -0.527   5.715  0.0535 -0.2172  0.0840
  782MOL0     C 5469  -0.309  -0.532   5.601 -0.7583  1.5143  0.0016
  782MOL0     O 5470  -0.355  -0.587   5.484 -0.1260  0.0482 -0.7462
  782MOL0     C 5471  -0.417  -0.716   5.508  0.3142 -0.2248  0.2457
  782MOL0     C 5472  -0.452  -0.771   5.375  0.8691 -0.3024 -0.3535
  782MOL0     C 5473  -0.327  -0.794   5.286 -0.9827 -0.1849 -0.2816
  782MOL0     C 5474  -0.353  -0.904   5.192  0.4121 -0.1105 -0.2693
  782MOL0     C 5475  -0.220  -0.953   5.127  1.1884 -0.3234  0.3473
  782MOL0     C 5476  -0.221  -1.079   5.036 -0.3734  0.3808 -0.3150
  782MOL0     C 5477  -0.085  -1.106   4.971  0.2115 -0.9270  0.4721
  782MOL0     C 5478  -0.054  -1.052   4.824  0.3173 -0.2130  0.6079
  782MOL0    Cl 5479  -0.190  -1.100   4.714  0.2566 -0.0303 -0.3595
  782MOL0     C 5480  -0.188  -0.462   5.594 -0.2229 -0.7484 -0.5795
  782MOL0     C 5481  -0.149  -0.394   5.707 -0.1094 -0.4064 -0.3074
  782MOL0     O 5482  -0.159  -0.495   6.067  0.1056 -0.4143 -0.1099
  782MOL0     C 5483  -0.165  -0.152   6.150  0.0521  0.4184  0.2444
  782MOL0     C 5484  -0.156  -0.078   6.261  0.5534 -0.4284  0.0228
  782MOL0     N 5485   0.047   0.240   6.963 -0.1177 -0.6143 -0.0863
  782MOL0     N 5486   0.073   0.301   7.072  1.0812 -0.4425  0.5375
  782MOL0     C 5487   1.231   0.951   7.211 -0.2195 -0.0015  0.2618
  782MOL0     C 5488   1.346   1.017   7.161  0.2151 -0.4545  0.2449
  782MOL0     C 5489   1.635   1.186   6.861 -0.3743 -0.3063 -0.9610
  782MOL0     C 5490   1.762   1.117   6.833  1.3328 -0.4189 -0.8833
  782MOL0     C 5491   1.870   1.189   6.777 -0.0720 -0.3314 -0.1815
  782MOL0     C 5492   1.866   1.316   6.738 -0.3773 -0.9421  1.1353
  782MOL0     O 5493   1.966   1.389   6.688 -0.4623 -0.5807  0.2806
  782MOL0     C 5494   1.999   1.351   6.553  1.0411  0.8117 -0.4639
  782MOL0     C 5495   2.140   1.402   6.532  0.5737  0.0695  0.5583
  782MOL0     C 5496   2.184   1.355   6.389 -0.3178  0.3001  0.1736
  782MOL0     C 5497   2.327   1.400   6.356 -0.2388 -0.3146  0.2993
  782MOL0     C 5498   2.314   1.544   6.343 -0.3768  1.0065 -0.2292
  782MOL0     C 5499   2.317   1.669   6.328 -0.6624  0.4575  0.4756
  782MOL0     C 5500   1.739   1.377   6.737 -0.7183 -0.1928 -0.9192
  782MOL0     C 5501   1.624   1.311   6.790 -0.1553 -0.0787  1.1581
  782MOL0     C 5502   1.492   1.382   6.784 -0.5382 -1.2508  0.4430
  782MOL0     H 5503   1.183   1.216   6.935  0.0237  0.2730  0.8343
  782MOL0     H 5504   0.977   1.115   7.048 -1.0211 -0.4708  3.0122
  782MOL0     H 5505   0.838   1.037   7.221 -2.9151 -0.5520 -2.2252
  782MOL0     H 5506   0.846   0.944   7.081 -3.4488  0.6709  0.5955
  782MOL0     H 5507   0.785   0.838   7.346  1.8120  0.2021 -0.3370
  782MOL0     H 5508   0.728   0.755   7.209  1.0777 -1.6120  2.4057
  782MOL0     H 5509   0.592   0.972   7.147 -1.5335 -2.4838 -0.7885
  782MOL0     H 5510   0.609   1.011   7.327 -2.5521 -0.7729  0.8689
  782MOL0     H 5511   0.520   0.788   7.373  2.8022  2.6068  1.1758
  782MOL0     H 5512   0.396   0.903   7.314 -0.8008  1.9098 -2.3496
  782MOL0     H 5513   0.386   0.814   7.096  0.4133  0.7724  1.2210
  782MOL0     H 5514   0.530   0.718   7.110  0.5905  1.3104 -0.7350
  782MOL0     H 5515   0.402   0.585   7.297  0.6505  0.9270  1.7074
  782MOL0     H 5516   0.265   0.676   7.259  1.4315  0.2873  1.1086
  782MOL0     H 5517   0.397   0.531   7.028 -0.7089 -0.2565 -1.6247
  782MOL0     H 5518   0.245   0.604   7.033  1.7132 -0.8309 -1.6297
  782MOL0     H 5519   0.345   0.369   7.191 -0.8101  0.3448  0.8168
  782MOL0     H 5520   0.181   0.439   7.229 -1.3295 -0.1225 -0.8505
  782MOL0     H 5521   0.355   0.299   6.899  0.1158  2.3221 -1.0759
  782MOL0     H 5522   0.226   0.058   6.742 -0.3210 -0.5361  1.7419
  782MOL0     H 5523   0.058   0.066   6.758  0.0325 -1.2843 -0.2212
  782MOL0     H 5524   0.016   0.219   6.604  0.2443  1.5114 -3.9284
  782MOL0     H 5525   0.165   0.310   6.624  0.9988 -0.1826  1.0337
  782MOL0     H 5526   0.285   0.116   6.522 -0.3408 -0.6127  0.7662
  782MOL0     H 5527   0.158   0.185   6.414 -1.5330  1.8327  1.7764
  782MOL0     H 5528   0.132  -0.068   6.579 -3.0059 -0.4014  0.8685
  782MOL0     H 5529   0.179  -0.071   6.414  0.8653  0.1392  0.0159
  782MOL0     H 5530   0.001  -0.297   6.468  0.4704 -1.3530 -1.7188
  782MOL0     H 5531  -0.023  -0.437   6.265  3.1977  1.2192  2.1014
  782MOL0     H 5532  -0.432  -0.439   5.900 -0.0924  2.6223 -0.8447
  782MOL0     H 5533  -0.499  -0.563   5.698 -0.8734  2.4712 -0.7571
  782MOL0     H 5534  -0.356  -0.784   5.568  1.6693 -0.3949 -1.2689
  782MOL0     H 5535  -0.514  -0.715   5.559 -0.7692 -0.6416 -1.7143
  782MOL0     H 5536  -0.493  -0.867   5.407 -1.0662  0.8287  0.8099
  782MOL0     H 5537  -0.528  -0.719   5.315  0.3028 -0.6273  0.0754
  782MOL0     H 5538  -0.286  -0.701   5.246 -1.1819  0.9602  2.0325
  782MOL0     H 5539  -0.251  -0.831   5.355 -0.9859  1.7530  0.8006
  782MOL0     H 5540  -0.429  -0.868   5.123 -0.2617  0.9990  0.9784
  782MOL0     H 5541  -0.408  -0.984   5.242  0.2059 -0.4666 -1.0640
  782MOL0     H 5542  -0.152  -0.975   5.210  0.3469 -2.2822  0.5948
  782MOL0     H 5543  -0.188  -0.872   5.061  3.2797  0.4349  2.1676
  782MOL0     H 5544  -0.249  -1.163   5.100  1.7003  0.0342  0.2220
  782MOL0     H 5545  -0.304  -1.069   4.966 -1.2999  0.3768  0.7610
  782MOL0     H 5546  -0.088  -1.215   4.971 -0.6106 -0.9506  2.5601
  782MOL0     H 5547  -0.001  -1.065   5.029 -2.1410  1.4809  2.4472
  782MOL0     H 5548  -0.040  -0.945   4.845 -0.0651  0.3649 -1.7993
  782MOL0     H 5549   0.041  -1.096   4.794 -0.7362 -2.0721 -0.1634
  782MOL0     H 5550  -0.132  -0.451   5.502 -0.0434 -1.4298 -0.5580
  782MOL0     H 5551  -0.062  -0.329   5.705 -0.5171  0.1263 -1.3471
  782MOL0     H 5552  -0.205  -0.105   6.060 -0.3053 -0.4471 -0.0595
  782MOL0     H 5553  -0.205   0.018   6.278 -1.3497 -1.6268  1.7157
  782MOL0     H 5554   1.260   0.869   7.276  1.6765 -1.2250 -1.9472
  782MOL0     H 5555   1.448   0.990   7.185  0.9476  2.1797  0.3422
  782MOL0     H 5556   1.775   1.013   6.859 -2.7490 -0.6330  1.2842
  782MOL0     H 5557   1.964   1.133   6.770 -0.1668 -0.7640  1.4803
  782MOL0     H 5558   1.928   1.377   6.474  0.6852 -1.5830 -1.0064
  782MOL0     H 5559   2.004   1.242   6.556  1.1231  0.8262  1.7763
  782MOL0     H 5560   2.193   1.359   6.618 -0.2298 -0.3825  0.8332
  782MOL0     H 5561   2.140   1.512   6.538  0.9541  0.0987  0.0763
  782MOL0     H 5562   2.119   1.401   6.314 -0.8137 -1.9015 -0.8080
  782MOL0     H 5563   2.177   1.246   6.386  1.0066  0.2265 -1.4926
  782MOL0     H 5564   2.389   1.373   6.442 -1.9460  2.8665  2.7499
  782MOL0     H 5565   2.379   1.359   6.269  0.9980  1.5097  0.1292
  782MOL0     H 5566   2.331   1.774   6.316  3.2126  0.4993  3.4683
  782MOL0     H 5567   1.724   1.476   6.695  0.2767 -0.2885 -1.5294
  782MOL0     H 5568   1.401   1.330   6.753 -0.1176 -0.6775 -1.8918
  782MOL0     H 5569   1.479   1.434   6.880  3.1564  0.1068  0.3663
  782MOL0     H 5570   1.504   1.468   6.718 -1.3830  1.7119  3.8111
  783MOL0     O 5571   9.462   0.292   4.641 -0.1557  0.0723  0.4508
  783MOL0     C 5572   9.374   0.333   4.714  0.7650 -0.4027  0.0212
  783MOL0     O 5573   9.301   0.453   4.681 -0.0011  0.6676 -0.6601
  783MOL0     C 5574   9.319   0.529   4.567 -0.1096  0.2346 -0.1966
  783MOL0     C 5575   9.452   0.580   4.543 -0.0146 -0.7935  0.6234
  783MOL0     C 5576   9.456   0.682   4.447  0.7273  0.3782  0.4199
  783MOL0     C 5577   9.351   0.717   4.356  0.3122  0.2718  0.1858
  783MOL0     O 5578   9.377   0.797   4.251 -0.3893  0.0749  0.1632
  783MOL0     C 5579   9.272   0.849   4.168  0.6345  0.3846 -0.2752
  783MOL0     C 5580   9.215   0.749   4.055  0.7906 -0.4252  0.4438
  783MOL0     C 5581   9.308   0.709   3.941  0.2762 -0.0258  0.2491
  783MOL0     C 5582   9.240   0.693   3.810  0.6029  0.1475 -0.5702
  783MOL0     C 5583   9.332   0.624   3.704 -0.1515 -0.8092  0.3580
  783MOL0     C 5584   9.263   0.617   3.564 -0.4425  0.3304 -0.7606
  783MOL0     C 5585   9.284   0.756   3.500  0.8149 -0.0052 -0.2949
  783MOL0     C 5586   9.288   0.757   3.350 -1.1748  0.0101  0.3767
  783MOL0     N 5587   9.167   0.712   3.288 -0.4162 -1.5201  0.3606
  783MOL0     C 5588   9.046   0.781   3.290 -0.1937  0.6612  0.1193
  783MOL0     C 5589   8.956   0.690   3.240  0.1477 -0.5597  0.0210
  783MOL0     C 5590   8.818   0.723   3.200  0.2769 -0.5586 -0.2550
  783MOL0     C 5591   8.728   0.784   3.305  0.6932 -0.0890  0.7127
  783MOL0     C 5592   8.587   0.813   3.258  1.2066  0.4122 -0.9652
  783MOL0     C 5593   8.497   0.868   3.363 -0.5839  0.5819 -0.3771
  783MOL0     O 5594   8.477   0.753   3.456 -0.0418 -0.2975  1.0917
  783MOL0     C 5595   8.345   0.721   3.476 -0.0336  1.2018  0.4170
  783MOL0     C 5596   8.261   0.796   3.550  0.3449  0.6357 -0.0984
  783MOL0     C 5597   8.130   0.758   3.577 -0.1963 -0.5362 -0.2940
  783MOL0     C 5598   8.071   0.641   3.528 -0.2236 -0.0710 -0.1760
  783MOL0     C 5599   7.924   0.608   3.545 -0.6816 -0.3166  0.2420
  783MOL0     O 5600   7.887   0.489   3.518 -0.4753  0.5930 -0.0408
  783MOL0     C 5601   7.758   0.438   3.527 -0.1540 -0.8592  0.4171
  783MOL0     C 5602   7.760   0.304   3.566 -0.1388  0.4806  0.5414
  783MOL0     C 5603   7.643   0.242   3.578  0.6494 -0.5937  0.5848
  783MOL0     C 5604   7.520   0.294   3.539  0.3497 -0.0332  0.0421
  783MOL0     O 5605   7.405   0.230   3.563 -0.5797 -0.7759  0.5498
  783MOL0     C 5606   7.288   0.309   3.599  0.0166 -0.2639  0.7414
  783MOL0     C 5607   7.175   0.216   3.624 -0.5601  0.6340  0.1584
  783MOL0     C 5608   7.138   0.129   3.505  1.0531  0.4789  0.4504
  783MOL0     C 5609   7.033   0.025   3.530 -0.2206 -0.3770 -0.6896
  783MOL0     C 5610   6.914   0.053   3.620 -0.7882  0.1868  0.3058
  783MOL0     C 5611   6.846  -0.064   3.680 -0.9103  0.5067 -0.4799
  783MOL0     C 5612   6.917  -0.135   3.799 -0.5420  0.2774 -0.5132
  783MOL0     C 5613   6.875  -0.087   3.935  0.3096  0.6566 -0.6566
  783MOL0    Cl 5614   6.980   0.048   3.990  0.1977 -0.1188 -0.3156
  783MOL0     C 5615   7.524   0.430   3.491 -0.3116  0.5665 -0.6247
  783MOL0     C 5616   7.643   0.498   3.491  1.5042 -0.3720  0.2725
  783MOL0     O 5617   7.850   0.696   3.587 -0.2859  0.2780 -0.8307
  783MOL0     C 5618   8.158   0.560   3.450 -0.3581  0.0666 -0.1655
  783MOL0     C 5619   8.298   0.598   3.429 -0.8607  0.2182 -0.3539
  783MOL0     N 5620   9.022   0.581   3.197  0.1204  0.4088  0.7977
  783MOL0     N 5621   9.146   0.582   3.241  0.3056 -0.3659 -0.1182
  783MOL0     C 5622   9.228   0.655   4.383 -0.0227  0.4984 -0.3804
  783MOL0     C 5623   9.211   0.562   4.487  0.3254  0.5845  0.4515
  783MOL0     C 5624   9.317   0.258   4.834 -0.5626 -0.3695  0.1571
  783MOL0     C 5625   9.207   0.328   4.894  0.2341  0.4793  0.0730
  783MOL0     C 5626   9.150   0.277   5.010 -0.2166 -0.9874 -0.6151
  783MOL0     C 5627   9.180   0.150   5.048 -0.6505  0.3232  0.9381
  783MOL0     O 5628   9.110   0.108   5.157 -0.8964 -0.0087 -0.3328
  783MOL0     C 5629   9.102  -0.037   5.175 -0.6083  0.2130  0.0477
  783MOL0     C 5630   9.007  -0.067   5.286 -0.1098  0.8090  0.2018
  783MOL0     C 5631   8.992  -0.204   5.318  0.8453  0.6898 -0.3451
  783MOL0     C 5632   9.127  -0.267   5.347 -0.1075 -0.1758 -0.5291
  783MOL0     C 5633   9.103  -0.391   5.416 -0.5787 -1.3022 -0.6350
  783MOL0     C 5634   9.095  -0.488   5.481 -0.8063  0.7772  0.4448
  783MOL0     C 5635   9.291   0.081   4.993 -0.3853  0.1791 -0.0500
  783MOL0     C 5636   9.357   0.138   4.885 -0.3011  1.3383 -0.2113
  783MOL0     C 5637   9.467   0.054   4.825 -0.4157 -0.8665 -0.1220
  783MOL0     H 5638   9.538   0.545   4.598  1.2054 -2.8673 -2.3753
  783MOL0     H 5639   9.555   0.719   4.421  0.8189  0.5583  1.0037
  783MOL0     H 5640   9.198   0.891   4.236 -0.7762 -0.1409 -1.4389
  783MOL0     H 5641   9.320   0.933   4.116  3.0384 -1.8839 -1.9399
  783MOL0     H 5642   9.138   0.813   4.011  0.9927  0.0319  0.7502
  783MOL0     H 5643   9.157   0.663   4.091  0.6254 -0.2791  0.5273
  783MOL0     H 5644   9.361   0.618   3.968 -1.3704 -0.8804  0.7566
  783MOL0     H 5645   9.384   0.787   3.932 -0.0309  0.3985  1.2794
  783MOL0     H 5646   9.156   0.625   3.826  0.1971  1.1161  1.8401
  783MOL0     H 5647   9.210   0.792   3.774 -0.7420 -0.3030 -0.7821
  783MOL0     H 5648   9.436   0.659   3.704  0.3394 -2.0696 -1.6653
  783MOL0     H 5649   9.356   0.525   3.744 -1.5949 -1.4333 -0.2573
  783MOL0     H 5650   9.322   0.539   3.516 -1.5418 -0.0984 -1.4464
  783MOL0     H 5651   9.159   0.585   3.572  0.0775 -0.9154  3.2510
  783MOL0     H 5652   9.378   0.803   3.529  1.0143 -0.7868  0.3697
  783MOL0     H 5653   9.201   0.824   3.523 -2.6395 -3.0055 -2.7077
  783MOL0     H 5654   9.314   0.856   3.312  0.2203 -0.7904 -0.8223
  783MOL0     H 5655   9.362   0.684   3.315 -0.1430  1.0008  0.4645
  783MOL0     H 5656   9.030   0.884   3.322 -1.3355  0.8329 -0.9022
  783MOL0     H 5657   8.823   0.794   3.117  0.0808 -0.6119 -0.3138
  783MOL0     H 5658   8.767   0.635   3.159 -0.8760  1.0167 -2.3728
  783MOL0     H 5659   8.749   0.720   3.392  1.0893 -1.0906 -0.1025
  783MOL0     H 5660   8.776   0.877   3.338  1.3810  0.2898 -1.2406
  783MOL0     H 5661   8.542   0.720   3.222  0.8598 -0.5496  1.7567
  783MOL0     H 5662   8.597   0.891   3.182 -3.3856  2.3254  0.0764
  783MOL0     H 5663   8.400   0.878   3.314 -0.3332 -0.4255 -1.1299
  783MOL0     H 5664   8.514   0.960   3.418 -2.3944  1.3255 -0.9811
  783MOL0     H 5665   8.309   0.879   3.601 -1.6236 -0.0367  3.1062
  783MOL0     H 5666   8.068   0.826   3.636 -0.9998  0.7073 -2.4676
  783MOL0     H 5667   7.853   0.253   3.586 -2.3254 -4.4041 -0.1101
  783MOL0     H 5668   7.657   0.141   3.613  1.8317 -0.3627  0.7973
  783MOL0     H 5669   7.311   0.368   3.688 -0.8009 -1.5378  1.8327
  783MOL0     H 5670   7.253   0.372   3.516 -4.3050 -2.0039  0.9672
  783MOL0     H 5671   7.203   0.148   3.706 -1.1923  1.3170  0.9515
  783MOL0     H 5672   7.080   0.267   3.642  0.2364  2.0624  0.4941
  783MOL0     H 5673   7.104   0.213   3.445  0.2709  0.9061  1.4564
  783MOL0     H 5674   7.221   0.075   3.459  0.4442  0.3445 -0.5038
  783MOL0     H 5675   7.092  -0.052   3.580 -1.1713 -2.0251 -2.0076
  783MOL0     H 5676   6.994  -0.009   3.434 -1.0854  0.5986 -0.6984
  783MOL0     H 5677   6.850   0.134   3.583 -1.4167 -0.8734 -0.9814
  783MOL0     H 5678   6.962   0.100   3.707 -1.2136  0.4974  0.3743
  783MOL0     H 5679   6.751  -0.023   3.715 -0.9278 -0.5097  0.7342
  783MOL0     H 5680   6.822  -0.131   3.596 -0.7050  0.3221 -0.3904
  783MOL0     H 5681   7.026  -0.135   3.795 -0.5581 -0.4356 -1.4074
  783MOL0     H 5682   6.874  -0.236   3.795 -4.0910  1.3912  2.9137
  783MOL0     H 5683   6.773  -0.049   3.937 -0.1987 -0.5980  2.2956
  783MOL0     H 5684   6.874  -0.172   4.005  1.6779  0.7776 -0.4471
  783MOL0     H 5685   7.436   0.488   3.466  0.1807  1.9720  0.7650
  783MOL0     H 5686   7.647   0.601   3.457  1.1312 -0.8588 -1.2879
  783MOL0     H 5687   8.131   0.457   3.425  2.7723 -0.8878  0.0030
  783MOL0     H 5688   8.349   0.520   3.373 -2.6121  1.0483 -3.3252
  783MOL0     H 5689   9.142   0.675   4.319 -2.0754 -0.4194  1.9544
  783MOL0     H 5690   9.112   0.525   4.509  0.6399 -0.0457  0.8533
  783MOL0     H 5691   9.184   0.429   4.862  0.4633  1.0091  1.5306
  783MOL0     H 5692   9.071   0.332   5.060  0.4947 -1.2800  0.8964
  783MOL0     H 5693   9.199  -0.080   5.202  0.6607  1.6978 -1.9031
  783MOL0     H 5694   9.066  -0.080   5.081  3.4209 -1.6789 -0.8715
  783MOL0     H 5695   8.912  -0.034   5.242  0.0948 -0.5677 -1.3523
  783MOL0     H 5696   9.031  -0.014   5.378  0.3338  1.1439 -0.1031
  783MOL0     H 5697   8.940  -0.247   5.232 -0.1420  1.7929 -0.3273
  783MOL0     H 5698   8.929  -0.210   5.407  1.3554  0.2833 -0.0004
  783MOL0     H 5699   9.190  -0.284   5.259 -1.0927  0.0589 -1.3086
  783MOL0     H 5700   9.178  -0.210   5.425  1.3698 -0.3047 -1.3581
  783MOL0     H 5701   9.097  -0.576   5.542 -0.4501  1.4104  1.3630
  783MOL0     H 5702   9.325  -0.015   5.031  3.1388  1.4296  0.3671
  783MOL0     H 5703   9.549   0.030   4.894  0.8172 -0.1462 -1.2760
  783MOL0     H 5704   9.424  -0.043   4.799 -0.1190 -2.2860  3.9589
  783MOL0     H 5705   9.520   0.098   4.740  0.3707 -1.0279  0.2741
  784MOL0     O 5706  10.203   8.438   1.187  0.5788  0.5971 -0.3773
  784MOL0     C 5707  10.159   8.485   1.290 -0.1196  1.3051 -0.8586
  784MOL0     O 5708  10.103   8.420   1.396  0.5005  0.3083  0.3444
  784MOL0     C 5709  10.132   8.291   1.434 -0.4758 -2.0275  0.0900
  784MOL0     C 5710  10.240   8.212   1.387 -0.3423 -0.1275 -0.0772
  784MOL0     C 5711  10.234   8.072   1.413 -0.1410  0.1147 -0.5361
  784MOL0     C 5712  10.128   8.017   1.490  0.7808 -0.0235 -0.8373
  784MOL0     O 5713  10.114   7.873   1.499  0.0310 -0.1283  0.6229
  784MOL0     C 5714   9.992   7.835   1.554 -0.0187  0.2843 -0.1699
  784MOL0     C 5715   9.967   7.677   1.533  0.5687 -0.0643  1.1271
  784MOL0     C 5716   9.838   7.635   1.598  0.1172 -0.3195 -0.3031
  784MOL0     C 5717   9.804   7.504   1.527  1.4536  0.1806  0.5562
  784MOL0     C 5718   9.683   7.436   1.602 -0.3629  0.1803 -0.5986
  784MOL0     C 5719   9.685   7.438   1.760  0.1401 -0.2735 -0.1922
  784MOL0     C 5720   9.601   7.337   1.831  0.2764  0.4043  1.1283
  784MOL0     C 5721   9.602   7.354   1.979  0.4487 -0.1107 -0.0192
  784MOL0     N 5722   9.474   7.416   2.031 -0.3449 -0.1010  0.1710
  784MOL0     C 5723   9.365   7.346   2.077  0.4066  0.3365  0.1797
  784MOL0     C 5724   9.260   7.436   2.082 -0.9486 -0.2224 -0.1099
  784MOL0     C 5725   9.130   7.402   2.142  0.0490  0.6457 -0.9169
  784MOL0     C 5726   9.152   7.364   2.291  0.5903  0.2934 -0.1570
  784MOL0     C 5727   9.019   7.331   2.363 -0.4033 -0.4493  0.3959
  784MOL0     C 5728   8.960   7.190   2.337  0.5812 -0.2378 -0.5037
  784MOL0     O 5729   9.068   7.108   2.388  0.5024 -0.4336 -0.6876
  784MOL0     C 5730   9.049   7.036   2.505 -0.2572 -0.1723 -0.6470
  784MOL0     C 5731   9.151   6.944   2.539  1.1722 -0.0937  0.2817
  784MOL0     C 5732   9.148   6.883   2.660  0.8387  0.5096  0.6370
  784MOL0     C 5733   9.039   6.901   2.749 -0.1234 -0.6914  0.1750
  784MOL0     C 5734   9.047   6.846   2.889 -0.0932  0.3034 -0.3103
  784MOL0     O 5735   8.937   6.868   2.964  0.0809  0.7478  0.1789
  784MOL0     C 5736   8.947   6.835   3.099 -0.7850  0.4598 -0.0756
  784MOL0     C 5737   8.839   6.762   3.155  0.2584 -0.2290 -0.5079
  784MOL0     C 5738   8.845   6.732   3.288  0.1274  0.6694 -0.7196
  784MOL0     C 5739   8.934   6.784   3.374  0.2334 -0.6460 -0.8936
  784MOL0     O 5740   8.940   6.759   3.507 -0.0368  0.5232  0.0336
  784MOL0     C 5741   8.913   6.621   3.544 -0.4145 -0.3654 -0.0555
  784MOL0     C 5742   8.952   6.606   3.690  1.2231  0.0781  0.0808
  784MOL0     C 5743   9.102   6.612   3.710  0.7615 -1.2027 -0.5944
  784MOL0     C 5744   9.126   6.604   3.861 -0.0311 -0.2133  0.2870
  784MOL0     C 5745   9.273   6.584   3.898 -0.3175 -0.1485 -0.0910
  784MOL0     C 5746   9.301   6.626   4.042  0.3500  0.1857  0.4198
  784MOL0     C 5747   9.261   6.515   4.144  0.0788 -0.1258  0.7576
  784MOL0     C 5748   9.295   6.550   4.288 -0.0678 -0.2697 -0.1502
  784MOL0    Cl 5749   9.200   6.695   4.309 -0.2490  0.3626  0.3626
  784MOL0     C 5750   9.029   6.878   3.323 -0.5790  0.2115 -0.0706
  784MOL0     C 5751   9.029   6.898   3.182 -0.0666 -0.2471  0.8916
  784MOL0     O 5752   9.147   6.793   2.925 -0.7840 -0.3546 -0.5509
  784MOL0     C 5753   8.940   6.989   2.714  0.4862 -0.6908  0.4293
  784MOL0     C 5754   8.951   7.058   2.599  0.0190  0.0544 -0.7938
  784MOL0     N 5755   9.305   7.557   2.053 -0.1422 -0.0896  0.5363
  784MOL0     N 5756   9.439   7.543   2.032  0.9910 -0.0632  0.3298
  784MOL0     C 5757  10.035   8.101   1.543 -0.2625 -0.5800 -0.1619
  784MOL0     C 5758  10.032   8.239   1.521  0.5179  0.0824  0.6031
  784MOL0     C 5759  10.157   8.628   1.295  0.4401 -0.4111 -0.0012
  784MOL0     C 5760  10.030   8.685   1.331 -0.5921  0.0853 -0.6010
  784MOL0     C 5761  10.012   8.821   1.364  0.2295  0.3027 -0.0282
  784MOL0     C 5762  10.120   8.907   1.362 -0.1957  0.5702 -1.1087
  784MOL0     O 5763  10.098   9.025   1.420 -0.4435 -0.2556 -0.1829
  784MOL0     C 5764  10.140   9.018   1.555  0.0708 -0.3242  0.0186
  784MOL0     C 5765  10.048   9.127   1.621  0.3958 -0.0802  0.4118
  784MOL0     C 5766   9.912   9.082   1.654  0.5192 -0.0548  0.1864
  784MOL0     C 5767   9.817   9.195   1.710  0.0339  0.9712  0.1533
  784MOL0     C 5768   9.862   9.243   1.836 -0.9235  0.4794  0.9319
  784MOL0     C 5769   9.890   9.254   1.958 -0.6422 -0.1707  0.4364
  784MOL0     C 5770  10.240   8.855   1.303  0.0801  0.8122 -0.2089
  784MOL0     C 5771  10.265   8.717   1.282  0.4790 -0.0712 -0.0111
  784MOL0     C 5772  10.410   8.674   1.259  0.8530 -0.6717  0.6884
  784MOL0     H 5773  10.320   8.244   1.320  0.5224 -0.7888  0.6067
  784MOL0     H 5774  10.306   8.006   1.364 -1.6407 -0.8883 -1.4873
  784MOL0     H 5775   9.985   7.846   1.663 -1.6886 -1.9856  0.0161
  784MOL0     H 5776   9.915   7.886   1.496 -0.4719 -1.2555 -0.9796
  784MOL0     H 5777  10.057   7.623   1.566  2.8201  1.6532 -1.7448
  784MOL0     H 5778   9.963   7.664   1.425  0.3895  2.9168  0.6735
  784MOL0     H 5779   9.760   7.711   1.591 -0.7266 -0.7174  3.0172
  784MOL0     H 5780   9.865   7.637   1.704 -2.2212  1.3011  0.3346
  784MOL0     H 5781   9.788   7.520   1.419  2.7755 -0.7492  0.1970
  784MOL0     H 5782   9.893   7.441   1.519  1.7181  0.7492 -3.1471
  784MOL0     H 5783   9.598   7.494   1.564 -1.2092 -2.2959 -2.7979
  784MOL0     H 5784   9.670   7.334   1.566  2.8755 -0.0926 -1.3128
  784MOL0     H 5785   9.786   7.431   1.803 -0.8953 -0.1379  2.5007
  784MOL0     H 5786   9.645   7.534   1.793  0.0519 -0.8902  1.5996
  784MOL0     H 5787   9.630   7.236   1.803 -3.8177 -0.8049  0.5459
  784MOL0     H 5788   9.495   7.336   1.805  0.4811 -0.0841  0.2918
  784MOL0     H 5789   9.609   7.256   2.028 -1.9257  1.1223  3.1633
  784MOL0     H 5790   9.683   7.418   2.017  2.4344 -1.7560 -1.2780
  784MOL0     H 5791   9.373   7.244   2.114  1.0528  0.4297  0.3105
  784MOL0     H 5792   9.062   7.489   2.140  0.8435  1.3180 -3.8098
  784MOL0     H 5793   9.078   7.319   2.094  0.8890 -0.0117 -0.6967
  784MOL0     H 5794   9.227   7.285   2.304  2.7485  2.4826  1.6660
  784MOL0     H 5795   9.197   7.447   2.347 -0.5150  0.1038  1.0474
  784MOL0     H 5796   8.945   7.405   2.331  2.1526  3.2042  2.2296
  784MOL0     H 5797   9.035   7.339   2.471 -2.0032 -0.8350  0.6885
  784MOL0     H 5798   8.951   7.176   2.229  1.0574  1.6655 -0.8278
  784MOL0     H 5799   8.864   7.174   2.385  1.0007  1.3044  0.9162
  784MOL0     H 5800   9.227   6.924   2.464  0.5080  0.1979 -0.4759
  784MOL0     H 5801   9.233   6.829   2.700  1.8627  2.5114  1.2996
  784MOL0     H 5802   8.758   6.734   3.088  0.6270  2.3586 -2.2040
  784MOL0     H 5803   8.776   6.656   3.325  0.1061  0.3671 -1.3575
  784MOL0     H 5804   8.809   6.591   3.526 -0.0760 -0.5689 -1.8652
  784MOL0     H 5805   8.983   6.560   3.486 -3.8138 -1.5847 -3.3031
  784MOL0     H 5806   8.897   6.682   3.747  0.7685  0.4178 -0.8076
  784MOL0     H 5807   8.914   6.508   3.720 -1.4063  0.4637 -1.6622
  784MOL0     H 5808   9.154   6.527   3.665 -0.9276 -4.8882  3.7325
  784MOL0     H 5809   9.136   6.714   3.689 -2.1226  0.4463  1.8114
  784MOL0     H 5810   9.069   6.522   3.906  0.8507 -1.4569 -0.7769
  784MOL0     H 5811   9.093   6.696   3.910  1.8551  0.6340  0.0747
  784MOL0     H 5812   9.337   6.638   3.828  1.5220 -0.2214  1.4306
  784MOL0     H 5813   9.297   6.477   3.896 -0.8549 -0.5554  4.4075
  784MOL0     H 5814   9.405   6.657   4.053 -0.0682  2.1163 -0.6605
  784MOL0     H 5815   9.256   6.725   4.047  6.2549  3.3846 -0.3912
  784MOL0     H 5816   9.312   6.423   4.114  0.9571  0.4861  0.3376
  784MOL0     H 5817   9.153   6.500   4.138  0.0260 -0.6404  2.4527
  784MOL0     H 5818   9.259   6.476   4.359 -1.8064  1.0130  0.3775
  784MOL0     H 5819   9.401   6.569   4.308  0.5786 -2.6770 -0.9841
  784MOL0     H 5820   9.086   6.924   3.404 -1.0500 -2.5029  1.9584
  784MOL0     H 5821   9.100   6.974   3.151 -0.1457  1.7795  4.9384
  784MOL0     H 5822   8.862   7.024   2.781  2.2152  2.8883  0.8238
  784MOL0     H 5823   8.874   7.135   2.598 -2.1878 -1.9937  0.6327
  784MOL0     H 5824   9.947   8.074   1.600 -0.6609  0.9368 -0.0046
  784MOL0     H 5825   9.943   8.294   1.554  1.2403  0.9714  1.1176
  784MOL0     H 5826   9.952   8.610   1.338 -1.3597  0.5406 -3.1654
  784MOL0     H 5827   9.916   8.861   1.398  1.2500  2.5536  0.3784
  784MOL0     H 5828  10.243   9.053   1.570 -0.4203  0.4827  1.6313
  784MOL0     H 5829  10.140   8.916   1.593 -1.5126  0.3047  1.8227
  784MOL0     H 5830  10.043   9.215   1.556 -0.9755 -1.7908 -1.9564
  784MOL0     H 5831  10.095   9.156   1.716  1.0719  1.1046 -0.2672
  784MOL0     H 5832   9.914   8.995   1.721 -2.5324  1.0785  1.9170
  784MOL0     H 5833   9.856   9.059   1.563 -0.8277 -2.2196  1.4494
  784MOL0     H 5834   9.806   9.278   1.640  0.3712  1.4080  0.6151
  784MOL0     H 5835   9.723   9.142   1.729  0.0382  1.7379  2.6223
  784MOL0     H 5836   9.912   9.246   2.063  1.4550 -1.8648 -0.0678
  784MOL0     H 5837  10.329   8.916   1.302  0.1095  0.9541  2.4398
  784MOL0     H 5838  10.464   8.761   1.223 -0.8672  0.2360  0.1637
  784MOL0     H 5839  10.462   8.631   1.345 -0.1890 -0.5211  1.4217
  784MOL0     H 5840  10.405   8.603   1.176  1.0276  2.1001 -1.8621
  785MOL0     O 5841   8.445   5.929  11.171  0.9560  0.3472 -0.0196
  785MOL0     C 5842   8.409   5.887  11.060 -0.0578 -1.0150  0.6518
  785MOL0     O 5843   8.465   5.925  10.943  0.7833 -0.1882 -0.1727
  785MOL0     C 5844   8.576   6.012  10.954  0.6672 -0.6952  0.0642
  785MOL0     C 5845   8.707   5.965  10.997  1.6443  0.0456 -0.3069
  785MOL0     C 5846   8.818   6.048  10.972  1.0846 -0.6885 -0.8024
  785MOL0     C 5847   8.816   6.151  10.879  0.1093 -0.5294  1.0992
  785MOL0     O 5848   8.939   6.205  10.852  0.3922  0.1636 -0.0041
  785MOL0     C 5849   8.932   6.336  10.801 -0.3522 -0.3393 -0.3959
  785MOL0     C 5850   9.074   6.401  10.800  0.4098  0.2005  0.3539
  785MOL0     C 5851   9.133   6.458  10.928  1.1264  0.1015 -0.1454
  785MOL0     C 5852   9.213   6.580  10.896  0.2333 -0.5936  0.9976
  785MOL0     C 5853   9.305   6.574  10.777  0.4622 -0.7453 -0.0726
  785MOL0     C 5854   9.378   6.712  10.741  0.2221  0.2644 -0.1003
  785MOL0     C 5855   9.476   6.717  10.621  0.8215 -0.9829  0.6549
  785MOL0     C 5856   9.397   6.710  10.491 -0.6200  0.6570  0.7279
  785MOL0     N 5857   9.492   6.727  10.379  1.2864 -0.0006  0.6790
  785MOL0     C 5858   9.627   6.751  10.390  0.6051  0.4145 -0.1416
  785MOL0     C 5859   9.672   6.770  10.264  0.2346 -1.6686  0.8009
  785MOL0     C 5860   9.794   6.838  10.207  0.2920  0.2749 -0.2387
  785MOL0     C 5861   9.786   6.990  10.187 -0.4369 -0.6210  0.1914
  785MOL0     C 5862   9.918   7.046  10.153 -0.5651  0.5495 -0.2355
  785MOL0     C 5863   9.969   6.997  10.023  0.2833 -0.8640 -0.0287
  785MOL0     O 5864  10.030   6.869  10.025  0.9947 -0.0698 -0.1364
  785MOL0     C 5865  10.052   6.807   9.907 -0.3191 -0.2458  0.3141
  785MOL0     C 5866  10.061   6.669   9.913  0.9287  0.8640  0.4994
  785MOL0     C 5867  10.078   6.587   9.797  0.3628 -0.0216  0.3167
  785MOL0     C 5868  10.091   6.650   9.679 -0.0492  0.1658  1.2196
  785MOL0     C 5869  10.100   6.565   9.557 -0.2663  0.0117  0.0829
  785MOL0     O 5870  10.067   6.433   9.572 -0.3274 -0.1452 -0.3507
  785MOL0     C 5871  10.111   6.349   9.477  0.1459 -0.4599  0.1190
  785MOL0     C 5872  10.223   6.278   9.502  0.3090  0.6242 -0.0464
  785MOL0     C 5873  10.274   6.202   9.396 -0.6135  0.8120 -0.2399
  785MOL0     C 5874  10.202   6.189   9.268  0.2770  0.2682 -0.2148
  785MOL0     O 5875  10.239   6.102   9.174  0.1697  1.1072  0.0018
  785MOL0     C 5876  10.322   5.987   9.194 -0.3780 -0.0175  0.2330
  785MOL0     C 5877  10.281   5.860   9.114  1.0659  1.0809  0.4176
  785MOL0     C 5878  10.169   5.797   9.206  0.0888 -0.8709 -0.3381
  785MOL0     C 5879  10.165   5.653   9.178  0.1881  0.8582 -0.6334
  785MOL0     C 5880  10.060   5.583   9.269  0.5621  0.8483 -0.8853
  785MOL0     C 5881  10.023   5.452   9.201  0.2045  0.3191 -0.1304
  785MOL0     C 5882   9.918   5.363   9.277 -1.6759 -0.2001 -0.3638
  785MOL0     C 5883   9.785   5.438   9.290  0.1813  0.8037 -1.3001
  785MOL0    Cl 5884   9.669   5.332   9.389 -0.5951  0.0766  0.5297
  785MOL0     C 5885  10.081   6.250   9.259 -0.3467  0.1671 -0.3894
  785MOL0     C 5886  10.036   6.339   9.357 -0.2288  0.5689 -0.3554
  785MOL0     O 5887  10.139   6.625   9.452  0.2930  0.5145  0.4916
  785MOL0     C 5888  10.081   6.786   9.671  0.8922  0.1532  0.3703
  785MOL0     C 5889  10.074   6.870   9.781 -0.4110 -0.2941  0.6719
  785MOL0     N 5890   9.564   6.743  10.174 -0.3753 -0.1726 -0.5362
  785MOL0     N 5891   9.457   6.712  10.248  0.3375 -0.2034  0.8240
  785MOL0     C 5892   8.690   6.200  10.831  0.4574  1.0038 -0.2248
  785MOL0     C 5893   8.573   6.138  10.886 -0.0715 -0.0118  1.1951
  785MOL0     C 5894   8.293   5.790  11.041 -0.2858 -0.3112 -0.4146
  785MOL0     C 5895   8.309   5.679  10.964  0.1511 -1.3053 -0.2328
  785MOL0     C 5896   8.199   5.586  10.955 -0.9146  0.3349 -0.1226
  785MOL0     C 5897   8.084   5.599  11.029 -0.0137 -0.3361  0.0086
  785MOL0     O 5898   8.004   5.493  11.040 -0.0297 -0.1775  0.5842
  785MOL0     C 5899   7.874   5.507  10.975 -0.8299 -0.0699 -1.2793
  785MOL0     C 5900   7.877   5.537  10.835 -0.2448 -0.8837  0.0409
  785MOL0     C 5901   7.734   5.532  10.777  0.3641 -0.5444 -0.6500
  785MOL0     C 5902   7.723   5.581  10.631 -0.1363 -0.0343  0.1503
  785MOL0     C 5903   7.842   5.543  10.551 -0.5099  0.4969  0.3836
  785MOL0     C 5904   7.928   5.501  10.473 -0.1242 -0.6034  0.4585
  785MOL0     C 5905   8.073   5.713  11.102 -0.1093  0.2519  0.4771
  785MOL0     C 5906   8.171   5.806  11.116  0.5863 -0.0062 -0.6500
  785MOL0     C 5907   8.160   5.920  11.213  0.8196 -0.5744 -0.2694
  785MOL0     H 5908   8.707   5.882  11.067 -1.6994 -0.4990 -0.7895
  785MOL0     H 5909   8.919   6.013  10.992  1.8672  1.0197 -1.5565
  785MOL0     H 5910   8.893   6.338  10.699 -1.6174 -1.0479  0.0640
  785MOL0     H 5911   8.873   6.404  10.863 -0.1385 -1.3953  0.9859
  785MOL0     H 5912   9.063   6.475  10.720 -1.7068 -1.4195 -0.9603
  785MOL0     H 5913   9.143   6.326  10.760  0.0272  0.1476 -0.2166
  785MOL0     H 5914   9.198   6.386  10.977  0.1034 -0.9149 -0.2365
  785MOL0     H 5915   9.052   6.495  10.992 -2.1363 -2.4301 -2.4312
  785MOL0     H 5916   9.145   6.665  10.883  0.8254 -0.1061  1.0136
  785MOL0     H 5917   9.267   6.595  10.990 -1.0001 -0.6426  1.7378
  785MOL0     H 5918   9.372   6.492  10.806  1.5775  0.5446  1.1569
  785MOL0     H 5919   9.248   6.544  10.689 -0.5941 -0.5817  0.5483
  785MOL0     H 5920   9.302   6.790  10.727  2.0467  1.8480 -1.5980
  785MOL0     H 5921   9.442   6.736  10.826 -0.9290  1.3574  0.4880
  785MOL0     H 5922   9.557   6.644  10.622  1.7120 -0.0429 -0.1915
  785MOL0     H 5923   9.517   6.819  10.629 -0.2179 -0.6840  3.1002
  785MOL0     H 5924   9.333   6.622  10.483  0.2336  0.2071 -2.1654
  785MOL0     H 5925   9.314   6.781  10.498 -2.6738 -1.6480  1.0739
  785MOL0     H 5926   9.685   6.773  10.478 -0.6166  0.9981  0.5500
  785MOL0     H 5927   9.879   6.805  10.266  1.6532 -2.4243 -3.3700
  785MOL0     H 5928   9.810   6.792  10.109 -0.6965 -2.5471  0.8188
  785MOL0     H 5929   9.709   7.011  10.113 -1.3063 -1.4672  0.8259
  785MOL0     H 5930   9.761   7.025  10.288 -2.0695 -3.2529  0.8126
  785MOL0     H 5931   9.993   7.031  10.231 -0.3333 -0.1451 -0.5790
  785MOL0     H 5932   9.919   7.155  10.142  4.0085  0.6291 -1.1788
  785MOL0     H 5933  10.042   7.071   9.989 -2.4668  2.1930  0.2507
  785MOL0     H 5934   9.896   7.010   9.943  1.2415 -2.7087 -1.2854
  785MOL0     H 5935  10.055   6.619  10.009  0.5791 -0.2626 -0.0877
  785MOL0     H 5936  10.088   6.479   9.797 -3.5599 -0.5618 -0.1526
  785MOL0     H 5937  10.291   6.299   9.584  4.2040  0.0143 -2.8093
  785MOL0     H 5938  10.375   6.163   9.405  0.2742  3.0159 -0.0124
  785MOL0     H 5939  10.415   6.020   9.145 -1.5728 -0.1577 -2.2926
  785MOL0     H 5940  10.350   5.972   9.298 -0.9540  0.4871  0.4652
  785MOL0     H 5941  10.243   5.884   9.014  1.8590  1.3521  0.1721
  785MOL0     H 5942  10.364   5.795   9.086 -2.0450 -3.1651  0.1857
  785MOL0     H 5943  10.186   5.813   9.313 -1.0001 -1.6596 -0.0306
  785MOL0     H 5944  10.072   5.838   9.178  0.9108  2.4243  1.1937
  785MOL0     H 5945  10.258   5.601   9.200 -1.4547 -1.5663  1.1207
  785MOL0     H 5946  10.130   5.646   9.074  0.8294  1.6303 -0.9161
  785MOL0     H 5947   9.969   5.644   9.276  0.6996  1.0717 -1.0161
  785MOL0     H 5948  10.088   5.567   9.374  1.8108 -0.6936 -1.4078
  785MOL0     H 5949  10.004   5.456   9.094 -2.3461 -0.7795  0.1975
  785MOL0     H 5950  10.114   5.394   9.223 -0.4399 -0.4280  0.6610
  785MOL0     H 5951   9.947   5.346   9.382 -0.6083 -2.1496 -0.9304
  785MOL0     H 5952   9.924   5.272   9.218  0.8695 -0.8790  0.7978
  785MOL0     H 5953   9.811   5.530   9.344  1.1984 -0.0946 -0.2057
  785MOL0     H 5954   9.726   5.459   9.200 -1.2371 -3.2483 -1.5288
  785MOL0     H 5955  10.018   6.223   9.175  0.3791  1.8741 -1.5555
  785MOL0     H 5956   9.949   6.401   9.340 -1.1022 -1.0527 -2.2630
  785MOL0     H 5957  10.089   6.828   9.571 -0.6964  2.5338  1.1506
  785MOL0     H 5958  10.078   6.978   9.775 -3.2792 -0.1455  0.1810
  785MOL0     H 5959   8.682   6.282  10.759 -0.2960 -0.4583 -1.8810
  785MOL0     H 5960   8.482   6.169  10.836 -1.3640 -0.0300  3.4358
  785MOL0     H 5961   8.394   5.655  10.901 -0.0836 -1.4755 -0.4858
  785MOL0     H 5962   8.223   5.495  10.900  0.3873 -0.3038  1.4251
  785MOL0     H 5963   7.843   5.602  11.020  1.9773  1.0041 -1.3575
  785MOL0     H 5964   7.819   5.418  11.006  0.0555  0.3361  1.8434
  785MOL0     H 5965   7.936   5.460  10.785  1.5602 -0.1050  0.9122
  785MOL0     H 5966   7.926   5.634  10.825  2.4065 -2.2562 -1.2607
  785MOL0     H 5967   7.668   5.588  10.845  1.3258 -1.5003  1.1536
  785MOL0     H 5968   7.678   5.439  10.778  1.6488 -1.3787  1.3346
  785MOL0     H 5969   7.637   5.536  10.580  1.3679 -2.8676 -0.0783
  785MOL0     H 5970   7.713   5.690  10.628 -2.2707 -0.1496 -3.5202
  785MOL0     H 5971   8.011   5.477  10.409  0.3923  2.8464 -0.4070
  785MOL0     H 5972   7.985   5.723  11.165  0.6070  0.3926  1.4959
  785MOL0     H 5973   8.060   5.907  11.255  0.5926  2.9351  0.5206
  785MOL0     H 5974   8.224   5.904  11.300  1.1784  0.3221 -0.3564
  785MOL0     H 5975   8.172   6.020  11.172 -2.9605  0.7938  1.5024
  786MOL0     O 5976   4.569   2.227   6.029  0.3483 -0.2930 -0.1166
  786MOL0     C 5977   4.536   2.251   6.148  0.0494 -0.3842  0.4359
  786MOL0     O 5978   4.549   2.376   6.213 -0.7282 -0.4720  0.4066
  786MOL0     C 5979   4.646   2.455   6.165  0.2241 -0.5679  0.4589
  786MOL0     C 5980   4.750   2.483   6.252  0.1242  0.1672 -0.1900
  786MOL0     C 5981   4.863   2.551   6.212 -0.5666 -0.0563  1.3338
  786MOL0     C 5982   4.869   2.587   6.071 -0.1753  0.0473 -0.7701
  786MOL0     O 5983   4.972   2.656   6.017 -0.0070 -0.9298  0.0078
  786MOL0     C 5984   5.099   2.652   6.081 -0.1270 -0.5823  0.1379
  786MOL0     C 5985   5.205   2.673   5.980 -0.3021 -0.1709  0.3877
  786MOL0     C 5986   5.342   2.669   6.034  0.7412 -0.4914  0.5099
  786MOL0     C 5987   5.386   2.536   6.106  0.5761 -0.7295  0.0206
  786MOL0     C 5988   5.533   2.537   6.137  0.5535  0.0499 -0.3204
  786MOL0     C 5989   5.587   2.647   6.229 -1.3206 -0.6143  0.1176
  786MOL0     C 5990   5.726   2.609   6.296 -0.2067 -0.8560 -0.4654
  786MOL0     C 5991   5.788   2.709   6.377  0.1346 -0.0991  0.2631
  786MOL0     N 5992   5.932   2.676   6.407 -0.2472  0.2286  0.6382
  786MOL0     C 5993   6.035   2.669   6.312  0.1928  0.9058  0.4648
  786MOL0     C 5994   6.145   2.625   6.381  0.6213 -0.1404  0.1082
  786MOL0     C 5995   6.283   2.642   6.320  0.7563  0.7366  0.2397
  786MOL0     C 5996   6.374   2.532   6.347 -0.3604 -0.1906 -0.8995
  786MOL0     C 5997   6.516   2.581   6.399 -0.0417  0.7454  0.5370
  786MOL0     C 5998   6.589   2.449   6.428 -0.2817 -0.1773 -0.6159
  786MOL0     O 5999   6.714   2.479   6.487  0.2157  0.0001 -0.0008
  786MOL0     C 6000   6.789   2.377   6.532  0.6416  0.5584  0.3994
  786MOL0     C 6001   6.927   2.405   6.541  0.2456 -1.0308 -0.7716
  786MOL0     C 6002   7.010   2.322   6.619  0.3144  0.7451 -0.1416
  786MOL0     C 6003   6.957   2.199   6.662 -0.3122  0.6347 -0.1459
  786MOL0     C 6004   7.051   2.105   6.730  0.5444  0.5458  0.3347
  786MOL0     O 6005   7.175   2.129   6.731  0.2291 -0.6043  0.4370
  786MOL0     C 6006   7.256   2.033   6.785 -0.3072  0.7361  0.3069
  786MOL0     C 6007   7.304   1.919   6.724  0.1948  0.4663  1.0026
  786MOL0     C 6008   7.408   1.840   6.775  0.5458  0.2113  0.6371
  786MOL0     C 6009   7.468   1.877   6.896  0.0137 -0.3350 -0.1819
  786MOL0     O 6010   7.550   1.793   6.965 -0.7514 -0.2251  0.1077
  786MOL0     C 6011   7.562   1.653   6.936 -0.0883 -0.7439  0.3635
  786MOL0     C 6012   7.620   1.565   7.062 -0.0341  0.0347  0.1408
  786MOL0     C 6013   7.765   1.587   7.075  0.2175 -0.1471 -0.1336
  786MOL0     C 6014   7.823   1.492   7.179 -0.2137 -0.5421 -0.8755
  786MOL0     C 6015   7.961   1.449   7.127 -0.1031  0.0113 -0.7588
  786MOL0     C 6016   8.064   1.567   7.107  0.5525 -0.2804  0.2162
  786MOL0     C 6017   8.190   1.507   7.035  1.1667 -0.3809  0.1716
  786MOL0     C 6018   8.302   1.593   7.047  0.1129 -1.1233  0.0393
  786MOL0    Cl 6019   8.443   1.502   7.004  0.0856  0.4430  0.1509
  786MOL0     C 6020   7.410   1.977   6.969 -0.3811  0.5720  0.8452
  786MOL0     C 6021   7.307   2.059   6.917 -1.1448 -0.0881 -0.1526
  786MOL0     O 6022   7.001   2.002   6.771 -0.2062  0.7115  0.3310
  786MOL0     C 6023   6.822   2.166   6.641 -0.1686 -0.5190 -0.4872
  786MOL0     C 6024   6.735   2.253   6.571 -0.5274  0.1332 -0.2238
  786MOL0     N 6025   6.115   2.614   6.510 -0.1769  0.3011 -1.1889
  786MOL0     N 6026   5.989   2.641   6.528  0.5063  0.0275 -0.5891
  786MOL0     C 6027   4.755   2.565   5.992 -0.1303  0.4392  0.3365
  786MOL0     C 6028   4.646   2.494   6.034 -0.2558 -0.1445 -0.1416
  786MOL0     C 6029   4.483   2.144   6.235  0.4410  0.6474  0.5067
  786MOL0     C 6030   4.529   2.137   6.367  0.2260  0.4450 -0.8308
  786MOL0     C 6031   4.481   2.036   6.449 -0.4751 -0.6602 -0.7734
  786MOL0     C 6032   4.372   1.956   6.411 -0.7420  0.1893  0.2966
  786MOL0     O 6033   4.322   1.868   6.509  0.0132  0.4044 -0.7306
  786MOL0     C 6034   4.231   1.768   6.466 -0.4683  0.1390 -0.1290
  786MOL0     C 6035   4.313   1.675   6.380 -0.2889  0.4120 -0.5226
  786MOL0     C 6036   4.211   1.554   6.368 -0.1373  0.3595  0.6471
  786MOL0     C 6037   4.273   1.422   6.321  0.6590 -0.0222  0.1862
  786MOL0     C 6038   4.182   1.310   6.348  1.0917 -0.6856  1.1194
  786MOL0     C 6039   4.108   1.226   6.400  0.7743 -0.2468  0.8312
  786MOL0     C 6040   4.324   1.962   6.281 -0.4039 -0.0537  0.1519
  786MOL0     C 6041   4.384   2.056   6.191 -0.6713  1.1676  0.4004
  786MOL0     C 6042   4.328   2.047   6.047 -0.7753 -0.7189 -0.2154
  786MOL0     H 6043   4.739   2.449   6.354 -2.9943 -0.9767 -0.8035
  786MOL0     H 6044   4.945   2.578   6.279 -0.8980  2.3339  0.8558
  786MOL0     H 6045   5.101   2.729   6.159  0.2766 -0.5100  0.0552
  786MOL0     H 6046   5.123   2.559   6.132  1.5368  0.4542  1.3381
  786MOL0     H 6047   5.200   2.771   5.933  0.5402 -0.4796 -0.3671
  786MOL0     H 6048   5.198   2.610   5.891  1.0582 -0.8118  0.7067
  786MOL0     H 6049   5.332   2.744   6.114  0.9580  2.5775 -2.1283
  786MOL0     H 6050   5.414   2.695   5.956 -0.6523 -0.6033 -0.8512
  786MOL0     H 6051   5.325   2.520   6.195 -0.8242  3.2993 -0.0062
  786MOL0     H 6052   5.361   2.448   6.047  0.9722 -0.4634 -0.5593
  786MOL0     H 6053   5.560   2.445   6.189  3.2141  1.1573  0.4348
  786MOL0     H 6054   5.596   2.533   6.047  0.6900 -2.0076 -0.1870
  786MOL0     H 6055   5.598   2.738   6.168 -1.1078  1.6189  3.2559
  786MOL0     H 6056   5.510   2.680   6.299 -1.2516 -0.1432 -0.0235
  786MOL0     H 6057   5.791   2.578   6.214 -0.0067  1.2085 -1.1580
  786MOL0     H 6058   5.721   2.522   6.363  1.5551 -0.5032  0.1930
  786MOL0     H 6059   5.777   2.798   6.314  0.7598 -1.2915 -1.5915
  786MOL0     H 6060   5.730   2.731   6.467  1.6014  3.7539  0.4565
  786MOL0     H 6061   6.020   2.697   6.209 -0.7129  1.0404  0.6242
  786MOL0     H 6062   6.267   2.681   6.220 -0.1162 -0.3250 -0.0609
  786MOL0     H 6063   6.340   2.714   6.379  1.3092 -0.3764  1.1146
  786MOL0     H 6064   6.328   2.491   6.438  1.3088  0.5484  0.3282
  786MOL0     H 6065   6.372   2.455   6.270 -0.8663 -1.4277  0.3109
  786MOL0     H 6066   6.518   2.661   6.473 -2.2394  0.1323  1.3316
  786MOL0     H 6067   6.568   2.618   6.310 -1.3399  1.6423  0.1301
  786MOL0     H 6068   6.589   2.381   6.342  2.2362  0.8891 -1.5563
  786MOL0     H 6069   6.526   2.400   6.502  1.2004 -0.1527  0.7207
  786MOL0     H 6070   6.954   2.500   6.494 -1.1023  0.4162  1.2159
  786MOL0     H 6071   7.110   2.356   6.646  0.9305 -1.1584  0.1003
  786MOL0     H 6072   7.275   1.903   6.620 -0.1673  4.6905  0.2947
  786MOL0     H 6073   7.447   1.751   6.727  0.5938 -0.8999  2.6349
  786MOL0     H 6074   7.464   1.614   6.909 -0.0311  0.3469 -1.5558
  786MOL0     H 6075   7.628   1.633   6.851 -1.2135 -1.7786 -0.2977
  786MOL0     H 6076   7.573   1.588   7.158  0.0038  1.2278 -0.1009
  786MOL0     H 6077   7.595   1.470   7.016 -0.2207  0.0376  0.2342
  786MOL0     H 6078   7.810   1.569   6.977  0.3846  1.3501 -0.3567
  786MOL0     H 6079   7.776   1.692   7.105 -0.2147 -0.4893  1.3083
  786MOL0     H 6080   7.751   1.415   7.209  1.6977 -1.3316  2.2201
  786MOL0     H 6081   7.845   1.548   7.270  1.3496 -2.1789 -0.1653
  786MOL0     H 6082   7.945   1.402   7.030  1.4461 -0.6121 -0.7464
  786MOL0     H 6083   8.009   1.383   7.200 -0.8346 -1.5192 -1.6117
  786MOL0     H 6084   8.010   1.644   7.052 -1.7470  0.0472  2.7200
  786MOL0     H 6085   8.084   1.605   7.208 -2.0001 -0.8937  1.0337
  786MOL0     H 6086   8.183   1.480   6.930  0.8359  1.0335 -0.1892
  786MOL0     H 6087   8.206   1.414   7.091 -2.1005 -1.4792 -0.5188
  786MOL0     H 6088   8.299   1.674   6.973  0.3999 -0.2027  1.0077
  786MOL0     H 6089   8.319   1.637   7.146  1.0614  2.0493 -1.3763
  786MOL0     H 6090   7.446   1.995   7.070 -0.3718 -0.4236  1.0278
  786MOL0     H 6091   7.277   2.147   6.974  2.1913 -0.7485  3.0565
  786MOL0     H 6092   6.783   2.068   6.668 -2.1944  0.3579  0.0110
  786MOL0     H 6093   6.640   2.229   6.525 -0.7199  3.6414 -2.0137
  786MOL0     H 6094   4.761   2.580   5.885  2.2543 -1.7725  0.0629
  786MOL0     H 6095   4.578   2.451   5.961  1.7798 -2.5202 -0.7976
  786MOL0     H 6096   4.598   2.208   6.413 -2.0440  2.1670  0.1186
  786MOL0     H 6097   4.512   2.036   6.553  1.9134 -0.8220 -1.4156
  786MOL0     H 6098   4.140   1.806   6.419 -2.4718 -2.7879  1.0634
  786MOL0     H 6099   4.191   1.713   6.552  1.0741 -0.2002  0.3952
  786MOL0     H 6100   4.395   1.631   6.438 -2.4279 -1.8432  1.0311
  786MOL0     H 6101   4.343   1.716   6.283 -0.1480 -0.1014 -0.7004
  786MOL0     H 6102   4.141   1.597   6.295  1.3802  5.0484  1.6169
  786MOL0     H 6103   4.156   1.532   6.459  0.5903  3.0719  1.8609
  786MOL0     H 6104   4.287   1.413   6.213  0.2143 -0.2335  0.1403
  786MOL0     H 6105   4.374   1.412   6.361  1.3694  1.5866 -1.1145
  786MOL0     H 6106   4.031   1.156   6.424  1.6368 -2.3320 -1.8488
  786MOL0     H 6107   4.243   1.894   6.256  0.5394 -1.8627  1.7821
  786MOL0     H 6108   4.392   1.982   5.986 -2.0253 -0.4614 -1.8786
  786MOL0     H 6109   4.229   2.004   6.032 -1.1421  0.4925 -1.5153
  786MOL0     H 6110   4.323   2.149   6.006 -0.5824 -0.9505 -0.8327
  787MOL0     O 6111   3.073   4.303   5.680 -0.5429  0.0134  0.9630
  787MOL0     C 6112   2.978   4.231   5.702 -0.6604 -0.9838  0.5396
  787MOL0     O 6113   2.857   4.275   5.738  0.5311  0.1408  0.6811
  787MOL0     C 6114   2.807   4.405   5.709  1.0790  0.0481  0.6785
  787MOL0     C 6115   2.849   4.473   5.595  0.0367  0.1614  0.0239
  787MOL0     C 6116   2.785   4.596   5.554 -0.3094  0.2399  0.3176
  787MOL0     C 6117   2.685   4.656   5.626  0.3637 -0.3407 -0.7377
  787MOL0     O 6118   2.611   4.759   5.569  0.1849  0.3726  0.0886
  787MOL0     C 6119   2.663   4.887   5.612  0.4022  0.0896  0.5613
  787MOL0     C 6120   2.807   4.924   5.580 -0.2781 -0.0467 -0.6075
  787MOL0     C 6121   2.858   5.045   5.655 -0.2235 -0.2944  0.6861
  787MOL0     C 6122   2.997   5.098   5.607  0.7251 -0.3260 -0.0119
  787MOL0     C 6123   3.107   5.000   5.645 -0.9627 -0.5572  0.2375
  787MOL0     C 6124   3.209   5.038   5.762  0.4283 -0.6248 -0.0754
  787MOL0     C 6125   3.314   4.926   5.778  0.5376 -0.2527  0.2701
  787MOL0     C 6126   3.439   4.962   5.867  1.1109 -0.3876 -0.2994
  787MOL0     N 6127   3.408   4.964   6.010  1.1862 -0.1890  0.4715
  787MOL0     C 6128   3.356   4.859   6.075 -0.0335  0.4572  0.6647
  787MOL0     C 6129   3.307   4.905   6.182  0.2945 -0.4126 -1.1478
  787MOL0     C 6130   3.255   4.809   6.289  0.4750  0.3001 -0.0994
  787MOL0     C 6131   3.346   4.695   6.346  0.5613  0.2222  0.3134
  787MOL0     C 6132   3.463   4.755   6.435 -0.2360 -0.1775  1.0167
  787MOL0     C 6133   3.423   4.740   6.580 -1.0836  0.5168 -0.0899
  787MOL0     O 6134   3.456   4.612   6.631 -0.3267  0.4721  0.1390
  787MOL0     C 6135   3.453   4.583   6.759  0.6066  0.2067 -0.2450
  787MOL0     C 6136   3.574   4.537   6.820 -0.4736  0.4390  0.3723
  787MOL0     C 6137   3.580   4.502   6.951 -0.3518 -0.3638 -0.2046
  787MOL0     C 6138   3.461   4.488   7.029 -1.0672  0.0481 -0.5633
  787MOL0     C 6139   3.473   4.447   7.170 -0.4001  0.2831  1.5097
  787MOL0     O 6140   3.599   4.422   7.218 -0.3268  0.2506 -0.4098
  787MOL0     C 6141   3.627   4.393   7.351  1.3768 -0.7455  0.0754
  787MOL0     C 6142   3.732   4.306   7.364 -0.0907 -0.2538  0.5073
  787MOL0     C 6143   3.774   4.261   7.485  0.8686  0.2635  0.1093
  787MOL0     C 6144   3.725   4.315   7.603 -0.9365 -0.5691 -0.2921
  787MOL0     O 6145   3.776   4.267   7.723 -0.3400 -0.0082 -0.2865
  787MOL0     C 6146   3.749   4.344   7.836  0.1964 -0.4914  0.1266
  787MOL0     C 6147   3.786   4.279   7.956  0.0255  0.6021  1.1888
  787MOL0     C 6148   3.849   4.359   8.062  0.7554 -0.6326 -1.3413
  787MOL0     C 6149   3.864   4.271   8.181  0.3238  0.3007 -0.0638
  787MOL0     C 6150   3.922   4.355   8.298  0.1075 -0.1285  0.3368
  787MOL0     C 6151   3.916   4.265   8.431 -1.2140 -1.2202  0.5398
  787MOL0     C 6152   4.033   4.318   8.526  1.0789 -0.1911 -0.4441
  787MOL0     C 6153   3.999   4.451   8.580 -0.2725 -1.2063 -1.1263
  787MOL0    Cl 6154   4.144   4.536   8.645 -0.3350  0.0967  0.0731
  787MOL0     C 6155   3.629   4.422   7.587 -0.5523  0.9890 -0.4852
  787MOL0     C 6156   3.570   4.446   7.469 -0.4031  0.5815  1.1048
  787MOL0     O 6157   3.368   4.430   7.235 -1.1587  0.7333 -0.1570
  787MOL0     C 6158   3.334   4.530   6.968 -0.1796  1.1391  1.1167
  787MOL0     C 6159   3.332   4.573   6.841 -0.1651  0.4335  1.4026
  787MOL0     N 6160   3.332   5.044   6.183 -0.4598  0.7262 -0.4282
  787MOL0     N 6161   3.401   5.078   6.083 -0.3361 -0.1055 -0.3198
  787MOL0     C 6162   2.643   4.583   5.736 -0.8203  0.4701  0.9030
  787MOL0     C 6163   2.700   4.464   5.783 -0.1315  1.4232  0.7510
  787MOL0     C 6164   3.007   4.089   5.690  0.8206  0.1900 -0.0798
  787MOL0     C 6165   2.917   4.014   5.626 -1.3582 -0.0125  0.7208
  787MOL0     C 6166   2.938   3.867   5.619  1.0859 -0.4554 -0.3551
  787MOL0     C 6167   3.043   3.810   5.678  1.2298  0.3665  0.5405
  787MOL0     O 6168   3.051   3.672   5.672 -0.3927 -0.1955  0.1335
  787MOL0     C 6169   3.168   3.593   5.702  0.2218 -0.7158 -0.1484
  787MOL0     C 6170   3.281   3.602   5.586 -0.3524  0.9187  0.5185
  787MOL0     C 6171   3.355   3.469   5.600 -1.1377  0.0062 -0.2252
  787MOL0     C 6172   3.489   3.465   5.547 -1.3106  0.0118 -0.2652
  787MOL0     C 6173   3.544   3.329   5.583  0.9750 -0.1294  0.3680
  787MOL0     C 6174   3.594   3.223   5.593 -1.6197 -0.3159  0.7128
  787MOL0     C 6175   3.136   3.889   5.740  0.3471  0.1212  0.3737
  787MOL0     C 6176   3.120   4.026   5.754 -0.2523  0.3961  0.2076
  787MOL0     C 6177   3.221   4.091   5.844 -0.3519  0.0714 -0.0756
  787MOL0     H 6178   2.935   4.445   5.535  1.1461  0.6422  1.3304
  787MOL0     H 6179   2.818   4.631   5.456 -2.0927 -0.1022 -0.4493
  787MOL0     H 6180   2.608   4.965   5.558 -0.5362 -0.3732  0.8193
  787MOL0     H 6181   2.624   4.905   5.712 -1.3065  0.3313 -0.1097
  787MOL0     H 6182   2.826   4.947   5.475  0.4973  2.3487 -0.0163
  787MOL0     H 6183   2.882   4.847   5.602  0.0558 -0.5068 -3.1509
  787MOL0     H 6184   2.863   5.024   5.762  0.3102  0.1341  0.7448
  787MOL0     H 6185   2.780   5.121   5.641 -0.3012 -0.6706 -1.3740
  787MOL0     H 6186   3.006   5.117   5.500  2.1486  0.3789  0.2065
  787MOL0     H 6187   3.023   5.192   5.658 -1.1791  0.1287  0.2157
  787MOL0     H 6188   3.057   4.906   5.669 -0.7862 -0.5296  0.7391
  787MOL0     H 6189   3.174   4.996   5.558 -0.1606 -0.4145  0.8325
  787MOL0     H 6190   3.242   5.137   5.728 -0.1294 -0.5930 -0.5297
  787MOL0     H 6191   3.147   5.046   5.852  1.1909 -3.4955  0.7949
  787MOL0     H 6192   3.352   4.906   5.678  1.2937  0.6319  0.3593
  787MOL0     H 6193   3.267   4.839   5.824 -1.2050  0.9384  0.8900
  787MOL0     H 6194   3.514   4.883   5.856  0.4246 -1.2723  1.0937
  787MOL0     H 6195   3.480   5.058   5.835  1.7435 -0.6618 -0.3269
  787MOL0     H 6196   3.333   4.757   6.046  3.4313 -0.0586 -0.7958
  787MOL0     H 6197   3.223   4.875   6.369  0.2222 -0.3890  0.3811
  787MOL0     H 6198   3.161   4.768   6.249 -0.0033  3.0339 -2.0866
  787MOL0     H 6199   3.286   4.626   6.407 -2.1360  0.3647 -1.9434
  787MOL0     H 6200   3.392   4.639   6.264  0.8740  2.3557 -1.0408
  787MOL0     H 6201   3.496   4.858   6.419 -1.0461 -0.2582 -1.5523
  787MOL0     H 6202   3.547   4.688   6.419 -1.2116 -1.3197  0.5040
  787MOL0     H 6203   3.320   4.759   6.611 -0.4429  3.8212  0.3588
  787MOL0     H 6204   3.488   4.809   6.634  1.4806 -1.5058 -0.3734
  787MOL0     H 6205   3.667   4.552   6.766  0.3338 -0.2315  1.5438
  787MOL0     H 6206   3.680   4.488   6.991  0.8313  2.0734 -2.0837
  787MOL0     H 6207   3.781   4.263   7.277  1.6911  0.3605  1.1750
  787MOL0     H 6208   3.847   4.182   7.494  1.4540  1.0266  3.2713
  787MOL0     H 6209   3.807   4.436   7.824  0.8409 -0.9243 -0.1017
  787MOL0     H 6210   3.643   4.373   7.838  0.6648  1.4338 -0.5958
  787MOL0     H 6211   3.694   4.234   7.995 -1.5317  1.9285 -0.7693
  787MOL0     H 6212   3.859   4.202   7.927  1.8420  3.2816 -2.0654
  787MOL0     H 6213   3.948   4.392   8.029  1.1820 -1.1749 -0.6133
  787MOL0     H 6214   3.788   4.448   8.079  0.1511 -1.4737  1.2551
  787MOL0     H 6215   3.928   4.184   8.166 -1.0837 -1.1011  1.6167
  787MOL0     H 6216   3.768   4.227   8.209 -1.6612  3.4341 -1.3351
  787MOL0     H 6217   3.867   4.448   8.312 -1.5536 -0.6390 -2.1637
  787MOL0     H 6218   4.026   4.381   8.275  0.4295  0.2546  2.1039
  787MOL0     H 6219   3.828   4.269   8.495 -0.9085 -0.7978  0.9437
  787MOL0     H 6220   3.937   4.162   8.401 -1.0808 -0.9142 -0.4330
  787MOL0     H 6221   4.127   4.331   8.471  0.6737  0.5304 -0.9848
  787MOL0     H 6222   4.046   4.248   8.609  1.1580 -0.0326 -0.3236
  787MOL0     H 6223   3.944   4.519   8.514  1.7792  0.6602 -1.0304
  787MOL0     H 6224   3.930   4.434   8.664 -3.5281  0.6853 -3.1978
  787MOL0     H 6225   3.600   4.482   7.673  0.7221 -0.7022  1.2253
  787MOL0     H 6226   3.491   4.519   7.451 -0.8363  0.0894  0.9857
  787MOL0     H 6227   3.238   4.536   7.019 -0.3781  0.8354  0.7841
  787MOL0     H 6228   3.236   4.611   6.810 -1.1988 -2.6118  0.5346
  787MOL0     H 6229   2.558   4.623   5.790 -1.3366 -0.8941  1.1397
  787MOL0     H 6230   2.656   4.405   5.863  0.2794 -2.2089 -1.4465
  787MOL0     H 6231   2.831   4.047   5.568 -0.7665 -1.7877 -1.2763
  787MOL0     H 6232   2.869   3.805   5.562  1.0866 -0.9923  0.2184
  787MOL0     H 6233   3.126   3.492   5.708  0.6621 -0.8134  2.3992
  787MOL0     H 6234   3.210   3.621   5.799  2.2553 -0.1986 -1.1102
  787MOL0     H 6235   3.349   3.685   5.608 -0.8929  1.0772  1.6447
  787MOL0     H 6236   3.234   3.607   5.488 -0.4188  0.3200  0.5135
  787MOL0     H 6237   3.297   3.392   5.548 -1.0176 -2.5171  3.0173
  787MOL0     H 6238   3.360   3.450   5.708 -2.1423  1.6584  0.1515
  787MOL0     H 6239   3.492   3.475   5.438  3.2999 -2.8719 -0.6424
  787MOL0     H 6240   3.554   3.544   5.585  3.2839 -2.5045 -2.1044
  787MOL0     H 6241   3.668   3.147   5.608 -2.2979 -1.6817 -2.1929
  787MOL0     H 6242   3.215   3.840   5.797  0.3147 -2.7055 -1.7607
  787MOL0     H 6243   3.192   4.189   5.883 -0.7655 -0.4559  0.9852
  787MOL0     H 6244   3.244   4.036   5.936  4.1150  0.7052 -0.5919
  787MOL0     H 6245   3.315   4.093   5.787 -0.6205  0.4360 -0.5134
  788MOL0     O 6246   3.882   4.140   4.464 -0.1629 -0.0620  0.2477
  788MOL0     C 6247   3.840   4.224   4.390  1.1037 -0.3907 -0.6176
  788MOL0     O 6248   3.786   4.339   4.428 -0.2560 -0.9945  0.5413
  788MOL0     C 6249   3.776   4.371   4.559 -0.4767 -0.9535 -0.8564
  788MOL0     C 6250   3.830   4.502   4.596  0.0746  0.5550 -0.9412
  788MOL0     C 6251   3.812   4.549   4.727  0.4871 -0.2382 -0.4666
  788MOL0     C 6252   3.745   4.470   4.822 -0.0898  1.6366 -0.2365
  788MOL0     O 6253   3.752   4.509   4.955  0.2126  0.6850  0.0204
  788MOL0     C 6254   3.664   4.447   5.054  0.1616 -0.4439  0.0477
  788MOL0     C 6255   3.660   4.534   5.181 -0.4919  0.0488 -0.1225
  788MOL0     C 6256   3.598   4.663   5.150  1.0159  0.3969 -0.0765
  788MOL0     C 6257   3.666   4.796   5.198 -0.3633  0.3037  0.7046
  788MOL0     C 6258   3.586   4.916   5.137 -0.0297 -0.0581 -0.4911
  788MOL0     C 6259   3.448   4.946   5.201  0.4160 -0.2328  0.7322
  788MOL0     C 6260   3.398   5.089   5.191  0.1437  0.2010 -0.6916
  788MOL0     C 6261   3.252   5.109   5.245  0.3590  0.1310 -0.5244
  788MOL0     N 6262   3.162   5.069   5.131  0.7939  0.0877  0.6668
  788MOL0     C 6263   3.098   5.160   5.057  0.4309  0.2232 -0.0071
  788MOL0     C 6264   2.999   5.093   4.977  0.3589  0.1999 -0.0726
  788MOL0     C 6265   2.897   5.151   4.883 -0.0048  0.1541  0.7082
  788MOL0     C 6266   2.794   5.031   4.846  0.3762  0.0178 -0.7754
  788MOL0     C 6267   2.711   5.057   4.723  1.1035 -0.5196  0.7964
  788MOL0     C 6268   2.600   5.162   4.747  0.3066  0.4446 -0.2156
  788MOL0     O 6269   2.639   5.292   4.722 -0.0418  0.0317 -0.1886
  788MOL0     C 6270   2.554   5.394   4.749  1.0194  0.7421 -0.1410
  788MOL0     C 6271   2.434   5.390   4.821 -0.1597  0.8901  0.5207
  788MOL0     C 6272   2.349   5.504   4.826 -0.4283 -0.8678  0.6342
  788MOL0     C 6273   2.394   5.625   4.753  0.3270  0.6750 -1.6179
  788MOL0     C 6274   2.308   5.738   4.732 -0.0540 -0.5204  0.4090
  788MOL0     O 6275   2.355   5.850   4.680 -0.2480  1.0696  0.4831
  788MOL0     C 6276   2.287   5.965   4.690 -0.0569 -1.3068  0.1170
  788MOL0     C 6277   2.161   5.979   4.626  0.4547 -0.2984  0.7302
  788MOL0     C 6278   2.092   6.102   4.616 -0.6919  0.5767  0.7319
  788MOL0     C 6279   2.140   6.215   4.682  0.4679 -0.8810 -0.2920
  788MOL0     O 6280   2.046   6.323   4.682  0.2392  0.6103  0.1384
  788MOL0     C 6281   2.059   6.397   4.806  0.7128  0.1578 -0.0204
  788MOL0     C 6282   1.927   6.451   4.854 -0.4283 -1.0443  0.9544
  788MOL0     C 6283   1.826   6.488   4.741  0.6825  0.0684 -0.0992
  788MOL0     C 6284   1.698   6.546   4.804 -0.0976 -0.6893 -0.4482
  788MOL0     C 6285   1.571   6.461   4.797  0.1192 -0.1167  0.1894
  788MOL0     C 6286   1.551   6.364   4.917 -1.0557  0.1344 -0.5212
  788MOL0     C 6287   1.427   6.291   4.906  0.6566 -0.1332 -0.6979
  788MOL0     C 6288   1.396   6.199   5.026  0.6231  0.0829  0.7122
  788MOL0    Cl 6289   1.538   6.091   5.071  0.5817 -0.2187  0.4710
  788MOL0     C 6290   2.269   6.202   4.741 -0.5014 -0.5909  0.1934
  788MOL0     C 6291   2.343   6.087   4.738 -0.3545  0.2068  0.9692
  788MOL0     O 6292   2.200   5.728   4.788 -0.2758  0.0692 -1.0445
  788MOL0     C 6293   2.524   5.631   4.703 -0.4454  0.8342  0.3057
  788MOL0     C 6294   2.611   5.515   4.715 -0.9590  0.7442  0.0860
  788MOL0     N 6295   3.016   4.964   5.012 -0.7974  0.2073 -0.3172
  788MOL0     N 6296   3.109   4.942   5.103 -0.3004 -0.4100  0.4474
  788MOL0     C 6297   3.684   4.347   4.786  0.0153 -0.5389 -0.6811
  788MOL0     C 6298   3.695   4.306   4.653 -0.1596  0.6197  0.0224
  788MOL0     C 6299   3.831   4.212   4.239 -0.1690  0.2338 -0.1554
  788MOL0     C 6300   3.767   4.311   4.160  0.1962 -0.8143 -0.6629
  788MOL0     C 6301   3.766   4.318   4.021 -0.1400  1.2049  0.1613
  788MOL0     C 6302   3.826   4.206   3.950  0.0379 -1.1478  0.3483
  788MOL0     O 6303   3.830   4.212   3.816  0.0090  1.3782  0.7858
  788MOL0     C 6304   3.701   4.165   3.766  0.0893 -0.2262  0.0445
  788MOL0     C 6305   3.659   4.216   3.626  0.6018 -0.3793  0.2765
  788MOL0     C 6306   3.639   4.367   3.629  0.3461  0.0173  0.4632
  788MOL0     C 6307   3.561   4.402   3.500  1.3873 -0.2245  0.1890
  788MOL0     C 6308   3.433   4.446   3.537  0.5020  0.4536 -0.7334
  788MOL0     C 6309   3.311   4.463   3.562  0.1342  0.7171  0.3092
  788MOL0     C 6310   3.876   4.102   4.025 -0.3389 -0.1458  0.0685
  788MOL0     C 6311   3.892   4.103   4.165  0.0309  0.0794  0.0625
  788MOL0     C 6312   3.974   3.997   4.222  0.1793  0.0573  1.4632
  788MOL0     H 6313   3.884   4.557   4.519 -1.2255 -0.3603 -2.5678
  788MOL0     H 6314   3.859   4.642   4.758 -0.8383  0.5972 -0.8801
  788MOL0     H 6315   3.560   4.432   5.026 -0.2909 -0.8631  1.8289
  788MOL0     H 6316   3.712   4.349   5.069  0.9369 -0.2558 -1.1202
  788MOL0     H 6317   3.760   4.549   5.224 -1.1162 -0.1274  1.4501
  788MOL0     H 6318   3.591   4.490   5.254 -1.7330  2.0163 -0.0328
  788MOL0     H 6319   3.492   4.667   5.176  0.4474  0.8058 -2.2765
  788MOL0     H 6320   3.607   4.683   5.043  2.4044 -3.5965 -0.8824
  788MOL0     H 6321   3.668   4.803   5.307  0.1988 -1.8492  0.8776
  788MOL0     H 6322   3.773   4.798   5.174  0.8784 -5.3998  3.9842
  788MOL0     H 6323   3.651   5.003   5.149  1.9049 -1.0791 -2.7185
  788MOL0     H 6324   3.565   4.911   5.030 -3.1395 -1.1976  0.0567
  788MOL0     H 6325   3.380   4.881   5.145 -0.9343  0.4215  1.5626
  788MOL0     H 6326   3.442   4.911   5.304 -4.0459 -1.8796  0.1381
  788MOL0     H 6327   3.410   5.124   5.089  2.5922 -0.0245 -0.5402
  788MOL0     H 6328   3.466   5.141   5.260  0.1779 -2.0297  1.0475
  788MOL0     H 6329   3.232   5.034   5.322  0.2547  2.4242  1.8133
  788MOL0     H 6330   3.223   5.205   5.290 -0.5494 -0.1098 -0.5668
  788MOL0     H 6331   3.116   5.267   5.052 -0.5865  0.6727  3.3955
  788MOL0     H 6332   2.839   5.233   4.925 -2.1809 -1.6194  1.3336
  788MOL0     H 6333   2.960   5.201   4.809 -1.1246  2.6654  1.3360
  788MOL0     H 6334   2.857   4.945   4.824 -0.3918 -0.6583 -0.3881
  788MOL0     H 6335   2.730   5.005   4.931  0.2708 -2.3407 -1.5298
  788MOL0     H 6336   2.665   4.961   4.696 -0.1088  0.0372  0.8114
  788MOL0     H 6337   2.776   5.084   4.639  1.9392 -4.4938 -0.0333
  788MOL0     H 6338   2.564   5.144   4.849 -1.9065  1.6025 -0.7078
  788MOL0     H 6339   2.520   5.142   4.674  0.9773  1.4494 -1.2586
  788MOL0     H 6340   2.398   5.304   4.876 -2.6461 -0.0925 -2.3701
  788MOL0     H 6341   2.251   5.492   4.872 -0.1279 -1.3314  1.1799
  788MOL0     H 6342   2.118   5.894   4.574  0.9319  0.0706 -0.3047
  788MOL0     H 6343   2.000   6.106   4.559  1.3837 -1.0760 -3.0911
  788MOL0     H 6344   2.110   6.349   4.890 -2.0215  0.5100  1.9673
  788MOL0     H 6345   2.125   6.482   4.783 -1.3168  1.1522 -2.7591
  788MOL0     H 6346   1.888   6.373   4.920 -1.0997 -1.8785 -0.3837
  788MOL0     H 6347   1.949   6.531   4.925  3.8571  0.2101 -1.4237
  788MOL0     H 6348   1.866   6.568   4.678 -3.1134 -1.1613 -4.6412
  788MOL0     H 6349   1.815   6.402   4.674  3.3735  0.4848 -1.2234
  788MOL0     H 6350   1.686   6.644   4.758  0.6492  0.1955  1.1581
  788MOL0     H 6351   1.710   6.574   4.909 -0.7962 -1.7148 -0.0798
  788MOL0     H 6352   1.581   6.407   4.702  2.6804 -1.3931  1.1000
  788MOL0     H 6353   1.489   6.533   4.792  0.3164  0.3093  2.1569
  788MOL0     H 6354   1.634   6.292   4.918  0.4768  1.8056  1.1203
  788MOL0     H 6355   1.552   6.423   5.010 -0.9440 -1.4615  0.5300
  788MOL0     H 6356   1.417   6.223   4.821 -1.0242  0.0992 -0.7209
  788MOL0     H 6357   1.336   6.349   4.887  1.0667  0.4425 -0.9553
  788MOL0     H 6358   1.367   6.264   5.110 -1.5490  0.0872  0.0272
  788MOL0     H 6359   1.315   6.128   5.005 -1.1504  1.8824  1.1133
  788MOL0     H 6360   2.305   6.294   4.786 -1.3594 -0.2707  0.2443
  788MOL0     H 6361   2.429   6.062   4.799 -2.0493 -1.6218  2.7697
  788MOL0     H 6362   2.559   5.722   4.657 -2.3939  2.4951  1.9238
  788MOL0     H 6363   2.710   5.524   4.671 -0.3019 -0.8702  1.1433
  788MOL0     H 6364   3.630   4.284   4.855 -0.0609 -0.8861 -1.0571
  788MOL0     H 6365   3.648   4.211   4.629  1.4146 -0.6053  1.5780
  788MOL0     H 6366   3.712   4.388   4.213  1.1161 -0.1690 -0.6101
  788MOL0     H 6367   3.706   4.388   3.964 -0.0344 -0.7627 -2.5756
  788MOL0     H 6368   3.611   4.179   3.826  1.0157  0.2313  1.3466
  788MOL0     H 6369   3.695   4.056   3.760 -0.6625 -0.4057  2.7389
  788MOL0     H 6370   3.570   4.153   3.617 -0.2158  0.4349  2.1013
  788MOL0     H 6371   3.740   4.195   3.555  0.1931  1.4015 -0.7895
  788MOL0     H 6372   3.738   4.413   3.620  0.4767 -0.5734 -1.5680
  788MOL0     H 6373   3.589   4.408   3.717  2.0814  0.2696  1.3872
  788MOL0     H 6374   3.609   4.489   3.454 -1.0568  1.6001  0.8488
  788MOL0     H 6375   3.560   4.324   3.423  1.3737  2.8565 -3.2293
  788MOL0     H 6376   3.207   4.488   3.557 -0.8335 -2.8909 -0.3419
  788MOL0     H 6377   3.926   4.025   3.967 -0.6329  0.1119 -0.5321
  788MOL0     H 6378   4.048   4.044   4.287  2.9507  1.4640 -2.3522
  788MOL0     H 6379   3.914   3.930   4.285  1.3450  2.1671  5.1332
  788MOL0     H 6380   4.025   3.937   4.147 -2.3484 -1.4759  0.8252
  789MOL0     O 6381   5.045   4.020   4.071  0.0841  0.2290 -0.1763
  789MOL0     C 6382   4.990   4.115   4.116  0.1182  0.6223 -0.8943
  789MOL0     O 6383   4.857   4.117   4.151 -0.8173 -0.0132  0.1692
  789MOL0     C 6384   4.780   4.010   4.112 -0.3706  0.7301 -0.1552
  789MOL0     C 6385   4.767   3.967   3.978 -0.0397  1.2570  0.7873
  789MOL0     C 6386   4.705   3.844   3.954  0.2665 -0.2082 -0.1156
  789MOL0     C 6387   4.657   3.766   4.064 -0.4812 -0.2139  0.1789
  789MOL0     O 6388   4.567   3.651   4.053 -0.3830 -0.2004  0.2184
  789MOL0     C 6389   4.632   3.534   3.999  0.4740  0.8172  0.5591
  789MOL0     C 6390   4.555   3.412   4.038 -0.2301 -0.0960  0.0578
  789MOL0     C 6391   4.412   3.410   3.993  0.5980 -0.0845 -0.0342
  789MOL0     C 6392   4.344   3.278   4.024  0.1591 -0.3347 -0.3018
  789MOL0     C 6393   4.201   3.274   3.968 -0.6092  0.6172  0.9171
  789MOL0     C 6394   4.131   3.132   3.969  0.1412 -0.7641 -0.4870
  789MOL0     C 6395   3.986   3.138   3.929  0.1786  0.4155 -0.8574
  789MOL0     C 6396   3.894   3.212   4.026 -0.6491 -0.2046  0.3605
  789MOL0     N 6397   3.750   3.155   4.040 -0.4051 -0.3342  0.1328
  789MOL0     C 6398   3.652   3.142   3.945 -0.2940  0.1655 -0.0138
  789MOL0     C 6399   3.552   3.061   3.992  1.1449 -0.1148  0.1019
  789MOL0     C 6400   3.430   3.009   3.920 -0.5361 -0.1345 -0.2443
  789MOL0     C 6401   3.465   2.907   3.808  0.6084  0.8234  0.5062
  789MOL0     C 6402   3.557   2.798   3.846  0.2291  0.1215 -0.0827
  789MOL0     C 6403   3.511   2.716   3.963 -0.0834  0.5842  0.5132
  789MOL0     O 6404   3.433   2.597   3.930 -0.0292  0.3395  0.3182
  789MOL0     C 6405   3.403   2.526   4.040  0.4622  0.1775 -1.3594
  789MOL0     C 6406   3.490   2.475   4.137  0.5396  0.2487  0.5157
  789MOL0     C 6407   3.429   2.401   4.250 -0.7978  0.0949 -0.3103
  789MOL0     C 6408   3.304   2.349   4.242 -0.4767 -0.1206  0.8438
  789MOL0     C 6409   3.256   2.261   4.337 -0.3391  0.8447 -0.9269
  789MOL0     O 6410   3.324   2.244   4.453 -1.0955  0.2724 -0.1225
  789MOL0     C 6411   3.297   2.134   4.540 -0.1933  0.2396 -0.2768
  789MOL0     C 6412   3.327   2.169   4.669 -0.3542 -0.8643 -0.4475
  789MOL0     C 6413   3.327   2.072   4.772 -0.5735 -1.3535  0.0966
  789MOL0     C 6414   3.282   1.945   4.749  0.0897  0.5309 -0.6255
  789MOL0     O 6415   3.263   1.844   4.840  0.6332  0.6761 -0.3236
  789MOL0     C 6416   3.224   1.885   4.974 -0.1351  0.5131 -0.2630
  789MOL0     C 6417   3.157   1.756   5.048  0.2620 -1.3675 -0.8634
  789MOL0     C 6418   3.261   1.649   5.087 -0.7598  0.0457 -0.2631
  789MOL0     C 6419   3.354   1.684   5.201  0.0166  0.1361 -0.2798
  789MOL0     C 6420   3.453   1.566   5.225  0.0814 -0.2478 -0.5827
  789MOL0     C 6421   3.574   1.609   5.313 -0.1478 -0.3422 -0.8036
  789MOL0     C 6422   3.663   1.482   5.326 -0.0935 -0.4577  0.1141
  789MOL0     C 6423   3.809   1.525   5.351 -0.7652 -0.7781 -0.3634
  789MOL0    Cl 6424   3.821   1.637   5.496 -0.0306 -0.1332 -0.3476
  789MOL0     C 6425   3.248   1.904   4.618 -0.8203  1.2635 -0.2306
  789MOL0     C 6426   3.253   2.004   4.513  0.8999  0.2347 -0.0477
  789MOL0     O 6427   3.163   2.195   4.294  0.9496 -1.0642  0.2925
  789MOL0     C 6428   3.221   2.396   4.141  0.0725  0.0352 -0.0147
  789MOL0     C 6429   3.264   2.483   4.046 -0.1782  0.3379 -0.1743
  789MOL0     N 6430   3.579   3.043   4.125 -0.9857 -0.3321  0.0328
  789MOL0     N 6431   3.707   3.082   4.152  1.3355  0.7357  0.1063
  789MOL0     C 6432   4.682   3.798   4.200 -1.0591 -0.1244 -0.2586
  789MOL0     C 6433   4.742   3.927   4.220  0.0395  0.0088 -0.4103
  789MOL0     C 6434   5.069   4.237   4.152  1.6179 -0.0023 -0.0990
  789MOL0     C 6435   5.059   4.282   4.277  0.4660  0.1239  0.6273
  789MOL0     C 6436   5.137   4.389   4.320 -0.1870 -0.0013  0.8189
  789MOL0     C 6437   5.220   4.461   4.235 -0.8116  0.3993 -0.1167
  789MOL0     O 6438   5.305   4.571   4.262  0.8155  0.6460 -0.5926
  789MOL0     C 6439   5.333   4.607   4.392 -0.8174  0.4509 -0.2079
  789MOL0     C 6440   5.453   4.700   4.387  0.5512 -0.3085  0.1649
  789MOL0     C 6441   5.408   4.844   4.388 -0.0889 -0.1745 -0.0590
  789MOL0     C 6442   5.325   4.882   4.262 -1.6113 -0.2791  0.1219
  789MOL0     C 6443   5.375   5.015   4.212 -0.2024  0.7113 -0.3360
  789MOL0     C 6444   5.396   5.127   4.175 -0.5926 -0.2478 -0.0058
  789MOL0     C 6445   5.233   4.414   4.111 -0.3894  0.2368 -0.3222
  789MOL0     C 6446   5.152   4.307   4.067  0.2534  0.7006  0.0544
  789MOL0     C 6447   5.161   4.246   3.929 -0.4872  0.3525 -0.5364
  789MOL0     H 6448   4.808   4.026   3.896 -0.0828 -0.2180 -0.3305
  789MOL0     H 6449   4.681   3.793   3.861 -2.1997 -3.2135  1.9480
  789MOL0     H 6450   4.637   3.543   3.890 -1.9928 -0.6486  0.2676
  789MOL0     H 6451   4.737   3.520   4.025  0.0172 -0.1882  1.9817
  789MOL0     H 6452   4.544   3.391   4.145 -0.6699 -0.8802 -0.1362
  789MOL0     H 6453   4.618   3.329   4.003  0.7339  1.2266 -1.4923
  789MOL0     H 6454   4.416   3.425   3.885  0.1543 -0.5743 -0.1191
  789MOL0     H 6455   4.355   3.486   4.049  0.1168 -0.4640 -0.0044
  789MOL0     H 6456   4.407   3.200   3.982 -0.7234 -0.8921 -0.6169
  789MOL0     H 6457   4.331   3.267   4.132  1.4670 -1.6470 -0.2501
  789MOL0     H 6458   4.136   3.350   4.014 -1.6745 -0.6000  1.5047
  789MOL0     H 6459   4.228   3.313   3.870 -0.8066 -2.8805 -0.6630
  789MOL0     H 6460   4.185   3.062   3.906  4.0503  1.6528 -0.1889
  789MOL0     H 6461   4.152   3.097   4.071 -0.0656 -2.3460 -0.9699
  789MOL0     H 6462   3.943   3.037   3.925  1.2736 -0.2763  2.0838
  789MOL0     H 6463   3.977   3.177   3.828  4.7168  1.7246 -0.9455
  789MOL0     H 6464   3.943   3.219   4.123 -3.1112 -1.4992  1.8116
  789MOL0     H 6465   3.881   3.311   3.983 -2.8568 -1.9529 -3.5469
  789MOL0     H 6466   3.666   3.192   3.849  0.8661  1.9842  1.0396
  789MOL0     H 6467   3.368   2.955   3.993 -1.6644 -0.1443 -1.1811
  789MOL0     H 6468   3.366   3.093   3.890  1.0786  2.1653  2.2123
  789MOL0     H 6469   3.370   2.860   3.779  1.0193  2.3950 -4.4757
  789MOL0     H 6470   3.504   2.952   3.716 -0.0308  1.1999  0.4109
  789MOL0     H 6471   3.651   2.842   3.881 -1.1181  0.2274  3.9027
  789MOL0     H 6472   3.567   2.735   3.757  1.8799  1.8275 -1.1765
  789MOL0     H 6473   3.456   2.774   4.037 -0.9915 -1.3346  1.4260
  789MOL0     H 6474   3.601   2.675   4.012  0.3047 -0.7031 -1.1872
  789MOL0     H 6475   3.597   2.487   4.149  0.9959 -2.4019 -0.2303
  789MOL0     H 6476   3.507   2.380   4.322  0.0883 -1.8231 -1.7370
  789MOL0     H 6477   3.368   2.265   4.701 -0.8953 -0.9549  0.5380
  789MOL0     H 6478   3.350   2.098   4.875 -1.1257  0.5021 -0.2146
  789MOL0     H 6479   3.312   1.910   5.033  0.2069  1.7535 -1.2552
  789MOL0     H 6480   3.154   1.969   4.982 -1.2223 -0.3303 -0.6480
  789MOL0     H 6481   3.100   1.784   5.137  1.5711  2.8722 -1.1420
  789MOL0     H 6482   3.082   1.711   4.982  2.5395 -2.8778 -2.5893
  789MOL0     H 6483   3.221   1.554   5.125  2.4998 -1.8837 -1.2033
  789MOL0     H 6484   3.322   1.607   5.006  1.8733 -0.7776  1.9691
  789MOL0     H 6485   3.295   1.709   5.289 -0.6373  0.9622 -0.9391
  789MOL0     H 6486   3.423   1.765   5.175  2.3685 -1.3596  0.9808
  789MOL0     H 6487   3.502   1.539   5.131  5.9152  1.8370  1.4335
  789MOL0     H 6488   3.404   1.481   5.275  0.0434 -1.4372 -2.5646
  789MOL0     H 6489   3.621   1.702   5.280 -2.7109  3.5236  4.8357
  789MOL0     H 6490   3.542   1.637   5.414  0.3441 -0.0868 -0.7135
  789MOL0     H 6491   3.661   1.437   5.226  0.5116  0.2690 -0.2386
  789MOL0     H 6492   3.614   1.405   5.387 -3.1998 -0.8467 -2.5719
  789MOL0     H 6493   3.877   1.445   5.382 -1.0142 -0.3677  1.3601
  789MOL0     H 6494   3.851   1.587   5.272 -0.6776  2.3089  1.9210
  789MOL0     H 6495   3.242   1.796   4.605  0.8625  0.9340  1.3294
  789MOL0     H 6496   3.212   1.981   4.415 -0.9364  0.1548  0.6975
  789MOL0     H 6497   3.121   2.353   4.138  0.7170 -1.4866 -1.6267
  789MOL0     H 6498   3.189   2.511   3.972 -2.2326  0.9713  2.0111
  789MOL0     H 6499   4.644   3.730   4.275  1.0967 -0.7362  0.3450
  789MOL0     H 6500   4.751   3.960   4.323 -1.3693 -0.0928 -0.2393
  789MOL0     H 6501   5.001   4.231   4.353 -2.2635  3.2548  0.8445
  789MOL0     H 6502   5.123   4.415   4.425  1.3735 -1.3679  1.4261
  789MOL0     H 6503   5.359   4.515   4.446 -2.3380 -1.4655 -2.5323
  789MOL0     H 6504   5.253   4.657   4.446 -0.9344 -1.3773  1.4158
  789MOL0     H 6505   5.522   4.679   4.305 -0.8135  2.1188 -1.7667
  789MOL0     H 6506   5.512   4.686   4.477  0.9079 -0.8838 -0.1493
  789MOL0     H 6507   5.499   4.902   4.404 -2.4453  3.5430  1.0937
  789MOL0     H 6508   5.335   4.863   4.468 -1.7610 -2.0397 -1.0294
  789MOL0     H 6509   5.329   4.805   4.185  1.0494  0.0131 -0.1194
  789MOL0     H 6510   5.224   4.891   4.303 -1.1707 -1.8577  1.6807
  789MOL0     H 6511   5.405   5.227   4.137 -0.0688 -0.4463 -0.4171
  789MOL0     H 6512   5.307   4.448   4.040 -0.9243  0.6651 -0.6770
  789MOL0     H 6513   5.206   4.147   3.939  2.8190  1.8270  1.0433
  789MOL0     H 6514   5.063   4.236   3.881  0.3812  0.1326 -2.3419
  789MOL0     H 6515   5.243   4.299   3.879  2.2804 -0.3280  2.8250
  790MOL0     O 6516   3.569  10.965   7.925  1.2561  1.0113  0.7984
  790MOL0     C 6517   3.599  10.910   8.031 -0.2155  0.5674  0.3526
  790MOL0     O 6518   3.523  10.902   8.136 -0.9632  0.0509 -0.1930
  790MOL0     C 6519   3.427  10.996   8.167 -0.0399 -0.4365 -0.2291
  790MOL0     C 6520   3.344  10.951   8.269  0.9856  0.0486  0.6381
  790MOL0     C 6521   3.243  11.032   8.319 -0.3673  0.5474  0.3349
  790MOL0     C 6522   3.212  11.153   8.248 -0.2998 -0.2989  0.8958
  790MOL0     O 6523   3.127  11.248   8.284  0.5842  0.4873  0.3565
  790MOL0     C 6524   3.030  11.237   8.395 -0.1170  0.6430  0.3628
  790MOL0     C 6525   2.982  11.376   8.424  0.1236 -0.0258  0.1650
  790MOL0     C 6526   2.877  11.385   8.541  0.5030 -0.1500  0.1591
  790MOL0     C 6527   2.878  11.531   8.582  0.2637 -0.1823  0.0427
  790MOL0     C 6528   2.761  11.577   8.665 -0.1507  0.2673  0.7191
  790MOL0     C 6529   2.759  11.516   8.797  0.6698  0.3948  0.1761
  790MOL0     C 6530   2.618  11.541   8.860 -0.7461  0.2956 -0.0002
  790MOL0     C 6531   2.586  11.687   8.889  0.1354 -0.0530 -0.2075
  790MOL0     N 6532   2.524  11.715   9.017 -0.3402  0.6374  0.5992
  790MOL0     C 6533   2.592  11.750   9.139 -0.0946 -0.4310  1.1324
  790MOL0     C 6534   2.491  11.801   9.219 -0.3415  0.0904 -0.2088
  790MOL0     C 6535   2.513  11.834   9.363  0.4972 -0.5537  0.4172
  790MOL0     C 6536   2.531  11.980   9.375 -0.0325  0.5021  0.3515
  790MOL0     C 6537   2.653  12.047   9.307  0.6811  0.5884  0.7321
  790MOL0     C 6538   2.786  12.018   9.365 -0.5513  0.3796 -0.5547
  790MOL0     O 6539   2.810  12.093   9.486 -0.7522  0.2571 -0.1370
  790MOL0     C 6540   2.873  12.215   9.481 -0.1294 -0.2755 -0.5856
  790MOL0     C 6541   2.872  12.306   9.369 -0.2801 -0.6061  0.2835
  790MOL0     C 6542   2.921  12.435   9.385  0.0361  0.6659  0.4808
  790MOL0     C 6543   2.971  12.472   9.511 -0.0409  0.2423 -0.1724
  790MOL0     C 6544   3.008  12.612   9.529  0.3489 -0.6425  0.1984
  790MOL0     O 6545   3.108  12.652   9.623 -0.1519 -0.8897 -0.2581
  790MOL0     C 6546   3.129  12.778   9.664 -0.3173 -0.2497  1.0637
  790MOL0     C 6547   3.165  12.816   9.790  0.7076  0.1803  0.9306
  790MOL0     C 6548   3.191  12.946   9.825 -0.4864 -0.0894 -0.6507
  790MOL0     C 6549   3.201  13.057   9.728  0.9573  0.3958 -0.5533
  790MOL0     O 6550   3.254  13.176   9.777 -0.2397  0.0938  0.6426
  790MOL0     C 6551   3.266  13.297   9.700  0.5301  0.2340 -0.3769
  790MOL0     C 6552   3.389  13.282   9.608 -0.7494 -0.7946 -0.0438
  790MOL0     C 6553   3.442  13.418   9.571 -0.4139  1.0977 -0.5400
  790MOL0     C 6554   3.543  13.412   9.459 -0.4012  0.5261 -0.0294
  790MOL0     C 6555   3.630  13.549   9.474  0.3512  0.1219  0.1452
  790MOL0     C 6556   3.729  13.566   9.354 -1.1626 -0.0661  0.3632
  790MOL0     C 6557   3.842  13.665   9.385 -0.1743  0.3407  0.9303
  790MOL0     C 6558   3.939  13.662   9.264 -0.0816 -0.7678 -0.4975
  790MOL0    Cl 6559   3.888  13.722   9.117  0.1211 -0.5650 -0.2012
  790MOL0     C 6560   3.163  13.015   9.600 -0.9836  0.0241  0.1138
  790MOL0     C 6561   3.142  12.877   9.569 -0.2321  0.2847  0.5921
  790MOL0     O 6562   2.943  12.688   9.458  0.4465  0.0783 -0.2013
  790MOL0     C 6563   2.986  12.380   9.622 -1.1967 -0.1146  0.1192
  790MOL0     C 6564   2.929  12.252   9.607  1.1113  0.7038 -0.3450
  790MOL0     N 6565   2.368  11.782   9.157 -0.8562  0.0428 -0.5370
  790MOL0     N 6566   2.388  11.729   9.035 -0.1439  0.6234 -0.1032
  790MOL0     C 6567   3.286  11.194   8.140  0.1071  0.1077  0.6364
  790MOL0     C 6568   3.395  11.118   8.095  0.1432  0.6159 -0.7977
  790MOL0     C 6569   3.717  10.822   8.027  0.0855 -0.6022 -0.8688
  790MOL0     C 6570   3.791  10.824   7.907  0.1898  0.2940  0.2957
  790MOL0     C 6571   3.895  10.735   7.894  0.0876  0.1808 -0.7545
  790MOL0     C 6572   3.938  10.656   7.998 -0.0243  1.5759 -0.5060
  790MOL0     O 6573   4.054  10.585   7.989  0.4782 -0.3006  0.4530
  790MOL0     C 6574   4.163  10.629   8.072 -0.5032  1.1008 -0.3148
  790MOL0     C 6575   4.282  10.664   7.978  0.0244  0.3233  0.2109
  790MOL0     C 6576   4.330  10.530   7.912 -0.3180 -0.8295 -0.5211
  790MOL0     C 6577   4.431  10.560   7.812 -0.9848  0.2344  0.1813
  790MOL0     C 6578   4.562  10.559   7.875  1.2364 -0.4252  0.9508
  790MOL0     C 6579   4.672  10.572   7.907  0.6601  0.3846  0.5669
  790MOL0     C 6580   3.865  10.655   8.120 -0.3463 -0.6924  0.4344
  790MOL0     C 6581   3.750  10.732   8.132  0.2242 -0.1166  0.5687
  790MOL0     C 6582   3.681  10.722   8.272 -0.1316 -0.3434 -0.4467
  790MOL0     H 6583   3.362  10.856   8.318  0.8619 -1.5082 -2.1053
  790MOL0     H 6584   3.174  11.005   8.399  1.9424 -1.3104  1.8363
  790MOL0     H 6585   2.951  11.166   8.368 -0.0557 -0.6253  3.0990
  790MOL0     H 6586   3.068  11.191   8.486 -1.3807 -2.1360 -0.3997
  790MOL0     H 6587   2.931  11.397   8.329  0.2920 -1.5957 -0.2997
  790MOL0     H 6588   3.069  11.436   8.450 -1.3542  1.9718  0.7185
  790MOL0     H 6589   2.904  11.329   8.631 -0.2819  2.1871  1.9729
  790MOL0     H 6590   2.775  11.365   8.506 -0.6810  0.6005  2.8697
  790MOL0     H 6591   2.973  11.573   8.615 -0.1041 -0.9575  2.2701
  790MOL0     H 6592   2.873  11.580   8.484  2.3992 -3.0578 -1.6525
  790MOL0     H 6593   2.770  11.685   8.679  0.6314  0.0640  1.9122
  790MOL0     H 6594   2.666  11.558   8.614 -0.1798 -1.2292  1.2817
  790MOL0     H 6595   2.766  11.408   8.784 -1.5767  0.3438 -1.0272
  790MOL0     H 6596   2.840  11.553   8.860  1.1551 -3.5330  2.1918
  790MOL0     H 6597   2.621  11.471   8.943  2.0572  1.7652  1.2453
  790MOL0     H 6598   2.547  11.503   8.785  0.5670 -0.3086 -0.9769
  790MOL0     H 6599   2.676  11.749   8.886 -0.3245  0.5866 -1.0017
  790MOL0     H 6600   2.516  11.724   8.813 -1.2604  1.2194  1.6336
  790MOL0     H 6601   2.698  11.753   9.160  0.2441  2.4583 -0.5071
  790MOL0     H 6602   2.422  11.816   9.420  0.0159  2.7067  0.8587
  790MOL0     H 6603   2.604  11.787   9.402  2.0509  2.7968  1.1846
  790MOL0     H 6604   2.436  12.018   9.339 -0.2432 -1.4811 -1.3399
  790MOL0     H 6605   2.528  12.014   9.479 -0.8562  1.1862  0.1133
  790MOL0     H 6606   2.632  12.154   9.319 -1.7392  0.2808 -0.1449
  790MOL0     H 6607   2.653  12.024   9.200 -3.9696  0.2049  0.5924
  790MOL0     H 6608   2.854  12.048   9.284 -0.6132  0.7308 -0.4773
  790MOL0     H 6609   2.778  11.913   9.393 -1.1804  0.6723  0.4199
  790MOL0     H 6610   2.816  12.272   9.282  0.7487 -0.1457 -0.5878
  790MOL0     H 6611   2.914  12.492   9.293 -0.8228 -0.5847 -0.2702
  790MOL0     H 6612   3.155  12.744   9.871  1.1838  0.8873  1.6402
  790MOL0     H 6613   3.208  12.971   9.929  0.0213 -2.9630  0.0251
  790MOL0     H 6614   3.175  13.326   9.646 -1.2771 -0.5292  2.0873
  790MOL0     H 6615   3.290  13.384   9.761  1.5260 -1.7405  2.2218
  790MOL0     H 6616   3.471  13.245   9.669  0.8297  1.9965 -0.2913
  790MOL0     H 6617   3.375  13.220   9.519 -2.5062  2.0162 -1.9022
  790MOL0     H 6618   3.357  13.478   9.537 -1.4882 -0.5275 -0.8332
  790MOL0     H 6619   3.477  13.479   9.655 -0.0455 -0.5346  0.5406
  790MOL0     H 6620   3.490  13.408   9.363 -1.6719 -1.6578  0.6881
  790MOL0     H 6621   3.604  13.321   9.462 -0.4728  0.2159 -3.6262
  790MOL0     H 6622   3.682  13.554   9.570  2.5009  0.7429 -0.9906
  790MOL0     H 6623   3.566  13.638   9.463 -0.4446 -0.5298 -0.6077
  790MOL0     H 6624   3.768  13.464   9.343 -0.2682  0.3380 -0.3841
  790MOL0     H 6625   3.664  13.584   9.267  0.3321  1.6504 -0.4752
  790MOL0     H 6626   3.892  13.636   9.478  2.4311 -0.3759 -0.5840
  790MOL0     H 6627   3.803  13.767   9.390  0.1559  0.4969  0.4492
  790MOL0     H 6628   4.025  13.725   9.286 -1.6927  1.4453 -0.2389
  790MOL0     H 6629   3.963  13.557   9.247  0.8273 -0.5917 -0.3465
  790MOL0     H 6630   3.172  13.081   9.515  0.5438 -0.2506  0.0387
  790MOL0     H 6631   3.130  12.847   9.465 -0.8626  0.8424  0.4950
  790MOL0     H 6632   3.023  12.414   9.719  0.1978 -3.9389  1.0968
  790MOL0     H 6633   2.946  12.182   9.688 -1.7654  0.7323  0.3720
  790MOL0     H 6634   3.264  11.292   8.100 -1.1728  0.1584  1.4111
  790MOL0     H 6635   3.457  11.143   8.009  0.8344  0.3909 -0.3742
  790MOL0     H 6636   3.761  10.892   7.828  1.2146  0.2672 -0.1391
  790MOL0     H 6637   3.936  10.737   7.793 -1.6110 -0.0297 -1.4798
  790MOL0     H 6638   4.185  10.541   8.133  0.7596  1.1361 -0.6795
  790MOL0     H 6639   4.150  10.707   8.148 -0.6771 -0.3429  1.1983
  790MOL0     H 6640   4.367  10.700   8.037  1.3316 -1.2298 -0.6336
  790MOL0     H 6641   4.244  10.732   7.902 -2.1829 -0.1364  0.8333
  790MOL0     H 6642   4.253  10.477   7.856 -0.3289 -1.0545 -0.2931
  790MOL0     H 6643   4.359  10.461   7.991  0.6480  1.3917  1.1909
  790MOL0     H 6644   4.427  10.475   7.743 -1.8406 -1.0577  1.7318
  790MOL0     H 6645   4.419  10.653   7.756  0.1973 -0.2826 -0.9749
  790MOL0     H 6646   4.774  10.588   7.936 -0.0073 -0.4214  3.7542
  790MOL0     H 6647   3.899  10.594   8.202 -0.5977 -3.3753 -1.3306
  790MOL0     H 6648   3.676  10.822   8.316  1.7423  0.0424 -1.0506
  790MOL0     H 6649   3.575  10.696   8.260 -0.4247  1.4752 -2.4206
  790MOL0     H 6650   3.717  10.653   8.349  1.6411  3.6847  2.7558
  791MOL0     O 6651   7.754  10.358   4.868 -0.5817 -0.4537 -0.5673
  791MOL0     C 6652   7.757  10.325   4.984  0.2575 -0.5142 -0.1744
  791MOL0     O 6653   7.841  10.228   5.038  0.6150  0.3069  0.7858
  791MOL0     C 6654   7.949  10.162   4.975 -0.2646 -0.4738 -1.3282
  791MOL0     C 6655   7.996  10.192   4.849 -0.8695 -0.1678  0.7297
  791MOL0     C 6656   8.103  10.120   4.792  0.1644 -0.0085 -0.3966
  791MOL0     C 6657   8.158  10.011   4.851  0.5847  0.9138  0.0005
  791MOL0     O 6658   8.252   9.933   4.770  0.3794 -0.7120 -0.3433
  791MOL0     C 6659   8.254   9.797   4.799  0.0408  0.2546 -0.3487
  791MOL0     C 6660   8.117   9.727   4.752 -0.2951 -0.3998 -0.2043
  791MOL0     C 6661   8.124   9.575   4.788 -0.2488 -0.6663  0.2140
  791MOL0     C 6662   7.988   9.523   4.828 -0.0019  0.1873 -0.7062
  791MOL0     C 6663   7.975   9.374   4.843  1.1681 -0.0424  0.3036
  791MOL0     C 6664   7.831   9.324   4.868 -0.4324  0.4795  0.3654
  791MOL0     C 6665   7.831   9.173   4.908  0.7576 -0.1571  0.7268
  791MOL0     C 6666   7.701   9.105   4.867 -0.2969 -0.4171 -0.7534
  791MOL0     N 6667   7.707   8.968   4.888 -1.1529  0.2944  1.3985
  791MOL0     C 6668   7.692   8.900   5.007 -0.7835  0.5850  0.5044
  791MOL0     C 6669   7.700   8.771   4.976 -0.2823  0.4336  0.5814
  791MOL0     C 6670   7.712   8.660   5.079 -0.4725  0.1119  0.8804
  791MOL0     C 6671   7.814   8.703   5.190  1.0943  0.2849  0.3240
  791MOL0     C 6672   7.966   8.686   5.152 -0.3043 -0.4500 -0.0109
  791MOL0     C 6673   8.045   8.736   5.268 -0.7784  0.8064  0.2202
  791MOL0     O 6674   8.181   8.755   5.216  0.8327 -0.5089 -0.1417
  791MOL0     C 6675   8.216   8.861   5.147 -1.0296  0.8346 -0.1569
  791MOL0     C 6676   8.351   8.865   5.096  1.0429 -0.0959 -0.1043
  791MOL0     C 6677   8.399   8.978   5.028 -0.4802  0.2643 -0.3765
  791MOL0     C 6678   8.327   9.099   5.035 -1.3788 -0.0252  0.6702
  791MOL0     C 6679   8.393   9.227   4.990 -0.1561  0.0088  0.6718
  791MOL0     O 6680   8.509   9.201   4.915  0.4059 -0.2686  0.3555
  791MOL0     C 6681   8.576   9.295   4.845  0.1904  0.8265 -0.3948
  791MOL0     C 6682   8.579   9.434   4.855  0.5981  0.5610  0.8767
  791MOL0     C 6683   8.683   9.513   4.797  0.1444 -0.6488 -1.2226
  791MOL0     C 6684   8.777   9.445   4.722 -1.1142  0.6615 -0.1759
  791MOL0     O 6685   8.864   9.519   4.650 -0.0604 -0.6193 -0.5580
  791MOL0     C 6686   8.992   9.454   4.613  0.0270  0.7644 -0.4162
  791MOL0     C 6687   9.100   9.545   4.565  0.5786  0.0542  0.9642
  791MOL0     C 6688   9.205   9.456   4.502  0.7191 -0.3443  0.3044
  791MOL0     C 6689   9.299   9.383   4.601  0.7895 -0.4452  0.8148
  791MOL0     C 6690   9.407   9.292   4.535  0.2681 -0.0503 -0.8014
  791MOL0     C 6691   9.452   9.177   4.628  0.7413 -0.1966  0.0480
  791MOL0     C 6692   9.546   9.074   4.565  0.0208  0.0062  0.0773
  791MOL0     C 6693   9.544   8.944   4.627  0.7477 -0.2273 -0.0486
  791MOL0    Cl 6694   9.500   8.932   4.804  0.4523  0.1354 -0.2736
  791MOL0     C 6695   8.769   9.304   4.705  0.3408  0.8679 -0.1848
  791MOL0     C 6696   8.670   9.235   4.769  0.1552  0.0011  0.3601
  791MOL0     O 6697   8.331   9.331   4.989 -0.3129  0.0080  0.7102
  791MOL0     C 6698   8.197   9.105   5.103 -1.1818  0.2854 -1.4973
  791MOL0     C 6699   8.145   8.976   5.142  0.0901 -0.7065 -0.0327
  791MOL0     N 6700   7.732   8.768   4.836  0.5076  0.1010  0.5161
  791MOL0     N 6701   7.743   8.881   4.784 -0.4407 -0.4430 -0.5573
  791MOL0     C 6702   8.107   9.973   4.975  0.0995  0.5149 -0.0402
  791MOL0     C 6703   8.017  10.058   5.047 -0.0003 -0.1606 -0.9015
  791MOL0     C 6704   7.660  10.389   5.079 -0.0349 -1.3256  0.1450
  791MOL0     C 6705   7.667  10.353   5.215  0.0801  0.1285 -0.0494
  791MOL0     C 6706   7.564  10.400   5.296  0.4692  0.6107 -0.2407
  791MOL0     C 6707   7.469  10.490   5.253  0.5593 -0.5509 -0.6468
  791MOL0     O 6708   7.362  10.541   5.331 -0.0086 -1.0549 -0.8923
  791MOL0     C 6709   7.337  10.516   5.467 -0.1748  0.0604 -0.2942
  791MOL0     C 6710   7.257  10.388   5.479  0.0151 -0.0639  0.5619
  791MOL0     C 6711   7.110  10.400   5.416 -0.1272 -0.0320 -1.1390
  791MOL0     C 6712   6.996  10.361   5.518 -0.5637 -0.0337  0.9481
  791MOL0     C 6713   6.987  10.218   5.536  0.1976 -0.5326 -0.8082
  791MOL0     C 6714   6.987  10.096   5.535 -0.5818  0.6012 -0.5485
  791MOL0     C 6715   7.468  10.531   5.120  0.4899 -0.5696 -0.2466
  791MOL0     C 6716   7.555  10.483   5.034  0.8895  0.5585  0.6793
  791MOL0     C 6717   7.544  10.534   4.895  0.4768 -0.7635 -0.1371
  791MOL0     H 6718   7.952  10.272   4.790  2.1215  0.5848 -0.7138
  791MOL0     H 6719   8.136  10.144   4.692 -0.9360 -1.3188 -1.1174
  791MOL0     H 6720   8.329   9.745   4.738 -1.6445 -1.0714 -1.3578
  791MOL0     H 6721   8.291   9.778   4.901  1.4745 -0.2612 -0.9334
  791MOL0     H 6722   8.119   9.744   4.644  1.0243  1.6157  0.0928
  791MOL0     H 6723   8.034   9.788   4.787  0.3421 -0.8483  2.2518
  791MOL0     H 6724   8.189   9.546   4.870 -3.0119 -1.1320  2.3966
  791MOL0     H 6725   8.152   9.522   4.696 -1.5572 -0.7019 -0.1923
  791MOL0     H 6726   7.967   9.566   4.927  1.6032 -1.7477  0.5549
  791MOL0     H 6727   7.912   9.573   4.767 -0.8881  0.1652  0.3349
  791MOL0     H 6728   8.015   9.326   4.753 -0.2644 -1.1364  0.1970
  791MOL0     H 6729   8.035   9.346   4.930  3.9082  3.9083 -0.0562
  791MOL0     H 6730   7.792   9.383   4.951 -1.5462  0.9993 -0.5149
  791MOL0     H 6731   7.769   9.344   4.781  0.2823  1.6449  0.1107
  791MOL0     H 6732   7.840   9.157   5.016  0.3394 -0.9056  0.6578
  791MOL0     H 6733   7.909   9.109   4.866 -0.0304 -1.8207  1.7028
  791MOL0     H 6734   7.626   9.145   4.937  1.3356  0.3433  0.6189
  791MOL0     H 6735   7.673   9.121   4.762 -0.2029 -1.0819 -0.8823
  791MOL0     H 6736   7.669   8.949   5.101  0.5522 -0.9984  1.7224
  791MOL0     H 6737   7.625   8.609   5.122  0.6446 -2.4587  0.3103
  791MOL0     H 6738   7.747   8.576   5.019 -1.7642  0.0343  0.2104
  791MOL0     H 6739   7.790   8.806   5.216  0.1052  0.2076 -0.2121
  791MOL0     H 6740   7.804   8.644   5.282 -3.1474  1.4296  0.8230
  791MOL0     H 6741   7.983   8.755   5.069  1.9697  0.1293  0.8426
  791MOL0     H 6742   7.990   8.580   5.147  1.4542 -0.3077  3.0308
  791MOL0     H 6743   8.044   8.658   5.345  0.2735 -1.8542 -2.2846
  791MOL0     H 6744   8.000   8.825   5.312 -0.3826  1.3456 -0.4418
  791MOL0     H 6745   8.408   8.774   5.110 -2.8558 -2.2176  5.7185
  791MOL0     H 6746   8.502   8.977   4.994 -0.0970 -1.0214  0.7399
  791MOL0     H 6747   8.506   9.477   4.924 -0.0951  2.1063 -0.7643
  791MOL0     H 6748   8.684   9.621   4.807 -1.9198 -0.4039 -2.7911
  791MOL0     H 6749   9.033   9.404   4.701  1.2644 -0.0770 -1.4434
  791MOL0     H 6750   8.979   9.380   4.533  5.5170  0.9085 -1.8646
  791MOL0     H 6751   9.045   9.605   4.493 -3.4287 -3.0765  1.0966
  791MOL0     H 6752   9.145   9.598   4.650 -2.2199  2.4747  1.0950
  791MOL0     H 6753   9.178   9.392   4.417  1.1113  1.6081 -1.3621
  791MOL0     H 6754   9.270   9.529   4.454  1.4030 -0.7978  0.5185
  791MOL0     H 6755   9.233   9.327   4.668 -1.3456  0.3882 -0.4870
  791MOL0     H 6756   9.353   9.449   4.669 -0.3483 -0.9726  2.3175
  791MOL0     H 6757   9.492   9.353   4.503 -0.7679  0.3859 -2.9427
  791MOL0     H 6758   9.377   9.239   4.444  2.4619  0.3612 -1.8239
  791MOL0     H 6759   9.502   9.218   4.716  2.1372  1.8920 -1.6261
  791MOL0     H 6760   9.361   9.128   4.665 -0.8311  0.3214 -2.8250
  791MOL0     H 6761   9.646   9.118   4.571 -0.5847  1.4247  0.2031
  791MOL0     H 6762   9.519   9.064   4.459 -1.1575  0.6244  0.2969
  791MOL0     H 6763   9.472   8.879   4.576  0.7558 -1.6759  1.6746
  791MOL0     H 6764   9.639   8.893   4.609  0.3515 -0.7724 -0.6870
  791MOL0     H 6765   8.847   9.246   4.656  0.5257  0.2478  0.8139
  791MOL0     H 6766   8.668   9.127   4.760  1.5250 -0.0497  0.3849
  791MOL0     H 6767   8.137   9.195   5.109  2.6512  3.0757 -1.6012
  791MOL0     H 6768   8.041   8.981   5.173  0.4724  0.1304  1.1855
  791MOL0     H 6769   8.136   9.893   5.043  1.2506  0.7119 -0.2750
  791MOL0     H 6770   7.996  10.035   5.151  0.8065  0.6584 -0.5442
  791MOL0     H 6771   7.755  10.303   5.254  0.8830  0.9097 -0.8061
  791MOL0     H 6772   7.564  10.379   5.403 -0.2314 -0.6266 -0.4689
  791MOL0     H 6773   7.293  10.602   5.519  0.3167 -0.8820  1.7853
  791MOL0     H 6774   7.424  10.499   5.530 -1.8893 -0.8630  1.9731
  791MOL0     H 6775   7.249  10.358   5.584  0.4817 -1.6823  0.1604
  791MOL0     H 6776   7.313  10.303   5.439  0.0190 -0.9926  2.4336
  791MOL0     H 6777   7.104  10.361   5.314  1.6892 -0.1861 -1.2180
  791MOL0     H 6778   7.081  10.506   5.415 -0.0242  0.2684  3.4740
  791MOL0     H 6779   7.008  10.404   5.618 -1.1811  0.2177  0.9169
  791MOL0     H 6780   6.900  10.398   5.480 -2.5514 -2.9975  2.5884
  791MOL0     H 6781   6.972   9.991   5.517 -2.0078  0.5572  0.6350
  791MOL0     H 6782   7.400  10.604   5.078  3.5842  2.9279  0.2832
  791MOL0     H 6783   7.633  10.593   4.874  0.3793 -0.6693 -0.2762
  791MOL0     H 6784   7.516  10.462   4.817 -2.3907  3.2806 -3.3056
  791MOL0     H 6785   7.463  10.606   4.885 -0.1108 -1.4344 -0.3142
  792MOL0     O 6786  11.475  10.372  11.403  0.1092 -0.0887 -0.5551
  792MOL0     C 6787  11.419  10.388  11.291  0.0136 -0.0350 -0.2340
  792MOL0     O 6788  11.314  10.476  11.267  0.6403 -0.1196 -0.0159
  792MOL0     C 6789  11.295  10.576  11.355 -0.2447  0.6088 -0.2884
  792MOL0     C 6790  11.167  10.632  11.365  0.1065  0.6647  0.2796
  792MOL0     C 6791  11.143  10.748  11.430 -0.0992  0.7976  0.6710
  792MOL0     C 6792  11.252  10.820  11.497 -0.5650  0.4193 -0.1553
  792MOL0     O 6793  11.216  10.945  11.544 -0.1778  0.0911  0.9917
  792MOL0     C 6794  11.255  10.996  11.666  0.1111  0.6401 -0.5568
  792MOL0     C 6795  11.155  10.942  11.770 -0.2157  0.4472 -0.1542
  792MOL0     C 6796  11.009  10.979  11.751  0.6873  0.0980 -0.3197
  792MOL0     C 6797  10.919  10.883  11.835  0.5745  0.0319 -0.2709
  792MOL0     C 6798  10.766  10.892  11.794  0.2189 -0.7142  0.3712
  792MOL0     C 6799  10.699  11.025  11.838  0.5286  0.3092 -0.4452
  792MOL0     C 6800  10.557  11.048  11.763  0.6146 -0.3476 -0.4246
  792MOL0     C 6801  10.456  11.128  11.854 -0.1774  1.1553 -0.0952
  792MOL0     N 6802  10.465  11.277  11.850 -0.3274 -0.9002 -1.0741
  792MOL0     C 6803  10.353  11.361  11.852  0.2761  0.0248 -0.2174
  792MOL0     C 6804  10.407  11.485  11.884 -1.8548  0.9937  0.8577
  792MOL0     C 6805  10.334  11.606  11.889  0.2094  0.2217 -0.3800
  792MOL0     C 6806  10.244  11.636  11.766  0.1148 -0.4231 -0.2008
  792MOL0     C 6807  10.323  11.678  11.648 -0.5136 -0.1059  0.0728
  792MOL0     C 6808  10.223  11.689  11.519 -0.2976 -0.0343 -0.7025
  792MOL0     O 6809  10.163  11.562  11.513 -0.3461  0.4020  0.4204
  792MOL0     C 6810  10.123  11.515  11.388  0.3693  0.7558  0.8179
  792MOL0     C 6811  10.083  11.588  11.275 -0.2441 -0.0632 -0.9306
  792MOL0     C 6812  10.039  11.519  11.155 -0.0391  0.7599 -0.3169
  792MOL0     C 6813  10.018  11.386  11.149  0.0955 -0.4410  0.4846
  792MOL0     C 6814   9.961  11.330  11.026 -0.5379 -0.4652 -0.5449
  792MOL0     O 6815  10.002  11.212  10.992  0.5581  1.1492  0.2695
  792MOL0     C 6816   9.961  11.148  10.871  1.6808  0.3117  0.9688
  792MOL0     C 6817   9.938  11.218  10.749  0.0205 -0.9000  0.4388
  792MOL0     C 6818   9.889  11.155  10.628 -0.2551 -0.2354 -0.8885
  792MOL0     C 6819   9.862  11.019  10.632 -0.1561  1.0160  0.3519
  792MOL0     O 6820   9.832  10.952  10.519 -0.4349  0.4789  0.0701
  792MOL0     C 6821   9.703  10.887  10.509 -0.8100 -0.3074  0.4845
  792MOL0     C 6822   9.697  10.736  10.520  0.6833  0.1571 -1.1053
  792MOL0     C 6823   9.758  10.654  10.406  0.1309  0.6106  0.4745
  792MOL0     C 6824   9.743  10.509  10.421 -0.3351  0.1813 -0.6299
  792MOL0     C 6825   9.812  10.411  10.324  0.1958  0.2457  0.0086
  792MOL0     C 6826   9.750  10.417  10.189  0.2684 -0.7051 -0.3502
  792MOL0     C 6827   9.773  10.295  10.106  0.0107  1.3168  0.2815
  792MOL0     C 6828   9.688  10.295   9.973 -0.0855 -0.8559  0.0486
  792MOL0    Cl 6829   9.642  10.137   9.911 -0.2009 -0.5358 -0.5088
  792MOL0     C 6830   9.875  10.952  10.751 -0.2665  0.2781 -0.2101
  792MOL0     C 6831   9.936  11.012  10.866 -0.8935  0.2990  0.0730
  792MOL0     O 6832   9.885  11.405  10.969  0.3497  0.3845  0.0906
  792MOL0     C 6833  10.053  11.304  11.261 -0.3672 -0.5627 -0.9543
  792MOL0     C 6834  10.112  11.371  11.373 -0.4471  0.2180 -1.3787
  792MOL0     N 6835  10.545  11.471  11.894 -0.3401  0.2945  0.8767
  792MOL0     N 6836  10.579  11.353  11.869  0.4574 -0.0975  0.0801
  792MOL0     C 6837  11.374  10.759  11.506 -0.2190  0.0823  0.4921
  792MOL0     C 6838  11.397  10.640  11.434 -1.1481 -0.0065 -0.0544
  792MOL0     C 6839  11.475  10.309  11.172 -0.5016 -0.2267 -0.6962
  792MOL0     C 6840  11.414  10.333  11.049  0.6481  0.1794  0.2386
  792MOL0     C 6841  11.458  10.281  10.926 -0.8284 -0.5786 -0.7606
  792MOL0     C 6842  11.551  10.173  10.933 -0.7398 -0.5160  0.1601
  792MOL0     O 6843  11.605  10.120  10.818  0.4425  0.8134  0.3113
  792MOL0     C 6844  11.536  10.110  10.690  0.1587  0.0765 -0.2120
  792MOL0     C 6845  11.578  10.220  10.598 -0.1442 -0.2774  0.3471
  792MOL0     C 6846  11.725  10.199  10.534 -0.5798 -0.4556  0.3333
  792MOL0     C 6847  11.801  10.341  10.546 -0.4331 -0.7809 -0.4743
  792MOL0     C 6848  11.853  10.354  10.682  0.0279 -0.1241 -0.5159
  792MOL0     C 6849  11.924  10.357  10.780 -0.6081  0.6032  0.7392
  792MOL0     C 6850  11.604  10.135  11.054 -0.1525  0.6812  0.0026
  792MOL0     C 6851  11.577  10.209  11.173 -0.9571 -0.4992 -0.3318
  792MOL0     C 6852  11.645  10.176  11.300 -0.1414 -0.9631  0.0037
  792MOL0     H 6853  11.088  10.590  11.304 -0.4745 -0.0149  1.4705
  792MOL0     H 6854  11.045  10.791  11.411 -1.6032 -2.9336 -0.7766
  792MOL0     H 6855  11.359  10.986  11.697 -0.2792 -1.2020  0.2891
  792MOL0     H 6856  11.248  11.105  11.672  1.8286  0.7056  1.3987
  792MOL0     H 6857  11.191  10.983  11.865 -2.3069  1.8855  0.1130
  792MOL0     H 6858  11.165  10.837  11.797  2.7146  0.9240  1.0209
  792MOL0     H 6859  10.986  10.967  11.645 -2.0401 -1.9201  0.3905
  792MOL0     H 6860  10.987  11.081  11.784  1.7632  0.8572 -1.8219
  792MOL0     H 6861  10.949  10.780  11.813  0.8097  0.4528 -2.0332
  792MOL0     H 6862  10.929  10.902  11.943  0.7263  0.5103 -0.3667
  792MOL0     H 6863  10.767  10.889  11.685 -0.5805 -1.3012  0.3699
  792MOL0     H 6864  10.718  10.800  11.832  1.1475 -1.0822  0.6697
  792MOL0     H 6865  10.668  11.025  11.943 -1.1172 -0.0841 -0.8953
  792MOL0     H 6866  10.755  11.117  11.815 -2.4115  2.3865  0.1110
  792MOL0     H 6867  10.505  10.955  11.740  1.9906 -1.1974 -0.2275
  792MOL0     H 6868  10.576  11.094  11.666  0.3517  0.4380 -0.1098
  792MOL0     H 6869  10.355  11.094  11.829  0.8543 -0.2689 -2.7277
  792MOL0     H 6870  10.472  11.090  11.955 -5.3808 -0.1725  0.5490
  792MOL0     H 6871  10.249  11.334  11.840 -0.3732  2.4902 -0.8046
  792MOL0     H 6872  10.270  11.592  11.977 -0.5617 -0.8365 -1.0723
  792MOL0     H 6873  10.393  11.696  11.903 -0.8998  0.6650  1.8620
  792MOL0     H 6874  10.169  11.559  11.743  0.9801 -0.9359 -1.4428
  792MOL0     H 6875  10.180  11.720  11.793  1.8821  0.7522  0.5162
  792MOL0     H 6876  10.399  11.604  11.621 -2.0416 -3.7089  4.3607
  792MOL0     H 6877  10.365  11.774  11.676 -2.3655 -0.2475  3.9330
  792MOL0     H 6878  10.275  11.717  11.426  1.0257 -2.2352 -0.7153
  792MOL0     H 6879  10.149  11.764  11.547  0.7512  0.5791  0.4951
  792MOL0     H 6880  10.095  11.696  11.271 -2.3640  0.1892 -2.9192
  792MOL0     H 6881  10.012  11.585  11.073  3.0793 -0.7791 -2.8296
  792MOL0     H 6882   9.967  11.322  10.744 -0.0833 -0.8298  1.2709
  792MOL0     H 6883   9.884  11.204  10.531 -0.0742 -0.4747 -1.0179
  792MOL0     H 6884   9.628  10.952  10.556 -1.9721  2.5069 -4.5024
  792MOL0     H 6885   9.665  10.904  10.408 -1.5207 -0.4248  0.7290
  792MOL0     H 6886   9.751  10.705  10.610 -0.1526 -1.5690 -1.1609
  792MOL0     H 6887   9.591  10.710  10.531  0.9073  0.0597  1.5386
  792MOL0     H 6888   9.730  10.670  10.302  3.2953 -3.4709 -1.2802
  792MOL0     H 6889   9.864  10.680  10.406  1.0218 -2.5304 -0.4890
  792MOL0     H 6890   9.637  10.497  10.397  0.1691  0.8689 -3.7220
  792MOL0     H 6891   9.770  10.483  10.523  0.0476  1.3331 -0.4296
  792MOL0     H 6892   9.801  10.318  10.379 -1.3010  2.2999  3.4933
  792MOL0     H 6893   9.921  10.425  10.317  0.3093 -0.5895  0.0600
  792MOL0     H 6894   9.644  10.443  10.199  0.8998  1.4703  1.7818
  792MOL0     H 6895   9.789  10.500  10.129  2.3545 -3.0736 -2.4932
  792MOL0     H 6896   9.739  10.206  10.160  1.5221  0.4132 -0.2080
  792MOL0     H 6897   9.879  10.283  10.082 -0.6207 -0.4438 -1.9147
  792MOL0     H 6898   9.606  10.367   9.974  2.8912  2.9815 -2.2058
  792MOL0     H 6899   9.737  10.341   9.886  1.5207 -1.3867  0.6389
  792MOL0     H 6900   9.850  10.847  10.760  2.0948 -0.7907 -3.9855
  792MOL0     H 6901   9.947  10.965  10.963 -0.4336 -0.3027 -0.2650
  792MOL0     H 6902  10.037  11.196  11.258  0.1152 -0.6407 -0.7089
  792MOL0     H 6903  10.153  11.304  11.449  1.5952  1.2139 -1.5512
  792MOL0     H 6904  11.461  10.813  11.543 -1.0540  1.0137  1.1533
  792MOL0     H 6905  11.501  10.611  11.421 -1.0428  0.7771 -1.0843
  792MOL0     H 6906  11.324  10.393  11.036 -1.7400 -2.9781  0.8417
  792MOL0     H 6907  11.409  10.293  10.830  1.4135 -1.0793 -2.0474
  792MOL0     H 6908  11.427  10.113  10.690  0.1417 -0.3686 -0.4788
  792MOL0     H 6909  11.558  10.010  10.651 -0.9622 -0.7128  1.0957
  792MOL0     H 6910  11.577  10.315  10.652  0.7768  0.2511 -0.5165
  792MOL0     H 6911  11.505  10.215  10.516  0.9673 -0.8199 -0.6385
  792MOL0     H 6912  11.715  10.179  10.427 -5.0435  1.9845  0.0439
  792MOL0     H 6913  11.787  10.120  10.578 -3.1328 -0.5835  4.1375
  792MOL0     H 6914  11.879  10.328  10.470  1.3602 -0.4158  1.2092
  792MOL0     H 6915  11.740  10.428  10.522 -2.6731 -1.7896  1.1902
  792MOL0     H 6916  11.990  10.355  10.864 -1.4501 -2.4933  1.4613
  792MOL0     H 6917  11.680  10.059  11.038 -0.1438  0.1839  2.1333
  792MOL0     H 6918  11.695  10.270  11.327 -1.4069 -0.1024 -0.5546
  792MOL0     H 6919  11.581  10.146  11.382 -1.0162  0.3858 -0.1518
  792MOL0     H 6920  11.716  10.094  11.287  1.5801  0.5230 -0.4114
  793MOL0     O 6921   6.514   3.748   7.410 -0.6407  0.2126  0.6118
  793MOL0     C 6922   6.574   3.652   7.458 -0.3279  0.5643  0.2293
  793MOL0     O 6923   6.706   3.654   7.505  0.2123  0.0825 -0.1292
  793MOL0     C 6924   6.802   3.750   7.481 -0.6234  0.1377 -0.6533
  793MOL0     C 6925   6.797   3.833   7.365  1.0492  0.3326 -0.4156
  793MOL0     C 6926   6.876   3.953   7.360 -0.7167  0.3245 -0.0395
  793MOL0     C 6927   6.975   3.975   7.450  0.3024 -0.8422  0.5907
  793MOL0     O 6928   7.042   4.086   7.451 -0.5528  0.7693 -0.6555
  793MOL0     C 6929   7.100   4.132   7.330  0.0086 -0.0268  0.3613
  793MOL0     C 6930   7.035   4.262   7.281  0.6929 -0.2061 -1.0238
  793MOL0     C 6931   7.025   4.354   7.403 -0.4279  0.7109  0.1070
  793MOL0     C 6932   6.991   4.496   7.344  0.4485 -0.5263  0.2599
  793MOL0     C 6933   6.949   4.604   7.449  0.4357  1.0033  0.0528
  793MOL0     C 6934   7.073   4.657   7.534  0.2657  0.2583 -0.2600
  793MOL0     C 6935   7.010   4.693   7.672  0.2263 -0.0962  0.9296
  793MOL0     C 6936   7.119   4.749   7.762  1.7429  0.3774 -0.3568
  793MOL0     N 6937   7.076   4.756   7.905 -0.5445  0.2682  0.0563
  793MOL0     C 6938   7.117   4.672   8.001  0.3812  0.6564 -0.0937
  793MOL0     C 6939   7.074   4.712   8.118  0.0849 -0.0266  0.7061
  793MOL0     C 6940   7.083   4.652   8.250 -1.1119 -0.7642 -0.0996
  793MOL0     C 6941   7.219   4.678   8.322  0.1742 -0.3930 -0.1764
  793MOL0     C 6942   7.229   4.587   8.451 -1.0230 -0.2576 -0.2898
  793MOL0     C 6943   7.347   4.628   8.540 -0.0937 -0.7981  0.1152
  793MOL0     O 6944   7.359   4.545   8.651 -0.7589 -0.1211 -0.3375
  793MOL0     C 6945   7.265   4.533   8.749 -0.4334  0.1764 -0.6980
  793MOL0     C 6946   7.284   4.423   8.825  0.1689  0.0996  0.1596
  793MOL0     C 6947   7.206   4.399   8.942  0.5880 -0.3084 -0.5655
  793MOL0     C 6948   7.119   4.490   8.995  0.6031 -0.2070 -0.2899
  793MOL0     C 6949   7.048   4.467   9.126  0.8224 -0.3626 -0.1055
  793MOL0     O 6950   6.973   4.567   9.164 -0.8481 -0.6368 -0.1670
  793MOL0     C 6951   6.941   4.557   9.301 -0.8109 -0.3516 -0.1254
  793MOL0     C 6952   6.814   4.520   9.343  0.4287  0.0271  0.9037
  793MOL0     C 6953   6.784   4.478   9.469 -0.1586 -0.3377 -0.6318
  793MOL0     C 6954   6.885   4.478   9.573  0.1219 -0.8400 -0.5725
  793MOL0     O 6955   6.856   4.451   9.705 -0.5260  0.8941 -0.2131
  793MOL0     C 6956   6.723   4.403   9.748  0.0458 -0.0215 -0.4737
  793MOL0     C 6957   6.710   4.244   9.716  0.1347  0.1857  0.1371
  793MOL0     C 6958   6.564   4.190   9.716 -0.0646 -0.1105 -0.2492
  793MOL0     C 6959   6.548   4.040   9.744 -0.4661 -0.4393 -0.0369
  793MOL0     C 6960   6.553   3.990   9.887 -0.7135  0.4104  0.0014
  793MOL0     C 6961   6.491   3.856   9.901  0.0500  0.6179  0.3474
  793MOL0     C 6962   6.565   3.729   9.841 -0.6417  0.1905  0.4364
  793MOL0     C 6963   6.492   3.601   9.886 -0.2606 -0.3589  0.6424
  793MOL0    Cl 6964   6.447   3.610  10.048  0.0654  0.1067 -0.1683
  793MOL0     C 6965   7.010   4.516   9.532 -0.0570 -0.1996  0.6457
  793MOL0     C 6966   7.041   4.556   9.399  0.7945  0.4077  0.2518
  793MOL0     O 6967   7.042   4.357   9.175  0.2868  0.6667 -0.3582
  793MOL0     C 6968   7.100   4.609   8.914 -1.3195 -0.0034 -0.6071
  793MOL0     C 6969   7.168   4.627   8.801 -0.4744  1.0127  0.6780
  793MOL0     N 6970   7.025   4.840   8.095  0.1095 -0.9182 -0.7728
  793MOL0     N 6971   7.026   4.863   7.972 -0.3433  0.5536  0.0394
  793MOL0     C 6972   6.982   3.884   7.563 -0.2954 -0.6494 -0.2923
  793MOL0     C 6973   6.901   3.776   7.579  0.5563  0.6986  1.1261
  793MOL0     C 6974   6.493   3.526   7.473 -0.3366  0.6698  0.0255
  793MOL0     C 6975   6.353   3.543   7.493  0.7263  0.2318 -1.1121
  793MOL0     C 6976   6.266   3.437   7.519 -0.3617 -0.4273 -0.4921
  793MOL0     C 6977   6.310   3.296   7.533 -0.4023 -0.7623 -0.8181
  793MOL0     O 6978   6.230   3.183   7.569 -0.4953 -0.7461 -0.3250
  793MOL0     C 6979   6.093   3.197   7.592 -0.9127 -0.7084 -0.5860
  793MOL0     C 6980   6.032   3.070   7.534 -1.3988 -0.7067  0.5931
  793MOL0     C 6981   5.883   3.064   7.573  0.3128  0.8443 -0.3686
  793MOL0     C 6982   5.791   3.184   7.565  0.1375  0.2251  0.2460
  793MOL0     C 6983   5.801   3.262   7.439  0.1055  0.3543  0.1258
  793MOL0     C 6984   5.797   3.344   7.349  0.0090  0.3620  0.3925
  793MOL0     C 6985   6.453   3.292   7.515  0.6940  0.9737 -1.8339
  793MOL0     C 6986   6.545   3.394   7.481  0.4905 -0.5226 -0.5610
  793MOL0     C 6987   6.692   3.353   7.441  0.4593  0.3274 -0.4110
  793MOL0     H 6988   6.716   3.823   7.292 -0.5181 -0.3064  1.3102
  793MOL0     H 6989   6.851   4.031   7.288 -0.3027  0.7305  0.2504
  793MOL0     H 6990   7.200   4.165   7.357 -0.0809 -0.5787  1.4244
  793MOL0     H 6991   7.116   4.056   7.253  3.4356  1.3898 -0.5311
  793MOL0     H 6992   6.936   4.239   7.241  1.3901 -2.4118 -1.6404
  793MOL0     H 6993   7.104   4.307   7.210  0.5681  1.3125 -0.2288
  793MOL0     H 6994   7.117   4.357   7.462  0.9869 -0.4928 -1.9340
  793MOL0     H 6995   6.956   4.312   7.476  1.3293 -1.0938  0.8098
  793MOL0     H 6996   7.080   4.539   7.299 -0.8284  0.4601 -1.4599
  793MOL0     H 6997   6.908   4.490   7.273  0.3645 -2.2033  0.4534
  793MOL0     H 6998   6.919   4.692   7.390  3.5832  0.7983 -2.0956
  793MOL0     H 6999   6.864   4.573   7.511  0.0349  2.1274  0.1001
  793MOL0     H 7000   7.142   4.574   7.548  0.8867  1.2197  3.4803
  793MOL0     H 7001   7.112   4.746   7.483 -2.0401  1.3496 -0.2435
  793MOL0     H 7002   6.969   4.606   7.726 -0.5242 -0.5767 -0.3558
  793MOL0     H 7003   6.933   4.769   7.655 -0.9437 -1.3216  0.5107
  793MOL0     H 7004   7.202   4.677   7.761  1.7518  0.2836 -3.7333
  793MOL0     H 7005   7.165   4.836   7.716  4.5585 -1.8010 -1.9972
  793MOL0     H 7006   7.166   4.576   7.986 -0.9385 -0.1092  0.4036
  793MOL0     H 7007   6.997   4.690   8.306  1.4414  3.6702  1.3481
  793MOL0     H 7008   7.091   4.544   8.237  3.6907 -0.8171  1.3027
  793MOL0     H 7009   7.304   4.657   8.257  2.6583  1.4005  2.2798
  793MOL0     H 7010   7.217   4.787   8.339 -1.0422 -0.8148  3.2620
  793MOL0     H 7011   7.261   4.486   8.423  3.5168  1.2197 -1.2933
  793MOL0     H 7012   7.138   4.578   8.512 -0.7739 -2.0220 -0.1103
  793MOL0     H 7013   7.335   4.734   8.567 -2.7773 -1.0902  0.3963
  793MOL0     H 7014   7.443   4.615   8.491 -0.2341  0.4250 -0.5446
  793MOL0     H 7015   7.364   4.351   8.807  1.2689  0.5683  2.7036
  793MOL0     H 7016   7.246   4.305   8.981  3.8410 -0.8164 -4.4204
  793MOL0     H 7017   6.721   4.508   9.287  1.3363 -2.4958 -0.2061
  793MOL0     H 7018   6.680   4.463   9.493 -0.4921  1.5998 -0.7144
  793MOL0     H 7019   6.723   4.410   9.858 -3.0921  0.0799 -0.3691
  793MOL0     H 7020   6.637   4.460   9.713  1.3999  1.4206 -1.5697
  793MOL0     H 7021   6.760   4.219   9.622 -3.5335 -3.9254 -1.0952
  793MOL0     H 7022   6.761   4.188   9.794  0.7021 -1.2980 -1.2425
  793MOL0     H 7023   6.507   4.256   9.781  1.8618  3.2103 -1.6768
  793MOL0     H 7024   6.530   4.194   9.612  0.5325  2.4178 -0.4065
  793MOL0     H 7025   6.630   3.988   9.692 -0.6570  1.0632 -1.9353
  793MOL0     H 7026   6.447   4.014   9.709 -0.8876  1.6173 -0.4531
  793MOL0     H 7027   6.515   4.059   9.963  1.4321  1.0574  0.5802
  793MOL0     H 7028   6.661   3.985   9.907  0.1244 -0.7643 -4.0065
  793MOL0     H 7029   6.466   3.858  10.007 -3.2162  2.2433 -0.3265
  793MOL0     H 7030   6.387   3.861   9.867 -0.9453 -2.3954  2.5690
  793MOL0     H 7031   6.669   3.730   9.875 -0.8018 -1.5969  1.0955
  793MOL0     H 7032   6.584   3.739   9.734  1.1193 -2.0335  0.4624
  793MOL0     H 7033   6.398   3.591   9.831  0.4558  0.5417 -0.8048
  793MOL0     H 7034   6.554   3.514   9.865  1.2737  0.2919  2.1966
  793MOL0     H 7035   7.092   4.519   9.603 -1.7652  2.8507  2.7116
  793MOL0     H 7036   7.142   4.586   9.372  1.4043  0.8128  2.7591
  793MOL0     H 7037   7.031   4.690   8.938 -0.2532  1.0097 -0.8548
  793MOL0     H 7038   7.124   4.697   8.731 -0.4241 -1.1513 -1.6593
  793MOL0     H 7039   7.066   3.907   7.627 -0.0616  0.4850 -0.9679
  793MOL0     H 7040   6.918   3.703   7.658  0.2629  0.2482  0.7759
  793MOL0     H 7041   6.318   3.645   7.503  0.3717 -0.0305  0.7176
  793MOL0     H 7042   6.164   3.473   7.518  0.1636  1.1169 -1.6849
  793MOL0     H 7043   6.046   3.272   7.528  3.6965  3.1539 -0.0724
  793MOL0     H 7044   6.066   3.216   7.697  1.1742  0.3934 -0.1965
  793MOL0     H 7045   6.097   2.990   7.572  0.3781  0.0736 -0.6373
  793MOL0     H 7046   6.026   3.076   7.425 -0.1396 -3.1430  0.3231
  793MOL0     H 7047   5.882   3.009   7.668 -1.3159  1.0055 -0.2688
  793MOL0     H 7048   5.849   2.988   7.502  4.1160  0.1019 -1.6437
  793MOL0     H 7049   5.696   3.132   7.582  1.3697 -1.5770  1.9798
  793MOL0     H 7050   5.811   3.253   7.649 -1.0527 -0.4327  1.0989
  793MOL0     H 7051   5.785   3.429   7.285  0.3023 -1.0610 -1.6545
  793MOL0     H 7052   6.497   3.196   7.537 -2.8821 -0.1494  1.3285
  793MOL0     H 7053   6.728   3.422   7.363  0.3589  0.8145 -0.0304
  793MOL0     H 7054   6.741   3.345   7.538  0.4920 -2.3198 -0.5817
  793MOL0     H 7055   6.695   3.259   7.384  1.9410  1.9636 -3.3262
  794MOL0     O 7056   1.572   6.188   8.024  0.0608  0.1881 -1.2149
  794MOL0     C 7057   1.664   6.244   8.079 -0.7255 -0.3935  0.0139
  794MOL0     O 7058   1.793   6.235   8.044 -0.1410 -0.0200  0.5731
  794MOL0     C 7059   1.825   6.151   7.940 -0.8258  0.3826  0.5560
  794MOL0     C 7060   1.912   6.043   7.966  0.0222  0.4712  0.2216
  794MOL0     C 7061   1.934   5.933   7.874  0.1410 -0.0953 -0.0789
  794MOL0     C 7062   1.883   5.948   7.745  0.9374 -0.6351 -0.4847
  794MOL0     O 7063   1.927   5.846   7.667  0.1525  0.3809  0.9125
  794MOL0     C 7064   1.823   5.798   7.581  1.0671  0.2721  0.5151
  794MOL0     C 7065   1.854   5.654   7.530 -0.1505 -0.4825 -0.6305
  794MOL0     C 7066   1.828   5.539   7.631 -0.6206 -1.3387  0.1334
  794MOL0     C 7067   1.862   5.412   7.557 -0.0128  0.3598  0.0838
  794MOL0     C 7068   1.826   5.278   7.634 -0.1367  0.2384 -0.4335
  794MOL0     C 7069   1.697   5.241   7.568 -0.5796 -0.0831 -0.9585
  794MOL0     C 7070   1.644   5.112   7.640  0.6452 -0.2250 -0.2221
  794MOL0     C 7071   1.492   5.142   7.689 -0.4311 -0.8866  0.9598
  794MOL0     N 7072   1.412   5.028   7.732 -0.5885  0.2669  0.1195
  794MOL0     C 7073   1.384   5.007   7.861 -0.1470  0.1024  0.0235
  794MOL0     C 7074   1.272   4.938   7.863 -0.4462 -0.4166 -0.0698
  794MOL0     C 7075   1.190   4.873   7.983 -0.8834 -0.1123 -0.1489
  794MOL0     C 7076   1.233   4.732   8.016  0.5553  0.2218  0.5090
  794MOL0     C 7077   1.159   4.684   8.142 -0.9432 -0.4318 -0.1174
  794MOL0     C 7078   1.067   4.560   8.141  0.1665 -0.1495 -0.2001
  794MOL0     O 7079   1.141   4.453   8.083 -0.9982  0.1380 -0.2192
  794MOL0     C 7080   1.261   4.404   8.133  0.8893 -0.9568  0.0231
  794MOL0     C 7081   1.306   4.427   8.262 -0.7201  0.7904  0.4594
  794MOL0     C 7082   1.423   4.367   8.313  0.1838  0.3914 -0.2057
  794MOL0     C 7083   1.485   4.270   8.235 -0.0799 -0.4922  0.7195
  794MOL0     C 7084   1.614   4.210   8.275 -1.0185  0.7892  0.0022
  794MOL0     O 7085   1.661   4.097   8.220 -0.6895  0.2431  0.0367
  794MOL0     C 7086   1.566   3.991   8.211 -0.3254  0.9039  0.6464
  794MOL0     C 7087   1.566   3.907   8.099  0.3650  0.3220  0.4466
  794MOL0     C 7088   1.494   3.790   8.096  0.1217 -0.1287  0.6601
  794MOL0     C 7089   1.399   3.749   8.197 -0.6136  0.1274 -0.7495
  794MOL0     O 7090   1.319   3.639   8.183 -0.2677 -0.2651 -0.1641
  794MOL0     C 7091   1.199   3.624   8.270 -0.0013  0.9888  0.2410
  794MOL0     C 7092   1.123   3.486   8.227  0.3129  0.3245  0.7948
  794MOL0     C 7093   1.187   3.359   8.279 -0.0279  0.8055  0.3898
  794MOL0     C 7094   1.103   3.244   8.250 -0.4757  0.5142 -0.6013
  794MOL0     C 7095   1.165   3.124   8.332 -0.2302  0.1057 -0.6379
  794MOL0     C 7096   1.110   2.980   8.291 -0.6531  0.1299 -1.1185
  794MOL0     C 7097   0.961   2.966   8.299  0.3813  0.9510 -0.3163
  794MOL0     C 7098   0.917   2.836   8.226  0.2743 -0.1917  0.2063
  794MOL0    Cl 7099   1.024   2.697   8.279  0.1906  0.0298  0.6501
  794MOL0     C 7100   1.385   3.850   8.298 -1.0441  0.9089 -0.2784
  794MOL0     C 7101   1.469   3.955   8.304 -0.2841 -0.4653 -0.6925
  794MOL0     O 7102   1.664   4.261   8.378  1.2507  0.4661  0.5440
  794MOL0     C 7103   1.437   4.256   8.104 -1.5585  0.3994  0.0700
  794MOL0     C 7104   1.325   4.311   8.056 -0.4348  0.2016  0.1218
  794MOL0     N 7105   1.241   4.899   7.735  0.0151  0.8618 -0.7448
  794MOL0     N 7106   1.319   4.963   7.660 -0.3264 -0.2700  0.1406
  794MOL0     C 7107   1.797   6.058   7.725 -0.5252  0.6874 -0.1360
  794MOL0     C 7108   1.772   6.161   7.817 -0.1827  0.0684  0.2277
  794MOL0     C 7109   1.617   6.337   8.181  0.2126 -0.4871 -0.6228
  794MOL0     C 7110   1.652   6.467   8.168  0.5613 -0.5590  0.2685
  794MOL0     C 7111   1.598   6.576   8.244 -0.6451  0.8118 -1.3619
  794MOL0     C 7112   1.517   6.536   8.351  0.3176  0.4413 -0.1985
  794MOL0     O 7113   1.445   6.626   8.433  0.4760 -0.3229 -0.4070
  794MOL0     C 7114   1.472   6.766   8.415 -0.7030  0.0332  0.1462
  794MOL0     C 7115   1.385   6.853   8.507 -0.7458  1.0686 -0.5283
  794MOL0     C 7116   1.387   6.994   8.470 -0.2085 -0.5452 -0.8796
  794MOL0     C 7117   1.326   7.107   8.567 -0.1744  0.2481  0.3474
  794MOL0     C 7118   1.372   7.236   8.530 -0.4587 -0.4291  1.0725
  794MOL0     C 7119   1.409   7.339   8.469  0.3728  1.1119 -0.1867
  794MOL0     C 7120   1.481   6.405   8.370 -0.2252 -0.0971 -0.0627
  794MOL0     C 7121   1.529   6.304   8.294 -1.3015  0.2054  0.6466
  794MOL0     C 7122   1.485   6.163   8.322  0.1780  0.3241  0.2561
  794MOL0     H 7123   1.971   6.031   8.057  0.5582 -1.6166 -0.3521
  794MOL0     H 7124   1.999   5.852   7.903 -0.3324 -0.3292  0.3293
  794MOL0     H 7125   1.728   5.796   7.636  0.9083  2.5684  0.4294
  794MOL0     H 7126   1.803   5.860   7.493 -0.7015  0.3110  0.8887
  794MOL0     H 7127   1.945   5.636   7.472  0.2291  0.5759 -0.3665
  794MOL0     H 7128   1.768   5.643   7.463 -0.7321 -2.6508  0.3622
  794MOL0     H 7129   1.721   5.539   7.655 -0.3405  0.1553  1.5899
  794MOL0     H 7130   1.897   5.550   7.715  0.1556 -1.3486 -0.4950
  794MOL0     H 7131   1.834   5.420   7.452  2.9555 -0.9431 -0.9382
  794MOL0     H 7132   1.970   5.391   7.548 -0.3626 -1.4523 -0.3573
  794MOL0     H 7133   1.895   5.194   7.617 -1.8173 -1.7823  1.9391
  794MOL0     H 7134   1.835   5.294   7.742  4.3299 -2.8817 -0.0412
  794MOL0     H 7135   1.624   5.321   7.584 -1.7392 -1.6170  2.5543
  794MOL0     H 7136   1.702   5.218   7.461 -0.2428  2.1181 -1.4561
  794MOL0     H 7137   1.697   5.080   7.730 -1.8250 -1.2097  0.9758
  794MOL0     H 7138   1.639   5.041   7.557  0.0139 -1.4364  0.8114
  794MOL0     H 7139   1.483   5.229   7.755  0.1077 -1.0134  1.2077
  794MOL0     H 7140   1.448   5.177   7.596  0.2316  1.3583  1.4282
  794MOL0     H 7141   1.435   5.048   7.948 -2.3812  0.7372  1.1155
  794MOL0     H 7142   1.200   4.943   8.066  0.4543 -1.6208  1.0299
  794MOL0     H 7143   1.084   4.871   7.956 -1.0284  3.6635 -0.4455
  794MOL0     H 7144   1.197   4.662   7.939 -0.2802 -0.3789  1.4176
  794MOL0     H 7145   1.342   4.724   8.026  0.5188  0.2252  0.9173
  794MOL0     H 7146   1.114   4.772   8.188  0.3325  0.9582 -1.4356
  794MOL0     H 7147   1.245   4.671   8.208 -1.4907  2.7059  1.3819
  794MOL0     H 7148   0.975   4.569   8.082 -0.7684 -2.2708  0.8328
  794MOL0     H 7149   1.043   4.535   8.245 -4.1932 -2.7808 -1.5384
  794MOL0     H 7150   1.261   4.488   8.341 -1.7618 -0.9755  1.3022
  794MOL0     H 7151   1.472   4.407   8.401 -3.1081  0.7255  1.6202
  794MOL0     H 7152   1.638   3.925   8.019  1.2242 -1.8513  0.6572
  794MOL0     H 7153   1.498   3.723   8.010  0.8145  1.4908 -0.6338
  794MOL0     H 7154   1.218   3.612   8.377 -1.8107  0.9874  0.5924
  794MOL0     H 7155   1.132   3.710   8.269 -2.8092 -1.0442 -0.1514
  794MOL0     H 7156   1.019   3.479   8.260 -1.0628 -3.1339 -3.2777
  794MOL0     H 7157   1.120   3.483   8.118  2.0684 -4.6366  0.5973
  794MOL0     H 7158   1.290   3.337   8.248 -0.7650 -1.7506 -0.4783
  794MOL0     H 7159   1.187   3.371   8.388  1.0657  2.3947  0.2478
  794MOL0     H 7160   1.104   3.219   8.144 -1.4654 -2.8996  0.0952
  794MOL0     H 7161   1.002   3.258   8.290  0.2731  2.5231  0.7911
  794MOL0     H 7162   1.140   3.141   8.437 -0.3343 -3.2738 -0.0034
  794MOL0     H 7163   1.273   3.112   8.319 -0.2612 -1.7470  0.4740
  794MOL0     H 7164   1.148   2.956   8.191  1.0218 -0.8710 -0.2794
  794MOL0     H 7165   1.159   2.908   8.356  2.6012  3.5309  0.5131
  794MOL0     H 7166   0.915   3.057   8.259 -0.6447 -0.3359 -2.2605
  794MOL0     H 7167   0.926   2.955   8.402  1.7476  2.6432  0.3911
  794MOL0     H 7168   0.816   2.817   8.263  0.1242 -0.5620 -0.3811
  794MOL0     H 7169   0.904   2.860   8.120 -4.0666 -1.1370  0.3240
  794MOL0     H 7170   1.329   3.841   8.391 -1.5885  0.8165 -0.6083
  794MOL0     H 7171   1.477   4.019   8.392 -2.2905 -0.1316 -0.7206
  794MOL0     H 7172   1.500   4.200   8.035 -0.7366 -1.7636  2.4378
  794MOL0     H 7173   1.272   4.272   7.970 -3.6153  0.3196  1.8734
  794MOL0     H 7174   1.758   6.067   7.624  4.6546  1.2353 -2.4432
  794MOL0     H 7175   1.701   6.233   7.778 -0.5589 -1.2930 -1.7903
  794MOL0     H 7176   1.712   6.485   8.080 -0.3915  0.6607 -0.1639
  794MOL0     H 7177   1.616   6.677   8.210  2.5324  0.9684  0.3504
  794MOL0     H 7178   1.441   6.794   8.315  2.6794 -1.7396 -1.5778
  794MOL0     H 7179   1.577   6.797   8.408 -0.7241 -0.2643 -1.8459
  794MOL0     H 7180   1.419   6.840   8.610  1.7994  0.0424 -1.4160
  794MOL0     H 7181   1.283   6.814   8.505 -0.2357 -0.3097 -0.7003
  794MOL0     H 7182   1.323   7.003   8.382  0.0031  1.2336 -0.8927
  794MOL0     H 7183   1.489   7.028   8.447 -0.6611  0.2106 -1.8474
  794MOL0     H 7184   1.217   7.103   8.580  0.2079 -1.5794  6.9655
  794MOL0     H 7185   1.367   7.086   8.666  2.0173 -0.1874 -0.5948
  794MOL0     H 7186   1.437   7.428   8.416  0.8366  0.4653 -1.0522
  794MOL0     H 7187   1.408   6.391   8.449  0.7696  0.3827  0.9695
  794MOL0     H 7188   1.530   6.095   8.249  0.2560 -0.5850  1.1213
  794MOL0     H 7189   1.511   6.124   8.421  1.4675  0.7633  0.1136
  794MOL0     H 7190   1.380   6.159   8.291  0.4135 -2.2184 -0.4185
  795MOL0     O 7191   9.579   6.473   3.175  0.3455  0.1776  0.3231
  795MOL0     C 7192   9.656   6.560   3.206  0.8170  0.5231  0.1951
  795MOL0     O 7193   9.791   6.575   3.170  0.1076  0.3772 -0.6750
  795MOL0     C 7194   9.846   6.512   3.064  1.0874 -0.4039 -0.0560
  795MOL0     C 7195   9.805   6.533   2.934  0.4581  0.5102  0.0062
  795MOL0     C 7196   9.848   6.441   2.833  0.8594  0.3406 -0.3626
  795MOL0     C 7197   9.932   6.329   2.859  0.1282  0.5634 -0.2499
  795MOL0     O 7198   9.968   6.242   2.757 -0.2812 -0.4634  0.5046
  795MOL0     C 7199   9.883   6.240   2.643 -0.5364  0.1822  1.3204
  795MOL0     C 7200   9.970   6.155   2.547  0.7667  0.3396  0.0342
  795MOL0     C 7201   9.883   6.046   2.468 -0.4197 -0.2812 -0.0845
  795MOL0     C 7202   9.756   6.104   2.390 -0.7400  1.5820  0.2183
  795MOL0     C 7203   9.674   6.002   2.321 -0.2607  0.4794 -1.1391
  795MOL0     C 7204   9.587   5.925   2.417  0.8247  0.4208 -1.1717
  795MOL0     C 7205   9.497   6.014   2.511 -0.1511  0.0595  0.5271
  795MOL0     C 7206   9.422   6.131   2.442 -0.5938 -0.1398 -0.5385
  795MOL0     N 7207   9.331   6.100   2.334  0.3804 -0.6334 -0.2279
  795MOL0     C 7208   9.211   6.041   2.358  0.6424 -1.0127 -0.7820
  795MOL0     C 7209   9.163   6.034   2.231  0.2347  0.3223  0.0335
  795MOL0     C 7210   9.028   5.987   2.203 -0.1385  1.1035 -0.0667
  795MOL0     C 7211   8.991   5.841   2.208  0.3337  1.3359  0.0026
  795MOL0     C 7212   9.056   5.758   2.092  0.1623 -0.1232  0.3194
  795MOL0     C 7213   9.009   5.611   2.086  0.0692 -0.8401  0.2476
  795MOL0     O 7214   9.056   5.538   2.195 -0.5070  0.4271 -0.3934
  795MOL0     C 7215   9.020   5.404   2.220  0.3229  0.5307  0.7249
  795MOL0     C 7216   8.925   5.341   2.140  0.7307 -0.8051 -0.1262
  795MOL0     C 7217   8.900   5.205   2.156 -0.1462  0.0846 -0.1392
  795MOL0     C 7218   8.986   5.123   2.233 -0.0017  0.5344  1.2818
  795MOL0     C 7219   8.981   4.982   2.224  0.3851  0.4962 -0.2763
  795MOL0     O 7220   9.053   4.911   2.318 -0.2062  0.3020 -0.3873
  795MOL0     C 7221   9.082   4.776   2.287 -0.3331 -0.0193 -0.7562
  795MOL0     C 7222   9.210   4.735   2.242 -0.0032  0.2442 -0.0705
  795MOL0     C 7223   9.237   4.595   2.228  0.7139 -0.0931  0.4289
  795MOL0     C 7224   9.144   4.498   2.249  0.0357 -0.1855 -0.2537
  795MOL0     O 7225   9.173   4.369   2.255 -0.6703  0.6214  0.4282
  795MOL0     C 7226   9.306   4.324   2.251 -0.1614 -0.2145 -0.5596
  795MOL0     C 7227   9.294   4.177   2.265  0.3178  0.8580 -0.1110
  795MOL0     C 7228   9.428   4.108   2.304 -0.6955 -0.2139  0.5716
  795MOL0     C 7229   9.416   4.082   2.451  0.3141  0.5785 -0.4136
  795MOL0     C 7230   9.557   4.040   2.518 -0.6272  0.0346  0.1863
  795MOL0     C 7231   9.524   3.974   2.652 -0.3443  0.4154 -0.3686
  795MOL0     C 7232   9.480   4.068   2.769  0.3405 -1.2280  0.7716
  795MOL0     C 7233   9.446   3.995   2.893 -0.0803 -1.1190  1.0409
  795MOL0    Cl 7234   9.280   3.928   2.868 -0.2642 -0.4330  0.4729
  795MOL0     C 7235   9.018   4.541   2.277 -0.1700 -0.5834 -0.4165
  795MOL0     C 7236   8.986   4.679   2.302  0.1264  0.2206  0.4028
  795MOL0     O 7237   8.923   4.937   2.121 -0.2012 -0.0742  0.4105
  795MOL0     C 7238   9.083   5.196   2.311 -0.5760  0.3408 -0.0109
  795MOL0     C 7239   9.102   5.339   2.307  0.2935  0.7024 -0.1887
  795MOL0     N 7240   9.241   6.094   2.136 -0.5455 -0.4032  0.6188
  795MOL0     N 7241   9.350   6.127   2.200 -0.2703 -0.8965  0.4279
  795MOL0     C 7242   9.970   6.317   2.995 -0.5165 -1.3084 -0.1097
  795MOL0     C 7243   9.921   6.404   3.096  0.1536  0.7364  0.8353
  795MOL0     C 7244   9.593   6.681   3.279 -0.6443 -0.7886  0.2112
  795MOL0     C 7245   9.667   6.807   3.287  0.4594 -0.1752  0.3277
  795MOL0     C 7246   9.609   6.921   3.343 -0.8476  0.2596  0.1350
  795MOL0     C 7247   9.489   6.917   3.402  0.2876  0.6836  0.1872
  795MOL0     O 7248   9.446   7.031   3.469  1.1691 -0.1333 -0.3010
  795MOL0     C 7249   9.322   7.052   3.529  0.2737 -0.3444 -0.1038
  795MOL0     C 7250   9.295   6.961   3.651  0.0094 -0.2464  0.0950
  795MOL0     C 7251   9.426   6.902   3.729  0.9936  0.0285  0.3250
  795MOL0     C 7252   9.531   6.997   3.776 -0.2631 -0.7908 -0.1052
  795MOL0     C 7253   9.670   6.944   3.790 -0.2765 -0.6874  0.1902
  795MOL0     C 7254   9.790   6.917   3.772  0.1384  0.5006 -0.1351
  795MOL0     C 7255   9.411   6.800   3.382 -0.5983  0.3065  0.2751
  795MOL0     C 7256   9.460   6.685   3.324  0.2752  0.6674 -0.2246
  795MOL0     C 7257   9.354   6.577   3.315 -0.1438 -0.4516  0.2666
  795MOL0     H 7258   9.728   6.606   2.915  0.1566 -0.2466 -1.8803
  795MOL0     H 7259   9.819   6.470   2.732  0.1637 -1.3338 -0.6830
  795MOL0     H 7260   9.805   6.177   2.688  0.3734 -1.4984  0.6218
  795MOL0     H 7261   9.853   6.335   2.598  0.6975  0.1359  0.3761
  795MOL0     H 7262  10.046   6.107   2.609 -0.5273  1.6326  2.7909
  795MOL0     H 7263  10.020   6.225   2.479  1.2777  2.4911  2.4844
  795MOL0     H 7264   9.845   5.979   2.545 -3.9661  1.3590 -0.1779
  795MOL0     H 7265   9.950   5.993   2.400  0.5947  2.6511 -1.5650
  795MOL0     H 7266   9.707   6.173   2.459 -0.4987  3.6326 -1.5278
  795MOL0     H 7267   9.776   6.175   2.309 -2.5060 -2.0291 -3.7923
  795MOL0     H 7268   9.613   6.050   2.244  2.5312  1.3176 -2.9847
  795MOL0     H 7269   9.742   5.934   2.270 -0.4397 -2.0661  1.7365
  795MOL0     H 7270   9.525   5.861   2.354 -0.7893  2.0612 -1.3378
  795MOL0     H 7271   9.648   5.870   2.490 -2.4658 -2.0207 -0.0178
  795MOL0     H 7272   9.562   6.053   2.589  0.8703  2.6496 -1.4430
  795MOL0     H 7273   9.417   5.948   2.547 -0.1380  0.9403  2.2611
  795MOL0     H 7274   9.371   6.178   2.526  2.1154 -0.8737  1.6707
  795MOL0     H 7275   9.497   6.205   2.412  1.8396 -0.6250  3.5659
  795MOL0     H 7276   9.166   6.028   2.455 -0.8950  0.0983 -1.3104
  795MOL0     H 7277   8.972   6.039   2.282 -1.3523  1.4548 -1.1232
  795MOL0     H 7278   9.003   6.023   2.103  0.6612 -0.7484 -0.9720
  795MOL0     H 7279   9.018   5.795   2.304 -0.4637 -1.5223 -1.0134
  795MOL0     H 7280   8.882   5.836   2.202  0.2634  1.9206  0.6925
  795MOL0     H 7281   9.163   5.761   2.114  0.1548  1.1097  0.2338
  795MOL0     H 7282   9.035   5.807   1.996 -0.4725  2.3470  1.6367
  795MOL0     H 7283   9.038   5.560   1.993 -1.5733 -0.3568 -0.5754
  795MOL0     H 7284   8.901   5.620   2.103  0.5784  0.9634  3.2999
  795MOL0     H 7285   8.876   5.401   2.064  3.8760  2.2880  0.0284
  795MOL0     H 7286   8.827   5.159   2.090  0.9337  0.8142 -1.9412
  795MOL0     H 7287   9.290   4.806   2.225 -0.5040  1.6897  2.9525
  795MOL0     H 7288   9.328   4.559   2.182  0.1810 -2.3849  1.0196
  795MOL0     H 7289   9.358   4.349   2.158 -2.4229 -0.6491 -2.0361
  795MOL0     H 7290   9.353   4.378   2.333  1.5980 -0.1044 -1.5965
  795MOL0     H 7291   9.216   4.166   2.341  4.2777  0.3703  4.3429
  795MOL0     H 7292   9.265   4.136   2.168  2.5607 -0.4140 -0.3224
  795MOL0     H 7293   9.449   4.015   2.250 -2.5489 -1.4439  1.8288
  795MOL0     H 7294   9.503   4.183   2.279 -0.2303 -0.9416 -0.3094
  795MOL0     H 7295   9.328   4.023   2.476  1.4498 -0.7954  0.5040
  795MOL0     H 7296   9.392   4.177   2.498 -3.2478  1.1507 -3.0303
  795MOL0     H 7297   9.614   4.133   2.519 -2.0684  0.9516  0.2297
  795MOL0     H 7298   9.608   3.967   2.454  0.9337 -0.9215  2.3896
  795MOL0     H 7299   9.445   3.901   2.634  0.1436 -0.3729  0.5616
  795MOL0     H 7300   9.610   3.918   2.692  0.6597  0.5842 -2.2132
  795MOL0     H 7301   9.398   4.137   2.744  0.9531 -0.5839  0.5092
  795MOL0     H 7302   9.568   4.127   2.795  0.0053 -1.1022  1.6328
  795MOL0     H 7303   9.511   3.911   2.919  0.0056 -1.2745  0.3504
  795MOL0     H 7304   9.449   4.069   2.974 -3.7851  0.2938  0.1383
  795MOL0     H 7305   8.934   4.472   2.286 -1.3366  0.6236 -1.5744
  795MOL0     H 7306   8.888   4.713   2.335  1.5769  3.3250  1.8395
  795MOL0     H 7307   9.140   5.134   2.380 -0.4450 -1.4642 -1.6806
  795MOL0     H 7308   9.172   5.396   2.366 -1.4102  3.3929 -0.5539
  795MOL0     H 7309  10.048   6.246   3.022  0.9568 -0.2655 -1.4575
  795MOL0     H 7310   9.941   6.374   3.199 -0.0646 -3.3620 -0.1392
  795MOL0     H 7311   9.767   6.811   3.245  1.2055 -1.8805  1.7760
  795MOL0     H 7312   9.661   7.016   3.338 -1.7663  0.7775  0.3866
  795MOL0     H 7313   9.250   7.039   3.448  1.7563  0.7538 -1.6767
  795MOL0     H 7314   9.302   7.153   3.565  0.5423 -1.0481  2.2197
  795MOL0     H 7315   9.236   6.875   3.618 -0.3482  0.4345 -1.0950
  795MOL0     H 7316   9.236   7.026   3.716  1.5840  3.4486 -1.8204
  795MOL0     H 7317   9.473   6.829   3.662 -1.2736 -1.7185  0.5117
  795MOL0     H 7318   9.385   6.846   3.814 -0.5539 -1.5944 -1.3964
  795MOL0     H 7319   9.548   7.062   3.689  2.0964 -0.5716  0.4408
  795MOL0     H 7320   9.509   7.058   3.864  1.1897  1.2941 -1.0724
  795MOL0     H 7321   9.891   6.884   3.790  0.3129  0.6031 -0.8969
  795MOL0     H 7322   9.305   6.800   3.406 -0.8803  0.4131 -0.9103
  795MOL0     H 7323   9.270   6.599   3.381 -0.2210 -1.3354  0.4770
  795MOL0     H 7324   9.306   6.567   3.217 -1.9042  0.0890  1.0479
  795MOL0     H 7325   9.409   6.486   3.337  0.3972 -1.8480 -5.2873
  796MOL0     O 7326   9.470   4.375   9.045  0.5255  0.7065 -0.7729
  796MOL0     C 7327   9.585   4.398   9.024 -0.1186 -0.5230 -0.9359
  796MOL0     O 7328   9.634   4.505   8.950  0.0290 -0.9807 -0.0379
  796MOL0     C 7329   9.542   4.594   8.904  0.4297  0.6783 -0.4009
  796MOL0     C 7330   9.518   4.722   8.963  0.0891  0.4151  0.0519
  796MOL0     C 7331   9.444   4.812   8.894 -0.2550 -0.7551  0.6412
  796MOL0     C 7332   9.380   4.790   8.775 -0.7260  0.6473 -0.2461
  796MOL0     O 7333   9.297   4.884   8.726  0.2830  0.1928 -0.4065
  796MOL0     C 7334   9.187   4.859   8.636 -0.7698  0.1348 -1.1553
  796MOL0     C 7335   9.068   4.783   8.677  0.9427 -0.2127 -0.0185
  796MOL0     C 7336   8.982   4.849   8.788 -0.2648  0.3332 -0.3428
  796MOL0     C 7337   8.856   4.911   8.715 -0.7604  1.0517  0.0126
  796MOL0     C 7338   8.755   4.968   8.808  0.1857 -0.7292 -1.0397
  796MOL0     C 7339   8.630   5.025   8.740  0.1585  0.2525 -0.0844
  796MOL0     C 7340   8.525   5.046   8.851  0.1704  0.5247 -0.0769
  796MOL0     C 7341   8.570   5.137   8.970  0.2035  0.0072 -0.4466
  796MOL0     N 7342   8.572   5.277   8.945  0.2081  0.1766  0.4914
  796MOL0     C 7343   8.465   5.362   8.969 -0.5070 -0.7091 -0.1626
  796MOL0     C 7344   8.522   5.479   8.945  0.5292 -0.5630 -0.2222
  796MOL0     C 7345   8.457   5.620   8.971  0.3649 -0.8271  0.4086
  796MOL0     C 7346   8.514   5.680   9.101  0.3377  0.1100  1.3161
  796MOL0     C 7347   8.476   5.837   9.111  0.7102 -0.0144  0.1721
  796MOL0     C 7348   8.528   5.910   9.225 -0.9749  0.7733 -0.8578
  796MOL0     O 7349   8.481   6.051   9.227  0.4029  0.1409 -0.2231
  796MOL0     C 7350   8.560   6.147   9.167  0.0888  0.4605 -0.7818
  796MOL0     C 7351   8.543   6.276   9.197  0.4442 -0.3671  0.2330
  796MOL0     C 7352   8.609   6.379   9.140 -0.5503 -0.2487 -0.4426
  796MOL0     C 7353   8.710   6.345   9.046  0.2079  0.3186  0.6863
  796MOL0     C 7354   8.789   6.452   8.994 -0.8821  0.6427 -0.1989
  796MOL0     O 7355   8.899   6.408   8.925 -0.3744 -0.2082  0.5930
  796MOL0     C 7356   8.982   6.488   8.849  0.0424  0.8350 -0.6170
  796MOL0     C 7357   8.967   6.622   8.807 -0.0184 -0.6287 -0.1474
  796MOL0     C 7358   9.073   6.686   8.743  0.0189 -1.0757  0.7818
  796MOL0     C 7359   9.182   6.615   8.676  0.3567  0.5873 -0.3272
  796MOL0     O 7360   9.281   6.683   8.614 -0.6536  0.3785 -0.5505
  796MOL0     C 7361   9.392   6.609   8.547 -0.0095  0.7194 -0.8256
  796MOL0     C 7362   9.439   6.701   8.428 -0.3440  0.2971 -0.0472
  796MOL0     C 7363   9.482   6.845   8.439  0.1926 -0.7244 -0.6169
  796MOL0     C 7364   9.608   6.865   8.524 -0.7774  0.0813 -0.7194
  796MOL0     C 7365   9.727   6.773   8.498  0.9504  0.0010  0.5501
  796MOL0     C 7366   9.839   6.807   8.595 -0.3990  0.2701  0.0249
  796MOL0     C 7367   9.797   6.770   8.744  0.8402 -0.0424 -0.2126
  796MOL0     C 7368   9.922   6.749   8.839  0.6308 -0.0610  0.1360
  796MOL0    Cl 7369  10.005   6.901   8.846 -0.1884  0.0395 -0.0352
  796MOL0     C 7370   9.188   6.474   8.695 -0.7722 -0.0137 -0.1404
  796MOL0     C 7371   9.087   6.412   8.778  0.4332 -0.1994  0.1114
  796MOL0     O 7372   8.767   6.572   9.015  0.0973 -0.0199 -0.2652
  796MOL0     C 7373   8.724   6.209   9.011  0.8016 -0.0846 -0.1777
  796MOL0     C 7374   8.643   6.112   9.073 -0.3165  1.1017  0.2482
  796MOL0     N 7375   8.643   5.459   8.893 -0.9442  0.8410  0.0952
  796MOL0     N 7376   8.675   5.338   8.885 -1.0138  0.2516  0.4318
  796MOL0     C 7377   9.397   4.663   8.722 -0.9480 -0.1838  0.1091
  796MOL0     C 7378   9.487   4.563   8.776  0.3125 -0.0045  0.0592
  796MOL0     C 7379   9.682   4.294   9.073  0.7177 -0.0425  0.1718
  796MOL0     C 7380   9.638   4.216   9.176 -0.1090 -0.7629  0.5018
  796MOL0     C 7381   9.721   4.117   9.226  0.6960  1.2140  0.0957
  796MOL0     C 7382   9.848   4.088   9.171 -0.5450 -0.6801  0.3430
  796MOL0     O 7383   9.917   3.985   9.232 -0.3976 -0.3444  0.8177
  796MOL0     C 7384  10.059   3.984   9.226  0.1318 -0.0146  0.1768
  796MOL0     C 7385  10.117   3.866   9.149 -0.3959  0.7302 -0.7559
  796MOL0     C 7386  10.275   3.854   9.165 -0.5202 -0.0803 -0.4667
  796MOL0     C 7387  10.325   3.722   9.102  0.1013 -0.3171 -0.1994
  796MOL0     C 7388  10.238   3.603   9.115  0.2089  0.9582  0.1510
  796MOL0     C 7389  10.170   3.509   9.161 -0.1178  0.3185 -0.2532
  796MOL0     C 7390   9.891   4.166   9.063 -0.1800 -0.3321 -0.1470
  796MOL0     C 7391   9.805   4.257   9.007 -0.2474  0.1516 -0.0758
  796MOL0     C 7392   9.849   4.314   8.879  0.0430  0.1774  0.0766
  796MOL0     H 7393   9.570   4.755   9.052 -2.4522  2.2109  1.0156
  796MOL0     H 7394   9.423   4.904   8.947 -0.8273  1.8518 -3.6671
  796MOL0     H 7395   9.160   4.958   8.597  2.8635  1.5328 -0.5373
  796MOL0     H 7396   9.230   4.819   8.544 -1.1613 -1.4516 -0.6675
  796MOL0     H 7397   9.087   4.686   8.726 -0.1555 -0.4149  0.0333
  796MOL0     H 7398   9.010   4.757   8.588  1.9510 -0.6903 -0.5531
  796MOL0     H 7399   9.047   4.925   8.832  1.4551 -0.4756 -1.3583
  796MOL0     H 7400   8.963   4.771   8.863  0.3939  0.1581 -0.3491
  796MOL0     H 7401   8.890   4.978   8.636 -0.3391  0.8139 -0.0081
  796MOL0     H 7402   8.788   4.836   8.673 -1.0481  0.0823  2.0540
  796MOL0     H 7403   8.714   4.900   8.883 -2.1054  1.0959 -0.5290
  796MOL0     H 7404   8.804   5.054   8.853 -0.5436  0.5761 -2.6570
  796MOL0     H 7405   8.649   5.126   8.703 -3.6114  0.8704 -0.7117
  796MOL0     H 7406   8.597   4.958   8.659  3.0294  0.8563 -1.9442
  796MOL0     H 7407   8.478   4.951   8.880 -2.0616  1.8902  0.9849
  796MOL0     H 7408   8.441   5.107   8.816 -2.3350 -2.4290  0.3007
  796MOL0     H 7409   8.514   5.113   9.061 -0.0508  1.4250 -0.1946
  796MOL0     H 7410   8.671   5.123   9.010  0.8115  3.2647 -0.5174
  796MOL0     H 7411   8.367   5.335   9.007 -1.3460  0.6127 -1.2698
  796MOL0     H 7412   8.473   5.681   8.882 -0.7968 -1.8376 -0.5306
  796MOL0     H 7413   8.349   5.610   8.988  0.7843 -1.1346  3.4709
  796MOL0     H 7414   8.474   5.630   9.189 -1.9885  0.2449  0.4226
  796MOL0     H 7415   8.622   5.663   9.095 -0.0421 -2.5560 -3.8057
  796MOL0     H 7416   8.368   5.843   9.103  0.7020  1.4400  1.0765
  796MOL0     H 7417   8.502   5.880   9.014 -1.3633 -3.6689 -2.2331
  796MOL0     H 7418   8.636   5.904   9.236 -1.2418 -0.8549  1.8754
  796MOL0     H 7419   8.491   5.860   9.315  1.5197  2.2208  1.1134
  796MOL0     H 7420   8.472   6.302   9.275  0.6346  0.0087  0.2796
  796MOL0     H 7421   8.587   6.481   9.170 -1.1321 -1.2237  2.9135
  796MOL0     H 7422   8.882   6.682   8.839 -0.7706 -1.4532 -0.5534
  796MOL0     H 7423   9.058   6.793   8.737 -2.3834 -1.2547  2.2303
  796MOL0     H 7424   9.479   6.590   8.610  0.8757 -1.3004 -2.5361
  796MOL0     H 7425   9.365   6.510   8.512 -2.0011  0.8732  0.1511
  796MOL0     H 7426   9.520   6.654   8.371  0.0236 -0.0594  0.7546
  796MOL0     H 7427   9.354   6.707   8.360 -1.5439  4.1950  1.5182
  796MOL0     H 7428   9.489   6.897   8.344 -1.3662  1.0584  0.1919
  796MOL0     H 7429   9.396   6.893   8.486  0.3668  0.7304 -1.7279
  796MOL0     H 7430   9.579   6.861   8.630 -0.5396 -1.5269 -0.6992
  796MOL0     H 7431   9.628   6.970   8.498  1.9910 -1.2096 -4.7044
  796MOL0     H 7432   9.751   6.785   8.392 -1.2039 -2.7826 -0.3923
  796MOL0     H 7433   9.698   6.668   8.508  0.1737  0.2382  0.8740
  796MOL0     H 7434   9.924   6.739   8.581  1.1137  1.9918  0.5164
  796MOL0     H 7435   9.863   6.913   8.591 -2.9115  0.8743 -2.5358
  796MOL0     H 7436   9.738   6.679   8.753  1.2205 -0.2322  0.4913
  796MOL0     H 7437   9.742   6.858   8.781 -3.5292 -2.6531  0.2297
  796MOL0     H 7438   9.893   6.732   8.943 -0.0928  1.9588  0.3123
  796MOL0     H 7439   9.988   6.671   8.801  1.9156 -1.6749  4.9712
  796MOL0     H 7440   9.268   6.415   8.654 -0.3285  0.8258 -0.4970
  796MOL0     H 7441   9.097   6.305   8.794  0.2011 -0.4369 -1.2017
  796MOL0     H 7442   8.795   6.175   8.936  0.3083 -2.6336  0.4368
  796MOL0     H 7443   8.661   6.014   9.030  1.3450  2.0340 -1.3531
  796MOL0     H 7444   9.355   4.638   8.624 -2.0378 -1.0212  0.7656
  796MOL0     H 7445   9.520   4.475   8.722  1.4233  0.6838 -0.4237
  796MOL0     H 7446   9.550   4.242   9.234 -1.0073 -0.0070 -1.1330
  796MOL0     H 7447   9.670   4.064   9.306  0.9534  0.6414 -0.1193
  796MOL0     H 7448  10.081   4.001   9.331 -2.0251 -1.2030  0.8798
  796MOL0     H 7449  10.106   4.072   9.181  0.7831 -0.2661  0.3555
  796MOL0     H 7450  10.099   3.883   9.042 -1.0301  3.4755 -0.2694
  796MOL0     H 7451  10.064   3.778   9.188 -0.5721  1.0193 -0.3450
  796MOL0     H 7452  10.304   3.866   9.269 -4.4931 -0.7209  0.8811
  796MOL0     H 7453  10.321   3.938   9.112 -0.6974  1.8891  2.3140
  796MOL0     H 7454  10.331   3.740   8.995  0.2712  3.1145  0.2800
  796MOL0     H 7455  10.421   3.693   9.148  0.7970 -0.9014 -1.9207
  796MOL0     H 7456  10.113   3.430   9.204  0.1087  0.7725  0.9141
  796MOL0     H 7457   9.980   4.144   9.005 -0.6988  2.2309 -2.0325
  796MOL0     H 7458   9.906   4.407   8.885  0.1932  0.2751 -1.9715
  796MOL0     H 7459   9.910   4.243   8.821  2.2189  1.6405  0.4438
  796MOL0     H 7460   9.768   4.325   8.806  0.5643 -1.5122 -0.8235
  797MOL0     O 7461   8.481   2.582   0.746 -0.5619 -0.6637 -0.9500
  797MOL0     C 7462   8.465   2.560   0.863 -0.3776  0.2643  0.5155
  797MOL0     O 7463   8.538   2.478   0.935 -0.4233  0.3931 -0.1698
  797MOL0     C 7464   8.649   2.419   0.873 -0.2343  0.9554 -0.3424
  797MOL0     C 7465   8.785   2.468   0.887 -0.8230  0.2165  0.7685
  797MOL0     C 7466   8.894   2.397   0.834 -0.3850  0.1936 -0.0415
  797MOL0     C 7467   8.884   2.277   0.761 -0.4666  0.6991 -0.8004
  797MOL0     O 7468   8.989   2.226   0.690  0.3966  0.2010 -0.6405
  797MOL0     C 7469   8.965   2.148   0.565  0.2584 -0.1812 -0.6422
  797MOL0     C 7470   9.056   2.170   0.448  0.4339 -0.5112  0.8419
  797MOL0     C 7471   9.207   2.164   0.497  0.3337  0.8258 -0.6867
  797MOL0     C 7472   9.264   2.286   0.556  0.0925  0.4000 -0.2809
  797MOL0     C 7473   9.419   2.303   0.535  0.2176 -0.5867  0.2713
  797MOL0     C 7474   9.459   2.355   0.397  0.2353 -0.1927  0.5950
  797MOL0     C 7475   9.446   2.266   0.275 -0.7208 -0.2854 -0.8414
  797MOL0     C 7476   9.520   2.337   0.160 -0.0319 -1.0906 -0.3787
  797MOL0     N 7477   9.454   2.460   0.107  0.0962 -0.1070 -0.2783
  797MOL0     C 7478   9.322   2.478   0.079 -0.6211  0.4170 -0.5449
  797MOL0     C 7479   9.307   2.610   0.062  0.4115  0.6835 -0.1574
  797MOL0     C 7480   9.166   2.650   0.047  0.0015  0.9684  0.8662
  797MOL0     C 7481   9.113   2.700   0.184 -0.3315  0.6609  0.0294
  797MOL0     C 7482   9.164   2.837   0.226 -0.2925  0.4266 -0.7811
  797MOL0     C 7483   9.123   2.947   0.134  0.2076 -0.1097  0.5555
  797MOL0     O 7484   9.084   3.064   0.208 -0.3064  0.4270 -0.0416
  797MOL0     C 7485   9.175   3.141   0.266  0.1282 -0.0775 -1.1458
  797MOL0     C 7486   9.119   3.238   0.345 -0.6890 -0.5750  0.1627
  797MOL0     C 7487   9.185   3.338   0.417 -0.3790 -0.1450 -0.2740
  797MOL0     C 7488   9.327   3.332   0.419 -0.3541 -0.4749  0.3797
  797MOL0     C 7489   9.410   3.434   0.486 -0.2328  0.3721  0.0551
  797MOL0     O 7490   9.357   3.502   0.597 -0.3339  0.0583  0.4938
  797MOL0     C 7491   9.445   3.586   0.667 -0.2589 -0.1044 -0.4726
  797MOL0     C 7492   9.466   3.550   0.800 -0.1957  0.2195 -0.8335
  797MOL0     C 7493   9.572   3.624   0.868  0.0930  0.6667 -0.1216
  797MOL0     C 7494   9.640   3.734   0.810  0.2182 -0.1766 -0.6614
  797MOL0     O 7495   9.753   3.787   0.869 -0.3541  0.7723 -0.1867
  797MOL0     C 7496   9.744   3.930   0.890 -0.0365  0.6687 -0.1373
  797MOL0     C 7497   9.886   3.986   0.868 -0.1137 -0.4523  0.3841
  797MOL0     C 7498   9.885   4.132   0.815 -0.1258 -0.2347 -0.5370
  797MOL0     C 7499   9.915   4.139   0.668 -0.2255  0.5394  0.1594
  797MOL0     C 7500   9.912   4.292   0.626  0.3790  0.5918 -0.1985
  797MOL0     C 7501   9.948   4.315   0.477  1.2604 -1.0868 -0.0074
  797MOL0     C 7502   9.974   4.450   0.435  1.1865 -1.3761  0.5316
  797MOL0     C 7503  10.041   4.457   0.301  0.1316  0.3373  0.3541
  797MOL0    Cl 7504   9.926   4.407   0.159 -0.1249  0.3160  0.0555
  797MOL0     C 7505   9.599   3.769   0.682  0.7791  0.3644 -0.6628
  797MOL0     C 7506   9.499   3.697   0.617  0.5584 -0.1447 -0.2597
  797MOL0     O 7507   9.528   3.433   0.454 -0.2275  0.4380  0.2835
  797MOL0     C 7508   9.398   3.231   0.346 -0.3918 -0.7301 -0.7465
  797MOL0     C 7509   9.323   3.135   0.276  1.0571  0.5401  0.8729
  797MOL0     N 7510   9.427   2.670   0.091  0.1865 -0.0035  0.0886
  797MOL0     N 7511   9.518   2.579   0.111 -1.3287 -0.3135  0.6583
  797MOL0     C 7512   8.753   2.224   0.761 -0.3348  1.1701  0.2849
  797MOL0     C 7513   8.636   2.286   0.808 -0.4739  0.4852  0.0721
  797MOL0     C 7514   8.351   2.623   0.939  0.3991 -0.4694 -0.2786
  797MOL0     C 7515   8.283   2.549   1.037  1.1048  0.1488 -0.4544
  797MOL0     C 7516   8.172   2.596   1.108 -1.0735  0.1827  0.4906
  797MOL0     C 7517   8.118   2.720   1.078  0.0208  0.7981 -0.1714
  797MOL0     O 7518   8.011   2.773   1.130  0.5791 -0.6482  0.2082
  797MOL0     C 7519   7.913   2.682   1.179 -0.2202  0.1995 -0.6395
  797MOL0     C 7520   7.803   2.779   1.234 -0.1302  0.3270  0.3912
  797MOL0     C 7521   7.660   2.724   1.241 -0.0505 -0.3702  0.3773
  797MOL0     C 7522   7.566   2.849   1.244  0.1195  0.6303 -0.3069
  797MOL0     C 7523   7.444   2.801   1.319 -0.4643 -0.5061 -0.5202
  797MOL0     C 7524   7.353   2.773   1.392 -0.5138  0.2358  0.7176
  797MOL0     C 7525   8.196   2.805   0.991 -0.0059 -0.6900  0.3044
  797MOL0     C 7526   8.292   2.746   0.915  0.1667 -0.5204  0.2237
  797MOL0     C 7527   8.341   2.841   0.812 -0.4167  0.4495 -0.8408
  797MOL0     H 7528   8.808   2.570   0.919  0.9263  0.3627 -0.8143
  797MOL0     H 7529   8.981   2.462   0.827 -0.7290  0.4965 -4.4055
  797MOL0     H 7530   8.981   2.048   0.606 -0.1331  0.5679  1.4581
  797MOL0     H 7531   8.863   2.154   0.524 -0.9307 -0.8207  1.9804
  797MOL0     H 7532   9.036   2.268   0.403 -0.4963 -0.1247  2.0243
  797MOL0     H 7533   9.032   2.093   0.375 -2.2169  2.6193 -1.9304
  797MOL0     H 7534   9.265   2.132   0.410 -1.0652 -1.3759 -0.9041
  797MOL0     H 7535   9.211   2.082   0.570  1.0807  0.0684 -1.5537
  797MOL0     H 7536   9.209   2.375   0.526  1.5368  1.6739  0.7002
  797MOL0     H 7537   9.251   2.271   0.664  4.1698 -0.0270  0.3120
  797MOL0     H 7538   9.442   2.378   0.611  1.9958 -0.3195 -0.4853
  797MOL0     H 7539   9.473   2.209   0.551 -1.4500 -1.5339  0.5272
  797MOL0     H 7540   9.411   2.449   0.366  1.5299  0.2346 -0.1867
  797MOL0     H 7541   9.565   2.379   0.407 -0.1021  1.8466 -0.1999
  797MOL0     H 7542   9.348   2.236   0.238 -0.3930 -3.6092  0.6230
  797MOL0     H 7543   9.493   2.170   0.298 -4.1715 -1.7134  0.8458
  797MOL0     H 7544   9.626   2.346   0.186 -1.1087  3.4641  3.6918
  797MOL0     H 7545   9.528   2.265   0.077  0.0586 -3.0307  1.2367
  797MOL0     H 7546   9.244   2.402   0.074  0.1300 -0.2986 -2.4992
  797MOL0     H 7547   9.149   2.731  -0.025  0.0148  2.4908  2.5005
  797MOL0     H 7548   9.116   2.562   0.005 -2.3977  1.6644  2.1181
  797MOL0     H 7549   9.004   2.698   0.178 -0.4752  3.0655  0.5173
  797MOL0     H 7550   9.145   2.632   0.263 -2.1491 -0.9746 -0.5624
  797MOL0     H 7551   9.273   2.843   0.238 -0.4883  1.0351  0.8647
  797MOL0     H 7552   9.136   2.853   0.330  2.5312 -2.7336  0.6697
  797MOL0     H 7553   9.042   2.917   0.067  1.9288 -0.6829 -1.3584
  797MOL0     H 7554   9.203   2.968   0.062 -0.4813  0.1532 -0.1458
  797MOL0     H 7555   9.011   3.245   0.346 -0.6949  2.9337 -2.5365
  797MOL0     H 7556   9.138   3.409   0.484 -0.9809 -1.4832  0.7603
  797MOL0     H 7557   9.416   3.460   0.836 -0.7101  0.6390 -0.4826
  797MOL0     H 7558   9.600   3.593   0.968  0.4869 -0.8011 -0.6602
  797MOL0     H 7559   9.677   3.977   0.818  1.2674  2.0802 -0.4815
  797MOL0     H 7560   9.724   3.961   0.993 -0.8129  2.4743 -0.7983
  797MOL0     H 7561   9.927   3.996   0.969 -0.7914  2.4685  0.4600
  797MOL0     H 7562   9.946   3.924   0.802  2.2416  1.3142  0.7340
  797MOL0     H 7563   9.792   4.184   0.840  1.1232  1.6337  0.4810
  797MOL0     H 7564   9.965   4.185   0.868  1.1073  0.5186 -2.9709
  797MOL0     H 7565   9.846   4.073   0.615 -1.6453  1.8440  0.3227
  797MOL0     H 7566  10.019   4.104   0.668 -0.9573 -1.7908  0.7019
  797MOL0     H 7567   9.989   4.343   0.685  2.2487  0.3423 -2.2850
  797MOL0     H 7568   9.813   4.333   0.646  0.5618  0.7175  0.4640
  797MOL0     H 7569  10.036   4.251   0.465  3.5769  1.9023 -0.1062
  797MOL0     H 7570   9.865   4.274   0.420  1.9651 -1.7294 -0.6031
  797MOL0     H 7571  10.031   4.509   0.507  0.6716 -0.1061 -0.0707
  797MOL0     H 7572   9.881   4.508   0.432  0.9379 -1.8027 -0.9400
  797MOL0     H 7573  10.070   4.561   0.280  0.9757  0.1195  0.3945
  797MOL0     H 7574  10.128   4.392   0.287 -0.1044  0.3183 -1.0882
  797MOL0     H 7575   9.642   3.852   0.627  1.9913  0.7253  0.7716
  797MOL0     H 7576   9.457   3.725   0.520  0.3658 -2.9161 -1.0708
  797MOL0     H 7577   9.505   3.218   0.341 -0.1928  0.2097  0.6756
  797MOL0     H 7578   9.385   3.067   0.219  3.0468  2.5725  0.4703
  797MOL0     H 7579   8.743   2.120   0.730 -1.9495  1.0120  1.2004
  797MOL0     H 7580   8.538   2.239   0.810 -0.0312 -0.5621  2.8254
  797MOL0     H 7581   8.312   2.449   1.070 -1.2195 -0.4802 -0.1390
  797MOL0     H 7582   8.116   2.539   1.182 -0.2388 -1.6829 -0.2488
  797MOL0     H 7583   7.951   2.640   1.272 -2.6844  2.1139  1.3712
  797MOL0     H 7584   7.882   2.603   1.110 -0.3912 -3.0656  2.8643
  797MOL0     H 7585   7.794   2.870   1.174 -0.3116 -1.3858 -2.3665
  797MOL0     H 7586   7.841   2.795   1.335  4.7309 -0.3178 -1.0370
  797MOL0     H 7587   7.651   2.663   1.332  3.1125 -1.6283 -0.0308
  797MOL0     H 7588   7.638   2.655   1.159 -1.7026  1.6405 -0.9743
  797MOL0     H 7589   7.610   2.925   1.309 -0.9870  0.5154  0.6087
  797MOL0     H 7590   7.538   2.886   1.145 -4.0792 -1.0290  0.0441
  797MOL0     H 7591   7.286   2.726   1.461 -0.4453 -1.3788 -0.2712
  797MOL0     H 7592   8.158   2.906   0.982 -0.7689 -0.6773  2.7721
  797MOL0     H 7593   8.254   2.882   0.759 -1.3947  0.6719  0.8571
  797MOL0     H 7594   8.403   2.925   0.844  1.6239 -0.3623 -2.4335
  797MOL0     H 7595   8.404   2.794   0.736  0.5552  0.8257 -0.2885
  798MOL0     O 7596   2.673   0.903   5.462 -0.2910  0.4564  0.6754
  798MOL0     C 7597   2.741   0.896   5.356 -0.6890 -1.0532  0.3691
  798MOL0     O 7598   2.877   0.897   5.353  0.7889  0.4650  0.5930
  798MOL0     C 7599   2.930   0.917   5.483  0.4657 -0.6121 -0.5397
  798MOL0     C 7600   2.931   0.801   5.570 -0.9354  0.6135  0.3634
  798MOL0     C 7601   3.002   0.819   5.692 -0.1404 -0.1053 -0.3810
  798MOL0     C 7602   3.065   0.944   5.719 -0.2952  0.7214 -0.1201
  798MOL0     O 7603   3.162   0.957   5.819 -0.1229  0.8186  0.0165
  798MOL0     C 7604   3.112   0.950   5.955  0.2056 -0.3016  1.0547
  798MOL0     C 7605   3.143   0.818   6.021 -0.0054 -0.6305  0.6397
  798MOL0     C 7606   3.280   0.768   5.985 -0.3629 -0.7603 -0.1357
  798MOL0     C 7607   3.342   0.685   6.097 -0.0325  0.4925 -0.2959
  798MOL0     C 7608   3.480   0.634   6.062 -0.5908  0.0582 -0.1506
  798MOL0     C 7609   3.474   0.534   5.936 -0.1305 -0.1614 -0.6594
  798MOL0     C 7610   3.627   0.493   5.903 -0.6532  0.1617 -0.1429
  798MOL0     C 7611   3.685   0.390   5.993 -0.5798 -0.8137 -0.0007
  798MOL0     N 7612   3.587   0.285   6.033 -0.4455 -0.8175 -0.4254
  798MOL0     C 7613   3.533   0.183   5.951 -1.6510 -0.2449 -0.6169
  798MOL0     C 7614   3.462   0.116   6.041  0.0159  0.3917  0.3065
  798MOL0     C 7615   3.380  -0.010   6.012 -0.2691  0.2561  0.7969
  798MOL0     C 7616   3.453  -0.139   5.962 -0.2421 -0.5789 -1.3250
  798MOL0     C 7617   3.554  -0.186   6.068 -0.5629 -0.1477  0.9124
  798MOL0     C 7618   3.646  -0.312   6.012  0.4012  1.8725  0.1326
  798MOL0     O 7619   3.734  -0.376   6.107 -0.1939 -0.8463 -0.1324
  798MOL0     C 7620   3.839  -0.300   6.159  0.5398 -0.2072 -0.6289
  798MOL0     C 7621   3.884  -0.179   6.104 -0.5139 -0.5567  0.1660
  798MOL0     C 7622   4.002  -0.116   6.159 -1.3406  0.1348  0.0362
  798MOL0     C 7623   4.060  -0.171   6.271 -0.4874 -0.2254  0.2176
  798MOL0     C 7624   4.165  -0.083   6.331  0.3992  0.4312 -0.6430
  798MOL0     O 7625   4.165  -0.077   6.471  0.6320 -0.1927 -0.2349
  798MOL0     C 7626   4.255   0.012   6.525  0.5240  0.6952 -0.9072
  798MOL0     C 7627   4.377  -0.037   6.557 -0.5567  0.7802  0.0658
  798MOL0     C 7628   4.481   0.042   6.598 -0.9205  0.9336  0.0897
  798MOL0     C 7629   4.466   0.183   6.620 -0.9230  0.5841  0.4934
  798MOL0     O 7630   4.557   0.273   6.673  0.7674  0.0991  0.4359
  798MOL0     C 7631   4.681   0.221   6.722  0.3453 -0.5270  0.5629
  798MOL0     C 7632   4.738   0.336   6.808 -0.3078  0.3638 -0.8763
  798MOL0     C 7633   4.666   0.371   6.944  0.6665  0.6132  0.1584
  798MOL0     C 7634   4.738   0.491   7.016  0.5521  1.0334 -0.0530
  798MOL0     C 7635   4.640   0.547   7.118 -1.1050  0.6442  0.6985
  798MOL0     C 7636   4.528   0.638   7.078  0.0423 -0.5553 -0.1562
  798MOL0     C 7637   4.591   0.767   7.023 -0.6582 -0.1506  1.1504
  798MOL0     C 7638   4.480   0.854   6.948 -0.5188  0.2608  0.1007
  798MOL0    Cl 7639   4.441   0.784   6.783  0.5600  0.0805  0.1857
  798MOL0     C 7640   4.340   0.241   6.594  0.1811 -0.2095  0.3278
  798MOL0     C 7641   4.240   0.147   6.546 -1.2781 -0.5286 -0.2099
  798MOL0     O 7642   4.245  -0.029   6.256 -0.3375  0.2469  0.3120
  798MOL0     C 7643   4.003  -0.287   6.335 -0.1994  1.2672  0.2717
  798MOL0     C 7644   3.903  -0.353   6.264 -0.2806 -0.2647 -1.2829
  798MOL0     N 7645   3.471   0.180   6.165  0.0805 -0.0042  0.8840
  798MOL0     N 7646   3.542   0.282   6.162 -0.0168 -0.2232 -0.4210
  798MOL0     C 7647   3.060   1.053   5.633 -0.0560 -0.6543 -0.3697
  798MOL0     C 7648   2.995   1.043   5.514  0.2285 -0.2635  0.3166
  798MOL0     C 7649   2.678   0.887   5.218  0.2244 -0.4257 -0.1859
  798MOL0     C 7650   2.758   0.889   5.099 -0.1233 -0.8887 -0.5232
  798MOL0     C 7651   2.706   0.898   4.972 -0.1975  0.1342  0.1592
  798MOL0     C 7652   2.566   0.908   4.960 -0.0974 -0.3563  0.4191
  798MOL0     O 7653   2.506   0.916   4.835  0.1464 -0.4760  0.1313
  798MOL0     C 7654   2.591   0.894   4.719  0.1281  0.1279 -0.3549
  798MOL0     C 7655   2.643   0.747   4.682  0.1607  0.1324  0.9026
  798MOL0     C 7656   2.523   0.665   4.624 -0.1865  0.2364 -0.4373
  798MOL0     C 7657   2.545   0.513   4.606 -0.6826 -0.7059  0.7065
  798MOL0     C 7658   2.650   0.501   4.500 -0.0727 -0.4703  0.3259
  798MOL0     C 7659   2.751   0.490   4.436  0.2529  0.3914  0.5131
  798MOL0     C 7660   2.479   0.897   5.068  0.2589 -0.0281 -0.3548
  798MOL0     C 7661   2.532   0.882   5.198  0.2790  0.7244  0.9742
  798MOL0     C 7662   2.434   0.841   5.317  0.2116  0.1537  1.5515
  798MOL0     H 7663   2.888   0.708   5.536  2.1267 -0.8845  0.2736
  798MOL0     H 7664   3.014   0.746   5.771 -0.6081  0.8727  0.6152
  798MOL0     H 7665   3.158   1.036   6.003  1.3840 -0.9751  1.1679
  798MOL0     H 7666   3.008   0.984   5.960  1.2054  3.1121  0.8929
  798MOL0     H 7667   3.077   0.732   6.006 -0.3617 -0.3426  0.5444
  798MOL0     H 7668   3.134   0.843   6.127 -0.7233 -0.4623  0.5408
  798MOL0     H 7669   3.356   0.841   5.956  0.8152 -2.2455 -0.9148
  798MOL0     H 7670   3.270   0.707   5.895  0.8067  0.3038 -1.0268
  798MOL0     H 7671   3.347   0.732   6.196  2.5984  0.3965 -0.2995
  798MOL0     H 7672   3.282   0.595   6.113  0.2261 -0.0139 -1.9518
  798MOL0     H 7673   3.553   0.712   6.037  2.4105 -3.8602 -5.8164
  798MOL0     H 7674   3.498   0.571   6.149 -1.8985 -0.9568 -0.5893
  798MOL0     H 7675   3.409   0.447   5.955  2.7534 -2.2357  0.4270
  798MOL0     H 7676   3.440   0.581   5.843  0.2697 -2.0005 -1.8026
  798MOL0     H 7677   3.697   0.577   5.903 -1.2230  0.6662 -1.5789
  798MOL0     H 7678   3.633   0.449   5.803  0.8593 -0.6257  0.2706
  798MOL0     H 7679   3.762   0.331   5.941 -1.9253 -0.2918 -2.7877
  798MOL0     H 7680   3.726   0.442   6.079 -4.8083  2.1242  0.5362
  798MOL0     H 7681   3.541   0.160   5.845 -0.8546  2.9018 -1.3425
  798MOL0     H 7682   3.335  -0.028   6.110  1.0622  0.0478  1.3824
  798MOL0     H 7683   3.308   0.018   5.934  1.9567  0.8167 -1.1719
  798MOL0     H 7684   3.377  -0.217   5.950 -3.0831  1.8163 -0.0456
  798MOL0     H 7685   3.501  -0.117   5.866 -0.9629 -3.3008 -2.4115
  798MOL0     H 7686   3.515  -0.221   6.164  0.5661 -1.7533  0.8165
  798MOL0     H 7687   3.625  -0.103   6.080  1.1217 -1.2193 -1.0317
  798MOL0     H 7688   3.699  -0.282   5.921  2.9813 -0.6603  0.6533
  798MOL0     H 7689   3.587  -0.399   5.979  2.4647 -0.7257  2.7198
  798MOL0     H 7690   3.837  -0.126   6.022 -1.4401  1.3069  1.8004
  798MOL0     H 7691   4.044  -0.027   6.113  1.2033 -1.0785 -0.1468
  798MOL0     H 7692   4.394  -0.137   6.518 -3.1301  0.2403  0.1866
  798MOL0     H 7693   4.569  -0.017   6.622 -1.8545 -1.1812 -1.3814
  798MOL0     H 7694   4.662   0.130   6.780 -1.0190  0.2061  1.3229
  798MOL0     H 7695   4.759   0.198   6.649  0.8758 -1.8108  1.4951
  798MOL0     H 7696   4.846   0.317   6.811 -0.5192 -0.9261 -0.9256
  798MOL0     H 7697   4.740   0.421   6.740  1.9118  1.2430  0.1753
  798MOL0     H 7698   4.562   0.396   6.925 -0.1475 -2.2781  0.3263
  798MOL0     H 7699   4.665   0.283   7.009  0.6657  1.4630  1.3438
  798MOL0     H 7700   4.775   0.556   6.936 -1.8429  2.2654 -0.2494
  798MOL0     H 7701   4.833   0.465   7.063  0.9083  4.0133  1.1201
  798MOL0     H 7702   4.694   0.600   7.197  2.2836  1.1238 -1.7571
  798MOL0     H 7703   4.591   0.461   7.165  1.1157  0.1980  2.3603
  798MOL0     H 7704   4.463   0.586   7.007 -0.5661  1.4454 -1.1523
  798MOL0     H 7705   4.476   0.665   7.170  2.2423 -1.2435  1.3690
  798MOL0     H 7706   4.661   0.738   6.944 -0.8998  0.2243  0.7894
  798MOL0     H 7707   4.628   0.833   7.102 -1.7558  2.0006 -0.0314
  798MOL0     H 7708   4.386   0.853   7.004 -1.3874  0.6503 -1.3245
  798MOL0     H 7709   4.511   0.957   6.927  0.2063  0.2358  0.9862
  798MOL0     H 7710   4.329   0.348   6.609  0.1230 -0.3029  0.9887
  798MOL0     H 7711   4.140   0.182   6.520 -0.1655  3.5698  0.2993
  798MOL0     H 7712   4.045  -0.341   6.420  1.0657  0.3173 -0.9109
  798MOL0     H 7713   3.867  -0.448   6.302  1.3985 -0.4677 -0.0550
  798MOL0     H 7714   3.132   1.132   5.654  2.7127 -3.4490  1.4346
  798MOL0     H 7715   3.000   1.130   5.449 -1.7411  1.6634  2.5515
  798MOL0     H 7716   2.866   0.889   5.111 -0.1754 -3.2368  0.4984
  798MOL0     H 7717   2.775   0.896   4.889  0.8122 -2.0437  0.9549
  798MOL0     H 7718   2.673   0.966   4.732 -0.4929  0.5423  1.6785
  798MOL0     H 7719   2.530   0.935   4.639  3.4045  3.5663 -1.3689
  798MOL0     H 7720   2.683   0.688   4.765  0.9103  1.0257  1.1859
  798MOL0     H 7721   2.721   0.752   4.606 -0.5216 -2.5539 -0.0880
  798MOL0     H 7722   2.506   0.705   4.523  0.2071 -0.5114 -0.8113
  798MOL0     H 7723   2.440   0.677   4.694  1.2672  0.1108  1.3792
  798MOL0     H 7724   2.576   0.470   4.702  2.8613 -2.7300 -1.1655
  798MOL0     H 7725   2.452   0.467   4.571 -1.7116  0.6459  1.5253
  798MOL0     H 7726   2.841   0.479   4.379 -2.4189  1.3271 -4.5339
  798MOL0     H 7727   2.372   0.882   5.060  0.4082 -0.4072 -1.7858
  798MOL0     H 7728   2.330   0.823   5.291 -0.9324  0.8047  5.1337
  798MOL0     H 7729   2.473   0.760   5.379 -2.4689 -1.5693  1.1237
  798MOL0     H 7730   2.425   0.928   5.382  0.2665  0.2939  1.3748
  799MOL0     O 7731   0.935   5.171   7.197  0.0036  0.4872 -0.6385
  799MOL0     C 7732   0.881   5.210   7.093  0.2829  0.3446  0.4698
  799MOL0     O 7733   0.943   5.283   6.995  0.2577 -1.0041  0.4148
  799MOL0     C 7734   1.044   5.374   7.034 -0.2417  0.0049 -0.0926
  799MOL0     C 7735   1.173   5.353   6.982 -0.1277  0.4999 -0.1026
  799MOL0     C 7736   1.262   5.454   7.011 -0.0261  0.1263 -0.4705
  799MOL0     C 7737   1.230   5.565   7.103 -0.4954 -0.7431 -0.4717
  799MOL0     O 7738   1.340   5.633   7.137  0.4657  0.1301  0.2979
  799MOL0     C 7739   1.325   5.727   7.244 -0.0123  0.1230  0.7844
  799MOL0     C 7740   1.283   5.868   7.192 -0.3138 -0.5024 -0.3156
  799MOL0     C 7741   1.208   5.948   7.305  0.4803  1.3584 -0.2974
  799MOL0     C 7742   1.181   6.101   7.273 -0.4319  0.1001 -0.2095
  799MOL0     C 7743   1.139   6.173   7.405  0.1982  1.1745 -0.1512
  799MOL0     C 7744   1.016   6.139   7.486  0.2289 -0.5348 -0.0907
  799MOL0     C 7745   0.894   6.112   7.396  0.5206 -0.5626  0.4266
  799MOL0     C 7746   0.852   6.215   7.303 -0.1867 -0.3921 -0.0984
  799MOL0     N 7747   0.710   6.205   7.263 -0.1678 -0.2674 -0.0385
  799MOL0     C 7748   0.649   6.101   7.209 -0.5903 -0.9138  1.1579
  799MOL0     C 7749   0.519   6.142   7.189 -0.6035  0.1036 -0.2494
  799MOL0     C 7750   0.419   6.058   7.115  0.1747  0.0773  0.5708
  799MOL0     C 7751   0.277   6.062   7.170 -0.2241 -0.3755  0.4584
  799MOL0     C 7752   0.275   6.005   7.314 -0.4465  0.6234 -0.8744
  799MOL0     C 7753   0.141   5.969   7.349 -0.2239 -1.1566  0.0482
  799MOL0     O 7754   0.138   5.909   7.479  1.0981  0.6235  0.9635
  799MOL0     C 7755   0.022   5.836   7.512 -0.3866  0.4279  0.3549
  799MOL0     C 7756   0.026   5.758   7.628 -0.4597  0.3329  0.0106
  799MOL0     C 7757  -0.088   5.688   7.682 -0.7461  0.1352 -0.3857
  799MOL0     C 7758  -0.216   5.695   7.618 -0.0843  0.3006 -0.9555
  799MOL0     C 7759  -0.335   5.641   7.683  0.1205  0.5408 -0.0449
  799MOL0     O 7760  -0.329   5.557   7.793  0.0066 -0.4188  0.2715
  799MOL0     C 7761  -0.447   5.517   7.857  0.0941  0.9288 -0.7607
  799MOL0     C 7762  -0.439   5.390   7.920  0.2124 -0.7072  0.0601
  799MOL0     C 7763  -0.546   5.342   7.998 -1.1842 -0.2817 -0.1608
  799MOL0     C 7764  -0.669   5.418   8.019  0.1323  0.8436  0.3406
  799MOL0     O 7765  -0.763   5.362   8.090  0.6047  0.0927 -0.4797
  799MOL0     C 7766  -0.878   5.441   8.136  1.1534  0.2174  0.1260
  799MOL0     C 7767  -0.838   5.535   8.247  0.1183  0.1437  0.1573
  799MOL0     C 7768  -0.805   5.451   8.373  0.8710 -0.0699  0.0918
  799MOL0     C 7769  -0.771   5.535   8.503  0.1403 -0.8693 -0.9595
  799MOL0     C 7770  -0.880   5.621   8.569 -0.2087 -0.6317 -0.1881
  799MOL0     C 7771  -0.844   5.695   8.694  0.5124 -1.3500 -0.1627
  799MOL0     C 7772  -0.879   5.845   8.683 -0.2532 -0.9029 -0.2491
  799MOL0     C 7773  -0.841   5.938   8.801 -0.4591  0.2037 -1.3454
  799MOL0    Cl 7774  -0.975   5.941   8.922 -0.5354  0.2547 -0.2881
  799MOL0     C 7775  -0.665   5.555   7.962  0.1966  0.6888 -0.1475
  799MOL0     C 7776  -0.562   5.592   7.879 -0.7699 -0.2513  0.1904
  799MOL0     O 7777  -0.447   5.656   7.620 -0.8314  0.4834  0.3758
  799MOL0     C 7778  -0.221   5.777   7.500  0.1012 -0.4151  0.2839
  799MOL0     C 7779  -0.098   5.836   7.444  0.9066 -0.7743 -0.4119
  799MOL0     N 7780   0.504   6.259   7.258  0.6371 -0.5324 -0.2302
  799MOL0     N 7781   0.612   6.291   7.316  0.7070  0.0296 -0.3299
  799MOL0     C 7782   1.097   5.583   7.145  0.9081 -0.6117  0.7100
  799MOL0     C 7783   1.011   5.486   7.106 -0.1576  0.4833  0.0752
  799MOL0     C 7784   0.746   5.145   7.054  0.0407  1.7202 -1.0007
  799MOL0     C 7785   0.709   5.151   6.918 -0.0152 -0.7014 -0.2775
  799MOL0     C 7786   0.591   5.099   6.870 -0.1767 -0.0723 -0.1905
  799MOL0     C 7787   0.490   5.057   6.962 -0.1355  0.3950  0.5291
  799MOL0     O 7788   0.374   5.013   6.903  0.0728 -0.8821 -0.1385
  799MOL0     C 7789   0.305   4.905   6.973 -0.3198 -0.3783 -0.0655
  799MOL0     C 7790   0.174   4.878   6.892  0.6829  0.2175 -0.1408
  799MOL0     C 7791   0.110   4.742   6.933 -0.0539 -0.6197  0.5226
  799MOL0     C 7792   0.201   4.628   6.912 -0.4553  0.5103 -0.2770
  799MOL0     C 7793   0.219   4.588   6.766 -0.4262  0.3432 -1.4541
  799MOL0     C 7794   0.257   4.563   6.649  0.0046  0.5994  0.7991
  799MOL0     C 7795   0.523   5.060   7.094  0.7027  0.4954  0.2512
  799MOL0     C 7796   0.649   5.087   7.145 -0.0704 -0.5895  0.9316
  799MOL0     C 7797   0.682   5.046   7.293 -0.1778  0.1468 -0.0919
  799MOL0     H 7798   1.201   5.270   6.918  0.3758 -1.8324  2.9251
  799MOL0     H 7799   1.357   5.450   6.958 -1.7250  0.2501 -3.7688
  799MOL0     H 7800   1.266   5.691   7.328 -0.8314  2.3538  1.2180
  799MOL0     H 7801   1.423   5.732   7.293  0.1916 -3.5434  1.0165
  799MOL0     H 7802   1.222   5.854   7.103 -0.4285 -3.4958  0.1433
  799MOL0     H 7803   1.372   5.920   7.156 -0.0885  1.1960  2.3514
  799MOL0     H 7804   1.260   5.922   7.398  2.1762 -0.6825 -1.7131
  799MOL0     H 7805   1.110   5.900   7.308  0.7645  0.8095  0.6610
  799MOL0     H 7806   1.259   6.155   7.220 -1.5118  2.7426  0.7175
  799MOL0     H 7807   1.092   6.087   7.211 -0.7205  1.3138 -0.0974
  799MOL0     H 7808   1.227   6.146   7.465  1.0297 -2.5207 -2.6317
  799MOL0     H 7809   1.141   6.282   7.395 -2.6989  1.3835  0.6601
  799MOL0     H 7810   1.036   6.060   7.560  1.2392  0.8895  1.2176
  799MOL0     H 7811   0.996   6.224   7.551  1.0733 -0.7460  0.4630
  799MOL0     H 7812   0.800   6.104   7.451 -0.7073  3.3541 -0.7296
  799MOL0     H 7813   0.907   6.020   7.339  1.9246  0.4905 -1.0770
  799MOL0     H 7814   0.864   6.318   7.340  1.7470  0.4223 -2.6608
  799MOL0     H 7815   0.920   6.215   7.217  1.4789  1.5366  1.1061
  799MOL0     H 7816   0.694   6.009   7.173 -0.0320  0.1578 -1.0290
  799MOL0     H 7817   0.401   6.087   7.011 -0.4114 -0.2534  0.5718
  799MOL0     H 7818   0.446   5.952   7.120 -1.3179 -0.6861 -3.5006
  799MOL0     H 7819   0.232   6.162   7.177 -1.5569 -0.9780  0.7863
  799MOL0     H 7820   0.222   6.006   7.093  1.2985  2.0988 -2.6691
  799MOL0     H 7821   0.309   6.073   7.394  0.2985 -0.3928 -0.3010
  799MOL0     H 7822   0.339   5.916   7.316 -0.0488  0.8485  2.5874
  799MOL0     H 7823   0.099   5.902   7.273  1.4647 -0.8285 -1.2225
  799MOL0     H 7824   0.075   6.056   7.359  0.2480 -0.6375 -1.1438
  799MOL0     H 7825   0.116   5.761   7.689  0.5545  4.7104 -1.3787
  799MOL0     H 7826  -0.072   5.626   7.770 -1.3431 -0.4973 -0.7151
  799MOL0     H 7827  -0.344   5.342   7.903  2.0134  2.2050  1.0772
  799MOL0     H 7828  -0.526   5.243   8.037 -2.1953 -0.9348 -1.2425
  799MOL0     H 7829  -0.923   5.491   8.049  0.7335 -1.8788 -0.9165
  799MOL0     H 7830  -0.955   5.372   8.174 -1.5265  0.6343 -3.8670
  799MOL0     H 7831  -0.747   5.593   8.229 -0.3745  0.2334 -2.4092
  799MOL0     H 7832  -0.926   5.598   8.262  0.3958  0.7154 -0.5570
  799MOL0     H 7833  -0.901   5.405   8.399 -0.3889  1.1280 -2.2088
  799MOL0     H 7834  -0.734   5.370   8.352  2.2492  0.1574  3.2978
  799MOL0     H 7835  -0.692   5.609   8.487 -0.0734 -0.1698  0.9849
  799MOL0     H 7836  -0.734   5.459   8.573  0.2067  0.5173  0.5605
  799MOL0     H 7837  -0.967   5.558   8.589 -0.6604 -0.6090 -1.9173
  799MOL0     H 7838  -0.913   5.695   8.495  0.0136 -0.8155 -0.4725
  799MOL0     H 7839  -0.905   5.658   8.777 -1.5886  1.6143 -0.2314
  799MOL0     H 7840  -0.739   5.678   8.721  0.2915 -2.5014  0.0255
  799MOL0     H 7841  -0.986   5.863   8.664 -0.0668  2.0853  0.9898
  799MOL0     H 7842  -0.839   5.889   8.592  0.6452 -2.3298 -0.5771
  799MOL0     H 7843  -0.754   5.904   8.857 -1.4602  1.1448  0.8845
  799MOL0     H 7844  -0.830   6.040   8.763  1.6589  0.9134  0.9295
  799MOL0     H 7845  -0.759   5.609   7.969  0.0173  0.8436 -2.7377
  799MOL0     H 7846  -0.592   5.677   7.818  2.2235  1.5338  0.9909
  799MOL0     H 7847  -0.317   5.783   7.449  2.5200 -2.3081 -5.2058
  799MOL0     H 7848  -0.107   5.888   7.349 -3.0719  0.6014  0.5476
  799MOL0     H 7849   1.069   5.666   7.210  0.2657 -0.3470  0.1132
  799MOL0     H 7850   0.905   5.495   7.129  0.2864 -1.5745  3.5552
  799MOL0     H 7851   0.775   5.199   6.846 -2.8845 -1.1488 -3.4528
  799MOL0     H 7852   0.561   5.107   6.766 -4.4825 -2.4401  0.6241
  799MOL0     H 7853   0.278   4.928   7.076 -2.2832 -0.3289 -0.5492
  799MOL0     H 7854   0.372   4.819   6.974  0.8732  0.5076  0.4865
  799MOL0     H 7855   0.198   4.877   6.785  2.1575 -3.2107  0.0672
  799MOL0     H 7856   0.104   4.960   6.909  0.2424  0.4760 -2.7538
  799MOL0     H 7857   0.027   4.720   6.865 -0.1400  0.8847  0.1008
  799MOL0     H 7858   0.087   4.751   7.039  0.2277 -2.1340  0.7394
  799MOL0     H 7859   0.295   4.636   6.968 -1.1059 -1.3039  1.1407
  799MOL0     H 7860   0.157   4.541   6.962 -0.4124 -0.3079 -1.6287
  799MOL0     H 7861   0.289   4.540   6.549 -2.4911  0.5285 -0.0576
  799MOL0     H 7862   0.451   5.023   7.167  0.4898  0.3497 -0.0336
  799MOL0     H 7863   0.587   5.027   7.344  0.8193 -0.7684  1.5125
  799MOL0     H 7864   0.737   4.952   7.298  1.7169  1.2042  5.0707
  799MOL0     H 7865   0.738   5.129   7.338  0.1064  1.3004 -2.4311
  800MOL0     O 7866  10.502   9.067   4.953  0.0870  0.2347  0.1542
  800MOL0     C 7867  10.419   9.103   4.861 -0.3870  0.8689  0.4015
  800MOL0     O 7868  10.403   9.040   4.739 -0.6028 -0.8487  0.2669
  800MOL0     C 7869  10.457   8.919   4.712 -0.2108  0.9287  0.0553
  800MOL0     C 7870  10.476   8.884   4.578 -0.3314  0.6280  0.7152
  800MOL0     C 7871  10.507   8.754   4.537 -1.0437  0.1288  0.4189
  800MOL0     C 7872  10.530   8.656   4.637 -0.2241  0.0172  0.1167
  800MOL0     O 7873  10.601   8.537   4.615 -0.3261  0.0301 -0.1888
  800MOL0     C 7874  10.743   8.541   4.578  1.4267 -0.3882 -0.8263
  800MOL0     C 7875  10.814   8.440   4.663 -0.2886 -0.3016 -0.3038
  800MOL0     C 7876  10.965   8.464   4.663  0.1753 -1.0329 -0.2856
  800MOL0     C 7877  11.045   8.349   4.724  0.5622  0.2424  0.1380
  800MOL0     C 7878  11.190   8.383   4.719 -0.5789 -0.6949 -0.2424
  800MOL0     C 7879  11.283   8.272   4.782 -0.1898  0.2528 -0.5705
  800MOL0     C 7880  11.437   8.296   4.748  0.6679  0.4601  0.1099
  800MOL0     C 7881  11.504   8.172   4.813 -0.8695  0.6249  0.2179
  800MOL0     N 7882  11.649   8.189   4.791  1.1595  0.2912 -0.3930
  800MOL0     C 7883  11.719   8.229   4.900  1.2156  0.5930 -0.1821
  800MOL0     C 7884  11.851   8.232   4.859  0.6838  0.1569 -0.6174
  800MOL0     C 7885  11.962   8.281   4.949  0.4866 -0.2412 -0.0051
  800MOL0     C 7886  11.928   8.402   5.039  1.1768  0.0106 -0.1854
  800MOL0     C 7887  11.882   8.521   4.951 -0.5709  0.4875 -0.3038
  800MOL0     C 7888  11.840   8.632   5.040  0.3985  0.0021  0.2972
  800MOL0     O 7889  11.945   8.658   5.138  0.9073  0.1156  0.2041
  800MOL0     C 7890  11.926   8.709   5.258 -0.1931  0.6503  0.8466
  800MOL0     C 7891  11.813   8.794   5.282 -0.8579 -0.0728  0.2439
  800MOL0     C 7892  11.807   8.870   5.398  0.4186 -0.7366 -0.6065
  800MOL0     C 7893  11.893   8.846   5.505  0.8559  0.3289  0.6220
  800MOL0     C 7894  11.880   8.905   5.630 -0.2779 -0.6632  0.0752
  800MOL0     O 7895  11.760   8.919   5.677  0.8692 -0.0912 -0.5828
  800MOL0     C 7896  11.744   8.980   5.798 -1.1024 -0.1401 -1.1595
  800MOL0     C 7897  11.731   9.117   5.827 -0.3509 -1.3200  0.5078
  800MOL0     C 7898  11.695   9.162   5.952 -0.3197 -0.6060  0.6476
  800MOL0     C 7899  11.681   9.063   6.058  0.4968 -0.1413  0.4062
  800MOL0     O 7900  11.675   9.110   6.185 -0.1496  0.1583 -0.0832
  800MOL0     C 7901  11.786   9.176   6.240  0.4180 -0.0883 -0.4486
  800MOL0     C 7902  11.877   9.068   6.297  1.2936  0.7207 -0.2977
  800MOL0     C 7903  11.955   9.102   6.435 -0.1484  0.5310  0.9912
  800MOL0     C 7904  11.870   9.089   6.567 -0.0749  0.0917 -0.4991
  800MOL0     C 7905  11.955   9.112   6.694 -0.9932 -0.4152  0.2074
  800MOL0     C 7906  12.027   9.250   6.693  0.0244  0.2610  0.2793
  800MOL0     C 7907  12.180   9.226   6.701 -0.6698  0.2119  0.4476
  800MOL0     C 7908  12.217   9.166   6.840  0.1871 -0.0602  0.4154
  800MOL0    Cl 7909  12.392   9.180   6.858  0.1292  0.0142 -0.1857
  800MOL0     C 7910  11.700   8.930   6.025  1.1410  0.3730 -0.4142
  800MOL0     C 7911  11.708   8.888   5.897  0.2438 -0.0960 -0.7213
  800MOL0     O 7912  11.983   8.926   5.695 -0.5243  0.5736  0.3275
  800MOL0     C 7913  12.001   8.762   5.486  0.3516 -0.7103 -0.7152
  800MOL0     C 7914  12.023   8.685   5.365  0.3019  0.3716 -0.0361
  800MOL0     N 7915  11.848   8.208   4.722  0.4788 -0.9999 -1.0555
  800MOL0     N 7916  11.732   8.166   4.686 -0.4358  0.0143 -0.5486
  800MOL0     C 7917  10.499   8.692   4.763  0.1329  0.2850  0.3707
  800MOL0     C 7918  10.468   8.817   4.810 -1.2952 -0.2044 -0.4143
  800MOL0     C 7919  10.349   9.228   4.887  0.8882 -0.2361 -0.0106
  800MOL0     C 7920  10.349   9.291   5.017  0.4013 -0.6509  0.1614
  800MOL0     C 7921  10.283   9.422   5.034 -0.2120  0.4897  0.7210
  800MOL0     C 7922  10.198   9.475   4.942  0.2580 -0.7161 -0.2347
  800MOL0     O 7923  10.119   9.591   4.959 -0.1428  0.1692  0.0359
  800MOL0     C 7924  10.097   9.636   5.094  0.1293 -0.0999  0.0325
  800MOL0     C 7925  10.026   9.774   5.090  0.0673  0.1406 -0.4534
  800MOL0     C 7926   9.896   9.783   5.011 -0.7215  0.0565 -0.2187
  800MOL0     C 7927   9.860   9.927   4.985  0.0580  0.6422 -0.1528
  800MOL0     C 7928   9.843  10.006   5.106  0.1579 -0.0749 -0.1475
  800MOL0     C 7929   9.788  10.048   5.205  0.8388  0.5569 -0.3701
  800MOL0     C 7930  10.184   9.410   4.822 -0.3366 -0.2245 -0.4471
  800MOL0     C 7931  10.258   9.297   4.793 -0.5333 -0.2162 -0.3873
  800MOL0     C 7932  10.225   9.244   4.649 -0.5600  0.8852  0.6680
  800MOL0     H 7933  10.472   8.965   4.506 -3.6095  0.0204  0.0243
  800MOL0     H 7934  10.521   8.723   4.434  1.5732 -0.8218  0.9842
  800MOL0     H 7935  10.754   8.525   4.470  3.3934 -0.5518 -0.6425
  800MOL0     H 7936  10.782   8.641   4.598  0.3324 -0.5274  2.7293
  800MOL0     H 7937  10.795   8.337   4.633  1.2393 -0.5765 -0.3796
  800MOL0     H 7938  10.767   8.455   4.761  2.1551 -0.0595  0.9024
  800MOL0     H 7939  10.979   8.564   4.705 -0.3897  0.6373 -3.6845
  800MOL0     H 7940  11.004   8.471   4.561 -0.6433 -0.4183 -0.5614
  800MOL0     H 7941  11.013   8.321   4.825 -2.3354 -3.5560 -1.5650
  800MOL0     H 7942  11.033   8.260   4.661 -2.5269  1.1314 -0.7011
  800MOL0     H 7943  11.217   8.403   4.614 -2.0951  1.3744 -0.3050
  800MOL0     H 7944  11.213   8.481   4.763 -2.0312 -0.2481 -0.4122
  800MOL0     H 7945  11.265   8.259   4.889  3.6293 -4.0605 -0.1586
  800MOL0     H 7946  11.254   8.181   4.729  2.0802 -0.0993 -1.2978
  800MOL0     H 7947  11.473   8.386   4.799  0.3747  0.6564 -0.0272
  800MOL0     H 7948  11.446   8.308   4.640  0.9391  3.0481  0.3669
  800MOL0     H 7949  11.478   8.164   4.919 -1.7910  2.3425  0.1696
  800MOL0     H 7950  11.474   8.077   4.767 -0.7121 -1.1388  3.4640
  800MOL0     H 7951  11.687   8.270   4.995 -2.9246  0.0570 -1.1536
  800MOL0     H 7952  11.987   8.201   5.019  1.7592  1.3209  1.4053
  800MOL0     H 7953  12.054   8.306   4.897  2.7326 -0.8626  3.3404
  800MOL0     H 7954  11.855   8.380   5.118  0.2138 -3.9899 -1.9465
  800MOL0     H 7955  12.021   8.424   5.093  1.3002  1.8864 -1.0772
  800MOL0     H 7956  11.801   8.492   4.883 -2.7434 -0.1930  2.4201
  800MOL0     H 7957  11.965   8.558   4.890 -1.2384 -0.2673 -1.7044
  800MOL0     H 7958  11.747   8.613   5.094 -0.4109  1.6922 -0.4307
  800MOL0     H 7959  11.823   8.721   4.979  2.9014  0.5766  0.3074
  800MOL0     H 7960  11.729   8.812   5.216  1.5653 -0.6695 -3.2663
  800MOL0     H 7961  11.728   8.942   5.418  0.2150 -0.3690 -2.4945
  800MOL0     H 7962  11.749   9.172   5.735  0.3913 -1.1393  0.7522
  800MOL0     H 7963  11.697   9.268   5.973  7.0873 -0.2492  0.4398
  800MOL0     H 7964  11.834   9.248   6.173  1.5044 -0.9361 -0.5977
  800MOL0     H 7965  11.753   9.246   6.318 -0.5438 -0.9800 -0.0288
  800MOL0     H 7966  11.814   8.980   6.314  1.3030  0.9848  1.2351
  800MOL0     H 7967  11.957   9.036   6.229  2.4294  1.1615  0.8031
  800MOL0     H 7968  12.038   9.032   6.445 -0.0136  0.5497  0.0503
  800MOL0     H 7969  11.990   9.204   6.418  0.3590  0.3344  0.8395
  800MOL0     H 7970  11.823   8.990   6.569 -0.9106  0.2958 -3.8422
  800MOL0     H 7971  11.789   9.162   6.562  1.1674  1.5535  0.0680
  800MOL0     H 7972  12.021   9.025   6.706 -3.0267 -2.1742 -0.5562
  800MOL0     H 7973  11.898   9.108   6.788 -0.1361 -1.4053  0.7124
  800MOL0     H 7974  12.005   9.308   6.603 -0.4572 -0.9044 -0.3761
  800MOL0     H 7975  12.000   9.315   6.777 -0.5378  0.3950 -0.0019
  800MOL0     H 7976  12.235   9.320   6.695  1.6853 -1.1658 -1.1755
  800MOL0     H 7977  12.216   9.160   6.622 -1.3321  1.7680 -1.2428
  800MOL0     H 7978  12.163   9.210   6.924  1.8584  1.3437  0.7970
  800MOL0     H 7979  12.197   9.058   6.841  2.5787 -0.5692  0.1485
  800MOL0     H 7980  11.691   8.867   6.113 -0.8232 -0.4610 -1.1520
  800MOL0     H 7981  11.709   8.781   5.880  1.4508 -0.1151 -0.6157
  800MOL0     H 7982  12.077   8.734   5.557 -0.2465  3.2622  1.8188
  800MOL0     H 7983  12.110   8.625   5.344  1.0178  0.6772  1.8293
  800MOL0     H 7984  10.506   8.617   4.841 -1.3994 -2.4293 -1.9424
  800MOL0     H 7985  10.448   8.830   4.915 -0.6073 -0.6677 -0.2214
  800MOL0     H 7986  10.393   9.234   5.098  0.7572 -2.9271 -1.5297
  800MOL0     H 7987  10.310   9.468   5.129  0.2044 -0.7943  1.2579
  800MOL0     H 7988  10.192   9.660   5.143 -0.8138  2.2049  0.9127
  800MOL0     H 7989  10.039   9.564   5.151 -0.8279  0.9376  0.4228
  800MOL0     H 7990  10.100   9.849   5.061  1.2830 -0.2682  1.4386
  800MOL0     H 7991   9.997   9.788   5.194  1.8026  2.2297 -0.1762
  800MOL0     H 7992   9.811   9.729   5.053  0.3773 -1.4291  0.1844
  800MOL0     H 7993   9.905   9.736   4.913 -1.4986 -0.0861 -0.2269
  800MOL0     H 7994   9.939   9.967   4.921  2.0653 -0.0688  1.7847
  800MOL0     H 7995   9.765   9.942   4.932  0.6949  2.2745 -0.8856
  800MOL0     H 7996   9.750  10.089   5.297  0.0980  1.5802 -1.1095
  800MOL0     H 7997  10.112   9.443   4.747 -0.0187  1.9019  0.1050
  800MOL0     H 7998  10.163   9.307   4.585 -1.1043  0.4794  0.7891
  800MOL0     H 7999  10.321   9.230   4.597 -0.3820  0.1755  1.1805
  800MOL0     H 8000  10.173   9.148   4.654  0.2960 -0.2267 -4.6800
  801MOL0     O 8001   5.792   6.216   3.955  0.1382 -0.2163 -0.5546
  801MOL0     C 8002   5.693   6.289   3.958  1.5164 -1.3843 -0.4976
  801MOL0     O 8003   5.676   6.394   4.046  0.2517 -0.8655  0.9143
  801MOL0     C 8004   5.781   6.451   4.118  0.3829 -0.1610  0.4414
  801MOL0     C 8005   5.747   6.580   4.170 -0.3335 -0.2164  0.3646
  801MOL0     C 8006   5.852   6.659   4.217  0.1529  0.2020  1.0063
  801MOL0     C 8007   5.972   6.605   4.251  0.2609  0.7726 -0.3510
  801MOL0     O 8008   6.068   6.690   4.302  0.0559  0.1538  0.7803
  801MOL0     C 8009   6.209   6.667   4.290  0.6051 -0.6937 -0.1269
  801MOL0     C 8010   6.246   6.800   4.334  0.1932 -0.1835  0.5518
  801MOL0     C 8011   6.401   6.810   4.321 -0.0348 -0.3232 -0.1406
  801MOL0     C 8012   6.471   6.919   4.397  0.5354 -0.3126  0.3321
  801MOL0     C 8013   6.624   6.915   4.373 -0.5819 -0.4546  0.2631
  801MOL0     C 8014   6.689   7.036   4.448 -0.0487  0.2848 -0.2840
  801MOL0     C 8015   6.846   7.023   4.449 -0.5720  0.1722 -0.5647
  801MOL0     C 8016   6.900   7.117   4.562  1.0316 -0.9261  0.1657
  801MOL0     N 8017   6.843   7.087   4.695  0.1215  0.0468 -0.5193
  801MOL0     C 8018   6.747   7.163   4.766  0.1318 -0.9091  1.4272
  801MOL0     C 8019   6.702   7.088   4.872 -0.4267  0.6347  0.7067
  801MOL0     C 8020   6.582   7.116   4.960 -0.2791  1.2244 -0.2721
  801MOL0     C 8021   6.617   7.077   5.098  0.2829 -0.3859 -0.1835
  801MOL0     C 8022   6.492   7.092   5.184 -0.3404 -0.2539 -0.3870
  801MOL0     C 8023   6.523   7.119   5.334 -0.4035 -0.4016 -0.3857
  801MOL0     O 8024   6.617   7.016   5.376  0.5681  0.5756 -0.6060
  801MOL0     C 8025   6.563   6.907   5.434 -0.2241  0.9062 -0.2007
  801MOL0     C 8026   6.558   6.779   5.368  0.4267  0.2877  0.0949
  801MOL0     C 8027   6.502   6.678   5.432  0.4762  0.4402  0.2225
  801MOL0     C 8028   6.430   6.696   5.557 -0.1766 -0.0447 -0.0773
  801MOL0     C 8029   6.349   6.594   5.615 -0.1993 -0.5680  0.3875
  801MOL0     O 8030   6.242   6.632   5.707 -0.0054  0.1470 -0.0620
  801MOL0     C 8031   6.156   6.536   5.751  0.8158 -0.0513 -1.6268
  801MOL0     C 8032   6.215   6.423   5.812 -0.4113 -0.3136 -0.0209
  801MOL0     C 8033   6.141   6.310   5.857 -0.0065 -0.1302  0.7326
  801MOL0     C 8034   6.005   6.303   5.845 -0.7585 -0.1975  0.5260
  801MOL0     O 8035   5.931   6.198   5.904 -0.7620  0.2521  0.7283
  801MOL0     C 8036   5.806   6.156   5.855  0.0244 -0.6089 -1.0425
  801MOL0     C 8037   5.686   6.214   5.938 -0.0652  0.0669  0.5970
  801MOL0     C 8038   5.550   6.192   5.869  0.1175 -0.7018 -0.8192
  801MOL0     C 8039   5.433   6.189   5.967 -0.7451  0.0733 -1.0551
  801MOL0     C 8040   5.295   6.161   5.909 -0.9415 -0.0567  0.6927
  801MOL0     C 8041   5.267   6.017   5.865  0.3811 -0.4761 -0.5785
  801MOL0     C 8042   5.128   6.004   5.810  0.2296  0.1214  0.9089
  801MOL0     C 8043   5.111   6.063   5.664 -1.0478 -0.0602 -0.1260
  801MOL0    Cl 8044   4.959   6.005   5.587  0.1553 -0.1713  0.4338
  801MOL0     C 8045   5.948   6.420   5.780 -0.5925  0.2362  1.3847
  801MOL0     C 8046   6.018   6.533   5.744  0.3676  0.1957  0.3831
  801MOL0     O 8047   6.367   6.480   5.578 -0.9393 -0.4570  0.5145
  801MOL0     C 8048   6.442   6.815   5.628 -0.2120 -0.2394 -0.5739
  801MOL0     C 8049   6.502   6.923   5.560  0.2513 -0.7337 -0.1873
  801MOL0     N 8050   6.772   6.970   4.858 -0.0365  0.2025  0.0688
  801MOL0     N 8051   6.856   6.967   4.754 -0.4584  1.0797  0.0201
  801MOL0     C 8052   5.995   6.471   4.215 -0.3142  0.5823 -0.7614
  801MOL0     C 8053   5.902   6.390   4.159 -0.3209  0.5418  0.7802
  801MOL0     C 8054   5.585   6.245   3.872  0.5483 -0.5081  0.6305
  801MOL0     C 8055   5.542   6.115   3.879  1.2391  0.5782 -0.7996
  801MOL0     C 8056   5.426   6.086   3.800 -0.0390  0.1399  0.0428
  801MOL0     C 8057   5.364   6.181   3.708 -0.5735 -0.1095 -0.1920
  801MOL0     O 8058   5.253   6.143   3.633  0.2234  0.5795  0.1446
  801MOL0     C 8059   5.246   6.182   3.494 -0.5675 -0.1714  0.3056
  801MOL0     C 8060   5.343   6.108   3.396  0.5214  0.6183  0.5963
  801MOL0     C 8061   5.316   5.962   3.416  0.4894  0.0918  0.2079
  801MOL0     C 8062   5.431   5.871   3.372 -0.7179  1.4720  0.5406
  801MOL0     C 8063   5.399   5.733   3.382  0.4280 -0.0088  0.8326
  801MOL0     C 8064   5.370   5.614   3.406 -1.3103  0.4981 -0.8063
  801MOL0     C 8065   5.401   6.307   3.726  0.3627 -0.0129 -0.0539
  801MOL0     C 8066   5.518   6.344   3.790  0.1614  0.8234 -0.3803
  801MOL0     C 8067   5.555   6.487   3.801 -0.2966 -0.3068 -0.5396
  801MOL0     H 8068   5.651   6.623   4.142 -0.5659 -0.5000  0.7266
  801MOL0     H 8069   5.822   6.761   4.236  1.1430  0.4968  1.0188
  801MOL0     H 8070   6.244   6.589   4.358 -1.4376 -0.6447  1.0482
  801MOL0     H 8071   6.233   6.645   4.185 -0.2393 -0.1624 -0.4429
  801MOL0     H 8072   6.210   6.816   4.436 -0.6212 -4.3984  1.0954
  801MOL0     H 8073   6.197   6.870   4.266  0.4875 -1.4962 -1.0701
  801MOL0     H 8074   6.432   6.814   4.216 -0.7508  0.3691 -0.3356
  801MOL0     H 8075   6.443   6.720   4.367  1.1665  0.0823 -0.3965
  801MOL0     H 8076   6.428   7.018   4.374 -0.9778 -0.8423  0.7842
  801MOL0     H 8077   6.453   6.897   4.502  2.4165 -0.0214  0.7608
  801MOL0     H 8078   6.664   6.822   4.413 -2.8981 -1.0943  1.2585
  801MOL0     H 8079   6.649   6.922   4.266  3.8235 -0.2203  1.1099
  801MOL0     H 8080   6.652   7.128   4.402 -0.3563 -0.6186 -1.9147
  801MOL0     H 8081   6.646   7.040   4.549 -0.2153  1.5720 -0.3823
  801MOL0     H 8082   6.879   7.057   4.351 -1.9666 -1.4668 -1.6826
  801MOL0     H 8083   6.883   6.920   4.452 -2.1760 -0.4098  0.9626
  801MOL0     H 8084   7.007   7.098   4.547  2.1667  4.9410 -1.6364
  801MOL0     H 8085   6.875   7.220   4.535  0.3986 -1.8962 -3.4897
  801MOL0     H 8086   6.708   7.262   4.744 -1.2353 -1.1688  2.6211
  801MOL0     H 8087   6.549   7.220   4.957 -2.1613  0.6568 -0.6056
  801MOL0     H 8088   6.499   7.059   4.918 -1.5661  2.6996  0.1806
  801MOL0     H 8089   6.654   6.974   5.093  2.5729  0.4419 -2.9701
  801MOL0     H 8090   6.700   7.136   5.138  0.3630  0.7789 -1.9098
  801MOL0     H 8091   6.432   7.000   5.178  0.0609 -0.5585  0.1922
  801MOL0     H 8092   6.430   7.176   5.150  1.5080  1.7560  0.9483
  801MOL0     H 8093   6.436   7.122   5.400  1.0765 -0.9783  1.6883
  801MOL0     H 8094   6.575   7.215   5.334 -2.3823  0.8243 -3.4298
  801MOL0     H 8095   6.615   6.781   5.276  0.8955 -4.0974  0.0836
  801MOL0     H 8096   6.502   6.582   5.381 -0.4030  0.0635  0.9022
  801MOL0     H 8097   6.322   6.440   5.820 -0.6715  1.3267  0.4834
  801MOL0     H 8098   6.207   6.229   5.885  1.3071 -0.3937 -2.6743
  801MOL0     H 8099   5.782   6.202   5.758 -1.0374  0.9484 -0.0769
  801MOL0     H 8100   5.814   6.046   5.856  0.4513 -0.6033 -2.1489
  801MOL0     H 8101   5.695   6.175   6.040  1.4082 -2.7643 -0.4871
  801MOL0     H 8102   5.709   6.320   5.950 -2.3384  0.6953 -0.2186
  801MOL0     H 8103   5.530   6.268   5.793 -3.4251 -1.0321 -0.3941
  801MOL0     H 8104   5.556   6.097   5.816  1.1194 -0.0250 -1.9977
  801MOL0     H 8105   5.436   6.294   6.000  2.7307  0.4647 -2.1887
  801MOL0     H 8106   5.465   6.112   6.036  0.8443  0.0834 -1.7402
  801MOL0     H 8107   5.289   6.227   5.822 -0.4985 -1.4600 -0.4433
  801MOL0     H 8108   5.220   6.186   5.983 -0.3615 -0.2072  1.3397
  801MOL0     H 8109   5.345   5.973   5.802 -1.6205 -1.2502 -2.6568
  801MOL0     H 8110   5.260   5.959   5.958  2.7563 -0.0109 -0.0427
  801MOL0     H 8111   5.069   6.067   5.878 -0.6889 -0.0377  0.2751
  801MOL0     H 8112   5.091   5.901   5.807 -0.4523  0.3693  0.3920
  801MOL0     H 8113   5.098   6.171   5.680 -0.3313  0.4476 -2.6488
  801MOL0     H 8114   5.195   6.030   5.603 -1.6340  0.2356 -1.1128
  801MOL0     H 8115   5.842   6.424   5.758 -0.5859 -1.7441  0.7979
  801MOL0     H 8116   5.956   6.609   5.697 -0.2360 -0.9704 -0.7984
  801MOL0     H 8117   6.397   6.819   5.726 -1.2866 -1.8416 -0.9658
  801MOL0     H 8118   6.514   7.022   5.603 -2.2167 -0.9577  1.2542
  801MOL0     H 8119   6.091   6.424   4.229 -0.8961 -0.0887  1.1667
  801MOL0     H 8120   5.933   6.290   4.131 -1.9361  0.4631 -0.9410
  801MOL0     H 8121   5.596   6.039   3.936  2.7146 -1.3606 -4.4573
  801MOL0     H 8122   5.385   5.986   3.810  1.3256 -0.3085  1.4797
  801MOL0     H 8123   5.263   6.290   3.489  1.3309 -0.4131  0.7119
  801MOL0     H 8124   5.142   6.168   3.463 -0.4186  0.9031 -0.7525
  801MOL0     H 8125   5.449   6.126   3.415  0.1288 -0.1603  4.2916
  801MOL0     H 8126   5.323   6.126   3.290  0.3254 -2.6859 -0.0256
  801MOL0     H 8127   5.229   5.941   3.354  1.1033 -0.9434 -0.3273
  801MOL0     H 8128   5.279   5.943   3.517 -1.3060  1.0401 -0.2178
  801MOL0     H 8129   5.451   5.896   3.267 -2.1458 -0.9476 -0.3857
  801MOL0     H 8130   5.518   5.898   3.432  0.3575  1.2433 -0.8680
  801MOL0     H 8131   5.354   5.510   3.424 -0.9545  0.3450 -1.3539
  801MOL0     H 8132   5.350   6.381   3.666 -3.5177 -0.7765  1.9677
  801MOL0     H 8133   5.533   6.532   3.899  4.9508  0.4631  0.6073
  801MOL0     H 8134   5.663   6.493   3.789 -0.5090  2.5672 -2.0531
  801MOL0     H 8135   5.507   6.550   3.725  1.6055  1.4260 -0.3936
  802MOL0     O 8136   4.702  10.782   0.255 -0.1414 -0.0151  0.0673
  802MOL0     C 8137   4.718  10.742   0.140  0.2578  1.2351 -0.6265
  802MOL0     O 8138   4.636  10.656   0.074 -0.7305  0.1805  0.4744
  802MOL0     C 8139   4.503  10.671   0.108 -0.2678 -0.3932 -0.1484
  802MOL0     C 8140   4.420  10.728   0.013  0.4776  0.6212  1.6600
  802MOL0     C 8141   4.277  10.750   0.033 -0.1037 -0.1194  0.6656
  802MOL0     C 8142   4.227  10.713   0.161 -0.1184 -0.6899  0.3965
  802MOL0     O 8143   4.087  10.734   0.198  0.0618  0.6803  0.0599
  802MOL0     C 8144   3.990  10.743   0.099 -0.0319  0.5950 -0.3219
  802MOL0     C 8145   3.848  10.708   0.143  0.0133 -0.2901  0.0999
  802MOL0     C 8146   3.804  10.786   0.270 -0.6957 -0.4823 -0.4229
  802MOL0     C 8147   3.650  10.779   0.288 -0.3061  0.1114 -0.1911
  802MOL0     C 8148   3.612  10.631   0.275  0.1553 -0.3839 -0.4552
  802MOL0     C 8149   3.459  10.610   0.322  0.5253  0.1723 -0.8165
  802MOL0     C 8150   3.460  10.481   0.408  0.4708  0.4576 -0.3310
  802MOL0     C 8151   3.320  10.478   0.478 -0.2329 -0.8602  0.2432
  802MOL0     N 8152   3.321  10.369   0.580  0.0706 -0.8859  0.1792
  802MOL0     C 8153   3.321  10.231   0.553 -0.3024 -0.5058 -0.6487
  802MOL0     C 8154   3.360  10.181   0.668  0.4043 -0.2945  0.2682
  802MOL0     C 8155   3.361  10.037   0.680 -0.9146  1.5505  0.0427
  802MOL0     C 8156   3.498   9.983   0.639  0.9574  1.4754  0.6031
  802MOL0     C 8157   3.502   9.828   0.667 -0.0575 -0.8029  0.3479
  802MOL0     C 8158   3.420   9.752   0.566 -0.0277 -0.7307  1.2311
  802MOL0     O 8159   3.489   9.635   0.554 -0.7959 -0.6640  0.6290
  802MOL0     C 8160   3.403   9.536   0.527  0.0667 -0.5077  0.9599
  802MOL0     C 8161   3.304   9.486   0.609  0.3444  0.4418  0.0563
  802MOL0     C 8162   3.224   9.366   0.581  0.8024  0.8392  0.1932
  802MOL0     C 8163   3.239   9.306   0.458 -0.7047 -0.2538 -0.3601
  802MOL0     C 8164   3.135   9.209   0.419  1.2487  0.0511  0.3017
  802MOL0     O 8165   3.157   9.141   0.307  0.2096 -0.2931 -0.2772
  802MOL0     C 8166   3.066   9.068   0.239  1.1000  0.2250 -0.2122
  802MOL0     C 8167   3.111   8.953   0.171  0.9504 -0.3015  0.2742
  802MOL0     C 8168   3.024   8.881   0.089 -0.5586  0.0857  0.3801
  802MOL0     C 8169   2.885   8.921   0.084 -0.0183  0.4929  0.5855
  802MOL0     O 8170   2.814   8.836  -0.006 -0.4178 -0.4663  0.5954
  802MOL0     C 8171   2.731   8.890  -0.116 -0.9188 -0.4906 -0.2592
  802MOL0     C 8172   2.610   8.806  -0.152  0.1954  0.3193 -0.4464
  802MOL0     C 8173   2.510   8.891  -0.229  0.5646 -0.3357  0.0412
  802MOL0     C 8174   2.577   8.942  -0.352  0.0598  0.0848 -1.1069
  802MOL0     C 8175   2.487   9.018  -0.461 -0.0286 -0.1334 -0.2745
  802MOL0     C 8176   2.383   8.920  -0.519  0.5554 -0.4221  0.9242
  802MOL0     C 8177   2.342   8.963  -0.655 -0.2814  0.2918 -0.2382
  802MOL0     C 8178   2.235   9.061  -0.657 -1.1289  0.5933  0.0435
  802MOL0    Cl 8179   2.270   9.218  -0.594  0.2726  0.5301 -0.1352
  802MOL0     C 8180   2.838   9.034   0.152  0.9864  0.2973  0.0972
  802MOL0     C 8181   2.930   9.104   0.227 -0.5864 -0.6797 -0.3784
  802MOL0     O 8182   3.034   9.214   0.488 -0.4127 -0.7300 -0.9634
  802MOL0     C 8183   3.347   9.348   0.388 -0.3819 -0.8042  0.7882
  802MOL0     C 8184   3.427   9.460   0.408 -0.7031 -1.0659 -0.5351
  802MOL0     N 8185   3.387  10.278   0.758 -1.1554  0.0206 -0.6093
  802MOL0     N 8186   3.362  10.398   0.710  0.1509  0.4069 -0.3337
  802MOL0     C 8187   4.311  10.653   0.260 -0.7317 -0.2751 -0.0709
  802MOL0     C 8188   4.451  10.643   0.235 -0.0291  0.6923 -0.7205
  802MOL0     C 8189   4.844  10.786   0.068  0.5129 -0.3553 -0.0827
  802MOL0     C 8190   4.826  10.784  -0.074 -0.5151 -0.0867  0.2995
  802MOL0     C 8191   4.931  10.807  -0.171  0.5292 -0.5371 -0.3887
  802MOL0     C 8192   5.058  10.837  -0.127  0.4227 -0.6027 -0.2153
  802MOL0     O 8193   5.171  10.851  -0.202  0.0989  0.9693 -0.2625
  802MOL0     C 8194   5.242  10.735  -0.235  0.1408 -0.0840 -0.6197
  802MOL0     C 8195   5.203  10.727  -0.384 -0.4077 -0.2962 -0.5084
  802MOL0     C 8196   5.283  10.605  -0.460  0.1353 -0.5885  0.9415
  802MOL0     C 8197   5.384  10.659  -0.567 -0.1170 -0.0070 -0.3076
  802MOL0     C 8198   5.460  10.776  -0.521 -0.0207  0.2683  0.6239
  802MOL0     C 8199   5.538  10.861  -0.478 -0.3346 -0.2777  0.2966
  802MOL0     C 8200   5.082  10.853   0.015  0.0076  0.2503  0.2438
  802MOL0     C 8201   4.978  10.823   0.104 -0.2622  0.0070 -0.5797
  802MOL0     C 8202   5.009  10.848   0.249 -0.5989 -0.2577  0.2090
  802MOL0     H 8203   4.459  10.766  -0.081 -1.3437  3.2471  1.8460
  802MOL0     H 8204   4.215  10.815  -0.028 -0.0964  2.3275  3.0918
  802MOL0     H 8205   3.979  10.849   0.076  2.0733  1.0631  0.5758
  802MOL0     H 8206   4.025  10.692   0.008 -0.2454  2.8324 -1.7340
  802MOL0     H 8207   3.841  10.604   0.175 -0.6046 -0.5691 -0.8954
  802MOL0     H 8208   3.770  10.728   0.069  0.3958  0.7018 -0.0474
  802MOL0     H 8209   3.838  10.889   0.264  2.0812 -0.8709  3.9383
  802MOL0     H 8210   3.853  10.751   0.361 -2.8173  1.9981  1.8706
  802MOL0     H 8211   3.633  10.817   0.389 -1.9080 -0.4127 -0.2341
  802MOL0     H 8212   3.592  10.834   0.214 -0.2758 -0.8283 -0.9347
  802MOL0     H 8213   3.618  10.594   0.172  1.7935  0.3091 -0.6323
  802MOL0     H 8214   3.683  10.574   0.335 -0.5458  1.9848  2.8864
  802MOL0     H 8215   3.427  10.695   0.383  4.1606  0.2089  1.3785
  802MOL0     H 8216   3.386  10.606   0.241  1.0137  1.7018 -1.3514
  802MOL0     H 8217   3.544  10.486   0.478 -1.2867  0.8293  1.8967
  802MOL0     H 8218   3.469  10.387   0.354 -1.0946  0.2774 -0.3265
  802MOL0     H 8219   3.311  10.573   0.532  0.2332 -1.3892  1.2635
  802MOL0     H 8220   3.235  10.463   0.410 -0.4615  0.7993  0.1139
  802MOL0     H 8221   3.304  10.184   0.457  4.5935 -1.8970 -1.0903
  802MOL0     H 8222   3.355  10.025   0.789  1.4478  0.6348  0.1096
  802MOL0     H 8223   3.277   9.993   0.624  0.3438  0.6086 -1.1656
  802MOL0     H 8224   3.500  10.000   0.531 -0.8674 -1.4610 -0.0044
  802MOL0     H 8225   3.581  10.037   0.687  0.1411  2.9883  0.3584
  802MOL0     H 8226   3.469   9.811   0.770 -0.1925 -1.3358  0.2237
  802MOL0     H 8227   3.608   9.800   0.667 -0.1211 -1.2841  3.1829
  802MOL0     H 8228   3.408   9.815   0.478 -1.1856  1.7558  3.0479
  802MOL0     H 8229   3.315   9.739   0.592 -0.8072 -1.1060 -1.7544
  802MOL0     H 8230   3.294   9.518   0.712 -2.2651  0.8873 -0.2582
  802MOL0     H 8231   3.145   9.329   0.647 -0.2619  1.9283 -0.4504
  802MOL0     H 8232   3.215   8.922   0.174  1.3408  0.9723  2.6105
  802MOL0     H 8233   3.061   8.808   0.017 -1.5198  2.6268 -2.9900
  802MOL0     H 8234   2.689   8.989  -0.094 -0.9820 -0.3730 -0.8842
  802MOL0     H 8235   2.800   8.898  -0.200  0.0147 -0.8411  0.4552
  802MOL0     H 8236   2.649   8.721  -0.209  1.8545 -0.7431  2.0927
  802MOL0     H 8237   2.584   8.770  -0.052  4.5842  2.2976  1.6475
  802MOL0     H 8238   2.431   8.819  -0.249 -0.4746 -0.2506  3.3089
  802MOL0     H 8239   2.457   8.965  -0.169  3.4192  0.9758  1.1221
  802MOL0     H 8240   2.623   8.861  -0.408 -1.7694 -2.6358  1.0660
  802MOL0     H 8241   2.648   9.019  -0.319  0.3905 -0.2050 -1.1365
  802MOL0     H 8242   2.555   9.054  -0.538  1.1202 -0.1742  0.6855
  802MOL0     H 8243   2.450   9.110  -0.414 -0.8768  1.1465 -3.2588
  802MOL0     H 8244   2.416   8.816  -0.528 -1.1234 -0.9688  0.5680
  802MOL0     H 8245   2.302   8.900  -0.447 -0.3010 -0.7052 -0.0916
  802MOL0     H 8246   2.314   8.885  -0.727  1.8093  1.0761 -2.0323
  802MOL0     H 8247   2.432   9.006  -0.700  0.3769  1.0531  1.6998
  802MOL0     H 8248   2.202   9.076  -0.761 -2.0385 -0.4363  0.1592
  802MOL0     H 8249   2.144   9.019  -0.613 -2.2677  1.5344 -1.2955
  802MOL0     H 8250   2.733   9.060   0.147  0.4717 -1.5175  0.8850
  802MOL0     H 8251   2.893   9.190   0.283 -1.4443  0.6879 -2.8868
  802MOL0     H 8252   3.360   9.294   0.295 -0.4708  2.5122 -1.3222
  802MOL0     H 8253   3.504   9.491   0.339  0.7267  1.1103  1.8754
  802MOL0     H 8254   4.280  10.628   0.361  0.2532 -1.8649 -0.1113
  802MOL0     H 8255   4.511  10.603   0.317 -1.1266 -0.5148 -0.4671
  802MOL0     H 8256   4.724  10.773  -0.110 -0.8755 -2.9337  1.8825
  802MOL0     H 8257   4.901  10.804  -0.276 -0.8420 -0.8702 -0.0092
  802MOL0     H 8258   5.208  10.653  -0.172 -0.9512  0.8747  0.1001
  802MOL0     H 8259   5.350  10.745  -0.227  0.3220 -1.1236 -1.6044
  802MOL0     H 8260   5.219  10.822  -0.436 -0.5667  1.0673  1.7668
  802MOL0     H 8261   5.094  10.716  -0.387 -0.4789  0.6218 -2.1212
  802MOL0     H 8262   5.209  10.547  -0.515 -0.2809  0.0543  0.8164
  802MOL0     H 8263   5.342  10.553  -0.384  1.9027  1.0073  0.7235
  802MOL0     H 8264   5.460  10.584  -0.590  3.8393  3.5924 -0.1547
  802MOL0     H 8265   5.331  10.670  -0.662  0.4075 -1.6566 -0.8252
  802MOL0     H 8266   5.621  10.926  -0.461  1.6467 -3.4507  4.8108
  802MOL0     H 8267   5.181  10.877   0.053  2.2434 -7.0686  0.6995
  802MOL0     H 8268   5.097  10.793   0.282  1.6230  1.5937 -2.1783
  802MOL0     H 8269   5.036  10.951   0.274  0.0968 -0.5521  0.7117
  802MOL0     H 8270   4.931  10.828   0.323  1.8519 -0.5661  2.8995
  803MOL0     O 8271   3.604   3.534   4.075  0.6681  0.8146 -0.0921
  803MOL0     C 8272   3.541   3.489   4.176 -0.6689 -0.5890  0.5771
  803MOL0     O 8273   3.591   3.481   4.305 -0.7883  0.4636 -0.8258
  803MOL0     C 8274   3.724   3.515   4.321 -0.0412 -0.1899  0.5209
  803MOL0     C 8275   3.826   3.447   4.256 -1.0470  0.0880 -0.0702
  803MOL0     C 8276   3.967   3.489   4.258 -0.0501 -0.2723  0.3031
  803MOL0     C 8277   3.995   3.604   4.324  0.4296 -0.5518 -0.4378
  803MOL0     O 8278   4.123   3.665   4.311 -0.1600 -0.2043 -0.4537
  803MOL0     C 8279   4.177   3.737   4.418  0.3341  0.2629  0.4245
  803MOL0     C 8280   4.329   3.723   4.414 -0.0768  0.3572  0.2973
  803MOL0     C 8281   4.391   3.587   4.387  0.1789  0.7929  0.4841
  803MOL0     C 8282   4.357   3.484   4.491 -0.0468  1.1883  0.5646
  803MOL0     C 8283   4.319   3.341   4.440 -1.0335 -0.9130  0.3441
  803MOL0     C 8284   4.337   3.217   4.522 -0.1289 -0.8377  0.0460
  803MOL0     C 8285   4.471   3.194   4.579 -0.3654  0.2488  0.5724
  803MOL0     C 8286   4.496   3.058   4.634 -0.5585 -0.7651  0.1204
  803MOL0     N 8287   4.512   2.956   4.532  0.4675 -0.2783 -0.0512
  803MOL0     C 8288   4.604   2.955   4.428  0.3278 -0.6105 -0.2772
  803MOL0     C 8289   4.559   2.872   4.340 -0.2341 -0.1388  1.0163
  803MOL0     C 8290   4.628   2.818   4.227  0.0217 -0.1075  0.0451
  803MOL0     C 8291   4.570   2.860   4.086  0.7624 -0.0399  0.8064
  803MOL0     C 8292   4.485   2.752   4.016  0.2438  0.2035 -0.5667
  803MOL0     C 8293   4.505   2.755   3.860 -0.1228  0.1922  0.3194
  803MOL0     O 8294   4.476   2.881   3.809  0.4425 -0.4862 -0.5490
  803MOL0     C 8295   4.533   2.901   3.690  0.3097  0.2677  0.9580
  803MOL0     C 8296   4.587   3.028   3.663  0.3611 -0.3210 -0.3332
  803MOL0     C 8297   4.664   3.053   3.546 -0.5932  0.3747 -0.0775
  803MOL0     C 8298   4.678   2.954   3.452  0.8053 -0.0558 -0.5435
  803MOL0     C 8299   4.740   2.984   3.324 -0.4338  0.1090  0.2387
  803MOL0     O 8300   4.691   2.926   3.204 -0.8223 -0.1399  0.5463
  803MOL0     C 8301   4.750   2.954   3.084 -1.2019 -0.5611  1.2593
  803MOL0     C 8302   4.890   2.952   3.056 -0.4071  0.3715  0.4618
  803MOL0     C 8303   4.943   2.973   2.926  0.9591  0.2298  0.5217
  803MOL0     C 8304   4.850   3.014   2.827 -0.4251 -0.7364  0.5145
  803MOL0     O 8305   4.882   3.051   2.703 -0.0094 -0.3065 -0.0501
  803MOL0     C 8306   4.919   3.188   2.685  0.2663 -0.5616 -1.0595
  803MOL0     C 8307   4.864   3.253   2.560 -0.2652 -0.3272 -0.0863
  803MOL0     C 8308   4.908   3.178   2.441 -0.3977  0.0755  0.1983
  803MOL0     C 8309   4.805   3.218   2.340 -0.3363  0.7536 -0.2811
  803MOL0     C 8310   4.816   3.153   2.203 -0.2732  0.1947  0.3115
  803MOL0     C 8311   4.705   3.216   2.110  0.6266  0.3483 -1.1273
  803MOL0     C 8312   4.693   3.133   1.983  0.4356  0.1869  0.0516
  803MOL0     C 8313   4.548   3.142   1.937 -0.1989  0.3199  0.1202
  803MOL0    Cl 8314   4.541   3.132   1.761 -0.2311 -0.2544 -0.2017
  803MOL0     C 8315   4.713   3.028   2.847 -0.4842  0.6082 -0.3621
  803MOL0     C 8316   4.669   2.981   2.970  0.4846 -0.9476 -0.4568
  803MOL0     O 8317   4.818   3.077   3.333 -0.4660 -0.7984  0.0323
  803MOL0     C 8318   4.632   2.821   3.483  0.8394 -0.1851 -0.6011
  803MOL0     C 8319   4.561   2.794   3.598 -0.8701 -0.3172 -0.6188
  803MOL0     N 8320   4.441   2.829   4.381 -0.6184  1.0978 -0.2333
  803MOL0     N 8321   4.414   2.868   4.504  0.0430  0.1386 -0.7537
  803MOL0     C 8322   3.890   3.668   4.383 -0.0250 -0.6094  0.0103
  803MOL0     C 8323   3.766   3.622   4.394 -0.2166  0.4975  0.5485
  803MOL0     C 8324   3.396   3.452   4.157  0.1908 -0.2529  0.1128
  803MOL0     C 8325   3.323   3.509   4.050  0.4510 -0.6719  0.3819
  803MOL0     C 8326   3.195   3.483   4.029 -0.2651  0.1700  0.8295
  803MOL0     C 8327   3.121   3.406   4.110 -0.2226  0.0373 -0.2466
  803MOL0     O 8328   2.995   3.366   4.072  0.2633  0.2639  0.1285
  803MOL0     C 8329   2.895   3.338   4.170  1.1560  0.2949  0.4190
  803MOL0     C 8330   2.754   3.355   4.126 -0.2614  0.1251 -0.0588
  803MOL0     C 8331   2.645   3.291   4.209 -0.4233  0.0790  0.7239
  803MOL0     C 8332   2.512   3.313   4.137  0.4591  0.5972  0.1215
  803MOL0     C 8333   2.490   3.245   4.011  0.3793  0.2430  0.3771
  803MOL0     C 8334   2.471   3.186   3.903 -0.0127  0.2143 -0.1291
  803MOL0     C 8335   3.179   3.350   4.221 -0.4394  0.1689  0.2537
  803MOL0     C 8336   3.321   3.368   4.242  0.5619  0.3858 -0.7676
  803MOL0     C 8337   3.368   3.276   4.348 -0.2591 -0.2300 -0.1849
  803MOL0     H 8338   3.785   3.371   4.190 -0.1723 -0.7010  0.2741
  803MOL0     H 8339   4.035   3.447   4.184 -2.1590 -0.2310 -1.7826
  803MOL0     H 8340   4.163   3.844   4.405  2.4887  0.4484 -0.9103
  803MOL0     H 8341   4.149   3.692   4.514  1.5914 -0.2852  0.5662
  803MOL0     H 8342   4.367   3.757   4.511  2.5915  2.4723 -1.3579
  803MOL0     H 8343   4.371   3.796   4.344  2.5836  0.1936  1.5960
  803MOL0     H 8344   4.497   3.607   4.370  0.1606  1.0841  0.7044
  803MOL0     H 8345   4.348   3.549   4.294 -2.2666  1.6932  1.1619
  803MOL0     H 8346   4.444   3.484   4.557  0.9077 -0.5557 -0.6151
  803MOL0     H 8347   4.270   3.518   4.548  1.0059  3.8546  0.7559
  803MOL0     H 8348   4.216   3.356   4.406  0.1866  2.4221 -2.5520
  803MOL0     H 8349   4.386   3.325   4.355 -0.3270  1.1875  0.4524
  803MOL0     H 8350   4.271   3.210   4.608 -1.8700 -3.2238 -1.3689
  803MOL0     H 8351   4.304   3.130   4.465  2.1699 -1.5853 -0.2430
  803MOL0     H 8352   4.478   3.265   4.662 -2.1253  0.4117  0.6315
  803MOL0     H 8353   4.550   3.203   4.504 -1.2879  0.3116 -0.4285
  803MOL0     H 8354   4.589   3.060   4.692  0.9841 -0.2417 -2.2425
  803MOL0     H 8355   4.424   3.020   4.707  0.4067  1.0330  2.1089
  803MOL0     H 8356   4.699   3.008   4.416  0.3698 -1.0520 -2.0315
  803MOL0     H 8357   4.727   2.863   4.238  0.7318 -1.8789  1.3084
  803MOL0     H 8358   4.637   2.711   4.244 -3.0782 -0.2647  1.3423
  803MOL0     H 8359   4.507   2.948   4.101  0.2645  0.1000 -1.7316
  803MOL0     H 8360   4.650   2.888   4.017 -3.2502  4.4540 -2.6948
  803MOL0     H 8361   4.377   2.760   4.033 -0.0971  0.9424 -2.7949
  803MOL0     H 8362   4.510   2.653   4.055 -1.5304  0.4480  1.3627
  803MOL0     H 8363   4.441   2.680   3.813 -0.3379  1.4588 -1.5212
  803MOL0     H 8364   4.606   2.721   3.835 -0.7391 -1.3669 -0.1941
  803MOL0     H 8365   4.585   3.108   3.737 -1.2211  0.9690 -1.7028
  803MOL0     H 8366   4.711   3.148   3.523  1.2597 -0.3206  0.6067
  803MOL0     H 8367   4.958   2.946   3.141 -1.1717  2.2579  1.2916
  803MOL0     H 8368   5.051   2.976   2.919  0.9736 -0.8416  0.1522
  803MOL0     H 8369   4.902   3.251   2.773 -2.5626 -3.4222  0.7007
  803MOL0     H 8370   5.025   3.211   2.674 -0.7100  6.9129 -0.1632
  803MOL0     H 8371   4.756   3.248   2.574 -0.1031 -0.2151  1.3215
  803MOL0     H 8372   4.899   3.356   2.574 -0.5942 -0.4626  2.1442
  803MOL0     H 8373   5.008   3.196   2.399 -0.2059 -0.9111  0.2130
  803MOL0     H 8374   4.889   3.072   2.459 -0.8119  0.3625  1.6076
  803MOL0     H 8375   4.812   3.327   2.336  3.3222  0.6430 -0.6896
  803MOL0     H 8376   4.702   3.198   2.370 -0.0654 -2.1670 -1.0126
  803MOL0     H 8377   4.817   3.043   2.207 -0.7504  0.0901 -1.4676
  803MOL0     H 8378   4.910   3.188   2.161 -1.0168  1.4666 -0.3525
  803MOL0     H 8379   4.615   3.218   2.172  1.4424  1.1352  0.0743
  803MOL0     H 8380   4.731   3.318   2.082 -1.3823  1.1816 -0.1269
  803MOL0     H 8381   4.719   3.028   2.002  0.3623  0.0807 -0.4375
  803MOL0     H 8382   4.763   3.159   1.903 -0.1861 -2.2014 -1.3717
  803MOL0     H 8383   4.478   3.063   1.967 -0.3644  1.1993  2.2246
  803MOL0     H 8384   4.504   3.239   1.963 -1.1127 -0.7549  2.9357
  803MOL0     H 8385   4.637   3.061   2.777 -1.5621 -2.9983 -1.1090
  803MOL0     H 8386   4.563   2.977   2.992  0.2722  2.1326 -0.4461
  803MOL0     H 8387   4.650   2.742   3.411  2.0151 -0.4515 -0.0429
  803MOL0     H 8388   4.530   2.693   3.622 -2.3160 -0.0495 -1.2656
  803MOL0     H 8389   3.914   3.762   4.430  0.5914  0.3797 -2.1618
  803MOL0     H 8390   3.700   3.693   4.443  0.9745  0.7960  1.7876
  803MOL0     H 8391   3.378   3.574   3.982 -1.3654 -2.3104 -2.8891
  803MOL0     H 8392   3.135   3.523   3.948 -1.3664  1.0901  2.0549
  803MOL0     H 8393   2.902   3.404   4.257 -1.9722  0.5539  0.5857
  803MOL0     H 8394   2.895   3.234   4.204  0.7491  0.3803  0.6873
  803MOL0     H 8395   2.742   3.317   4.024  0.9380  0.1528 -0.2341
  803MOL0     H 8396   2.737   3.462   4.113  0.5602  0.0178 -2.5890
  803MOL0     H 8397   2.647   3.346   4.304 -0.8242  1.9635 -0.2916
  803MOL0     H 8398   2.662   3.185   4.226  0.4340  0.0838 -0.0391
  803MOL0     H 8399   2.429   3.270   4.194 -0.8167  0.6976 -1.5810
  803MOL0     H 8400   2.495   3.421   4.135 -0.8903  0.4122  0.6708
  803MOL0     H 8401   2.451   3.153   3.803  0.5215  1.3436 -0.6333
  803MOL0     H 8402   3.130   3.278   4.286  0.7504 -2.5810 -1.6932
  803MOL0     H 8403   3.476   3.273   4.368 -0.6042  1.4539  2.4590
  803MOL0     H 8404   3.318   3.307   4.440 -2.1838  3.4124 -2.2420
  803MOL0     H 8405   3.337   3.176   4.319  0.8152 -1.1547  1.6693
  804MOL0     O 8406  11.352  10.354   6.407 -0.0554  0.1466 -0.8618
  804MOL0     C 8407  11.466  10.375   6.455  0.5199 -0.9804 -0.0344
  804MOL0     O 8408  11.591  10.375   6.389  0.2375  0.0449  0.1927
  804MOL0     C 8409  11.601  10.321   6.260 -0.1048  0.5673  1.2431
  804MOL0     C 8410  11.530  10.361   6.158  0.0897 -0.1004  0.2822
  804MOL0     C 8411  11.547  10.311   6.026  0.1265  0.5017 -0.5914
  804MOL0     C 8412  11.650  10.210   5.997 -0.0226 -0.2194  0.5334
  804MOL0     O 8413  11.679  10.185   5.866 -0.2343  0.2433 -0.1811
  804MOL0     C 8414  11.757  10.066   5.842  0.1985 -0.3300 -0.0835
  804MOL0     C 8415  11.787  10.053   5.691  0.7357 -0.2904 -0.3634
  804MOL0     C 8416  11.859   9.917   5.666 -0.3482  0.3711  0.5543
  804MOL0     C 8417  11.910   9.925   5.523  0.5972 -0.1678  0.8361
  804MOL0     C 8418  11.817   9.889   5.407 -1.1117  0.3114  1.1514
  804MOL0     C 8419  11.729   9.761   5.426  0.4011 -0.0278 -0.6182
  804MOL0     C 8420  11.797   9.631   5.405 -0.2873  1.0873  0.5319
  804MOL0     C 8421  11.697   9.528   5.376 -0.3072  0.2748  0.0233
  804MOL0     N 8422  11.761   9.404   5.406  0.3531  0.5531 -0.2677
  804MOL0     C 8423  11.867   9.355   5.335  0.7059  0.1114  0.3376
  804MOL0     C 8424  11.918   9.251   5.399 -0.0412  0.7187 -0.2061
  804MOL0     C 8425  12.047   9.183   5.371  0.3728  0.0393  0.8760
  804MOL0     C 8426  12.163   9.245   5.458  0.0863  0.1243 -0.2483
  804MOL0     C 8427  12.298   9.228   5.387  0.7005  0.1749 -0.9924
  804MOL0     C 8428  12.348   9.081   5.414 -0.0359 -0.0406  0.4302
  804MOL0     O 8429  12.413   9.066   5.534 -0.0715 -0.0636  0.3755
  804MOL0     C 8430  12.539   9.119   5.556  0.6026  0.0339 -0.2080
  804MOL0     C 8431  12.614   9.193   5.457 -0.5399 -0.5395 -0.2789
  804MOL0     C 8432  12.747   9.235   5.486 -0.3576  0.3558  1.0471
  804MOL0     C 8433  12.819   9.188   5.593  1.5990 -0.3909  0.3145
  804MOL0     C 8434  12.963   9.229   5.621  0.0852 -0.8285 -0.8163
  804MOL0     O 8435  13.007   9.169   5.734 -0.4156 -0.5964  0.7570
  804MOL0     C 8436  13.144   9.170   5.756 -0.5292  1.4592 -0.5733
  804MOL0     C 8437  13.218   9.283   5.801 -0.4857  0.0007  0.2020
  804MOL0     C 8438  13.358   9.282   5.841  0.6464  0.5391  0.2084
  804MOL0     C 8439  13.416   9.158   5.837  0.5264  0.0398 -1.4984
  804MOL0     O 8440  13.553   9.170   5.881 -0.0183 -0.3660  0.7815
  804MOL0     C 8441  13.618   9.059   5.947 -0.3260  0.5315  0.1224
  804MOL0     C 8442  13.759   9.045   5.895 -0.5468 -0.4134 -0.7829
  804MOL0     C 8443  13.788   9.029   5.743 -0.7245  1.2039  1.0499
  804MOL0     C 8444  13.681   8.937   5.677  0.3498  1.2916 -0.1354
  804MOL0     C 8445  13.737   8.850   5.564 -0.6093  0.5262  0.1664
  804MOL0     C 8446  13.625   8.742   5.526 -0.3488  1.3794 -0.1714
  804MOL0     C 8447  13.693   8.651   5.414 -0.8855 -0.1481  0.5722
  804MOL0     C 8448  13.620   8.512   5.377 -0.1404  0.7242  0.3187
  804MOL0    Cl 8449  13.604   8.428   5.519  0.2919  0.5964  0.0613
  804MOL0     C 8450  13.349   9.040   5.807 -0.2587  0.5887 -0.5920
  804MOL0     C 8451  13.214   9.046   5.759 -0.4181  0.4537  0.2845
  804MOL0     O 8452  13.031   9.283   5.533  0.5357  0.4122  0.7563
  804MOL0     C 8453  12.745   9.102   5.678 -0.0868  1.1023 -0.2510
  804MOL0     C 8454  12.611   9.069   5.668 -0.1615 -0.5159  0.2422
  804MOL0     N 8455  11.841   9.239   5.511 -0.2451  0.7227 -0.3885
  804MOL0     N 8456  11.741   9.323   5.509 -0.4430  0.4609  0.1710
  804MOL0     C 8457  11.722  10.162   6.106 -0.2456 -0.3957 -0.6283
  804MOL0     C 8458  11.695  10.224   6.238  0.2681  0.3090  0.1876
  804MOL0     C 8459  11.478  10.404   6.595 -0.3516 -0.0779 -0.9949
  804MOL0     C 8460  11.601  10.464   6.646 -0.1875  0.5607 -0.2640
  804MOL0     C 8461  11.616  10.515   6.774  0.8975 -0.7712 -0.4088
  804MOL0     C 8462  11.508  10.492   6.864  0.1370  0.2189 -0.5710
  804MOL0     O 8463  11.499  10.557   6.986 -0.6537 -0.4977 -0.0572
  804MOL0     C 8464  11.598  10.541   7.091  0.1007 -0.6435  0.0460
  804MOL0     C 8465  11.632  10.397   7.106 -0.1521  0.4886 -0.2340
  804MOL0     C 8466  11.711  10.378   7.234  0.1112  0.2158 -0.8411
  804MOL0     C 8467  11.787  10.247   7.211  0.2614  0.2427  0.2912
  804MOL0     C 8468  11.850  10.177   7.324 -1.4024  0.9356 -0.1977
  804MOL0     C 8469  11.915  10.128   7.417 -0.6228  0.1918  0.6408
  804MOL0     C 8470  11.403  10.404   6.824  0.4038  0.1099 -0.1230
  804MOL0     C 8471  11.383  10.372   6.693  1.1149  0.5365 -0.1007
  804MOL0     C 8472  11.255  10.293   6.651  0.8714 -0.6968 -0.3718
  804MOL0     H 8473  11.449  10.429   6.183  0.7812  1.1534 -0.7493
  804MOL0     H 8474  11.487  10.354   5.946 -0.4273  1.2690  0.2139
  804MOL0     H 8475  11.849  10.076   5.900  0.4129 -0.2124 -0.4376
  804MOL0     H 8476  11.706   9.980   5.887 -1.3088  1.5375  1.9549
  804MOL0     H 8477  11.857  10.135   5.677 -0.1698  0.3191 -1.4596
  804MOL0     H 8478  11.695  10.073   5.635 -1.9594  0.0726  3.7378
  804MOL0     H 8479  11.796   9.829   5.679  0.5610 -0.3457  0.1729
  804MOL0     H 8480  11.940   9.895   5.737 -0.0112 -5.0389 -1.0832
  804MOL0     H 8481  11.949  10.027   5.516  0.7114 -0.2905 -0.8780
  804MOL0     H 8482  11.994   9.855   5.512 -0.2584 -0.8556 -2.2405
  804MOL0     H 8483  11.755   9.976   5.383 -1.9435 -0.4492  0.4361
  804MOL0     H 8484  11.880   9.859   5.322 -0.2719 -3.0317  2.8175
  804MOL0     H 8485  11.685   9.768   5.526 -2.0222  1.1565 -1.6797
  804MOL0     H 8486  11.640   9.781   5.365 -1.1680  1.5878  2.0143
  804MOL0     H 8487  11.867   9.599   5.482  4.1270  2.9711 -2.3186
  804MOL0     H 8488  11.868   9.652   5.324  2.5475 -2.1791  1.9243
  804MOL0     H 8489  11.604   9.539   5.433 -0.0382 -2.2406  1.0665
  804MOL0     H 8490  11.684   9.529   5.267  2.5697  0.7415 -0.3966
  804MOL0     H 8491  11.920   9.400   5.252 -1.6577  1.3136 -0.5911
  804MOL0     H 8492  12.026   9.077   5.382 -1.8543  0.5215  1.8305
  804MOL0     H 8493  12.081   9.186   5.267 -2.5769  0.2063 -0.1730
  804MOL0     H 8494  12.160   9.354   5.462  3.5892  0.5047 -2.8777
  804MOL0     H 8495  12.163   9.198   5.557 -0.0557 -1.1131 -0.8175
  804MOL0     H 8496  12.380   9.287   5.429  1.1139 -0.7585 -0.4600
  804MOL0     H 8497  12.284   9.260   5.284 -1.6658 -1.6616 -1.3237
  804MOL0     H 8498  12.412   9.047   5.332  0.1231 -1.1702  1.0075
  804MOL0     H 8499  12.268   9.006   5.415  0.3440 -0.7475 -3.5376
  804MOL0     H 8500  12.566   9.237   5.370 -1.0978  1.4499  0.9553
  804MOL0     H 8501  12.796   9.315   5.433  0.5970 -0.6724  0.3237
  804MOL0     H 8502  13.173   9.381   5.801 -1.7132 -0.5038 -1.3558
  804MOL0     H 8503  13.415   9.369   5.873  4.0632 -2.1295  2.1874
  804MOL0     H 8504  13.611   9.072   6.055  0.0646  0.6481  0.1348
  804MOL0     H 8505  13.581   8.963   5.910  3.3548 -0.3283 -1.7916
  804MOL0     H 8506  13.813   9.135   5.926 -2.1058  0.2594  0.1271
  804MOL0     H 8507  13.807   8.957   5.939  0.2407  1.0959  1.5744
  804MOL0     H 8508  13.799   9.126   5.694 -3.0955  2.5459  2.9401
  804MOL0     H 8509  13.889   8.987   5.741  0.3964  3.7672 -0.9510
  804MOL0     H 8510  13.590   8.984   5.638 -2.4685 -2.2349  1.5891
  804MOL0     H 8511  13.654   8.860   5.749  0.8378  2.7806  1.7297
  804MOL0     H 8512  13.819   8.789   5.602 -1.9713  0.1412  2.6514
  804MOL0     H 8513  13.764   8.906   5.473 -0.5857  2.4248  1.2864
  804MOL0     H 8514  13.597   8.684   5.614 -0.3216  0.1302 -0.9622
  804MOL0     H 8515  13.539   8.796   5.486 -2.6612 -1.4637  0.6226
  804MOL0     H 8516  13.799   8.635   5.436  0.4174  1.7182 -3.4467
  804MOL0     H 8517  13.687   8.715   5.326 -2.3877  1.0717  1.5081
  804MOL0     H 8518  13.520   8.538   5.342  1.0780  2.3607 -2.3380
  804MOL0     H 8519  13.666   8.466   5.289  1.1400  3.1017 -0.3659
  804MOL0     H 8520  13.393   8.942   5.822  0.3381  0.8828 -0.3382
  804MOL0     H 8521  13.163   8.961   5.717 -0.6887  2.0364 -2.9247
  804MOL0     H 8522  12.800   9.054   5.759 -1.7752  0.2279  0.4187
  804MOL0     H 8523  12.578   9.016   5.758  1.2627 -0.0116  1.1062
  804MOL0     H 8524  11.809  10.098   6.104  0.6349  0.7815 -2.2811
  804MOL0     H 8525  11.747  10.189   6.327  2.2667  0.1525 -0.9953
  804MOL0     H 8526  11.689  10.493   6.590 -0.6251  3.1100  0.2723
  804MOL0     H 8527  11.700  10.575   6.809  0.6402  0.0835 -1.2195
  804MOL0     H 8528  11.553  10.571   7.186  0.9903  1.8906 -0.2409
  804MOL0     H 8529  11.695  10.592   7.085 -0.6719  0.8839 -0.0237
  804MOL0     H 8530  11.689  10.361   7.020  0.3411 -0.1831  0.3661
  804MOL0     H 8531  11.541  10.337   7.113  0.2266 -0.0879 -0.1819
  804MOL0     H 8532  11.642  10.360   7.317  4.8143  3.4195  4.4737
  804MOL0     H 8533  11.773  10.465   7.253  1.4555 -0.5413 -1.6386
  804MOL0     H 8534  11.730  10.166   7.165  0.4488 -0.2639  0.9360
  804MOL0     H 8535  11.864  10.270   7.137  0.5781 -0.3637  0.4197
  804MOL0     H 8536  11.967  10.076   7.495 -0.5709  0.2728  0.6603
  804MOL0     H 8537  11.324  10.390   6.897 -1.4656  1.4043 -1.7419
  804MOL0     H 8538  11.193  10.283   6.741  1.3918  1.7831  0.3286
  804MOL0     H 8539  11.188  10.342   6.580 -2.0928 -1.8156  1.4376
  804MOL0     H 8540  11.276  10.191   6.615  0.7323 -0.0479 -2.4260
  805MOL0     O 8541  10.587   1.922   8.032 -0.1306 -1.1509 -0.1147
  805MOL0     C 8542  10.619   1.952   7.916 -0.2224  0.3962  0.5748
  805MOL0     O 8543  10.569   2.062   7.847  0.6022 -0.4106 -0.3482
  805MOL0     C 8544  10.490   2.142   7.921 -0.2999 -0.8195  0.3983
  805MOL0     C 8545  10.543   2.261   7.969  0.6298  0.6459 -0.3003
  805MOL0     C 8546  10.455   2.359   8.030 -0.8257  0.2175  0.4355
  805MOL0     C 8547  10.320   2.321   8.049  0.7936  0.5897 -0.3438
  805MOL0     O 8548  10.227   2.393   8.119 -0.7881  0.5386 -0.7684
  805MOL0     C 8549  10.250   2.535   8.142 -1.2529  0.9791 -0.2218
  805MOL0     C 8550  10.135   2.591   8.221  0.7175  0.2803  0.3721
  805MOL0     C 8551  10.125   2.742   8.218  0.3780  0.5672  0.0652
  805MOL0     C 8552  10.005   2.786   8.306  0.0934 -0.6502  0.2092
  805MOL0     C 8553   9.944   2.925   8.260  0.3334 -0.7662 -0.2608
  805MOL0     C 8554   9.825   2.965   8.343  0.1832 -0.2644  0.3127
  805MOL0     C 8555   9.847   2.993   8.500  0.6416 -0.7118 -0.4309
  805MOL0     C 8556   9.964   3.093   8.511 -0.2495 -0.0598  0.3843
  805MOL0     N 8557   9.959   3.152   8.640 -0.9445  0.1429 -0.6034
  805MOL0     C 8558   9.949   3.082   8.763 -0.5354 -1.1297  0.7752
  805MOL0     C 8559   9.983   3.171   8.855 -0.2652  0.2809 -0.6902
  805MOL0     C 8560  10.007   3.156   9.008 -0.2697  0.1748  0.1430
  805MOL0     C 8561  10.153   3.146   9.028 -0.9246 -0.5083 -0.1975
  805MOL0     C 8562  10.189   3.085   9.172 -0.3138  0.7967 -0.5126
  805MOL0     C 8563  10.331   3.080   9.217  0.2871  0.1692 -0.2590
  805MOL0     O 8564  10.370   3.216   9.231  0.2436  0.7090  0.3429
  805MOL0     C 8565  10.501   3.252   9.252  0.0956 -0.4199 -1.0787
  805MOL0     C 8566  10.516   3.393   9.276 -0.7027  0.5267  0.4758
  805MOL0     C 8567  10.640   3.447   9.292  1.3821 -1.1735  0.9051
  805MOL0     C 8568  10.748   3.361   9.316 -0.4868 -0.9807 -0.1056
  805MOL0     C 8569  10.875   3.423   9.363  0.5341 -1.4588 -0.0391
  805MOL0     O 8570  10.881   3.561   9.371 -0.0293  0.8951 -0.4373
  805MOL0     C 8571  10.953   3.611   9.475  1.2252  0.1167 -1.0758
  805MOL0     C 8572  11.070   3.676   9.457 -0.8723  1.0597 -0.3588
  805MOL0     C 8573  11.155   3.720   9.569 -0.6938  0.0946 -0.1313
  805MOL0     C 8574  11.093   3.729   9.692  0.1030 -0.0610 -0.0818
  805MOL0     O 8575  11.153   3.772   9.816 -0.4554 -1.1318 -0.6431
  805MOL0     C 8576  11.268   3.854   9.808  0.1866 -0.0775 -0.0072
  805MOL0     C 8577  11.271   3.932   9.941  0.5348  0.6253 -0.1192
  805MOL0     C 8578  11.150   4.029   9.965  0.3382 -0.7323 -0.2228
  805MOL0     C 8579  11.153   4.149   9.865  0.8309  0.5172 -0.6957
  805MOL0     C 8580  11.043   4.251   9.875 -0.1541  0.0678 -0.9102
  805MOL0     C 8581  11.007   4.300  10.016 -0.0977 -0.1737 -0.0295
  805MOL0     C 8582  10.900   4.414  10.033  0.2587  0.9523 -0.4187
  805MOL0     C 8583  10.934   4.559   9.985  0.2335 -0.0710 -0.1832
  805MOL0    Cl 8584  10.915   4.681  10.119 -0.1697 -0.3386  0.1477
  805MOL0     C 8585  10.957   3.695   9.701  0.3291  0.6296  0.3235
  805MOL0     C 8586  10.887   3.623   9.603  1.1992 -0.6137 -0.9683
  805MOL0     O 8587  10.962   3.348   9.394  0.0195 -0.1291  0.1547
  805MOL0     C 8588  10.733   3.227   9.309  1.7167  0.7478  0.3252
  805MOL0     C 8589  10.610   3.172   9.272 -0.7340 -0.0260  1.2213
  805MOL0     N 8590  10.022   3.286   8.792  0.5101  0.6281  0.1869
  805MOL0     N 8591  10.004   3.277   8.666  0.9114  0.0860  0.0346
  805MOL0     C 8592  10.271   2.194   8.010 -0.4494  0.0943 -0.4666
  805MOL0     C 8593  10.356   2.108   7.950  0.1324  0.5827  1.7278
  805MOL0     C 8594  10.711   1.859   7.852 -0.1060 -0.0562  0.2469
  805MOL0     C 8595  10.776   1.900   7.732  0.8081  0.4101 -0.1221
  805MOL0     C 8596  10.858   1.814   7.665 -0.2427 -0.6103  0.0805
  805MOL0     C 8597  10.893   1.688   7.705 -0.1354  0.7868  0.1131
  805MOL0     O 8598  10.976   1.618   7.622  0.7249  0.2955  0.0790
  805MOL0     C 8599  11.008   1.486   7.658  0.5842 -0.0041  0.9315
  805MOL0     C 8600  11.126   1.427   7.582  0.2540  0.6887 -0.2912
  805MOL0     C 8601  11.245   1.517   7.574 -0.3962  0.6861 -0.2649
  805MOL0     C 8602  11.339   1.489   7.453  0.0139  0.0018  0.2723
  805MOL0     C 8603  11.411   1.617   7.434 -0.6047  0.1838  0.8198
  805MOL0     C 8604  11.465   1.727   7.446 -0.1727 -0.6054  0.0442
  805MOL0     C 8605  10.822   1.640   7.815 -0.6067  0.0958 -0.0394
  805MOL0     C 8606  10.738   1.728   7.896  0.7354 -0.4966  0.5002
  805MOL0     C 8607  10.689   1.661   8.026 -0.1334  0.1164 -0.2064
  805MOL0     H 8608  10.644   2.291   7.944 -0.1337  1.9268 -2.0558
  805MOL0     H 8609  10.492   2.458   8.055  0.5361 -0.1782  0.0662
  805MOL0     H 8610  10.341   2.554   8.199 -0.9688  0.0363 -0.3442
  805MOL0     H 8611  10.264   2.596   8.052  0.5931  2.1650  0.8194
  805MOL0     H 8612  10.140   2.559   8.326  0.8857  1.3707  0.7016
  805MOL0     H 8613  10.047   2.541   8.178  0.9837 -0.5174  0.7283
  805MOL0     H 8614  10.102   2.770   8.115  2.3006 -2.0746 -1.1916
  805MOL0     H 8615  10.214   2.794   8.255 -0.5677  2.6130 -0.3768
  805MOL0     H 8616   9.921   2.715   8.307 -0.0434 -0.4972 -0.3547
  805MOL0     H 8617  10.043   2.798   8.408 -1.5111  2.0796  0.5834
  805MOL0     H 8618  10.005   3.014   8.277 -0.0517 -0.7158  0.9428
  805MOL0     H 8619   9.896   2.912   8.163 -0.7341 -0.0001  0.1538
  805MOL0     H 8620   9.787   3.054   8.293 -0.2247 -1.9404 -2.5857
  805MOL0     H 8621   9.756   2.880   8.333 -1.9268  1.6334 -3.7709
  805MOL0     H 8622   9.867   2.909   8.567  1.4125  0.8370  1.3540
  805MOL0     H 8623   9.762   3.038   8.553  0.4584 -2.5728  0.9588
  805MOL0     H 8624  10.061   3.045   8.495 -0.3565 -0.6884  1.5306
  805MOL0     H 8625   9.967   3.165   8.428 -0.8313 -1.1716 -0.6293
  805MOL0     H 8626   9.932   2.980   8.794 -0.8150 -1.2650  0.1891
  805MOL0     H 8627   9.973   3.243   9.064  2.0321  0.4658  1.2088
  805MOL0     H 8628   9.965   3.063   9.049 -0.0415  0.4019  0.8933
  805MOL0     H 8629  10.194   3.092   8.942  1.0469 -0.0201  0.3801
  805MOL0     H 8630  10.195   3.246   9.013 -0.6058 -0.6717 -0.4100
  805MOL0     H 8631  10.139   2.987   9.173  2.5809 -0.8058  1.3040
  805MOL0     H 8632  10.134   3.151   9.240  1.0238 -0.4535  1.9128
  805MOL0     H 8633  10.391   3.029   9.141  1.0388  0.2006  0.3000
  805MOL0     H 8634  10.327   3.026   9.312  1.9988 -0.6701 -0.6283
  805MOL0     H 8635  10.436   3.465   9.264 -1.0345  0.0875  0.0219
  805MOL0     H 8636  10.663   3.552   9.275 -0.6432 -1.1521 -2.4871
  805MOL0     H 8637  11.102   3.682   9.353  3.0062 -2.7472  0.3465
  805MOL0     H 8638  11.248   3.773   9.553 -1.3246  0.5477 -2.7827
  805MOL0     H 8639  11.357   3.791   9.804  1.1356  1.2616 -0.7251
  805MOL0     H 8640  11.267   3.935   9.735  1.1124 -1.5186 -1.6721
  805MOL0     H 8641  11.272   3.859  10.023  1.7685 -0.0912 -0.7512
  805MOL0     H 8642  11.369   3.979   9.947  1.5335 -1.4863  1.5351
  805MOL0     H 8643  11.057   3.972   9.952 -1.2027  1.5011  0.4531
  805MOL0     H 8644  11.161   4.076  10.063  0.3365  0.4871 -0.7979
  805MOL0     H 8645  11.151   4.111   9.762  3.2749 -1.9633  0.0400
  805MOL0     H 8646  11.253   4.191   9.877  0.8378  0.0012  1.4827
  805MOL0     H 8647  10.950   4.224   9.823  0.2486  1.7023 -2.5887
  805MOL0     H 8648  11.085   4.333   9.817  1.6298  0.7999  1.2868
  805MOL0     H 8649  10.974   4.215  10.076 -2.3876  2.0601  2.0922
  805MOL0     H 8650  11.101   4.341  10.054  0.4803  0.3836 -1.9536
  805MOL0     H 8651  10.880   4.419  10.140 -0.2032  0.3437 -0.4679
  805MOL0     H 8652  10.806   4.384   9.985  1.5666 -2.8877 -0.8789
  805MOL0     H 8653  11.040   4.547   9.959  0.1259  0.8995 -1.1602
  805MOL0     H 8654  10.881   4.574   9.891  0.0450 -0.4817 -0.1434
  805MOL0     H 8655  10.912   3.719   9.797  2.4918  1.0999  1.2863
  805MOL0     H 8656  10.786   3.585   9.609  0.3994  1.5120 -0.0885
  805MOL0     H 8657  10.814   3.156   9.327  0.8259  0.0356  1.7453
  805MOL0     H 8658  10.604   3.064   9.260  1.8344 -0.0655 -0.5523
  805MOL0     H 8659  10.167   2.164   8.019  0.2494 -1.9015  2.5947
  805MOL0     H 8660  10.320   2.013   7.912 -0.7248  2.8545 -4.3939
  805MOL0     H 8661  10.752   1.994   7.683  0.2640 -0.3683 -1.3951
  805MOL0     H 8662  10.918   1.841   7.578 -1.1584 -0.1465 -0.4180
  805MOL0     H 8663  10.923   1.417   7.650 -1.4959  2.4308  0.4786
  805MOL0     H 8664  11.033   1.481   7.765 -3.7799 -0.3217  2.1305
  805MOL0     H 8665  11.093   1.401   7.481 -3.6858 -0.6436  1.1443
  805MOL0     H 8666  11.158   1.335   7.632  2.1331  1.3129 -0.2527
  805MOL0     H 8667  11.305   1.505   7.664  0.1541  3.7092 -0.1017
  805MOL0     H 8668  11.216   1.623   7.575 -2.4841  0.2652  4.0574
  805MOL0     H 8669  11.401   1.406   7.488 -0.4539 -1.5526 -2.3420
  805MOL0     H 8670  11.290   1.465   7.358 -0.5514 -0.6734  0.7255
  805MOL0     H 8671  11.524   1.815   7.462 -1.6976  0.2414  1.2579
  805MOL0     H 8672  10.830   1.536   7.845 -3.1298  0.1613  1.0934
  805MOL0     H 8673  10.582   1.683   8.034  0.0772  0.6254  2.0668
  805MOL0     H 8674  10.710   1.554   8.022  1.0314  0.3442 -4.5893
  805MOL0     H 8675  10.744   1.697   8.113 -1.9898  3.5528 -0.2635
  806MOL0     O 8676   0.549   1.254   1.569 -0.2616  0.3752  0.5769
  806MOL0     C 8677   0.584   1.139   1.582 -0.3129  0.1614  0.0304
  806MOL0     O 8678   0.683   1.094   1.669  0.2499  0.3040  0.8755
  806MOL0     C 8679   0.707   1.152   1.784 -0.8449 -0.8040 -0.7130
  806MOL0     C 8680   0.609   1.201   1.871  0.0885  0.3124 -0.3885
  806MOL0     C 8681   0.645   1.244   2.003  0.1867  0.8622 -0.3848
  806MOL0     C 8682   0.773   1.254   2.043 -0.7557  0.0343 -0.4241
  806MOL0     O 8683   0.826   1.306   2.161  0.1562  0.7556  0.6696
  806MOL0     C 8684   0.743   1.397   2.236  0.2102 -0.0495  0.2061
  806MOL0     C 8685   0.825   1.450   2.347  0.4084 -0.6775 -0.6892
  806MOL0     C 8686   0.745   1.547   2.426 -0.6628  0.2747 -0.3288
  806MOL0     C 8687   0.831   1.608   2.530  0.5569  0.3325 -0.3427
  806MOL0     C 8688   0.765   1.731   2.604  0.2325 -1.1113 -0.2426
  806MOL0     C 8689   0.813   1.726   2.750  1.1459  0.5972  0.0643
  806MOL0     C 8690   0.745   1.836   2.840  0.4519 -0.1202 -0.1929
  806MOL0     C 8691   0.803   1.971   2.805  0.3209  0.6724 -0.6598
  806MOL0     N 8692   0.789   2.058   2.925  0.4568 -1.1490  0.4662
  806MOL0     C 8693   0.689   2.135   2.981  0.1710  0.8584 -0.2065
  806MOL0     C 8694   0.735   2.149   3.110  0.3684  0.1041 -0.1948
  806MOL0     C 8695   0.658   2.222   3.218 -0.4193  0.1413  1.0732
  806MOL0     C 8696   0.539   2.143   3.277 -0.0612  1.2481 -0.1224
  806MOL0     C 8697   0.463   2.227   3.391 -0.5724 -0.3550 -0.2052
  806MOL0     C 8698   0.542   2.253   3.521 -0.3705  0.1611  0.2135
  806MOL0     O 8699   0.536   2.134   3.597 -0.2688 -0.2532 -0.4675
  806MOL0     C 8700   0.624   2.108   3.702 -0.2491 -0.2319  0.0578
  806MOL0     C 8701   0.605   1.980   3.766 -0.0836  0.8785 -1.1622
  806MOL0     C 8702   0.688   1.942   3.872 -0.6862 -0.4138  0.8330
  806MOL0     C 8703   0.787   2.025   3.926 -0.3423  0.2563  0.1682
  806MOL0     C 8704   0.863   1.987   4.052 -0.5217 -1.0546 -0.0721
  806MOL0     O 8705   0.809   1.895   4.129  0.9194 -0.0190 -0.5254
  806MOL0     C 8706   0.859   1.848   4.246  0.6272 -0.4146 -0.1107
  806MOL0     C 8707   0.778   1.742   4.299  0.4299 -0.4700 -1.5932
  806MOL0     C 8708   0.806   1.678   4.419  0.5149 -0.3218  0.1203
  806MOL0     C 8709   0.919   1.717   4.493 -0.0028 -0.9364 -0.1044
  806MOL0     O 8710   0.959   1.650   4.605  0.5042  0.2778  0.1068
  806MOL0     C 8711   1.099   1.613   4.620  0.0315  0.3519  0.4116
  806MOL0     C 8712   1.122   1.471   4.562 -0.0809  0.5123  0.4708
  806MOL0     C 8713   1.101   1.470   4.411 -0.2641 -0.8075  0.4662
  806MOL0     C 8714   1.120   1.345   4.339 -1.0073 -0.6713  0.6112
  806MOL0     C 8715   1.152   1.368   4.181  0.9676  0.0752 -0.3332
  806MOL0     C 8716   1.170   1.230   4.122 -1.1530  1.0351  0.0350
  806MOL0     C 8717   1.255   1.219   4.005 -0.2818 -0.6079 -0.4411
  806MOL0     C 8718   1.197   1.257   3.878 -0.7137 -0.8385  0.4764
  806MOL0    Cl 8719   1.065   1.139   3.836  0.0635 -0.0047 -0.0431
  806MOL0     C 8720   0.995   1.824   4.436  0.2871 -0.6970  0.7710
  806MOL0     C 8721   0.971   1.887   4.310 -0.5277 -0.7924 -0.4513
  806MOL0     O 8722   0.947   2.078   4.088 -0.3652  1.9385  0.2461
  806MOL0     C 8723   0.810   2.147   3.850 -0.5126 -0.4026 -0.1981
  806MOL0     C 8724   0.737   2.188   3.744  0.5090 -0.6761 -0.1515
  806MOL0     N 8725   0.866   2.101   3.118 -0.5185 -0.6456 -0.5008
  806MOL0     N 8726   0.896   2.053   3.011  0.6695  0.6132  0.1858
  806MOL0     C 8727   0.872   1.202   1.956  0.5689 -0.8642 -0.2403
  806MOL0     C 8728   0.842   1.150   1.828  0.3146  1.0035 -0.5400
  806MOL0     C 8729   0.505   1.027   1.518 -1.2887 -0.1450  0.4569
  806MOL0     C 8730   0.525   0.896   1.562  0.5124 -0.0286  0.2151
  806MOL0     C 8731   0.470   0.790   1.487  0.3108  0.4497  0.0244
  806MOL0     C 8732   0.388   0.807   1.384  0.4529  0.3705 -0.2403
  806MOL0     O 8733   0.315   0.697   1.337 -0.9360  0.3508 -0.2404
  806MOL0     C 8734   0.209   0.716   1.244  0.3790  0.1496 -0.4606
  806MOL0     C 8735   0.133   0.579   1.237  0.0045  0.2049  0.1178
  806MOL0     C 8736   0.212   0.473   1.157  0.9411  0.2401 -1.3635
  806MOL0     C 8737   0.225   0.498   1.011 -0.2138  0.6555 -0.1687
  806MOL0     C 8738   0.270   0.374   0.941  0.2951 -0.8137  1.3220
  806MOL0     C 8739   0.316   0.285   0.879 -0.4427 -0.3749  1.2707
  806MOL0     C 8740   0.360   0.939   1.342  0.7132  0.1653 -0.0727
  806MOL0     C 8741   0.431   1.054   1.400 -0.2844  0.1836  0.3939
  806MOL0     C 8742   0.422   1.179   1.329 -0.1258  0.0593  0.4085
  806MOL0     H 8743   0.503   1.194   1.849  0.5900  0.3481 -3.0916
  806MOL0     H 8744   0.562   1.279   2.065  2.0353 -1.1091  3.6021
  806MOL0     H 8745   0.698   1.475   2.174  2.9023  1.1100 -0.4237
  806MOL0     H 8746   0.657   1.343   2.278 -1.0134 -0.9003 -3.1304
  806MOL0     H 8747   0.913   1.492   2.298 -0.0656  0.9821 -0.1949
  806MOL0     H 8748   0.852   1.374   2.421 -0.5229  0.7587  1.2334
  806MOL0     H 8749   0.663   1.489   2.471  0.4694  1.0142  2.9191
  806MOL0     H 8750   0.707   1.613   2.347 -2.7127 -1.6589 -1.0725
  806MOL0     H 8751   0.857   1.519   2.588 -0.0321 -1.4080 -2.5949
  806MOL0     H 8752   0.918   1.641   2.472  2.1953 -2.5015  0.3273
  806MOL0     H 8753   0.794   1.823   2.553  2.5607  0.1628  3.0719
  806MOL0     H 8754   0.658   1.710   2.599  0.7171 -4.7089  0.9963
  806MOL0     H 8755   0.792   1.630   2.798  1.0105  0.9326  0.6847
  806MOL0     H 8756   0.921   1.742   2.749  1.3336  0.1966  3.0389
  806MOL0     H 8757   0.761   1.809   2.945  1.6553 -2.2781 -0.8698
  806MOL0     H 8758   0.636   1.840   2.831  0.4455 -0.6856 -0.3807
  806MOL0     H 8759   0.909   1.961   2.779  0.5618 -0.3225  0.6156
  806MOL0     H 8760   0.753   2.013   2.717  1.6392  2.1234 -0.7632
  806MOL0     H 8761   0.589   2.161   2.949 -1.2857 -1.0836  2.3881
  806MOL0     H 8762   0.730   2.253   3.295 -1.0690 -0.1332  1.8133
  806MOL0     H 8763   0.625   2.319   3.180  2.0646  0.0763 -1.5713
  806MOL0     H 8764   0.469   2.122   3.196  1.0021 -3.8259 -0.0360
  806MOL0     H 8765   0.566   2.045   3.317 -1.5669  0.7122 -0.3761
  806MOL0     H 8766   0.362   2.187   3.404 -1.2818  1.3639 -0.1703
  806MOL0     H 8767   0.452   2.329   3.354  5.5046  1.8919  2.8317
  806MOL0     H 8768   0.498   2.328   3.587 -2.8479  0.0232 -1.1683
  806MOL0     H 8769   0.646   2.281   3.498 -0.6489  1.6106  0.6171
  806MOL0     H 8770   0.518   1.920   3.744 -2.4018  0.6788  5.9008
  806MOL0     H 8771   0.661   1.847   3.919  0.7817 -0.4149  1.7392
  806MOL0     H 8772   0.682   1.712   4.257  0.3728 -0.7761 -1.2452
  806MOL0     H 8773   0.726   1.611   4.447 -0.5142  0.6659 -0.3654
  806MOL0     H 8774   1.169   1.689   4.584 -0.9423  2.9521  3.5536
  806MOL0     H 8775   1.125   1.592   4.724 -1.7917 -1.4210  0.5750
  806MOL0     H 8776   1.223   1.432   4.576 -0.9668 -2.6344 -1.0592
  806MOL0     H 8777   1.061   1.397   4.614 -0.5238  0.9763  0.6294
  806MOL0     H 8778   0.997   1.490   4.384 -0.3647  1.1367  2.1147
  806MOL0     H 8779   1.163   1.555   4.381  0.4450 -0.5110  2.5657
  806MOL0     H 8780   1.037   1.279   4.365  1.2626 -4.3762 -0.7806
  806MOL0     H 8781   1.208   1.295   4.381  0.0303  0.4110 -0.2120
  806MOL0     H 8782   1.241   1.431   4.171  1.5223 -0.3859  1.3331
  806MOL0     H 8783   1.066   1.419   4.137 -1.2430 -0.0887  3.3915
  806MOL0     H 8784   1.208   1.160   4.197 -0.0738 -0.3760 -1.7064
  806MOL0     H 8785   1.073   1.185   4.099  0.8387 -5.1936  1.7470
  806MOL0     H 8786   1.301   1.120   3.999 -1.5589 -1.4751  2.1760
  806MOL0     H 8787   1.333   1.294   4.019 -0.7640 -0.2089  0.2030
  806MOL0     H 8788   1.150   1.356   3.883 -1.4102 -0.9683 -2.0127
  806MOL0     H 8789   1.281   1.258   3.809 -1.2174 -2.2926 -0.2010
  806MOL0     H 8790   1.082   1.860   4.490 -0.6360 -0.7327  2.3389
  806MOL0     H 8791   1.024   1.980   4.289 -1.9905 -0.2394 -1.8389
  806MOL0     H 8792   0.891   2.210   3.886  0.5374 -1.2087 -1.0629
  806MOL0     H 8793   0.754   2.285   3.699 -0.4435  1.1462  3.1465
  806MOL0     H 8794   0.974   1.193   1.993  0.1007 -6.4635  0.5919
  806MOL0     H 8795   0.921   1.106   1.768 -2.4728 -3.9276 -1.2095
  806MOL0     H 8796   0.582   0.866   1.650  1.9965  0.8927 -0.3842
  806MOL0     H 8797   0.507   0.692   1.516  0.3590  0.8786  1.4877
  806MOL0     H 8798   0.246   0.739   1.143  0.8759 -0.5952 -0.4594
  806MOL0     H 8799   0.141   0.795   1.275 -0.6922 -1.5500  1.7786
  806MOL0     H 8800   0.033   0.586   1.194  0.2441  0.4376 -0.4148
  806MOL0     H 8801   0.121   0.546   1.340 -0.4611 -1.0696 -0.3222
  806MOL0     H 8802   0.165   0.374   1.162 -1.1570  1.1043 -2.6683
  806MOL0     H 8803   0.310   0.466   1.205  0.5523  2.0663 -0.1985
  806MOL0     H 8804   0.125   0.517   0.972 -0.0336 -3.4297 -3.3451
  806MOL0     H 8805   0.305   0.569   0.989  0.6764 -0.3212 -0.1741
  806MOL0     H 8806   0.352   0.192   0.840  2.2663  1.0349  0.1670
  806MOL0     H 8807   0.308   0.940   1.247 -2.5513  0.0856  1.5852
  806MOL0     H 8808   0.361   1.164   1.240  2.7913 -2.4006 -1.3631
  806MOL0     H 8809   0.376   1.265   1.379  0.0117  1.4794 -1.7900
  806MOL0     H 8810   0.521   1.200   1.287  1.1795 -3.7713  1.1980
  807MOL0     O 8811   8.709   3.835   3.016  0.1032 -0.4274  0.7462
  807MOL0     C 8812   8.656   3.920   2.942 -0.1159  0.5454 -0.4411
  807MOL0     O 8813   8.677   4.055   2.947  0.4071 -0.2039 -0.5386
  807MOL0     C 8814   8.758   4.108   3.047  0.4048 -0.5536  0.5118
  807MOL0     C 8815   8.883   4.063   3.062 -0.7207  0.3672  0.8169
  807MOL0     C 8816   8.975   4.129   3.149 -0.1087 -0.2375 -0.4462
  807MOL0     C 8817   8.930   4.246   3.226 -0.6360  0.3622  0.2729
  807MOL0     O 8818   9.007   4.330   3.303 -0.0074  1.4693  0.0922
  807MOL0     C 8819   9.145   4.338   3.283  0.3081 -0.0451 -0.7856
  807MOL0     C 8820   9.174   4.372   3.135  0.6652 -0.7350  0.8863
  807MOL0     C 8821   9.148   4.516   3.101  0.3680 -0.0932  0.3807
  807MOL0     C 8822   9.248   4.621   3.151 -0.5374 -0.5393 -1.3253
  807MOL0     C 8823   9.235   4.757   3.094 -0.4066 -0.5379 -0.2292
  807MOL0     C 8824   9.302   4.874   3.171  0.5792 -0.0466  0.2932
  807MOL0     C 8825   9.457   4.860   3.188  0.8262 -0.7055  0.0888
  807MOL0     C 8826   9.525   4.902   3.061  0.6865  0.0210  0.1155
  807MOL0     N 8827   9.523   5.053   3.053 -0.6876 -0.4169 -0.1956
  807MOL0     C 8828   9.613   5.137   3.109  0.1327  0.0763 -0.3435
  807MOL0     C 8829   9.574   5.262   3.065  0.1040 -0.1085 -0.4067
  807MOL0     C 8830   9.621   5.399   3.111  0.6951 -0.9277 -0.0828
  807MOL0     C 8831   9.581   5.419   3.251  0.1009 -0.3083  0.0863
  807MOL0     C 8832   9.646   5.543   3.310  0.9436  0.3739  0.9052
  807MOL0     C 8833   9.629   5.574   3.453  0.4498 -0.6239 -0.9226
  807MOL0     O 8834   9.514   5.660   3.451  0.4354  0.1337 -0.6436
  807MOL0     C 8835   9.420   5.645   3.551  0.0703  0.6952 -0.4419
  807MOL0     C 8836   9.464   5.618   3.682  0.2085  0.4576  0.1002
  807MOL0     C 8837   9.379   5.611   3.784  0.3939  0.3062 -1.1037
  807MOL0     C 8838   9.241   5.620   3.762 -1.0768 -0.6907  0.5873
  807MOL0     C 8839   9.164   5.646   3.880 -0.2111 -0.4544 -0.4331
  807MOL0     O 8840   9.030   5.618   3.869  0.1439 -0.6882  0.1503
  807MOL0     C 8841   8.951   5.612   3.980  0.3587 -0.4277  0.4088
  807MOL0     C 8842   8.852   5.715   4.002 -0.5576  0.3271  1.0116
  807MOL0     C 8843   8.773   5.719   4.110 -0.5783 -0.5602 -1.4037
  807MOL0     C 8844   8.778   5.611   4.206  0.1019 -0.2663  0.4678
  807MOL0     O 8845   8.697   5.611   4.312 -0.2347 -0.1815  0.3827
  807MOL0     C 8846   8.757   5.550   4.433  0.2401 -0.3543  1.1413
  807MOL0     C 8847   8.870   5.628   4.488  0.2951  0.8613 -0.0093
  807MOL0     C 8848   8.930   5.573   4.613  0.5799  0.9590 -0.0868
  807MOL0     C 8849   9.026   5.439   4.596  0.6399  0.1570 -0.8501
  807MOL0     C 8850   9.149   5.441   4.694 -1.0709  0.3423  1.5681
  807MOL0     C 8851   9.122   5.443   4.849  0.2821  0.5486 -0.0435
  807MOL0     C 8852   9.245   5.421   4.929 -0.7465 -0.2704 -0.9003
  807MOL0     C 8853   9.295   5.277   4.919  0.3004 -0.0453  0.0146
  807MOL0    Cl 8854   9.166   5.177   4.990  0.1724 -0.2342  0.2425
  807MOL0     C 8855   8.882   5.517   4.181  0.4421 -0.1356 -0.1681
  807MOL0     C 8856   8.971   5.512   4.076 -0.6479  0.0220 -0.2975
  807MOL0     O 8857   9.220   5.679   3.983  0.1858 -0.6067  0.6250
  807MOL0     C 8858   9.195   5.639   3.629 -0.5706 -1.3614 -0.5739
  807MOL0     C 8859   9.284   5.645   3.526 -0.7332  0.3217  0.8145
  807MOL0     N 8860   9.478   5.254   2.969 -1.1780  0.7222  0.1069
  807MOL0     N 8861   9.456   5.125   2.956 -0.5570 -1.1136  0.4472
  807MOL0     C 8862   8.799   4.286   3.215  0.1940  0.0717 -0.1390
  807MOL0     C 8863   8.717   4.223   3.122  0.3023  0.0602  0.4171
  807MOL0     C 8864   8.556   3.865   2.851  1.0785 -0.0160 -0.8196
  807MOL0     C 8865   8.513   3.943   2.741 -0.9070  0.5431  0.6252
  807MOL0     C 8866   8.421   3.894   2.648 -0.3040 -0.9268  0.1512
  807MOL0     C 8867   8.358   3.772   2.663 -0.4646  0.6356 -0.6977
  807MOL0     O 8868   8.277   3.718   2.568 -0.1753  0.1438  0.1476
  807MOL0     C 8869   8.281   3.770   2.434 -0.0670 -0.7257  0.2548
  807MOL0     C 8870   8.179   3.880   2.410 -0.5139  0.6586  0.4435
  807MOL0     C 8871   8.036   3.822   2.420  0.8509  0.1209 -0.0233
  807MOL0     C 8872   7.925   3.938   2.386 -0.1152  0.5998 -0.3653
  807MOL0     C 8873   7.788   3.881   2.378 -0.2895  0.9188 -1.2300
  807MOL0     C 8874   7.668   3.845   2.373  1.0232 -1.1890  0.5261
  807MOL0     C 8875   8.404   3.694   2.774 -0.3168  0.4819 -0.0073
  807MOL0     C 8876   8.500   3.737   2.870  1.1793 -0.4054  0.9590
  807MOL0     C 8877   8.525   3.645   2.988  0.1718  0.3114  0.4067
  807MOL0     H 8878   8.927   4.000   2.985  0.8307  0.8482  1.2791
  807MOL0     H 8879   9.076   4.094   3.164 -1.1125 -3.3572 -0.3186
  807MOL0     H 8880   9.188   4.423   3.337  0.6727  0.3358 -1.6515
  807MOL0     H 8881   9.194   4.243   3.302  0.3452  0.0121 -0.6001
  807MOL0     H 8882   9.126   4.313   3.057  2.1592 -0.7139 -0.0822
  807MOL0     H 8883   9.280   4.349   3.121  0.0138 -2.1310 -2.7063
  807MOL0     H 8884   9.047   4.543   3.135 -0.8955 -2.7191 -0.9531
  807MOL0     H 8885   9.152   4.530   2.993  1.3166 -1.7459  0.1613
  807MOL0     H 8886   9.216   4.637   3.254 -0.7623  2.1887 -1.7316
  807MOL0     H 8887   9.351   4.584   3.146 -0.8601 -1.6365 -0.1859
  807MOL0     H 8888   9.273   4.757   2.991 -0.4609  1.8543 -0.2980
  807MOL0     H 8889   9.132   4.791   3.083  0.3493  1.7117 -0.8733
  807MOL0     H 8890   9.296   4.971   3.121  2.6109 -0.5024 -0.9457
  807MOL0     H 8891   9.260   4.882   3.272  2.0638 -1.9461  1.1288
  807MOL0     H 8892   9.476   4.755   3.212  1.4147 -0.5031  0.5203
  807MOL0     H 8893   9.487   4.916   3.277  0.6898 -1.4573  0.6215
  807MOL0     H 8894   9.628   4.872   3.076  1.0098  1.4799  1.0802
  807MOL0     H 8895   9.481   4.851   2.975  1.9775  2.1621 -1.9251
  807MOL0     H 8896   9.706   5.133   3.164 -1.3610  0.0734  2.3480
  807MOL0     H 8897   9.730   5.397   3.110  0.6904 -1.5829 -0.2233
  807MOL0     H 8898   9.580   5.478   3.047 -2.2390 -0.2858  2.3699
  807MOL0     H 8899   9.472   5.424   3.262  0.0622 -2.1462  0.8886
  807MOL0     H 8900   9.611   5.331   3.307  0.3560 -1.4144 -1.7127
  807MOL0     H 8901   9.619   5.622   3.239  1.1261  1.7079  2.2908
  807MOL0     H 8902   9.754   5.527   3.300  0.6027 -0.9842 -1.5048
  807MOL0     H 8903   9.714   5.631   3.492 -1.2137 -1.1204  4.2691
  807MOL0     H 8904   9.626   5.482   3.513 -0.5290  0.4463  0.7673
  807MOL0     H 8905   9.570   5.626   3.701  0.5752  4.0647 -2.4206
  807MOL0     H 8906   9.413   5.603   3.887 -3.1254 -1.3440  0.0760
  807MOL0     H 8907   8.831   5.783   3.920 -1.4785  1.8870  2.4815
  807MOL0     H 8908   8.699   5.799   4.118  1.0775  1.0391 -1.5383
  807MOL0     H 8909   8.671   5.541   4.500 -0.9553  1.2527 -0.0777
  807MOL0     H 8910   8.786   5.445   4.420  3.1602  0.4189  0.9176
  807MOL0     H 8911   8.953   5.634   4.416  1.5061  0.3570  1.2958
  807MOL0     H 8912   8.817   5.721   4.513 -0.0563  0.8119 -0.5564
  807MOL0     H 8913   8.997   5.650   4.651 -1.0401  3.2654 -1.6070
  807MOL0     H 8914   8.860   5.549   4.693  0.9020 -3.6247 -0.9161
  807MOL0     H 8915   9.048   5.466   4.492  0.1442  2.1885 -0.4696
  807MOL0     H 8916   8.967   5.347   4.596 -2.5824  2.0457  0.1235
  807MOL0     H 8917   9.215   5.525   4.671 -0.0298 -1.1430 -1.2858
  807MOL0     H 8918   9.203   5.349   4.669 -1.7207  0.7189 -1.6499
  807MOL0     H 8919   9.082   5.538   4.883 -2.4598 -0.3595 -0.4892
  807MOL0     H 8920   9.039   5.374   4.870 -2.6385  3.8492  0.1195
  807MOL0     H 8921   9.224   5.424   5.036  0.5331 -0.5837 -0.6132
  807MOL0     H 8922   9.324   5.491   4.898  0.1901 -0.1685  1.4710
  807MOL0     H 8923   9.287   5.248   4.814 -1.4784  0.2886  0.0166
  807MOL0     H 8924   9.399   5.259   4.947  0.2612 -2.7660 -1.1985
  807MOL0     H 8925   8.889   5.431   4.247  0.4372 -0.0442 -0.0484
  807MOL0     H 8926   9.034   5.426   4.055 -0.9494 -0.0982 -0.7071
  807MOL0     H 8927   9.091   5.653   3.602 -0.8862  0.3138  1.2043
  807MOL0     H 8928   9.259   5.646   3.420 -1.0368  0.8316  0.8853
  807MOL0     H 8929   8.760   4.361   3.281  0.1122  0.2768 -0.4189
  807MOL0     H 8930   8.625   4.278   3.108  1.4273  1.6752 -0.9340
  807MOL0     H 8931   8.556   4.040   2.718  0.3317 -0.3228 -0.9780
  807MOL0     H 8932   8.420   3.959   2.561  1.1999 -1.2386 -0.1249
  807MOL0     H 8933   8.264   3.687   2.364  1.6763 -1.5745  0.7575
  807MOL0     H 8934   8.385   3.802   2.423  0.5540 -2.2739  1.1686
  807MOL0     H 8935   8.211   3.926   2.316  3.2667 -0.9943  0.7092
  807MOL0     H 8936   8.186   3.960   2.484  1.5246  2.1941 -1.3038
  807MOL0     H 8937   8.021   3.770   2.515 -1.6118  0.1143 -0.3540
  807MOL0     H 8938   8.010   3.746   2.345  0.0447 -2.6560  2.8371
  807MOL0     H 8939   7.926   4.002   2.474  1.4716 -0.0488  0.1222
  807MOL0     H 8940   7.952   3.991   2.294  0.6313  3.8266  1.5624
  807MOL0     H 8941   7.569   3.806   2.385  1.1859 -2.5307 -1.7748
  807MOL0     H 8942   8.372   3.591   2.782  0.8448 -0.0030 -1.1785
  807MOL0     H 8943   8.514   3.706   3.078 -1.2609 -0.4753  0.7963
  807MOL0     H 8944   8.458   3.560   3.003 -0.0949  0.1508 -1.4952
  807MOL0     H 8945   8.626   3.604   2.986  0.7294  1.5426  1.4112
  808MOL0     O 8946   9.628   6.054   5.521  0.3636 -0.0446  0.0061
  808MOL0     C 8947   9.638   6.095   5.406  0.3381 -0.2860 -1.3960
  808MOL0     O 8948   9.689   6.215   5.371 -0.3802 -0.2510 -0.3003
  808MOL0     C 8949   9.754   6.291   5.459  0.8856  0.9550  0.8076
  808MOL0     C 8950   9.872   6.343   5.423 -0.0400 -0.2240  0.1502
  808MOL0     C 8951   9.946   6.429   5.502 -0.4147 -0.1785 -0.7514
  808MOL0     C 8952   9.910   6.453   5.633  0.4690  0.0179 -0.2520
  808MOL0     O 8953  10.000   6.526   5.707 -0.4565  0.5052  0.0377
  808MOL0     C 8954   9.971   6.556   5.844 -0.0640  0.3599  1.2100
  808MOL0     C 8955   9.856   6.650   5.869  0.1104 -0.2761  0.0695
  808MOL0     C 8956   9.895   6.792   5.826  0.3577  0.3482  0.0843
  808MOL0     C 8957   9.885   6.884   5.942 -0.1153 -0.5039 -0.3022
  808MOL0     C 8958   9.879   7.027   5.888  0.8793 -0.0221  0.2895
  808MOL0     C 8959   9.999   7.064   5.803  0.7851 -0.6488  1.0007
  808MOL0     C 8960  10.006   7.219   5.758  0.5212 -0.5127  0.5488
  808MOL0     C 8961  10.087   7.299   5.860 -0.3130 -0.1470  0.7000
  808MOL0     N 8962  10.221   7.231   5.885  0.7994  0.1807 -0.8570
  808MOL0     C 8963  10.315   7.183   5.796 -0.4420  0.0679 -0.0309
  808MOL0     C 8964  10.432   7.179   5.858  0.7261  0.9662 -0.1913
  808MOL0     C 8965  10.571   7.138   5.824  0.8243 -0.1747 -0.5317
  808MOL0     C 8966  10.661   7.255   5.808 -0.3350  1.3639 -0.3420
  808MOL0     C 8967  10.713   7.309   5.943 -0.7015 -0.3107  0.0865
  808MOL0     C 8968  10.800   7.427   5.915  0.0791  0.4760  1.2276
  808MOL0     O 8969  10.923   7.407   5.836 -0.5453  0.2537  0.4244
  808MOL0     C 8970  11.031   7.342   5.903  0.5238  0.3760 -0.2691
  808MOL0     C 8971  11.110   7.413   5.994  0.5429  1.0620 -0.2474
  808MOL0     C 8972  11.219   7.354   6.045  0.6085  0.0558 -0.6305
  808MOL0     C 8973  11.259   7.224   6.009  0.6965 -0.8112  0.9220
  808MOL0     C 8974  11.362   7.165   6.075  0.0419 -0.6220 -0.3066
  808MOL0     O 8975  11.390   7.192   6.209  0.9501  0.3601 -0.5316
  808MOL0     C 8976  11.477   7.122   6.290  1.1130  0.9224 -0.4228
  808MOL0     C 8977  11.469   7.162   6.420 -0.1492  0.1219  0.3322
  808MOL0     C 8978  11.545   7.087   6.515 -0.4204  0.0114  0.1997
  808MOL0     C 8979  11.644   6.991   6.481 -0.7311  0.1418  0.7610
  808MOL0     O 8980  11.697   6.928   6.586 -0.3695 -0.0644 -0.6057
  808MOL0     C 8981  11.744   6.785   6.570  1.1352  0.7893 -0.5061
  808MOL0     C 8982  11.886   6.782   6.518  0.7905 -0.2503  0.3919
  808MOL0     C 8983  11.977   6.869   6.611 -0.6889 -0.7048  0.8052
  808MOL0     C 8984  12.003   6.836   6.754 -0.0121  0.3767 -1.1201
  808MOL0     C 8985  12.115   6.900   6.845 -0.0276  0.9044 -0.2840
  808MOL0     C 8986  12.119   6.813   6.973 -0.1940 -0.1837 -0.7785
  808MOL0     C 8987  12.176   6.894   7.095  0.5681 -0.6586 -0.3283
  808MOL0     C 8988  12.190   6.807   7.221 -0.1236  0.0973 -0.8020
  808MOL0    Cl 8989  12.298   6.898   7.333  0.0096 -0.3488 -0.3862
  808MOL0     C 8990  11.659   6.960   6.345  0.5921 -0.5636 -0.0102
  808MOL0     C 8991  11.570   7.023   6.254  0.1070 -0.6106  1.0950
  808MOL0     O 8992  11.400   7.065   6.017  1.2104  0.1751  0.1318
  808MOL0     C 8993  11.184   7.162   5.910  0.7737  0.4682  0.6479
  808MOL0     C 8994  11.065   7.222   5.859 -1.1169  0.1990 -0.1587
  808MOL0     N 8995  10.400   7.218   5.990 -0.4187 -0.1742 -0.0536
  808MOL0     N 8996  10.272   7.253   6.009 -0.4444 -0.1627  0.5593
  808MOL0     C 8997   9.790   6.387   5.684 -0.0358 -0.0930 -0.2764
  808MOL0     C 8998   9.710   6.311   5.593 -0.1356  0.0940 -0.4171
  808MOL0     C 8999   9.564   6.021   5.300 -0.1885  0.8163  0.5390
  808MOL0     C 9000   9.560   6.078   5.168  0.6264 -0.9173 -0.2489
  808MOL0     C 9001   9.493   6.015   5.067  0.2349 -0.3429  0.8227
  808MOL0     C 9002   9.438   5.889   5.086  0.7599 -0.5829 -0.1617
  808MOL0     O 9003   9.387   5.826   4.974 -0.0199 -0.5246  0.6527
  808MOL0     C 9004   9.249   5.853   4.934  0.0512  0.3690 -0.5064
  808MOL0     C 9005   9.236   5.848   4.784 -0.2719 -0.2043 -0.0090
  808MOL0     C 9006   9.312   5.946   4.698  0.3552 -0.3321  0.4096
  808MOL0     C 9007   9.327   5.918   4.553 -0.8113  0.0852  0.7303
  808MOL0     C 9008   9.201   5.909   4.482  0.5842  0.3865  0.2317
  808MOL0     C 9009   9.107   5.895   4.412  0.1936 -0.2563 -1.2854
  808MOL0     C 9010   9.445   5.824   5.208  1.4271 -0.5498  0.3995
  808MOL0     C 9011   9.501   5.888   5.315 -0.5950  1.1552 -0.3265
  808MOL0     C 9012   9.532   5.800   5.437 -1.2882  0.5433  0.0448
  808MOL0     H 9013   9.905   6.328   5.321 -2.7207  1.0349 -1.0075
  808MOL0     H 9014  10.039   6.476   5.473 -1.3932  1.1858 -1.8770
  808MOL0     H 9015   9.949   6.462   5.895 -0.0796 -0.5164 -0.3409
  808MOL0     H 9016  10.059   6.592   5.899  0.3603  2.2668 -0.5697
  808MOL0     H 9017   9.831   6.642   5.976 -0.3390 -0.2768 -0.0332
  808MOL0     H 9018   9.763   6.622   5.819  0.7136  2.5839 -2.9474
  808MOL0     H 9019   9.819   6.815   5.751  0.8908 -1.8935 -1.2357
  808MOL0     H 9020   9.999   6.793   5.792  1.5638 -0.9875  3.2764
  808MOL0     H 9021   9.790   6.862   5.991 -1.7211  2.2765 -1.8387
  808MOL0     H 9022   9.977   6.871   5.999 -0.2812  3.8098  1.3369
  808MOL0     H 9023   9.786   7.050   5.836  1.4738 -0.2685 -0.9181
  808MOL0     H 9024   9.877   7.092   5.977 -1.1299  0.9314 -0.3871
  808MOL0     H 9025  10.088   7.026   5.854 -0.7448 -2.3506  2.4870
  808MOL0     H 9026   9.998   7.011   5.707 -2.0102  1.3001 -0.1803
  808MOL0     H 9027   9.911   7.268   5.736  3.0795  4.7618 -0.3928
  808MOL0     H 9028  10.070   7.217   5.669  2.0304  1.7899  1.4900
  808MOL0     H 9029  10.106   7.393   5.808  0.1633  0.0441  1.2167
  808MOL0     H 9030  10.034   7.305   5.955  2.3302  3.4638  2.1870
  808MOL0     H 9031  10.296   7.167   5.690 -0.0631 -0.0812 -0.0777
  808MOL0     H 9032  10.592   7.070   5.908 -1.3340 -1.3144 -0.8330
  808MOL0     H 9033  10.574   7.080   5.732  1.0117 -0.3456 -0.4177
  808MOL0     H 9034  10.746   7.214   5.754  1.0077  0.5454  2.2238
  808MOL0     H 9035  10.607   7.336   5.758 -0.4089  1.8817  0.5478
  808MOL0     H 9036  10.773   7.228   5.986 -0.5718 -2.7493 -4.1705
  808MOL0     H 9037  10.640   7.344   6.017 -2.3222 -1.2253 -1.0195
  808MOL0     H 9038  10.828   7.478   6.008  0.4138 -0.4284  1.6307
  808MOL0     H 9039  10.739   7.499   5.859 -1.9217 -1.7229  0.4102
  808MOL0     H 9040  11.073   7.508   6.031 -0.3524  0.4124  0.5454
  808MOL0     H 9041  11.276   7.402   6.124  1.1934 -1.0028 -0.3855
  808MOL0     H 9042  11.400   7.242   6.444  0.1418  0.2480  0.7734
  808MOL0     H 9043  11.532   7.094   6.622  1.4604 -1.5409  0.5826
  808MOL0     H 9044  11.729   6.729   6.663  0.1108  1.8280 -0.0243
  808MOL0     H 9045  11.683   6.734   6.495  1.0374 -2.3541  1.5455
  808MOL0     H 9046  11.923   6.680   6.534  0.5177 -0.2775  0.8562
  808MOL0     H 9047  11.884   6.814   6.413 -1.9441  1.3512  0.8486
  808MOL0     H 9048  12.077   6.866   6.566  0.2111  2.3992  2.3074
  808MOL0     H 9049  11.945   6.974   6.607 -1.6309 -0.9826  0.9344
  808MOL0     H 9050  12.008   6.728   6.771 -0.5471  0.0905 -2.7042
  808MOL0     H 9051  11.911   6.872   6.800  2.1519  2.6304  1.9128
  808MOL0     H 9052  12.094   7.008   6.850  1.3725  1.1488  0.9524
  808MOL0     H 9053  12.201   6.890   6.779  0.0188 -2.7588  0.1201
  808MOL0     H 9054  12.019   6.777   6.995 -1.2090  2.3669 -0.8079
  808MOL0     H 9055  12.186   6.728   6.959 -1.4840 -0.8969 -3.0858
  808MOL0     H 9056  12.105   6.973   7.122  1.6115  0.2093 -0.0912
  808MOL0     H 9057  12.271   6.947   7.086  1.1912 -1.6318  0.2690
  808MOL0     H 9058  12.093   6.797   7.271 -1.3628  3.6357 -2.1262
  808MOL0     H 9059  12.231   6.706   7.212 -0.3465 -0.3045  1.9807
  808MOL0     H 9060  11.740   6.896   6.310  0.1617 -1.4600  0.5893
  808MOL0     H 9061  11.577   6.999   6.148  0.3461  1.9064  0.4618
  808MOL0     H 9062  11.213   7.062   5.878 -0.4279  0.0228  0.8846
  808MOL0     H 9063  11.014   7.183   5.771  0.7962  2.5520 -2.4807
  808MOL0     H 9064   9.761   6.380   5.788 -0.0159  0.7988 -0.1989
  808MOL0     H 9065   9.608   6.275   5.603  0.1421 -0.4020  0.7812
  808MOL0     H 9066   9.608   6.173   5.145  2.0271 -1.3496  0.7759
  808MOL0     H 9067   9.481   6.066   4.972  0.2308  0.8091  1.4240
  808MOL0     H 9068   9.213   5.946   4.978 -0.2620  0.1173 -0.2220
  808MOL0     H 9069   9.176   5.780   4.969 -0.2234  0.6223 -0.5499
  808MOL0     H 9070   9.131   5.862   4.756 -0.5450  1.5275  1.6626
  808MOL0     H 9071   9.254   5.750   4.739 -1.1573  0.1817 -1.2627
  808MOL0     H 9072   9.411   5.957   4.745  0.9502 -0.3272 -0.8099
  808MOL0     H 9073   9.253   6.037   4.711 -0.9929 -1.1660  0.3222
  808MOL0     H 9074   9.384   6.004   4.516  0.8956 -0.8132  1.1629
  808MOL0     H 9075   9.391   5.834   4.525 -1.0107  0.3878 -0.6840
  808MOL0     H 9076   9.018   5.890   4.353 -1.2797  1.5733  0.6525
  808MOL0     H 9077   9.404   5.724   5.213  1.1833 -0.4555  0.3517
  808MOL0     H 9078   9.512   5.695   5.413  2.0470 -0.2872  0.3874
  808MOL0     H 9079   9.641   5.806   5.449 -1.1016  0.9180 -1.6155
  808MOL0     H 9080   9.473   5.819   5.527  2.0706 -0.5041  2.7075
  809MOL0     O 9081   1.118   5.585   4.102 -0.2572  0.0837  0.5049
  809MOL0     C 9082   1.172   5.686   4.041  0.4104  0.0144  0.2889
  809MOL0     O 9083   1.230   5.801   4.093 -0.2651  0.9677 -0.8839
  809MOL0     C 9084   1.234   5.813   4.231  0.1250  0.7944  0.1105
  809MOL0     C 9085   1.285   5.716   4.312  0.3269 -0.2052 -0.1878
  809MOL0     C 9086   1.318   5.746   4.441 -0.0371 -0.2143 -0.4717
  809MOL0     C 9087   1.298   5.875   4.496  0.8769 -0.8716  0.5151
  809MOL0     O 9088   1.328   5.914   4.622  0.3441  1.0518 -0.0903
  809MOL0     C 9089   1.288   5.822   4.732 -0.4136 -0.0710  0.5982
  809MOL0     C 9090   1.313   5.913   4.850 -0.3246  0.7980  0.5640
  809MOL0     C 9091   1.253   5.855   4.981  0.1836  0.3646 -0.4674
  809MOL0     C 9092   1.311   5.719   5.024  0.1994  0.3824 -0.4238
  809MOL0     C 9093   1.447   5.737   5.082 -0.4707 -0.3403 -0.0951
  809MOL0     C 9094   1.483   5.603   5.152  0.5076 -0.0149  0.8119
  809MOL0     C 9095   1.631   5.620   5.184  0.6869 -0.6886 -0.2943
  809MOL0     C 9096   1.680   5.726   5.292 -0.3990  0.6526  0.4662
  809MOL0     N 9097   1.823   5.707   5.304  0.1880  0.2750  1.0685
  809MOL0     C 9098   1.910   5.731   5.204  0.5539 -0.8058  0.5704
  809MOL0     C 9099   2.027   5.712   5.268 -0.4123 -0.4341  0.4761
  809MOL0     C 9100   2.156   5.742   5.204  0.0429  0.2411 -0.5095
  809MOL0     C 9101   2.289   5.721   5.285 -0.1202  0.1898 -0.3157
  809MOL0     C 9102   2.417   5.790   5.222  0.3313 -0.3053  0.4691
  809MOL0     C 9103   2.436   5.761   5.067  0.0534 -0.1474 -0.9963
  809MOL0     O 9104   2.524   5.651   5.052  0.3087  0.4035  0.1010
  809MOL0     C 9105   2.668   5.657   5.070  0.1087 -0.0760  0.2598
  809MOL0     C 9106   2.749   5.542   5.016  1.5906  0.2180 -0.2391
  809MOL0     C 9107   2.883   5.542   5.033  0.3197 -0.8071 -0.0269
  809MOL0     C 9108   2.956   5.648   5.091  0.0444  0.1999  0.1733
  809MOL0     C 9109   3.103   5.656   5.119 -0.5098  0.3623 -0.9328
  809MOL0     O 9110   3.176   5.547   5.090  1.1625  0.4473 -0.1345
  809MOL0     C 9111   3.309   5.552   5.094 -0.4943  0.3092 -0.7133
  809MOL0     C 9112   3.371   5.479   4.986  0.1422 -0.6998 -0.6838
  809MOL0     C 9113   3.504   5.451   4.988  0.5891 -0.6389 -1.0539
  809MOL0     C 9114   3.586   5.505   5.089 -0.1264  0.3234 -0.4684
  809MOL0     O 9115   3.713   5.464   5.090 -0.2586  0.4125  0.0144
  809MOL0     C 9116   3.798   5.507   5.194 -0.1271  0.0217  0.5185
  809MOL0     C 9117   3.931   5.417   5.180 -0.3886 -0.4406  0.3993
  809MOL0     C 9118   4.048   5.468   5.264 -0.5075 -0.2296 -0.4180
  809MOL0     C 9119   4.050   5.406   5.404  0.1468 -0.0916  0.2607
  809MOL0     C 9120   4.136   5.481   5.509 -0.3978  0.2628  0.0899
  809MOL0     C 9121   4.099   5.622   5.550  0.5274 -1.2813  0.5708
  809MOL0     C 9122   4.177   5.681   5.668 -0.9688  0.6709 -0.1765
  809MOL0     C 9123   4.195   5.835   5.665  0.8200 -0.7167 -0.7619
  809MOL0    Cl 9124   4.034   5.913   5.650  0.3555  0.3252  0.0945
  809MOL0     C 9125   3.525   5.581   5.199 -1.2546  0.2790  0.5064
  809MOL0     C 9126   3.392   5.597   5.196  0.6511  0.0961 -0.4164
  809MOL0     O 9127   3.153   5.756   5.161 -0.1201 -0.0557 -0.2524
  809MOL0     C 9128   2.880   5.764   5.118  0.3373 -0.0660 -0.7252
  809MOL0     C 9129   2.741   5.771   5.120  0.1035  0.6593 -0.0695
  809MOL0     N 9130   2.007   5.683   5.405 -0.1050  0.3925 -1.3583
  809MOL0     N 9131   1.886   5.678   5.424 -0.2598 -0.0798 -0.7963
  809MOL0     C 9132   1.241   5.969   4.414  0.1166 -0.0185 -0.8583
  809MOL0     C 9133   1.203   5.940   4.286  0.1777  0.0149 -1.0823
  809MOL0     C 9134   1.187   5.675   3.897 -0.6789  0.6745  0.0111
  809MOL0     C 9135   1.188   5.539   3.853 -0.6346 -0.9971 -0.5925
  809MOL0     C 9136   1.223   5.520   3.717 -0.2094  0.3561 -0.5910
  809MOL0     C 9137   1.252   5.623   3.634 -0.3623 -0.4320  0.1473
  809MOL0     O 9138   1.268   5.593   3.498  0.0717 -0.9025 -0.4377
  809MOL0     C 9139   1.405   5.604   3.460 -1.0418 -0.1990  0.6773
  809MOL0     C 9140   1.415   5.685   3.325 -1.0994 -0.2302 -0.4446
  809MOL0     C 9141   1.330   5.651   3.213 -0.1852  0.6846  0.8954
  809MOL0     C 9142   1.350   5.744   3.100  0.1833 -1.0996  0.0562
  809MOL0     C 9143   1.265   5.707   2.990  1.2288 -0.7811 -0.6982
  809MOL0     C 9144   1.201   5.692   2.885 -0.1864 -0.3945 -1.0305
  809MOL0     C 9145   1.258   5.753   3.676  0.2230  0.9134 -0.2543
  809MOL0     C 9146   1.227   5.785   3.810 -1.2425 -0.0362  0.0302
  809MOL0     C 9147   1.247   5.930   3.847  1.2379  0.5309  0.1214
  809MOL0     H 9148   1.295   5.614   4.275  1.1431 -0.9678  1.9564
  809MOL0     H 9149   1.354   5.668   4.507  0.1089 -1.5053 -2.0147
  809MOL0     H 9150   1.180   5.804   4.724 -0.4821  1.1048 -3.6379
  809MOL0     H 9151   1.351   5.733   4.744  1.7533  1.5945  2.5706
  809MOL0     H 9152   1.269   6.012   4.836  0.6294  0.7504 -4.2206
  809MOL0     H 9153   1.421   5.926   4.860 -0.6895  3.2243  2.1377
  809MOL0     H 9154   1.146   5.846   4.960 -0.7107  0.8321  3.1454
  809MOL0     H 9155   1.268   5.917   5.070  3.8290 -1.8947  0.7412
  809MOL0     H 9156   1.249   5.686   5.108  3.0487 -0.8072  1.3475
  809MOL0     H 9157   1.311   5.649   4.940  0.9626  0.6357 -0.6414
  809MOL0     H 9158   1.526   5.759   5.009  2.9092  0.2300  3.4238
  809MOL0     H 9159   1.443   5.817   5.156  1.0491  1.1810 -1.5651
  809MOL0     H 9160   1.428   5.581   5.243  1.9846 -0.9319  1.5223
  809MOL0     H 9161   1.453   5.516   5.094 -2.2010  0.3615  1.5162
  809MOL0     H 9162   1.674   5.636   5.084 -2.0953  1.8413 -1.2520
  809MOL0     H 9163   1.651   5.524   5.231 -0.0493 -0.7709 -0.1373
  809MOL0     H 9164   1.661   5.829   5.260 -0.4350  0.4495 -0.1742
  809MOL0     H 9165   1.631   5.717   5.389 -1.2190  2.9008  0.3339
  809MOL0     H 9166   1.880   5.752   5.102 -0.9830 -2.5787  0.6063
  809MOL0     H 9167   2.163   5.688   5.109  2.5840  1.4674 -1.0940
  809MOL0     H 9168   2.156   5.849   5.182  2.0739  0.1461 -1.1217
  809MOL0     H 9169   2.277   5.755   5.389  2.0821 -2.5195  0.9600
  809MOL0     H 9170   2.308   5.613   5.289  1.4686  0.4486 -0.3500
  809MOL0     H 9171   2.503   5.747   5.273  0.0499  0.7710  1.8785
  809MOL0     H 9172   2.416   5.894   5.254 -3.3977 -0.1929  0.4963
  809MOL0     H 9173   2.471   5.855   5.022 -1.4742  1.0285  0.1407
  809MOL0     H 9174   2.334   5.742   5.032 -0.8567 -0.7273  1.7778
  809MOL0     H 9175   2.683   5.462   4.982 -0.0861  1.9529 -1.3154
  809MOL0     H 9176   2.938   5.450   5.016  4.8703  1.8457 -1.2482
  809MOL0     H 9177   3.308   5.441   4.906 -1.7032  0.7966 -0.0029
  809MOL0     H 9178   3.561   5.401   4.910 -0.3416  0.6361 -2.6029
  809MOL0     H 9179   3.831   5.607   5.165  3.8480 -1.8660 -2.4588
  809MOL0     H 9180   3.751   5.504   5.293 -1.9391  1.7313 -0.2189
  809MOL0     H 9181   3.915   5.312   5.206  0.4479 -0.6573  0.0931
  809MOL0     H 9182   3.957   5.412   5.074 -1.6026 -1.1528  0.1119
  809MOL0     H 9183   4.141   5.448   5.209 -1.3627  0.7693 -2.3196
  809MOL0     H 9184   4.040   5.577   5.259  1.2657 -0.0138  0.3774
  809MOL0     H 9185   4.077   5.300   5.399 -4.9486 -1.7051  0.6978
  809MOL0     H 9186   3.941   5.404   5.419 -0.4825  1.7590 -2.9956
  809MOL0     H 9187   4.239   5.496   5.473 -0.2283  2.4561  1.3248
  809MOL0     H 9188   4.150   5.414   5.594  3.5255 -0.9758 -1.2853
  809MOL0     H 9189   4.090   5.692   5.466 -2.1408  0.6894  2.3423
  809MOL0     H 9190   3.993   5.611   5.575  0.4825  0.5297  1.3915
  809MOL0     H 9191   4.275   5.633   5.678 -2.1567 -1.9784 -0.4724
  809MOL0     H 9192   4.120   5.677   5.762  0.9113  0.0707  0.9903
  809MOL0     H 9193   4.246   5.874   5.753 -4.5461 -0.6854  2.7547
  809MOL0     H 9194   4.251   5.868   5.577 -0.7014 -0.1854 -1.5681
  809MOL0     H 9195   3.583   5.616   5.283  1.5411 -2.0678 -0.2811
  809MOL0     H 9196   3.359   5.638   5.291  1.5159 -1.3337  0.5367
  809MOL0     H 9197   2.924   5.856   5.154 -1.1934  1.9413 -3.5956
  809MOL0     H 9198   2.688   5.864   5.138  2.4235  2.7504 -3.0450
  809MOL0     H 9199   1.234   6.073   4.444 -3.8445 -0.3496 -0.1751
  809MOL0     H 9200   1.156   6.005   4.212 -1.8028  0.2031  0.2681
  809MOL0     H 9201   1.165   5.457   3.921 -3.9717  2.6503  3.3011
  809MOL0     H 9202   1.219   5.422   3.671  0.5351  1.4483 -3.2182
  809MOL0     H 9203   1.442   5.503   3.437  1.1927  0.9208 -1.1357
  809MOL0     H 9204   1.461   5.648   3.543 -2.0145  1.3202  0.5706
  809MOL0     H 9205   1.520   5.683   3.295 -1.0794 -3.5064 -0.4501
  809MOL0     H 9206   1.388   5.790   3.342 -4.2466 -1.2415  1.7734
  809MOL0     H 9207   1.224   5.650   3.240  0.2405 -0.2568  2.6881
  809MOL0     H 9208   1.367   5.552   3.184  3.7755  1.0673  3.8335
  809MOL0     H 9209   1.320   5.844   3.131  1.9152  1.0219 -4.2422
  809MOL0     H 9210   1.457   5.743   3.076  0.3493  1.9053  0.2492
  809MOL0     H 9211   1.120   5.684   2.815 -2.1208  2.0123  0.7216
  809MOL0     H 9212   1.292   5.839   3.619  0.8257  1.7705  1.3254
  809MOL0     H 9213   1.189   5.969   3.931 -0.8713 -2.6548  0.3024
  809MOL0     H 9214   1.348   5.935   3.890  0.6682 -2.9118  2.3081
  809MOL0     H 9215   1.226   5.986   3.756  2.7142  1.4372  0.2957
  810MOL0     O 9216   7.795   9.118   5.287  0.1410 -0.9675  0.8076
  810MOL0     C 9217   7.855   9.226   5.314  0.0882  0.4657  0.0482
  810MOL0     O 9218   7.982   9.234   5.387 -0.4764 -0.0742 -0.2796
  810MOL0     C 9219   8.018   9.124   5.468 -0.0239 -0.7303  1.1676
  810MOL0     C 9220   8.142   9.061   5.442 -0.1081  0.1243 -0.9924
  810MOL0     C 9221   8.168   8.934   5.506  0.7411 -1.3048  0.3538
  810MOL0     C 9222   8.071   8.876   5.589 -0.5888 -0.5695 -0.1623
  810MOL0     O 9223   8.108   8.748   5.634  0.5603  0.0242  0.2409
  810MOL0     C 9224   8.018   8.664   5.713 -0.4392  0.6626 -0.0239
  810MOL0     C 9225   8.047   8.679   5.862 -0.3088  0.9913  0.1667
  810MOL0     C 9226   8.180   8.620   5.903 -0.5810  1.4342 -0.7181
  810MOL0     C 9227   8.206   8.605   6.053  0.3805  0.4181 -0.4888
  810MOL0     C 9228   8.122   8.477   6.110 -1.0246 -0.3939 -0.1836
  810MOL0     C 9229   8.103   8.471   6.264  0.5312 -0.0470 -0.4702
  810MOL0     C 9230   8.031   8.340   6.305  0.3740  0.2392  0.4392
  810MOL0     C 9231   8.151   8.239   6.318  1.0235  0.3350 -0.3667
  810MOL0     N 9232   8.109   8.103   6.346 -0.1604  0.5283 -0.2419
  810MOL0     C 9233   8.068   8.057   6.467 -0.1648 -0.0890 -0.7550
  810MOL0     C 9234   8.028   7.933   6.445  0.4935  0.5610 -0.7956
  810MOL0     C 9235   8.003   7.851   6.571  0.4866  1.1561 -0.7191
  810MOL0     C 9236   7.916   7.727   6.548  0.3391 -1.1098  0.4243
  810MOL0     C 9237   7.767   7.763   6.522  0.8107  0.2099  0.6290
  810MOL0     C 9238   7.693   7.647   6.582 -0.5091  0.5597  0.0312
  810MOL0     O 9239   7.549   7.655   6.575  1.0104  0.2501  0.2731
  810MOL0     C 9240   7.498   7.735   6.670 -1.2459 -0.6408 -0.5107
  810MOL0     C 9241   7.525   7.724   6.812 -0.4639 -0.0347  0.1683
  810MOL0     C 9242   7.477   7.820   6.898 -1.0684 -0.7977 -0.0558
  810MOL0     C 9243   7.403   7.932   6.844  0.1500 -0.6192 -0.4775
  810MOL0     C 9244   7.321   8.018   6.938  0.1777  0.6940  1.0931
  810MOL0     O 9245   7.238   8.104   6.880  0.0503 -0.2262  0.0763
  810MOL0     C 9246   7.172   8.200   6.959  0.4079  0.3346 -0.8651
  810MOL0     C 9247   7.124   8.170   7.086  0.3173 -0.1370 -0.5203
  810MOL0     C 9248   7.062   8.272   7.162 -0.5245 -0.8655 -0.8839
  810MOL0     C 9249   7.050   8.403   7.114  0.4715  0.7904  1.1395
  810MOL0     O 9250   7.001   8.506   7.178  0.7462  0.0928 -0.3164
  810MOL0     C 9251   6.991   8.525   7.320  0.4250  0.0483  0.0210
  810MOL0     C 9252   7.000   8.687   7.328 -1.1895  0.6919 -0.6385
  810MOL0     C 9253   6.867   8.757   7.292 -0.3711  0.3300  0.0762
  810MOL0     C 9254   6.875   8.919   7.294  0.6959 -0.3292 -0.0247
  810MOL0     C 9255   6.735   8.976   7.275  0.2262 -0.3112 -0.1385
  810MOL0     C 9256   6.732   9.127   7.232  0.0758  1.2498  0.2068
  810MOL0     C 9257   6.588   9.162   7.220  0.3918  0.0545  0.9119
  810MOL0     C 9258   6.575   9.309   7.182 -0.0817  1.1178 -0.1287
  810MOL0    Cl 9259   6.617   9.333   7.007 -0.1730  0.1708 -0.1992
  810MOL0     C 9260   7.087   8.420   6.980 -0.7955 -0.2334 -0.6674
  810MOL0     C 9261   7.153   8.322   6.902 -0.0516  0.1964 -0.0083
  810MOL0     O 9262   7.332   7.995   7.063  0.0367 -0.0435 -0.1481
  810MOL0     C 9263   7.374   7.945   6.706  0.7892  0.2575 -0.6480
  810MOL0     C 9264   7.427   7.845   6.618  0.2038 -0.4196 -0.0147
  810MOL0     N 9265   8.043   7.901   6.311 -0.5445 -0.0993 -0.4901
  810MOL0     N 9266   8.096   8.005   6.258 -0.3536  0.2615  0.5999
  810MOL0     C 9267   7.954   8.947   5.618 -0.0489  0.1718 -0.1385
  810MOL0     C 9268   7.926   9.066   5.563  0.1822 -0.8053 -0.0662
  810MOL0     C 9269   7.787   9.349   5.265  0.7790  0.6091  0.1462
  810MOL0     C 9270   7.880   9.453   5.262 -0.5485 -1.0270  0.7880
  810MOL0     C 9271   7.852   9.581   5.236  0.5836  0.5723  0.2658
  810MOL0     C 9272   7.715   9.605   5.183 -0.9407  1.0196 -0.1835
  810MOL0     O 9273   7.676   9.728   5.132  0.5518 -0.1832 -0.4545
  810MOL0     C 9274   7.763   9.836   5.158 -0.2876 -1.1823  0.4564
  810MOL0     C 9275   7.690   9.966   5.156  0.2812 -0.9742  0.1176
  810MOL0     C 9276   7.576   9.979   5.253  0.4918 -0.0863  0.3510
  810MOL0     C 9277   7.442   9.959   5.187 -1.1847  0.1756  0.2541
  810MOL0     C 9278   7.405  10.078   5.109 -0.2341  0.8517  0.0164
  810MOL0     C 9279   7.374  10.183   5.061  0.5981 -0.3758 -0.2569
  810MOL0     C 9280   7.623   9.498   5.174 -0.1913  0.1195  0.0350
  810MOL0     C 9281   7.654   9.369   5.221 -0.3601  0.7568  0.9067
  810MOL0     C 9282   7.542   9.265   5.191 -1.4673 -0.2748 -1.1429
  810MOL0     H 9283   8.216   9.109   5.378  2.1405 -0.2798  1.1791
  810MOL0     H 9284   8.258   8.884   5.471 -0.2574  0.1576 -5.2812
  810MOL0     H 9285   7.911   8.678   5.694 -0.4996 -0.4280 -0.5989
  810MOL0     H 9286   8.044   8.562   5.685  3.0748  1.1153  1.1396
  810MOL0     H 9287   7.965   8.618   5.902  1.0341 -0.1617  1.2307
  810MOL0     H 9288   8.025   8.777   5.905 -3.6058 -0.2990  1.7752
  810MOL0     H 9289   8.257   8.685   5.860  0.6815 -2.0869 -4.2580
  810MOL0     H 9290   8.183   8.522   5.855 -0.6470  0.5093  1.0679
  810MOL0     H 9291   8.311   8.603   6.082 -0.3227  0.0427  2.3603
  810MOL0     H 9292   8.178   8.694   6.111 -0.7982 -1.1394  1.5081
  810MOL0     H 9293   8.020   8.477   6.073 -1.1831  0.4978  0.2147
  810MOL0     H 9294   8.170   8.386   6.073  0.1295 -0.6087  1.6871
  810MOL0     H 9295   8.201   8.486   6.312  0.1100  0.7063  0.1823
  810MOL0     H 9296   8.041   8.554   6.300 -2.2595 -2.8020  1.5443
  810MOL0     H 9297   7.968   8.301   6.225  1.8484  0.6701 -0.9794
  810MOL0     H 9298   7.970   8.352   6.395 -3.3825  1.0231 -2.0190
  810MOL0     H 9299   8.215   8.248   6.231  1.0134  0.7355 -0.3365
  810MOL0     H 9300   8.226   8.268   6.392  1.5485  0.4550 -0.9386
  810MOL0     H 9301   8.081   8.110   6.562 -1.9058  0.3710 -0.7518
  810MOL0     H 9302   8.102   7.808   6.591  0.0706 -0.9096 -2.7703
  810MOL0     H 9303   7.962   7.917   6.648  0.3039  1.2657 -0.9107
  810MOL0     H 9304   7.955   7.664   6.468 -2.3107 -2.0056 -0.2700
  810MOL0     H 9305   7.926   7.673   6.643  1.8340  1.5403  1.8768
  810MOL0     H 9306   7.745   7.773   6.415 -1.0157 -1.8510  0.7375
  810MOL0     H 9307   7.746   7.859   6.569 -0.0679  0.2637  0.1609
  810MOL0     H 9308   7.726   7.623   6.683  0.8132 -0.2810 -0.5737
  810MOL0     H 9309   7.714   7.558   6.522 -0.6689  3.1036 -4.2154
  810MOL0     H 9310   7.577   7.637   6.853  2.1900  0.6473 -1.5266
  810MOL0     H 9311   7.491   7.812   7.006 -0.6706 -1.8347 -0.1760
  810MOL0     H 9312   7.123   8.071   7.130  4.0164 -0.0543  0.0461
  810MOL0     H 9313   7.023   8.249   7.261  1.6020  1.7515  0.7277
  810MOL0     H 9314   6.900   8.474   7.355  1.6218 -2.1596  0.0645
  810MOL0     H 9315   7.079   8.496   7.377 -1.9330 -0.0909  3.9716
  810MOL0     H 9316   7.027   8.724   7.427  2.5631  0.5812 -1.4620
  810MOL0     H 9317   7.072   8.720   7.252 -0.4164  0.4836 -0.0162
  810MOL0     H 9318   6.851   8.739   7.185  2.9257  1.7574 -0.7850
  810MOL0     H 9319   6.796   8.710   7.360 -1.2650 -0.2357 -1.2140
  810MOL0     H 9320   6.957   8.945   7.227  0.1833 -1.1235 -0.9750
  810MOL0     H 9321   6.918   8.956   7.389  1.0001 -0.0305 -0.2737
  810MOL0     H 9322   6.691   8.962   7.374 -1.1960  1.3504 -0.4857
  810MOL0     H 9323   6.685   8.920   7.195 -3.2641  0.1246  1.5565
  810MOL0     H 9324   6.787   9.189   7.303  0.1201  0.8636  0.5134
  810MOL0     H 9325   6.790   9.129   7.139  0.0322 -2.7405 -0.1089
  810MOL0     H 9326   6.540   9.148   7.317 -0.4982 -1.1568  0.3118
  810MOL0     H 9327   6.534   9.105   7.144 -1.4927  1.0938  1.3951
  810MOL0     H 9328   6.477   9.343   7.215  0.3357  1.7969  0.4164
  810MOL0     H 9329   6.646   9.359   7.249  0.7809  0.8769 -0.8448
  810MOL0     H 9330   7.074   8.515   6.930 -2.2128  0.1610  0.3988
  810MOL0     H 9331   7.181   8.331   6.797 -0.4575 -1.3890 -0.2671
  810MOL0     H 9332   7.298   8.011   6.666  0.0100  1.8360  2.9892
  810MOL0     H 9333   7.414   7.847   6.511  0.3730 -2.1773 -0.0974
  810MOL0     H 9334   7.873   8.902   5.675  2.5488 -2.4191  1.7961
  810MOL0     H 9335   7.834   9.118   5.589  0.7197  0.1341 -0.0179
  810MOL0     H 9336   7.987   9.443   5.275 -0.5161 -5.4799 -1.2008
  810MOL0     H 9337   7.932   9.654   5.228 -0.8251  1.9778 -5.0362
  810MOL0     H 9338   7.834   9.836   5.075 -1.2731  0.9213 -0.4387
  810MOL0     H 9339   7.822   9.833   5.250 -0.8434  0.7133  0.9094
  810MOL0     H 9340   7.648   9.991   5.058 -1.6165 -0.4428  1.0278
  810MOL0     H 9341   7.760  10.043   5.189 -0.9793  1.5626 -2.6149
  810MOL0     H 9342   7.588  10.075   5.304  3.8455  1.3239 -2.6521
  810MOL0     H 9343   7.579   9.908   5.337 -1.6031 -0.3182  0.2961
  810MOL0     H 9344   7.430   9.871   5.123 -3.1683  0.6289 -0.0439
  810MOL0     H 9345   7.366   9.947   5.265 -0.2920 -1.2994  0.9551
  810MOL0     H 9346   7.343  10.279   5.026  1.8775  0.1178 -0.1135
  810MOL0     H 9347   7.528   9.522   5.126 -0.5740  0.8525  1.1157
  810MOL0     H 9348   7.475   9.304   5.268  0.6299  0.9816  0.1651
  810MOL0     H 9349   7.491   9.276   5.096  0.1684  0.2836 -2.0030
  810MOL0     H 9350   7.571   9.163   5.216  0.6161  0.9333  2.0393
  811MOL0     O 9351   4.482   9.519  11.140  0.1593  0.0479  0.5039
  811MOL0     C 9352   4.543   9.500  11.251 -0.6947  0.2165 -1.3709
  811MOL0     O 9353   4.672   9.459  11.268 -0.0939 -0.2825 -0.2236
  811MOL0     C 9354   4.728   9.407  11.154  0.7230  0.1830 -0.1702
  811MOL0     C 9355   4.778   9.485  11.040 -0.0833 -0.8065 -0.1138
  811MOL0     C 9356   4.850   9.437  10.930 -0.6357 -0.4620 -0.3569
  811MOL0     C 9357   4.885   9.301  10.931  0.1696  0.5507  0.0952
  811MOL0     O 9358   4.974   9.264  10.826 -0.9923  1.7778  0.5432
  811MOL0     C 9359   5.050   9.135  10.856  0.4229 -0.4489 -0.4338
  811MOL0     C 9360   5.176   9.132  10.769 -0.7327 -0.2186  0.0636
  811MOL0     C 9361   5.241   8.993  10.768  0.0017  0.1363 -0.6577
  811MOL0     C 9362   5.203   8.899  10.640  0.8471 -0.4844 -1.1586
  811MOL0     C 9363   5.212   8.744  10.671  0.9485 -0.6252 -0.1659
  811MOL0     C 9364   5.170   8.647  10.562  0.4521 -0.4844  0.1003
  811MOL0     C 9365   5.166   8.500  10.589 -0.1370 -0.3061  0.0088
  811MOL0     C 9366   5.303   8.439  10.639 -0.5054 -0.5630  0.6814
  811MOL0     N 9367   5.290   8.297  10.693  0.2622  0.6397  0.0739
  811MOL0     C 9368   5.195   8.206  10.648 -1.0220 -0.5598  0.0900
  811MOL0     C 9369   5.202   8.096  10.733 -0.0392  0.1255 -0.7026
  811MOL0     C 9370   5.116   7.978  10.723  0.1766 -0.4628  0.3264
  811MOL0     C 9371   5.148   7.889  10.609  0.0729 -0.0247  1.1873
  811MOL0     C 9372   5.099   7.748  10.602 -0.3478  0.1224 -0.1412
  811MOL0     C 9373   5.158   7.679  10.481  0.1197 -0.5761  0.8881
  811MOL0     O 9374   5.105   7.542  10.499  0.0372 -0.3971  0.1181
  811MOL0     C 9375   5.152   7.455  10.403 -0.1957 -0.2429 -0.3999
  811MOL0     C 9376   5.119   7.319  10.430  0.5596 -0.4351  0.2234
  811MOL0     C 9377   5.152   7.214  10.344 -1.0662  0.2608 -0.4645
  811MOL0     C 9378   5.216   7.247  10.223 -0.4227 -0.3067  0.0433
  811MOL0     C 9379   5.245   7.139  10.123  0.6352 -0.6571  0.1104
  811MOL0     O 9380   5.166   7.025  10.128 -0.5860 -0.1149  0.3872
  811MOL0     C 9381   5.207   6.911  10.065  0.3839  0.8375 -0.2877
  811MOL0     C 9382   5.107   6.819  10.051  0.4617 -0.8631  0.3080
  811MOL0     C 9383   5.122   6.704   9.971  0.9406 -0.1424  0.3057
  811MOL0     C 9384   5.241   6.672   9.902 -0.6609  0.0087 -0.1190
  811MOL0     O 9385   5.280   6.555   9.836  0.2855 -1.0639  0.5927
  811MOL0     C 9386   5.175   6.468   9.780 -0.3859 -0.4294  0.2331
  811MOL0     C 9387   5.241   6.369   9.683 -0.5503  0.8288 -0.1283
  811MOL0     C 9388   5.147   6.343   9.571  0.0826 -0.3394  0.3663
  811MOL0     C 9389   5.162   6.454   9.458 -0.1122  0.3293 -0.2201
  811MOL0     C 9390   5.071   6.421   9.342  0.4084  0.5250  1.1598
  811MOL0     C 9391   4.922   6.443   9.378 -0.6601  0.1621 -0.2316
  811MOL0     C 9392   4.831   6.365   9.292 -0.4736  1.1396  0.1743
  811MOL0     C 9393   4.686   6.363   9.347 -0.7809  0.3981  1.1601
  811MOL0    Cl 9394   4.673   6.286   9.511 -0.3778  0.0983 -0.4382
  811MOL0     C 9395   5.350   6.766   9.929  0.1562 -0.0830  0.4051
  811MOL0     C 9396   5.332   6.882  10.008 -0.0160 -0.3169 -0.5747
  811MOL0     O 9397   5.317   7.166  10.024 -0.5713  0.2942 -0.5898
  811MOL0     C 9398   5.256   7.380  10.201  0.4839 -0.1693 -0.6743
  811MOL0     C 9399   5.222   7.489  10.287 -0.0755  0.4999 -0.0740
  811MOL0     N 9400   5.304   8.123  10.824 -0.2872 -0.8905 -0.1319
  811MOL0     N 9401   5.359   8.244  10.804  0.5872  0.8206  0.0231
  811MOL0     C 9402   4.831   9.223  11.036 -0.0280  0.6672 -0.6000
  811MOL0     C 9403   4.756   9.273  11.141 -0.1897  0.4076  0.1624
  811MOL0     C 9404   4.463   9.520  11.377 -0.7807  0.1767 -0.2252
  811MOL0     C 9405   4.328   9.589  11.361 -0.6935  0.3228  0.1309
  811MOL0     C 9406   4.235   9.607  11.470  0.3131  0.3957 -0.0682
  811MOL0     C 9407   4.280   9.570  11.591 -0.7327  0.5349  0.5417
  811MOL0     O 9408   4.180   9.574  11.694 -0.6513 -0.0658  0.2731
  811MOL0     C 9409   4.201   9.669  11.801 -0.0832  0.4607  0.0348
  811MOL0     C 9410   4.123   9.797  11.804  1.1502 -0.2359 -0.8253
  811MOL0     C 9411   4.133   9.894  11.678  0.5112 -0.0799 -0.8399
  811MOL0     C 9412   4.276   9.954  11.674 -0.5400  0.0570 -0.6120
  811MOL0     C 9413   4.336  10.013  11.794 -0.7456  0.2255  0.9964
  811MOL0     C 9414   4.404  10.053  11.891  0.3936 -0.1675 -0.7082
  811MOL0     C 9415   4.415   9.516  11.617 -0.8358 -0.5392  0.5741
  811MOL0     C 9416   4.505   9.490  11.513 -0.1926  0.2868 -0.3373
  811MOL0     C 9417   4.615   9.390  11.539 -0.2103 -0.4103  0.2824
  811MOL0     H 9418   4.758   9.591  11.024 -0.2278 -0.9345 -0.8228
  811MOL0     H 9419   4.878   9.504  10.849  0.0602 -0.8169 -0.4213
  811MOL0     H 9420   5.079   9.137  10.961 -2.6434  0.7820  0.5139
  811MOL0     H 9421   4.990   9.045  10.837 -2.7468  1.2466  0.7615
  811MOL0     H 9422   5.252   9.200  10.808  0.5645 -1.0872 -0.8615
  811MOL0     H 9423   5.157   9.153  10.663  2.9801  5.5560  0.0485
  811MOL0     H 9424   5.214   8.933  10.856  0.5835  1.0889  0.1949
  811MOL0     H 9425   5.350   8.997  10.776  0.3164 -5.0397  2.6555
  811MOL0     H 9426   5.094   8.897  10.632  0.9098  0.0326 -2.3401
  811MOL0     H 9427   5.248   8.928  10.545 -2.4836 -0.3477 -2.8146
  811MOL0     H 9428   5.312   8.727  10.710 -0.3772 -1.6811  3.1538
  811MOL0     H 9429   5.141   8.727  10.752  1.2060  1.0121  0.4312
  811MOL0     H 9430   5.073   8.663  10.515  1.0627  1.5278 -0.5319
  811MOL0     H 9431   5.251   8.665  10.491 -1.1302 -0.7918 -1.8443
  811MOL0     H 9432   5.111   8.445  10.512 -0.0973 -0.2169 -0.0831
  811MOL0     H 9433   5.100   8.500  10.676 -3.2669  0.7001 -2.1689
  811MOL0     H 9434   5.361   8.431  10.547 -1.0096  3.0005 -0.1080
  811MOL0     H 9435   5.356   8.507  10.707  0.1491  2.8629 -2.8958
  811MOL0     H 9436   5.117   8.220  10.574 -2.2195 -0.5742  1.3027
  811MOL0     H 9437   5.113   7.925  10.819  0.6233 -0.5777  0.2778
  811MOL0     H 9438   5.015   8.017  10.709  1.6971  4.4073  0.9583
  811MOL0     H 9439   5.099   7.944  10.529 -0.0164 -0.6877  0.7830
  811MOL0     H 9440   5.256   7.895  10.591 -0.5200  0.2948 -3.2725
  811MOL0     H 9441   4.990   7.754  10.607 -0.3458  2.0083 -1.3660
  811MOL0     H 9442   5.135   7.689  10.687 -0.1023  1.8805  1.0184
  811MOL0     H 9443   5.266   7.692  10.480  0.1029 -0.4333  0.9376
  811MOL0     H 9444   5.118   7.727  10.391  1.1696 -2.3431 -0.6042
  811MOL0     H 9445   5.062   7.277  10.512  0.8487 -1.1073  0.0893
  811MOL0     H 9446   5.117   7.114  10.364  0.9452 -0.1669  1.1158
  811MOL0     H 9447   5.004   6.835  10.082 -0.9989 -1.1195 -3.7654
  811MOL0     H 9448   5.045   6.628   9.968  2.3745 -1.6336 -0.9718
  811MOL0     H 9449   5.111   6.416   9.852 -0.3652 -2.7733 -1.2943
  811MOL0     H 9450   5.102   6.542   9.747 -1.5451 -0.3970  2.6942
  811MOL0     H 9451   5.341   6.398   9.651 -0.1157  0.3155  0.7429
  811MOL0     H 9452   5.254   6.275   9.738  2.3866  1.1060 -0.1903
  811MOL0     H 9453   5.172   6.248   9.524 -1.2847 -1.1450  1.2183
  811MOL0     H 9454   5.045   6.323   9.604 -1.2243 -0.3842 -3.2381
  811MOL0     H 9455   5.268   6.442   9.431 -0.5385 -2.9293 -0.8680
  811MOL0     H 9456   5.148   6.556   9.495 -1.3789  0.2544 -0.4674
  811MOL0     H 9457   5.085   6.314   9.330  3.0298  0.9029  0.3028
  811MOL0     H 9458   5.092   6.460   9.242  0.0524  0.9492  1.2431
  811MOL0     H 9459   4.903   6.420   9.483  1.8397 -2.0773 -0.1619
  811MOL0     H 9460   4.909   6.551   9.368  1.7346  0.6125  0.6547
  811MOL0     H 9461   4.868   6.263   9.285  1.3617  1.8801 -2.3913
  811MOL0     H 9462   4.835   6.400   9.188  1.4252 -1.6199 -0.7816
  811MOL0     H 9463   4.661   6.468   9.368 -0.8526  0.5537  0.3350
  811MOL0     H 9464   4.609   6.338   9.273 -2.7032  2.7358  2.1966
  811MOL0     H 9465   5.443   6.762   9.873 -0.1567  3.3760 -0.5433
  811MOL0     H 9466   5.423   6.941  10.006 -1.2414  1.6638 -3.3512
  811MOL0     H 9467   5.309   7.398  10.108 -0.0494 -1.7107 -1.3018
  811MOL0     H 9468   5.254   7.590  10.265 -3.3010  0.8640 -4.3373
  811MOL0     H 9469   4.867   9.121  11.049  0.8448  0.7447 -2.1649
  811MOL0     H 9470   4.728   9.201  11.218  0.2656  1.0349  0.9240
  811MOL0     H 9471   4.289   9.626  11.267  0.3261  2.1705  0.4033
  811MOL0     H 9472   4.138   9.650  11.447 -0.0476 -1.9568 -3.6929
  811MOL0     H 9473   4.308   9.694  11.799  0.5087 -1.9048 -2.3595
  811MOL0     H 9474   4.184   9.616  11.895 -1.6108  2.1034  0.7479
  811MOL0     H 9475   4.152   9.856  11.891  0.0677 -1.3696  0.3589
  811MOL0     H 9476   4.020   9.762  11.818  0.7651  1.8108  2.3060
  811MOL0     H 9477   4.064   9.978  11.682  0.5377 -0.0874  0.2106
  811MOL0     H 9478   4.114   9.838  11.586 -0.3799 -0.6971 -0.2935
  811MOL0     H 9479   4.340   9.882  11.622 -0.9583 -0.1415 -0.8471
  811MOL0     H 9480   4.286  10.043  11.611 -2.1994  0.5587 -0.2063
  811MOL0     H 9481   4.455  10.063  11.985  0.7582 -1.6852 -0.7145
  811MOL0     H 9482   4.446   9.482  11.715  1.2219 -1.9813 -0.5023
  811MOL0     H 9483   4.618   9.384  11.648  0.0795  1.2347  0.3961
  811MOL0     H 9484   4.595   9.287  11.510  3.3944 -1.2566  0.2289
  811MOL0     H 9485   4.710   9.425  11.497  0.5456 -3.8063 -1.1380
  812MOL0     O 9486   2.935   8.396  10.690  0.4757 -0.7322  0.3166
  812MOL0     C 9487   3.030   8.477  10.711  1.0606 -0.1123  0.1300
  812MOL0     O 9488   3.039   8.562  10.820  0.2535  0.3497  0.2326
  812MOL0     C 9489   2.951   8.539  10.930 -1.2333 -0.2027  0.0305
  812MOL0     C 9490   2.823   8.607  10.935  1.0068  0.7435  0.8344
  812MOL0     C 9491   2.732   8.570  11.042 -1.0600  0.6219  1.3278
  812MOL0     C 9492   2.770   8.470  11.129 -0.2317  1.2193  0.6513
  812MOL0     O 9493   2.674   8.455  11.221 -0.1020 -0.4186  0.0928
  812MOL0     C 9494   2.629   8.324  11.258  0.3462 -0.0712 -0.4783
  812MOL0     C 9495   2.496   8.331  11.332 -0.2364  0.7584  0.8838
  812MOL0     C 9496   2.421   8.209  11.301 -0.0382  0.6535  0.7742
  812MOL0     C 9497   2.333   8.167  11.420 -0.1961 -0.1392 -0.2693
  812MOL0     C 9498   2.262   8.051  11.375  0.5688 -0.9692 -1.1193
  812MOL0     C 9499   2.172   8.006  11.494  0.9361 -0.7034 -0.0407
  812MOL0     C 9500   2.073   7.891  11.449 -0.3957 -0.3597 -0.3313
  812MOL0     C 9501   2.025   7.823  11.580 -0.5042  0.0887  0.7423
  812MOL0     N 9502   1.954   7.704  11.534 -0.2205  0.9286 -0.7294
  812MOL0     C 9503   1.820   7.708  11.486 -0.3785  0.2079 -0.6796
  812MOL0     C 9504   1.803   7.583  11.441 -0.7302 -0.6895  0.3567
  812MOL0     C 9505   1.683   7.513  11.374 -0.1576  1.2975 -0.0533
  812MOL0     C 9506   1.705   7.365  11.348 -0.6305 -0.3395  0.0210
  812MOL0     C 9507   1.814   7.338  11.247 -0.3271 -0.1329  1.0684
  812MOL0     C 9508   1.821   7.182  11.214  0.2339  0.2570 -0.0744
  812MOL0     O 9509   1.825   7.117  11.345  0.0076 -0.5320 -0.0689
  812MOL0     C 9510   1.940   7.115  11.425  0.6924 -0.6434  0.3056
  812MOL0     C 9511   1.938   7.116  11.562 -0.5995  0.9558  1.2755
  812MOL0     C 9512   2.049   7.142  11.639  1.5213 -0.2669  0.1739
  812MOL0     C 9513   2.172   7.154  11.586  0.3327  0.5098  0.1322
  812MOL0     C 9514   2.289   7.197  11.671  0.5356  0.5338  0.0986
  812MOL0     O 9515   2.254   7.231  11.805 -0.4168  0.0066  0.0908
  812MOL0     C 9516   2.355   7.262  11.892 -0.3403 -0.4400  0.2169
  812MOL0     C 9517   2.467   7.340  11.867 -0.0554 -0.6781 -0.4141
  812MOL0     C 9518   2.566   7.372  11.966 -0.5612  0.2505  0.2260
  812MOL0     C 9519   2.548   7.338  12.091 -0.4324 -0.7598  0.0812
  812MOL0     O 9520   2.635   7.371  12.191 -0.1496 -0.4345  0.9480
  812MOL0     C 9521   2.709   7.497  12.188 -0.0001 -0.1354  1.3339
  812MOL0     C 9522   2.828   7.490  12.283 -0.2936  0.1075 -0.8208
  812MOL0     C 9523   2.897   7.621  12.314 -0.0425 -0.7301 -0.5073
  812MOL0     C 9524   2.948   7.695  12.193 -0.0616  0.3401 -0.3099
  812MOL0     C 9525   3.051   7.810  12.222 -0.0215 -0.1722 -0.4382
  812MOL0     C 9526   3.168   7.763  12.317 -0.0208 -0.2053  0.7797
  812MOL0     C 9527   3.304   7.830  12.274 -0.1259  0.5817  0.6237
  812MOL0     C 9528   3.397   7.819  12.395  0.0039  0.1821  0.3712
  812MOL0    Cl 9529   3.406   7.655  12.459  0.0903 -0.2890  0.0545
  812MOL0     C 9530   2.435   7.268  12.128 -0.8762  0.7301  0.1063
  812MOL0     C 9531   2.338   7.225  12.026  0.2219  0.5605  0.0798
  812MOL0     O 9532   2.408   7.194  11.630 -0.5575  0.6288 -0.5975
  812MOL0     C 9533   2.184   7.143  11.449  0.5896  0.8357 -0.0061
  812MOL0     C 9534   2.066   7.125  11.369 -0.1815  0.7927 -0.3508
  812MOL0     N 9535   1.926   7.509  11.471  0.0134 -0.4771  0.0938
  812MOL0     N 9536   2.015   7.579  11.526 -0.4334 -0.2647 -0.3538
  812MOL0     C 9537   2.890   8.402  11.119 -0.0168  0.2551  0.0393
  812MOL0     C 9538   2.976   8.439  11.021 -0.1318  0.2274 -0.4470
  812MOL0     C 9539   3.132   8.501  10.606 -0.2452 -0.7564 -0.3130
  812MOL0     C 9540   3.238   8.589  10.640 -0.8908  0.9409 -0.5213
  812MOL0     C 9541   3.343   8.610  10.542  1.0922  0.2523 -0.2667
  812MOL0     C 9542   3.338   8.541  10.417 -0.0521  1.1274 -0.7588
  812MOL0     O 9543   3.442   8.540  10.329 -0.2067 -0.4340 -0.4852
  812MOL0     C 9544   3.555   8.624  10.346 -0.0431 -0.2756  0.2626
  812MOL0     C 9545   3.634   8.575  10.226  0.2414 -0.3616 -0.2865
  812MOL0     C 9546   3.714   8.452  10.251  0.6460  0.2569  0.2899
  812MOL0     C 9547   3.811   8.416  10.138  0.4633 -0.5894 -0.5092
  812MOL0     C 9548   3.776   8.472  10.004  0.0241 -0.0302 -0.7796
  812MOL0     C 9549   3.749   8.521   9.896  0.6814  0.2373  0.1596
  812MOL0     C 9550   3.243   8.446  10.403 -0.2204 -0.5906  0.5130
  812MOL0     C 9551   3.143   8.426  10.484  0.7570 -0.8302 -0.4454
  812MOL0     C 9552   3.059   8.313  10.453  0.8759  0.4631  0.4447
  812MOL0     H 9553   2.797   8.689  10.869 -0.6885 -1.4803 -1.4314
  812MOL0     H 9554   2.636   8.620  11.037 -2.1202 -1.4349 -0.7109
  812MOL0     H 9555   2.611   8.273  11.163  1.1012 -3.4868  1.0666
  812MOL0     H 9556   2.707   8.271  11.313 -0.8850 -0.0800  1.3182
  812MOL0     H 9557   2.439   8.415  11.292 -1.5254 -1.1853 -1.5640
  812MOL0     H 9558   2.506   8.342  11.441 -5.0581 -1.9510  1.8863
  812MOL0     H 9559   2.486   8.122  11.284  0.3598  0.8435  1.2872
  812MOL0     H 9560   2.370   8.226  11.206  4.1160 -0.6059 -1.9266
  812MOL0     H 9561   2.395   8.144  11.507 -0.1426 -1.6544 -0.6966
  812MOL0     H 9562   2.262   8.248  11.437  0.9077  0.2916  3.1484
  812MOL0     H 9563   2.198   8.080  11.292  0.5494  2.8462  0.0617
  812MOL0     H 9564   2.342   7.978  11.355  0.9167 -0.9104 -0.0449
  812MOL0     H 9565   2.236   7.972  11.576  0.4913 -0.3340  0.4630
  812MOL0     H 9566   2.103   8.086  11.521  0.6202 -0.0387 -2.5168
  812MOL0     H 9567   2.132   7.815  11.396  1.1810 -0.5055  1.4968
  812MOL0     H 9568   1.990   7.928  11.389 -0.4643  3.8249  1.9656
  812MOL0     H 9569   2.102   7.797  11.653  0.4178  2.6608  0.7808
  812MOL0     H 9570   1.951   7.884  11.633  0.5493  3.0988 -0.9511
  812MOL0     H 9571   1.746   7.787  11.488 -1.1560 -0.5070  0.4817
  812MOL0     H 9572   1.591   7.522  11.431 -1.0808 -1.7792 -0.8502
  812MOL0     H 9573   1.668   7.545  11.270 -0.2537  0.3041 -0.3577
  812MOL0     H 9574   1.724   7.314  11.443 -1.4415 -0.9796 -0.1470
  812MOL0     H 9575   1.611   7.316  11.321 -2.2145  1.0675  2.5112
  812MOL0     H 9576   1.917   7.370  11.270  0.4425 -0.9589 -1.0043
  812MOL0     H 9577   1.800   7.389  11.151  0.1867  1.2416  1.6946
  812MOL0     H 9578   1.904   7.164  11.145 -0.1105  0.0848 -0.4480
  812MOL0     H 9579   1.731   7.160  11.157 -0.1460 -1.1503  1.0034
  812MOL0     H 9580   1.846   7.095  11.616 -0.2532  1.0729  1.9175
  812MOL0     H 9581   2.042   7.150  11.747 -1.6381  3.0075 -0.0553
  812MOL0     H 9582   2.493   7.392  11.775 -0.9950  0.7844  0.1163
  812MOL0     H 9583   2.653   7.431  11.939 -1.4973  3.0371  2.6782
  812MOL0     H 9584   2.741   7.516  12.085 -3.0538 -0.5721  0.1935
  812MOL0     H 9585   2.637   7.571  12.224  0.5266  0.5623  0.9815
  812MOL0     H 9586   2.793   7.457  12.381  1.8069 -0.2126 -0.1240
  812MOL0     H 9587   2.900   7.414  12.249 -2.1958 -2.6274  0.8582
  812MOL0     H 9588   2.836   7.693  12.369  2.4326  0.4719  0.7774
  812MOL0     H 9589   2.979   7.591  12.379 -0.1209 -0.4407 -0.2783
  812MOL0     H 9590   2.866   7.738  12.135  0.4783  1.2859 -0.3948
  812MOL0     H 9591   2.999   7.617  12.136 -1.4246  0.2812 -1.5001
  812MOL0     H 9592   3.004   7.890  12.279  2.9674  0.2001  1.6842
  812MOL0     H 9593   3.082   7.859  12.129 -2.0418  0.7851 -0.6634
  812MOL0     H 9594   3.149   7.781  12.423  1.9677 -1.8845  1.4932
  812MOL0     H 9595   3.174   7.654  12.316  0.8224 -0.2139 -1.9912
  812MOL0     H 9596   3.299   7.936  12.249  0.9887  1.5923  4.1520
  812MOL0     H 9597   3.340   7.771  12.189 -2.9686 -0.2028 -0.1565
  812MOL0     H 9598   3.499   7.847  12.370 -0.9979  1.8861 -2.1161
  812MOL0     H 9599   3.366   7.895  12.467 -1.3011  1.8470 -1.8340
  812MOL0     H 9600   2.424   7.243  12.233  1.8074 -0.7929  0.1080
  812MOL0     H 9601   2.250   7.162  12.040  1.4468 -0.7337  2.4835
  812MOL0     H 9602   2.285   7.131  11.411  0.4935 -5.6919  0.7547
  812MOL0     H 9603   2.065   7.121  11.260 -0.5633  1.7259 -0.3876
  812MOL0     H 9604   2.913   8.321  11.188  0.5275 -0.9961 -1.5563
  812MOL0     H 9605   3.077   8.400  11.016 -0.1082  0.1628  0.4238
  812MOL0     H 9606   3.239   8.655  10.725 -0.8751  1.0970 -0.6422
  812MOL0     H 9607   3.415   8.690  10.555 -1.1597  2.1332  1.5012
  812MOL0     H 9608   3.616   8.601  10.434  0.4954 -1.2011 -0.3340
  812MOL0     H 9609   3.527   8.729  10.338  1.5756  0.1133 -0.9627
  812MOL0     H 9610   3.696   8.656  10.188  0.1666 -0.0437  0.2677
  812MOL0     H 9611   3.561   8.561  10.145 -1.1570 -0.6284  0.9770
  812MOL0     H 9612   3.638   8.378  10.276 -3.5427  3.8386 -0.6713
  812MOL0     H 9613   3.767   8.452  10.347 -1.9657  0.4302  1.8366
  812MOL0     H 9614   3.913   8.450  10.153  1.2956 -3.3826  0.9097
  812MOL0     H 9615   3.824   8.308  10.129  2.1287 -0.8040  3.0053
  812MOL0     H 9616   3.726   8.560   9.799  0.0143 -0.5771 -0.0193
  812MOL0     H 9617   3.259   8.394  10.309  1.0547 -0.8931  0.8707
  812MOL0     H 9618   3.052   8.240  10.534  0.2975 -0.3352 -0.3014
  812MOL0     H 9619   2.955   8.327  10.420 -0.4959 -2.8816  2.7923
  812MOL0     H 9620   3.103   8.240  10.384 -1.3523  0.9854 -1.7004
  813MOL0     O 9621   8.513   4.717  10.384  0.4159 -0.2695  0.4662
  813MOL0     C 9622   8.576   4.685  10.482 -0.5578 -0.0513 -0.3235
  813MOL0     O 9623   8.570   4.758  10.600  0.9414 -0.1632  0.1410
  813MOL0     C 9624   8.516   4.888  10.607  0.4858  1.3021  0.0744
  813MOL0     C 9625   8.462   4.934  10.729  0.3486 -0.5286 -0.6270
  813MOL0     C 9626   8.403   5.062  10.737 -0.0260  0.0387 -0.0281
  813MOL0     C 9627   8.413   5.146  10.627 -0.2603 -0.6744  0.5090
  813MOL0     O 9628   8.368   5.275  10.645  0.6680 -1.3210 -0.9058
  813MOL0     C 9629   8.332   5.348  10.527 -0.4039  0.3333 -0.1565
  813MOL0     C 9630   8.293   5.499  10.553  0.2584  1.1211  0.7476
  813MOL0     C 9631   8.413   5.593  10.573  0.6847  0.4510  0.6552
  813MOL0     C 9632   8.363   5.745  10.567 -0.5288 -0.4367 -0.2224
  813MOL0     C 9633   8.477   5.832  10.614 -0.4622 -0.0275 -0.4224
  813MOL0     C 9634   8.597   5.839  10.524 -0.0645  0.0028  0.5672
  813MOL0     C 9635   8.567   5.870  10.376  0.3723 -0.0662 -0.6729
  813MOL0     C 9636   8.695   5.897  10.297  0.0478 -0.2190  0.6134
  813MOL0     N 9637   8.785   5.779  10.311  0.2456 -0.6018  0.6730
  813MOL0     C 9638   8.759   5.648  10.265  0.5409 -0.1838  0.9149
  813MOL0     C 9639   8.875   5.578  10.291 -1.0671  0.3431 -0.4896
  813MOL0     C 9640   8.903   5.429  10.287 -0.3825 -0.6537 -0.0243
  813MOL0     C 9641   8.860   5.349  10.422  0.3159 -0.0270  0.5345
  813MOL0     C 9642   8.988   5.350  10.512  0.0015 -0.2903 -0.5719
  813MOL0     C 9643   8.954   5.341  10.658  0.4739 -0.5035  0.7314
  813MOL0     O 9644   8.863   5.235  10.673  0.0669  0.4122  0.0377
  813MOL0     C 9645   8.833   5.214  10.802 -0.7839 -0.0452  0.1146
  813MOL0     C 9646   8.864   5.293  10.920 -0.0691  0.0057  1.0334
  813MOL0     C 9647   8.827   5.244  11.040 -0.9629 -0.5730 -0.6404
  813MOL0     C 9648   8.768   5.115  11.060 -0.9901 -1.1511  0.0606
  813MOL0     C 9649   8.746   5.056  11.189 -0.3136  0.0751 -0.1660
  813MOL0     O 9650   8.768   5.126  11.297 -0.3595 -0.2693  0.0979
  813MOL0     C 9651   8.735   5.081  11.423  0.1144 -0.1323 -0.2832
  813MOL0     C 9652   8.620   5.108  11.485  0.0995 -0.5157 -0.6710
  813MOL0     C 9653   8.589   5.048  11.612 -0.2355 -0.1965 -0.0907
  813MOL0     C 9654   8.675   4.977  11.690 -0.2790  0.0600  1.2452
  813MOL0     O 9655   8.638   4.916  11.803  0.0968 -0.1251 -0.3242
  813MOL0     C 9656   8.692   4.999  11.918 -0.1819  0.8412  0.6603
  813MOL0     C 9657   8.601   4.983  12.035 -0.3106 -0.2796 -0.5990
  813MOL0     C 9658   8.488   5.087  12.011 -0.3075  0.0727 -0.5552
  813MOL0     C 9659   8.423   5.132  12.146 -0.2291 -0.3505  0.7145
  813MOL0     C 9660   8.319   5.246  12.117  0.3082 -0.0277  0.4043
  813MOL0     C 9661   8.171   5.193  12.111  0.2211  1.0023 -0.0628
  813MOL0     C 9662   8.111   5.156  12.247 -0.3134  0.1592 -0.4885
  813MOL0     C 9663   8.061   5.276  12.341  0.2546 -0.5325  0.2016
  813MOL0    Cl 9664   7.895   5.332  12.304 -0.0972  0.6686  0.2762
  813MOL0     C 9665   8.805   4.959  11.630  0.8827 -0.2356 -0.1529
  813MOL0     C 9666   8.827   5.001  11.494  0.3339  0.6737 -0.1959
  813MOL0     O 9667   8.708   4.941  11.194  0.2624  0.0717 -0.1138
  813MOL0     C 9668   8.741   5.039  10.944  0.7625  0.4038 -0.4759
  813MOL0     C 9669   8.769   5.092  10.815  0.6898  0.2527  0.2262
  813MOL0     N 9670   8.966   5.667  10.352 -0.3894  0.5192  0.4038
  813MOL0     N 9671   8.911   5.784  10.365  0.3419 -0.1462 -0.1355
  813MOL0     C 9672   8.492   5.114  10.516  0.5197 -0.6287  0.7330
  813MOL0     C 9673   8.529   4.978  10.501 -0.7445  0.4559  1.3255
  813MOL0     C 9674   8.647   4.553  10.487  0.0374 -0.3547 -0.6976
  813MOL0     C 9675   8.716   4.531  10.606 -0.7462  0.2021 -0.4700
  813MOL0     C 9676   8.801   4.416  10.619 -0.8860 -0.0412  0.0922
  813MOL0     C 9677   8.807   4.321  10.521  0.6019  0.5294  0.3502
  813MOL0     O 9678   8.888   4.215  10.554  0.1084 -0.7550  0.1879
  813MOL0     C 9679   8.875   4.088  10.494  0.8631  0.6218  0.5481
  813MOL0     C 9680   8.971   4.077  10.371  0.5284 -0.7075  0.0771
  813MOL0     C 9681   9.108   4.103  10.421 -0.6918 -0.4849  0.2374
  813MOL0     C 9682   9.166   3.970  10.485 -1.0602 -0.4294  0.3157
  813MOL0     C 9683   9.222   3.881  10.371  0.2085 -0.2052  0.5828
  813MOL0     C 9684   9.265   3.823  10.272  0.1472  1.0477 -0.0219
  813MOL0     C 9685   8.720   4.346  10.411  0.4192 -0.2031 -0.3698
  813MOL0     C 9686   8.634   4.451  10.394  0.3858  0.9510 -0.9317
  813MOL0     C 9687   8.536   4.435  10.279 -0.9991 -0.2035 -0.3375
  813MOL0     H 9688   8.469   4.868  10.815  0.7064 -1.9049 -1.6771
  813MOL0     H 9689   8.355   5.089  10.831  1.8701  1.4381  0.5991
  813MOL0     H 9690   8.398   5.339  10.441  1.5215 -4.7333  1.4769
  813MOL0     H 9691   8.241   5.297  10.494 -1.7854  2.6458 -0.1816
  813MOL0     H 9692   8.220   5.513  10.633 -1.3975  1.4531 -0.7755
  813MOL0     H 9693   8.253   5.539  10.459  1.8508  0.6776 -0.1587
  813MOL0     H 9694   8.492   5.570  10.501  0.7047 -0.6274  0.9958
  813MOL0     H 9695   8.460   5.562  10.667  0.6252  2.4890  1.3857
  813MOL0     H 9696   8.341   5.772  10.463 -0.7532 -1.3769 -0.4274
  813MOL0     H 9697   8.278   5.759  10.634 -0.0516 -1.2056  0.5638
  813MOL0     H 9698   8.441   5.935  10.620 -1.2860 -0.3273 -0.0789
  813MOL0     H 9699   8.514   5.816  10.716 -1.4707 -1.0742 -0.2037
  813MOL0     H 9700   8.665   5.920  10.554  1.6952 -1.7417  1.4804
  813MOL0     H 9701   8.655   5.747  10.529 -0.6285 -0.3030  1.7901
  813MOL0     H 9702   8.499   5.956  10.381 -2.3329 -2.0784 -0.4691
  813MOL0     H 9703   8.509   5.795  10.322 -1.3895  2.4721 -2.5481
  813MOL0     H 9704   8.668   5.925  10.194 -0.4313 -0.2670  0.7224
  813MOL0     H 9705   8.763   5.973  10.335  1.5780 -1.5940  0.7318
  813MOL0     H 9706   8.663   5.607  10.234  0.0500  1.2502  0.4716
  813MOL0     H 9707   8.851   5.376  10.207 -6.0110  1.2456  1.8793
  813MOL0     H 9708   9.010   5.415  10.270 -0.3383 -0.3831  0.0201
  813MOL0     H 9709   8.783   5.407  10.474  0.4619  0.4006  0.2783
  813MOL0     H 9710   8.820   5.250  10.401 -0.1925  0.5610 -1.4823
  813MOL0     H 9711   9.049   5.439  10.492  0.4098  0.5665  3.5102
  813MOL0     H 9712   9.050   5.260  10.500 -2.7672 -2.6943  1.7603
  813MOL0     H 9713   8.895   5.432  10.670  0.0049 -0.3595 -2.0695
  813MOL0     H 9714   9.050   5.338  10.712  0.8874 -1.4450 -0.0343
  813MOL0     H 9715   8.922   5.384  10.926  1.1057 -0.7683  1.9884
  813MOL0     H 9716   8.852   5.295  11.133 -1.6434 -1.9436  0.3238
  813MOL0     H 9717   8.545   5.175  11.445  1.2548  0.3821 -1.3896
  813MOL0     H 9718   8.494   5.065  11.660 -0.1886  0.3573 -0.1909
  813MOL0     H 9719   8.796   4.969  11.936 -0.1347 -0.8281 -1.8026
  813MOL0     H 9720   8.699   5.103  11.886 -0.2026  0.3072 -1.1980
  813MOL0     H 9721   8.564   4.881  12.049 -2.6636  0.4737 -0.8649
  813MOL0     H 9722   8.659   5.021  12.119  2.6690 -0.1530 -2.5341
  813MOL0     H 9723   8.528   5.176  11.963  0.0710 -0.9157 -2.1425
  813MOL0     H 9724   8.428   5.050  11.927 -1.3901 -0.5679  0.4679
  813MOL0     H 9725   8.504   5.178  12.203  1.1899 -0.2415 -1.2758
  813MOL0     H 9726   8.380   5.040  12.186 -0.1188 -1.1799 -0.9952
  813MOL0     H 9727   8.331   5.317  12.034 -1.5940  0.7508  0.7470
  813MOL0     H 9728   8.329   5.315  12.201 -0.5753  0.6089 -0.0012
  813MOL0     H 9729   8.106   5.262  12.056  2.2072  2.7496 -0.3538
  813MOL0     H 9730   8.180   5.104  12.047  2.3929  0.8943  0.3131
  813MOL0     H 9731   8.186   5.091  12.292 -0.0407  1.3485  0.8358
  813MOL0     H 9732   8.021   5.096  12.227 -0.4963  0.9765 -2.2872
  813MOL0     H 9733   8.054   5.238  12.443  0.8064 -0.9442  0.0896
  813MOL0     H 9734   8.132   5.360  12.341  3.6472 -3.1875  0.4725
  813MOL0     H 9735   8.890   4.907  11.673  1.5392  1.8977  1.2779
  813MOL0     H 9736   8.926   4.983  11.455  0.0627  1.0732 -1.1095
  813MOL0     H 9737   8.723   4.933  10.958  2.7162  0.2154  1.1635
  813MOL0     H 9738   8.739   5.029  10.732  0.7076  2.0364 -1.1838
  813MOL0     H 9739   8.522   5.169  10.428  1.4961 -0.1296  1.3610
  813MOL0     H 9740   8.575   4.944  10.409  0.9130  6.6679 -0.6141
  813MOL0     H 9741   8.718   4.598  10.691 -1.8356  0.8635 -0.9351
  813MOL0     H 9742   8.867   4.401  10.704 -0.0282 -1.8056 -0.8312
  813MOL0     H 9743   8.777   4.081  10.446  2.4100 -0.3409 -2.7860
  813MOL0     H 9744   8.885   4.002  10.561 -3.9482 -2.5751 -2.2208
  813MOL0     H 9745   8.935   4.156  10.305  0.9064 -0.1774  0.4940
  813MOL0     H 9746   8.964   3.982  10.316  1.6694 -0.2980 -0.8244
  813MOL0     H 9747   9.117   4.178  10.500 -2.1993  0.8726 -0.8019
  813MOL0     H 9748   9.173   4.126  10.337  0.5798 -2.0019  0.7499
  813MOL0     H 9749   9.249   3.988  10.554 -1.2794 -0.5159  0.6017
  813MOL0     H 9750   9.087   3.913  10.536 -0.6175 -0.0567  1.4483
  813MOL0     H 9751   9.318   3.791  10.184  2.3000  3.7526  0.1551
  813MOL0     H 9752   8.705   4.270  10.335  1.4313 -0.4344 -0.3629
  813MOL0     H 9753   8.461   4.515  10.273  1.9028  3.0360  2.5088
  813MOL0     H 9754   8.586   4.430  10.182  2.3405  0.7929  1.2188
  813MOL0     H 9755   8.486   4.340  10.304 -1.3163 -0.6239 -2.3726
  814MOL0     O 9756   9.401   3.963   9.896 -0.2726 -0.2203  0.5880
  814MOL0     C 9757   9.351   4.049   9.827  0.1287  1.0343  0.7527
  814MOL0     O 9758   9.386   4.068   9.700  0.3720  0.6948  0.0281
  814MOL0     C 9759   9.317   4.152   9.620  0.2283 -0.3543  0.1743
  814MOL0     C 9760   9.391   4.232   9.530  0.7987 -0.2852 -0.0910
  814MOL0     C 9761   9.322   4.325   9.453  0.2455 -0.2690  0.1198
  814MOL0     C 9762   9.187   4.345   9.465 -0.2198  0.4249 -0.7043
  814MOL0     O 9763   9.119   4.422   9.371 -0.2534  0.3705  0.2744
  814MOL0     C 9764   9.129   4.388   9.235 -0.3187 -0.2746  0.5826
  814MOL0     C 9765   9.060   4.500   9.144 -0.1760 -0.3207  0.6280
  814MOL0     C 9766   8.979   4.438   9.021 -0.0083 -0.1615 -0.0783
  814MOL0     C 9767   8.839   4.507   9.008  0.0417 -0.3042  0.6931
  814MOL0     C 9768   8.791   4.511   8.867 -0.2297  0.2488  0.3279
  814MOL0     C 9769   8.654   4.570   8.855 -0.2681 -0.1199 -0.1311
  814MOL0     C 9770   8.602   4.568   8.713 -0.2282 -0.4974 -0.2168
  814MOL0     C 9771   8.456   4.591   8.705 -0.0410  0.0753 -0.0992
  814MOL0     N 9772   8.410   4.619   8.571 -0.1666  0.1339 -0.2264
  814MOL0     C 9773   8.445   4.557   8.461  0.9353 -0.5012  0.4056
  814MOL0     C 9774   8.389   4.616   8.357 -0.2600 -0.2292  0.7623
  814MOL0     C 9775   8.403   4.576   8.214  0.7161 -0.7391 -0.0665
  814MOL0     C 9776   8.278   4.606   8.139  0.0222  0.1750  0.1998
  814MOL0     C 9777   8.150   4.520   8.186 -0.3474  0.0016  0.3683
  814MOL0     C 9778   8.015   4.596   8.177  0.6961  0.0750 -0.2109
  814MOL0     O 9779   7.915   4.513   8.235 -0.4165 -0.3710  0.5545
  814MOL0     C 9780   7.881   4.524   8.366 -0.1561 -0.0499 -0.7094
  814MOL0     C 9781   7.767   4.454   8.420  0.5650 -0.3387  0.3154
  814MOL0     C 9782   7.718   4.474   8.550 -0.3349 -0.7680  0.5641
  814MOL0     C 9783   7.787   4.563   8.643 -0.7171  0.5228 -0.4064
  814MOL0     C 9784   7.740   4.607   8.778  0.9562 -0.2351  0.8978
  814MOL0     O 9785   7.831   4.659   8.874 -0.0921  0.1012  0.6757
  814MOL0     C 9786   7.782   4.693   8.992  0.2071 -0.0316  0.5306
  814MOL0     C 9787   7.703   4.613   9.076 -0.6410 -0.0297 -0.6261
  814MOL0     C 9788   7.675   4.654   9.204 -0.2472  1.1309  0.6818
  814MOL0     C 9789   7.716   4.780   9.255  0.1372  0.1224 -0.1117
  814MOL0     O 9790   7.697   4.801   9.386  0.3879  0.4869 -0.1960
  814MOL0     C 9791   7.726   4.939   9.424 -1.0478  0.5051  0.0446
  814MOL0     C 9792   7.680   4.953   9.572  0.0211 -1.3975  0.6868
  814MOL0     C 9793   7.621   5.098   9.602  0.1347  1.5267  0.2386
  814MOL0     C 9794   7.579   5.104   9.743 -0.5577 -0.5393 -0.8515
  814MOL0     C 9795   7.549   5.240   9.791 -0.4564  0.5246  0.2760
  814MOL0     C 9796   7.439   5.256   9.898  0.1313  0.6906  0.1671
  814MOL0     C 9797   7.319   5.159   9.890  0.6494 -0.4730  0.1268
  814MOL0     C 9798   7.211   5.222   9.957 -0.5687 -0.1655 -0.6489
  814MOL0    Cl 9799   7.239   5.203  10.138 -0.2760  0.5995  0.0595
  814MOL0     C 9800   7.795   4.862   9.174 -0.3323  0.5246  0.6389
  814MOL0     C 9801   7.826   4.816   9.044 -0.2391 -0.9371 -0.5564
  814MOL0     O 9802   7.620   4.596   8.797 -0.4821 -0.3701  0.2355
  814MOL0     C 9803   7.912   4.611   8.596  0.5560  0.6642  0.0256
  814MOL0     C 9804   7.962   4.587   8.461 -0.2649 -0.1679 -0.1073
  814MOL0     N 9805   8.309   4.722   8.407 -0.2306  0.8498 -0.5082
  814MOL0     N 9806   8.309   4.709   8.542  0.0868 -0.5908 -1.0413
  814MOL0     C 9807   9.110   4.263   9.555 -0.3792 -1.1150 -0.0358
  814MOL0     C 9808   9.176   4.174   9.622 -1.2678 -0.3779 -0.4662
  814MOL0     C 9809   9.270   4.146   9.908  0.7179 -0.5301  0.0675
  814MOL0     C 9810   9.322   4.276   9.922 -0.3217 -0.1761  0.3123
  814MOL0     C 9811   9.249   4.371  10.003  0.6991  0.0192  0.1586
  814MOL0     C 9812   9.127   4.340  10.063 -1.2894 -0.0834  0.5502
  814MOL0     O 9813   9.056   4.441  10.125 -0.7146 -0.1432  0.4852
  814MOL0     C 9814   8.908   4.443  10.130 -0.0253  0.3964  0.1922
  814MOL0     C 9815   8.871   4.566  10.212 -0.3449  0.5718  0.7809
  814MOL0     C 9816   8.952   4.693  10.169  0.4172 -0.6808 -0.3974
  814MOL0     C 9817   8.870   4.826  10.205  0.1337 -0.5273  0.0402
  814MOL0     C 9818   8.867   4.846  10.354 -0.0302  0.0377  0.3955
  814MOL0     C 9819   8.864   4.863  10.471 -0.9455 -0.8963  0.2437
  814MOL0     C 9820   9.083   4.213  10.044 -0.6366  0.5347 -0.4462
  814MOL0     C 9821   9.152   4.117   9.973  0.0037 -0.4251  0.3630
  814MOL0     C 9822   9.075   3.989   9.967 -0.0792 -0.0822  0.1715
  814MOL0     H 9823   9.498   4.212   9.537  1.0827  0.1378 -2.3352
  814MOL0     H 9824   9.384   4.401   9.406  2.3769 -0.9807  1.5840
  814MOL0     H 9825   9.234   4.378   9.207 -0.4617  0.4399 -0.2448
  814MOL0     H 9826   9.094   4.285   9.226  2.0667 -1.4818  3.3055
  814MOL0     H 9827   9.130   4.580   9.118 -2.1148  1.3082  0.1722
  814MOL0     H 9828   8.986   4.557   9.199  0.2226  2.4150 -1.4573
  814MOL0     H 9829   8.955   4.331   9.025  0.3832 -0.2238  0.8021
  814MOL0     H 9830   9.038   4.452   8.930 -0.6410  3.9299 -0.0328
  814MOL0     H 9831   8.770   4.447   9.067  0.3613 -1.6892 -0.2916
  814MOL0     H 9832   8.833   4.612   9.038 -6.3916  0.7222 -2.5235
  814MOL0     H 9833   8.857   4.589   8.827 -1.8618  2.3955  1.5847
  814MOL0     H 9834   8.805   4.413   8.821 -1.2043  0.6005 -0.7739
  814MOL0     H 9835   8.594   4.505   8.921  0.4744 -2.8261 -1.9587
  814MOL0     H 9836   8.644   4.672   8.892 -0.8277  0.4106 -1.6644
  814MOL0     H 9837   8.628   4.470   8.671 -0.1154  0.0226 -1.3773
  814MOL0     H 9838   8.648   4.637   8.643 -0.2607 -2.2520 -2.0537
  814MOL0     H 9839   8.400   4.515   8.760 -4.6282  3.6531  0.7267
  814MOL0     H 9840   8.435   4.675   8.772  1.8684 -0.0606  0.7514
  814MOL0     H 9841   8.511   4.471   8.451  1.4020 -0.4080  2.3191
  814MOL0     H 9842   8.479   4.647   8.180 -1.9769  2.9618  1.0014
  814MOL0     H 9843   8.433   4.471   8.212  2.5087 -0.2703  0.5074
  814MOL0     H 9844   8.246   4.709   8.158 -1.7575 -0.1537 -0.7740
  814MOL0     H 9845   8.300   4.583   8.034  1.0371  0.1057  0.4177
  814MOL0     H 9846   8.165   4.502   8.293 -2.7826 -0.0000  0.7477
  814MOL0     H 9847   8.147   4.417   8.149 -0.6489  0.3414 -0.5671
  814MOL0     H 9848   7.986   4.619   8.075 -2.4243  0.2837  0.6402
  814MOL0     H 9849   8.031   4.686   8.236 -0.7893  0.7767 -0.8397
  814MOL0     H 9850   7.712   4.398   8.345  3.9508  0.2020 -2.8598
  814MOL0     H 9851   7.626   4.433   8.588  0.1383 -0.9928  1.4866
  814MOL0     H 9852   7.677   4.513   9.045 -0.1019 -0.4596  0.2605
  814MOL0     H 9853   7.624   4.580   9.265  0.4691 -0.4659 -0.5789
  814MOL0     H 9854   7.831   4.971   9.426 -0.7038 -0.6287  0.8613
  814MOL0     H 9855   7.661   5.006   9.367 -1.2026  0.2519 -0.0767
  814MOL0     H 9856   7.599   4.881   9.587 -1.5027 -0.2311 -1.4657
  814MOL0     H 9857   7.767   4.939   9.638 -0.0128  3.9594  2.3511
  814MOL0     H 9858   7.703   5.170   9.590 -1.7670  4.5017  3.4610
  814MOL0     H 9859   7.544   5.119   9.527  1.4972  1.8235 -1.1385
  814MOL0     H 9860   7.663   5.080   9.808 -0.0223  2.8710 -0.1175
  814MOL0     H 9861   7.503   5.028   9.766 -2.4955  0.6580 -2.8178
  814MOL0     H 9862   7.530   5.308   9.708 -0.2505  0.3073  0.0533
  814MOL0     H 9863   7.634   5.275   9.850 -0.9401 -0.8175  1.8809
  814MOL0     H 9864   7.497   5.244   9.990  3.3272 -1.0915 -1.9079
  814MOL0     H 9865   7.408   5.361   9.899 -2.3112  0.0387  1.1529
  814MOL0     H 9866   7.347   5.070   9.945 -2.0150 -0.4548  1.6972
  814MOL0     H 9867   7.286   5.133   9.789 -0.5978 -1.9548  0.8797
  814MOL0     H 9868   7.192   5.327   9.936 -0.2551 -0.1634 -0.9270
  814MOL0     H 9869   7.118   5.167   9.937 -0.7094  0.2883 -1.2614
  814MOL0     H 9870   7.844   4.955   9.203  1.8335 -1.0960  2.5576
  814MOL0     H 9871   7.901   4.877   8.994  0.2573  0.2941  1.5744
  814MOL0     H 9872   7.965   4.678   8.662  3.3686 -0.2690 -1.1018
  814MOL0     H 9873   8.061   4.632   8.455 -0.1491  0.5254  3.9300
  814MOL0     H 9874   9.004   4.285   9.562 -0.2280 -0.4271  0.1562
  814MOL0     H 9875   9.130   4.125   9.706 -0.2612  0.0895  0.3787
  814MOL0     H 9876   9.407   4.302   9.860  0.5105 -1.4219  0.8951
  814MOL0     H 9877   9.285   4.473  10.005 -1.7449  0.9741 -0.2921
  814MOL0     H 9878   8.868   4.353  10.177 -0.4902  0.2330 -0.5075
  814MOL0     H 9879   8.872   4.447  10.027 -2.9527  1.1047  1.1363
  814MOL0     H 9880   8.873   4.541  10.318  0.5058 -1.9636  0.2540
  814MOL0     H 9881   8.766   4.588  10.189 -0.6436  1.0907  2.4974
  814MOL0     H 9882   8.955   4.694  10.059 -1.0768 -0.0249 -0.4515
  814MOL0     H 9883   9.053   4.696  10.210  1.8515 -2.1303 -3.4447
  814MOL0     H 9884   8.912   4.914  10.156  0.1962 -1.5699 -1.8652
  814MOL0     H 9885   8.765   4.828  10.178 -0.7946  4.0255  2.8659
  814MOL0     H 9886   8.872   4.877  10.577  0.5840  3.0408 -0.2291
  814MOL0     H 9887   8.981   4.195  10.077 -0.1571 -0.7497  0.4373
  814MOL0     H 9888   9.032   3.952  10.061 -1.8530  1.6180  0.0970
  814MOL0     H 9889   8.994   4.005   9.895 -1.2230  4.0490  2.0259
  814MOL0     H 9890   9.146   3.913   9.935 -0.0334 -1.3059  2.9087
  815MOL0     O 9891   9.694   6.970   6.664  0.4271  0.0939 -0.5826
  815MOL0     C 9892   9.606   6.937   6.580 -0.2837  0.6796 -0.2922
  815MOL0     O 9893   9.628   6.838   6.480  0.0529 -0.8484 -0.2921
  815MOL0     C 9894   9.711   6.734   6.494  0.3172  0.8053  0.0750
  815MOL0     C 9895   9.731   6.671   6.622 -0.8073 -1.4076  0.4919
  815MOL0     C 9896   9.784   6.544   6.626 -0.1445  0.2587 -0.0222
  815MOL0     C 9897   9.824   6.480   6.502  0.2655 -0.3644 -0.2439
  815MOL0     O 9898   9.880   6.361   6.489  0.2789  0.6639 -0.8452
  815MOL0     C 9899   9.886   6.264   6.591  0.1871  0.3379  0.7073
  815MOL0     C 9900   9.990   6.151   6.561 -0.6099 -0.7338  0.0696
  815MOL0     C 9901  10.133   6.191   6.527  0.2478 -0.4691 -1.0433
  815MOL0     C 9902  10.202   6.259   6.649  0.1472 -0.4086 -0.1136
  815MOL0     C 9903  10.343   6.204   6.676 -0.6588 -0.3776 -0.5167
  815MOL0     C 9904  10.444   6.215   6.554  0.4646 -0.5394 -0.8047
  815MOL0     C 9905  10.437   6.351   6.475 -0.6385  0.4281 -1.4573
  815MOL0     C 9906  10.569   6.366   6.396 -0.0375 -0.2271  0.1106
  815MOL0     N 9907  10.681   6.418   6.475  0.4137 -0.3456  0.4894
  815MOL0     C 9908  10.721   6.551   6.489 -0.3891 -0.0986  1.2534
  815MOL0     C 9909  10.845   6.548   6.544 -0.5991  0.1411 -0.0132
  815MOL0     C 9910  10.938   6.665   6.573 -0.8782  1.0577  1.0934
  815MOL0     C 9911  10.867   6.778   6.621 -0.3178  0.4891 -0.0052
  815MOL0     C 9912  10.963   6.892   6.640  0.2742  0.4475 -0.5750
  815MOL0     C 9913  10.894   7.023   6.644  0.9710  0.5324  0.4836
  815MOL0     O 9914  10.995   7.119   6.662  0.1809 -0.6689 -0.1599
  815MOL0     C 9915  10.978   7.228   6.585 -0.8911 -0.0793  0.3495
  815MOL0     C 9916  10.918   7.335   6.649  0.4149 -0.1508  1.0701
  815MOL0     C 9917  10.887   7.438   6.560 -0.1205 -1.3558  0.4361
  815MOL0     C 9918  10.948   7.449   6.433  0.2402  0.0854 -0.6575
  815MOL0     C 9919  10.933   7.570   6.351  0.4819  0.7465 -0.5219
  815MOL0     O 9920  10.897   7.687   6.415 -0.6693 -0.1001 -0.0588
  815MOL0     C 9921  10.838   7.794   6.349  0.0914 -0.0893 -0.4000
  815MOL0     C 9922  10.786   7.795   6.222 -0.4620 -0.6649  0.2953
  815MOL0     C 9923  10.712   7.915   6.169 -0.1913  0.1717 -1.0306
  815MOL0     C 9924  10.699   8.027   6.259 -0.2624  0.6810  1.0728
  815MOL0     O 9925  10.650   8.152   6.231  0.4487 -0.3115 -0.3180
  815MOL0     C 9926  10.596   8.179   6.105  0.6151  0.7681 -1.0064
  815MOL0     C 9927  10.709   8.202   6.012 -0.1708  0.1447  0.2366
  815MOL0     C 9928  10.652   8.224   5.873 -0.0146  0.1899  0.5207
  815MOL0     C 9929  10.758   8.206   5.772  0.1778 -0.7082 -0.3034
  815MOL0     C 9930  10.715   8.235   5.626 -0.0733 -0.4650  0.7609
  815MOL0     C 9931  10.838   8.224   5.534 -0.3569  0.5985 -0.1951
  815MOL0     C 9932  10.811   8.189   5.384  0.0032 -0.0468 -0.9579
  815MOL0     C 9933  10.912   8.258   5.296  0.1092  0.2140  1.0756
  815MOL0    Cl 9934  10.846   8.230   5.118 -0.1770  0.5773 -0.2722
  815MOL0     C 9935  10.740   8.022   6.390  0.3525 -0.0388  0.1166
  815MOL0     C 9936  10.815   7.910   6.430  1.1305  0.7197 -0.0566
  815MOL0     O 9937  10.957   7.558   6.232 -0.7065  0.2695 -0.5687
  815MOL0     C 9938  11.019   7.344   6.383  0.2451 -0.7894  0.4726
  815MOL0     C 9939  11.035   7.229   6.462 -0.2444  0.1912  0.2847
  815MOL0     N 9940  10.876   6.415   6.562 -0.0671  0.4818 -0.3153
  815MOL0     N 9941  10.774   6.337   6.526 -0.8523 -0.3981  1.0779
  815MOL0     C 9942   9.811   6.547   6.376  0.0877  0.9421 -0.6107
  815MOL0     C 9943   9.752   6.670   6.378  0.4019  0.0332 -0.2651
  815MOL0     C 9944   9.491   7.024   6.573 -1.0532 -0.7536  0.3208
  815MOL0     C 9945   9.501   7.149   6.643 -0.3955 -0.3907  0.6045
  815MOL0     C 9946   9.394   7.244   6.661 -0.3179  1.0126  0.3038
  815MOL0     C 9947   9.275   7.225   6.608  0.9178  0.2263  1.3944
  815MOL0     O 9948   9.175   7.308   6.646 -0.3936 -1.1574  0.0381
  815MOL0     C 9949   9.039   7.268   6.615  0.0822 -0.7908 -0.5472
  815MOL0     C 9950   8.959   7.387   6.634  0.4774 -0.4402 -0.6588
  815MOL0     C 9951   8.803   7.372   6.614  0.0045 -0.6200  1.7769
  815MOL0     C 9952   8.746   7.518   6.619  0.9139  1.1983 -0.4747
  815MOL0     C 9953   8.746   7.578   6.486  0.0523  0.8699 -0.3530
  815MOL0     C 9954   8.736   7.627   6.374 -0.4068 -1.5768  0.5329
  815MOL0     C 9955   9.265   7.114   6.513 -0.5152 -0.4121  0.0714
  815MOL0     C 9956   9.370   7.006   6.513  1.1460  0.2640 -0.6793
  815MOL0     C 9957   9.324   6.893   6.433 -0.9582  0.6594 -0.0053
  815MOL0     H 9958   9.719   6.727   6.714  0.8018 -2.1893  1.2301
  815MOL0     H 9959   9.787   6.499   6.725 -2.3464  0.3129  0.1199
  815MOL0     H 9960   9.908   6.313   6.686  1.2071  2.2838 -0.4639
  815MOL0     H 9961   9.787   6.219   6.600  1.5153 -2.9763  0.0436
  815MOL0     H 9962   9.936   6.091   6.489 -3.3346 -0.1873  1.5340
  815MOL0     H 9963   9.994   6.095   6.655 -0.0110  1.6898  1.5894
  815MOL0     H 9964  10.136   6.252   6.436 -0.0043  0.6974 -0.2954
  815MOL0     H 9965  10.190   6.098   6.515  3.6242  1.3305 -0.4224
  815MOL0     H 9966  10.208   6.367   6.634  0.1134 -0.2072  1.1732
  815MOL0     H 9967  10.136   6.233   6.733 -1.0974 -1.7203 -1.4534
  815MOL0     H 9968  10.392   6.260   6.757 -0.7471  0.6334 -1.1398
  815MOL0     H 9969  10.347   6.099   6.705 -0.4242 -0.5944 -1.2996
  815MOL0     H 9970  10.537   6.207   6.612 -0.4677  0.2976  0.8847
  815MOL0     H 9971  10.418   6.135   6.485 -1.6833  0.1463 -0.8500
  815MOL0     H 9972  10.416   6.441   6.534  1.9234  0.7500 -0.8966
  815MOL0     H 9973  10.352   6.341   6.408 -1.6832 -0.6885 -0.0276
  815MOL0     H 9974  10.601   6.272   6.350  0.7512 -0.9189  1.9823
  815MOL0     H 9975  10.557   6.427   6.306  2.2840 -0.5288 -0.4794
  815MOL0     H 9976  10.668   6.639   6.454 -0.0198 -0.9424 -1.7021
  815MOL0     H 9977  11.019   6.632   6.638 -0.3271 -0.9130 -0.4931
  815MOL0     H 9978  10.987   6.690   6.478 -0.7639  0.1922  0.9215
  815MOL0     H 9979  10.786   6.796   6.549 -2.2749 -0.0778  1.9351
  815MOL0     H 9980  10.827   6.752   6.719 -1.4997 -2.6787 -1.2234
  815MOL0     H 9981  11.024   6.899   6.550 -2.9257  2.6457 -2.8034
  815MOL0     H 9982  11.028   6.881   6.728  0.3207 -1.0924 -0.7749
  815MOL0     H 9983  10.820   7.013   6.724 -1.5038  2.0821 -1.4832
  815MOL0     H 9984  10.837   7.063   6.560 -0.4986 -1.9232  0.2064
  815MOL0     H 9985  10.883   7.337   6.751 -0.3221 -0.3799  0.8263
  815MOL0     H 9986  10.822   7.522   6.582  1.5747  0.1001  0.0681
  815MOL0     H 9987  10.802   7.717   6.148  0.1313 -0.7218  0.4761
  815MOL0     H 9988  10.683   7.922   6.065  3.4267  1.2523 -2.1135
  815MOL0     H 9989  10.541   8.093   6.067  2.6744 -1.8001  1.3690
  815MOL0     H 9990  10.533   8.268   6.101 -1.3625 -0.6114 -2.4921
  815MOL0     H 9991  10.760   8.294   6.044 -0.7303  0.3685  0.4958
  815MOL0     H 9992  10.790   8.128   6.007  2.9349  3.2305  0.5802
  815MOL0     H 9993  10.569   8.156   5.851 -0.5703  1.1144 -0.3301
  815MOL0     H 9994  10.619   8.328   5.864  1.2942  0.6969  1.4132
  815MOL0     H 9995  10.794   8.103   5.782  0.4473 -0.4954  1.2382
  815MOL0     H 9996  10.845   8.265   5.802  0.0521 -0.1981 -0.9199
  815MOL0     H 9997  10.679   8.338   5.621  1.1298 -0.0431  0.6839
  815MOL0     H 9998  10.646   8.159   5.587 -0.4470  0.4159 -0.3414
  815MOL0     H 9999  10.898   8.315   5.528  3.6613 -1.7581  0.5447
  815MOL0     H10000  10.900   8.145   5.577 -0.4994 -0.2022 -1.4244
  815MOL0     H10001  10.714   8.235   5.365 -0.7875  2.3006  6.0713
  815MOL0     H10002  10.815   8.083   5.355 -1.1142 -1.1213  2.3480
  815MOL0     H10003  10.903   8.361   5.330 -0.9289  1.0352 -1.4339
  815MOL0     H10004  11.015   8.224   5.309  0.9670  2.0846 -0.3667
  815MOL0     H10005  10.721   8.103   6.460 -1.0056  0.7146 -1.0683
  815MOL0     H10006  10.820   7.916   6.538 -1.5962  2.7015  0.0649
  815MOL0     H10007  11.054   7.350   6.280  1.7417  0.4626  1.0101
  815MOL0     H10008  11.086   7.145   6.415  0.7384  0.2316  1.2372
  815MOL0     H10009   9.846   6.506   6.281  0.4839  3.2066 -1.4925
  815MOL0     H10010   9.732   6.722   6.285 -1.3591 -0.2413 -0.0732
  815MOL0     H10011   9.593   7.186   6.686  0.6631  2.6243 -3.5882
  815MOL0     H10012   9.408   7.337   6.716  0.0017  0.5853  0.9559
  815MOL0     H10013   9.004   7.204   6.696  0.3946  1.4383  1.4544
  815MOL0     H10014   9.036   7.231   6.512  2.7543 -0.0714 -0.9627
  815MOL0     H10015   8.997   7.454   6.556  1.1602 -0.9492 -0.7723
  815MOL0     H10016   8.981   7.436   6.729  1.3081  3.2896 -2.5794
  815MOL0     H10017   8.762   7.308   6.693 -3.0772  3.0716  3.5153
  815MOL0     H10018   8.802   7.329   6.514  1.3080 -0.5929  1.7327
  815MOL0     H10019   8.646   7.514   6.662  1.4987 -1.6328  0.8486
  815MOL0     H10020   8.790   7.588   6.691 -0.8090  0.5904  1.2500
  815MOL0     H10021   8.730   7.675   6.279 -3.0552 -3.3134 -0.2973
  815MOL0     H10022   9.176   7.086   6.458  1.3794 -1.0916 -2.8804
  815MOL0     H10023   9.358   6.900   6.329  0.8588 -1.6303  0.3425
  815MOL0     H10024   9.377   6.800   6.460 -2.2298 -0.2953 -0.7103
  815MOL0     H10025   9.216   6.881   6.432 -0.9646  0.6766 -1.8558
  816MOL0     O10026   0.326   1.627   5.199 -0.1513  0.1223 -0.1150
  816MOL0     C10027   0.347   1.749   5.184 -0.0136  0.5875 -0.2016
  816MOL0     O10028   0.350   1.810   5.065  0.4719 -0.1427  0.3692
  816MOL0     C10029   0.328   1.747   4.946  0.8514 -0.1213 -1.0621
  816MOL0     C10030   0.433   1.700   4.871 -0.1712 -0.5776  0.2062
  816MOL0     C10031   0.405   1.641   4.747 -0.5221  1.0436  0.3875
  816MOL0     C10032   0.267   1.620   4.721 -0.5437  0.2104  0.0933
  816MOL0     O10033   0.234   1.525   4.625  0.2296  0.1535 -1.0255
  816MOL0     C10034   0.294   1.558   4.499 -0.6023 -1.0463 -1.1171
  816MOL0     C10035   0.225   1.495   4.373  0.1823  0.3886 -0.2442
  816MOL0     C10036   0.204   1.344   4.390 -0.3997 -0.7220 -0.6209
  816MOL0     C10037   0.174   1.283   4.251 -0.0741  0.0921  0.0804
  816MOL0     C10038   0.126   1.130   4.249  0.2195  0.2852  0.3611
  816MOL0     C10039   0.043   1.101   4.114 -1.1892 -0.2767 -0.5575
  816MOL0     C10040   0.139   1.078   3.997 -0.0084 -1.3521 -0.2094
  816MOL0     C10041   0.106   0.954   3.915  0.8925 -1.3835 -0.1834
  816MOL0     N10042   0.190   0.957   3.795  1.5192 -0.3670 -0.2307
  816MOL0     C10043   0.137   0.963   3.670 -0.6022 -0.0264  1.0398
  816MOL0     C10044   0.251   0.962   3.597 -0.2641  0.7838  0.7933
  816MOL0     C10045   0.248   0.955   3.445  0.3026  0.5119  0.4050
  816MOL0     C10046   0.215   1.093   3.374  0.3071 -0.2258  0.0515
  816MOL0     C10047   0.294   1.224   3.407  0.5299 -0.3067 -0.3252
  816MOL0     C10048   0.217   1.355   3.383 -0.4943 -0.2038 -0.0436
  816MOL0     O10049   0.098   1.370   3.464 -0.6215  0.1250  0.9364
  816MOL0     C10050   0.113   1.427   3.586 -0.0058 -0.4543  0.4471
  816MOL0     C10051   0.068   1.560   3.587  0.8589  0.2936  1.0757
  816MOL0     C10052   0.064   1.641   3.702 -0.4905  0.4357  0.9181
  816MOL0     C10053   0.118   1.576   3.818 -0.4479 -0.4078  0.1336
  816MOL0     C10054   0.145   1.647   3.950 -0.0737 -0.2296  0.5003
  816MOL0     O10055   0.113   1.781   3.959 -0.1704 -0.5193  0.4212
  816MOL0     C10056   0.155   1.849   4.071 -0.1087  0.1023  0.7024
  816MOL0     C10057   0.284   1.889   4.078 -0.0298 -1.2536  0.5397
  816MOL0     C10058   0.324   1.957   4.198 -0.1281 -0.1320  0.4823
  816MOL0     C10059   0.230   1.993   4.298 -0.3444 -0.3727 -0.3937
  816MOL0     O10060   0.272   2.055   4.412  0.5936  0.0636  0.0923
  816MOL0     C10061   0.400   2.014   4.463 -0.0148 -0.1488  0.1306
  816MOL0     C10062   0.412   2.006   4.614  0.2294 -1.3532 -0.9122
  816MOL0     C10063   0.556   2.039   4.660  0.6205 -0.9363  0.4826
  816MOL0     C10064   0.554   2.039   4.809 -0.1203  0.5605 -0.1895
  816MOL0     C10065   0.691   2.072   4.870 -0.8173  1.0301 -0.2966
  816MOL0     C10066   0.683   2.128   5.008 -0.5218  0.4879  0.0097
  816MOL0     C10067   0.817   2.180   5.058  0.2206 -0.0251 -0.0755
  816MOL0     C10068   0.828   2.337   5.093 -0.2956 -0.3249  0.0420
  816MOL0    Cl10069   0.708   2.382   5.212 -0.1345  0.1720  0.2828
  816MOL0     C10070   0.101   1.971   4.272  0.2713  0.1033  0.4878
  816MOL0     C10071   0.065   1.894   4.151 -0.7432 -0.8490 -0.6922
  816MOL0     O10072   0.200   1.578   4.037  0.6955 -0.7178 -0.0353
  816MOL0     C10073   0.169   1.445   3.807 -0.1185 -0.1603  0.6399
  816MOL0     C10074   0.168   1.372   3.691  0.6560 -0.8078 -0.1190
  816MOL0     N10075   0.358   0.949   3.682  0.1204  0.3524 -0.6668
  816MOL0     N10076   0.328   0.938   3.802 -0.0869 -0.1496 -0.2176
  816MOL0     C10077   0.159   1.672   4.795  0.2432  0.3677 -0.4664
  816MOL0     C10078   0.195   1.730   4.918 -0.0006  0.5893  0.4986
  816MOL0     C10079   0.338   1.844   5.303  0.9147 -0.3029  0.2975
  816MOL0     C10080   0.343   1.986   5.276  0.3636 -0.1080  0.3705
  816MOL0     C10081   0.323   2.082   5.368 -0.1847 -0.0974 -0.8421
  816MOL0     C10082   0.289   2.051   5.501  0.8911 -0.0158  0.2217
  816MOL0     O10083   0.258   2.142   5.600  0.3810  0.0251  0.1312
  816MOL0     C10084   0.200   2.266   5.560  1.0802 -0.3750 -0.4007
  816MOL0     C10085   0.166   2.349   5.678  0.8971  0.7694  0.0658
  816MOL0     C10086   0.084   2.472   5.647  0.2609 -0.5931 -0.8503
  816MOL0     C10087  -0.036   2.463   5.549 -0.2231  0.1508 -1.0432
  816MOL0     C10088  -0.130   2.580   5.543  0.9122  0.5271  0.4494
  816MOL0     C10089  -0.187   2.688   5.540  0.3543  0.5122 -0.0790
  816MOL0     C10090   0.281   1.915   5.533 -1.0158 -0.2823  0.1380
  816MOL0     C10091   0.303   1.820   5.435 -0.7622 -0.3315  0.5218
  816MOL0     C10092   0.309   1.678   5.482 -0.1438 -0.5350 -1.0476
  816MOL0     H10093   0.525   1.724   4.923 -0.3969 -1.8013  1.1942
  816MOL0     H10094   0.487   1.611   4.684  0.4252  1.9478  1.1507
  816MOL0     H10095   0.315   1.665   4.496  1.1239 -1.1619  1.9277
  816MOL0     H10096   0.391   1.509   4.509  0.1227  0.5049 -0.0045
  816MOL0     H10097   0.291   1.508   4.287 -3.2968  0.1989 -3.1940
  816MOL0     H10098   0.134   1.553   4.352 -0.9559 -0.9175  0.8331
  816MOL0     H10099   0.113   1.338   4.451  0.8869  1.0390  1.6265
  816MOL0     H10100   0.283   1.291   4.443  0.6665  0.1642 -1.2955
  816MOL0     H10101   0.080   1.328   4.215 -1.0779 -1.8569  0.0946
  816MOL0     H10102   0.245   1.311   4.172 -1.6515 -1.8413 -2.2017
  816MOL0     H10103   0.212   1.066   4.266  0.7280  1.2456  1.6623
  816MOL0     H10104   0.064   1.121   4.340  2.5136  4.1275  2.5987
  816MOL0     H10105  -0.019   1.011   4.123  0.4780 -1.3101  1.7531
  816MOL0     H10106  -0.014   1.189   4.084  0.0009  0.2976 -1.2026
  816MOL0     H10107   0.239   1.075   4.041 -0.9514  0.7224  2.3640
  816MOL0     H10108   0.134   1.163   3.928 -0.8580 -1.7242 -0.6199
  816MOL0     H10109   0.134   0.863   3.969  1.1803 -0.8403  0.6075
  816MOL0     H10110   0.001   0.959   3.886  0.8188  3.1125  0.2432
  816MOL0     H10111   0.033   0.961   3.640 -1.2201  1.0776  2.9644
  816MOL0     H10112   0.349   0.926   3.413  0.5957  2.6279 -0.8178
  816MOL0     H10113   0.172   0.879   3.425  0.9584  0.0285 -0.3328
  816MOL0     H10114   0.233   1.076   3.268  0.8447 -1.6938  0.3434
  816MOL0     H10115   0.112   1.114   3.404  0.3116  0.8402 -0.6717
  816MOL0     H10116   0.385   1.233   3.347 -0.1733  0.6321 -1.2960
  816MOL0     H10117   0.308   1.204   3.513 -0.7315 -2.0189 -0.4418
  816MOL0     H10118   0.197   1.358   3.275  4.2048 -0.4906 -1.1220
  816MOL0     H10119   0.295   1.429   3.401  0.6769 -1.7279  1.4075
  816MOL0     H10120   0.026   1.598   3.495 -0.6335  0.1486  1.6707
  816MOL0     H10121   0.017   1.738   3.713 -0.6424  0.3881  0.6860
  816MOL0     H10122   0.360   1.860   4.006  3.2924 -0.0030  3.2710
  816MOL0     H10123   0.431   1.974   4.199 -0.3222  1.2546  2.0914
  816MOL0     H10124   0.431   1.915   4.428 -1.5015 -1.0879  1.3226
  816MOL0     H10125   0.478   2.086   4.438 -1.0984  0.9145 -0.3046
  816MOL0     H10126   0.345   2.087   4.644  1.3304 -0.0831 -1.7548
  816MOL0     H10127   0.396   1.901   4.642  1.7743 -1.7660 -1.4663
  816MOL0     H10128   0.618   1.962   4.614  1.7246  0.7964 -1.0671
  816MOL0     H10129   0.588   2.136   4.621  0.7198  0.4769  3.7136
  816MOL0     H10130   0.514   1.943   4.842 -1.3394  1.9157  2.6510
  816MOL0     H10131   0.489   2.118   4.849 -0.5123 -0.3208  0.9878
  816MOL0     H10132   0.740   2.147   4.806  0.8047 -0.8452 -1.3792
  816MOL0     H10133   0.750   1.980   4.862 -1.5170  0.4527  0.9515
  816MOL0     H10134   0.604   2.204   5.010 -0.4692  0.5658  2.2736
  816MOL0     H10135   0.640   2.056   5.079 -3.5306  0.4225 -1.6959
  816MOL0     H10136   0.888   2.167   4.976  1.3183  3.8918  0.0447
  816MOL0     H10137   0.851   2.122   5.144  0.9221  3.5799  2.2815
  816MOL0     H10138   0.927   2.364   5.130 -1.2617 -0.0286  2.6162
  816MOL0     H10139   0.807   2.403   5.009 -1.5821  1.3342  1.6022
  816MOL0     H10140   0.019   2.006   4.334  1.2961  3.0368  0.3472
  816MOL0     H10141  -0.038   1.889   4.119 -0.8665 -0.5208 -0.3538
  816MOL0     H10142   0.229   1.399   3.885  2.1834 -0.0105 -0.9524
  816MOL0     H10143   0.196   1.267   3.682  0.5298 -0.7170 -1.7540
  816MOL0     H10144   0.054   1.650   4.776 -0.7074  2.6761  1.5125
  816MOL0     H10145   0.116   1.759   4.986 -2.7553 -1.5220 -1.5521
  816MOL0     H10146   0.366   2.018   5.175  2.6276 -2.9616 -0.1467
  816MOL0     H10147   0.323   2.184   5.331  0.0692 -0.3842 -1.6579
  816MOL0     H10148   0.109   2.248   5.502  0.7799 -6.1028  1.2244
  816MOL0     H10149   0.281   2.313   5.504  0.1281  3.7949  1.3960
  816MOL0     H10150   0.246   2.372   5.750  1.5676 -2.3538  0.4462
  816MOL0     H10151   0.114   2.285   5.750 -0.7096 -1.8855 -3.1991
  816MOL0     H10152   0.162   2.544   5.616  1.5928 -1.2530  0.8330
  816MOL0     H10153   0.047   2.510   5.742 -2.1472 -1.6318 -1.3120
  816MOL0     H10154   0.005   2.449   5.448 -0.0884  3.4670 -1.5514
  816MOL0     H10155  -0.097   2.373   5.565 -0.2806  0.2281 -0.8245
  816MOL0     H10156  -0.238   2.782   5.526 -4.1366 -1.3732  1.6244
  816MOL0     H10157   0.250   1.873   5.628  1.2948 -1.7072  0.3419
  816MOL0     H10158   0.250   1.667   5.574  0.7460  2.6789  0.0453
  816MOL0     H10159   0.264   1.615   5.404  0.2757  3.2243 -4.6845
  816MOL0     H10160   0.416   1.660   5.490 -0.3932 -1.2422  2.1035
  817MOL0     O10161   3.332  11.170   0.291 -0.0761  1.0195 -0.2199
  817MOL0     C10162   3.290  11.072   0.236  0.5055  0.7397 -0.0281
  817MOL0     O10163   3.269  11.056   0.106 -0.2194 -0.3197  0.4494
  817MOL0     C10164   3.294  11.150   0.011  0.0324  0.2747  0.1910
  817MOL0     C10165   3.230  11.278   0.012 -0.1482  0.2338 -0.7473
  817MOL0     C10166   3.238  11.355  -0.098  0.1676 -0.2105  0.5322
  817MOL0     C10167   3.297  11.326  -0.217  1.2976  0.1436  0.4488
  817MOL0     O10168   3.279  11.408  -0.325 -0.1619  0.2259 -0.1997
  817MOL0     C10169   3.167  11.505  -0.340  0.3642  0.2818 -0.4763
  817MOL0     C10170   3.166  11.566  -0.479  0.5436  1.0656 -0.2483
  817MOL0     C10171   3.066  11.493  -0.573 -0.6140  0.5643  0.4043
  817MOL0     C10172   3.015  11.583  -0.689 -0.2898  0.5554 -0.0335
  817MOL0     C10173   2.899  11.532  -0.772  0.1045 -0.2295 -0.9299
  817MOL0     C10174   2.933  11.408  -0.854  0.2811 -0.3602 -0.4205
  817MOL0     C10175   2.819  11.360  -0.950  0.3107 -0.2722  0.3792
  817MOL0     C10176   2.846  11.415  -1.100 -0.0357 -0.0172 -0.2821
  817MOL0     N10177   2.808  11.553  -1.103 -0.2511  0.4516  0.4264
  817MOL0     C10178   2.677  11.596  -1.122 -0.3002 -0.3734 -1.3254
  817MOL0     C10179   2.687  11.731  -1.102  0.0985  0.5358 -0.4548
  817MOL0     C10180   2.571  11.825  -1.120  0.1192 -0.4520  0.2795
  817MOL0     C10181   2.462  11.769  -1.214  0.1079 -0.3921  0.9102
  817MOL0     C10182   2.349  11.720  -1.130  0.4766 -0.9953 -0.0808
  817MOL0     C10183   2.259  11.634  -1.217 -0.9240  0.2894  0.0458
  817MOL0     O10184   2.322  11.501  -1.229 -0.3116 -0.6376 -0.0391
  817MOL0     C10185   2.315  11.408  -1.128  0.2599  0.4751 -0.1948
  817MOL0     C10186   2.185  11.371  -1.082  0.5392 -0.3616  0.2205
  817MOL0     C10187   2.166  11.266  -0.995  1.0144  0.2720  0.4403
  817MOL0     C10188   2.281  11.185  -0.952 -0.7042 -0.2682  0.1726
  817MOL0     C10189   2.273  11.079  -0.850  0.4004  0.2009  0.2009
  817MOL0     O10190   2.161  11.088  -0.778  0.0946  0.7483 -0.8070
  817MOL0     C10191   2.110  10.972  -0.724  0.1416  0.4106  0.7592
  817MOL0     C10192   2.097  10.843  -0.790  0.0896 -1.3877 -0.0322
  817MOL0     C10193   2.032  10.744  -0.726 -0.2304  0.3260  0.2285
  817MOL0     C10194   1.966  10.759  -0.604 -0.3942  0.3069  0.5635
  817MOL0     O10195   1.898  10.660  -0.542  0.7878 -0.6074 -0.5812
  817MOL0     C10196   1.966  10.537  -0.521 -0.1287 -0.1437 -0.3450
  817MOL0     C10197   1.862  10.467  -0.426 -0.3569 -0.8248 -0.0045
  817MOL0     C10198   1.886  10.319  -0.409  0.1840  0.0786 -0.3727
  817MOL0     C10199   1.762  10.256  -0.343  0.2896  0.2371 -0.4451
  817MOL0     C10200   1.753  10.102  -0.364  0.0108  0.1760  0.3135
  817MOL0     C10201   1.661  10.050  -0.256  0.2142 -0.1522 -0.4243
  817MOL0     C10202   1.641   9.900  -0.261  0.1914 -0.8533  0.1916
  817MOL0     C10203   1.604   9.852  -0.116 -0.1482  1.0379 -0.6192
  817MOL0    Cl10204   1.456   9.951  -0.046 -0.7944 -0.0466 -0.3318
  817MOL0     C10205   1.977  10.881  -0.536 -0.0032 -1.5028  0.1258
  817MOL0     C10206   2.048  10.987  -0.602 -0.5813  0.6153 -0.9300
  817MOL0     O10207   2.356  10.991  -0.840  0.0545  0.8457 -0.4927
  817MOL0     C10208   2.408  11.213  -1.006  0.0206 -0.5472  0.4037
  817MOL0     C10209   2.421  11.326  -1.086  0.7646 -1.0409  0.1228
  817MOL0     N10210   2.819  11.757  -1.084 -0.5553  0.0250 -0.0930
  817MOL0     N10211   2.890  11.655  -1.089 -1.0434 -0.3217 -0.1846
  817MOL0     C10212   3.349  11.190  -0.228  0.6849  0.2628  0.9067
  817MOL0     C10213   3.350  11.108  -0.113  0.2626 -0.0493  0.4079
  817MOL0     C10214   3.235  10.955   0.316  0.2222  1.0481  0.8254
  817MOL0     C10215   3.110  10.890   0.278  0.1135 -1.3132 -0.2056
  817MOL0     C10216   3.051  10.800   0.365  0.0220  0.2131 -0.8956
  817MOL0     C10217   3.107  10.756   0.483  0.3610 -0.5400  0.2538
  817MOL0     O10218   3.032  10.667   0.542  0.3952  1.1291 -0.2230
  817MOL0     C10219   3.070  10.625   0.683  0.8192 -0.7580 -0.1725
  817MOL0     C10220   2.972  10.503   0.726  0.1949 -0.7843 -0.4689
  817MOL0     C10221   3.009  10.357   0.721  0.5640 -0.1210 -0.2054
  817MOL0     C10222   2.892  10.270   0.774  0.1021 -1.1990 -0.8177
  817MOL0     C10223   2.941  10.127   0.783 -0.2173 -0.7235  0.9090
  817MOL0     C10224   2.985  10.026   0.806  0.1797  1.7664  0.6651
  817MOL0     C10225   3.216  10.828   0.531  1.1039 -0.7075 -0.1093
  817MOL0     C10226   3.277  10.931   0.451  0.4949 -0.0882 -0.6795
  817MOL0     C10227   3.403  10.992   0.515 -0.8428 -0.4991 -0.5625
  817MOL0     H10228   3.187  11.317   0.104  0.2162  0.7548 -0.7900
  817MOL0     H10229   3.199  11.455  -0.087 -1.6284 -0.2827 -3.3810
  817MOL0     H10230   3.077  11.452  -0.307 -0.3571  0.4176 -2.1294
  817MOL0     H10231   3.174  11.588  -0.269  2.0091 -2.3318  2.6908
  817MOL0     H10232   3.267  11.586  -0.516 -0.0739 -1.2987 -3.6301
  817MOL0     H10233   3.115  11.662  -0.463 -2.1604 -0.2485 -0.3634
  817MOL0     H10234   2.984  11.454  -0.513  0.2932  0.7115  1.7773
  817MOL0     H10235   3.125  11.407  -0.606 -1.1197 -0.0024  0.9631
  817MOL0     H10236   2.990  11.678  -0.641 -0.4009  0.3273  0.3661
  817MOL0     H10237   3.098  11.610  -0.754 -1.7441  2.3787 -1.2528
  817MOL0     H10238   2.809  11.508  -0.714  0.9053 -0.7626  0.1142
  817MOL0     H10239   2.858  11.617  -0.828  0.8143  1.1650  0.6013
  817MOL0     H10240   3.029  11.424  -0.903  1.3895 -2.5288  0.8949
  817MOL0     H10241   2.942  11.338  -0.770  2.3209  2.5939  2.0905
  817MOL0     H10242   2.720  11.392  -0.916  0.1455 -1.6097  1.2518
  817MOL0     H10243   2.816  11.251  -0.940  0.7162 -0.3298 -0.1007
  817MOL0     H10244   2.949  11.421  -1.135 -0.4158  5.6723 -1.5024
  817MOL0     H10245   2.782  11.360  -1.170 -0.1811  2.3242 -2.1168
  817MOL0     H10246   2.594  11.532  -1.151  0.2621 -0.8305 -1.9597
  817MOL0     H10247   2.533  11.845  -1.020  0.5941 -4.3513  1.4210
  817MOL0     H10248   2.596  11.917  -1.173 -3.9906  0.9451  0.4412
  817MOL0     H10249   2.426  11.848  -1.280 -0.9387  0.9743  3.0206
  817MOL0     H10250   2.499  11.689  -1.279 -3.3492 -0.9579 -0.5485
  817MOL0     H10251   2.297  11.803  -1.082  4.5700  1.0037  1.3157
  817MOL0     H10252   2.393  11.663  -1.048 -0.5533 -1.2087  0.3455
  817MOL0     H10253   2.225  11.685  -1.308 -1.1972 -0.2296 -0.1492
  817MOL0     H10254   2.173  11.616  -1.152 -1.1184 -0.0220 -0.2896
  817MOL0     H10255   2.097  11.420  -1.121  0.3031 -0.6987  0.3192
  817MOL0     H10256   2.067  11.237  -0.961  1.3299 -0.4956  0.7020
  817MOL0     H10257   2.134  10.827  -0.890  1.1289  1.7308 -0.2620
  817MOL0     H10258   2.018  10.647  -0.773  4.0517  0.6604 -2.3084
  817MOL0     H10259   1.965  10.492  -0.621 -4.9440 -0.9027 -0.1810
  817MOL0     H10260   2.064  10.555  -0.474 -0.3372 -2.4778  1.1643
  817MOL0     H10261   1.855  10.522  -0.331  0.2752 -0.3532 -0.2201
  817MOL0     H10262   1.766  10.471  -0.477 -1.5840 -2.1324  2.0391
  817MOL0     H10263   1.897  10.270  -0.506 -0.7825  1.5211 -1.2413
  817MOL0     H10264   1.973  10.299  -0.344 -0.2478 -1.5078 -0.2418
  817MOL0     H10265   1.676  10.302  -0.392 -1.1998 -1.1814  0.7560
  817MOL0     H10266   1.748  10.283  -0.238 -0.5336 -0.4372 -0.3776
  817MOL0     H10267   1.853  10.060  -0.350 -1.0837 -2.9785 -0.6306
  817MOL0     H10268   1.714  10.077  -0.463  0.7497  3.2655 -0.8887
  817MOL0     H10269   1.694  10.086  -0.158 -2.6672  0.4128  0.4122
  817MOL0     H10270   1.559  10.087  -0.267  0.2118  0.1090  0.4093
  817MOL0     H10271   1.740   9.856  -0.279  1.4382  2.0516 -0.5499
  817MOL0     H10272   1.566   9.861  -0.330 -1.2146  0.7232  0.7620
  817MOL0     H10273   1.588   9.744  -0.116 -1.0154  0.7868  5.9010
  817MOL0     H10274   1.683   9.877  -0.044 -0.6664  1.8122 -0.2988
  817MOL0     H10275   1.927  10.889  -0.440  3.2504 -2.1182  2.0585
  817MOL0     H10276   2.055  11.079  -0.546 -0.9526 -1.1753  2.3436
  817MOL0     H10277   2.502  11.160  -0.996 -0.0247 -1.5735 -3.1549
  817MOL0     H10278   2.523  11.338  -1.121  0.0872  0.3027 -1.5534
  817MOL0     H10279   3.386  11.161  -0.326 -0.3544 -2.9573  1.3696
  817MOL0     H10280   3.404  11.014  -0.122  2.4143  1.1135  0.3238
  817MOL0     H10281   3.057  10.930   0.192  0.0539  0.5400  0.6656
  817MOL0     H10282   2.952  10.760   0.345  1.5625 -4.2181 -0.8383
  817MOL0     H10283   3.048  10.710   0.748 -0.7556 -2.6637  1.9593
  817MOL0     H10284   3.174  10.593   0.696  1.4841  0.7074 -1.5736
  817MOL0     H10285   2.877  10.512   0.673 -0.7332  0.4896  1.3123
  817MOL0     H10286   2.933  10.531   0.825 -2.4080  0.7223 -1.8339
  817MOL0     H10287   3.100  10.338   0.779 -0.8977 -1.1393  1.9034
  817MOL0     H10288   3.017  10.332   0.615 -1.4883 -1.0182 -0.1859
  817MOL0     H10289   2.853  10.308   0.869 -1.0378  0.5084 -1.9045
  817MOL0     H10290   2.809  10.277   0.703  0.0418  0.2662 -0.6411
  817MOL0     H10291   3.002   9.920   0.813  0.9742  1.9059  0.9763
  817MOL0     H10292   3.265  10.809   0.626  0.2417  0.2817  0.5569
  817MOL0     H10293   3.487  11.010   0.447  0.7417 -1.9809  0.8903
  817MOL0     H10294   3.374  11.086   0.563 -0.8520 -1.2428  0.9665
  817MOL0     H10295   3.444  10.934   0.599 -2.5874  2.2158  2.4015
  818MOL0     O10296   3.781   2.655   7.846  0.2999  0.1040 -0.0990
  818MOL0     C10297   3.723   2.543   7.845 -0.2239  1.1647 -0.1239
  818MOL0     O10298   3.704   2.464   7.945 -0.0244  0.8300 -0.1853
  818MOL0     C10299   3.815   2.421   8.016 -0.0705 -0.3321 -0.7530
  818MOL0     C10300   3.924   2.355   7.961  0.1036 -0.2536 -0.4347
  818MOL0     C10301   4.018   2.300   8.049 -0.1864 -0.5144 -0.1818
  818MOL0     C10302   4.010   2.305   8.190  0.5390 -0.0712 -0.1064
  818MOL0     O10303   4.101   2.268   8.281 -0.0577  0.3089 -0.1197
  818MOL0     C10304   4.204   2.179   8.246 -0.6678  0.9850  0.1598
  818MOL0     C10305   4.341   2.245   8.261 -0.7580 -0.7600  0.0130
  818MOL0     C10306   4.422   2.278   8.135  0.0785  0.5028 -0.4246
  818MOL0     C10307   4.537   2.362   8.182  0.4550 -0.9106  0.6289
  818MOL0     C10308   4.629   2.399   8.060 -0.3153  0.4667 -0.2502
  818MOL0     C10309   4.749   2.493   8.085  0.8458 -0.1564  0.4142
  818MOL0     C10310   4.795   2.559   7.963 -0.8279 -0.2546 -0.2236
  818MOL0     C10311   4.919   2.648   7.979  0.7677  0.3017 -0.3271
  818MOL0     N10312   5.039   2.568   7.988 -1.2374  0.0727  0.6382
  818MOL0     C10313   5.101   2.486   7.899  0.1795  0.5311 -0.3817
  818MOL0     C10314   5.221   2.452   7.952 -0.6116  0.5142 -0.1086
  818MOL0     C10315   5.319   2.356   7.883 -0.5901 -0.4719 -0.0963
  818MOL0     C10316   5.421   2.432   7.792 -0.1246  0.8572  0.1300
  818MOL0     C10317   5.352   2.506   7.676  0.1283  0.3081  0.4010
  818MOL0     C10318   5.373   2.448   7.532 -0.3061 -0.1395  0.0258
  818MOL0     O10319   5.281   2.344   7.516  0.0503 -0.2929 -0.4461
  818MOL0     C10320   5.255   2.307   7.388  0.1732  0.6788  0.9424
  818MOL0     C10321   5.319   2.359   7.277 -0.7407  0.5177  0.2696
  818MOL0     C10322   5.283   2.313   7.149 -0.9571  1.4956 -0.2453
  818MOL0     C10323   5.195   2.202   7.121 -0.9344 -0.4960  0.0567
  818MOL0     C10324   5.151   2.170   6.987 -0.5358  0.1521 -0.2928
  818MOL0     O10325   5.195   2.052   6.935 -0.0305 -0.9151 -0.3988
  818MOL0     C10326   5.149   2.010   6.814 -0.1465  0.0259 -0.2250
  818MOL0     C10327   5.012   2.030   6.763 -0.3580 -0.1186  0.2454
  818MOL0     C10328   4.975   1.976   6.644 -0.9401  0.5323 -0.1709
  818MOL0     C10329   5.066   1.903   6.571  0.0050  1.5578  0.8513
  818MOL0     O10330   5.028   1.841   6.459  0.1701  0.9628  0.0474
  818MOL0     C10331   5.003   1.700   6.461 -0.0477 -0.3084 -0.6307
  818MOL0     C10332   4.864   1.658   6.490 -1.1312 -0.5576  0.4189
  818MOL0     C10333   4.847   1.507   6.499  0.0232 -0.2448  0.3235
  818MOL0     C10334   4.719   1.490   6.570 -0.6548 -0.1890  0.0344
  818MOL0     C10335   4.676   1.347   6.603  0.1801  0.0366 -0.0976
  818MOL0     C10336   4.627   1.260   6.481 -0.5020 -0.8891 -0.2699
  818MOL0     C10337   4.540   1.138   6.529  0.0721 -0.7465  0.0827
  818MOL0     C10338   4.465   1.068   6.409  0.3255 -0.0342 -0.7778
  818MOL0    Cl10339   4.578   0.996   6.300 -0.4479  0.1647  0.4198
  818MOL0     C10340   5.202   1.875   6.625 -0.3247 -0.8655  0.2990
  818MOL0     C10341   5.242   1.924   6.752 -0.2776 -0.5376  0.3216
  818MOL0     O10342   5.088   2.253   6.929 -0.6100 -0.1302  0.0125
  818MOL0     C10343   5.140   2.133   7.231  0.2704  0.0354  0.4280
  818MOL0     C10344   5.161   2.201   7.360 -0.2437 -0.1464 -0.3299
  818MOL0     N10345   5.242   2.515   8.070 -0.6393 -0.0194 -0.1595
  818MOL0     N10346   5.137   2.587   8.087 -0.2189  0.6241  0.3777
  818MOL0     C10347   3.884   2.355   8.235 -0.1470 -0.7649 -0.6679
  818MOL0     C10348   3.799   2.416   8.151  1.2971 -0.7278  1.6883
  818MOL0     C10349   3.640   2.533   7.717 -0.7555 -0.1674 -0.7169
  818MOL0     C10350   3.626   2.644   7.631  0.2651 -0.0027  0.3927
  818MOL0     C10351   3.553   2.624   7.513  0.6625 -0.7342 -0.4837
  818MOL0     C10352   3.483   2.504   7.491  0.1599  0.5293  0.4751
  818MOL0     O10353   3.387   2.500   7.400  0.3892  0.1481 -0.2104
  818MOL0     C10354   3.391   2.395   7.300 -0.3791 -0.6472 -0.1289
  818MOL0     C10355   3.282   2.427   7.195 -0.2736  0.7394  0.5008
  818MOL0     C10356   3.280   2.570   7.122  0.0969 -0.0345 -0.3092
  818MOL0     C10357   3.160   2.564   7.031 -0.3105  0.1330 -0.3025
  818MOL0     C10358   3.135   2.689   6.947  0.1125 -0.2414  0.2327
  818MOL0     C10359   3.099   2.787   6.895 -0.0476 -0.4092 -0.6788
  818MOL0     C10360   3.495   2.399   7.572  0.1299  0.1076  0.7201
  818MOL0     C10361   3.576   2.404   7.687  0.5479  0.4895  0.3090
  818MOL0     C10362   3.581   2.280   7.787  0.2693  0.9057  0.0619
  818MOL0     H10363   3.947   2.355   7.855 -0.1918  1.4479 -0.5244
  818MOL0     H10364   4.097   2.249   7.994 -1.0212 -1.7269 -0.2867
  818MOL0     H10365   4.197   2.094   8.315 -1.6149  1.9891  1.3377
  818MOL0     H10366   4.186   2.148   8.142 -2.6043  1.7941  0.2194
  818MOL0     H10367   4.406   2.193   8.332 -0.0487  1.3599  0.9945
  818MOL0     H10368   4.312   2.342   8.303 -3.1038 -0.4173 -2.1190
  818MOL0     H10369   4.353   2.321   8.062 -1.0015  1.2291  0.9731
  818MOL0     H10370   4.449   2.180   8.095 -1.3171 -0.1319  0.1200
  818MOL0     H10371   4.511   2.460   8.223  0.4893  0.2580 -1.9751
  818MOL0     H10372   4.590   2.311   8.263  1.9270 -2.2753 -1.1000
  818MOL0     H10373   4.652   2.297   8.029  1.0749  1.2300 -1.8655
  818MOL0     H10374   4.574   2.437   7.974  1.3353  0.8076 -1.2086
  818MOL0     H10375   4.717   2.566   8.159  0.8516  2.8364 -2.3091
  818MOL0     H10376   4.815   2.424   8.137  1.1376 -0.6664 -0.5968
  818MOL0     H10377   4.711   2.614   7.919 -2.9365 -1.5194  1.9677
  818MOL0     H10378   4.829   2.484   7.890 -1.8201 -0.0032 -0.9625
  818MOL0     H10379   4.937   2.713   7.893  2.3950  1.9900  1.1923
  818MOL0     H10380   4.909   2.713   8.067 -2.2293 -1.3862  0.7161
  818MOL0     H10381   5.053   2.449   7.809 -2.5901  1.8809  0.4231
  818MOL0     H10382   5.382   2.306   7.958  4.2927  1.4088 -2.4955
  818MOL0     H10383   5.270   2.276   7.828  4.0022 -3.5338 -0.2884
  818MOL0     H10384   5.477   2.504   7.852 -0.9196  0.0452  1.9125
  818MOL0     H10385   5.492   2.356   7.758  0.2137  1.2965 -0.1577
  818MOL0     H10386   5.398   2.605   7.669  1.6644 -0.4829 -2.7675
  818MOL0     H10387   5.246   2.531   7.688 -0.2137 -1.4534  1.3033
  818MOL0     H10388   5.476   2.421   7.507  0.0896  0.2132  1.2147
  818MOL0     H10389   5.340   2.523   7.459  1.0826  3.0026  2.3513
  818MOL0     H10390   5.400   2.432   7.271 -1.1363  0.9792  0.4804
  818MOL0     H10391   5.323   2.381   7.073  0.4814 -0.8663 -1.7234
  818MOL0     H10392   4.941   2.095   6.814 -2.9337 -3.0345  0.7066
  818MOL0     H10393   4.883   2.008   6.596 -1.1770  0.4794  0.2451
  818MOL0     H10394   5.023   1.655   6.363 -1.5630 -2.2367 -0.1270
  818MOL0     H10395   5.070   1.662   6.539  0.1509 -1.5151 -1.3624
  818MOL0     H10396   4.840   1.698   6.589  0.1369 -0.6066  0.7514
  818MOL0     H10397   4.804   1.709   6.414  2.9137  7.1224  1.4320
  818MOL0     H10398   4.849   1.459   6.401 -0.8029 -1.6305  0.9511
  818MOL0     H10399   4.930   1.457   6.550  0.7846 -0.9576 -1.5393
  818MOL0     H10400   4.645   1.556   6.524 -1.5679 -1.3908 -0.2801
  818MOL0     H10401   4.740   1.538   6.666 -0.1316 -1.8670  0.7937
  818MOL0     H10402   4.597   1.344   6.678  0.5314 -1.1857  0.2456
  818MOL0     H10403   4.757   1.291   6.652  1.1679  0.2192 -1.4535
  818MOL0     H10404   4.576   1.335   6.420 -1.3479  0.7863  2.3208
  818MOL0     H10405   4.720   1.226   6.437 -0.4986 -1.5633  0.2542
  818MOL0     H10406   4.461   1.173   6.597 -0.7412 -1.8937 -0.2554
  818MOL0     H10407   4.602   1.067   6.585 -2.9867 -4.7205 -1.1456
  818MOL0     H10408   4.403   0.991   6.457  1.4683 -1.1657 -1.0407
  818MOL0     H10409   4.406   1.142   6.353  2.1195  0.9326 -1.4689
  818MOL0     H10410   5.270   1.806   6.576 -1.2028 -1.4674 -0.0890
  818MOL0     H10411   5.325   1.893   6.814  0.1464  1.1966  0.6779
  818MOL0     H10412   5.072   2.050   7.215 -1.2613  1.6014 -1.7065
  818MOL0     H10413   5.118   2.154   7.447  0.7781 -0.0802  0.2329
  818MOL0     H10414   3.854   2.358   8.339 -1.3364 -1.4563 -0.9729
  818MOL0     H10415   3.708   2.457   8.195  2.1200  3.7473 -0.1921
  818MOL0     H10416   3.670   2.741   7.652  2.0437 -0.8015  0.5196
  818MOL0     H10417   3.550   2.708   7.444 -0.8506 -1.2173 -1.0465
  818MOL0     H10418   3.374   2.295   7.342  0.4675 -1.7051 -2.1621
  818MOL0     H10419   3.490   2.391   7.252 -0.8682  2.1521 -1.6037
  818MOL0     H10420   3.186   2.411   7.245 -0.1719  3.1536  1.6399
  818MOL0     H10421   3.303   2.349   7.123 -0.9189 -0.8165  1.9330
  818MOL0     H10422   3.372   2.591   7.065 -0.2864 -2.1303 -1.8449
  818MOL0     H10423   3.261   2.658   7.182  1.5918  1.0219 -1.2988
  818MOL0     H10424   3.173   2.475   6.969  0.5274 -1.5753  2.1461
  818MOL0     H10425   3.076   2.559   7.101 -1.4454  1.2958 -1.5057
  818MOL0     H10426   3.063   2.879   6.854  1.9415  2.1073  2.6867
  818MOL0     H10427   3.452   2.302   7.550  1.0740  0.6776 -5.2640
  818MOL0     H10428   3.507   2.204   7.762  1.2068  0.2835 -0.9104
  818MOL0     H10429   3.681   2.237   7.775  0.6669  2.2690 -2.0332
  818MOL0     H10430   3.559   2.309   7.890 -0.1822  1.3477 -0.1593
  819MOL0     O10431  10.744   2.758   5.148 -0.5137  0.2334 -0.8566
  819MOL0     C10432  10.838   2.768   5.221 -0.6681 -0.2954  1.0130
  819MOL0     O10433  10.848   2.759   5.360 -0.1438  0.0973 -0.3860
  819MOL0     C10434  10.732   2.727   5.439 -0.3093  0.0126  1.0096
  819MOL0     C10435  10.616   2.803   5.410 -0.3472  0.5589  0.6468
  819MOL0     C10436  10.499   2.782   5.474 -0.3666 -0.2482  0.8427
  819MOL0     C10437  10.484   2.677   5.559  0.4479  0.4641 -0.2534
  819MOL0     O10438  10.367   2.653   5.635 -0.0112 -0.0869 -0.0970
  819MOL0     C10439  10.345   2.513   5.663  0.0889 -0.8248  0.1532
  819MOL0     C10440  10.198   2.485   5.697 -0.0433 -0.3945 -0.2896
  819MOL0     C10441  10.184   2.354   5.781  0.9784  0.6809  0.0355
  819MOL0     C10442  10.036   2.343   5.845 -0.8561 -0.2145 -0.0689
  819MOL0     C10443  10.018   2.218   5.936  0.9829  0.1278  0.2356
  819MOL0     C10444   9.868   2.206   5.996 -0.0336 -0.4286  0.3710
  819MOL0     C10445   9.857   2.063   6.061 -0.5729  0.6180 -0.1568
  819MOL0     C10446   9.731   1.996   6.014 -0.5054  0.1825  0.6068
  819MOL0     N10447   9.718   1.851   6.049  0.3361 -0.3912  0.0019
  819MOL0     C10448   9.748   1.807   6.178 -0.6774  0.4954  0.1835
  819MOL0     C10449   9.746   1.672   6.160 -0.1559  0.7004 -0.0925
  819MOL0     C10450   9.772   1.560   6.257 -0.2465 -0.4613  0.1366
  819MOL0     C10451   9.813   1.425   6.198  0.0991  0.6631 -0.6238
  819MOL0     C10452   9.703   1.352   6.132 -0.0088 -0.2407 -0.8440
  819MOL0     C10453   9.627   1.253   6.226 -1.0378 -0.4993 -0.5762
  819MOL0     O10454   9.718   1.165   6.311 -0.6593 -0.3049  0.2774
  819MOL0     C10455   9.721   1.031   6.283  0.3030  0.5814 -0.1700
  819MOL0     C10456   9.741   0.964   6.156  0.5278 -0.6574 -0.4036
  819MOL0     C10457   9.733   0.825   6.146  0.2836 -0.4611 -0.1559
  819MOL0     C10458   9.728   0.746   6.261  0.0143  0.3478  0.6681
  819MOL0     C10459   9.706   0.602   6.246  0.3524  0.3752 -0.5555
  819MOL0     O10460   9.701   0.537   6.367  0.4511 -0.3544  1.0223
  819MOL0     C10461   9.737   0.405   6.361  0.3318 -0.2184 -1.2974
  819MOL0     C10462   9.641   0.333   6.425 -0.3108  0.1820 -0.3326
  819MOL0     C10463   9.678   0.204   6.463 -0.1747  0.3461 -0.0020
  819MOL0     C10464   9.807   0.152   6.433 -0.4311 -0.3045  0.0649
  819MOL0     O10465   9.852   0.033   6.473 -0.8133  0.1721 -0.4632
  819MOL0     C10466   9.826  -0.004   6.609 -0.9427 -0.3872 -0.0665
  819MOL0     C10467   9.688  -0.067   6.631  0.2053  0.3706  0.5338
  819MOL0     C10468   9.706  -0.209   6.671  1.4356 -0.0936  0.3596
  819MOL0     C10469   9.756  -0.315   6.565  0.9241  0.9209  0.2671
  819MOL0     C10470   9.879  -0.384   6.628  0.4443 -0.4226  0.0445
  819MOL0     C10471   9.848  -0.462   6.755 -0.0058 -0.3697  0.2444
  819MOL0     C10472   9.978  -0.484   6.836  0.4101  0.6205 -0.2595
  819MOL0     C10473   9.954  -0.610   6.923 -0.5883  0.1061  0.6747
  819MOL0    Cl10474  10.013  -0.763   6.830 -0.2379  0.1421 -0.2805
  819MOL0     C10475   9.895   0.233   6.368 -0.4334  0.2648  0.4244
  819MOL0     C10476   9.861   0.357   6.319  0.4981 -0.1936  0.5446
  819MOL0     O10477   9.675   0.554   6.130 -0.6427 -0.2553 -0.2231
  819MOL0     C10478   9.719   0.802   6.390  0.3769  0.1929  0.6035
  819MOL0     C10479   9.715   0.939   6.400 -0.2233 -1.2176 -0.8276
  819MOL0     N10480   9.723   1.636   6.029 -0.0802  0.7536  1.1921
  819MOL0     N10481   9.700   1.748   5.969 -0.2969 -0.1416  0.9566
  819MOL0     C10482  10.595   2.596   5.582 -0.4322  0.4040  1.0456
  819MOL0     C10483  10.719   2.622   5.524 -0.2652  0.7276  0.0331
  819MOL0     C10484  10.961   2.823   5.160  0.4267 -0.3921  0.0390
  819MOL0     C10485  11.075   2.849   5.237 -0.8251  0.4100  0.9825
  819MOL0     C10486  11.190   2.904   5.189  0.7568  0.6211  0.0464
  819MOL0     C10487  11.194   2.948   5.063 -0.6210 -0.6982 -0.0128
  819MOL0     O10488  11.306   3.027   5.034 -0.6826 -0.4219 -0.1668
  819MOL0     C10489  11.270   3.158   4.973 -0.1172  0.3894  0.6185
  819MOL0     C10490  11.401   3.232   4.973  0.1659  0.1442 -0.0835
  819MOL0     C10491  11.450   3.310   5.098  0.1762 -0.0110  0.3405
  819MOL0     C10492  11.529   3.222   5.197  0.1826  0.4651  0.2236
  819MOL0     C10493  11.611   3.309   5.269  0.9453 -0.3022 -1.2387
  819MOL0     C10494  11.669   3.374   5.350 -0.1533  0.4340  0.2543
  819MOL0     C10495  11.094   2.915   4.975  0.1018 -0.4715 -0.1216
  819MOL0     C10496  10.977   2.846   5.019  0.3943 -0.1705  1.1978
  819MOL0     C10497  10.877   2.791   4.909 -0.2751  0.2405  0.9876
  819MOL0     H10498  10.629   2.883   5.337  1.0680 -1.7647 -1.8725
  819MOL0     H10499  10.420   2.851   5.446  2.3893  1.6575 -3.0639
  819MOL0     H10500  10.364   2.462   5.569 -1.6684 -1.1447 -0.0504
  819MOL0     H10501  10.410   2.479   5.745  0.2991 -3.3292 -0.9869
  819MOL0     H10502  10.139   2.462   5.608 -0.5573 -0.7553  0.1382
  819MOL0     H10503  10.153   2.569   5.750  1.3908  0.3632 -0.2272
  819MOL0     H10504  10.273   2.341   5.845  1.3763 -1.6485 -0.8929
  819MOL0     H10505  10.188   2.263   5.722 -1.6946 -1.1549  2.4225
  819MOL0     H10506  10.010   2.434   5.901 -2.2952 -0.7310  0.1568
  819MOL0     H10507   9.970   2.334   5.759  1.2152  0.2082 -1.7735
  819MOL0     H10508  10.047   2.135   5.871 -1.8860 -0.3333 -0.5627
  819MOL0     H10509  10.084   2.223   6.024  2.1847 -3.3192 -0.3355
  819MOL0     H10510   9.863   2.282   6.074  0.2501 -0.3008  0.2632
  819MOL0     H10511   9.789   2.227   5.923 -1.0765  0.9533  1.8346
  819MOL0     H10512   9.869   2.080   6.169 -0.0967  3.1517 -0.5382
  819MOL0     H10513   9.941   1.999   6.036 -1.9194 -1.3388  0.1351
  819MOL0     H10514   9.640   2.040   6.057 -1.1007  1.2125 -1.5871
  819MOL0     H10515   9.728   2.002   5.905  0.0409  3.4517  0.6637
  819MOL0     H10516   9.766   1.867   6.266  0.2122 -0.9261  1.0241
  819MOL0     H10517   9.848   1.603   6.322  0.3265  1.0038 -1.4402
  819MOL0     H10518   9.690   1.549   6.329  1.5608  1.3584  2.6600
  819MOL0     H10519   9.886   1.441   6.117 -0.7155  1.1835 -1.2713
  819MOL0     H10520   9.866   1.369   6.275 -2.3487  3.5024  3.5699
  819MOL0     H10521   9.746   1.299   6.046  3.2248  0.4974  0.1817
  819MOL0     H10522   9.625   1.412   6.085  1.7610  3.2259  0.3273
  819MOL0     H10523   9.565   1.187   6.164 -1.0618  0.7429 -1.8982
  819MOL0     H10524   9.564   1.303   6.300  1.5192  0.7019  0.9152
  819MOL0     H10525   9.752   1.027   6.068  0.3717  1.9591  1.3575
  819MOL0     H10526   9.759   0.792   6.045  0.9568 -0.9681  0.1707
  819MOL0     H10527   9.544   0.383   6.431 -1.4796 -1.4060 -3.6688
  819MOL0     H10528   9.605   0.136   6.506 -1.6956 -0.1465 -3.0992
  819MOL0     H10529   9.903  -0.071   6.648 -0.6192 -0.2034 -0.3821
  819MOL0     H10530   9.829   0.088   6.667 -0.8399 -0.7620  0.5294
  819MOL0     H10531   9.626  -0.002   6.694  1.7725  2.0887  0.4199
  819MOL0     H10532   9.649  -0.081   6.530  2.1916 -1.9916  0.0139
  819MOL0     H10533   9.767  -0.208   6.761  0.8564 -0.7048  0.7634
  819MOL0     H10534   9.607  -0.240   6.706  0.3885  2.9592  0.4008
  819MOL0     H10535   9.792  -0.279   6.468 -0.4446 -2.0854 -1.5133
  819MOL0     H10536   9.669  -0.378   6.547  0.6217  1.5998 -0.7497
  819MOL0     H10537   9.942  -0.300   6.660  2.4648 -1.9321  0.2290
  819MOL0     H10538   9.934  -0.445   6.555 -0.7270 -1.3818 -0.0585
  819MOL0     H10539   9.774  -0.417   6.822 -0.1598 -1.6044  0.9189
  819MOL0     H10540   9.799  -0.557   6.735 -2.5647  0.7668  0.6541
  819MOL0     H10541   9.997  -0.397   6.899  2.7094 -1.4572  2.1581
  819MOL0     H10542  10.066  -0.507   6.774  2.9412  2.7017  2.2661
  819MOL0     H10543  10.026  -0.610   7.005 -1.5241  2.4714  1.5921
  819MOL0     H10544   9.850  -0.608   6.958 -2.0015  1.0344 -3.0910
  819MOL0     H10545   9.991   0.184   6.356 -1.4693 -1.3666 -2.2119
  819MOL0     H10546   9.935   0.428   6.284 -1.1498  0.9393 -0.8376
  819MOL0     H10547   9.707   0.744   6.481  0.7659 -0.3895  0.2896
  819MOL0     H10548   9.717   0.972   6.503  0.4590 -0.5714 -1.0331
  819MOL0     H10549  10.595   2.517   5.656 -2.2973 -1.8380 -1.1730
  819MOL0     H10550  10.803   2.564   5.561  0.3855 -0.2178 -2.6737
  819MOL0     H10551  11.085   2.838   5.345  3.9561 -2.7047  0.5176
  819MOL0     H10552  11.277   2.904   5.253  0.8924 -2.3097  0.0066
  819MOL0     H10553  11.196   3.202   5.040 -0.2670 -4.0232  3.8830
  819MOL0     H10554  11.235   3.133   4.873  0.7870 -1.2576  0.6663
  819MOL0     H10555  11.400   3.313   4.899  0.9486 -1.5820 -2.0963
  819MOL0     H10556  11.477   3.160   4.940 -2.4308 -1.3913 -3.3343
  819MOL0     H10557  11.359   3.354   5.140 -0.0414 -0.0958 -0.0340
  819MOL0     H10558  11.511   3.387   5.051 -1.9691 -0.7549 -4.2134
  819MOL0     H10559  11.476   3.163   5.272  0.1457  0.7654  0.4321
  819MOL0     H10560  11.606   3.155   5.157 -0.8399  0.3232 -1.6310
  819MOL0     H10561  11.725   3.418   5.429 -3.4844  1.2310  2.4027
  819MOL0     H10562  11.092   2.951   4.872 -0.1373 -0.1704 -0.0121
  819MOL0     H10563  10.781   2.843   4.913  0.1596  1.2609 -0.7750
  819MOL0     H10564  10.920   2.794   4.809 -1.3675 -1.1008  0.4516
  819MOL0     H10565  10.856   2.683   4.911 -1.3856  0.4025  4.0726
  820MOL0     O10566   6.037   9.189  10.494 -0.0105 -0.1398 -0.6447
  820MOL0     C10567   6.086   9.089  10.532 -0.0125 -0.0879 -1.1995
  820MOL0     O10568   6.154   9.001  10.467 -0.2336 -0.6483  1.1259
  820MOL0     C10569   6.183   9.049  10.341  0.2050  0.4348  1.0904
  820MOL0     C10570   6.127   8.999  10.222 -0.1492  0.5922 -0.2185
  820MOL0     C10571   6.148   9.055  10.099  0.5067 -0.2914 -0.3078
  820MOL0     C10572   6.241   9.160  10.087  0.3075 -0.3375  2.0593
  820MOL0     O10573   6.268   9.213   9.965  0.4110 -0.0482  0.5845
  820MOL0     C10574   6.190   9.190   9.850 -0.1757 -0.4398  0.5997
  820MOL0     C10575   6.245   9.067   9.768  0.5483 -0.2966 -0.4683
  820MOL0     C10576   6.393   9.058   9.735 -0.2403 -0.1319 -0.2881
  820MOL0     C10577   6.423   9.105   9.593  0.5202 -0.5204  0.5132
  820MOL0     C10578   6.574   9.142   9.562 -0.1771  1.2020  0.0804
  820MOL0     C10579   6.674   9.035   9.590 -0.4415  0.2475  0.8872
  820MOL0     C10580   6.806   9.075   9.546 -0.1777 -0.3307 -0.4809
  820MOL0     C10581   6.905   8.955   9.552  0.0977  0.1636 -0.8409
  820MOL0     N10582   7.031   8.981   9.479 -0.1230 -0.0859 -0.0680
  820MOL0     C10583   7.083   8.951   9.355 -0.4167  0.0298 -0.0968
  820MOL0     C10584   7.203   9.010   9.352  0.1561 -0.0121 -0.4377
  820MOL0     C10585   7.296   9.020   9.240  0.6658 -0.1517  0.1800
  820MOL0     C10586   7.233   9.010   9.102 -0.1942  0.6464 -0.0067
  820MOL0     C10587   7.354   8.996   9.002 -0.1416 -0.7270  0.1173
  820MOL0     C10588   7.315   8.917   8.883  0.3000 -0.2726  0.5477
  820MOL0     O10589   7.289   8.777   8.891  0.5965  0.0159 -0.7526
  820MOL0     C10590   7.340   8.698   8.788 -0.4941  0.4606 -0.5328
  820MOL0     C10591   7.255   8.627   8.722 -0.5568  0.8450 -0.2911
  820MOL0     C10592   7.299   8.576   8.598 -0.5695 -0.2709  0.6680
  820MOL0     C10593   7.437   8.595   8.552  0.0809 -0.2636  0.6435
  820MOL0     C10594   7.473   8.564   8.409  0.5767 -0.5182  0.3455
  820MOL0     O10595   7.609   8.550   8.370  0.4676 -0.6710  0.3402
  820MOL0     C10596   7.639   8.554   8.235  0.8163  0.6110  0.0462
  820MOL0     C10597   7.590   8.652   8.146  0.7505  0.3775 -0.2898
  820MOL0     C10598   7.619   8.655   8.011 -0.1468  0.3061  0.4862
  820MOL0     C10599   7.718   8.568   7.956 -0.4096  0.6197  0.2298
  820MOL0     O10600   7.750   8.582   7.821  0.0007 -0.9675 -0.2395
  820MOL0     C10601   7.730   8.468   7.741  0.6549  0.6093  0.1134
  820MOL0     C10602   7.795   8.477   7.605 -0.7263  0.0459 -1.0199
  820MOL0     C10603   7.823   8.343   7.545 -0.3978  0.0281  0.6983
  820MOL0     C10604   7.947   8.360   7.450  0.0426  0.0406  0.1854
  820MOL0     C10605   7.970   8.229   7.362  0.2592  0.4405  0.7353
  820MOL0     C10606   8.089   8.245   7.266 -0.1553 -0.1451 -0.0599
  820MOL0     C10607   8.226   8.214   7.315 -0.7894  0.3385 -0.2284
  820MOL0     C10608   8.266   8.072   7.298  0.7677  0.5802 -0.9035
  820MOL0    Cl10609   8.174   7.954   7.411 -0.1058 -0.0923  0.0376
  820MOL0     C10610   7.773   8.466   8.047  0.8896 -0.1128  0.2508
  820MOL0     C10611   7.731   8.459   8.181 -0.4167  0.8720  0.1221
  820MOL0     O10612   7.374   8.583   8.335  0.0365 -0.5074 -0.1924
  820MOL0     C10613   7.525   8.669   8.630  1.3233 -0.3926 -0.0020
  820MOL0     C10614   7.472   8.726   8.744 -0.6446 -0.2831 -0.4219
  820MOL0     N10615   7.224   9.070   9.478  1.0584  0.0941 -0.0225
  820MOL0     N10616   7.130   9.038   9.557  0.2114  0.5781  0.2141
  820MOL0     C10617   6.299   9.206  10.203  0.2288  0.6294  1.0058
  820MOL0     C10618   6.279   9.149  10.328  0.2526 -0.1014  0.3381
  820MOL0     C10619   6.042   9.047  10.664 -0.2468 -0.4756  0.7952
  820MOL0     C10620   6.041   8.908  10.688 -0.7904  0.2014 -0.4354
  820MOL0     C10621   6.004   8.847  10.807 -0.0690 -0.4708  0.7691
  820MOL0     C10622   5.973   8.927  10.910  1.4888 -0.3066  0.9474
  820MOL0     O10623   5.913   8.880  11.019  0.4072 -0.1396 -0.1546
  820MOL0     C10624   5.989   8.776  11.091  0.4411 -0.4527  0.3195
  820MOL0     C10625   5.944   8.772  11.239  0.0617  0.2786  0.0830
  820MOL0     C10626   5.963   8.906  11.306  0.4417 -1.2398 -0.1927
  820MOL0     C10627   5.982   8.905  11.457  0.2789 -0.3993  1.0612
  820MOL0     C10628   5.984   9.038  11.529  1.7189  0.2059  0.8777
  820MOL0     C10629   5.964   9.147  11.569  0.0890  0.0092 -0.7520
  820MOL0     C10630   5.992   9.063  10.894  0.1940 -0.0825 -0.5710
  820MOL0     C10631   6.024   9.129  10.769 -1.2057 -0.4243 -0.9233
  820MOL0     C10632   6.029   9.275  10.780  0.0494 -1.1670 -0.3689
  820MOL0     H10633   6.049   8.924  10.233  0.0549  0.3480 -0.4472
  820MOL0     H10634   6.095   9.013  10.014  0.4217  1.1341 -0.9966
  820MOL0     H10635   6.085   9.182   9.880 -0.6523  0.9233 -0.5514
  820MOL0     H10636   6.196   9.275   9.781  4.2178 -2.1100 -1.3988
  820MOL0     H10637   6.183   9.059   9.678 -1.1895 -2.0456  0.7983
  820MOL0     H10638   6.224   8.977   9.826  0.1596 -0.2320 -0.5083
  820MOL0     H10639   6.424   8.953   9.741 -3.0635 -0.9416  4.0969
  820MOL0     H10640   6.462   9.098   9.809  0.1630  0.5698 -1.0208
  820MOL0     H10641   6.406   9.024   9.522 -1.0944  1.7515 -1.9087
  820MOL0     H10642   6.361   9.187   9.556 -0.9923 -2.8905 -2.7369
  820MOL0     H10643   6.581   9.181   9.460  1.3193  2.0587  0.4824
  820MOL0     H10644   6.589   9.218   9.639 -0.4198 -1.0453  2.5008
  820MOL0     H10645   6.683   9.006   9.695  1.5160  0.0295  0.6918
  820MOL0     H10646   6.640   8.946   9.537  0.6930 -0.8455  1.9454
  820MOL0     H10647   6.842   9.147   9.619 -2.0516  1.1477 -0.9167
  820MOL0     H10648   6.798   9.115   9.444  0.2727  0.7191 -0.1145
  820MOL0     H10649   6.912   8.929   9.658  2.1005  1.6697 -0.5336
  820MOL0     H10650   6.846   8.875   9.507 -0.8000  0.5486 -0.3814
  820MOL0     H10651   7.049   8.894   9.269  3.2325 -2.8059  0.0916
  820MOL0     H10652   7.347   9.117   9.250  0.2418  0.0786  0.1331
  820MOL0     H10653   7.368   8.940   9.258 -0.5786 -0.9708  1.7624
  820MOL0     H10654   7.170   8.920   9.103  0.3796  0.2465  0.8915
  820MOL0     H10655   7.170   9.098   9.090  0.6581  1.5432  1.7971
  820MOL0     H10656   7.440   8.956   9.057  1.0701  0.4105 -0.9099
  820MOL0     H10657   7.392   9.094   8.974  0.1712 -0.2677  2.0006
  820MOL0     H10658   7.377   8.944   8.797  1.4486  0.5699  1.6016
  820MOL0     H10659   7.214   8.947   8.854  0.0577  1.0649  2.6203
  820MOL0     H10660   7.150   8.627   8.748  0.0219  1.8399  2.3278
  820MOL0     H10661   7.226   8.524   8.537 -2.0342  2.2622  0.1129
  820MOL0     H10662   7.513   8.721   8.179  1.4103  1.3060 -0.6675
  820MOL0     H10663   7.574   8.716   7.933 -0.5883  0.5185  0.9024
  820MOL0     H10664   7.772   8.379   7.790  0.6654  1.8966  2.6007
  820MOL0     H10665   7.622   8.456   7.726  0.9747  0.0973 -2.1034
  820MOL0     H10666   7.725   8.533   7.542 -0.2479  1.1434 -0.6074
  820MOL0     H10667   7.891   8.528   7.621 -1.3221  0.8933  0.0397
  820MOL0     H10668   7.849   8.265   7.617  1.6334  0.9975  1.0918
  820MOL0     H10669   7.733   8.296   7.503 -1.7563  1.7704  1.5190
  820MOL0     H10670   8.035   8.379   7.511  2.0201 -2.9471 -1.4404
  820MOL0     H10671   7.927   8.451   7.393 -3.8976  0.7971  2.3800
  820MOL0     H10672   7.883   8.205   7.301  1.1960  0.3637 -0.6029
  820MOL0     H10673   7.984   8.156   7.442 -0.1790 -0.7941 -0.2788
  820MOL0     H10674   8.073   8.185   7.177  0.4984 -2.1427  1.1157
  820MOL0     H10675   8.097   8.348   7.229 -2.0595  0.4862  1.1672
  820MOL0     H10676   8.239   8.235   7.422  2.5668  0.5259 -0.5920
  820MOL0     H10677   8.291   8.261   7.241 -0.5108 -1.7749 -1.3981
  820MOL0     H10678   8.264   8.023   7.200 -2.5771 -1.1381 -0.1203
  820MOL0     H10679   8.370   8.063   7.332  0.1710 -2.3279  0.5108
  820MOL0     H10680   7.839   8.393   7.999  1.4850  1.0519 -0.7451
  820MOL0     H10681   7.762   8.379   8.247  3.7890  0.6840 -1.7739
  820MOL0     H10682   7.626   8.681   8.593  2.2513 -1.5657  2.0133
  820MOL0     H10683   7.530   8.798   8.800  2.2036 -2.8589  0.1916
  820MOL0     H10684   6.353   9.300  10.191 -1.6308  1.4410 -2.2014
  820MOL0     H10685   6.328   9.172  10.422  3.5718 -1.2264 -0.9899
  820MOL0     H10686   6.058   8.837  10.607 -4.4601 -0.1103 -1.0885
  820MOL0     H10687   5.975   8.743  10.798  0.4184 -0.4577 -1.8778
  820MOL0     H10688   6.095   8.804  11.083 -0.2426  2.7219  0.9302
  820MOL0     H10689   5.965   8.683  11.040  0.5004  1.6852 -4.0853
  820MOL0     H10690   6.014   8.709  11.294  0.0221 -0.7081 -0.9516
  820MOL0     H10691   5.843   8.733  11.255  0.2751  0.9431  3.9749
  820MOL0     H10692   5.874   8.963  11.277 -0.1993 -2.0573  0.1216
  820MOL0     H10693   6.054   8.958  11.274 -0.0054  0.0336  0.5013
  820MOL0     H10694   5.905   8.847  11.510 -1.0244 -0.4284 -0.7775
  820MOL0     H10695   6.070   8.841  11.468  0.8053 -0.6456 -3.1373
  820MOL0     H10696   5.953   9.249  11.601 -0.5950 -0.0820 -0.6851
  820MOL0     H10697   5.976   9.128  10.980 -0.3844  1.3651 -1.7181
  820MOL0     H10698   5.933   9.328  10.776 -0.6737 -2.4541 -0.9319
  820MOL0     H10699   6.085   9.300  10.870 -0.3105 -1.7832  0.0338
  820MOL0     H10700   6.104   9.307  10.708 -0.5009 -0.0029 -0.4464
  821MOL0     O10701   7.522   2.754   7.683  0.2392 -0.1910 -0.9208
  821MOL0     C10702   7.644   2.728   7.685  1.3279  0.1036 -0.0435
  821MOL0     O10703   7.690   2.609   7.645 -0.1905 -0.7467 -0.3735
  821MOL0     C10704   7.609   2.503   7.651 -0.0089  0.9548  0.6278
  821MOL0     C10705   7.563   2.445   7.772 -0.0492 -0.7045 -0.0136
  821MOL0     C10706   7.475   2.331   7.765 -0.4911 -0.3156 -0.0520
  821MOL0     C10707   7.454   2.270   7.636  0.2942  0.4111  0.1764
  821MOL0     O10708   7.371   2.163   7.645  0.0711 -0.1394  0.3487
  821MOL0     C10709   7.375   2.066   7.541  0.9562 -0.5611 -0.2215
  821MOL0     C10710   7.354   1.930   7.597 -0.0086  0.8584  0.5216
  821MOL0     C10711   7.377   1.826   7.487  0.2659 -0.4899 -0.2086
  821MOL0     C10712   7.387   1.680   7.540  0.5214  0.0929 -0.6912
  821MOL0     C10713   7.373   1.577   7.421 -0.3914 -0.3989 -0.0568
  821MOL0     C10714   7.225   1.564   7.385  0.3773 -0.6779 -0.0208
  821MOL0     C10715   7.210   1.532   7.236  0.0591 -0.0636  0.0729
  821MOL0     C10716   7.232   1.647   7.132 -0.6453  0.1660 -0.4865
  821MOL0     N10717   7.189   1.586   7.002 -0.5235  1.1502  0.1493
  821MOL0     C10718   7.083   1.621   6.932  0.1234  0.3996 -0.0705
  821MOL0     C10719   7.045   1.523   6.857  0.7054  0.8950 -0.0725
  821MOL0     C10720   6.928   1.530   6.759 -0.3200  0.0638 -0.3757
  821MOL0     C10721   6.942   1.622   6.650  0.7289  0.5801  0.7357
  821MOL0     C10722   6.832   1.603   6.536  0.8883  0.3654  0.0777
  821MOL0     C10723   6.811   1.745   6.480  0.3813 -0.1911 -0.3553
  821MOL0     O10724   6.794   1.730   6.335  0.5145 -1.1666  0.0932
  821MOL0     C10725   6.685   1.774   6.262  0.5373 -0.4883 -0.0334
  821MOL0     C10726   6.665   1.721   6.138  0.2622  0.3189 -0.3508
  821MOL0     C10727   6.551   1.752   6.065 -1.2031  0.7545  0.0327
  821MOL0     C10728   6.453   1.842   6.104 -0.3522  0.0877 -0.4484
  821MOL0     C10729   6.342   1.883   6.023  0.5266  0.3580  0.9209
  821MOL0     O10730   6.357   1.878   5.891  0.2282 -0.1762  0.5604
  821MOL0     C10731   6.278   1.945   5.798 -0.5860 -0.5032  0.8126
  821MOL0     C10732   6.349   2.000   5.689 -0.2323  0.1164  0.1823
  821MOL0     C10733   6.286   2.070   5.588 -0.4905  1.2913  0.2378
  821MOL0     C10734   6.145   2.094   5.590 -1.1120 -0.2695  0.6227
  821MOL0     O10735   6.083   2.176   5.502  0.8701  0.7893 -0.0400
  821MOL0     C10736   6.030   2.286   5.568 -0.2536 -1.0835 -0.3983
  821MOL0     C10737   5.944   2.351   5.475 -0.7145 -0.5378  0.0143
  821MOL0     C10738   5.817   2.272   5.444  0.0379 -0.3753  0.1246
  821MOL0     C10739   5.736   2.326   5.324 -0.1624 -0.0417  0.6072
  821MOL0     C10740   5.649   2.212   5.260  0.5203  0.3873  0.3595
  821MOL0     C10741   5.536   2.164   5.345 -0.6070  0.1745  0.8707
  821MOL0     C10742   5.432   2.265   5.378  0.5471 -0.1187  1.1061
  821MOL0     C10743   5.303   2.189   5.413 -0.6163  0.6753 -0.7491
  821MOL0    Cl10744   5.241   2.123   5.265  0.1407 -0.3069  0.0398
  821MOL0     C10745   6.079   2.033   5.698 -0.2089  1.1683 -0.8789
  821MOL0     C10746   6.147   1.965   5.801 -0.2846 -0.1681  0.2315
  821MOL0     O10747   6.245   1.937   6.078  0.2627 -0.2498  0.1282
  821MOL0     C10748   6.470   1.887   6.238  1.0496  0.7412  0.2156
  821MOL0     C10749   6.584   1.856   6.316  0.7072 -0.8233  0.1605
  821MOL0     N10750   7.142   1.426   6.867  0.3838  0.0929 -0.1618
  821MOL0     N10751   7.220   1.462   6.963  0.5330  1.6777  0.1134
  821MOL0     C10752   7.508   2.323   7.520 -0.4903 -0.2281  0.1706
  821MOL0     C10753   7.588   2.436   7.528 -0.1691  0.0241  0.5769
  821MOL0     C10754   7.751   2.832   7.705  0.6017 -0.3835  0.3578
  821MOL0     C10755   7.879   2.802   7.661 -0.7622  0.1681 -0.4242
  821MOL0     C10756   7.980   2.903   7.668 -0.4983 -0.1571  0.4862
  821MOL0     C10757   7.967   3.022   7.737  0.2429 -0.1612 -0.4633
  821MOL0     O10758   8.082   3.103   7.744  0.0763  0.0777 -0.5765
  821MOL0     C10759   8.098   3.200   7.840  1.1580 -0.0089 -0.1250
  821MOL0     C10760   8.239   3.244   7.829  0.7303  0.4598  0.9103
  821MOL0     C10761   8.331   3.132   7.876 -0.4181  0.5462 -0.0865
  821MOL0     C10762   8.478   3.159   7.872 -0.0797 -0.6275  0.6563
  821MOL0     C10763   8.542   3.117   7.745  0.2900  0.8051 -0.7240
  821MOL0     C10764   8.607   3.083   7.645 -0.6839 -0.0236 -0.5019
  821MOL0     C10765   7.833   3.047   7.784  0.2045 -0.4799 -0.5154
  821MOL0     C10766   7.732   2.952   7.770  0.6303  1.1525 -0.9790
  821MOL0     C10767   7.592   2.995   7.808 -0.5558 -0.1854  0.4813
  821MOL0     H10768   7.593   2.483   7.869 -0.4351 -1.3192  0.3578
  821MOL0     H10769   7.424   2.296   7.854  0.7279 -1.3549  0.2652
  821MOL0     H10770   7.304   2.088   7.460  1.8592  1.4437 -0.5271
  821MOL0     H10771   7.472   2.072   7.492  1.3808  3.1473  0.7599
  821MOL0     H10772   7.256   1.904   7.640  1.0361 -5.6020 -0.1005
  821MOL0     H10773   7.419   1.912   7.683 -0.9267 -0.5040  0.9709
  821MOL0     H10774   7.465   1.839   7.423  0.9824  1.8371  1.1152
  821MOL0     H10775   7.290   1.833   7.421  1.2193  1.4525 -1.3519
  821MOL0     H10776   7.487   1.667   7.582 -0.7015 -4.0013  1.4781
  821MOL0     H10777   7.320   1.663   7.624 -1.1129 -0.2573 -2.0028
  821MOL0     H10778   7.440   1.621   7.346  1.2029  0.2873  1.6794
  821MOL0     H10779   7.423   1.483   7.449  2.5843  0.0369 -3.1719
  821MOL0     H10780   7.191   1.490   7.458  3.8109 -2.5472 -0.1168
  821MOL0     H10781   7.169   1.658   7.392 -0.7560 -1.4682  2.5205
  821MOL0     H10782   7.113   1.483   7.221 -0.2608  1.0666 -1.9355
  821MOL0     H10783   7.285   1.458   7.207 -1.6029 -1.2330 -1.5139
  821MOL0     H10784   7.177   1.740   7.152  1.5163  1.1240  1.5776
  821MOL0     H10785   7.339   1.672   7.130 -0.0541 -2.2100 -0.5794
  821MOL0     H10786   7.027   1.713   6.946  0.5790  0.3694  2.6299
  821MOL0     H10787   6.918   1.430   6.715  0.7733  0.3822 -1.3794
  821MOL0     H10788   6.832   1.540   6.812  0.8014 -1.5561  2.1762
  821MOL0     H10789   6.923   1.718   6.699 -0.9341  1.4689 -1.4978
  821MOL0     H10790   7.041   1.631   6.606  0.0305  3.6633 -0.5126
  821MOL0     H10791   6.741   1.557   6.575  1.3020 -0.9921 -0.5059
  821MOL0     H10792   6.880   1.530   6.471 -0.6081  0.8431 -1.6741
  821MOL0     H10793   6.904   1.801   6.495  0.1557  0.5335 -1.5437
  821MOL0     H10794   6.734   1.797   6.537 -1.5473 -2.2727 -0.9410
  821MOL0     H10795   6.742   1.647   6.116 -0.7337 -1.3699  1.4994
  821MOL0     H10796   6.530   1.693   5.976  2.6582 -1.9215  0.6436
  821MOL0     H10797   6.458   2.004   5.689 -0.2434  0.4677 -0.0145
  821MOL0     H10798   6.345   2.120   5.511 -0.7811  3.0122  1.0970
  821MOL0     H10799   5.975   2.258   5.659  2.0667 -2.7003  0.6175
  821MOL0     H10800   6.109   2.354   5.602 -1.8564  0.2050  0.9445
  821MOL0     H10801   5.931   2.452   5.514  0.4257  0.4454 -1.9737
  821MOL0     H10802   6.000   2.357   5.380  1.3080 -3.0490  0.9192
  821MOL0     H10803   5.839   2.168   5.420 -2.1285 -1.1135  1.0631
  821MOL0     H10804   5.753   2.277   5.533 -1.7796  0.7999 -1.1715
  821MOL0     H10805   5.817   2.358   5.258 -0.1520  0.0904  0.6850
  821MOL0     H10806   5.681   2.414   5.358 -0.1886 -0.2311  1.0588
  821MOL0     H10807   5.708   2.125   5.229  0.6465  0.6448 -0.1253
  821MOL0     H10808   5.605   2.259   5.172 -0.5865 -0.3361  0.5034
  821MOL0     H10809   5.493   2.083   5.287  3.5171 -3.3341  2.1589
  821MOL0     H10810   5.583   2.122   5.434  0.4150 -0.6060 -0.0201
  821MOL0     H10811   5.410   2.326   5.290  1.1337 -1.5612 -0.0752
  821MOL0     H10812   5.467   2.318   5.467 -1.7422  2.7313  0.4403
  821MOL0     H10813   5.323   2.115   5.492  2.4140  0.9211 -1.1503
  821MOL0     H10814   5.226   2.253   5.457 -0.5059  0.7314 -0.6379
  821MOL0     H10815   5.972   2.017   5.701  0.1079 -1.1422  0.0856
  821MOL0     H10816   6.086   1.915   5.875 -2.0083 -0.2296 -1.1714
  821MOL0     H10817   6.408   1.963   6.286  0.7201  0.2287  0.6151
  821MOL0     H10818   6.600   1.890   6.418  1.8143  0.0787 -0.2931
  821MOL0     H10819   7.512   2.265   7.429 -0.5463 -1.1979  0.7682
  821MOL0     H10820   7.654   2.476   7.452  3.1043 -1.2547  2.5001
  821MOL0     H10821   7.900   2.708   7.610  3.7199 -0.2473  1.6885
  821MOL0     H10822   8.075   2.890   7.615 -0.3274 -1.9928  1.1466
  821MOL0     H10823   8.077   3.159   7.939 -1.4254  0.9584 -0.1870
  821MOL0     H10824   8.025   3.281   7.823  0.2506  0.7657  5.4740
  821MOL0     H10825   8.245   3.337   7.887 -0.3249  3.9774 -3.9738
  821MOL0     H10826   8.248   3.277   7.725 -4.0997 -1.6020 -0.4493
  821MOL0     H10827   8.315   3.035   7.829  3.5503 -0.1863 -0.3218
  821MOL0     H10828   8.304   3.115   7.980 -1.7126  1.8715 -0.1739
  821MOL0     H10829   8.502   3.264   7.890 -1.8027 -0.6894  4.1249
  821MOL0     H10830   8.523   3.110   7.959  0.1305 -3.2819 -0.8343
  821MOL0     H10831   8.669   3.052   7.564 -1.1287 -0.4641 -0.6785
  821MOL0     H10832   7.823   3.140   7.840  1.9783 -0.8480  0.4413
  821MOL0     H10833   7.526   2.914   7.838  0.9010 -1.3009  0.7466
  821MOL0     H10834   7.598   3.065   7.892  2.6448 -0.4238  0.5784
  821MOL0     H10835   7.546   3.044   7.721 -0.4593  0.5648  0.8470
  822MOL0     O10836  11.153   5.488   3.608 -0.3139  0.0915  0.2025
  822MOL0     C10837  11.194   5.568   3.687 -1.0079  0.7359 -0.1377
  822MOL0     O10838  11.261   5.680   3.658  0.4170 -0.0646 -0.0720
  822MOL0     C10839  11.299   5.701   3.527  0.3839  0.8200  0.0910
  822MOL0     C10840  11.348   5.609   3.438  0.2340  0.5361 -0.3045
  822MOL0     C10841  11.389   5.646   3.316 -0.5638  0.9656  0.4474
  822MOL0     C10842  11.394   5.779   3.272  0.5309  0.1261 -0.3351
  822MOL0     O10843  11.456   5.811   3.156  0.1077  0.5648  0.5104
  822MOL0     C10844  11.423   5.940   3.098  0.1788  0.0987 -0.0255
  822MOL0     C10845  11.475   5.953   2.958 -0.8268  0.8326 -0.0570
  822MOL0     C10846  11.628   5.965   2.941 -0.4973  1.0278 -0.7521
  822MOL0     C10847  11.663   5.960   2.791  0.4836 -1.0055 -0.5814
  822MOL0     C10848  11.672   6.109   2.739  0.4927 -0.2611 -0.1966
  822MOL0     C10849  11.717   6.123   2.596  0.0732  0.2231 -0.6691
  822MOL0     C10850  11.616   6.059   2.507 -0.5844 -0.8282  0.0363
  822MOL0     C10851  11.618   6.134   2.372  0.0015  1.2862 -0.1775
  822MOL0     N10852  11.714   6.062   2.283  0.4243 -0.2459 -0.2946
  822MOL0     C10853  11.686   5.930   2.230 -0.2963 -0.8948 -0.5149
  822MOL0     C10854  11.789   5.918   2.142 -0.3971  0.4872 -0.2158
  822MOL0     C10855  11.801   5.810   2.043  0.0520  0.2076 -0.2693
  822MOL0     C10856  11.804   5.857   1.901 -0.5887 -1.2102 -0.4361
  822MOL0     C10857  11.665   5.911   1.842  1.0504 -0.9721 -0.5286
  822MOL0     C10858  11.664   5.914   1.692 -0.4456 -0.9789  0.5517
  822MOL0     O10859  11.548   5.970   1.640 -0.3483 -0.1636  0.3516
  822MOL0     C10860  11.523   5.944   1.507  0.3228  0.6946 -0.2347
  822MOL0     C10861  11.574   6.034   1.423  0.9822 -0.3667  0.4858
  822MOL0     C10862  11.560   6.012   1.278 -0.1388 -0.1789 -0.1806
  822MOL0     C10863  11.497   5.897   1.230  0.2894  1.1104 -0.2429
  822MOL0     C10864  11.505   5.856   1.088 -0.1844  0.4699 -0.2934
  822MOL0     O10865  11.585   5.930   1.007  0.3365  0.1477  0.5633
  822MOL0     C10866  11.595   5.891   0.875 -0.0588  0.4308  0.7701
  822MOL0     C10867  11.691   5.794   0.841 -0.4156  0.9793 -0.5444
  822MOL0     C10868  11.717   5.755   0.709  0.8436  0.1179 -0.2398
  822MOL0     C10869  11.632   5.804   0.604 -1.1607  0.1103  0.2574
  822MOL0     O10870  11.636   5.757   0.475 -0.1563  0.1971 -0.0922
  822MOL0     C10871  11.613   5.615   0.448  0.2534  0.7222 -0.6556
  822MOL0     C10872  11.598   5.588   0.300  0.6658 -0.5368 -0.1246
  822MOL0     C10873  11.723   5.612   0.216 -0.8440 -1.1176  0.5088
  822MOL0     C10874  11.708   5.534   0.081 -0.0114  1.0781  0.8253
  822MOL0     C10875  11.819   5.579  -0.024 -0.0755  0.4794  0.7301
  822MOL0     C10876  11.817   5.478  -0.139 -0.2374 -0.1687  0.4028
  822MOL0     C10877  11.923   5.509  -0.244 -0.5977  0.6388 -0.3594
  822MOL0     C10878  11.868   5.580  -0.361  0.7288 -0.1686  1.2450
  822MOL0    Cl10879  12.000   5.683  -0.431 -0.1476 -0.0999 -0.2483
  822MOL0     C10880  11.553   5.908   0.638 -0.1828  0.3684  0.6560
  822MOL0     C10881  11.531   5.957   0.768  0.4755  0.6804 -0.7348
  822MOL0     O10882  11.430   5.764   1.058 -0.0282 -0.2715 -0.0340
  822MOL0     C10883  11.421   5.820   1.327 -1.6507  0.1191  0.2257
  822MOL0     C10884  11.441   5.834   1.461 -0.4578 -0.8253  0.0801
  822MOL0     N10885  11.876   6.029   2.153  0.0042  0.0755  0.6868
  822MOL0     N10886  11.831   6.112   2.246 -0.0574 -0.3523  1.1467
  822MOL0     C10887  11.343   5.876   3.365  0.6593  0.7124 -0.4423
  822MOL0     C10888  11.299   5.836   3.491  0.3014 -0.7287  0.1243
  822MOL0     C10889  11.175   5.533   3.830  0.0437  0.4669  1.0465
  822MOL0     C10890  11.229   5.614   3.935 -0.1692  1.0350  0.1788
  822MOL0     C10891  11.197   5.603   4.067 -0.2179 -0.1686 -0.6517
  822MOL0     C10892  11.095   5.509   4.097 -0.1448  0.3051  0.4614
  822MOL0     O10893  11.052   5.476   4.225  0.4499  0.4771  0.0977
  822MOL0     C10894  10.943   5.555   4.257  0.1930  0.1624  0.1803
  822MOL0     C10895  10.841   5.489   4.355  0.0284  1.2638  0.4793
  822MOL0     C10896  10.742   5.399   4.284  0.4468  1.2031  0.4243
  822MOL0     C10897  10.648   5.463   4.178  0.4857  0.1094  0.3623
  822MOL0     C10898  10.519   5.515   4.229  0.3624  0.5430  0.3534
  822MOL0     C10899  10.414   5.544   4.280  0.7827  0.7342 -0.0212
  822MOL0     C10900  11.029   5.430   4.004  0.1286  0.8706  0.7899
  822MOL0     C10901  11.078   5.429   3.871  0.6795  1.6988 -0.0508
  822MOL0     C10902  11.035   5.307   3.789 -0.2958 -0.3196 -0.7769
  822MOL0     H10903  11.332   5.504   3.459 -1.8073  0.9559  0.4282
  822MOL0     H10904  11.419   5.577   3.237 -0.2246 -0.9023  2.1270
  822MOL0     H10905  11.317   5.952   3.072 -0.0050  0.7046  0.9416
  822MOL0     H10906  11.450   6.029   3.156 -1.0161  0.3476  0.1926
  822MOL0     H10907  11.425   6.046   2.927  0.4243  2.1391  1.6002
  822MOL0     H10908  11.438   5.862   2.910  1.1609 -2.6986  4.4181
  822MOL0     H10909  11.669   5.882   2.999 -1.7692 -0.2039 -1.5545
  822MOL0     H10910  11.635   6.059   2.996  1.1111 -0.6166  2.0849
  822MOL0     H10911  11.756   5.906   2.772 -1.3003 -3.5798 -2.8070
  822MOL0     H10912  11.589   5.897   2.741 -2.4274  1.8023 -0.1190
  822MOL0     H10913  11.578   6.162   2.754  0.5644 -0.0717 -0.4273
  822MOL0     H10914  11.739   6.174   2.796 -2.1403  0.8729  1.8276
  822MOL0     H10915  11.722   6.230   2.571  3.9595 -0.7931 -5.9991
  822MOL0     H10916  11.814   6.079   2.572  0.2022  0.8772 -1.4135
  822MOL0     H10917  11.511   6.068   2.538 -0.4078 -2.4670  1.2763
  822MOL0     H10918  11.637   5.953   2.490  0.1752 -0.8456  0.9929
  822MOL0     H10919  11.527   6.109   2.318  0.8285 -2.9069  0.0776
  822MOL0     H10920  11.638   6.242   2.377  1.3655  1.0225  0.4875
  822MOL0     H10921  11.607   5.858   2.246  0.7870 -1.6161  1.9354
  822MOL0     H10922  11.894   5.753   2.041  2.1796  3.3600 -3.8135
  822MOL0     H10923  11.710   5.750   2.049 -0.2325  0.5733 -0.8120
  822MOL0     H10924  11.892   5.921   1.889 -0.1340 -1.8308 -0.4474
  822MOL0     H10925  11.831   5.771   1.840 -0.5543 -0.3971 -1.6075
  822MOL0     H10926  11.658   6.012   1.885  5.9469 -0.2957 -0.7282
  822MOL0     H10927  11.575   5.855   1.869 -1.6204  1.8078 -2.9194
  822MOL0     H10928  11.673   5.811   1.656 -3.6257 -0.5133 -2.0416
  822MOL0     H10929  11.751   5.971   1.657 -2.9039  0.8279 -3.2363
  822MOL0     H10930  11.619   6.122   1.468 -2.0347  0.9083  1.1979
  822MOL0     H10931  11.627   6.066   1.211 -0.5627  0.1006 -0.3789
  822MOL0     H10932  11.744   5.734   0.915 -0.3524  0.7208 -0.7960
  822MOL0     H10933  11.785   5.678   0.677  0.4530 -0.1698 -0.3922
  822MOL0     H10934  11.682   5.541   0.488 -1.1945 -0.0735  0.4793
  822MOL0     H10935  11.517   5.586   0.491  0.9117  0.1949  0.5070
  822MOL0     H10936  11.557   5.487   0.287  1.2062 -0.7282 -0.3748
  822MOL0     H10937  11.522   5.645   0.247  1.6534  0.5824 -0.3637
  822MOL0     H10938  11.721   5.721   0.207 -2.7620 -1.1488  0.1503
  822MOL0     H10939  11.816   5.578   0.262  2.2688 -0.9592 -4.7842
  822MOL0     H10940  11.613   5.548   0.029 -0.0450 -1.8031 -0.0590
  822MOL0     H10941  11.724   5.426   0.089 -0.3159  0.8553 -1.0543
  822MOL0     H10942  11.917   5.567   0.023 -2.0244 -0.7029  4.9824
  822MOL0     H10943  11.810   5.684  -0.053 -1.2973  0.0116 -0.7839
  822MOL0     H10944  11.840   5.375  -0.112  3.8249  0.7162  1.0333
  822MOL0     H10945  11.719   5.467  -0.186  0.1271 -2.9760  0.1505
  822MOL0     H10946  11.977   5.417  -0.270 -0.1961 -0.1869  2.9237
  822MOL0     H10947  12.001   5.571  -0.198  0.4886 -1.8971  1.4908
  822MOL0     H10948  11.828   5.508  -0.433 -1.3391 -0.6379  2.7607
  822MOL0     H10949  11.779   5.636  -0.330  2.4775  3.0329  0.8520
  822MOL0     H10950  11.501   5.953   0.554  0.6826  2.4048  1.1573
  822MOL0     H10951  11.460   6.034   0.794 -0.2366  0.2038 -1.2164
  822MOL0     H10952  11.364   5.732   1.298 -1.5581 -1.2848  3.8331
  822MOL0     H10953  11.392   5.778   1.541  1.3637 -2.3506  0.1947
  822MOL0     H10954  11.339   5.983   3.346  2.7243  0.7462 -0.8916
  822MOL0     H10955  11.257   5.919   3.548 -2.4042 -0.1605 -2.4033
  822MOL0     H10956  11.301   5.686   3.898  1.4880 -1.8703 -2.8371
  822MOL0     H10957  11.248   5.666   4.139  1.4258 -0.9317 -1.0985
  822MOL0     H10958  10.895   5.596   4.168 -0.5811  2.5199  1.6072
  822MOL0     H10959  10.987   5.637   4.313 -1.9094  0.6509  1.1759
  822MOL0     H10960  10.800   5.563   4.424 -1.9551 -0.3177  1.0599
  822MOL0     H10961  10.903   5.419   4.412  0.5978  2.2888  1.1589
  822MOL0     H10962  10.682   5.349   4.360  0.1834 -0.4410 -0.8296
  822MOL0     H10963  10.800   5.322   4.234 -2.3099 -0.9534  0.3236
  822MOL0     H10964  10.694   5.552   4.135 -0.9391 -0.0467 -1.6490
  822MOL0     H10965  10.618   5.404   4.091 -0.0668  2.4514 -1.1119
  822MOL0     H10966  10.324   5.562   4.335  0.3430 -3.1983  0.8405
  822MOL0     H10967  10.954   5.361   4.042  1.3630  0.4427  2.5594
  822MOL0     H10968  10.988   5.231   3.852  0.9942 -2.0393 -1.7944
  822MOL0     H10969  10.970   5.336   3.706  0.6820 -1.9355 -2.1647
  822MOL0     H10970  11.120   5.264   3.734 -1.8604 -0.0300 -3.6079
  823MOL0     O10971  10.276   5.640   7.665 -0.3904 -0.8297  0.0603
  823MOL0     C10972  10.391   5.690   7.641 -0.4070  0.7066 -0.2526
  823MOL0     O10973  10.417   5.799   7.553  0.3571  0.3313  0.6084
  823MOL0     C10974  10.347   5.915   7.561  0.0469  0.0209  0.1362
  823MOL0     C10975  10.417   6.010   7.488  0.1034 -0.1852 -0.4461
  823MOL0     C10976  10.367   6.141   7.483 -0.7372  0.2137  0.5016
  823MOL0     C10977  10.247   6.179   7.550  0.2538 -0.0273  0.1474
  823MOL0     O10978  10.185   6.306   7.546  0.5263 -0.2455  0.5388
  823MOL0     C10979  10.263   6.415   7.481 -0.4343  0.4868 -0.1951
  823MOL0     C10980  10.214   6.446   7.333  0.2075  0.5592 -0.5612
  823MOL0     C10981  10.240   6.323   7.236  0.4012  0.8203  0.1975
  823MOL0     C10982  10.205   6.368   7.090 -0.9000  0.9502 -0.1008
  823MOL0     C10983  10.059   6.399   7.053  0.2416  0.3371 -0.8616
  823MOL0     C10984   9.975   6.272   7.018  0.1463 -0.1958 -0.0296
  823MOL0     C10985   9.826   6.302   7.016 -0.6254 -1.0027  0.0921
  823MOL0     C10986   9.753   6.169   7.015  0.3534  0.4382  0.0947
  823MOL0     N10987   9.731   6.106   6.885 -0.1849 -0.1305  0.4567
  823MOL0     C10988   9.611   6.111   6.819 -0.6240  0.5072 -0.2099
  823MOL0     C10989   9.632   6.028   6.716  1.0362  0.6953  0.1917
  823MOL0     C10990   9.516   5.993   6.629  0.6861 -0.2404 -0.2133
  823MOL0     C10991   9.488   6.082   6.510  0.6265  0.9094 -0.0955
  823MOL0     C10992   9.585   6.078   6.396 -0.3107  0.1533  0.2299
  823MOL0     C10993   9.540   6.015   6.270 -0.0009  0.8658 -0.7242
  823MOL0     O10994   9.479   5.885   6.285 -0.5407 -0.0212  0.2151
  823MOL0     C10995   9.494   5.795   6.172 -0.4031 -0.5273  0.0800
  823MOL0     C10996   9.495   5.844   6.040 -0.9425 -0.6411  0.5867
  823MOL0     C10997   9.508   5.752   5.932  0.0691  0.8943 -0.2547
  823MOL0     C10998   9.504   5.613   5.950 -0.1891 -0.0310  0.2032
  823MOL0     C10999   9.501   5.523   5.838 -1.0620  0.3630  0.4713
  823MOL0     O11000   9.533   5.396   5.866  0.5504  0.9266  0.5200
  823MOL0     C11001   9.532   5.320   5.753  0.3342  0.1366 -0.7022
  823MOL0     C11002   9.615   5.328   5.642 -1.3840  0.0982 -0.1169
  823MOL0     C11003   9.610   5.226   5.546 -0.3920  0.1558 -0.6793
  823MOL0     C11004   9.513   5.126   5.558 -0.1975 -0.6235 -0.1915
  823MOL0     O11005   9.507   5.030   5.460  0.3406 -0.2287 -0.0240
  823MOL0     C11006   9.501   5.060   5.317  1.0018 -0.8119 -0.2351
  823MOL0     C11007   9.395   5.167   5.268  0.1503  0.4739  0.2484
  823MOL0     C11008   9.256   5.139   5.333  0.3586  0.0431 -0.7769
  823MOL0     C11009   9.198   5.262   5.398  0.1939 -0.0395  0.1829
  823MOL0     C11010   9.165   5.381   5.301  0.0376 -0.1272  1.2261
  823MOL0     C11011   9.104   5.497   5.383  0.1988  0.1361 -0.8443
  823MOL0     C11012   9.096   5.628   5.302 -0.2204  1.1699 -0.0049
  823MOL0     C11013   8.958   5.684   5.327  0.2097  0.2753 -0.7444
  823MOL0    Cl11014   8.952   5.852   5.258  0.0027 -0.5036 -0.0659
  823MOL0     C11015   9.429   5.115   5.668 -0.3362  0.6034  0.3285
  823MOL0     C11016   9.439   5.209   5.766 -0.4928  0.6504  0.5805
  823MOL0     O11017   9.464   5.571   5.733  0.2502 -0.1159  0.2666
  823MOL0     C11018   9.492   5.567   6.085 -0.2266 -0.6996  0.3465
  823MOL0     C11019   9.491   5.656   6.188 -0.0010 -0.5557  0.2529
  823MOL0     N11020   9.756   5.968   6.721  1.0124 -0.5492 -0.0079
  823MOL0     N11021   9.813   6.024   6.815 -0.4344 -0.7080  0.1928
  823MOL0     C11022  10.187   6.078   7.631 -0.4258  1.3207 -0.2899
  823MOL0     C11023  10.241   5.948   7.642 -0.9280 -0.2093 -1.0121
  823MOL0     C11024  10.510   5.609   7.685  0.2574 -0.2368 -0.0055
  823MOL0     C11025  10.632   5.627   7.613 -0.4439  0.4879 -0.7461
  823MOL0     C11026  10.734   5.546   7.639 -0.0570  0.6473  0.7204
  823MOL0     C11027  10.730   5.433   7.722 -0.0416  0.3521  0.2530
  823MOL0     O11028  10.835   5.348   7.735 -0.6693  0.3615  0.6640
  823MOL0     C11029  10.822   5.215   7.675 -0.8741  0.2015  0.5821
  823MOL0     C11030  10.944   5.194   7.587  0.1702  0.7244  0.2073
  823MOL0     C11031  10.972   5.315   7.494  0.2846  0.1866  0.2699
  823MOL0     C11032  11.108   5.292   7.428 -0.3699 -1.2467  0.1222
  823MOL0     C11033  11.215   5.306   7.530 -0.7758  0.8128  0.0149
  823MOL0     C11034  11.303   5.300   7.612  0.6131 -0.4315 -0.4065
  823MOL0     C11035  10.618   5.400   7.794  0.1364 -0.0548  0.3772
  823MOL0     C11036  10.514   5.496   7.775  0.0868 -0.2446 -0.5986
  823MOL0     C11037  10.396   5.478   7.868  0.5689 -0.1434  0.0734
  823MOL0     H11038  10.500   5.989   7.422 -0.5606  0.9279 -1.6813
  823MOL0     H11039  10.430   6.210   7.428 -0.7999  0.5731  0.8665
  823MOL0     H11040  10.242   6.500   7.546  0.1996  0.6558 -0.2082
  823MOL0     H11041  10.372   6.413   7.486 -0.2230  3.7732 -1.3926
  823MOL0     H11042  10.242   6.548   7.304 -0.8025  1.0823  0.1876
  823MOL0     H11043  10.109   6.472   7.353  0.2417 -0.5190  1.2937
  823MOL0     H11044  10.191   6.227   7.256  1.3434 -0.0136 -1.2905
  823MOL0     H11045  10.346   6.296   7.240  0.3989  0.2270  6.4071
  823MOL0     H11046  10.262   6.461   7.080  0.7596 -0.0392 -0.1512
  823MOL0     H11047  10.254   6.291   7.030  0.7656  0.6211  1.6069
  823MOL0     H11048  10.003   6.462   7.122 -1.8348  1.2837 -3.2798
  823MOL0     H11049  10.056   6.446   6.954 -1.4738 -0.2983 -1.1379
  823MOL0     H11050  10.015   6.227   6.927 -0.4101 -0.5296 -0.1092
  823MOL0     H11051   9.989   6.203   7.102 -1.8927 -1.5122 -0.7061
  823MOL0     H11052   9.802   6.365   6.929  0.7850 -2.8130 -1.6949
  823MOL0     H11053   9.799   6.345   7.113  0.0284 -2.2852  0.8687
  823MOL0     H11054   9.775   6.093   7.090 -3.5467  0.2176  1.2078
  823MOL0     H11055   9.653   6.195   7.051  0.5003 -0.5227  1.2511
  823MOL0     H11056   9.515   6.151   6.849 -0.8677  3.0410 -3.6918
  823MOL0     H11057   9.534   5.890   6.597  3.4465 -0.2577  1.0783
  823MOL0     H11058   9.427   6.004   6.692 -0.1454 -1.8813 -1.0170
  823MOL0     H11059   9.389   6.062   6.467  0.9457 -0.5972 -0.1774
  823MOL0     H11060   9.486   6.181   6.557  1.8854  0.2926  1.3105
  823MOL0     H11061   9.680   6.027   6.415  0.2916  1.4910  0.9618
  823MOL0     H11062   9.619   6.181   6.380  0.9966 -0.2138  0.5048
  823MOL0     H11063   9.628   6.013   6.205  1.6605  0.0452  1.4385
  823MOL0     H11064   9.462   6.071   6.216  2.1081  1.1734 -3.6936
  823MOL0     H11065   9.496   5.948   6.009  2.1348 -0.8244 -0.2112
  823MOL0     H11066   9.522   5.790   5.831  1.3618 -1.5820 -1.0784
  823MOL0     H11067   9.688   5.405   5.619 -2.6268  0.8250 -1.7918
  823MOL0     H11068   9.674   5.244   5.460 -0.0082  2.9877  0.0984
  823MOL0     H11069   9.592   5.088   5.264 -0.1020 -0.3650 -1.9624
  823MOL0     H11070   9.485   4.961   5.273  1.9025 -1.2736  0.4278
  823MOL0     H11071   9.430   5.259   5.317 -0.9707  1.5443 -0.8893
  823MOL0     H11072   9.395   5.192   5.162  0.2202  0.3860  0.2276
  823MOL0     H11073   9.185   5.106   5.257 -1.6583  1.0098  0.5976
  823MOL0     H11074   9.268   5.070   5.417  0.5174 -2.2189 -2.5522
  823MOL0     H11075   9.265   5.291   5.479  0.8711  1.4862 -0.8715
  823MOL0     H11076   9.107   5.230   5.449  1.1700 -0.7873  1.5164
  823MOL0     H11077   9.091   5.351   5.226 -0.0659 -0.6427  1.5346
  823MOL0     H11078   9.260   5.413   5.257  0.5587 -4.6487 -1.4769
  823MOL0     H11079   9.000   5.483   5.416  0.2064  0.6373 -0.5977
  823MOL0     H11080   9.162   5.521   5.473 -4.3214 -0.6272  2.6142
  823MOL0     H11081   9.096   5.597   5.197  4.7433 -2.5913  0.7340
  823MOL0     H11082   9.180   5.694   5.327  1.2039 -0.4781 -0.2779
  823MOL0     H11083   8.883   5.623   5.277  1.8567  0.3158 -3.4222
  823MOL0     H11084   8.952   5.686   5.437  2.9423 -1.0774 -0.5064
  823MOL0     H11085   9.354   5.038   5.679  0.6040 -0.5512 -0.9442
  823MOL0     H11086   9.379   5.197   5.855  3.5562  0.9866  3.6084
  823MOL0     H11087   9.491   5.462   6.112  0.2974 -1.3962 -2.1021
  823MOL0     H11088   9.508   5.616   6.287 -0.5224 -2.3572 -0.3466
  823MOL0     H11089  10.098   6.101   7.689 -1.6530 -1.2996 -0.9846
  823MOL0     H11090  10.196   5.871   7.705  0.3044 -0.5982 -0.5783
  823MOL0     H11091  10.650   5.705   7.540 -0.7846  2.1213  0.8509
  823MOL0     H11092  10.826   5.546   7.583 -0.7500  0.5192 -0.4529
  823MOL0     H11093  10.731   5.202   7.615 -0.1193 -1.6764 -0.2423
  823MOL0     H11094  10.814   5.144   7.758 -1.4135  0.1201  0.4685
  823MOL0     H11095  10.929   5.098   7.536  0.0792 -0.2478  2.0094
  823MOL0     H11096  11.027   5.181   7.657  0.4493 -4.2763 -0.7082
  823MOL0     H11097  10.968   5.409   7.551  1.2194 -0.1062  0.8465
  823MOL0     H11098  10.896   5.332   7.418 -0.1860 -0.7465  0.5258
  823MOL0     H11099  11.119   5.184   7.410  2.4182 -1.2286  1.2024
  823MOL0     H11100  11.126   5.348   7.336 -2.2419 -2.1307 -0.8535
  823MOL0     H11101  11.392   5.298   7.671  0.7902 -4.1810 -0.5290
  823MOL0     H11102  10.618   5.317   7.865  0.7481  1.2914  2.0268
  823MOL0     H11103  10.352   5.574   7.899  1.2528  0.4418 -0.7228
  823MOL0     H11104  10.313   5.417   7.831  1.1354  0.7505 -2.9594
  823MOL0     H11105  10.437   5.429   7.956 -1.1263 -0.3901  0.7627
  824MOL0     O11106   6.495   8.669   8.751  0.5747  0.6658  0.2481
  824MOL0     C11107   6.375   8.678   8.758  0.1521 -0.4358 -0.2139
  824MOL0     O11108   6.301   8.616   8.864 -0.8037 -0.0727  0.2069
  824MOL0     C11109   6.356   8.512   8.939  0.5947  0.5817  0.4929
  824MOL0     C11110   6.430   8.404   8.883 -0.0086  0.9527 -0.4883
  824MOL0     C11111   6.478   8.300   8.969  0.7185 -0.3868  1.3387
  824MOL0     C11112   6.464   8.310   9.106 -1.1460  0.0759  1.0836
  824MOL0     O11113   6.524   8.215   9.180 -0.1514  0.0794  0.2584
  824MOL0     C11114   6.521   8.225   9.328 -0.7394  0.2663  0.5111
  824MOL0     C11115   6.590   8.103   9.387 -0.3155  0.2593 -1.2164
  824MOL0     C11116   6.511   7.980   9.400 -0.4504 -0.3740  0.7211
  824MOL0     C11117   6.491   7.937   9.548  0.6492  0.3971 -0.6806
  824MOL0     C11118   6.617   7.877   9.606 -0.0014  0.8219  0.1627
  824MOL0     C11119   6.592   7.841   9.751  0.5753  1.1246 -0.6784
  824MOL0     C11120   6.713   7.790   9.829  0.5410  0.2872  0.5531
  824MOL0     C11121   6.809   7.688   9.765  1.0008 -0.1496  0.0113
  824MOL0     N11122   6.921   7.659   9.855 -0.2610  0.2194  0.7964
  824MOL0     C11123   6.982   7.536   9.881  0.7893 -1.0015 -0.3330
  824MOL0     C11124   7.093   7.576   9.946  0.3924  0.1230 -0.7984
  824MOL0     C11125   7.210   7.487   9.989  0.1006  0.0294  0.2575
  824MOL0     C11126   7.179   7.394  10.107  0.9971 -1.3058 -0.5937
  824MOL0     C11127   7.175   7.470  10.242  0.2916 -0.0241  0.1391
  824MOL0     C11128   7.128   7.368  10.349 -0.1704 -0.0462 -0.2750
  824MOL0     O11129   7.166   7.423  10.471  0.0428 -0.2309 -0.8865
  824MOL0     C11130   7.132   7.381  10.594  0.9191  0.0336  0.0057
  824MOL0     C11131   7.106   7.483  10.688 -0.5411 -0.1771  0.8057
  824MOL0     C11132   7.049   7.443  10.821  0.8814 -1.1065 -0.0233
  824MOL0     C11133   7.051   7.306  10.855  1.0143 -0.8381 -0.4150
  824MOL0     C11134   6.979   7.271  10.981 -0.1988 -0.0665 -1.0239
  824MOL0     O11135   6.888   7.361  11.031  0.1114  0.8189  0.3773
  824MOL0     C11136   6.830   7.343  11.159 -1.3100 -0.5018  0.0436
  824MOL0     C11137   6.785   7.231  11.219 -0.1691  0.4158 -0.2460
  824MOL0     C11138   6.709   7.236  11.341  0.2219  0.2947  0.1981
  824MOL0     C11139   6.693   7.360  11.413  1.0451  0.6835  0.6394
  824MOL0     O11140   6.626   7.364  11.539 -0.3057  1.2196 -0.8238
  824MOL0     C11141   6.672   7.271  11.633 -0.0712 -0.2768 -0.4771
  824MOL0     C11142   6.609   7.279  11.771  0.0811 -1.0360  0.5035
  824MOL0     C11143   6.647   7.408  11.843 -0.0442 -0.6298  0.0671
  824MOL0     C11144   6.524   7.506  11.849 -1.0336 -0.2855  0.0817
  824MOL0     C11145   6.568   7.643  11.903 -0.5526 -0.3411 -1.5592
  824MOL0     C11146   6.601   7.659  12.057  0.6980 -0.4245  0.1615
  824MOL0     C11147   6.479   7.617  12.134  0.3298 -0.2292 -0.7617
  824MOL0     C11148   6.497   7.687  12.267 -0.6823 -0.2917  0.2816
  824MOL0    Cl11149   6.347   7.652  12.361 -0.0706 -0.2728  0.0416
  824MOL0     C11150   6.746   7.472  11.351  0.0591  0.5068  0.6777
  824MOL0     C11151   6.797   7.463  11.226 -1.0521 -0.1431  0.2295
  824MOL0     O11152   7.019   7.180  11.048  0.1867  0.0141  0.4166
  824MOL0     C11153   7.090   7.211  10.765  0.4474 -0.5258  0.1145
  824MOL0     C11154   7.114   7.249  10.632 -0.3956  0.0030 -0.4419
  824MOL0     N11155   7.106   7.712   9.955  0.9991  0.0647  0.3353
  824MOL0     N11156   6.993   7.759   9.909 -1.1055  0.2136  0.6813
  824MOL0     C11157   6.397   8.411   9.162 -0.1476 -0.9731 -0.4153
  824MOL0     C11158   6.341   8.508   9.084  0.4341 -0.5212 -0.8459
  824MOL0     C11159   6.296   8.742   8.639  0.3608 -0.4802 -0.1878
  824MOL0     C11160   6.153   8.722   8.637 -0.8466  0.4785 -0.0683
  824MOL0     C11161   6.075   8.781   8.546 -0.0056 -0.5328  0.2472
  824MOL0     C11162   6.135   8.858   8.450  0.3257 -1.4331 -0.2056
  824MOL0     O11163   6.047   8.932   8.362  0.2892 -0.5385  0.4800
  824MOL0     C11164   6.097   8.995   8.246 -0.2889 -0.4376 -0.0569
  824MOL0     C11165   6.163   8.895   8.147  0.6489 -0.4434  0.3993
  824MOL0     C11166   6.052   8.832   8.056 -1.1572 -0.4169  0.0354
  824MOL0     C11167   6.005   8.922   7.945 -0.5011 -0.0987  0.0654
  824MOL0     C11168   6.113   8.987   7.875  0.0472 -0.8089 -0.4107
  824MOL0     C11169   6.207   9.042   7.825 -0.4015 -0.3993 -0.5091
  824MOL0     C11170   6.276   8.878   8.446 -0.6617 -0.6908 -0.7387
  824MOL0     C11171   6.359   8.809   8.535  0.1227 -0.1306 -0.5594
  824MOL0     C11172   6.509   8.843   8.537 -0.2288 -0.5843 -0.3064
  824MOL0     H11173   6.441   8.400   8.775  1.0096 -0.1982 -0.3652
  824MOL0     H11174   6.538   8.219   8.928  1.4312  0.7117  0.1365
  824MOL0     H11175   6.591   8.308   9.340 -1.0850  0.6974 -0.3894
  824MOL0     H11176   6.420   8.234   9.368 -0.3686  0.1853  1.4931
  824MOL0     H11177   6.614   8.129   9.490 -3.4966  0.2892 -0.3504
  824MOL0     H11178   6.682   8.072   9.337  0.6285  1.2192 -0.1351
  824MOL0     H11179   6.558   7.902   9.340 -0.4818 -1.1961  1.7295
  824MOL0     H11180   6.411   8.000   9.361  0.9808  1.0932 -2.5350
  824MOL0     H11181   6.472   8.029   9.605  1.0046 -0.9974  1.8448
  824MOL0     H11182   6.398   7.881   9.556  0.0362  1.1116 -2.4700
  824MOL0     H11183   6.651   7.791   9.547 -2.7276 -2.1589  2.5349
  824MOL0     H11184   6.703   7.944   9.606  1.1747 -0.5945  1.3913
  824MOL0     H11185   6.559   7.928   9.808  0.9586  1.6869 -1.2946
  824MOL0     H11186   6.513   7.766   9.759 -0.5833  2.0755 -2.5218
  824MOL0     H11187   6.679   7.748   9.924  1.6165 -0.1551  0.7521
  824MOL0     H11188   6.774   7.876   9.858  2.6543 -0.3592 -1.6085
  824MOL0     H11189   6.761   7.595   9.733 -1.6094 -0.1215  3.2709
  824MOL0     H11190   6.851   7.737   9.676  3.7442  0.1867  1.3883
  824MOL0     H11191   6.951   7.434   9.861  1.4086 -0.9502 -1.6757
  824MOL0     H11192   7.240   7.434   9.899 -0.0829  1.3178 -0.5835
  824MOL0     H11193   7.296   7.550  10.012  1.5563 -0.4042 -3.3997
  824MOL0     H11194   7.082   7.353  10.079 -1.0058  2.5561 -0.0075
  824MOL0     H11195   7.244   7.306  10.110  0.0832 -2.0200 -1.2527
  824MOL0     H11196   7.094   7.542  10.230 -1.8575 -1.7557  2.8864
  824MOL0     H11197   7.271   7.521  10.254 -1.3292  2.6709  3.2519
  824MOL0     H11198   7.171   7.268  10.333  3.0501  1.5262 -2.6708
  824MOL0     H11199   7.020   7.357  10.355 -0.0609 -1.2651 -0.3345
  824MOL0     H11200   7.108   7.587  10.657 -1.0007  0.4470  2.7550
  824MOL0     H11201   7.014   7.515  10.894 -0.7158 -0.6698 -1.1647
  824MOL0     H11202   6.789   7.132  11.173 -2.2095  1.2998 -2.5525
  824MOL0     H11203   6.656   7.150  11.381  0.4511  0.6105  1.2079
  824MOL0     H11204   6.663   7.168  11.596 -0.3604 -0.8418  1.0565
  824MOL0     H11205   6.779   7.290  11.640 -0.3787  1.7259 -0.6543
  824MOL0     H11206   6.505   7.281  11.739  0.6441 -0.4293 -1.4553
  824MOL0     H11207   6.646   7.194  11.829  1.9022 -0.9475 -0.4363
  824MOL0     H11208   6.685   7.400  11.945 -5.0981  4.9540  3.0223
  824MOL0     H11209   6.728   7.459  11.791  2.2510 -1.3924  2.6317
  824MOL0     H11210   6.451   7.462  11.917  1.1285 -3.0599  0.7931
  824MOL0     H11211   6.492   7.521  11.746  0.4144 -1.1058 -0.5130
  824MOL0     H11212   6.484   7.710  11.884 -0.4414  0.1968 -0.2321
  824MOL0     H11213   6.654   7.688  11.852  1.4428 -0.8920  1.0867
  824MOL0     H11214   6.691   7.610  12.095  1.6727  0.8407 -0.4206
  824MOL0     H11215   6.632   7.762  12.076  0.7903 -1.0173  3.8304
  824MOL0     H11216   6.476   7.509  12.145  0.1467 -0.0734  1.0998
  824MOL0     H11217   6.393   7.659  12.082  2.7848 -1.5577 -6.6042
  824MOL0     H11218   6.581   7.658  12.332 -2.7065  0.0035  3.2209
  824MOL0     H11219   6.519   7.793  12.254  0.5436 -0.5323  0.2517
  824MOL0     H11220   6.732   7.567  11.400 -0.4548  0.0183  1.5069
  824MOL0     H11221   6.815   7.562  11.186 -0.2216 -0.1517  0.5687
  824MOL0     H11222   7.111   7.106  10.779  2.9745 -0.2540 -0.9714
  824MOL0     H11223   7.127   7.164  10.567 -0.9932  0.4746 -1.2009
  824MOL0     H11224   6.384   8.426   9.269 -3.6129 -2.3356 -0.5326
  824MOL0     H11225   6.286   8.589   9.132  0.8769 -1.2889  1.0402
  824MOL0     H11226   6.114   8.669   8.723  0.7627  1.6293  1.4470
  824MOL0     H11227   5.967   8.777   8.552 -0.0915 -1.1536 -1.1597
  824MOL0     H11228   6.176   9.059   8.285 -1.9932  0.8968  1.3594
  824MOL0     H11229   6.026   9.049   8.183 -0.9550 -0.6915  0.4733
  824MOL0     H11230   6.218   8.814   8.195  0.2067 -1.1405 -0.2365
  824MOL0     H11231   6.236   8.945   8.083 -2.0058 -0.2827 -2.8026
  824MOL0     H11232   5.961   8.811   8.114  0.9094 -2.3800  2.8809
  824MOL0     H11233   6.095   8.742   8.011  2.6059  1.4400 -0.4405
  824MOL0     H11234   5.950   8.857   7.877  1.4158 -1.2289 -0.4707
  824MOL0     H11235   5.936   9.000   7.980 -0.9615  0.2574 -1.5421
  824MOL0     H11236   6.289   9.097   7.782  0.5330 -1.0016  0.4443
  824MOL0     H11237   6.327   8.945   8.377 -0.2342  0.7286  0.8887
  824MOL0     H11238   6.541   8.905   8.622  1.9663 -1.3386 -0.5052
  824MOL0     H11239   6.564   8.749   8.526  0.5672 -0.3022  0.9677
  824MOL0     H11240   6.543   8.909   8.456  0.5460 -2.3555 -1.4814
  825MOL0     O11241   9.379   2.737   3.426 -0.0109  0.4140 -0.2825
  825MOL0     C11242   9.298   2.766   3.511 -0.0750  0.6086  0.1019
  825MOL0     O11243   9.168   2.728   3.498 -0.2217  0.0306  0.3526
  825MOL0     C11244   9.055   2.789   3.544 -0.9772  0.4161 -0.5724
  825MOL0     C11245   8.951   2.708   3.566 -0.4190 -0.1289 -0.6288
  825MOL0     C11246   8.824   2.750   3.601 -0.2583 -0.6420  0.1082
  825MOL0     C11247   8.805   2.890   3.626 -0.2062  0.1261 -0.0332
  825MOL0     O11248   8.682   2.928   3.689  0.5010 -0.0880 -0.4615
  825MOL0     C11249   8.648   3.072   3.676  0.4451 -0.7715 -0.5447
  825MOL0     C11250   8.510   3.101   3.738 -0.0149 -0.5307 -0.2251
  825MOL0     C11251   8.467   3.248   3.716 -0.2257  1.0814 -0.1008
  825MOL0     C11252   8.469   3.313   3.850  1.0110  0.4805  0.1151
  825MOL0     C11253   8.427   3.455   3.856  0.6517 -0.0342  0.4559
  825MOL0     C11254   8.283   3.466   3.897 -0.6063 -0.2866 -1.0112
  825MOL0     C11255   8.209   3.595   3.862 -0.6160 -0.9530 -0.3449
  825MOL0     C11256   8.083   3.635   3.943  0.2451  0.2019  0.2182
  825MOL0     N11257   7.996   3.518   3.937  0.4534 -0.2546 -0.0979
  825MOL0     C11258   7.929   3.477   3.826  0.2658 -0.5626 -0.2253
  825MOL0     C11259   7.893   3.349   3.855  0.6364  0.2788 -0.3098
  825MOL0     C11260   7.827   3.251   3.767 -0.8776  0.7950  0.4146
  825MOL0     C11261   7.684   3.215   3.815 -0.7530  0.4907  0.4052
  825MOL0     C11262   7.598   3.143   3.710 -0.4007 -0.6329 -0.2640
  825MOL0     C11263   7.648   3.004   3.670  0.4567 -0.3155 -0.3494
  825MOL0     O11264   7.648   2.911   3.778  0.5224 -0.1493 -0.6891
  825MOL0     C11265   7.528   2.852   3.807 -0.4880  0.9732  0.4904
  825MOL0     C11266   7.418   2.858   3.731 -0.7854 -0.2659  0.2501
  825MOL0     C11267   7.308   2.774   3.754 -0.2465  0.9017 -0.3330
  825MOL0     C11268   7.291   2.696   3.873  0.5214 -0.2313  0.1007
  825MOL0     C11269   7.171   2.617   3.922 -0.4106  0.4151 -0.3798
  825MOL0     O11270   7.188   2.557   4.045  0.3864 -0.3740  0.3178
  825MOL0     C11271   7.076   2.505   4.104  0.7656 -0.4230 -0.3823
  825MOL0     C11272   7.086   2.389   4.161 -0.2182 -0.3924  0.6782
  825MOL0     C11273   6.967   2.346   4.219 -0.7777  0.5431  0.3796
  825MOL0     C11274   6.842   2.396   4.215 -0.4033 -0.1436 -0.2737
  825MOL0     O11275   6.728   2.335   4.248  0.3783  0.7024  0.0166
  825MOL0     C11276   6.733   2.189   4.277  0.2490 -0.7088 -0.6356
  825MOL0     C11277   6.589   2.128   4.261 -0.4335 -0.0449 -0.3293
  825MOL0     C11278   6.587   1.973   4.262  0.6955 -0.7422  0.5183
  825MOL0     C11279   6.446   1.920   4.286 -0.2260  0.1914 -0.3899
  825MOL0     C11280   6.336   1.925   4.173 -0.6548  0.2219 -0.0673
  825MOL0     C11281   6.200   1.872   4.227  0.1464  1.1585 -0.5763
  825MOL0     C11282   6.092   1.872   4.116 -0.0959 -0.1486 -0.5006
  825MOL0     C11283   5.952   1.864   4.182 -0.2654 -0.1316  0.0987
  825MOL0    Cl11284   5.939   2.010   4.289  0.0015  0.3271  0.5231
  825MOL0     C11285   6.843   2.524   4.168  0.5423 -0.3965 -0.1109
  825MOL0     C11286   6.957   2.577   4.113 -0.2405 -0.8771  0.5774
  825MOL0     O11287   7.068   2.626   3.848 -0.6890  0.5824 -0.2906
  825MOL0     C11288   7.407   2.685   3.951  0.1284 -0.4840 -0.7767
  825MOL0     C11289   7.518   2.773   3.919  1.0253  0.5728  0.1263
  825MOL0     N11290   7.944   3.317   3.981  1.0294 -0.2765  0.4412
  825MOL0     N11291   8.007   3.425   4.032 -0.4026  0.2718 -0.0672
  825MOL0     C11292   8.910   2.974   3.598 -0.4959 -1.2091 -0.9480
  825MOL0     C11293   9.039   2.923   3.550  0.0795 -0.1822 -0.7081
  825MOL0     C11294   9.346   2.841   3.633  0.8904 -0.0680  0.7838
  825MOL0     C11295   9.405   2.967   3.612  0.4251 -0.8198 -0.2505
  825MOL0     C11296   9.455   3.048   3.715  0.1409  0.2077 -0.5469
  825MOL0     C11297   9.453   2.995   3.845  0.5408  0.3955 -0.3652
  825MOL0     O11298   9.502   3.069   3.951  0.1129  0.2822 -0.2506
  825MOL0     C11299   9.404   3.152   4.016 -0.2108 -0.7986 -0.9024
  825MOL0     C11300   9.445   3.300   4.007  0.3075  0.2039 -0.2842
  825MOL0     C11301   9.370   3.374   4.123 -0.4882 -0.6521  0.9207
  825MOL0     C11302   9.467   3.371   4.238 -0.0660  0.0431  0.4394
  825MOL0     C11303   9.395   3.432   4.356 -0.3560  0.5395  0.6209
  825MOL0     C11304   9.310   3.461   4.438 -0.0511 -0.3351  0.5532
  825MOL0     C11305   9.393   2.866   3.872  0.2305 -0.9542  0.3820
  825MOL0     C11306   9.331   2.798   3.766 -0.8461  0.0353 -0.0539
  825MOL0     C11307   9.247   2.686   3.805  0.4362  1.3606 -0.0011
  825MOL0     H11308   8.963   2.601   3.573  0.6959  0.1084  3.9229
  825MOL0     H11309   8.755   2.673   3.633 -2.1716  1.8656  2.5710
  825MOL0     H11310   8.726   3.119   3.736 -0.5962  0.2529  0.0424
  825MOL0     H11311   8.641   3.101   3.570 -0.3145  0.7509 -0.1135
  825MOL0     H11312   8.512   3.072   3.843  3.2409 -2.0112 -0.5751
  825MOL0     H11313   8.443   3.037   3.679 -0.8874  0.2337 -0.0837
  825MOL0     H11314   8.366   3.253   3.674 -1.4600  1.2616  2.6985
  825MOL0     H11315   8.538   3.304   3.655  1.2659  0.8897  1.3744
  825MOL0     H11316   8.407   3.254   3.919  1.4303  3.1578  2.9651
  825MOL0     H11317   8.568   3.305   3.895 -0.1588 -2.0177  2.6280
  825MOL0     H11318   8.485   3.502   3.936  1.1492 -1.2302  0.8239
  825MOL0     H11319   8.447   3.503   3.760 -1.1791  1.1838  0.6304
  825MOL0     H11320   8.217   3.393   3.850 -1.0595 -1.4895  1.3274
  825MOL0     H11321   8.285   3.449   4.005 -1.4874  0.7683 -0.8143
  825MOL0     H11322   8.185   3.598   3.755  2.0252  3.0218 -1.0353
  825MOL0     H11323   8.289   3.668   3.877 -1.9662  0.5644 -0.3689
  825MOL0     H11324   8.119   3.654   4.044 -0.1792  1.5102  0.1466
  825MOL0     H11325   8.025   3.721   3.908 -2.9282 -1.0966  1.9316
  825MOL0     H11326   7.927   3.522   3.728  2.7921 -2.9117 -1.4881
  825MOL0     H11327   7.812   3.288   3.665 -2.0148 -1.4466 -0.3048
  825MOL0     H11328   7.890   3.162   3.775  1.2463  2.2255  0.2426
  825MOL0     H11329   7.701   3.163   3.910  0.5296  2.1703  1.1345
  825MOL0     H11330   7.625   3.306   3.829 -0.8325  0.4774  0.1729
  825MOL0     H11331   7.596   3.197   3.615 -2.5207  2.2364  1.2487
  825MOL0     H11332   7.495   3.139   3.745 -0.7288 -0.1161 -1.1253
  825MOL0     H11333   7.751   3.015   3.635  0.4291 -0.1504 -0.3802
  825MOL0     H11334   7.578   2.975   3.591  0.6751 -2.0338  0.0539
  825MOL0     H11335   7.412   2.911   3.637  1.5440  2.1405  1.3513
  825MOL0     H11336   7.230   2.766   3.680  1.7082 -2.7923 -2.2226
  825MOL0     H11337   7.175   2.328   4.158 -1.1785 -1.9855  2.5159
  825MOL0     H11338   6.986   2.243   4.248  1.2062  0.6184 -0.4985
  825MOL0     H11339   6.799   2.141   4.204 -1.3491 -0.8222 -2.0825
  825MOL0     H11340   6.778   2.166   4.373  1.0389  0.9940 -0.5577
  825MOL0     H11341   6.529   2.159   4.346  3.1132  0.3219  2.2338
  825MOL0     H11342   6.556   2.163   4.162  3.1754 -0.2425 -1.7961
  825MOL0     H11343   6.622   1.940   4.163 -0.4488  2.9794 -1.3275
  825MOL0     H11344   6.658   1.932   4.334  0.1117 -3.0788 -0.1544
  825MOL0     H11345   6.401   1.966   4.375  2.0734 -0.7357  1.3602
  825MOL0     H11346   6.467   1.816   4.312  1.0644  0.7323  0.8913
  825MOL0     H11347   6.375   1.859   4.095  2.1697  1.7464 -0.0776
  825MOL0     H11348   6.331   2.029   4.139  2.6096  1.8134  3.4931
  825MOL0     H11349   6.226   1.769   4.253 -1.4713  0.6381 -0.9164
  825MOL0     H11350   6.168   1.930   4.314  0.4025  0.1299  0.2219
  825MOL0     H11351   6.110   1.788   4.050  1.3092 -2.1067  2.1716
  825MOL0     H11352   6.102   1.960   4.052  0.1011 -0.2468 -0.6060
  825MOL0     H11353   5.878   1.876   4.102  0.9393 -3.3365 -1.6917
  825MOL0     H11354   5.937   1.769   4.235 -1.6293 -1.3931 -2.3615
  825MOL0     H11355   6.751   2.580   4.152  0.0252 -1.2744 -0.2375
  825MOL0     H11356   6.948   2.669   4.056  1.7862 -3.1952 -4.0045
  825MOL0     H11357   7.405   2.631   4.045  1.9515  1.7481  0.6611
  825MOL0     H11358   7.600   2.771   3.991  0.7308 -1.5926  0.4728
  825MOL0     H11359   8.898   3.081   3.612 -1.2371 -1.3357 -0.5867
  825MOL0     H11360   9.115   2.999   3.539  2.0027 -1.5179  2.0929
  825MOL0     H11361   9.433   2.988   3.509 -0.1378 -3.1067 -0.9463
  825MOL0     H11362   9.497   3.146   3.694 -0.2392  0.3793 -0.5120
  825MOL0     H11363   9.399   3.117   4.120  0.1537  2.5082  0.3613
  825MOL0     H11364   9.301   3.138   3.980 -1.0341  1.9238  0.1030
  825MOL0     H11365   9.413   3.344   3.912 -0.3996 -1.9147 -1.0839
  825MOL0     H11366   9.554   3.299   4.004  0.2970 -0.9742 -1.2375
  825MOL0     H11367   9.272   3.335   4.150 -0.5260 -3.8487 -2.9658
  825MOL0     H11368   9.359   3.470   4.071 -1.3809 -0.4056  1.5328
  825MOL0     H11369   9.497   3.267   4.254 -2.4579 -0.6023  1.0948
  825MOL0     H11370   9.551   3.439   4.221 -0.8985  0.9979  0.0067
  825MOL0     H11371   9.229   3.487   4.504 -1.2551  1.2190 -1.4472
  825MOL0     H11372   9.380   2.819   3.969 -5.1342  0.7937  0.8569
  825MOL0     H11373   9.170   2.718   3.876  3.1535  2.5564  2.6293
  825MOL0     H11374   9.212   2.627   3.719 -1.0205  0.1031  1.3687
  825MOL0     H11375   9.309   2.612   3.857 -3.3095 -3.1094 -1.1638
  826MOL0     O11376   7.209  10.067   2.238 -0.9011  1.3142 -0.5675
  826MOL0     C11377   7.235  10.180   2.269 -0.5599 -0.0235 -0.2862
  826MOL0     O11378   7.145  10.272   2.298 -1.0575 -0.6608  0.3562
  826MOL0     C11379   7.024  10.290   2.245  1.0168 -0.2988 -0.3418
  826MOL0     C11380   6.980  10.258   2.115  0.8565  0.0711 -1.2677
  826MOL0     C11381   6.854  10.296   2.061  0.7250 -0.1532 -0.0008
  826MOL0     C11382   6.759  10.367   2.134 -0.1972  0.4931 -0.0823
  826MOL0     O11383   6.644  10.404   2.068  0.2735 -0.1355  0.0598
  826MOL0     C11384   6.529  10.441   2.144 -0.3188 -0.6251  0.3250
  826MOL0     C11385   6.419  10.465   2.048 -0.2233 -0.0094 -0.1850
  826MOL0     C11386   6.389  10.329   1.982 -0.0616  0.1650 -0.0802
  826MOL0     C11387   6.419  10.326   1.831 -0.5965  0.3627 -0.6088
  826MOL0     C11388   6.312  10.400   1.752 -0.6382 -0.7887  0.6207
  826MOL0     C11389   6.339  10.349   1.602  0.0730  0.6790  1.7247
  826MOL0     C11390   6.282  10.439   1.493 -0.2271 -0.2017  0.5166
  826MOL0     C11391   6.139  10.404   1.459  0.6424  0.4449  0.1941
  826MOL0     N11392   6.064  10.473   1.353  0.1756  0.4216 -0.6181
  826MOL0     C11393   6.120  10.527   1.232  0.1441 -0.1902  0.0930
  826MOL0     C11394   6.007  10.576   1.166 -0.1187  1.0055  0.1781
  826MOL0     C11395   6.019  10.661   1.036  0.1089  0.4295 -0.7142
  826MOL0     C11396   6.043  10.804   1.084 -0.7572 -0.2134  1.3859
  826MOL0     C11397   6.086  10.880   0.952  0.4774  0.1963  0.1668
  826MOL0     C11398   6.130  11.023   0.984 -0.3113 -0.5287 -0.1533
  826MOL0     O11399   6.022  11.104   1.037  0.0090 -0.2129  0.2982
  826MOL0     C11400   6.049  11.203   1.124 -0.4335  0.0912 -0.1969
  826MOL0     C11401   5.946  11.267   1.204 -0.4992  0.1777 -0.5390
  826MOL0     C11402   5.970  11.367   1.301 -0.0048 -0.3445  0.0901
  826MOL0     C11403   6.103  11.409   1.321  0.6632  0.1651  0.6289
  826MOL0     C11404   6.136  11.524   1.411 -1.0630 -0.9843 -0.8615
  826MOL0     O11405   6.050  11.546   1.514 -0.6830 -0.8287  0.8984
  826MOL0     C11406   6.092  11.608   1.625 -0.0820 -0.1163  0.3303
  826MOL0     C11407   6.018  11.715   1.674 -0.8030  0.6133  0.0731
  826MOL0     C11408   6.049  11.775   1.789 -0.4466  0.4312 -0.3223
  826MOL0     C11409   6.152  11.737   1.866 -0.3827 -0.6083  0.0105
  826MOL0     O11410   6.184  11.806   1.985 -0.6749  0.4296 -0.1435
  826MOL0     C11411   6.322  11.827   2.019 -0.4480  0.4353 -0.2176
  826MOL0     C11412   6.348  11.929   2.129  1.1859 -0.6210 -0.4955
  826MOL0     C11413   6.299  12.066   2.089  0.5017 -0.9040 -0.3511
  826MOL0     C11414   6.406  12.171   2.115 -0.4741 -0.4696  1.0741
  826MOL0     C11415   6.351  12.322   2.122 -0.5427  0.1017 -0.6198
  826MOL0     C11416   6.327  12.383   1.994  0.4870  0.0097  0.7449
  826MOL0     C11417   6.287  12.537   2.019  0.2407 -0.0526 -0.9944
  826MOL0     C11418   6.140  12.567   2.041  0.3507  0.4825 -0.0788
  826MOL0    Cl11419   6.052  12.590   1.897  0.5479  0.7864  0.0298
  826MOL0     C11420   6.240  11.635   1.823  0.5806 -1.0288 -0.0554
  826MOL0     C11421   6.212  11.573   1.700  0.1293 -0.9528  0.1462
  826MOL0     O11422   6.230  11.592   1.388 -0.1571 -0.5913 -0.1479
  826MOL0     C11423   6.211  11.345   1.243  0.3222 -0.1388  0.0016
  826MOL0     C11424   6.185  11.254   1.142 -0.4826 -0.3667 -0.9215
  826MOL0     N11425   5.894  10.531   1.240  0.7949 -0.5121 -0.3274
  826MOL0     N11426   5.928  10.476   1.346  0.1784 -0.1872 -0.6671
  826MOL0     C11427   6.799  10.401   2.263 -0.8013 -0.4501 -0.1624
  826MOL0     C11428   6.925  10.364   2.317 -0.0295 -0.4187 -0.0387
  826MOL0     C11429   7.372  10.221   2.314  0.4531  0.3223 -0.9537
  826MOL0     C11430   7.400  10.359   2.311  0.8766  0.8773 -1.0493
  826MOL0     C11431   7.532  10.403   2.352 -0.3973 -0.5256  0.0310
  826MOL0     C11432   7.625  10.313   2.403  0.3655 -0.3421 -0.5116
  826MOL0     O11433   7.747  10.362   2.451  0.5160 -0.6121 -0.4493
  826MOL0     C11434   7.855  10.337   2.366  0.2297 -0.5899 -0.0684
  826MOL0     C11435   7.912  10.466   2.302  0.3804  0.1240 -0.9067
  826MOL0     C11436   7.956  10.574   2.402  0.0611 -0.0908  0.3514
  826MOL0     C11437   8.063  10.664   2.327 -0.2332 -0.3370  0.6599
  826MOL0     C11438   7.990  10.735   2.219  0.2588  0.0547  0.5358
  826MOL0     C11439   7.942  10.799   2.122 -0.2898 -0.4083 -1.6577
  826MOL0     C11440   7.593  10.180   2.405 -0.0774 -0.0746  1.0069
  826MOL0     C11441   7.474  10.129   2.351  0.7047  1.3488 -0.2630
  826MOL0     C11442   7.449   9.980   2.369  0.5341  0.3289  0.2987
  826MOL0     H11443   7.039  10.186   2.059  3.8979  1.3344  0.0635
  826MOL0     H11444   6.812  10.257   1.969 -0.5395  0.5309  0.2540
  826MOL0     H11445   6.496  10.361   2.210 -1.4428 -0.8578 -0.4860
  826MOL0     H11446   6.551  10.536   2.195 -0.6392 -1.6678  2.5173
  826MOL0     H11447   6.456  10.546   1.984  3.3326  0.3381  2.0590
  826MOL0     H11448   6.332  10.489   2.110 -0.8827  0.5753 -1.3041
  826MOL0     H11449   6.287  10.297   2.002 -0.6642 -0.5839 -3.6783
  826MOL0     H11450   6.445  10.246   2.027  0.1360  0.6779  0.6521
  826MOL0     H11451   6.514  10.379   1.818 -1.5229  1.7840 -2.0329
  826MOL0     H11452   6.419  10.221   1.801  3.5003 -0.6405  2.0614
  826MOL0     H11453   6.208  10.385   1.784 -0.5090 -1.2344  0.8314
  826MOL0     H11454   6.320  10.508   1.771 -1.4432 -0.3959 -1.0314
  826MOL0     H11455   6.447  10.348   1.586 -0.0839  0.0214  0.6675
  826MOL0     H11456   6.289  10.252   1.593 -1.9213  1.8337 -1.4449
  826MOL0     H11457   6.342  10.410   1.407 -1.9392  0.8188 -1.1127
  826MOL0     H11458   6.293  10.548   1.498 -0.2521 -0.1937  0.3987
  826MOL0     H11459   6.138  10.295   1.450  3.0971  0.3857 -0.0364
  826MOL0     H11460   6.091  10.430   1.553 -0.2561  0.3331 -0.2151
  826MOL0     H11461   6.224  10.547   1.209 -0.1012  2.0256  0.6900
  826MOL0     H11462   6.093  10.622   0.965 -0.2906  0.9437 -1.4280
  826MOL0     H11463   5.923  10.652   0.985 -0.1755 -0.6499 -0.0046
  826MOL0     H11464   5.948  10.849   1.112 -1.6595  0.7152 -2.5256
  826MOL0     H11465   6.119  10.793   1.162 -0.2165 -2.9266  0.6021
  826MOL0     H11466   5.994  10.871   0.893 -0.0601 -0.2997  1.0487
  826MOL0     H11467   6.172  10.835   0.903 -0.2758 -0.4370 -0.6040
  826MOL0     H11468   6.188  11.072   0.905  2.3452 -0.1881  1.8630
  826MOL0     H11469   6.198  11.010   1.068 -0.4519  0.2041  0.0778
  826MOL0     H11470   5.843  11.247   1.178 -0.4743  3.5650 -3.9726
  826MOL0     H11471   5.900  11.434   1.351  0.8839  0.7559 -0.1020
  826MOL0     H11472   5.942  11.765   1.616  0.9990  1.0813 -2.0005
  826MOL0     H11473   5.991  11.860   1.824 -0.6741  0.6490 -1.2006
  826MOL0     H11474   6.362  11.735   2.062  2.9347  2.2489  0.9111
  826MOL0     H11475   6.385  11.859   1.936 -1.4264 -1.5937 -1.8162
  826MOL0     H11476   6.298  11.896   2.221  1.8638 -3.9554 -1.2061
  826MOL0     H11477   6.457  11.926   2.136  1.9506 -1.4719 -6.7258
  826MOL0     H11478   6.261  12.074   1.987 -1.2155 -2.4358  0.1107
  826MOL0     H11479   6.210  12.089   2.148  0.1380  1.7547 -1.8030
  826MOL0     H11480   6.488  12.169   2.043 -0.4705  5.2242  0.4720
  826MOL0     H11481   6.450  12.157   2.214  3.3368  0.1780 -0.3431
  826MOL0     H11482   6.422  12.381   2.182 -0.7076 -0.8917  0.6002
  826MOL0     H11483   6.266  12.320   2.191  0.4016 -0.0528  0.5805
  826MOL0     H11484   6.413  12.371   1.926  1.4511 -2.1303  2.2158
  826MOL0     H11485   6.242  12.338   1.942  1.8134 -1.6183 -0.1274
  826MOL0     H11486   6.328  12.602   1.942  5.4158  2.4298  3.1935
  826MOL0     H11487   6.338  12.579   2.106 -0.3381 -0.5942 -0.3803
  826MOL0     H11488   6.096  12.488   2.102 -0.6500 -1.6913 -3.3585
  826MOL0     H11489   6.130  12.660   2.097  0.7286  0.1533  0.5552
  826MOL0     H11490   6.317  11.589   1.883  0.9146 -1.1667 -0.5813
  826MOL0     H11491   6.274  11.492   1.662  2.4877 -0.8670  3.4034
  826MOL0     H11492   6.311  11.379   1.267  2.4978 -5.9465  0.6043
  826MOL0     H11493   6.264  11.227   1.072 -0.1356  0.7885 -0.9908
  826MOL0     H11494   6.729  10.460   2.321  0.4926 -0.7813  1.8128
  826MOL0     H11495   6.950  10.399   2.417  1.8432  1.1330 -0.9773
  826MOL0     H11496   7.332  10.435   2.273  0.6898  0.2956 -1.8792
  826MOL0     H11497   7.574  10.503   2.346  3.0436 -1.8730 -0.6468
  826MOL0     H11498   7.835  10.256   2.295  1.4010 -0.2771 -0.7913
  826MOL0     H11499   7.937  10.297   2.426  2.5800  2.5657 -0.8798
  826MOL0     H11500   7.833  10.496   2.232 -0.4717 -3.9958 -1.9654
  826MOL0     H11501   7.996  10.446   2.234 -0.2047 -3.2700 -0.8145
  826MOL0     H11502   8.003  10.517   2.483 -1.6433 -1.7796  0.2292
  826MOL0     H11503   7.867  10.616   2.449  1.5673  0.6966  2.6841
  826MOL0     H11504   8.101  10.738   2.398  0.5357  1.1959 -1.2504
  826MOL0     H11505   8.149  10.609   2.287 -0.0443  1.8131 -2.1838
  826MOL0     H11506   7.900  10.860   2.045 -1.2416  2.9878  1.2464
  826MOL0     H11507   7.662  10.106   2.445  4.0138  4.6894  3.8855
  826MOL0     H11508   7.531   9.923   2.412 -0.3056 -0.1900  1.2332
  826MOL0     H11509   7.363   9.954   2.431  1.5554  1.5183  2.3178
  826MOL0     H11510   7.421   9.941   2.270 -2.6105  2.3384  0.2612
  827MOL0     O11511  11.144   9.733   8.633 -0.3974  0.4244  0.2507
  827MOL0     C11512  11.090   9.627   8.595  0.5471  0.0787  0.3235
  827MOL0     O11513  11.101   9.509   8.666  0.1611  0.1952 -0.2016
  827MOL0     C11514  11.159   9.525   8.790  0.0873  0.4411 -1.0117
  827MOL0     C11515  11.299   9.513   8.801 -0.6788  0.6896  0.9254
  827MOL0     C11516  11.362   9.514   8.920  0.1681  0.2273 -0.5137
  827MOL0     C11517  11.295   9.509   9.041  0.5004 -0.0369  0.2381
  827MOL0     O11518  11.367   9.495   9.162  0.2594  0.8921  0.3954
  827MOL0     C11519  11.336   9.592   9.254  0.1343  0.6414 -0.1455
  827MOL0     C11520  11.454   9.654   9.319  0.5886  0.0975 -0.9522
  827MOL0     C11521  11.557   9.717   9.228  1.1209 -0.3670 -0.1785
  827MOL0     C11522  11.498   9.846   9.185  0.3327  0.2892  0.6063
  827MOL0     C11523  11.582   9.903   9.067  0.2879 -1.2977 -0.0092
  827MOL0     C11524  11.531  10.050   9.044 -0.3884 -0.1235  0.3406
  827MOL0     C11525  11.579  10.115   8.921 -0.6448 -0.1243 -0.1063
  827MOL0     C11526  11.560  10.266   8.936  0.8274 -0.4836 -0.3151
  827MOL0     N11527  11.627  10.365   8.849 -0.5491 -1.0075  1.1373
  827MOL0     C11528  11.762  10.384   8.849  0.2379  0.6286  0.5576
  827MOL0     C11529  11.772  10.501   8.774 -0.6110 -0.6700 -0.8992
  827MOL0     C11530  11.897  10.576   8.759 -1.0301 -0.2530 -0.1134
  827MOL0     C11531  11.919  10.603   8.603 -0.6794 -0.2819  0.3199
  827MOL0     C11532  12.060  10.659   8.570 -0.6860 -0.6058  0.0942
  827MOL0     C11533  12.088  10.791   8.645 -0.8054 -0.8647 -0.6701
  827MOL0     O11534  12.103  10.783   8.787 -0.4439 -0.5558 -0.1282
  827MOL0     C11535  12.097  10.904   8.856  0.7952  0.8745  0.3831
  827MOL0     C11536  12.112  11.033   8.791 -0.9034 -0.0004  0.1400
  827MOL0     C11537  12.099  11.145   8.870 -0.2177  0.7096 -0.1087
  827MOL0     C11538  12.062  11.141   9.003  0.3438 -0.0138 -0.1420
  827MOL0     C11539  12.035  11.253   9.083  0.4601 -0.8408 -0.7880
  827MOL0     O11540  11.954  11.233   9.192  0.1735  0.0586  0.9954
  827MOL0     C11541  11.883  11.328   9.243  0.3621 -0.1022  0.6091
  827MOL0     C11542  11.787  11.389   9.163 -0.3254 -0.5066 -0.4557
  827MOL0     C11543  11.722  11.503   9.219  0.0157 -0.5409  0.4024
  827MOL0     C11544  11.727  11.527   9.356  0.5738 -0.5481  1.0158
  827MOL0     O11545  11.647  11.626   9.403 -0.0506  0.7373 -0.1392
  827MOL0     C11546  11.504  11.625   9.391 -0.5601 -0.7624 -0.5332
  827MOL0     C11547  11.447  11.655   9.534  0.0335 -0.1434  1.6751
  827MOL0     C11548  11.293  11.624   9.531  0.8975 -0.1438  0.0242
  827MOL0     C11549  11.225  11.704   9.636 -0.3184 -0.7072 -0.1340
  827MOL0     C11550  11.078  11.667   9.650 -0.6196  0.0065 -0.1571
  827MOL0     C11551  10.998  11.783   9.719  0.1987  0.4806  0.0413
  827MOL0     C11552  10.850  11.768   9.727 -0.8448  0.4841 -0.7090
  827MOL0     C11553  10.797  11.893   9.806  0.5663  0.0900 -0.4349
  827MOL0    Cl11554  10.846  11.874   9.974 -0.0542  0.0302  0.0151
  827MOL0     C11555  11.829  11.467   9.433  0.3562 -0.4791  0.1224
  827MOL0     C11556  11.910  11.369   9.372 -0.0485  0.3083  0.1758
  827MOL0     O11557  12.091  11.362   9.056  0.0459 -0.2289 -0.2197
  827MOL0     C11558  12.079  11.018   9.071  0.0802  0.0759 -0.3182
  827MOL0     C11559  12.084  10.900   8.997  0.7687 -0.2232 -0.3143
  827MOL0     N11560  11.653  10.539   8.721 -0.6250  0.3516  0.5227
  827MOL0     N11561  11.571  10.454   8.771  0.1585 -0.3086  0.2112
  827MOL0     C11562  11.157   9.503   9.036  0.2350  0.2617  0.1641
  827MOL0     C11563  11.089   9.520   8.909  0.7634 -0.7180 -0.4351
  827MOL0     C11564  11.003   9.631   8.474 -1.5049 -0.0808 -0.2205
  827MOL0     C11565  10.921   9.513   8.460  0.8477 -0.6768 -0.2909
  827MOL0     C11566  10.839   9.495   8.349 -0.3441 -0.6136  0.5485
  827MOL0     C11567  10.840   9.583   8.242 -0.4775 -0.4370 -0.1308
  827MOL0     O11568  10.772   9.552   8.129 -0.2971  0.1192 -0.7909
  827MOL0     C11569  10.841   9.485   8.026 -0.2328  0.7123 -0.1074
  827MOL0     C11570  10.769   9.472   7.895  0.8085 -0.7186 -0.2849
  827MOL0     C11571  10.712   9.598   7.831  0.0375  0.2836 -0.5259
  827MOL0     C11572  10.566   9.621   7.872  0.4683  0.1153  0.7495
  827MOL0     C11573  10.496   9.731   7.810 -0.0301 -0.5363 -0.4423
  827MOL0     C11574  10.435   9.825   7.764 -1.6764 -0.2995 -0.1789
  827MOL0     C11575  10.927   9.694   8.244  0.5247  0.5520 -0.7318
  827MOL0     C11576  11.000   9.724   8.362 -0.0644  0.7481  0.3145
  827MOL0     C11577  11.077   9.852   8.369 -0.4350 -0.8940  0.1057
  827MOL0     H11578  11.363   9.505   8.714 -0.6385 -1.4184  1.0968
  827MOL0     H11579  11.470   9.501   8.920  0.0888 -0.9829 -2.8803
  827MOL0     H11580  11.274   9.669   9.207 -0.5930  0.0672 -0.1487
  827MOL0     H11581  11.278   9.532   9.325  2.9845 -1.9443  0.1996
  827MOL0     H11582  11.516   9.574   9.362  2.0989  0.4355 -2.4105
  827MOL0     H11583  11.424   9.721   9.401  2.6218 -1.8335  1.5403
  827MOL0     H11584  11.579   9.649   9.146 -2.3177 -3.2269  1.0286
  827MOL0     H11585  11.646   9.738   9.289  0.0719 -0.0801  1.3243
  827MOL0     H11586  11.397   9.828   9.146  0.0335 -0.6011  1.7424
  827MOL0     H11587  11.498   9.922   9.264  2.3789  1.7604 -0.7061
  827MOL0     H11588  11.688   9.911   9.096  0.5815  1.5126 -1.4710
  827MOL0     H11589  11.573   9.846   8.974 -3.0221 -3.2517  1.3469
  827MOL0     H11590  11.424  10.059   9.027  0.1811  1.3856 -3.2612
  827MOL0     H11591  11.577  10.097   9.132  0.9510 -2.6933  1.1255
  827MOL0     H11592  11.529  10.078   8.831 -1.7388  1.3969 -0.1609
  827MOL0     H11593  11.687  10.104   8.909 -0.6086  0.3816 -0.2792
  827MOL0     H11594  11.453  10.288   8.928  0.7976 -0.0105  1.0840
  827MOL0     H11595  11.579  10.283   9.042 -3.6266  0.2008  0.6077
  827MOL0     H11596  11.833  10.331   8.912 -0.2450 -1.8455 -0.8497
  827MOL0     H11597  11.890  10.676   8.802 -0.4713 -0.2193 -0.0896
  827MOL0     H11598  11.985  10.521   8.795 -1.1148  0.9396  2.0529
  827MOL0     H11599  11.913  10.509   8.548 -0.2669  0.3848 -0.9143
  827MOL0     H11600  11.845  10.678   8.571  0.9381  0.5210 -1.7932
  827MOL0     H11601  12.066  10.672   8.461 -0.6935  0.4180  0.2088
  827MOL0     H11602  12.131  10.581   8.598 -1.4341 -1.1758  0.4455
  827MOL0     H11603  11.997  10.847   8.620 -0.3222 -0.7521 -2.2711
  827MOL0     H11604  12.156  10.856   8.591 -0.0778 -0.8240  0.2761
  827MOL0     H11605  12.133  11.045   8.685  0.2640  1.4013  0.5008
  827MOL0     H11606  12.110  11.244   8.829 -0.1727  2.0971  2.9852
  827MOL0     H11607  11.771  11.351   9.063  0.3711 -1.8625 -0.0800
  827MOL0     H11608  11.656  11.560   9.154  1.5779 -0.2370 -0.9660
  827MOL0     H11609  11.469  11.706   9.327  3.0808  0.3433 -1.3679
  827MOL0     H11610  11.466  11.528   9.358 -0.1945 -0.9462 -0.4138
  827MOL0     H11611  11.506  11.593   9.602  3.3270  1.2884  0.3365
  827MOL0     H11612  11.458  11.759   9.565  0.5215  1.5625 -3.2792
  827MOL0     H11613  11.242  11.645   9.436  0.9319 -0.3406 -0.0397
  827MOL0     H11614  11.282  11.516   9.547  0.5858 -0.3599 -1.4893
  827MOL0     H11615  11.227  11.813   9.622  1.5569 -0.6211  0.5078
  827MOL0     H11616  11.268  11.704   9.736 -0.4111  3.1047  0.0476
  827MOL0     H11617  11.078  11.573   9.707  2.5528  1.2112  2.1373
  827MOL0     H11618  11.033  11.656   9.551 -2.0472  1.0853  0.3429
  827MOL0     H11619  11.041  11.801   9.818 -1.4400 -0.1052  0.9198
  827MOL0     H11620  11.023  11.876   9.668  2.8711 -0.6443 -0.8378
  827MOL0     H11621  10.807  11.673   9.761  1.3774 -0.4032 -0.2189
  827MOL0     H11622  10.822  11.789   9.623  1.4346 -4.6671 -2.7092
  827MOL0     H11623  10.852  11.981   9.771  4.0888 -1.9266 -0.4602
  827MOL0     H11624  10.689  11.907   9.795  0.5076 -0.7034 -0.9420
  827MOL0     H11625  11.855  11.498   9.534 -1.1598 -0.8820  0.6591
  827MOL0     H11626  11.990  11.313   9.418 -0.1636  0.7209  0.9100
  827MOL0     H11627  12.094  11.023   9.178  0.3715  1.1034 -0.3989
  827MOL0     H11628  12.101  10.803   9.043 -1.1164 -0.9551 -1.0637
  827MOL0     H11629  11.103   9.504   9.130 -0.6549 -0.2032 -0.3240
  827MOL0     H11630  10.981   9.513   8.912  0.6956  0.4593  0.7621
  827MOL0     H11631  10.919   9.437   8.537 -3.2381  0.1748  0.6900
  827MOL0     H11632  10.771   9.410   8.350 -1.6211  0.3774  0.5593
  827MOL0     H11633  10.864   9.387   8.067 -2.5900 -0.3273 -1.0830
  827MOL0     H11634  10.935   9.531   7.996  0.9759 -0.6891  1.3882
  827MOL0     H11635  10.701   9.386   7.899  2.3219 -1.9924 -0.8366
  827MOL0     H11636  10.847   9.438   7.826  0.8033  2.1658 -1.8622
  827MOL0     H11637  10.719   9.599   7.722 -0.5948 -1.7214 -0.6377
  827MOL0     H11638  10.764   9.681   7.879  1.2881 -0.1510 -1.0684
  827MOL0     H11639  10.510   9.532   7.841  0.3619  1.7020 -4.6881
  827MOL0     H11640  10.553   9.634   7.980  2.4890 -2.5123  1.4153
  827MOL0     H11641  10.385   9.905   7.713 -2.6772 -1.5175 -1.1688
  827MOL0     H11642  10.923   9.757   8.156 -3.2012  1.9389  0.2717
  827MOL0     H11643  11.183   9.832   8.391 -0.4804  0.8657  2.4228
  827MOL0     H11644  11.065   9.911   8.278 -0.1470 -1.2949 -0.1962
  827MOL0     H11645  11.035   9.912   8.450 -0.7285  1.6483 -1.8081
  828MOL0     O11646   3.194   6.761  10.645 -0.3004 -0.1553  0.3325
  828MOL0     C11647   3.085   6.815  10.643 -0.4857  0.3555  0.0984
  828MOL0     O11648   3.064   6.946  10.690 -0.3018 -1.4481 -0.0246
  828MOL0     C11649   3.169   7.036  10.705  0.3158  0.0196  0.1584
  828MOL0     C11650   3.264   7.061  10.597  0.6775 -0.2843 -0.7186
  828MOL0     C11651   3.377   7.144  10.611 -0.0960  0.5812 -0.7398
  828MOL0     C11652   3.391   7.216  10.729  0.5494 -0.4920  0.1478
  828MOL0     O11653   3.496   7.300  10.749  0.7485  0.0882  0.1494
  828MOL0     C11654   3.625   7.250  10.768  0.1982  0.7817 -0.3304
  828MOL0     C11655   3.624   7.142  10.880  0.1789 -0.4700  0.8212
  828MOL0     C11656   3.768   7.123  10.936 -0.1436 -0.1043 -0.4667
  828MOL0     C11657   3.828   7.241  11.019 -0.1079  0.0171 -0.2680
  828MOL0     C11658   3.969   7.212  11.058 -0.3209  0.2541 -0.0940
  828MOL0     C11659   4.066   7.197  10.936 -0.1652 -0.2473 -0.1820
  828MOL0     C11660   4.208   7.177  10.976  0.1590  0.6123 -0.6743
  828MOL0     C11661   4.231   7.043  11.037  0.3735 -0.4116 -0.0406
  828MOL0     N11662   4.374   7.018  11.059 -0.3645  0.2710 -0.2249
  828MOL0     C11663   4.453   6.932  10.993  0.1630 -0.9196 -0.2872
  828MOL0     C11664   4.579   6.960  11.044 -0.3668 -0.4142  1.1786
  828MOL0     C11665   4.706   6.885  10.988  0.0027  0.3513  0.0256
  828MOL0     C11666   4.839   6.933  11.057  0.0880 -0.6790  0.4171
  828MOL0     C11667   4.971   6.857  11.007  0.3214 -0.7417  0.3335
  828MOL0     C11668   5.100   6.930  11.037  0.1178  0.0973  0.1078
  828MOL0     O11669   5.130   7.025  10.938  0.4889  0.1048 -0.4687
  828MOL0     C11670   5.198   6.995  10.823 -0.2015 -0.3894 -0.0310
  828MOL0     C11671   5.236   7.103  10.741  0.2143 -0.6922  0.2157
  828MOL0     C11672   5.299   7.082  10.616 -0.4722 -0.4662  0.1784
  828MOL0     C11673   5.316   6.947  10.570  0.0201 -0.2628  0.3585
  828MOL0     C11674   5.377   6.909  10.440  1.3693 -0.3740  0.3319
  828MOL0     O11675   5.351   6.775  10.398 -0.7862  0.5479  1.1431
  828MOL0     C11676   5.423   6.705  10.302  0.8590  0.0228  0.6111
  828MOL0     C11677   5.366   6.588  10.247 -0.1862 -0.4428 -0.2370
  828MOL0     C11678   5.438   6.517  10.154  0.3919  0.2740  0.3112
  828MOL0     C11679   5.567   6.554  10.114  0.2596  0.4713 -0.2257
  828MOL0     O11680   5.643   6.493  10.024 -0.3629 -0.1714  0.0079
  828MOL0     C11681   5.573   6.412   9.927 -0.0021  0.2608  0.5337
  828MOL0     C11682   5.617   6.260   9.924 -0.3124 -0.1004  0.4622
  828MOL0     C11683   5.622   6.202  10.065  0.1137 -0.4596 -0.3824
  828MOL0     C11684   5.661   6.049  10.071 -0.4486 -0.5951  0.7550
  828MOL0     C11685   5.552   5.963  10.004  0.6220  0.5132  0.6427
  828MOL0     C11686   5.539   5.825  10.061  0.0953 -0.1819  0.3785
  828MOL0     C11687   5.649   5.731  10.011 -0.0137  0.0539 -0.3451
  828MOL0     C11688   5.632   5.692   9.862 -0.7300  0.3880 -0.5863
  828MOL0    Cl11689   5.771   5.581   9.819  0.1407  0.2261 -0.1776
  828MOL0     C11690   5.626   6.663  10.176 -0.1307 -0.3780 -0.9272
  828MOL0     C11691   5.549   6.749  10.256 -0.4607  0.0456  0.4865
  828MOL0     O11692   5.449   6.990  10.388 -0.5727 -0.6046  0.5070
  828MOL0     C11693   5.290   6.845  10.654  0.1827 -0.1729  1.2809
  828MOL0     C11694   5.230   6.862  10.776 -0.8092 -0.2107 -0.2294
  828MOL0     N11695   4.569   7.059  11.140  0.0111  0.2115 -0.1176
  828MOL0     N11696   4.446   7.081  11.163 -0.1326 -0.2993 -0.1094
  828MOL0     C11697   3.289   7.208  10.826 -0.9201  0.1782 -1.1137
  828MOL0     C11698   3.181   7.124  10.811 -0.2653 -0.6405  0.0022
  828MOL0     C11699   2.965   6.744  10.606  0.1275 -0.5381 -0.0439
  828MOL0     C11700   2.842   6.817  10.595  0.0571 -0.4100 -1.1221
  828MOL0     C11701   2.723   6.753  10.565 -0.0426  0.4964  0.1138
  828MOL0     C11702   2.705   6.612  10.553 -0.2234 -1.0986  0.1942
  828MOL0     O11703   2.583   6.566  10.506 -0.6804 -0.7923  0.5441
  828MOL0     C11704   2.572   6.432  10.460  0.2108  0.3864  0.1896
  828MOL0     C11705   2.437   6.413  10.391 -0.4657  0.8222 -0.8057
  828MOL0     C11706   2.420   6.275  10.323 -0.0087  1.4413 -0.2660
  828MOL0     C11707   2.483   6.155  10.413 -0.0438  0.1265  0.1726
  828MOL0     C11708   2.441   6.031  10.336 -0.6446  0.7272 -0.5655
  828MOL0     C11709   2.397   5.929  10.292  0.1416 -0.7031  0.4451
  828MOL0     C11710   2.827   6.540  10.571  0.5222  1.3462 -0.4551
  828MOL0     C11711   2.949   6.595  10.595 -0.6956 -0.1898  0.2234
  828MOL0     C11712   3.063   6.500  10.601  1.2419 -0.8429  0.9325
  828MOL0     H11713   3.242   7.005  10.507 -2.4833  1.0485 -0.9254
  828MOL0     H11714   3.438   7.137  10.521 -1.1308 -2.0493 -1.3220
  828MOL0     H11715   3.654   7.200  10.675  0.5349 -1.2336  0.7935
  828MOL0     H11716   3.691   7.333  10.796  1.0174 -0.0618  0.3276
  828MOL0     H11717   3.571   7.054  10.843 -1.6389  1.1132 -0.5888
  828MOL0     H11718   3.555   7.191  10.950  1.3275  1.1882  0.8668
  828MOL0     H11719   3.832   7.118  10.848  2.4075  5.5240  0.5863
  828MOL0     H11720   3.773   7.034  10.999  0.7998  2.5109  3.5860
  828MOL0     H11721   3.822   7.342  10.977  3.3100 -0.2199 -1.6761
  828MOL0     H11722   3.783   7.249  11.118  2.0870  1.2957  0.6878
  828MOL0     H11723   3.986   7.300  11.121  2.2910 -2.5913  3.6960
  828MOL0     H11724   3.976   7.127  11.127  0.1325  1.9290  2.0303
  828MOL0     H11725   4.044   7.103  10.883  0.8260 -2.1383  2.4982
  828MOL0     H11726   4.064   7.284  10.870  2.3765  0.4433  0.5443
  828MOL0     H11727   4.245   7.261  11.036 -2.4245 -0.8036  3.3083
  828MOL0     H11728   4.259   7.163  10.880 -1.5034 -3.0740 -1.1540
  828MOL0     H11729   4.196   7.053  11.140 -2.3416  2.2543 -1.0691
  828MOL0     H11730   4.190   6.958  10.981 -2.0627  0.7960 -0.2325
  828MOL0     H11731   4.435   6.874  10.904 -1.5180  0.9839 -1.2774
  828MOL0     H11732   4.700   6.778  11.010  0.5344  0.1735 -0.6562
  828MOL0     H11733   4.722   6.896  10.880  1.5424 -0.5751  0.1293
  828MOL0     H11734   4.861   7.039  11.038 -1.6844 -0.0895  1.4088
  828MOL0     H11735   4.816   6.916  11.163 -3.1611 -0.7958 -0.2178
  828MOL0     H11736   4.953   6.853  10.899 -4.7882  1.9499  0.7982
  828MOL0     H11737   4.972   6.755  11.046 -1.5772 -1.9164 -2.3787
  828MOL0     H11738   5.174   6.850  11.042  0.8694  0.7421 -0.4505
  828MOL0     H11739   5.099   6.969  11.139 -0.2125  0.4126 -0.0123
  828MOL0     H11740   5.201   7.205  10.755 -1.6837 -1.0973 -1.1752
  828MOL0     H11741   5.327   7.172  10.562 -1.4532  1.3775  2.5615
  828MOL0     H11742   5.267   6.567  10.285 -0.3756 -0.4966 -0.7465
  828MOL0     H11743   5.386   6.433  10.110 -2.3304  2.2822 -0.5672
  828MOL0     H11744   5.464   6.420   9.915 -0.0178 -0.1576  0.3453
  828MOL0     H11745   5.601   6.441   9.825  1.5390 -2.3642  0.0958
  828MOL0     H11746   5.547   6.202   9.864  3.4026 -1.4475 -3.0802
  828MOL0     H11747   5.716   6.258   9.877 -0.8981  0.7028 -0.8612
  828MOL0     H11748   5.707   6.240  10.122  0.3084 -4.0490  2.0246
  828MOL0     H11749   5.523   6.223  10.105 -0.0965  0.5489 -1.3675
  828MOL0     H11750   5.676   6.028  10.178 -2.9652 -0.7900  1.1355
  828MOL0     H11751   5.751   6.029  10.012 -0.3370  1.7972  0.0277
  828MOL0     H11752   5.564   5.953   9.896 -1.3882 -0.1546  0.4291
  828MOL0     H11753   5.455   6.014  10.011  0.0438 -0.0056 -2.2624
  828MOL0     H11754   5.544   5.840  10.169 -0.6176  1.7312  0.1950
  828MOL0     H11755   5.442   5.786  10.028  1.3046 -2.4501 -0.6939
  828MOL0     H11756   5.661   5.642  10.073  2.0139  0.9957  0.7420
  828MOL0     H11757   5.746   5.778  10.030 -0.0814 -0.8290  2.7296
  828MOL0     H11758   5.533   5.646   9.852 -1.5921  2.4504 -2.3907
  828MOL0     H11759   5.638   5.773   9.788 -2.9192  0.4398 -0.7647
  828MOL0     H11760   5.726   6.689  10.144  0.4475 -2.6702 -1.1453
  828MOL0     H11761   5.600   6.842  10.279 -1.2165  0.5566  0.1607
  828MOL0     H11762   5.302   6.739  10.634  0.5941 -0.0297  0.7328
  828MOL0     H11763   5.187   6.775  10.825 -2.4072  0.8186  0.2682
  828MOL0     H11764   3.314   7.250  10.923  0.8991 -3.2281  0.0419
  828MOL0     H11765   3.115   7.115  10.897  0.0494 -2.8945  0.0654
  828MOL0     H11766   2.843   6.925  10.599 -2.2499 -0.3526 -0.6092
  828MOL0     H11767   2.637   6.808  10.528 -0.2043 -0.1910 -0.5383
  828MOL0     H11768   2.578   6.370  10.551 -3.8478  0.4328  0.6523
  828MOL0     H11769   2.654   6.398  10.395 -1.2894  0.4005 -1.7986
  828MOL0     H11770   2.423   6.481  10.306 -1.1746 -1.9587 -3.0832
  828MOL0     H11771   2.357   6.433  10.463  0.8611 -0.9940  1.3017
  828MOL0     H11772   2.479   6.279  10.231  1.9173 -4.1593  0.2888
  828MOL0     H11773   2.313   6.259  10.305  0.3612 -1.2701 -0.4755
  828MOL0     H11774   2.592   6.162  10.420 -0.1272  1.3253  0.4829
  828MOL0     H11775   2.441   6.156  10.514 -0.5170 -1.3088  0.0083
  828MOL0     H11776   2.337   5.846  10.260 -0.0110 -0.3830 -0.1010
  828MOL0     H11777   2.818   6.433  10.556  0.1540  1.5092 -1.4967
  828MOL0     H11778   3.146   6.552  10.553  0.6029 -0.6259  0.0371
  828MOL0     H11779   3.087   6.478  10.705 -0.3959 -1.9723  1.1150
  828MOL0     H11780   3.042   6.408  10.545  0.2999  0.7632 -1.5244
  829MOL0     O11781   6.532   2.060  11.198  0.0925 -0.6465  0.1892
  829MOL0     C11782   6.439   2.075  11.281 -1.3472 -0.7860 -0.1110
  829MOL0     O11783   6.344   2.169  11.273  0.6214 -0.0270  0.4614
  829MOL0     C11784   6.338   2.244  11.160 -0.5964 -0.3312  0.7365
  829MOL0     C11785   6.248   2.210  11.064 -0.1169 -0.3557  1.0010
  829MOL0     C11786   6.243   2.281  10.947 -0.0417 -0.5816  0.7599
  829MOL0     C11787   6.315   2.403  10.922  0.9821 -0.4984  0.0083
  829MOL0     O11788   6.280   2.477  10.809 -0.2898 -0.4183 -0.3098
  829MOL0     C11789   6.350   2.596  10.785 -0.5051  0.4085  0.1208
  829MOL0     C11790   6.283   2.675  10.666  0.5747 -0.5031  0.0615
  829MOL0     C11791   6.289   2.592  10.540 -0.9156  0.4524 -0.6468
  829MOL0     C11792   6.428   2.572  10.472 -0.2759 -0.4776  0.5456
  829MOL0     C11793   6.420   2.606  10.323  0.3128  0.2894  0.0041
  829MOL0     C11794   6.371   2.749  10.293 -0.2722 -0.0117  0.4958
  829MOL0     C11795   6.391   2.773  10.143  0.2816 -1.0380  0.9514
  829MOL0     C11796   6.276   2.712  10.054 -0.4706 -0.4104 -0.3144
  829MOL0     N11797   6.276   2.771   9.922  1.0001 -0.3418 -0.0232
  829MOL0     C11798   6.391   2.802   9.842  0.5018  1.0848 -0.0409
  829MOL0     C11799   6.342   2.845   9.726  0.4006 -0.3308  0.8558
  829MOL0     C11800   6.430   2.910   9.611  1.0053 -1.0460 -0.1159
  829MOL0     C11801   6.435   2.817   9.501 -0.5050 -1.2720  0.7028
  829MOL0     C11802   6.464   2.670   9.526 -0.9033 -0.5653  0.3289
  829MOL0     C11803   6.617   2.651   9.552  0.2093 -0.1648 -0.0146
  829MOL0     O11804   6.642   2.509   9.569  0.9704 -0.0977 -0.5749
  829MOL0     C11805   6.723   2.458   9.658  0.0487 -0.3812 -1.3681
  829MOL0     C11806   6.718   2.318   9.684 -0.2064 -0.7467 -0.1992
  829MOL0     C11807   6.805   2.266   9.776 -0.6907 -0.5198 -0.0228
  829MOL0     C11808   6.908   2.340   9.845  0.2639 -0.0208  0.4441
  829MOL0     C11809   7.016   2.284   9.936 -0.1507  1.0868  0.1546
  829MOL0     O11810   7.020   2.154   9.959 -0.1724 -0.0574 -0.2612
  829MOL0     C11811   7.110   2.088  10.043 -0.5694 -1.1532  0.2773
  829MOL0     C11812   7.252   2.125  10.057  0.7478  0.9513  0.3541
  829MOL0     C11813   7.342   2.058  10.130 -0.2096  0.2425 -1.1199
  829MOL0     C11814   7.298   1.935  10.203 -0.6339 -0.4531  0.6478
  829MOL0     O11815   7.391   1.852  10.276  0.0161 -0.2263  1.0512
  829MOL0     C11816   7.512   1.824  10.201 -0.0996  0.2296  1.2490
  829MOL0     C11817   7.570   1.689  10.236 -0.1089  0.0732 -0.2919
  829MOL0     C11818   7.604   1.696  10.388  0.8989  0.2125  0.6139
  829MOL0     C11819   7.614   1.552  10.446 -0.0854  0.1069 -0.4702
  829MOL0     C11820   7.634   1.565  10.594 -0.1629  0.9534 -0.7084
  829MOL0     C11821   7.661   1.417  10.643 -1.3081 -0.4244 -0.2243
  829MOL0     C11822   7.673   1.417  10.801  0.1591  0.3078  0.7793
  829MOL0     C11823   7.565   1.321  10.855 -0.3116 -0.1201 -0.3251
  829MOL0    Cl11824   7.610   1.143  10.809  0.5492 -0.2443  0.3341
  829MOL0     C11825   7.168   1.901  10.198  0.7477 -0.0157  0.2610
  829MOL0     C11826   7.079   1.976  10.118  0.5383 -0.0411  1.0522
  829MOL0     O11827   7.097   2.362   9.980 -0.0975  0.0496 -0.5046
  829MOL0     C11828   6.908   2.481   9.811  0.2589  0.1580 -0.4508
  829MOL0     C11829   6.816   2.538   9.723  0.0754  0.0102  0.9553
  829MOL0     N11830   6.208   2.863   9.739  0.1067 -0.4476 -0.7909
  829MOL0     N11831   6.163   2.815   9.853 -0.3763 -0.6248  0.0424
  829MOL0     C11832   6.400   2.442  11.024 -0.9232  0.3870  0.2512
  829MOL0     C11833   6.423   2.359  11.132  0.8768  1.0883 -0.6749
  829MOL0     C11834   6.444   1.993  11.408  0.1761  0.8023  0.8950
  829MOL0     C11835   6.335   2.006  11.507  0.5650  0.3576 -0.2278
  829MOL0     C11836   6.322   1.908  11.613  0.5639 -0.5562  0.6446
  829MOL0     C11837   6.423   1.812  11.629  0.7219  0.9991 -0.7131
  829MOL0     O11838   6.415   1.716  11.728  0.0242 -0.8663 -0.6852
  829MOL0     C11839   6.299   1.699  11.811  0.2394  0.5476  0.3779
  829MOL0     C11840   6.329   1.635  11.943  0.5261  0.1063  0.2691
  829MOL0     C11841   6.424   1.516  11.950 -0.4363  0.5995  0.0014
  829MOL0     C11842   6.381   1.374  11.905 -0.2877  0.2732  0.1113
  829MOL0     C11843   6.241   1.337  11.923 -0.4009 -0.2984 -0.4488
  829MOL0     C11844   6.127   1.311  11.937  0.4598 -1.2993 -0.4588
  829MOL0     C11845   6.523   1.810  11.541  0.4694  0.0223 -0.8889
  829MOL0     C11846   6.539   1.895  11.441  0.2061  0.2257  1.3753
  829MOL0     C11847   6.674   1.879  11.368  0.2683 -0.6014  0.7900
  829MOL0     H11848   6.189   2.120  11.056 -0.5025  0.0191 -0.8635
  829MOL0     H11849   6.167   2.256  10.873 -0.7037 -1.2350  1.6361
  829MOL0     H11850   6.348   2.656  10.876 -0.1947 -0.3507  0.6400
  829MOL0     H11851   6.455   2.573  10.764 -0.2408  3.2608 -2.4676
  829MOL0     H11852   6.329   2.772  10.643  2.4003 -2.1142 -4.1033
  829MOL0     H11853   6.180   2.695  10.696  0.6077  0.6072 -0.5052
  829MOL0     H11854   6.207   2.628  10.477 -3.7021 -0.1593  2.3617
  829MOL0     H11855   6.247   2.493  10.561 -0.0714  0.2414  0.0942
  829MOL0     H11856   6.506   2.639  10.509  0.5277 -1.2208  0.2288
  829MOL0     H11857   6.460   2.469  10.493  0.4618 -0.3446  0.1151
  829MOL0     H11858   6.518   2.590  10.277 -1.0167  0.0902 -2.9756
  829MOL0     H11859   6.341   2.538  10.289 -0.1601  0.9230 -0.1671
  829MOL0     H11860   6.266   2.772  10.312 -0.2273  2.0205 -1.3917
  829MOL0     H11861   6.438   2.813  10.352  1.0433  0.1944 -1.1246
  829MOL0     H11862   6.493   2.767  10.106  0.2867 -2.3673  1.1495
  829MOL0     H11863   6.365   2.880  10.147 -1.8151 -1.5283  2.7399
  829MOL0     H11864   6.299   2.606  10.042 -0.6158 -0.2353 -2.6402
  829MOL0     H11865   6.177   2.718  10.100  0.6368  0.3342  2.1454
  829MOL0     H11866   6.491   2.770   9.868  0.2462  1.4578  1.4893
  829MOL0     H11867   6.384   3.002   9.574 -0.1226 -1.2657  0.6825
  829MOL0     H11868   6.530   2.931   9.651  0.2671  1.2301  0.6937
  829MOL0     H11869   6.340   2.822   9.446  0.4506  1.3676 -0.9116
  829MOL0     H11870   6.512   2.851   9.431 -0.2265 -0.7405  1.2593
  829MOL0     H11871   6.434   2.610   9.440  0.5168 -2.2380  0.9568
  829MOL0     H11872   6.404   2.627   9.607 -1.8387 -2.4968 -1.3129
  829MOL0     H11873   6.637   2.707   9.644  2.7521 -0.3766 -0.3541
  829MOL0     H11874   6.684   2.697   9.478  0.1051 -0.3540 -0.2285
  829MOL0     H11875   6.639   2.259   9.638  0.0788 -2.1391  1.0173
  829MOL0     H11876   6.784   2.161   9.794  2.3184 -0.9942  1.2264
  829MOL0     H11877   7.295   2.213  10.010  1.0663  3.2510  4.5192
  829MOL0     H11878   7.447   2.083  10.142 -0.8264  2.1953  0.9328
  829MOL0     H11879   7.483   1.826  10.095  2.1489  0.5443  0.5977
  829MOL0     H11880   7.590   1.898  10.219 -1.8432  2.4351  0.1966
  829MOL0     H11881   7.495   1.611  10.220 -1.2360  0.1567  3.5973
  829MOL0     H11882   7.651   1.671  10.165 -0.3091  0.9734 -0.7720
  829MOL0     H11883   7.697   1.749  10.414 -0.7859  3.3971  0.6855
  829MOL0     H11884   7.521   1.744  10.442  0.5866  0.7385 -0.3149
  829MOL0     H11885   7.699   1.497  10.405  0.9194  2.7136 -2.0581
  829MOL0     H11886   7.535   1.479  10.426 -0.9556  0.9962 -0.3500
  829MOL0     H11887   7.533   1.592  10.629 -1.1052 -0.0743 -2.4710
  829MOL0     H11888   7.705   1.645  10.619 -1.4731  2.2910 -1.0660
  829MOL0     H11889   7.576   1.357  10.610 -1.3550  0.0821 -1.0379
  829MOL0     H11890   7.738   1.368  10.583 -3.6915 -3.6179 -0.9177
  829MOL0     H11891   7.661   1.515  10.848 -0.1964  0.9711 -0.6215
  829MOL0     H11892   7.772   1.384  10.833 -0.0385  0.2212  1.2998
  829MOL0     H11893   7.575   1.336  10.963 -0.2033  0.9271 -0.4709
  829MOL0     H11894   7.463   1.351  10.827 -1.2095 -0.5010  2.2668
  829MOL0     H11895   7.136   1.822  10.265  0.8998  0.3966  0.8205
  829MOL0     H11896   6.975   1.943  10.123 -1.0782  3.9582 -1.2286
  829MOL0     H11897   6.969   2.562   9.850 -3.2744  3.7497 -1.6204
  829MOL0     H11898   6.829   2.642   9.696  1.9683 -0.0575  1.4615
  829MOL0     H11899   6.463   2.530  11.014  2.6663 -2.2267 -3.3692
  829MOL0     H11900   6.510   2.384  11.193  0.5997  1.9186 -0.6139
  829MOL0     H11901   6.250   2.072  11.491 -2.1497 -3.3777 -3.1008
  829MOL0     H11902   6.258   1.941  11.694 -0.4791  2.7763 -1.3448
  829MOL0     H11903   6.239   1.634  11.748 -0.3445  0.2012  1.2732
  829MOL0     H11904   6.243   1.791  11.830 -1.4330 -0.3273 -0.1714
  829MOL0     H11905   6.235   1.600  11.987  1.0012 -2.0919 -0.3422
  829MOL0     H11906   6.379   1.713  12.002  1.5388 -0.8683  0.7393
  829MOL0     H11907   6.461   1.519  12.053 -1.0339  2.3723  0.1830
  829MOL0     H11908   6.515   1.550  11.899 -0.7891  3.1143  0.9258
  829MOL0     H11909   6.407   1.370  11.798 -1.7718 -0.0033 -0.2596
  829MOL0     H11910   6.450   1.306  11.955  0.8685  1.5215  0.2740
  829MOL0     H11911   6.028   1.285  11.968  0.2972 -0.9079 -0.6403
  829MOL0     H11912   6.610   1.746  11.550  0.6370  0.4193  0.8192
  829MOL0     H11913   6.748   1.809  11.407  2.0573 -0.2839 -1.7246
  829MOL0     H11914   6.640   1.850  11.268  0.0764  0.1301  0.6347
  829MOL0     H11915   6.723   1.976  11.358 -2.8654  0.9517 -1.0945
  830MOL0     O11916   3.043   1.147   1.055 -1.1872 -0.4899  1.4472
  830MOL0     C11917   3.045   1.108   1.175 -0.0344  0.0120  0.6726
  830MOL0     O11918   2.938   1.124   1.258 -0.0364  0.0067 -0.0552
  830MOL0     C11919   2.815   1.143   1.208 -0.4192  0.0466 -0.4618
  830MOL0     C11920   2.732   1.220   1.280  0.1507 -0.7204 -0.4368
  830MOL0     C11921   2.594   1.240   1.250  0.5873 -0.5484  0.2566
  830MOL0     C11922   2.543   1.176   1.139  0.6728 -0.7956 -0.1755
  830MOL0     O11923   2.415   1.170   1.097 -0.1169 -0.5054 -0.6317
  830MOL0     C11924   2.325   1.197   1.198  0.3576 -0.2719 -0.0903
  830MOL0     C11925   2.279   1.351   1.208 -1.1808  0.1557  0.2711
  830MOL0     C11926   2.199   1.378   1.331  0.5137 -0.3654 -0.6312
  830MOL0     C11927   2.053   1.362   1.314 -0.1740 -0.0537 -1.1067
  830MOL0     C11928   1.977   1.412   1.432 -0.0820 -0.2303  0.2607
  830MOL0     C11929   1.824   1.401   1.414  0.5894  0.3537  0.4614
  830MOL0     C11930   1.764   1.483   1.309 -0.2508  0.1666 -0.2776
  830MOL0     C11931   1.619   1.433   1.293  0.3574  0.7531  0.8978
  830MOL0     N11932   1.557   1.527   1.200 -0.1785 -0.2555 -0.0599
  830MOL0     C11933   1.549   1.520   1.066 -0.7589  0.7318 -0.4121
  830MOL0     C11934   1.481   1.630   1.037  1.6936 -0.3522 -0.1902
  830MOL0     C11935   1.427   1.650   0.906  0.1892 -0.6114  0.3957
  830MOL0     C11936   1.533   1.647   0.790 -0.2240  0.8013  0.0171
  830MOL0     C11937   1.463   1.623   0.657  0.1197 -0.3076 -0.0307
  830MOL0     C11938   1.554   1.664   0.541 -0.5649 -0.6986 -0.5711
  830MOL0     O11939   1.678   1.591   0.542 -0.0490  0.0898  0.5349
  830MOL0     C11940   1.723   1.527   0.427  0.1857 -0.3534 -0.1186
  830MOL0     C11941   1.639   1.468   0.329  0.8796 -0.1285  0.9970
  830MOL0     C11942   1.698   1.388   0.232 -0.0246  0.0616 -0.5670
  830MOL0     C11943   1.835   1.387   0.216 -0.5064 -0.4287  0.5077
  830MOL0     C11944   1.891   1.321   0.100 -0.0532  0.2935 -0.2587
  830MOL0     O11945   1.992   1.385   0.039  0.2197  0.4442 -0.2143
  830MOL0     C11946   2.068   1.317  -0.057  0.6157  0.7487 -1.1943
  830MOL0     C11947   2.077   1.390  -0.176 -0.9834 -0.0605  0.5278
  830MOL0     C11948   2.146   1.334  -0.287  0.5988  0.5042 -0.3908
  830MOL0     C11949   2.203   1.209  -0.293 -0.9918  0.1358 -0.0745
  830MOL0     O11950   2.259   1.137  -0.399  0.0403 -0.4418  0.9712
  830MOL0     C11951   2.237   1.183  -0.536  0.1456 -0.9078  0.1697
  830MOL0     C11952   2.377   1.204  -0.592 -0.7950 -0.5990 -0.0416
  830MOL0     C11953   2.363   1.234  -0.746  0.9724 -1.3690 -0.0629
  830MOL0     C11954   2.481   1.309  -0.790  0.2356  0.1853 -0.0351
  830MOL0     C11955   2.453   1.349  -0.936  0.0847 -1.3813  0.0403
  830MOL0     C11956   2.573   1.409  -1.018  0.1574 -1.0168  0.0553
  830MOL0     C11957   2.698   1.331  -1.013 -0.5230 -0.4346  0.7889
  830MOL0     C11958   2.689   1.190  -1.072 -0.5882 -0.3808  0.4671
  830MOL0    Cl11959   2.838   1.098  -1.025  0.1109  0.2215  0.0897
  830MOL0     C11960   2.193   1.132  -0.169 -0.0645 -0.7697  0.2859
  830MOL0     C11961   2.136   1.183  -0.052  0.3091 -0.6115 -0.4144
  830MOL0     O11962   1.850   1.213   0.060 -0.5028 -0.3667 -0.1412
  830MOL0     C11963   1.914   1.442   0.310  0.0090 -0.0978  0.1811
  830MOL0     C11964   1.860   1.507   0.418  0.1874 -0.2198 -0.5324
  830MOL0     N11965   1.441   1.703   1.143  0.4425 -0.7396  0.0541
  830MOL0     N11966   1.487   1.639   1.242 -0.1996  0.9602  0.0637
  830MOL0     C11967   2.632   1.115   1.061  0.4831 -1.2513 -0.2002
  830MOL0     C11968   2.768   1.086   1.092 -0.3025 -0.5635 -0.3010
  830MOL0     C11969   3.180   1.058   1.215  0.7800 -0.1329  0.4899
  830MOL0     C11970   3.288   1.091   1.136  0.4265  0.3449  0.4408
  830MOL0     C11971   3.420   1.043   1.148  0.2761  0.1648 -0.1288
  830MOL0     C11972   3.435   0.937   1.237 -0.3582  0.4268  0.0110
  830MOL0     O11973   3.568   0.891   1.255 -0.0864 -0.2537 -0.2536
  830MOL0     C11974   3.614   0.846   1.388  0.5063  0.8315  0.2433
  830MOL0     C11975   3.766   0.850   1.391  1.0104  0.6966 -0.6611
  830MOL0     C11976   3.820   0.829   1.531 -0.2274 -0.8248 -0.5755
  830MOL0     C11977   3.965   0.786   1.529 -1.0053 -0.2057 -0.3418
  830MOL0     C11978   4.063   0.871   1.449 -0.8600  0.7486 -0.0694
  830MOL0     C11979   4.131   0.946   1.382  0.1713 -0.2498 -0.6599
  830MOL0     C11980   3.331   0.901   1.325  0.2816 -0.6417 -0.6531
  830MOL0     C11981   3.202   0.959   1.317 -0.1149 -0.3438  2.0737
  830MOL0     C11982   3.091   0.927   1.420  0.5121  0.1588  0.3956
  830MOL0     H11983   2.765   1.257   1.377 -1.1119 -2.7720  0.8731
  830MOL0     H11984   2.535   1.292   1.325  0.2326 -0.4174 -0.1103
  830MOL0     H11985   2.237   1.136   1.175  0.2347 -1.5888  3.3565
  830MOL0     H11986   2.365   1.148   1.287 -1.0651 -2.5831 -0.6520
  830MOL0     H11987   2.223   1.387   1.122  0.0570 -1.2429 -1.1799
  830MOL0     H11988   2.372   1.408   1.221  0.5808 -2.3090 -0.7155
  830MOL0     H11989   2.226   1.477   1.368 -1.9217 -0.2930  1.2169
  830MOL0     H11990   2.227   1.312   1.414  3.6830  2.0865  0.4875
  830MOL0     H11991   2.021   1.421   1.228  1.2484  0.4517 -1.3179
  830MOL0     H11992   2.017   1.260   1.300 -2.6830 -0.3041  4.3554
  830MOL0     H11993   2.001   1.364   1.527 -3.7704 -1.2942  0.8314
  830MOL0     H11994   2.006   1.517   1.437 -5.1348  1.3988  0.7284
  830MOL0     H11995   1.804   1.297   1.386  0.9647  1.2817 -3.8649
  830MOL0     H11996   1.781   1.443   1.505 -0.0261  3.5524 -1.1713
  830MOL0     H11997   1.818   1.465   1.216  2.0987 -0.5262  1.1471
  830MOL0     H11998   1.773   1.586   1.344  1.7468  0.9802 -2.9025
  830MOL0     H11999   1.620   1.335   1.246  2.9185  0.7982  0.7192
  830MOL0     H12000   1.556   1.426   1.382 -2.5174  0.0328 -1.0216
  830MOL0     H12001   1.580   1.435   1.006 -1.0944 -0.8970  1.6203
  830MOL0     H12002   1.365   1.562   0.887  0.1027 -0.4361 -0.1685
  830MOL0     H12003   1.355   1.733   0.904 -0.2586 -0.9973 -0.7087
  830MOL0     H12004   1.586   1.744   0.790  1.5365 -0.0977 -1.3365
  830MOL0     H12005   1.609   1.572   0.814 -0.2387  0.7134 -0.2096
  830MOL0     H12006   1.364   1.668   0.659  0.5538  0.6573  0.1459
  830MOL0     H12007   1.448   1.516   0.641 -2.6982 -0.2206  1.5239
  830MOL0     H12008   1.586   1.768   0.547 -0.1048 -0.9212  1.5432
  830MOL0     H12009   1.496   1.654   0.449 -2.6403  2.4302  0.2470
  830MOL0     H12010   1.531   1.468   0.337  0.8593 -0.2156  0.7351
  830MOL0     H12011   1.624   1.352   0.160 -2.5388  2.1870  0.7826
  830MOL0     H12012   2.032   1.488  -0.185  0.6905  0.9871  2.8861
  830MOL0     H12013   2.165   1.401  -0.371 -1.9878  1.7515 -0.0566
  830MOL0     H12014   2.190   1.104  -0.595 -0.7614 -0.8114  0.7406
  830MOL0     H12015   2.175   1.273  -0.541 -0.0014 -1.0477 -0.7433
  830MOL0     H12016   2.430   1.292  -0.554  1.3574 -1.1658 -1.5514
  830MOL0     H12017   2.444   1.119  -0.586  0.8716  0.5761 -1.1208
  830MOL0     H12018   2.351   1.144  -0.807 -0.0343 -1.7514  0.6650
  830MOL0     H12019   2.284   1.309  -0.760  2.6292  0.0273 -2.7022
  830MOL0     H12020   2.564   1.240  -0.773 -1.7971 -1.7671  3.1899
  830MOL0     H12021   2.491   1.402  -0.733  3.9970  1.2226 -2.0914
  830MOL0     H12022   2.367   1.417  -0.944  0.2854 -1.3461 -3.0263
  830MOL0     H12023   2.415   1.263  -0.991  0.0003 -0.8518 -0.7543
  830MOL0     H12024   2.544   1.425  -1.122  1.9030  0.2107 -0.2993
  830MOL0     H12025   2.588   1.508  -0.973  3.0894 -1.5173  0.4088
  830MOL0     H12026   2.724   1.325  -0.906  1.3127 -2.3944  0.2938
  830MOL0     H12027   2.782   1.382  -1.060  0.5233 -1.8773  1.0506
  830MOL0     H12028   2.605   1.137  -1.027 -0.2435 -0.0260  1.5529
  830MOL0     H12029   2.671   1.186  -1.180  1.9570  0.9678 -0.0783
  830MOL0     H12030   2.220   1.027  -0.166 -1.1015 -1.1135 -1.4451
  830MOL0     H12031   2.143   1.109   0.027 -0.3988 -0.6055 -0.3350
  830MOL0     H12032   2.023   1.436   0.304  0.1487  2.2102 -1.8048
  830MOL0     H12033   1.921   1.540   0.502  0.2894 -2.6362  0.4160
  830MOL0     H12034   2.602   1.069   0.968 -0.3206 -0.1638 -0.4972
  830MOL0     H12035   2.826   1.018   1.032 -1.2511 -1.9432  0.3034
  830MOL0     H12036   3.285   1.167   1.059  2.5652  1.9963  1.8638
  830MOL0     H12037   3.503   1.079   1.088  0.2274 -0.5504 -0.6321
  830MOL0     H12038   3.581   0.743   1.405 -2.0694  1.9550  3.1420
  830MOL0     H12039   3.574   0.905   1.471 -1.8403  0.6693 -0.6902
  830MOL0     H12040   3.805   0.940   1.342  0.1493  0.5671 -1.6186
  830MOL0     H12041   3.793   0.763   1.330  1.7956  0.2116  0.3587
  830MOL0     H12042   3.750   0.756   1.573  0.5162 -1.1706  0.0841
  830MOL0     H12043   3.810   0.925   1.582  0.4204 -1.0564  0.0112
  830MOL0     H12044   4.016   0.781   1.626 -2.5609  0.2417  0.5393
  830MOL0     H12045   3.970   0.685   1.485 -0.2377  0.1840 -1.1884
  830MOL0     H12046   4.203   1.016   1.345  0.0839  0.7306  0.9279
  830MOL0     H12047   3.341   0.838   1.412  0.2683 -0.2256 -0.3483
  830MOL0     H12048   3.115   0.833   1.471 -1.4873  0.5435  2.2138
  830MOL0     H12049   3.098   1.008   1.493 -1.0973  1.5427 -0.8804
  830MOL0     H12050   2.990   0.935   1.378  0.6716  0.1142  0.0011
  831MOL0     O12051   2.749   6.617   9.222 -0.6253  1.0330  0.8652
  831MOL0     C12052   2.742   6.514   9.289 -0.0816 -0.0100 -0.3936
  831MOL0     O12053   2.669   6.499   9.400  0.1360  0.6092 -0.5900
  831MOL0     C12054   2.650   6.617   9.468 -0.6284 -0.5681 -0.2114
  831MOL0     C12055   2.714   6.647   9.590 -0.6389  0.0164  0.8975
  831MOL0     C12056   2.702   6.771   9.655 -0.0508 -0.6706 -0.2216
  831MOL0     C12057   2.607   6.866   9.606  0.0521  0.1148 -0.1274
  831MOL0     O12058   2.579   6.986   9.669  0.3899 -0.6856  1.0498
  831MOL0     C12059   2.692   7.050   9.730  0.6008  0.9222  1.1010
  831MOL0     C12060   2.690   7.198   9.710 -0.3842  0.5607 -0.1163
  831MOL0     C12061   2.732   7.233   9.559 -0.5343  1.4333  0.0409
  831MOL0     C12062   2.738   7.381   9.531  0.1783 -0.2572  0.2518
  831MOL0     C12063   2.595   7.437   9.501 -0.5169 -0.7135 -1.0517
  831MOL0     C12064   2.580   7.588   9.458 -0.8279 -0.3627  0.2714
  831MOL0     C12065   2.427   7.618   9.424 -0.6743 -0.7807  0.1302
  831MOL0     C12066   2.408   7.762   9.374  0.3512 -0.9315  0.4294
  831MOL0     N12067   2.271   7.807   9.368 -0.1549 -0.2841 -0.8540
  831MOL0     C12068   2.182   7.779   9.479  0.2080  0.5772  0.4152
  831MOL0     C12069   2.064   7.809   9.420  0.0966 -0.6621 -0.1902
  831MOL0     C12070   1.928   7.802   9.493  0.0169  0.1557  0.4660
  831MOL0     C12071   1.906   7.911   9.591  0.6551  0.1038  0.2257
  831MOL0     C12072   1.902   8.058   9.537  0.6269  0.2201 -0.2212
  831MOL0     C12073   1.882   8.162   9.654  0.1480  0.7222 -0.3209
  831MOL0     O12074   1.788   8.130   9.752 -0.4890 -0.4356 -0.6217
  831MOL0     C12075   1.706   8.225   9.798  0.1548 -0.5139 -0.7229
  831MOL0     C12076   1.738   8.361   9.809  0.2595  0.4744  0.7599
  831MOL0     C12077   1.651   8.448   9.856 -0.1176  0.4572  0.4987
  831MOL0     C12078   1.518   8.406   9.887  0.3774 -0.5584 -1.0917
  831MOL0     C12079   1.436   8.492   9.984  0.6962  0.2634 -0.2113
  831MOL0     O12080   1.322   8.435  10.034 -0.5992 -0.2069 -0.0244
  831MOL0     C12081   1.265   8.500  10.133 -0.3054 -0.7565  0.0752
  831MOL0     C12082   1.306   8.465  10.268  0.3541  0.3644  0.7600
  831MOL0     C12083   1.247   8.531  10.377  0.3156  0.5265 -0.3671
  831MOL0     C12084   1.148   8.620  10.360 -0.1502 -0.6683 -0.2898
  831MOL0     O12085   1.081   8.678  10.463  0.4189 -0.1866  0.5393
  831MOL0     C12086   1.154   8.751  10.568  1.1619 -0.5230 -0.7325
  831MOL0     C12087   1.258   8.846  10.503 -0.8086  0.3508  0.1474
  831MOL0     C12088   1.325   8.949  10.597 -0.2669  0.1864  0.2004
  831MOL0     C12089   1.387   9.076  10.533  0.2721  0.5967 -0.5504
  831MOL0     C12090   1.522   9.068  10.478 -1.2907  0.6368  0.3093
  831MOL0     C12091   1.549   8.966  10.367  0.0231 -0.8594 -0.5240
  831MOL0     C12092   1.455   8.970  10.248 -0.1698  1.2653  0.5464
  831MOL0     C12093   1.501   8.869  10.148 -0.0069  0.8547 -0.2947
  831MOL0    Cl12094   1.641   8.928  10.048  0.2877 -0.5231  0.1245
  831MOL0     C12095   1.107   8.650  10.234  0.9304 -0.2937  0.3781
  831MOL0     C12096   1.156   8.589  10.116 -0.3392 -0.0933  0.1789
  831MOL0     O12097   1.488   8.594  10.028 -0.4967 -0.1291  0.2868
  831MOL0     C12098   1.481   8.268   9.868  0.2741  0.1235  0.6545
  831MOL0     C12099   1.573   8.182   9.819 -0.4710 -0.1500 -0.0119
  831MOL0     N12100   2.084   7.855   9.293 -0.0925  0.4284  0.0171
  831MOL0     N12101   2.206   7.849   9.259 -0.2498  0.0972 -0.2116
  831MOL0     C12102   2.535   6.827   9.497  0.1254  0.6846 -0.0479
  831MOL0     C12103   2.555   6.715   9.429 -0.4895 -0.2203  0.4166
  831MOL0     C12104   2.802   6.377   9.236 -0.0896  0.4006  0.3960
  831MOL0     C12105   2.750   6.259   9.299  0.0263 -0.6346  0.6026
  831MOL0     C12106   2.797   6.138   9.264  0.2400 -0.1462 -0.3922
  831MOL0     C12107   2.904   6.126   9.179 -0.0293 -0.1911 -0.5854
  831MOL0     O12108   2.968   6.004   9.166 -0.2465 -0.1222  0.2408
  831MOL0     C12109   3.091   5.992   9.071  0.3403  0.3002  0.1530
  831MOL0     C12110   3.122   5.842   9.048 -0.1604  0.4550  0.3583
  831MOL0     C12111   3.014   5.751   8.977 -0.3928  0.9834 -1.3684
  831MOL0     C12112   3.051   5.604   8.934  0.0547  0.5844 -0.2131
  831MOL0     C12113   3.176   5.602   8.858  0.9291 -0.3116  0.5434
  831MOL0     C12114   3.282   5.606   8.796  0.6749  0.7771 -0.9036
  831MOL0     C12115   2.937   6.242   9.107  0.1422 -0.1636 -0.7507
  831MOL0     C12116   2.888   6.362   9.128 -0.0859 -0.5201 -0.8079
  831MOL0     C12117   2.929   6.474   9.030  0.8627 -0.5863  0.0591
  831MOL0     H12118   2.796   6.588   9.631 -0.0075 -0.4879 -1.0069
  831MOL0     H12119   2.752   6.793   9.749 -1.6256  1.2863  0.2078
  831MOL0     H12120   2.681   7.032   9.837  1.9081 -1.2667  0.9410
  831MOL0     H12121   2.788   7.006   9.700 -0.4459 -0.9259  0.2690
  831MOL0     H12122   2.751   7.245   9.788  2.8230 -1.6484 -1.0764
  831MOL0     H12123   2.586   7.229   9.719 -0.9152 -1.1691  0.0482
  831MOL0     H12124   2.668   7.195   9.478 -1.6492 -0.0542  1.5641
  831MOL0     H12125   2.831   7.188   9.561 -1.4225 -0.5962  1.5770
  831MOL0     H12126   2.773   7.445   9.612 -1.5297  0.5275  0.4328
  831MOL0     H12127   2.807   7.394   9.447  0.1095  0.3580  0.2813
  831MOL0     H12128   2.548   7.380   9.420 -0.1260 -0.2021 -1.6489
  831MOL0     H12129   2.554   7.425   9.602  0.9741 -2.7963 -0.6359
  831MOL0     H12130   2.611   7.654   9.539  3.5278 -1.8338  0.0825
  831MOL0     H12131   2.634   7.599   9.363 -1.0737 -1.5070 -0.0159
  831MOL0     H12132   2.377   7.591   9.518  1.4847  0.5680  1.7779
  831MOL0     H12133   2.385   7.554   9.346 -0.7760 -0.6292  0.0612
  831MOL0     H12134   2.463   7.834   9.435  0.3017  1.0189 -1.6694
  831MOL0     H12135   2.441   7.762   9.269 -0.2648 -2.8828  0.1988
  831MOL0     H12136   2.211   7.737   9.576  2.6845  2.0502  0.3844
  831MOL0     H12137   1.859   7.806   9.409  1.0349 -2.8499 -0.6825
  831MOL0     H12138   1.917   7.701   9.535  1.1639  0.4655  1.5758
  831MOL0     H12139   1.813   7.879   9.638 -0.3845  2.6740  0.1178
  831MOL0     H12140   1.988   7.906   9.664  0.3321 -1.6343  0.5059
  831MOL0     H12141   1.817   8.050   9.468  0.3132  2.3405 -0.1366
  831MOL0     H12142   1.983   8.086   9.470 -0.2307  2.8334 -0.2716
  831MOL0     H12143   1.852   8.257   9.610 -1.3936  0.5785  0.3740
  831MOL0     H12144   1.980   8.163   9.702 -1.4280 -1.8516  3.4594
  831MOL0     H12145   1.839   8.396   9.793 -1.6140  6.3905 -0.5268
  831MOL0     H12146   1.693   8.543   9.886 -0.3054  0.3655  1.0467
  831MOL0     H12147   1.379   8.385  10.280  0.9325  0.7375 -0.1314
  831MOL0     H12148   1.287   8.516  10.476 -1.9806 -0.5928  0.4723
  831MOL0     H12149   1.084   8.824  10.611 -0.4070 -1.3602 -1.7550
  831MOL0     H12150   1.188   8.693  10.654  0.8278  2.1051  1.3188
  831MOL0     H12151   1.336   8.782  10.461  0.6948  2.2147 -0.0338
  831MOL0     H12152   1.200   8.887  10.419 -3.1391 -2.0455  0.4450
  831MOL0     H12153   1.244   9.002  10.649  1.4496  1.7405  1.4291
  831MOL0     H12154   1.383   8.903  10.677 -0.2405 -0.5301 -0.2268
  831MOL0     H12155   1.392   9.144  10.619 -0.6124  1.7789 -1.3973
  831MOL0     H12156   1.318   9.116  10.458  0.3663  0.0301 -0.9417
  831MOL0     H12157   1.585   9.042  10.563 -2.7809 -0.5281  1.1188
  831MOL0     H12158   1.557   9.166  10.444 -1.2849  0.5540  0.0696
  831MOL0     H12159   1.650   8.980  10.329 -0.4971  1.6681 -1.1189
  831MOL0     H12160   1.549   8.869  10.419 -0.0573  0.0914  1.3361
  831MOL0     H12161   1.445   9.065  10.194  0.9942  1.0130 -0.1276
  831MOL0     H12162   1.362   8.932  10.292 -0.2864  2.6619  1.5664
  831MOL0     H12163   1.520   8.773  10.198  0.0060  1.1482  0.2796
  831MOL0     H12164   1.420   8.865  10.075 -1.6963  4.7150  1.0913
  831MOL0     H12165   1.034   8.728  10.215 -1.4967 -3.1198 -3.2788
  831MOL0     H12166   1.105   8.600  10.021 -2.9260  1.4645  1.6239
  831MOL0     H12167   1.392   8.216   9.902  2.2092 -3.1917  1.0561
  831MOL0     H12168   1.545   8.077   9.812  0.1923 -0.5124  2.0826
  831MOL0     H12169   2.463   6.906   9.477  0.6373  2.0912  3.0875
  831MOL0     H12170   2.510   6.703   9.331  1.5341  1.3255 -0.7777
  831MOL0     H12171   2.673   6.254   9.376 -0.8718 -1.1144 -0.3080
  831MOL0     H12172   2.757   6.056   9.324  0.7063 -0.4151 -0.4451
  831MOL0     H12173   3.178   6.029   9.125  0.1209 -0.7052  1.2699
  831MOL0     H12174   3.070   6.045   8.978  0.1437 -0.6571 -0.3567
  831MOL0     H12175   3.155   5.798   9.143 -1.0389  1.0770  0.9590
  831MOL0     H12176   3.210   5.837   8.982 -0.0847 -2.4534  0.5215
  831MOL0     H12177   2.978   5.801   8.886 -1.1282 -1.8112 -2.7010
  831MOL0     H12178   2.924   5.759   9.038 -0.7597  0.1652 -1.7844
  831MOL0     H12179   3.065   5.548   9.027  1.6741  1.8503  0.3464
  831MOL0     H12180   2.969   5.562   8.875 -1.5937  2.2308  0.8066
  831MOL0     H12181   3.380   5.601   8.755  0.3768 -0.7524 -1.5055
  831MOL0     H12182   3.008   6.243   9.025  5.0159 -4.0008  2.7783
  831MOL0     H12183   2.997   6.549   9.072 -3.1889  2.3331  2.1507
  831MOL0     H12184   2.968   6.454   8.930 -0.8670  4.1682 -1.9023
  831MOL0     H12185   2.837   6.523   8.995  0.5568 -0.9069  0.4043
  832MOL0     O12186   4.100   5.527  10.637 -0.2054 -0.2688  0.4568
  832MOL0     C12187   4.016   5.505  10.725  0.4452  0.5609  0.0287
  832MOL0     O12188   3.994   5.395  10.803 -0.2127  0.0439  0.0857
  832MOL0     C12189   4.077   5.283  10.769  0.3109 -0.5243 -0.3087
  832MOL0     C12190   4.019   5.189  10.685  0.6814 -0.2184 -0.5092
  832MOL0     C12191   4.086   5.073  10.648 -0.4423  1.0855 -0.1326
  832MOL0     C12192   4.217   5.048  10.688  0.0958  0.3075 -0.1411
  832MOL0     O12193   4.264   4.921  10.649  0.7559 -0.3911  0.3556
  832MOL0     C12194   4.393   4.882  10.697  1.1231 -0.2299 -0.4762
  832MOL0     C12195   4.410   4.739  10.640  0.4467 -0.8276  0.4114
  832MOL0     C12196   4.433   4.752  10.485  0.8582 -0.4030  0.4076
  832MOL0     C12197   4.478   4.618  10.428  0.6657 -0.7099 -0.6208
  832MOL0     C12198   4.536   4.632  10.292 -0.3899 -0.0906  0.3889
  832MOL0     C12199   4.681   4.676  10.284  0.4268 -0.5972  0.4136
  832MOL0     C12200   4.737   4.664  10.138  0.1942  0.3140 -0.0022
  832MOL0     C12201   4.794   4.524  10.088  0.3424 -0.9667  0.2800
  832MOL0     N12202   4.695   4.413  10.092 -0.1391 -0.0041  0.1179
  832MOL0     C12203   4.565   4.417  10.045  0.3174  0.4143  0.4211
  832MOL0     C12204   4.522   4.288  10.059  0.6266  0.6982 -0.7781
  832MOL0     C12205   4.383   4.254  10.042  0.6186  0.2980  0.8721
  832MOL0     C12206   4.354   4.108  10.004 -0.7996  0.2603 -0.7821
  832MOL0     C12207   4.203   4.080  10.020 -0.2047  0.5551  0.1540
  832MOL0     C12208   4.116   4.151   9.918  1.1128  0.3114 -0.2518
  832MOL0     O12209   4.139   4.100   9.789  0.0201  0.0148  0.4819
  832MOL0     C12210   4.053   4.161   9.701  0.1748 -0.6602 -0.1040
  832MOL0     C12211   4.035   4.101   9.579 -1.3759  0.5685  0.6843
  832MOL0     C12212   3.957   4.149   9.482 -0.1185 -0.0625 -0.3402
  832MOL0     C12213   3.901   4.273   9.495  0.8700  0.2548 -0.5975
  832MOL0     C12214   3.810   4.327   9.394  0.6512 -0.7311  0.2730
  832MOL0     O12215   3.752   4.237   9.301 -0.8648 -0.0392  0.7119
  832MOL0     C12216   3.672   4.282   9.205 -0.3723  0.2344  0.3159
  832MOL0     C12217   3.706   4.251   9.074  1.1375  0.1544 -0.1164
  832MOL0     C12218   3.611   4.272   8.973 -1.4187 -0.6704  0.6204
  832MOL0     C12219   3.501   4.357   8.997  0.9974  0.0417  0.3233
  832MOL0     O12220   3.420   4.374   8.885  0.2696 -0.2552 -0.3047
  832MOL0     C12221   3.281   4.393   8.900 -0.6644 -0.0384  0.1556
  832MOL0     C12222   3.201   4.349   8.777 -0.5895 -0.2237 -0.6893
  832MOL0     C12223   3.195   4.203   8.748 -0.0519 -0.4510  0.4694
  832MOL0     C12224   3.148   4.183   8.605 -0.0600  0.1367 -0.3631
  832MOL0     C12225   3.118   4.035   8.568  0.2596 -0.3802  0.1837
  832MOL0     C12226   3.033   4.026   8.441  0.3977  0.5106  0.2884
  832MOL0     C12227   2.974   3.894   8.416 -0.0220  0.4414  0.9620
  832MOL0     C12228   2.890   3.897   8.294  0.6366  0.3741  0.6592
  832MOL0    Cl12229   2.829   3.726   8.258  0.3146 -0.0484  0.5602
  832MOL0     C12230   3.471   4.403   9.131  0.1401  0.3048  0.6161
  832MOL0     C12231   3.555   4.358   9.229 -1.0051  0.8129  0.1393
  832MOL0     O12232   3.792   4.455   9.400 -0.1727  0.6458  0.1344
  832MOL0     C12233   3.913   4.341   9.617  0.4632 -0.4380  0.0985
  832MOL0     C12234   3.989   4.287   9.720  0.5010  0.4659  0.3011
  832MOL0     N12235   4.628   4.213  10.113  0.1493 -0.0793 -0.2799
  832MOL0     N12236   4.731   4.291  10.117 -0.1092  0.1406  0.6779
  832MOL0     C12237   4.276   5.144  10.771  0.4350 -0.4155 -0.7323
  832MOL0     C12238   4.210   5.260  10.814 -0.8077 -0.2564 -0.0630
  832MOL0     C12239   3.937   5.617  10.760 -0.0189 -0.6624 -0.4178
  832MOL0     C12240   3.900   5.712  10.655 -1.8067  0.8690  0.4906
  832MOL0     C12241   3.811   5.813  10.675  0.1663 -0.0090  0.6163
  832MOL0     C12242   3.758   5.839  10.798 -0.9918  0.4591  0.6766
  832MOL0     O12243   3.664   5.935  10.816 -0.4926 -0.2670  0.0095
  832MOL0     C12244   3.528   5.880  10.835  0.7411  0.4308 -0.4375
  832MOL0     C12245   3.447   5.933  10.962 -1.0926 -1.1537 -0.5752
  832MOL0     C12246   3.507   6.063  11.022  1.2885 -0.7246  0.1498
  832MOL0     C12247   3.397   6.162  11.065 -0.1924  0.1501 -1.1398
  832MOL0     C12248   3.330   6.228  10.955  0.6386  0.4148  0.5848
  832MOL0     C12249   3.277   6.295  10.873  0.7473  0.1166  0.1094
  832MOL0     C12250   3.791   5.751  10.902  0.0130  0.2417  0.4919
  832MOL0     C12251   3.884   5.641  10.890 -0.3834 -0.6725  0.5486
  832MOL0     C12252   3.920   5.552  11.012 -0.7845 -0.3948 -0.4438
  832MOL0     H12253   3.922   5.202  10.638  0.4378  0.9090  0.2676
  832MOL0     H12254   4.038   5.000  10.584 -0.4314 -1.1826  2.2756
  832MOL0     H12255   4.467   4.954  10.662  1.5057 -0.7699 -0.7931
  832MOL0     H12256   4.401   4.878  10.806 -1.2187 -5.0927 -0.2058
  832MOL0     H12257   4.332   4.668  10.670  2.3150 -2.3170  2.0472
  832MOL0     H12258   4.494   4.693  10.692  0.5896  0.0146  0.9323
  832MOL0     H12259   4.502   4.833  10.459  0.2273  0.0592  0.1571
  832MOL0     H12260   4.345   4.778  10.424  0.6997 -0.7634  0.4801
  832MOL0     H12261   4.551   4.581  10.501  3.5685  3.9160 -0.7977
  832MOL0     H12262   4.385   4.560  10.429 -2.5959  3.8561  2.7615
  832MOL0     H12263   4.531   4.525  10.271 -3.1428 -0.0463  0.4110
  832MOL0     H12264   4.476   4.686  10.219  2.0201  0.8871 -0.9794
  832MOL0     H12265   4.699   4.780  10.312  1.0196 -0.8159  0.8801
  832MOL0     H12266   4.753   4.618  10.343  1.7885  0.2207 -0.3993
  832MOL0     H12267   4.816   4.741  10.134 -0.6589  1.1845 -0.7200
  832MOL0     H12268   4.661   4.708  10.073  1.6589  1.5052 -1.0082
  832MOL0     H12269   4.820   4.538   9.982 -0.5103  1.5332  0.3504
  832MOL0     H12270   4.872   4.483  10.153 -0.7069 -0.7041  1.7497
  832MOL0     H12271   4.506   4.504  10.017  0.3791  1.1582  2.4900
  832MOL0     H12272   4.319   4.288  10.125  2.2459  4.4513  0.6581
  832MOL0     H12273   4.358   4.306   9.950 -2.2469 -3.1249 -0.5191
  832MOL0     H12274   4.383   4.086   9.901 -2.2385  0.0881 -1.1798
  832MOL0     H12275   4.404   4.029  10.061 -0.6181  2.4417  2.3617
  832MOL0     H12276   4.167   4.111  10.118 -2.2235 -0.9845 -0.0149
  832MOL0     H12277   4.186   3.972  10.007 -1.3295  0.9521 -2.1962
  832MOL0     H12278   4.140   4.257   9.927 -3.5189  1.5087  0.4955
  832MOL0     H12279   4.014   4.125   9.949  0.2970  1.8001 -1.5933
  832MOL0     H12280   4.084   4.004   9.575 -3.7221 -0.6511  0.0377
  832MOL0     H12281   3.945   4.091   9.392  2.2123 -1.7285  0.3536
  832MOL0     H12282   3.798   4.195   9.060  1.9825  1.6540 -0.8041
  832MOL0     H12283   3.617   4.234   8.871 -1.9927  1.5338 -0.2803
  832MOL0     H12284   3.253   4.332   8.986 -2.0110 -1.5284 -1.2772
  832MOL0     H12285   3.252   4.495   8.927 -3.0922 -0.2642 -1.2645
  832MOL0     H12286   3.103   4.389   8.803 -0.9119 -0.8848 -0.8730
  832MOL0     H12287   3.234   4.396   8.684 -0.3109 -0.3033 -0.6331
  832MOL0     H12288   3.295   4.159   8.755 -0.2537 -0.6060  4.2702
  832MOL0     H12289   3.134   4.140   8.814  1.4642 -2.8325 -0.2685
  832MOL0     H12290   3.222   4.210   8.529  0.4116 -1.2353 -0.4200
  832MOL0     H12291   3.060   4.243   8.577 -0.5483 -0.2427  0.3229
  832MOL0     H12292   3.051   3.993   8.644 -2.2813 -2.8382 -3.1442
  832MOL0     H12293   3.210   3.976   8.564  0.0643 -0.9065  2.1192
  832MOL0     H12294   2.950   4.097   8.446 -2.5185 -2.5341 -0.8434
  832MOL0     H12295   3.086   4.056   8.350  0.6266  0.8055  0.5163
  832MOL0     H12296   2.922   3.869   8.509 -0.2136 -0.9511  0.5035
  832MOL0     H12297   3.051   3.818   8.400 -1.0983 -0.2663 -1.2112
  832MOL0     H12298   2.800   3.958   8.313  0.2816  0.2201 -0.4740
  832MOL0     H12299   2.945   3.932   8.206  2.6839 -1.8722  0.9566
  832MOL0     H12300   3.392   4.471   9.161 -0.7690  0.3483 -1.6661
  832MOL0     H12301   3.543   4.368   9.337 -0.0703 -1.7358  0.5457
  832MOL0     H12302   3.860   4.434   9.634 -2.1901 -2.0795  1.4272
  832MOL0     H12303   3.991   4.348   9.810 -2.6930  0.2365  0.6291
  832MOL0     H12304   4.378   5.121  10.801  0.5964 -1.9921 -2.3023
  832MOL0     H12305   4.250   5.336  10.881 -0.0708  0.8260 -1.6770
  832MOL0     H12306   3.937   5.707  10.553 -2.9515  0.3414  0.0869
  832MOL0     H12307   3.773   5.875  10.595 -0.7926  2.1645  2.6155
  832MOL0     H12308   3.532   5.771  10.842 -0.4967  0.4628  1.1579
  832MOL0     H12309   3.476   5.899  10.740  1.4695 -2.7717 -1.5970
  832MOL0     H12310   3.455   5.863  11.046  1.4978 -0.2935  0.0002
  832MOL0     H12311   3.342   5.959  10.946 -1.7249 -1.2494  2.7290
  832MOL0     H12312   3.561   6.122  10.947 -1.5122  1.2981 -0.4921
  832MOL0     H12313   3.577   6.044  11.103 -0.3830  3.5367  2.9689
  832MOL0     H12314   3.316   6.100  11.105 -1.7526  0.7572 -3.1546
  832MOL0     H12315   3.443   6.233  11.134 -0.8797  0.7286 -1.2654
  832MOL0     H12316   3.238   6.345  10.787 -1.5005 -2.7869 -0.7174
  832MOL0     H12317   3.748   5.758  11.002 -0.2604 -1.4641  0.5340
  832MOL0     H12318   3.907   5.614  11.102  1.5172 -1.8976  1.0497
  832MOL0     H12319   3.862   5.460  11.020 -2.6823  0.7890  0.3060
  832MOL0     H12320   4.018   5.504  11.013 -0.6862 -0.2446  1.4139
  833MOL0     O12321   3.044   5.511   0.564 -0.7408  0.3985 -0.2262
  833MOL0     C12322   2.937   5.482   0.515  0.1495  0.1446  0.0228
  833MOL0     O12323   2.852   5.567   0.457  0.3165  0.8491  0.1297
  833MOL0     C12324   2.889   5.704   0.466  0.6652  0.6227  0.0015
  833MOL0     C12325   2.898   5.763   0.589  0.6531 -0.2778 -0.8645
  833MOL0     C12326   2.944   5.898   0.596 -0.3472 -0.1673  0.4116
  833MOL0     C12327   2.971   5.964   0.480 -0.0140  0.0619 -0.1131
  833MOL0     O12328   3.006   6.103   0.498 -0.0946  0.2230 -0.4195
  833MOL0     C12329   2.944   6.207   0.423 -0.3944 -0.0549  0.1776
  833MOL0     C12330   3.056   6.313   0.407 -0.5651  0.2982  0.6746
  833MOL0     C12331   3.001   6.445   0.362 -0.8716  0.1159  0.6618
  833MOL0     C12332   3.056   6.466   0.210 -0.5247  0.7565 -0.4639
  833MOL0     C12333   3.008   6.603   0.144 -0.4329  0.4440 -1.2577
  833MOL0     C12334   2.858   6.618   0.117  0.3429  0.1202 -0.4153
  833MOL0     C12335   2.795   6.485   0.072 -0.0424  0.5944  0.2539
  833MOL0     C12336   2.655   6.506   0.021  0.8076 -0.5511  0.6865
  833MOL0     N12337   2.648   6.458  -0.123 -0.0478  1.0752 -0.3688
  833MOL0     C12338   2.655   6.531  -0.238 -0.1706 -0.1256 -1.0372
  833MOL0     C12339   2.669   6.435  -0.334  0.4839 -0.1558 -0.0541
  833MOL0     C12340   2.675   6.452  -0.478 -0.3404  0.5019  0.3141
  833MOL0     C12341   2.812   6.504  -0.517  0.3321  0.7052 -0.6829
  833MOL0     C12342   2.925   6.401  -0.488 -0.4116 -0.2765 -0.1345
  833MOL0     C12343   3.048   6.456  -0.421 -0.4923 -0.1516 -1.3046
  833MOL0     O12344   3.112   6.565  -0.488  0.4358  0.4121  0.1308
  833MOL0     C12345   3.195   6.649  -0.424 -0.4455  0.9772 -0.0135
  833MOL0     C12346   3.244   6.641  -0.298 -0.1411  0.5536 -0.7783
  833MOL0     C12347   3.318   6.744  -0.236  0.1187 -0.7376 -0.3764
  833MOL0     C12348   3.362   6.848  -0.316 -0.3873 -0.5696  0.0003
  833MOL0     C12349   3.463   6.943  -0.266 -0.2386 -0.3122 -0.5609
  833MOL0     O12350   3.526   6.902  -0.158 -0.1231 -0.3249 -0.0621
  833MOL0     C12351   3.632   6.972  -0.088 -0.4728 -0.2069  0.2978
  833MOL0     C12352   3.666   6.928   0.035  0.8001  0.1449  0.2468
  833MOL0     C12353   3.781   6.970   0.108 -0.3680  0.0341 -0.2418
  833MOL0     C12354   3.868   7.077   0.050  0.3686  0.4991 -1.1675
  833MOL0     O12355   3.976   7.136   0.110 -0.4523 -0.3994 -0.0817
  833MOL0     C12356   4.067   7.036   0.148  0.1541 -0.2701 -0.4376
  833MOL0     C12357   4.195   7.102   0.200 -0.2287 -0.3929 -0.5832
  833MOL0     C12358   4.301   6.996   0.216 -0.1535  1.1173 -0.6542
  833MOL0     C12359   4.448   7.041   0.209  0.0525  0.6417 -0.2782
  833MOL0     C12360   4.485   7.065   0.063 -0.3537  0.0886 -0.0856
  833MOL0     C12361   4.635   7.086   0.041 -0.7007  0.2144  0.5403
  833MOL0     C12362   4.698   6.953   0.036 -0.2781 -0.0686 -0.0446
  833MOL0     C12363   4.682   6.910  -0.115  0.0371  0.5263  0.2827
  833MOL0    Cl12364   4.792   6.766  -0.142  0.4419 -0.3015  0.0520
  833MOL0     C12365   3.831   7.124  -0.077 -0.0694  0.7708 -0.1050
  833MOL0     C12366   3.717   7.072  -0.145 -0.4907  0.2076 -1.2328
  833MOL0     O12367   3.482   7.046  -0.325 -0.1573 -0.3309  0.5707
  833MOL0     C12368   3.320   6.855  -0.451  0.0786 -0.5267  0.4159
  833MOL0     C12369   3.247   6.752  -0.508 -0.4379  1.2557  0.0785
  833MOL0     N12370   2.677   6.308  -0.271  0.4181  0.3441 -0.4046
  833MOL0     N12371   2.663   6.325  -0.146  0.1129  0.5505 -0.1281
  833MOL0     C12372   2.955   5.907   0.359  0.3561  0.1726  0.5152
  833MOL0     C12373   2.909   5.774   0.355  0.6989  1.1142  0.6192
  833MOL0     C12374   2.911   5.335   0.519  0.8152  0.7965 -0.1038
  833MOL0     C12375   2.799   5.284   0.446  0.3179 -0.8624  0.1701
  833MOL0     C12376   2.769   5.146   0.443  0.2434 -0.7575 -0.2438
  833MOL0     C12377   2.847   5.060   0.520  0.1798 -1.0512 -0.3362
  833MOL0     O12378   2.824   4.926   0.520 -0.7946  0.1559  0.4342
  833MOL0     C12379   2.697   4.877   0.472  0.1885  0.2603 -0.3605
  833MOL0     C12380   2.663   4.732   0.508 -0.7602  0.6788 -0.7868
  833MOL0     C12381   2.762   4.630   0.452  0.0937  1.0524 -0.7157
  833MOL0     C12382   2.877   4.613   0.547  1.1851  0.0141  0.1931
  833MOL0     C12383   3.001   4.564   0.483 -0.1836  0.5194  1.0113
  833MOL0     C12384   3.098   4.519   0.430  0.7974 -0.6990  0.5400
  833MOL0     C12385   2.953   5.103   0.591  0.3334 -0.1687  0.6202
  833MOL0     C12386   2.983   5.236   0.598 -0.7664 -0.1409 -0.0070
  833MOL0     C12387   3.108   5.264   0.683  0.1775 -0.4934 -0.3002
  833MOL0     H12388   2.884   5.711   0.683  1.4534 -0.2995 -0.7550
  833MOL0     H12389   2.958   5.945   0.693 -1.8400  1.6330 -0.1977
  833MOL0     H12390   2.916   6.170   0.324  1.4981  0.6087 -0.6529
  833MOL0     H12391   2.858   6.243   0.481  0.7091 -2.2740  3.4921
  833MOL0     H12392   3.139   6.275   0.347  0.2237  1.1726  1.1860
  833MOL0     H12393   3.100   6.345   0.501  2.4347  0.1068 -0.5708
  833MOL0     H12394   3.029   6.532   0.421 -1.3010  2.0977 -1.8640
  833MOL0     H12395   2.892   6.439   0.356 -0.7669 -1.5286 -0.2975
  833MOL0     H12396   3.165   6.463   0.215 -0.4198 -2.0292 -2.1531
  833MOL0     H12397   3.037   6.383   0.141  0.7021 -0.3141  0.4335
  833MOL0     H12398   3.049   6.688   0.200 -0.4391 -1.6226  2.1293
  833MOL0     H12399   3.065   6.612   0.051 -1.6835 -1.6708 -2.2956
  833MOL0     H12400   2.810   6.652   0.209  0.1698  2.3080 -1.2487
  833MOL0     H12401   2.840   6.706   0.054 -0.3134  0.0490 -0.3316
  833MOL0     H12402   2.789   6.410   0.152 -0.1401 -1.3185 -1.4400
  833MOL0     H12403   2.862   6.451  -0.007 -2.0323  1.3133 -1.8653
  833MOL0     H12404   2.597   6.449   0.094  1.8025 -0.6332  1.4390
  833MOL0     H12405   2.634   6.613   0.016  1.3548 -0.3880  1.6786
  833MOL0     H12406   2.627   6.635  -0.243  0.9176  0.4934  2.5693
  833MOL0     H12407   2.648   6.358  -0.528  1.7668 -1.2141  2.1885
  833MOL0     H12408   2.605   6.531  -0.508  2.5929  3.4842  0.6942
  833MOL0     H12409   2.809   6.532  -0.622  1.8722 -0.2814 -1.0192
  833MOL0     H12410   2.838   6.595  -0.462 -2.3464  1.3192 -0.2707
  833MOL0     H12411   2.962   6.381  -0.589 -0.5285  3.6703 -1.1111
  833MOL0     H12412   2.888   6.305  -0.449 -0.1145  0.2912  1.6388
  833MOL0     H12413   3.125   6.379  -0.410  0.9021  1.1093 -1.9013
  833MOL0     H12414   3.017   6.496  -0.324  1.7866 -0.7911 -0.2401
  833MOL0     H12415   3.211   6.560  -0.234  2.4402 -0.5453 -0.7000
  833MOL0     H12416   3.361   6.736  -0.137  1.0562  0.7393 -0.6309
  833MOL0     H12417   3.601   6.855   0.081 -1.8219  1.2591 -1.4100
  833MOL0     H12418   3.804   6.934   0.208  1.9856  3.1888  0.4873
  833MOL0     H12419   4.029   6.969   0.226  2.6008 -0.0145  1.0784
  833MOL0     H12420   4.103   6.984   0.058  0.7383 -1.3356  0.3866
  833MOL0     H12421   4.236   7.181   0.136  2.3541 -1.9537 -0.9917
  833MOL0     H12422   4.172   7.151   0.295  3.4746 -3.1916  2.0306
  833MOL0     H12423   4.283   6.966   0.319 -2.8477  0.3721 -1.2825
  833MOL0     H12424   4.290   6.907   0.153  0.1958  1.1201 -0.7246
  833MOL0     H12425   4.499   6.951   0.244 -0.6917 -0.3164 -1.5621
  833MOL0     H12426   4.474   7.131   0.266  1.3615 -1.3685  2.5306
  833MOL0     H12427   4.437   7.158   0.031  0.8427 -0.0008 -2.3686
  833MOL0     H12428   4.455   6.988  -0.008  0.7889 -1.3152  0.9017
  833MOL0     H12429   4.663   7.150  -0.043 -2.1927 -0.1009 -0.2244
  833MOL0     H12430   4.680   7.131   0.130  2.2608  0.3288 -0.9084
  833MOL0     H12431   4.646   6.882   0.102 -3.6637 -0.3442 -2.7257
  833MOL0     H12432   4.802   6.961   0.069 -0.2406  0.4150 -0.2743
  833MOL0     H12433   4.576   6.883  -0.124  0.7747 -1.7824 -3.1422
  833MOL0     H12434   4.718   6.987  -0.184 -1.9896 -0.5802 -2.1312
  833MOL0     H12435   3.899   7.195  -0.123  1.2161  0.6342  1.4847
  833MOL0     H12436   3.712   7.113  -0.245 -1.8265 -1.2393 -1.7933
  833MOL0     H12437   3.349   6.936  -0.517 -0.9217  2.1765  3.0405
  833MOL0     H12438   3.224   6.770  -0.612 -1.9525  1.0576  0.3501
  833MOL0     H12439   2.966   5.954   0.262 -0.6051 -0.1877  0.2212
  833MOL0     H12440   2.889   5.723   0.262 -0.2928  0.4278  1.1883
  833MOL0     H12441   2.729   5.341   0.384 -2.1621 -2.6290  1.1895
  833MOL0     H12442   2.685   5.096   0.396 -1.1404 -0.8443  2.1618
  833MOL0     H12443   2.693   4.884   0.363 -4.5655  0.2839 -0.3856
  833MOL0     H12444   2.611   4.937   0.505 -0.4811  0.0231 -1.6296
  833MOL0     H12445   2.569   4.714   0.456 -0.0473  0.5475 -2.0653
  833MOL0     H12446   2.654   4.716   0.616  1.4660  0.9476 -0.4994
  833MOL0     H12447   2.800   4.662   0.354  1.5140 -2.0509 -1.2911
  833MOL0     H12448   2.708   4.536   0.435 -0.4094  0.7447  2.1307
  833MOL0     H12449   2.896   4.706   0.603  0.0816  1.3790 -1.6024
  833MOL0     H12450   2.843   4.542   0.623 -2.1618 -0.3927 -1.4890
  833MOL0     H12451   3.188   4.481   0.386  1.1676 -2.6596  2.7684
  833MOL0     H12452   3.005   5.028   0.650 -0.0018 -2.0399 -1.3168
  833MOL0     H12453   3.086   5.330   0.767  4.4825  1.9808 -0.8590
  833MOL0     H12454   3.142   5.176   0.738  2.2047  2.5704  3.8083
  833MOL0     H12455   3.186   5.302   0.617 -1.3287  1.9231 -0.8140
  834MOL0     O12456   4.776   5.654   1.536 -1.3065  0.7754  0.6976
  834MOL0     C12457   4.830   5.666   1.428 -0.6739 -0.0467  0.0701
  834MOL0     O12458   4.826   5.784   1.351 -1.1497  0.2618 -0.0543
  834MOL0     C12459   4.738   5.881   1.402  0.2008  0.4737 -0.0493
  834MOL0     C12460   4.749   5.936   1.531  0.9154 -0.2427 -0.7614
  834MOL0     C12461   4.667   6.049   1.570  0.3105  0.2878  0.9062
  834MOL0     C12462   4.569   6.096   1.480  0.7275  0.1061 -0.7998
  834MOL0     O12463   4.469   6.183   1.517  0.1926  0.1597 -0.1628
  834MOL0     C12464   4.462   6.222   1.658  0.4244  0.5738  0.3466
  834MOL0     C12465   4.334   6.301   1.680  0.3082 -0.3077  1.2230
  834MOL0     C12466   4.328   6.427   1.600 -0.1524 -0.7373 -0.2975
  834MOL0     C12467   4.188   6.473   1.610 -0.7768  0.8467  0.1401
  834MOL0     C12468   4.187   6.626   1.608 -0.2022 -0.4299 -0.6641
  834MOL0     C12469   4.251   6.697   1.486 -0.2875  0.6531 -0.3718
  834MOL0     C12470   4.272   6.846   1.505  1.0925  1.3467  0.2173
  834MOL0     C12471   4.352   6.925   1.411 -0.3529 -0.1341  1.3804
  834MOL0     N12472   4.280   6.981   1.295 -0.6060 -0.1952  0.1826
  834MOL0     C12473   4.247   6.904   1.185  0.6788 -0.5953 -1.1844
  834MOL0     C12474   4.168   6.984   1.108  0.2680  0.3940  0.3328
  834MOL0     C12475   4.104   6.962   0.969 -0.1790  1.8295 -0.0589
  834MOL0     C12476   3.951   7.001   0.977  0.1068 -0.5281 -0.1472
  834MOL0     C12477   3.879   6.945   0.854  0.3874  0.1271  0.8772
  834MOL0     C12478   3.743   7.011   0.837 -0.2127 -0.1042  0.4109
  834MOL0     O12479   3.655   6.981   0.944  1.2248 -0.3259 -0.2030
  834MOL0     C12480   3.536   7.060   0.964  0.4127  0.9988  0.3676
  834MOL0     C12481   3.496   7.175   0.886  0.4974  2.0726  0.3745
  834MOL0     C12482   3.371   7.234   0.906  0.1722 -1.2666  0.2341
  834MOL0     C12483   3.285   7.192   1.006  0.1163  0.3477  0.2472
  834MOL0     C12484   3.144   7.245   1.017  0.5757 -0.1033 -0.5930
  834MOL0     O12485   3.070   7.202   1.125 -0.1091  0.3063  0.5234
  834MOL0     C12486   2.942   7.247   1.148  0.1190 -0.7120  0.2630
  834MOL0     C12487   2.842   7.214   1.059  0.9809 -0.4679 -0.5121
  834MOL0     C12488   2.725   7.283   1.063  0.5279  0.5671 -0.9442
  834MOL0     C12489   2.692   7.361   1.180 -0.2559 -0.3093 -0.5619
  834MOL0     O12490   2.587   7.450   1.173  0.2312  0.4586 -0.9794
  834MOL0     C12491   2.580   7.524   1.054  0.1368  0.3936  0.8018
  834MOL0     C12492   2.474   7.632   1.063 -1.4463  1.3986 -0.1830
  834MOL0     C12493   2.466   7.703   0.933  0.2667 -0.2028  0.7513
  834MOL0     C12494   2.365   7.632   0.831  0.3740 -0.0512  0.7277
  834MOL0     C12495   2.358   7.714   0.703  1.2289 -0.7149  0.4887
  834MOL0     C12496   2.266   7.650   0.594  0.8806 -0.6076 -0.5381
  834MOL0     C12497   2.306   7.682   0.450 -1.1901 -0.3885 -0.4175
  834MOL0     C12498   2.258   7.825   0.395  0.3618 -0.1724  0.4251
  834MOL0    Cl12499   2.078   7.846   0.371  0.4943 -0.1946 -0.0178
  834MOL0     C12500   2.787   7.383   1.280 -0.8257 -0.2608  0.3179
  834MOL0     C12501   2.920   7.333   1.261  0.8606 -0.3301  0.3115
  834MOL0     O12502   3.096   7.311   0.920  0.3480  0.3553  0.0500
  834MOL0     C12503   3.324   7.083   1.079 -0.8010  1.3462  0.0369
  834MOL0     C12504   3.446   7.015   1.065  1.1840 -0.0190  0.4389
  834MOL0     N12505   4.143   7.100   1.177 -0.2636  0.6311  0.2310
  834MOL0     N12506   4.211   7.099   1.287 -0.1921  0.6811 -0.6693
  834MOL0     C12507   4.565   6.040   1.350 -0.1407 -0.9988 -0.5514
  834MOL0     C12508   4.645   5.940   1.314 -0.2166 -0.5059 -0.7355
  834MOL0     C12509   4.926   5.570   1.385 -0.7755 -0.0684 -0.2893
  834MOL0     C12510   5.062   5.607   1.363  0.1309  0.5628  0.2850
  834MOL0     C12511   5.163   5.525   1.331  0.0627 -0.2051  0.6327
  834MOL0     C12512   5.131   5.390   1.318  0.1688  0.2617  0.5651
  834MOL0     O12513   5.226   5.303   1.275  0.6475 -0.6158  0.0173
  834MOL0     C12514   5.295   5.341   1.154 -0.1257 -0.2135 -0.4637
  834MOL0     C12515   5.440   5.350   1.208 -1.3788  0.2256  0.6621
  834MOL0     C12516   5.496   5.213   1.236  0.4971 -0.4349 -0.4519
  834MOL0     C12517   5.646   5.217   1.284  0.6836  0.3927 -1.1552
  834MOL0     C12518   5.726   5.240   1.163  0.0768 -0.7987 -0.2119
  834MOL0     C12519   5.788   5.278   1.066 -0.2879  0.2560  0.8965
  834MOL0     C12520   5.007   5.336   1.347 -0.1381 -1.1013 -0.1579
  834MOL0     C12521   4.906   5.429   1.383 -0.6788 -0.0262  0.8248
  834MOL0     C12522   4.768   5.385   1.400  0.2685  0.5273 -0.4017
  834MOL0     H12523   4.811   5.881   1.601  0.4073 -1.0505 -0.9370
  834MOL0     H12524   4.683   6.085   1.671  0.3748  0.0847  0.9684
  834MOL0     H12525   4.465   6.132   1.720  0.7444 -0.9402 -1.7651
  834MOL0     H12526   4.545   6.290   1.680  0.1696  0.0887  3.0569
  834MOL0     H12527   4.330   6.312   1.789  2.7915 -1.9918  1.5497
  834MOL0     H12528   4.246   6.241   1.654  2.0790 -2.9461  1.0256
  834MOL0     H12529   4.356   6.413   1.495  0.2219  0.1713 -0.3290
  834MOL0     H12530   4.394   6.496   1.653 -0.1703 -1.6653  0.9646
  834MOL0     H12531   4.137   6.424   1.526  2.5982 -1.3814 -0.8189
  834MOL0     H12532   4.136   6.437   1.699 -1.1739  0.9782 -0.0344
  834MOL0     H12533   4.087   6.670   1.620  0.7720  1.4416  1.1986
  834MOL0     H12534   4.238   6.659   1.699 -0.1331 -1.4547 -0.3138
  834MOL0     H12535   4.351   6.652   1.478 -1.3065 -3.0787  3.6720
  834MOL0     H12536   4.196   6.693   1.392 -2.2956  0.5845  0.7530
  834MOL0     H12537   4.329   6.874   1.594  2.3490  2.3559 -0.8665
  834MOL0     H12538   4.174   6.893   1.494  1.5055  2.3118  0.5271
  834MOL0     H12539   4.387   7.016   1.462  1.8736 -0.8154  1.1634
  834MOL0     H12540   4.444   6.872   1.386  0.0186  0.3803  1.6298
  834MOL0     H12541   4.289   6.807   1.163 -0.0900 -0.9297 -1.2203
  834MOL0     H12542   4.147   7.027   0.893  1.1117  0.3989 -0.6076
  834MOL0     H12543   4.123   6.859   0.938 -4.1047  1.1898 -0.8328
  834MOL0     H12544   3.899   6.963   1.065 -1.2057 -0.6192 -0.9325
  834MOL0     H12545   3.931   7.109   0.978 -0.7818 -0.6569  2.4956
  834MOL0     H12546   3.870   6.837   0.869  2.9356  0.0729  2.5649
  834MOL0     H12547   3.939   6.985   0.771 -0.1619  2.9732  1.7466
  834MOL0     H12548   3.700   6.992   0.738 -3.2541  0.8786  1.4610
  834MOL0     H12549   3.759   7.119   0.834 -1.4377  0.0895 -2.7055
  834MOL0     H12550   3.552   7.200   0.796 -0.5764 -0.6647 -1.1887
  834MOL0     H12551   3.349   7.312   0.833 -0.5611 -2.4864 -0.8760
  834MOL0     H12552   2.843   7.143   0.976 -3.2491 -3.2797  1.5200
  834MOL0     H12553   2.649   7.255   0.991  0.1841 -3.9758  0.8387
  834MOL0     H12554   2.676   7.567   1.022  0.7143  1.9315  4.2081
  834MOL0     H12555   2.548   7.459   0.972  1.2458  2.0399 -1.0159
  834MOL0     H12556   2.376   7.602   1.101 -0.1378 -0.7939  1.7506
  834MOL0     H12557   2.515   7.706   1.133 -0.3229  0.5908  0.0453
  834MOL0     H12558   2.437   7.808   0.944  1.1128 -0.0210  1.3197
  834MOL0     H12559   2.564   7.713   0.886 -0.9757  1.7127 -1.6491
  834MOL0     H12560   2.271   7.610   0.882 -0.0405  0.1660  0.0710
  834MOL0     H12561   2.394   7.530   0.803 -1.1409 -0.7242  1.5219
  834MOL0     H12562   2.452   7.729   0.648  0.0629 -0.0550 -1.4588
  834MOL0     H12563   2.323   7.815   0.727  0.9343 -0.5420 -0.5800
  834MOL0     H12564   2.258   7.542   0.609 -1.4952 -0.4523 -0.3589
  834MOL0     H12565   2.163   7.683   0.610  1.8916  3.0702 -0.7600
  834MOL0     H12566   2.267   7.609   0.378 -0.9089  1.0555 -2.1031
  834MOL0     H12567   2.415   7.689   0.460 -1.4215  0.6053  2.1589
  834MOL0     H12568   2.288   7.909   0.458  1.4871  1.0817 -1.6454
  834MOL0     H12569   2.306   7.854   0.301  0.5091 -1.2770  0.1447
  834MOL0     H12570   2.778   7.456   1.359 -0.7593  0.3334 -0.2148
  834MOL0     H12571   2.995   7.359   1.334  0.2505 -1.8931  1.5657
  834MOL0     H12572   3.254   7.052   1.157  0.8461  0.1499  1.1003
  834MOL0     H12573   3.462   6.917   1.110 -4.7486 -0.9962  1.3315
  834MOL0     H12574   4.496   6.080   1.276  0.5178 -0.0384 -0.6640
  834MOL0     H12575   4.647   5.913   1.209  0.5974 -2.2803 -0.3113
  834MOL0     H12576   5.084   5.713   1.376 -1.8837  0.9549  0.8663
  834MOL0     H12577   5.263   5.563   1.312  1.0186 -2.9927 -0.3150
  834MOL0     H12578   5.262   5.437   1.113 -0.5763  0.5922  1.6409
  834MOL0     H12579   5.280   5.258   1.085  0.0270  0.8912 -1.8624
  834MOL0     H12580   5.453   5.414   1.295 -0.5111 -1.2887  1.6979
  834MOL0     H12581   5.505   5.401   1.137  1.9491 -1.9323  1.9001
  834MOL0     H12582   5.510   5.153   1.146  2.8925 -1.9786  0.8237
  834MOL0     H12583   5.433   5.160   1.308 -0.1664  1.0008  0.0587
  834MOL0     H12584   5.652   5.297   1.358  0.9239 -3.0296  2.8453
  834MOL0     H12585   5.672   5.127   1.339 -1.5763  0.4577  0.1424
  834MOL0     H12586   5.841   5.305   0.977 -1.0426  0.7122  0.5787
  834MOL0     H12587   4.997   5.229   1.334  3.4378 -1.5184 -0.6550
  834MOL0     H12588   4.701   5.458   1.354  0.5773  0.7412 -0.5168
  834MOL0     H12589   4.758   5.284   1.358 -1.1318  0.8547 -0.9285
  834MOL0     H12590   4.755   5.380   1.508 -1.7588 -0.5344 -0.6381
  835MOL0     O12591   5.872   1.329  10.271  0.0783 -0.1367 -0.6665
  835MOL0     C12592   5.781   1.250  10.245  0.5981  0.6023 -0.3724
  835MOL0     O12593   5.763   1.180  10.129 -0.2125  0.5464  0.1886
  835MOL0     C12594   5.857   1.198  10.034 -1.4071  0.2473  1.3469
  835MOL0     C12595   5.985   1.153  10.046  0.1372  0.5116 -0.3482
  835MOL0     C12596   6.070   1.132   9.939  0.4611  1.2580 -0.1566
  835MOL0     C12597   6.022   1.163   9.808 -0.3701  0.3875 -0.9337
  835MOL0     O12598   6.111   1.144   9.714 -0.7128  0.3110 -0.2394
  835MOL0     C12599   6.072   1.130   9.580  0.7873 -0.5846 -0.3050
  835MOL0     C12600   6.185   1.129   9.490  0.1126  0.1518  0.3002
  835MOL0     C12601   6.249   0.991   9.501 -0.7590 -0.4714 -0.6475
  835MOL0     C12602   6.347   0.982   9.381 -0.3178  0.4743  0.0658
  835MOL0     C12603   6.453   0.879   9.404  0.8856 -0.2706  0.3835
  835MOL0     C12604   6.565   0.914   9.306  0.6562  0.8143 -0.6232
  835MOL0     C12605   6.650   0.788   9.287  0.4137 -0.5412 -1.1109
  835MOL0     C12606   6.742   0.805   9.172  0.0878  0.4129  0.3015
  835MOL0     N12607   6.826   0.925   9.182 -0.9955  0.2420 -0.0516
  835MOL0     C12608   6.955   0.938   9.228  0.6612  0.9123  0.2943
  835MOL0     C12609   6.989   1.064   9.188  1.2312 -1.1006 -1.0160
  835MOL0     C12610   7.108   1.125   9.243 -0.1816 -0.1244  0.4782
  835MOL0     C12611   7.219   1.103   9.141 -0.1790 -0.0712  0.9348
  835MOL0     C12612   7.357   1.128   9.193  0.1233 -0.5881 -0.3530
  835MOL0     C12613   7.392   1.278   9.210 -0.6314  0.1433 -0.7619
  835MOL0     O12614   7.508   1.281   9.287  0.3058 -0.3000  0.4152
  835MOL0     C12615   7.620   1.347   9.234 -0.9000  0.2424  0.3916
  835MOL0     C12616   7.728   1.379   9.318  0.1658 -0.2664 -0.7000
  835MOL0     C12617   7.830   1.460   9.291 -0.4490 -0.3919  0.3798
  835MOL0     C12618   7.832   1.522   9.167  0.3772  0.1905  0.2282
  835MOL0     C12619   7.941   1.611   9.118  0.2043 -0.0614  0.6224
  835MOL0     O12620   8.052   1.629   9.197 -0.0651  0.2702  0.1571
  835MOL0     C12621   8.171   1.687   9.157 -0.2605 -0.5480 -0.7575
  835MOL0     C12622   8.167   1.822   9.110 -0.0206 -0.8996 -0.6186
  835MOL0     C12623   8.287   1.887   9.080  0.1040 -0.6004  0.3514
  835MOL0     C12624   8.406   1.826   9.105  0.6105  0.1759  0.1666
  835MOL0     O12625   8.523   1.887   9.072 -0.7867 -0.2828  0.0302
  835MOL0     C12626   8.588   1.816   8.957  0.7610  0.1822 -0.1491
  835MOL0     C12627   8.731   1.857   8.937 -0.7657  0.2743  0.3990
  835MOL0     C12628   8.753   1.986   8.846  0.0560  1.3472 -0.3603
  835MOL0     C12629   8.890   2.057   8.873 -0.1847  0.2309 -0.9803
  835MOL0     C12630   8.873   2.205   8.814 -0.4357  0.0570  0.1813
  835MOL0     C12631   8.965   2.311   8.864 -0.6646  2.3758 -0.7052
  835MOL0     C12632   8.909   2.369   8.992 -1.0371  0.0499  0.9848
  835MOL0     C12633   9.005   2.476   9.041  0.3397  0.1278  0.5392
  835MOL0    Cl12634   9.057   2.602   8.922 -0.3252  0.1289 -0.4967
  835MOL0     C12635   8.410   1.705   9.171 -0.0757  0.5203  0.7740
  835MOL0     C12636   8.291   1.631   9.193 -0.7376  0.0213  0.0438
  835MOL0     O12637   7.935   1.659   9.005  0.1997  0.1781  0.0123
  835MOL0     C12638   7.734   1.484   9.069  0.6739 -0.3820  0.5490
  835MOL0     C12639   7.632   1.388   9.100  0.6531 -0.4324  0.8537
  835MOL0     N12640   6.885   1.121   9.117  0.0290  0.2845  0.0902
  835MOL0     N12641   6.785   1.043   9.126 -0.3786  0.5225  0.5759
  835MOL0     C12642   5.892   1.209   9.795 -0.5674 -0.4443 -0.9968
  835MOL0     C12643   5.811   1.226   9.902  0.5240  0.4993  0.2016
  835MOL0     C12644   5.679   1.200  10.345 -0.3618  0.3395 -0.0961
  835MOL0     C12645   5.657   1.062  10.375  0.2105  0.0453 -0.2744
  835MOL0     C12646   5.579   1.028  10.485 -0.1477  0.1780 -0.3653
  835MOL0     C12647   5.512   1.122  10.565  0.3942  0.6128  1.1347
  835MOL0     O12648   5.420   1.074  10.659  0.2015 -0.2949  0.4231
  835MOL0     C12649   5.388   1.164  10.763 -0.1752 -0.6724  0.3324
  835MOL0     C12650   5.308   1.083  10.867  0.7341  0.1435 -0.3289
  835MOL0     C12651   5.382   0.955  10.906  0.3618 -0.1209 -0.3947
  835MOL0     C12652   5.323   0.883  11.021 -0.2673 -0.4584 -1.1962
  835MOL0     C12653   5.175   0.868  11.014  0.8185 -0.2537  0.3741
  835MOL0     C12654   5.058   0.843  11.005  0.8158  0.8732 -0.7019
  835MOL0     C12655   5.536   1.250  10.545  0.2901 -0.0356 -0.0897
  835MOL0     C12656   5.626   1.294  10.446 -0.2561 -0.5500 -0.6054
  835MOL0     C12657   5.677   1.436  10.465 -0.2011  0.0712 -0.0786
  835MOL0     H12658   6.006   1.140  10.152  0.1193 -0.2703 -0.4359
  835MOL0     H12659   6.173   1.099   9.951 -0.3137 -2.1394 -1.4919
  835MOL0     H12660   6.017   1.039   9.557  0.7057 -0.6930  0.3019
  835MOL0     H12661   6.011   1.217   9.553  2.4523  1.1188  1.1226
  835MOL0     H12662   6.244   1.214   9.524 -3.1427  4.0619 -2.7573
  835MOL0     H12663   6.163   1.144   9.384 -0.3117 -2.2852 -0.0039
  835MOL0     H12664   6.172   0.916   9.485  0.5722 -1.7928 -1.0992
  835MOL0     H12665   6.300   0.993   9.598  0.3719  3.4399 -1.1586
  835MOL0     H12666   6.291   0.963   9.290  0.5802  2.6434 -0.9969
  835MOL0     H12667   6.396   1.080   9.374  3.0641 -1.0351  0.5171
  835MOL0     H12668   6.492   0.889   9.506  0.2796  4.5633  0.3804
  835MOL0     H12669   6.423   0.776   9.382 -0.4093  0.4058 -1.1774
  835MOL0     H12670   6.520   0.950   9.213  2.2502 -1.3543 -2.3524
  835MOL0     H12671   6.624   0.996   9.347 -1.1676  1.9414 -0.1298
  835MOL0     H12672   6.588   0.700   9.267 -1.6855  0.6017  0.0141
  835MOL0     H12673   6.706   0.770   9.379 -1.4926  0.0620  0.2412
  835MOL0     H12674   6.815   0.726   9.193  1.8203  2.5658  3.0448
  835MOL0     H12675   6.693   0.809   9.074 -0.9877  1.3522  0.8523
  835MOL0     H12676   7.016   0.877   9.295 -3.5235 -0.2049  3.5270
  835MOL0     H12677   7.084   1.231   9.253 -2.9210 -0.1360 -3.5005
  835MOL0     H12678   7.117   1.082   9.343 -3.9164  2.2377  2.0519
  835MOL0     H12679   7.214   0.998   9.109 -2.6562  0.2845 -0.1020
  835MOL0     H12680   7.208   1.156   9.046  1.3966  1.8651  1.7600
  835MOL0     H12681   7.436   1.076   9.137  2.5931 -0.3742  2.6322
  835MOL0     H12682   7.356   1.081   9.292  1.9702  1.9610  0.9736
  835MOL0     H12683   7.317   1.327   9.272 -0.6733  0.5115 -1.1009
  835MOL0     H12684   7.382   1.333   9.117 -1.4140  0.6377 -0.3910
  835MOL0     H12685   7.718   1.343   9.419 -4.4611  2.8783  0.2745
  835MOL0     H12686   7.903   1.483   9.369  0.4831  0.5511 -0.7252
  835MOL0     H12687   8.077   1.883   9.109  1.8681  2.0653 -1.1213
  835MOL0     H12688   8.293   1.990   9.044  3.6322 -1.6787 -2.7831
  835MOL0     H12689   8.595   1.707   8.964 -2.2250 -0.4010 -3.3137
  835MOL0     H12690   8.524   1.834   8.871 -0.3775 -0.3477  0.5589
  835MOL0     H12691   8.782   1.887   9.030 -0.7237  0.8207  0.2061
  835MOL0     H12692   8.788   1.772   8.897 -1.4148 -0.1109  0.2864
  835MOL0     H12693   8.748   1.964   8.739  2.3905  0.2116 -0.3009
  835MOL0     H12694   8.669   2.048   8.877 -0.1254 -0.5375  3.6592
  835MOL0     H12695   8.970   1.997   8.829  2.2243  2.4199  0.1745
  835MOL0     H12696   8.908   2.068   8.981 -1.9735 -2.2877 -0.3161
  835MOL0     H12697   8.769   2.235   8.830 -0.4547 -1.0019  2.5300
  835MOL0     H12698   8.891   2.195   8.707 -0.7822 -2.9313  0.3286
  835MOL0     H12699   9.069   2.287   8.884 -1.8698 -1.4723  2.2501
  835MOL0     H12700   8.964   2.376   8.776  1.8653  0.5546 -2.1783
  835MOL0     H12701   8.902   2.295   9.072  3.0550 -0.5901  0.9805
  835MOL0     H12702   8.807   2.406   8.979 -2.1647 -3.2969 -1.2882
  835MOL0     H12703   8.958   2.529   9.125  2.7986  0.8990  1.5418
  835MOL0     H12704   9.094   2.427   9.081  1.0351  0.6006 -0.3886
  835MOL0     H12705   8.505   1.656   9.189 -1.1654 -2.4614 -0.8382
  835MOL0     H12706   8.287   1.533   9.239  1.4015 -0.9068 -1.5592
  835MOL0     H12707   7.754   1.535   8.975  0.8450 -0.1773  0.6941
  835MOL0     H12708   7.564   1.359   9.021 -0.5191  1.6690  1.0229
  835MOL0     H12709   5.849   1.243   9.701 -0.7786 -1.3539 -1.2449
  835MOL0     H12710   5.710   1.260   9.886  1.1936  3.1153  0.9872
  835MOL0     H12711   5.708   0.990  10.312  0.0208 -0.9559  0.6848
  835MOL0     H12712   5.575   0.921  10.497  4.6249 -0.1819 -0.3547
  835MOL0     H12713   5.328   1.248  10.727 -0.5017 -0.0901  2.1454
  835MOL0     H12714   5.471   1.215  10.812  0.7508  0.4698 -2.2264
  835MOL0     H12715   5.207   1.069  10.828  0.1570 -2.6090  1.8819
  835MOL0     H12716   5.307   1.150  10.953 -2.9455  0.1259 -0.1963
  835MOL0     H12717   5.489   0.965  10.924  0.5414 -1.7467 -0.4071
  835MOL0     H12718   5.393   0.882  10.825 -0.8905  1.2954 -1.9129
  835MOL0     H12719   5.369   0.784  11.033  2.1609  0.8392  1.5347
  835MOL0     H12720   5.353   0.932  11.114  4.5145  0.7694 -3.0908
  835MOL0     H12721   4.956   0.819  10.987  0.6605 -1.9912  2.9070
  835MOL0     H12722   5.489   1.328  10.605  2.5098  1.0884  0.3147
  835MOL0     H12723   5.694   1.496  10.374 -2.7862 -1.1928 -1.5246
  835MOL0     H12724   5.601   1.505  10.504  0.0231  0.2050  0.1293
  835MOL0     H12725   5.760   1.449  10.534  0.9375 -4.7828 -0.1913
  836MOL0     O12726   6.754   6.463   0.982  0.0695 -0.6680  0.4841
  836MOL0     C12727   6.794   6.357   1.039  0.3380 -0.7272  0.0153
  836MOL0     O12728   6.910   6.300   1.035 -0.2544  0.2172 -0.0213
  836MOL0     C12729   7.011   6.333   0.950  0.3108  0.4221  0.8403
  836MOL0     C12730   6.989   6.399   0.818  0.3552  0.7393  0.4164
  836MOL0     C12731   7.101   6.452   0.749 -0.8667 -0.3732 -0.1524
  836MOL0     C12732   7.231   6.431   0.797 -0.3157 -0.1015  0.2505
  836MOL0     O12733   7.336   6.481   0.719  0.5121 -0.6614  0.2614
  836MOL0     C12734   7.419   6.557   0.801 -1.0950 -0.6765 -0.1808
  836MOL0     C12735   7.496   6.665   0.718  0.0658  0.4363  0.2794
  836MOL0     C12736   7.631   6.683   0.773 -0.0135 -0.2347 -0.3693
  836MOL0     C12737   7.712   6.763   0.671  0.1762 -0.5068 -0.6741
  836MOL0     C12738   7.848   6.810   0.717 -0.9917  0.4933 -0.2023
  836MOL0     C12739   7.843   6.940   0.809  0.0682 -0.2270  0.0063
  836MOL0     C12740   7.982   6.993   0.805  0.1708 -0.0363  0.4787
  836MOL0     C12741   8.010   7.095   0.918 -1.3734  0.7254 -0.4792
  836MOL0     N12742   7.982   7.038   1.053  0.2939  0.3225 -0.0165
  836MOL0     C12743   8.060   6.962   1.135  0.2091 -0.7098  0.5303
  836MOL0     C12744   7.979   6.925   1.244  0.0497 -0.4461  1.2383
  836MOL0     C12745   8.048   6.841   1.355  0.8689 -0.1454  0.1499
  836MOL0     C12746   7.935   6.812   1.460 -0.2815 -0.2315  0.6003
  836MOL0     C12747   7.951   6.698   1.561 -0.3290  0.5600 -0.0964
  836MOL0     C12748   8.009   6.571   1.497 -0.5137  0.9484  0.3784
  836MOL0     O12749   8.153   6.579   1.483  0.3816  0.8095  0.4138
  836MOL0     C12750   8.210   6.487   1.400  0.5073  0.1831  0.0859
  836MOL0     C12751   8.138   6.396   1.308 -0.3846  0.3225  0.2053
  836MOL0     C12752   8.205   6.294   1.245 -1.0159  0.6881  0.0469
  836MOL0     C12753   8.354   6.291   1.238 -0.2197  0.0663  0.5027
  836MOL0     C12754   8.425   6.184   1.149  1.0598  0.0361 -0.3409
  836MOL0     O12755   8.331   6.121   1.072 -0.3466  0.7941  0.5712
  836MOL0     C12756   8.378   6.019   0.988  0.2425 -0.2738  0.6597
  836MOL0     C12757   8.443   5.910   1.043  0.0835 -0.6991 -0.2468
  836MOL0     C12758   8.498   5.820   0.952 -0.5085  0.6318  0.5019
  836MOL0     C12759   8.499   5.830   0.817 -0.7439 -0.4256 -0.2596
  836MOL0     O12760   8.550   5.734   0.734  0.3051  0.1979 -1.0317
  836MOL0     C12761   8.456   5.646   0.678  0.1270 -0.2454 -0.0452
  836MOL0     C12762   8.537   5.533   0.606  0.0481 -1.0566 -0.5367
  836MOL0     C12763   8.606   5.589   0.483 -0.0677  0.4344  0.1156
  836MOL0     C12764   8.661   5.479   0.383 -0.6026  0.1479 -0.5078
  836MOL0     C12765   8.757   5.539   0.281 -0.4186 -0.2049  0.2121
  836MOL0     C12766   8.767   5.444   0.159  0.1664  0.3938  0.1711
  836MOL0     C12767   8.899   5.471   0.081  1.1259 -0.5629  0.3346
  836MOL0     C12768   8.889   5.377  -0.048 -1.3442 -0.8367 -0.1150
  836MOL0    Cl12769   9.022   5.415  -0.165  0.2623 -0.3770 -0.0380
  836MOL0     C12770   8.440   5.951   0.768  1.0690  0.3402 -0.2647
  836MOL0     C12771   8.368   6.035   0.853  0.2302 -0.9151  0.3665
  836MOL0     O12772   8.547   6.180   1.150 -0.0504 -0.4904 -0.0178
  836MOL0     C12773   8.425   6.394   1.311 -0.2942  0.1743 -0.3283
  836MOL0     C12774   8.346   6.481   1.393 -0.9198  0.3636 -0.1753
  836MOL0     N12775   7.857   6.989   1.231 -0.5127 -0.7711  0.1768
  836MOL0     N12776   7.866   7.054   1.122  0.6418 -0.1614 -0.2885
  836MOL0     C12777   7.253   6.362   0.913  0.9172 -0.9779 -0.2024
  836MOL0     C12778   7.141   6.312   0.984 -0.9222 -0.4553 -0.4425
  836MOL0     C12779   6.700   6.283   1.122  0.2183 -0.2616 -1.6233
  836MOL0     C12780   6.727   6.274   1.258  0.4882  0.5306 -0.3174
  836MOL0     C12781   6.641   6.211   1.342 -1.1970  0.0526 -0.1009
  836MOL0     C12782   6.530   6.145   1.300  0.3200 -0.2747  0.6665
  836MOL0     O12783   6.443   6.071   1.377 -0.3320 -0.3374 -0.0641
  836MOL0     C12784   6.448   6.072   1.517  0.9665 -0.3941 -0.1826
  836MOL0     C12785   6.341   6.162   1.583 -0.4454  0.1186 -0.4519
  836MOL0     C12786   6.353   6.180   1.739  0.3250  0.5724  0.3645
  836MOL0     C12787   6.498   6.166   1.784  1.4848 -0.1709 -0.7384
  836MOL0     C12788   6.503   6.234   1.914  0.5743 -0.1436 -0.9559
  836MOL0     C12789   6.536   6.264   2.024  1.5689  0.3153 -0.7189
  836MOL0     C12790   6.493   6.145   1.165  0.0425 -0.9780  0.2889
  836MOL0     C12791   6.583   6.211   1.077  0.8292 -0.4316 -0.0316
  836MOL0     C12792   6.556   6.208   0.931  0.3780 -1.3560  0.7067
  836MOL0     H12793   6.887   6.407   0.782  0.1544 -1.2580  0.4070
  836MOL0     H12794   7.092   6.524   0.669 -0.4560  0.4432  0.5246
  836MOL0     H12795   7.374   6.609   0.887  3.4950 -0.4058  2.4039
  836MOL0     H12796   7.489   6.482   0.838 -1.1151 -0.5703  0.0734
  836MOL0     H12797   7.436   6.756   0.729 -1.2930 -0.2948 -0.7593
  836MOL0     H12798   7.511   6.643   0.612  0.4842  2.1753 -0.0541
  836MOL0     H12799   7.681   6.588   0.796 -3.0588 -1.4510  1.9206
  836MOL0     H12800   7.624   6.742   0.865 -0.7609  1.1834 -1.3179
  836MOL0     H12801   7.730   6.714   0.575 -2.3563  3.3858 -3.4409
  836MOL0     H12802   7.653   6.849   0.640 -3.9263 -2.2937  1.2838
  836MOL0     H12803   7.895   6.731   0.776  0.4357  1.3230 -0.1966
  836MOL0     H12804   7.905   6.834   0.627  2.4434 -0.8496  1.4337
  836MOL0     H12805   7.770   7.010   0.768 -1.3370 -0.0764  2.5882
  836MOL0     H12806   7.801   6.924   0.909 -0.2371  2.4059  0.3658
  836MOL0     H12807   8.003   7.047   0.713  0.5774  2.5928  2.0112
  836MOL0     H12808   8.047   6.906   0.807  0.6770  0.3401  0.4587
  836MOL0     H12809   8.120   7.099   0.913 -0.9241  0.0907  4.1451
  836MOL0     H12810   7.959   7.191   0.906  0.4841  1.8455  0.0750
  836MOL0     H12811   8.165   6.937   1.131 -0.0369 -1.8864  0.8384
  836MOL0     H12812   8.086   6.747   1.314  1.7504  0.6811 -1.0047
  836MOL0     H12813   8.132   6.904   1.384  1.3841 -0.9574  0.4487
  836MOL0     H12814   7.916   6.906   1.512  2.7272  1.3869 -0.9447
  836MOL0     H12815   7.850   6.786   1.396 -0.5049 -0.4114  0.9695
  836MOL0     H12816   7.857   6.671   1.610  0.3272 -1.8182 -0.0514
  836MOL0     H12817   8.015   6.731   1.644 -2.5145  0.7036  1.6263
  836MOL0     H12818   7.941   6.565   1.411 -4.2631  0.4389  3.1182
  836MOL0     H12819   7.990   6.482   1.557 -2.8815 -0.1634 -1.8034
  836MOL0     H12820   8.030   6.402   1.295 -0.4160 -0.4452  0.0859
  836MOL0     H12821   8.145   6.228   1.184 -0.1242 -0.7643  0.6956
  836MOL0     H12822   8.455   5.902   1.150 -0.4661 -1.0995 -0.2125
  836MOL0     H12823   8.566   5.744   0.987  0.8880 -0.6676 -4.3716
  836MOL0     H12824   8.378   5.609   0.744 -0.4467 -1.4631 -1.3685
  836MOL0     H12825   8.404   5.705   0.602 -2.0380 -2.4286 -0.3600
  836MOL0     H12826   8.611   5.489   0.673  2.0382  1.5268 -0.8545
  836MOL0     H12827   8.465   5.460   0.569 -4.3697  1.4706  2.1079
  836MOL0     H12828   8.537   5.648   0.423 -1.3908 -0.0569  1.1059
  836MOL0     H12829   8.695   5.649   0.506 -0.7627  2.0382 -1.2701
  836MOL0     H12830   8.571   5.449   0.330 -2.2068  1.0950  1.5188
  836MOL0     H12831   8.712   5.400   0.440 -0.2993 -0.5939 -1.7787
  836MOL0     H12832   8.854   5.536   0.331 -0.0321  0.4877 -0.4685
  836MOL0     H12833   8.721   5.635   0.243 -2.3773 -1.6183 -1.8245
  836MOL0     H12834   8.782   5.339   0.189  2.1211 -0.1717 -2.4165
  836MOL0     H12835   8.682   5.453   0.090 -0.5783 -1.5865  0.7516
  836MOL0     H12836   8.984   5.437   0.141  0.9983 -0.4007  0.6073
  836MOL0     H12837   8.904   5.578   0.059 -0.3108 -0.5755 -0.1355
  836MOL0     H12838   8.904   5.274  -0.014 -2.5779 -0.6913  0.9588
  836MOL0     H12839   8.789   5.382  -0.091 -1.0157 -3.1882 -1.2975
  836MOL0     H12840   8.434   5.976   0.663  0.9072  2.5149  0.2132
  836MOL0     H12841   8.320   6.123   0.810  0.7658 -1.3624 -1.2208
  836MOL0     H12842   8.533   6.406   1.318  0.1633 -2.5752 -1.4137
  836MOL0     H12843   8.408   6.550   1.449 -1.6316  0.3314  0.6811
  836MOL0     H12844   7.354   6.348   0.950  1.6909  3.1539 -0.3077
  836MOL0     H12845   7.162   6.254   1.074  1.0935 -0.4577 -0.8682
  836MOL0     H12846   6.823   6.307   1.298  0.2420 -2.2078  2.9710
  836MOL0     H12847   6.692   6.204   1.438  3.2016  0.9785 -2.1172
  836MOL0     H12848   6.548   6.098   1.553 -0.0278  3.8571  0.0309
  836MOL0     H12849   6.422   5.970   1.549 -1.7286 -0.3614 -1.8991
  836MOL0     H12850   6.240   6.128   1.560 -0.2119 -0.5350 -0.5302
  836MOL0     H12851   6.356   6.258   1.534 -0.0952 -0.0373 -0.6461
  836MOL0     H12852   6.294   6.109   1.798  2.5516  0.1237  2.2133
  836MOL0     H12853   6.328   6.285   1.759  1.5055  0.7396  1.0845
  836MOL0     H12854   6.519   6.059   1.799 -3.2382 -1.1309  0.6173
  836MOL0     H12855   6.556   6.218   1.708 -1.2051  1.6694 -1.6532
  836MOL0     H12856   6.567   6.286   2.124  0.0184 -1.0566  0.1133
  836MOL0     H12857   6.411   6.088   1.122 -0.8051  0.7681 -0.4945
  836MOL0     H12858   6.505   6.113   0.914  2.4789 -2.4585  0.0856
  836MOL0     H12859   6.503   6.296   0.894 -0.0657 -2.0802 -0.4448
  836MOL0     H12860   6.648   6.196   0.872 -0.1998 -2.8198  0.0393
  837MOL0     O12861  11.050   7.598   3.617 -0.5282  0.4194 -0.6902
  837MOL0     C12862  10.949   7.664   3.613  0.6705 -0.2389 -1.0360
  837MOL0     O12863  10.822   7.623   3.563 -0.0357 -0.2327 -0.4411
  837MOL0     C12864  10.808   7.494   3.538  0.2904 -0.0018  0.3737
  837MOL0     C12865  10.731   7.419   3.621  0.6008  0.1301  0.4282
  837MOL0     C12866  10.727   7.287   3.593 -0.5565  0.9063 -0.3739
  837MOL0     C12867  10.783   7.223   3.482 -0.1697  1.1179 -0.6445
  837MOL0     O12868  10.796   7.089   3.469 -0.1434 -0.3048 -0.5681
  837MOL0     C12869  10.689   7.012   3.504 -0.4388 -0.0452  0.0543
  837MOL0     C12870  10.739   6.866   3.506 -0.3837  0.0138  0.4579
  837MOL0     C12871  10.816   6.815   3.373  0.1180 -0.2220 -0.7680
  837MOL0     C12872  10.726   6.814   3.244 -0.5394 -0.4684 -0.1897
  837MOL0     C12873  10.808   6.773   3.122 -0.0343 -0.3139  0.3923
  837MOL0     C12874  10.729   6.792   2.996  0.4586 -0.8011  0.0086
  837MOL0     C12875  10.838   6.773   2.882  0.5680 -0.4827 -0.4830
  837MOL0     C12876  10.937   6.647   2.888 -1.0427 -0.1131  0.0888
  837MOL0     N12877  11.001   6.640   2.754 -0.2368 -0.0756  0.4590
  837MOL0     C12878  10.930   6.623   2.635 -0.7793 -0.0966  0.5550
  837MOL0     C12879  11.014   6.658   2.533  0.1036  0.0812 -1.0248
  837MOL0     C12880  10.951   6.656   2.397  0.0370  0.9985 -0.2959
  837MOL0     C12881  11.050   6.624   2.286  0.3423 -0.1874  0.1627
  837MOL0     C12882  11.166   6.726   2.284 -0.0081  0.8607  0.2971
  837MOL0     C12883  11.232   6.719   2.139  1.3960 -0.0564 -0.1062
  837MOL0     O12884  11.350   6.789   2.146  0.2146  0.1337  0.2290
  837MOL0     C12885  11.418   6.805   2.022  0.6294 -0.5194 -1.0606
  837MOL0     C12886  11.360   6.799   1.885 -0.4533  0.0136 -0.6385
  837MOL0     C12887  11.448   6.816   1.778 -0.1275 -0.2146  0.3468
  837MOL0     C12888  11.586   6.845   1.790  0.5956 -0.0917  0.0440
  837MOL0     C12889  11.656   6.869   1.666  0.0327 -0.1204 -0.3133
  837MOL0     O12890  11.589   6.922   1.555  0.5081  0.0842  0.4458
  837MOL0     C12891  11.658   6.908   1.437 -0.4688 -0.4414  0.3514
  837MOL0     C12892  11.710   6.789   1.389 -0.2497  0.1781 -1.0172
  837MOL0     C12893  11.767   6.783   1.267  1.3286 -0.7613  0.2763
  837MOL0     C12894  11.767   6.892   1.176 -0.8194  0.0767 -0.2108
  837MOL0     O12895  11.820   6.876   1.047 -0.1960  0.3510 -0.4457
  837MOL0     C12896  11.794   6.972   0.945 -0.2383 -0.2244  0.7189
  837MOL0     C12897  11.655   6.966   0.885 -0.2345 -0.0339  0.3516
  837MOL0     C12898  11.621   6.825   0.844  0.0467  0.0605  0.7970
  837MOL0     C12899  11.658   6.793   0.693 -0.0489 -0.3089  0.8383
  837MOL0     C12900  11.633   6.648   0.659  0.9359  0.2661  0.2340
  837MOL0     C12901  11.698   6.537   0.751 -0.2162  0.0600  0.6869
  837MOL0     C12902  11.685   6.394   0.695 -1.2159  0.1944  0.3408
  837MOL0     C12903  11.746   6.275   0.779  0.1330 -0.5157 -0.2184
  837MOL0    Cl12904  11.633   6.264   0.913 -0.4569 -0.2669  0.1398
  837MOL0     C12905  11.707   7.012   1.226 -0.0459  0.8370  1.2534
  837MOL0     C12906  11.659   7.025   1.354 -0.0489  0.3933 -0.4231
  837MOL0     O12907  11.768   6.816   1.673 -0.2021 -1.0309  0.2391
  837MOL0     C12908  11.642   6.859   1.920  0.5167  0.5012 -0.3710
  837MOL0     C12909  11.550   6.840   2.034 -0.2386 -0.3604 -0.3394
  837MOL0     N12910  11.138   6.686   2.594  0.4240  0.3413  0.4109
  837MOL0     N12911  11.122   6.690   2.718 -0.6702  0.3653 -0.0806
  837MOL0     C12912  10.854   7.296   3.396 -0.1052 -0.0175 -0.2160
  837MOL0     C12913  10.874   7.434   3.428  0.8266 -0.1063  0.6011
  837MOL0     C12914  10.936   7.808   3.653  0.1239 -0.3188 -0.6232
  837MOL0     C12915  10.847   7.846   3.757 -1.1197 -0.4927 -0.1995
  837MOL0     C12916  10.831   7.979   3.798 -0.2221  0.3632 -1.0949
  837MOL0     C12917  10.908   8.081   3.741 -0.7301 -0.1060 -0.1470
  837MOL0     O12918  10.873   8.206   3.772  0.3778 -0.0823 -0.1093
  837MOL0     C12919  10.963   8.322   3.769  0.1032 -0.5395  0.1927
  837MOL0     C12920  10.890   8.456   3.735  0.7763 -0.8465 -0.2094
  837MOL0     C12921  10.765   8.488   3.824  0.0493  0.4008 -1.3369
  837MOL0     C12922  10.813   8.532   3.964 -0.5716  0.3584  0.0443
  837MOL0     C12923  10.700   8.569   4.039  0.0753  0.3872  0.2255
  837MOL0     C12924  10.590   8.606   4.084 -0.4238 -0.2684  0.3730
  837MOL0     C12925  10.999   8.042   3.645 -0.4373 -0.0508 -1.0403
  837MOL0     C12926  11.015   7.910   3.605  0.3184 -0.5150 -0.5484
  837MOL0     C12927  11.126   7.890   3.498  0.3637 -0.4809 -0.3968
  837MOL0     H12928  10.676   7.468   3.701 -1.8357 -3.3190  1.1032
  837MOL0     H12929  10.689   7.221   3.671  0.5961  1.9168  1.0914
  837MOL0     H12930  10.646   7.037   3.601 -0.4373  2.8964 -0.6213
  837MOL0     H12931  10.614   7.009   3.424  1.2508 -2.2161 -1.5908
  837MOL0     H12932  10.651   6.803   3.523 -1.5496  1.2074 -0.8537
  837MOL0     H12933  10.807   6.851   3.590  1.0543  2.0789 -0.2581
  837MOL0     H12934  10.849   6.712   3.390  1.8838  0.6222  1.4971
  837MOL0     H12935  10.915   6.861   3.361 -0.6818  1.6537 -0.5154
  837MOL0     H12936  10.641   6.745   3.250 -1.1197  0.3118  0.9660
  837MOL0     H12937  10.680   6.913   3.231  1.9934  1.2458  2.6418
  837MOL0     H12938  10.905   6.822   3.115  1.5493 -3.4085 -2.1759
  837MOL0     H12939  10.839   6.669   3.140  0.3263 -0.0765  1.1735
  837MOL0     H12940  10.646   6.722   2.983 -0.8000  0.6572 -0.1315
  837MOL0     H12941  10.702   6.898   2.993  1.7578 -0.4647 -0.7040
  837MOL0     H12942  10.889   6.866   2.857 -0.6639  0.1520 -0.6748
  837MOL0     H12943  10.777   6.754   2.793  0.1943  0.0164 -0.3350
  837MOL0     H12944  11.016   6.660   2.962  0.3465  2.4401 -1.6920
  837MOL0     H12945  10.891   6.550   2.908  1.4641 -0.8480  3.0378
  837MOL0     H12946  10.824   6.597   2.633 -0.4343 -1.4923 -0.7153
  837MOL0     H12947  10.874   6.579   2.404  2.2322 -1.3143 -0.0821
  837MOL0     H12948  10.909   6.750   2.360  0.8091  1.0580 -1.0813
  837MOL0     H12949  11.090   6.522   2.295  2.7148  0.8361  2.2989
  837MOL0     H12950  10.984   6.640   2.200 -0.8255 -1.0210  0.8671
  837MOL0     H12951  11.253   6.707   2.348  0.2959  3.6911  0.8541
  837MOL0     H12952  11.122   6.824   2.306 -0.8579  1.0291 -1.9187
  837MOL0     H12953  11.163   6.760   2.064 -0.7445 -2.4106  0.4320
  837MOL0     H12954  11.259   6.614   2.123 -0.5163 -0.7774  1.0559
  837MOL0     H12955  11.254   6.791   1.862 -0.7030  2.5476 -0.5968
  837MOL0     H12956  11.414   6.810   1.675  0.5747 -2.8836  0.1989
  837MOL0     H12957  11.700   6.706   1.458 -0.2200  0.8909 -0.1402
  837MOL0     H12958  11.803   6.688   1.229  3.2241  0.4766 -1.2165
  837MOL0     H12959  11.808   7.078   0.969  2.1284 -0.1262 -0.7490
  837MOL0     H12960  11.863   6.947   0.864 -0.4639 -0.7745  0.6873
  837MOL0     H12961  11.611   6.991   0.982  2.0222 -1.3494  1.7969
  837MOL0     H12962  11.628   7.045   0.814 -0.4640  1.4390  2.0062
  837MOL0     H12963  11.659   6.747   0.910 -3.4565 -1.3653  1.3576
  837MOL0     H12964  11.511   6.822   0.845 -0.0453  0.4559 -1.5474
  837MOL0     H12965  11.763   6.809   0.668  1.2002 -1.8070  4.4402
  837MOL0     H12966  11.592   6.851   0.628  0.1363 -3.2093 -2.1778
  837MOL0     H12967  11.660   6.639   0.553 -1.5774  2.1014 -0.6775
  837MOL0     H12968  11.525   6.628   0.659  0.6497  1.6667 -0.0938
  837MOL0     H12969  11.805   6.542   0.775 -0.0985  1.8154 -0.0951
  837MOL0     H12970  11.650   6.544   0.849  0.9613  0.7491  1.2407
  837MOL0     H12971  11.738   6.392   0.599  1.7391 -0.5487  1.8796
  837MOL0     H12972  11.584   6.359   0.672  0.4176 -4.3206 -1.1961
  837MOL0     H12973  11.766   6.181   0.727  2.1347  0.6198 -1.6287
  837MOL0     H12974  11.846   6.301   0.814  0.1369  3.0136 -2.3977
  837MOL0     H12975  11.737   7.105   1.178  1.3066  0.6375  1.6764
  837MOL0     H12976  11.629   7.119   1.398 -1.4897  0.0919 -0.7178
  837MOL0     H12977  11.744   6.885   1.945  0.6272 -2.2540  2.7731
  837MOL0     H12978  11.584   6.869   2.133 -0.9098  1.5666 -0.6220
  837MOL0     H12979  10.909   7.234   3.326 -0.8520 -1.5383  0.5077
  837MOL0     H12980  10.935   7.498   3.364  2.2078 -2.2995 -0.3944
  837MOL0     H12981  10.786   7.774   3.811 -1.4215 -0.1404 -0.0674
  837MOL0     H12982  10.753   8.016   3.864  0.8925  2.3356 -0.8146
  837MOL0     H12983  11.041   8.318   3.692  1.1147  2.1623  0.9820
  837MOL0     H12984  11.002   8.326   3.871 -0.8172 -1.5161  0.6012
  837MOL0     H12985  10.850   8.447   3.634 -2.3144  0.3138  0.7845
  837MOL0     H12986  10.960   8.538   3.754  1.8195 -1.4864 -1.1473
  837MOL0     H12987  10.699   8.401   3.821  3.5749 -2.4933 -1.0412
  837MOL0     H12988  10.709   8.569   3.776  0.3304  0.5886 -1.3516
  837MOL0     H12989  10.871   8.452   4.012 -0.4116 -0.6869 -1.8176
  837MOL0     H12990  10.878   8.618   3.949 -4.0851  3.1141 -0.6727
  837MOL0     H12991  10.491   8.634   4.115 -0.0948  0.5753  0.6872
  837MOL0     H12992  11.055   8.125   3.604  2.0283 -0.6376  0.9207
  837MOL0     H12993  11.204   7.822   3.533 -0.3994 -1.6499 -0.8849
  837MOL0     H12994  11.079   7.849   3.408  0.3423 -0.0882 -0.5690
  837MOL0     H12995  11.168   7.987   3.470 -1.0804  0.5011  0.7045
  838MOL0     O12996   6.137  10.538   3.307  0.6809  0.1474  0.5004
  838MOL0     C12997   6.220  10.491   3.392  0.1372 -0.1572  0.0680
  838MOL0     O12998   6.336  10.544   3.427  0.0405  0.7104 -0.1242
  838MOL0     C12999   6.368  10.668   3.380  0.0073 -0.6336 -0.2099
  838MOL0     C13000   6.342  10.771   3.474 -0.1647 -0.1474  0.0047
  838MOL0     C13001   6.364  10.898   3.432 -0.3784 -0.5005  0.4677
  838MOL0     C13002   6.424  10.927   3.298 -0.1473  0.1398 -0.1648
  838MOL0     O13003   6.471  11.047   3.254  0.6062 -0.8091 -0.4623
  838MOL0     C13004   6.397  11.154   3.304  0.1274 -0.0468 -0.1877
  838MOL0     C13005   6.413  11.280   3.223  1.1820  0.3186  0.7244
  838MOL0     C13006   6.553  11.325   3.196  0.1105 -0.4184 -0.6183
  838MOL0     C13007   6.547  11.442   3.100 -0.1901 -0.7070  0.5131
  838MOL0     C13008   6.686  11.507   3.082 -0.5268 -0.8583 -0.2161
  838MOL0     C13009   6.755  11.435   2.964 -0.7398  0.0689  0.5320
  838MOL0     C13010   6.905  11.490   2.947 -0.5549  0.8274  1.4274
  838MOL0     C13011   6.985  11.412   2.851  0.7647 -0.1559 -0.2174
  838MOL0     N13012   6.959  11.461   2.709  1.2284  0.7805 -0.1260
  838MOL0     C13013   7.011  11.564   2.632  0.8684  0.4839 -0.9588
  838MOL0     C13014   6.981  11.538   2.508 -0.1675 -0.7719 -0.4404
  838MOL0     C13015   6.998  11.630   2.386 -0.3463  0.7040  0.0712
  838MOL0     C13016   6.884  11.722   2.368 -0.0233 -0.8215 -0.5642
  838MOL0     C13017   6.858  11.755   2.219  0.3045 -0.0460  0.4749
  838MOL0     C13018   6.976  11.815   2.146  0.1016  0.1992  0.1986
  838MOL0     O13019   6.933  11.851   2.016 -0.1229  0.1401  0.6410
  838MOL0     C13020   7.033  11.896   1.925 -0.4086  1.0953  0.4463
  838MOL0     C13021   7.159  11.942   1.974  2.0301 -0.2029  0.3503
  838MOL0     C13022   7.249  11.993   1.883  0.7063  0.3709 -0.1387
  838MOL0     C13023   7.219  11.995   1.746 -0.1661  0.2817 -0.6458
  838MOL0     C13024   7.320  12.027   1.637 -1.5552 -0.5361 -0.3160
  838MOL0     O13025   7.294  11.992   1.506 -0.8670  0.1154  0.0012
  838MOL0     C13026   7.378  12.010   1.398 -0.2985  0.3965 -0.5899
  838MOL0     C13027   7.436  12.129   1.363 -0.2573 -0.6687 -0.1900
  838MOL0     C13028   7.507  12.152   1.246 -0.5776 -0.7690  0.6198
  838MOL0     C13029   7.551  12.040   1.170 -0.0632  0.5416  0.2466
  838MOL0     O13030   7.634  12.031   1.057  0.1383 -0.3856  0.2807
  838MOL0     C13031   7.760  12.106   1.059 -0.6445 -0.1408  0.2878
  838MOL0     C13032   7.829  12.084   0.927  0.3608 -0.2727 -0.2506
  838MOL0     C13033   7.980  12.115   0.930  0.6234 -0.6256 -1.4227
  838MOL0     C13034   8.046  12.135   0.796 -0.1949  0.1065 -0.0379
  838MOL0     C13035   7.976  12.240   0.711 -0.4107  0.3271 -0.2319
  838MOL0     C13036   7.956  12.377   0.777  0.4642 -0.4284 -0.4165
  838MOL0     C13037   7.928  12.472   0.679  0.0198  0.0051  2.1128
  838MOL0     C13038   7.843  12.585   0.729  0.7119 -0.7078  0.8604
  838MOL0    Cl13039   7.740  12.636   0.599  0.5108  0.3317 -0.5602
  838MOL0     C13040   7.493  11.919   1.202 -0.0336 -0.2108  0.0714
  838MOL0     C13041   7.407  11.900   1.315 -0.7424  0.4923 -0.4786
  838MOL0     O13042   7.432  12.066   1.679 -0.1253 -1.0642 -0.0140
  838MOL0     C13043   7.090  11.946   1.697 -0.1258 -0.1156 -0.3034
  838MOL0     C13044   6.997  11.895   1.794  0.6361  0.1358  0.8461
  838MOL0     N13045   6.885  11.436   2.506 -0.3995 -0.2076 -0.7449
  838MOL0     N13046   6.874  11.397   2.632 -0.1753  0.9607 -0.2081
  838MOL0     C13047   6.448  10.818   3.213  0.0241 -0.3016 -0.0981
  838MOL0     C13048   6.414  10.688   3.258  0.2962 -1.4937 -0.0971
  838MOL0     C13049   6.200  10.351   3.438  0.6633 -0.6013  0.1287
  838MOL0     C13050   6.283  10.311   3.543  1.2265  0.3211  0.5901
  838MOL0     C13051   6.286  10.179   3.597  0.1700  0.0831  0.4307
  838MOL0     C13052   6.186  10.091   3.545 -0.1813 -0.2309 -0.3121
  838MOL0     O13053   6.168   9.958   3.583 -0.2204  0.2778 -0.3221
  838MOL0     C13054   6.256   9.887   3.676 -0.1354 -1.2196 -0.0354
  838MOL0     C13055   6.227   9.742   3.658  0.1359  0.0468 -0.0159
  838MOL0     C13056   6.259   9.697   3.513  0.2328 -0.0319  0.0367
  838MOL0     C13057   6.256   9.541   3.506  0.2266 -0.1647 -0.2617
  838MOL0     C13058   6.120   9.499   3.519  0.5483 -0.0003 -0.3857
  838MOL0     C13059   6.004   9.463   3.539 -0.0928  0.3523  0.8272
  838MOL0     C13060   6.105  10.133   3.443  0.3900 -0.0725  0.4849
  838MOL0     C13061   6.112  10.258   3.389  0.9378 -0.0588  0.0959
  838MOL0     C13062   6.004  10.267   3.282  0.6500 -0.2486 -0.1262
  838MOL0     H13063   6.297  10.748   3.570  0.1029  3.9506  1.2876
  838MOL0     H13064   6.364  10.978   3.505  2.2510 -0.4940  0.5328
  838MOL0     H13065   6.291  11.128   3.308  0.0670  0.0552 -0.9556
  838MOL0     H13066   6.427  11.168   3.409 -1.5678  2.6194  0.0465
  838MOL0     H13067   6.352  11.358   3.271  0.2250  1.0506 -1.5481
  838MOL0     H13068   6.359  11.266   3.130  3.3125 -1.8976 -0.2891
  838MOL0     H13069   6.588  11.236   3.142 -4.7690 -3.4331  0.5844
  838MOL0     H13070   6.615  11.340   3.286  1.0993 -1.9717 -0.9971
  838MOL0     H13071   6.504  11.423   3.001 -0.5164 -1.8701  0.8626
  838MOL0     H13072   6.492  11.526   3.143  1.7051  1.5063 -1.1359
  838MOL0     H13073   6.675  11.612   3.054  0.2807 -1.2579 -2.1693
  838MOL0     H13074   6.749  11.509   3.172  0.5035  0.8871 -0.9348
  838MOL0     H13075   6.766  11.327   2.976 -3.4486 -0.2838  0.3913
  838MOL0     H13076   6.707  11.440   2.866 -1.2170  0.8447  0.7983
  838MOL0     H13077   6.943  11.472   3.048 -0.7912 -2.5531  1.0462
  838MOL0     H13078   6.916  11.596   2.922 -0.7786  0.8276  1.3270
  838MOL0     H13079   7.085  11.439   2.887  1.3423 -0.1844 -1.7350
  838MOL0     H13080   6.966  11.305   2.865  0.0915  0.1053  1.0270
  838MOL0     H13081   7.050  11.660   2.663 -1.1510  0.4958  1.9211
  838MOL0     H13082   7.082  11.698   2.397 -0.0246  0.5240 -1.1200
  838MOL0     H13083   7.014  11.560   2.304  1.2405  0.4907  0.5417
  838MOL0     H13084   6.795  11.680   2.414 -1.3637  1.2689 -1.1090
  838MOL0     H13085   6.915  11.811   2.423 -2.8379  1.8389 -2.9458
  838MOL0     H13086   6.772  11.822   2.212  1.0962  0.9950  0.5779
  838MOL0     H13087   6.821  11.669   2.162 -0.5153 -1.3172  2.7472
  838MOL0     H13088   7.046  11.731   2.138 -0.7504 -0.3820 -1.6247
  838MOL0     H13089   7.018  11.896   2.205  0.2422 -0.6137  1.2501
  838MOL0     H13090   7.188  11.950   2.078  1.0824  1.0877  0.5417
  838MOL0     H13091   7.346  12.029   1.917  0.8087 -1.2606  1.4742
  838MOL0     H13092   7.411  12.213   1.426 -1.7585 -1.4954  0.3600
  838MOL0     H13093   7.544  12.253   1.232  3.3265 -1.1725  5.1198
  838MOL0     H13094   7.740  12.213   1.070  0.9074  0.1404  0.6991
  838MOL0     H13095   7.822  12.087   1.148 -1.8132  1.5826  1.5253
  838MOL0     H13096   7.825  11.981   0.890 -1.2761 -1.3033  2.5364
  838MOL0     H13097   7.773  12.158   0.868  0.9303 -0.1344 -0.6290
  838MOL0     H13098   7.992  12.210   0.983  1.1726 -0.6561 -1.4907
  838MOL0     H13099   8.029  12.034   0.986 -3.6723 -1.2132  2.0549
  838MOL0     H13100   8.050  12.038   0.746  0.0173 -0.2993  0.7536
  838MOL0     H13101   8.146  12.170   0.821 -1.2030  4.7922 -1.6348
  838MOL0     H13102   7.879  12.200   0.680  0.0882 -0.9173 -0.2386
  838MOL0     H13103   8.032  12.254   0.618 -0.0040  0.6027  0.0514
  838MOL0     H13104   7.873  12.367   0.848  2.5230 -3.3519  1.9133
  838MOL0     H13105   8.049  12.414   0.822  0.5811  1.4547 -2.1023
  838MOL0     H13106   7.868  12.415   0.607 -0.7370  0.4910  2.3397
  838MOL0     H13107   8.019  12.506   0.630 -1.4366  1.0813 -0.0291
  838MOL0     H13108   7.784  12.552   0.815  2.5261  1.4902  3.0820
  838MOL0     H13109   7.910  12.664   0.762 -0.0029  0.9793 -1.4440
  838MOL0     H13110   7.521  11.833   1.142  1.6498 -0.3333  0.9642
  838MOL0     H13111   7.376  11.802   1.350  0.1752 -0.5464 -2.4227
  838MOL0     H13112   7.057  11.980   1.600 -2.0486 -0.4572  0.2003
  838MOL0     H13113   6.892  11.871   1.776 -0.2317  3.9156  0.0459
  838MOL0     H13114   6.500  10.824   3.118 -0.6826  0.8935 -0.4333
  838MOL0     H13115   6.417  10.597   3.199 -1.9235 -3.1007  2.0340
  838MOL0     H13116   6.359  10.364   3.599  0.5806  1.9060  0.0385
  838MOL0     H13117   6.366  10.152   3.665  1.4218  0.3571 -0.8682
  838MOL0     H13118   6.253   9.937   3.774 -2.8898 -2.9219  0.8526
  838MOL0     H13119   6.352   9.909   3.629 -0.4039  1.8806  0.6246
  838MOL0     H13120   6.121   9.733   3.680 -0.0389  2.6777  0.6237
  838MOL0     H13121   6.293   9.696   3.732 -1.0841 -0.3509  0.8614
  838MOL0     H13122   6.368   9.710   3.507  0.5177  0.1953  3.6243
  838MOL0     H13123   6.195   9.742   3.437 -1.6132 -1.6462  0.5534
  838MOL0     H13124   6.278   9.508   3.404 -1.8194  2.3033 -1.6205
  838MOL0     H13125   6.310   9.484   3.582 -2.0614 -3.1531 -0.6506
  838MOL0     H13126   5.904   9.438   3.565  0.2441 -0.8488  1.0154
  838MOL0     H13127   6.029  10.062   3.413  0.5759 -0.4486  0.8860
  838MOL0     H13128   5.990  10.178   3.219  2.0316 -2.3575  2.3373
  838MOL0     H13129   5.909  10.295   3.328  2.3713  0.8886  3.0474
  838MOL0     H13130   6.036  10.350   3.217 -0.8489  3.0469  3.0441
  839MOL0     O13131   2.318   3.477   3.080 -0.5485 -0.2879  0.0943
  839MOL0     C13132   2.251   3.371   3.091 -0.1156 -0.6984  0.9406
  839MOL0     O13133   2.244   3.286   2.989 -0.5536 -0.3994  0.4871
  839MOL0     C13134   2.272   3.334   2.864 -1.1771  0.3562 -0.3776
  839MOL0     C13135   2.406   3.336   2.811 -0.1485  0.2307 -0.0571
  839MOL0     C13136   2.438   3.407   2.692  0.7535  0.8775  0.3751
  839MOL0     C13137   2.331   3.468   2.625 -0.6712  0.0270  0.6181
  839MOL0     O13138   2.375   3.531   2.508  0.6098 -0.0471 -0.2062
  839MOL0     C13139   2.282   3.593   2.420  0.3177  0.2482  1.0245
  839MOL0     C13140   2.366   3.673   2.328 -0.1904  0.3547 -0.0611
  839MOL0     C13141   2.473   3.586   2.254 -1.0174 -0.7204  0.6288
  839MOL0     C13142   2.564   3.659   2.149 -0.4213 -1.2027  0.7259
  839MOL0     C13143   2.541   3.613   2.008  1.1108 -0.7588 -0.7600
  839MOL0     C13144   2.634   3.690   1.914  0.3990 -0.3408 -0.1421
  839MOL0     C13145   2.638   3.626   1.767  0.6381 -0.1323 -0.8171
  839MOL0     C13146   2.748   3.517   1.744  0.4847 -0.0897 -0.7212
  839MOL0     N13147   2.883   3.573   1.754 -0.8954 -0.1777 -0.0506
  839MOL0     C13148   2.985   3.527   1.838 -0.0348 -0.7997  0.5078
  839MOL0     C13149   3.082   3.617   1.832  0.0804 -1.0483  0.1023
  839MOL0     C13150   3.216   3.596   1.898 -0.4856 -1.1091 -0.3576
  839MOL0     C13151   3.326   3.599   1.781 -0.6421  0.1285 -0.9885
  839MOL0     C13152   3.319   3.479   1.688  0.3159  0.5193  0.1828
  839MOL0     C13153   3.360   3.343   1.747 -0.6985  0.3806 -0.7215
  839MOL0     O13154   3.255   3.289   1.834 -0.1597 -0.5477 -0.8403
  839MOL0     C13155   3.268   3.156   1.870  0.6392 -0.8147  0.9068
  839MOL0     C13156   3.386   3.105   1.924 -0.2427 -0.1255  0.5551
  839MOL0     C13157   3.396   2.975   1.967 -0.0485  0.1529 -0.0945
  839MOL0     C13158   3.280   2.901   1.983  0.1864  0.4780  0.0211
  839MOL0     C13159   3.284   2.767   2.041 -0.7094 -0.0299 -0.9188
  839MOL0     O13160   3.167   2.715   2.083 -0.0022 -0.4524  0.2033
  839MOL0     C13161   3.161   2.629   2.182  0.0284 -0.9308  0.4228
  839MOL0     C13162   3.077   2.525   2.193  0.9251 -0.3788  0.8862
  839MOL0     C13163   3.099   2.435   2.295  0.4517 -0.5143 -0.5379
  839MOL0     C13164   3.194   2.446   2.394  0.0889 -0.6055  0.6199
  839MOL0     O13165   3.233   2.342   2.486 -0.5287  0.1563 -0.3343
  839MOL0     C13166   3.147   2.227   2.490 -1.2961  0.5551  0.3365
  839MOL0     C13167   3.211   2.120   2.579 -0.2343  0.0415 -0.4519
  839MOL0     C13168   3.116   2.012   2.616  0.1364  0.2763  0.3084
  839MOL0     C13169   3.163   1.881   2.678  0.5280  0.2783  0.2969
  839MOL0     C13170   3.213   1.772   2.581  0.7482  0.8656 -0.6043
  839MOL0     C13171   3.297   1.651   2.635 -0.4270 -0.9966  0.5964
  839MOL0     C13172   3.322   1.544   2.528 -0.1669  0.2744 -0.7402
  839MOL0     C13173   3.401   1.429   2.598  0.0445 -0.7065  0.2914
  839MOL0    Cl13174   3.458   1.297   2.483 -0.2393  0.1981  0.3454
  839MOL0     C13175   3.267   2.559   2.388 -1.1770 -0.1387  0.1234
  839MOL0     C13176   3.259   2.646   2.279  0.5365  0.0044 -0.5380
  839MOL0     O13177   3.395   2.703   2.046  0.0489  0.0342  0.4782
  839MOL0     C13178   3.156   2.952   1.939  0.9574 -0.2833 -0.7043
  839MOL0     C13179   3.150   3.079   1.876 -0.1403  0.4297  0.4669
  839MOL0     N13180   3.041   3.717   1.747  0.3124 -0.7277  0.1766
  839MOL0     N13181   2.924   3.685   1.702 -0.2280  0.3871  0.5375
  839MOL0     C13182   2.197   3.465   2.673 -0.7477  0.2545  1.0058
  839MOL0     C13183   2.176   3.395   2.790  0.7893 -0.2026 -0.6654
  839MOL0     C13184   2.176   3.339   3.210  0.9763  1.2921 -0.3090
  839MOL0     C13185   2.207   3.402   3.332 -0.1967  0.1166  0.0830
  839MOL0     C13186   2.146   3.371   3.457  0.2117 -0.1667  0.1105
  839MOL0     C13187   2.031   3.297   3.461  0.0895  0.1125  0.0810
  839MOL0     O13188   1.952   3.268   3.572 -0.6106 -0.0160  0.5859
  839MOL0     C13189   1.981   3.320   3.701  0.0025  0.6922  0.7395
  839MOL0     C13190   2.083   3.241   3.780  0.2318  0.4940  0.3827
  839MOL0     C13191   2.064   3.079   3.769 -0.6581 -0.1720  0.4479
  839MOL0     C13192   2.082   2.998   3.893  0.3362  0.5148 -0.2288
  839MOL0     C13193   2.071   2.855   3.864  0.1899 -0.1496  0.3794
  839MOL0     C13194   2.041   2.742   3.826  0.0290  0.7663 -0.2293
  839MOL0     C13195   1.995   3.236   3.338  0.1856 -0.0942  0.7826
  839MOL0     C13196   2.066   3.248   3.214 -0.3151 -0.1373  0.0678
  839MOL0     C13197   1.993   3.170   3.098 -0.2308  0.6258 -0.0805
  839MOL0     H13198   2.483   3.284   2.868  1.6584  0.3747 -2.2355
  839MOL0     H13199   2.539   3.424   2.655 -0.2966 -0.7999 -3.7314
  839MOL0     H13200   2.225   3.520   2.361  3.3462  0.5821 -2.6623
  839MOL0     H13201   2.223   3.661   2.482  3.9129  2.7065  2.0073
  839MOL0     H13202   2.410   3.753   2.388 -3.7629  0.6676  2.3993
  839MOL0     H13203   2.303   3.719   2.252 -1.6698 -1.1399  0.2163
  839MOL0     H13204   2.421   3.499   2.213 -3.8144  0.9621  0.3857
  839MOL0     H13205   2.545   3.554   2.330  1.0270 -0.0834 -0.9660
  839MOL0     H13206   2.550   3.767   2.159  4.2804 -0.5046  2.3237
  839MOL0     H13207   2.670   3.639   2.166  0.5972  2.3825 -0.6237
  839MOL0     H13208   2.571   3.508   2.004  3.7425 -0.1130 -0.1095
  839MOL0     H13209   2.437   3.624   1.975  0.3696 -2.7711  0.7390
  839MOL0     H13210   2.620   3.798   1.906  0.1883 -0.5059 -4.2742
  839MOL0     H13211   2.727   3.678   1.972 -0.4133 -0.9370  1.0881
  839MOL0     H13212   2.652   3.710   1.698 -2.7433  0.5440 -0.8680
  839MOL0     H13213   2.539   3.583   1.750  0.1416  0.8790 -0.5869
  839MOL0     H13214   2.727   3.449   1.827 -1.3748 -2.3578 -2.9100
  839MOL0     H13215   2.739   3.467   1.648  1.1452  1.3801 -1.5864
  839MOL0     H13216   3.006   3.441   1.901  1.9929 -1.1754 -0.5585
  839MOL0     H13217   3.221   3.679   1.969 -0.5819 -1.2877 -0.1401
  839MOL0     H13218   3.227   3.508   1.962 -0.8236 -0.2837  0.8853
  839MOL0     H13219   3.315   3.677   1.705 -0.3362 -0.1889 -1.3687
  839MOL0     H13220   3.429   3.611   1.817  0.0337 -1.5144 -2.2362
  839MOL0     H13221   3.394   3.501   1.612 -1.1453  0.8911 -1.2127
  839MOL0     H13222   3.223   3.477   1.635  0.9868  1.4742 -1.1085
  839MOL0     H13223   3.449   3.359   1.807 -1.2744 -4.6574  1.9996
  839MOL0     H13224   3.393   3.266   1.677 -2.4990 -5.1361  3.7901
  839MOL0     H13225   3.479   3.160   1.922 -0.8258  0.8908  1.1355
  839MOL0     H13226   3.496   2.946   1.997 -0.4824 -0.7011  0.5494
  839MOL0     H13227   3.006   2.496   2.116  0.9618  1.9470 -0.0926
  839MOL0     H13228   3.038   2.349   2.269  2.5722 -1.7899 -1.5589
  839MOL0     H13229   3.059   2.268   2.542  0.2263  1.1319  2.5730
  839MOL0     H13230   3.138   2.189   2.387  3.0368  1.8060 -0.6882
  839MOL0     H13231   3.306   2.078   2.545 -0.5140 -1.7176  0.7964
  839MOL0     H13232   3.244   2.164   2.673 -1.1354  1.6723 -0.8663
  839MOL0     H13233   3.049   2.054   2.692 -1.3247 -2.1462  0.4481
  839MOL0     H13234   3.059   1.994   2.525 -0.6557 -0.3591  0.9068
  839MOL0     H13235   3.087   1.845   2.748  2.9253 -1.1116  2.3681
  839MOL0     H13236   3.250   1.902   2.741 -0.0850 -2.0144  2.0394
  839MOL0     H13237   3.274   1.817   2.502  0.5570 -1.4475 -2.1910
  839MOL0     H13238   3.128   1.737   2.521  1.8253 -2.0692 -0.6059
  839MOL0     H13239   3.386   1.701   2.673 -0.1734 -1.9439  1.3049
  839MOL0     H13240   3.254   1.603   2.724 -0.6288 -1.6654  0.1441
  839MOL0     H13241   3.380   1.581   2.443  0.9983 -1.0810 -0.5857
  839MOL0     H13242   3.225   1.505   2.496 -0.7706  1.9449 -1.0043
  839MOL0     H13243   3.487   1.476   2.648  0.5132 -1.0762 -0.1596
  839MOL0     H13244   3.340   1.399   2.684  0.9887  0.5849  1.4626
  839MOL0     H13245   3.329   2.581   2.474 -2.3719 -0.4081  1.0928
  839MOL0     H13246   3.318   2.737   2.273 -0.9711  1.0102 -0.5507
  839MOL0     H13247   3.063   2.902   1.964  1.2163 -0.8072 -0.7682
  839MOL0     H13248   3.056   3.119   1.839  0.5482  0.6147 -1.1442
  839MOL0     H13249   2.122   3.519   2.617 -1.8329 -3.4537 -1.4582
  839MOL0     H13250   2.074   3.383   2.827  0.9629 -0.3291 -0.2231
  839MOL0     H13251   2.292   3.470   3.328 -0.2926  0.1769 -1.6313
  839MOL0     H13252   2.188   3.402   3.552 -2.7938  0.8558  1.2209
  839MOL0     H13253   1.886   3.328   3.755 -1.1255 -0.4289 -0.9761
  839MOL0     H13254   2.007   3.426   3.689  1.4278  0.0778 -2.5052
  839MOL0     H13255   2.077   3.284   3.880 -1.9056 -1.8884  1.3865
  839MOL0     H13256   2.183   3.261   3.742 -0.9147 -2.4897 -5.4191
  839MOL0     H13257   2.135   3.037   3.696 -0.0293  0.5259  0.6483
  839MOL0     H13258   1.965   3.056   3.727 -1.9295  0.4191  2.9628
  839MOL0     H13259   2.177   3.024   3.940  0.3012 -2.6895  1.9437
  839MOL0     H13260   1.996   3.012   3.960 -0.9809 -5.2359 -0.2422
  839MOL0     H13261   2.011   2.644   3.794  0.2789  0.8576 -0.7599
  839MOL0     H13262   1.902   3.181   3.344  0.9454 -1.5194  0.0396
  839MOL0     H13263   1.889   3.152   3.129  0.0716 -0.7914  0.1744
  839MOL0     H13264   1.991   3.231   3.007 -2.5041  0.2560 -0.3415
  839MOL0     H13265   2.045   3.079   3.066  0.6346  1.2109 -0.3722
  840MOL0     O13266   3.122   6.193   8.712 -1.5410  0.4023 -0.4206
  840MOL0     C13267   3.242   6.164   8.696  0.1048 -0.8461  0.1213
  840MOL0     O13268   3.347   6.180   8.783 -0.8684  0.3418  0.0363
  840MOL0     C13269   3.324   6.238   8.911  0.1859  0.7807  0.4115
  840MOL0     C13270   3.279   6.376   8.929  0.1078 -1.0522  0.7028
  840MOL0     C13271   3.267   6.430   9.056 -0.2631 -0.9115 -0.0136
  840MOL0     C13272   3.291   6.356   9.170 -0.1726  0.2303 -0.2358
  840MOL0     O13273   3.280   6.413   9.292 -0.2754  0.2515 -0.6036
  840MOL0     C13274   3.171   6.356   9.360 -0.4709 -0.3527  0.4110
  840MOL0     C13275   3.208   6.372   9.516 -0.2380  0.6939  1.0459
  840MOL0     C13276   3.123   6.282   9.609  0.6457 -0.4644 -0.4026
  840MOL0     C13277   2.974   6.314   9.593  0.8534 -0.2548  0.2496
  840MOL0     C13278   2.891   6.208   9.679 -0.6051  0.3854 -0.1134
  840MOL0     C13279   2.762   6.276   9.727  0.0663 -0.2196 -0.4082
  840MOL0     C13280   2.767   6.384   9.839 -1.2060  0.3262 -0.1620
  840MOL0     C13281   2.625   6.445   9.855 -0.3685 -0.1696  0.8407
  840MOL0     N13282   2.624   6.563   9.944  0.2770  0.5522  0.0216
  840MOL0     C13283   2.510   6.588  10.018  0.1310 -0.5055 -0.4393
  840MOL0     C13284   2.539   6.695  10.089 -0.7855 -0.5172  0.7346
  840MOL0     C13285   2.456   6.764  10.189 -0.0715  0.0912 -0.8056
  840MOL0     C13286   2.485   6.910  10.215 -0.4995 -0.0533 -0.1734
  840MOL0     C13287   2.449   7.005  10.093 -0.6279 -0.4225  0.4634
  840MOL0     C13288   2.516   7.144  10.079  0.2306  0.3582 -0.5606
  840MOL0     O13289   2.421   7.216  10.009  0.0566  0.0437 -0.2388
  840MOL0     C13290   2.466   7.338   9.964  0.0535 -0.6418 -0.1782
  840MOL0     C13291   2.384   7.391   9.869  0.3100  0.2586 -0.7838
  840MOL0     C13292   2.409   7.522   9.822 -0.1720  0.1463 -0.5657
  840MOL0     C13293   2.517   7.598   9.874 -0.5171 -0.1158  1.0666
  840MOL0     C13294   2.557   7.735   9.842 -0.3755  0.2522  0.6757
  840MOL0     O13295   2.679   7.782   9.885 -0.2525 -0.0208  0.0688
  840MOL0     C13296   2.728   7.909   9.856  0.0861 -0.4343  0.7553
  840MOL0     C13297   2.689   7.991   9.752  0.5485 -0.7536  0.3836
  840MOL0     C13298   2.732   8.131   9.749  0.8000  1.1893 -1.3677
  840MOL0     C13299   2.814   8.190   9.849 -0.2792 -0.3451  1.1484
  840MOL0     O13300   2.832   8.323   9.828  1.2074 -0.1397 -0.4682
  840MOL0     C13301   2.933   8.378   9.912 -0.0626 -1.2915  0.4910
  840MOL0     C13302   2.919   8.529   9.892  0.0267  0.1220  0.3737
  840MOL0     C13303   2.795   8.591   9.954  0.3921 -1.1068 -0.8297
  840MOL0     C13304   2.781   8.738   9.925 -0.3304 -0.5797  1.0152
  840MOL0     C13305   2.705   8.813  10.040 -0.1877  0.5773 -0.2176
  840MOL0     C13306   2.558   8.780  10.051  1.0056 -0.9899 -0.1103
  840MOL0     C13307   2.476   8.898   9.980 -0.5708  0.7581 -0.6947
  840MOL0     C13308   2.440   8.857   9.836 -0.8187  0.6038 -0.2918
  840MOL0    Cl13309   2.328   8.978   9.783 -0.4821 -0.1578 -0.0565
  840MOL0     C13310   2.861   8.097   9.947 -0.1165 -0.3408  0.6162
  840MOL0     C13311   2.811   7.967   9.955 -0.7201  0.4807  0.5479
  840MOL0     O13312   2.468   7.803   9.789  0.2958  0.0596 -0.0340
  840MOL0     C13313   2.597   7.534   9.971  0.2654  0.3709  1.0152
  840MOL0     C13314   2.571   7.408  10.008 -0.6420 -0.8041 -0.5886
  840MOL0     N13315   2.672   6.726  10.060  0.5057 -0.2649 -1.5977
  840MOL0     N13316   2.723   6.646   9.981 -0.4465  0.0341 -0.1086
  840MOL0     C13317   3.346   6.228   9.156 -1.0211  0.4879  0.3805
  840MOL0     C13318   3.366   6.177   9.027  0.0087  0.4077 -0.7628
  840MOL0     C13319   3.278   6.104   8.559  0.4299  0.2640 -0.6636
  840MOL0     C13320   3.396   6.139   8.494  0.6305 -0.3807  0.2212
  840MOL0     C13321   3.423   6.097   8.363  0.2655  0.2121  1.0852
  840MOL0     C13322   3.337   6.009   8.301  0.5749 -0.0683 -0.1518
  840MOL0     O13323   3.398   5.965   8.183  1.0204  0.3591  0.2188
  840MOL0     C13324   3.309   5.889   8.094 -0.8450 -0.7601  0.4146
  840MOL0     C13325   3.349   5.889   7.949 -0.1813  0.8309  0.4232
  840MOL0     C13326   3.483   5.816   7.918  0.5531  0.4987  0.9843
  840MOL0     C13327   3.506   5.816   7.771 -1.1857 -0.0759 -0.5527
  840MOL0     C13328   3.433   5.725   7.683 -0.6939  0.3609 -0.1258
  840MOL0     C13329   3.402   5.654   7.596 -0.0300 -0.0782 -0.7628
  840MOL0     C13330   3.224   5.960   8.361  0.6695  0.5183 -0.0107
  840MOL0     C13331   3.188   6.007   8.497 -0.8094  0.0815 -0.0015
  840MOL0     C13332   3.063   5.957   8.562 -0.2027 -1.1728  0.0447
  840MOL0     H13333   3.259   6.441   8.844  0.8003  0.7122  1.8514
  840MOL0     H13334   3.246   6.535   9.076  0.8844 -0.4758 -1.0390
  840MOL0     H13335   3.079   6.411   9.342  0.0971  0.9916  1.4584
  840MOL0     H13336   3.152   6.249   9.342  0.3420 -0.9025  2.5335
  840MOL0     H13337   3.193   6.476   9.544  2.1898  1.2426  0.4762
  840MOL0     H13338   3.313   6.347   9.526 -0.3970 -0.5288 -0.0482
  840MOL0     H13339   3.150   6.298   9.714 -1.1867  1.7287 -0.1717
  840MOL0     H13340   3.137   6.178   9.581 -0.5067 -1.4171  2.2115
  840MOL0     H13341   2.950   6.418   9.618 -2.7746 -0.2741 -2.3190
  840MOL0     H13342   2.938   6.307   9.490 -1.5182 -0.4116  1.0110
  840MOL0     H13343   2.862   6.122   9.618 -0.6943  0.8281 -0.6934
  840MOL0     H13344   2.955   6.191   9.766  2.2144  2.1323 -1.6923
  840MOL0     H13345   2.716   6.318   9.637 -1.2538 -1.3614 -0.3070
  840MOL0     H13346   2.682   6.207   9.753  0.6692 -0.8186 -0.1341
  840MOL0     H13347   2.846   6.457   9.822 -0.0142 -0.7362  0.6126
  840MOL0     H13348   2.809   6.340   9.929  3.9482  0.4213 -2.1781
  840MOL0     H13349   2.583   6.483   9.762 -2.4867 -0.7508  1.4906
  840MOL0     H13350   2.567   6.364   9.901 -0.7787  0.9314  2.3505
  840MOL0     H13351   2.427   6.518  10.017  0.4866 -0.9269 -1.4392
  840MOL0     H13352   2.348   6.763  10.175 -0.3559  1.5690  0.9307
  840MOL0     H13353   2.487   6.717  10.283  1.1228  0.0982 -1.1739
  840MOL0     H13354   2.416   6.941  10.294 -0.0544  1.0829 -0.2060
  840MOL0     H13355   2.587   6.925  10.251 -0.8675  1.5335  0.3110
  840MOL0     H13356   2.342   7.023  10.103 -1.1602 -2.8916 -0.1093
  840MOL0     H13357   2.452   6.950   9.998 -5.4182 -1.7196  0.8298
  840MOL0     H13358   2.602   7.133  10.012 -1.5647  1.0262 -3.1144
  840MOL0     H13359   2.558   7.183  10.172 -1.2346  0.9271 -0.0998
  840MOL0     H13360   2.297   7.339   9.830 -0.2142  3.5323 -4.6691
  840MOL0     H13361   2.343   7.568   9.749  1.4908  1.0378 -1.5668
  840MOL0     H13362   2.618   7.961   9.676  0.5701  3.5652 -1.6213
  840MOL0     H13363   2.691   8.185   9.665 -2.0405 -0.6917 -1.3023
  840MOL0     H13364   2.917   8.351  10.017  4.6157 -1.2649  1.4530
  840MOL0     H13365   3.039   8.356   9.894  0.6554  0.4581  2.2123
  840MOL0     H13366   3.009   8.573   9.935  0.9578 -0.9106 -0.4411
  840MOL0     H13367   2.920   8.560   9.787 -1.4061  2.2455  0.9408
  840MOL0     H13368   2.709   8.540   9.909 -0.2043 -1.1203  0.3030
  840MOL0     H13369   2.799   8.585  10.063 -1.8548  0.4051 -0.6054
  840MOL0     H13370   2.744   8.757   9.823 -5.4035  0.8392  2.8070
  840MOL0     H13371   2.881   8.781   9.921 -0.4883 -0.2049 -2.4532
  840MOL0     H13372   2.706   8.921  10.023 -0.3999  0.3558 -1.8829
  840MOL0     H13373   2.737   8.783  10.140  3.4490 -0.6857 -1.6029
  840MOL0     H13374   2.534   8.682  10.007 -1.6338  1.2710 -4.3641
  840MOL0     H13375   2.527   8.787  10.155  1.3960  2.4975 -0.1279
  840MOL0     H13376   2.529   8.994   9.976  0.5402  0.2250  0.4827
  840MOL0     H13377   2.387   8.922  10.038 -0.7435  2.0517 -1.4534
  840MOL0     H13378   2.528   8.850   9.771  1.0411 -0.2939  2.1582
  840MOL0     H13379   2.389   8.761   9.844  1.8925 -0.9954 -0.7454
  840MOL0     H13380   2.929   8.133  10.024  0.4773 -0.9402  0.3761
  840MOL0     H13381   2.854   7.896  10.025  4.0201  1.1109 -1.3364
  840MOL0     H13382   2.667   7.595  10.027  1.3750  0.9733 -0.9203
  840MOL0     H13383   2.642   7.377  10.083  2.3549  2.2918 -1.8947
  840MOL0     H13384   3.383   6.179   9.245  0.0978  1.3453  0.4184
  840MOL0     H13385   3.405   6.078   9.004  1.3101  1.2340 -2.3024
  840MOL0     H13386   3.467   6.212   8.532  0.6442 -0.6812  0.7786
  840MOL0     H13387   3.505   6.127   8.300  0.7549 -0.8033  1.2155
  840MOL0     H13388   3.212   5.939   8.090 -0.3677  0.1217 -1.4363
  840MOL0     H13389   3.305   5.791   8.142 -2.2451 -0.4994  0.8712
  840MOL0     H13390   3.343   5.993   7.914 -2.0448  1.1094  1.4661
  840MOL0     H13391   3.263   5.845   7.897  1.7003 -1.8794 -0.6190
  840MOL0     H13392   3.483   5.709   7.941  2.3460 -0.7654 -3.7472
  840MOL0     H13393   3.558   5.878   7.968 -0.1817 -0.6488  3.6756
  840MOL0     H13394   3.498   5.921   7.740 -1.1469  0.0827 -0.0332
  840MOL0     H13395   3.612   5.809   7.744 -0.8579  2.1931 -0.0860
  840MOL0     H13396   3.356   5.582   7.532  0.3622 -0.1647 -0.9533
  840MOL0     H13397   3.165   5.883   8.312 -2.1292  1.8445  1.0569
  840MOL0     H13398   3.026   5.864   8.517 -2.0715 -1.0375  1.1932
  840MOL0     H13399   3.075   5.925   8.666 -2.1590 -1.1078  0.3277
  840MOL0     H13400   2.983   6.032   8.562  0.5478 -0.3643 -0.0929
  841MOL0     O13401  11.130   7.605   6.876 -0.4804  0.2245 -0.6263
  841MOL0     C13402  11.240   7.649   6.886 -0.0698 -0.3229 -0.3245
  841MOL0     O13403  11.358   7.578   6.877 -0.3064  0.2120 -0.6432
  841MOL0     C13404  11.360   7.441   6.884  0.1630 -0.1540 -0.2073
  841MOL0     C13405  11.259   7.359   6.832  0.3026 -0.2933  0.2878
  841MOL0     C13406  11.274   7.220   6.851 -0.9172 -0.3406 -0.1317
  841MOL0     C13407  11.387   7.166   6.924 -0.7115  0.5280  0.4007
  841MOL0     O13408  11.396   7.026   6.915 -0.4340  0.2295 -0.4462
  841MOL0     C13409  11.521   6.955   6.946  0.2833 -0.2039 -0.3710
  841MOL0     C13410  11.521   6.866   7.073 -0.1545  0.0001  0.1502
  841MOL0     C13411  11.500   6.940   7.199  0.6072  0.6525  0.0022
  841MOL0     C13412  11.630   7.013   7.241  0.0199 -0.6840 -0.8409
  841MOL0     C13413  11.619   7.066   7.392 -1.3103  0.1422  0.5612
  841MOL0     C13414  11.521   7.171   7.415 -0.7790  0.5792 -0.2932
  841MOL0     C13415  11.523   7.215   7.567 -0.7002 -0.6710  1.4887
  841MOL0     C13416  11.611   7.337   7.599  0.1793  0.2797 -0.1453
  841MOL0     N13417  11.752   7.315   7.621  0.1007 -0.2229  0.4417
  841MOL0     C13418  11.823   7.219   7.695  0.1384 -0.0519  0.0688
  841MOL0     C13419  11.952   7.237   7.676 -0.2857  0.4609 -0.1209
  841MOL0     C13420  12.037   7.151   7.764 -0.9178 -0.4748 -1.0325
  841MOL0     C13421  12.139   7.238   7.848 -0.5425 -0.3212  0.7574
  841MOL0     C13422  12.075   7.336   7.945  0.4813 -0.3464  0.2602
  841MOL0     C13423  12.169   7.418   8.031  0.2682  0.5212  0.0030
  841MOL0     O13424  12.178   7.355   8.169  0.3548  0.6216  0.4507
  841MOL0     C13425  12.192   7.444   8.269 -0.3993  0.7192 -0.1571
  841MOL0     C13426  12.309   7.445   8.344  0.0813  0.1764 -0.7859
  841MOL0     C13427  12.313   7.528   8.457 -0.0086  0.3484  1.1738
  841MOL0     C13428  12.210   7.611   8.494 -1.0001 -0.8921 -0.6240
  841MOL0     C13429  12.232   7.704   8.607 -0.0616 -0.1667 -0.1868
  841MOL0     O13430  12.330   7.668   8.690  0.3040  0.0081  0.0431
  841MOL0     C13431  12.367   7.728   8.808  0.0943 -0.7636 -0.7315
  841MOL0     C13432  12.505   7.742   8.832 -0.0497  0.9211  0.5665
  841MOL0     C13433  12.565   7.808   8.940  0.5851  0.1284  0.2996
  841MOL0     C13434  12.479   7.885   9.021 -0.4238 -0.0706 -0.3989
  841MOL0     O13435  12.520   7.968   9.121  0.1156 -0.1133 -0.6938
  841MOL0     C13436  12.657   7.996   9.157 -0.1234 -0.2325 -0.3945
  841MOL0     C13437  12.689   7.997   9.309  0.7608  0.6399 -0.2400
  841MOL0     C13438  12.831   8.051   9.327  0.3384 -1.3804  0.0324
  841MOL0     C13439  12.839   8.207   9.329  0.4512 -0.4037 -0.4408
  841MOL0     C13440  12.974   8.265   9.364 -0.5277  0.5688 -0.4491
  841MOL0     C13441  12.968   8.419   9.373  0.2001 -1.2753 -0.2737
  841MOL0     C13442  12.959   8.481   9.515 -0.7739  0.0249  0.2354
  841MOL0     C13443  12.822   8.467   9.566  1.3276  0.9270  0.2612
  841MOL0    Cl13444  12.798   8.556   9.715  0.2721 -0.2409 -0.0343
  841MOL0     C13445  12.335   7.868   9.002  0.0424 -0.2910  0.5023
  841MOL0     C13446  12.282   7.796   8.887 -0.1067  0.2698  0.1089
  841MOL0     O13447  12.158   7.801   8.621 -0.2066  0.7775  1.2629
  841MOL0     C13448  12.096   7.614   8.417  0.6812 -0.6874 -0.2008
  841MOL0     C13449  12.083   7.522   8.311 -1.6017  0.7465  0.4849
  841MOL0     N13450  11.966   7.344   7.583 -0.4520  0.4061 -0.0541
  841MOL0     N13451  11.850   7.385   7.558 -0.3333  0.3763  0.3844
  841MOL0     C13452  11.487   7.250   6.977  0.1936 -0.5278  0.5357
  841MOL0     C13453  11.465   7.388   6.962 -0.0595  0.6623 -0.3434
  841MOL0     C13454  11.248   7.795   6.889 -0.9836 -0.0896 -0.8216
  841MOL0     C13455  11.367   7.848   6.950  0.4221  0.9864  0.3713
  841MOL0     C13456  11.383   7.987   6.952  0.1015  0.0581 -0.0891
  841MOL0     C13457  11.289   8.076   6.900 -0.1722  0.1980  0.0848
  841MOL0     O13458  11.304   8.209   6.878  0.0618  0.0504  0.2769
  841MOL0     C13459  11.374   8.298   6.961  0.6056  1.4973  0.1829
  841MOL0     C13460  11.278   8.402   7.026 -0.2302  0.2968  0.3648
  841MOL0     C13461  11.273   8.516   6.933  0.1987 -0.3768 -0.1426
  841MOL0     C13462  11.152   8.596   6.966  0.2368 -0.2453 -0.0786
  841MOL0     C13463  11.181   8.715   7.053 -0.9105 -0.0054 -0.0058
  841MOL0     C13464  11.205   8.809   7.127  0.1217  0.1883  0.5114
  841MOL0     C13465  11.167   8.025   6.852  0.0906 -0.0495 -0.2362
  841MOL0     C13466  11.143   7.888   6.849  0.7072 -0.5101  0.1864
  841MOL0     C13467  11.014   7.842   6.783  1.4457  0.1014 -0.3777
  841MOL0     H13468  11.175   7.395   6.774  1.7896  0.7118 -1.3520
  841MOL0     H13469  11.189   7.164   6.814 -0.4097 -1.2961  0.1210
  841MOL0     H13470  11.536   6.886   6.863  1.4526 -2.5025  1.6481
  841MOL0     H13471  11.610   7.019   6.947  0.4117 -0.2419  2.9450
  841MOL0     H13472  11.623   6.827   7.073 -0.6423 -1.3500 -0.9921
  841MOL0     H13473  11.449   6.783   7.066 -1.1923  0.6289  2.4781
  841MOL0     H13474  11.482   6.875   7.285  0.5014  1.8040  0.8681
  841MOL0     H13475  11.422   7.016   7.190  0.3418  0.6527  1.9308
  841MOL0     H13476  11.717   6.946   7.230  0.0271 -0.8586  0.1473
  841MOL0     H13477  11.643   7.097   7.172  1.3343 -0.5991 -0.5192
  841MOL0     H13478  11.614   6.979   7.459  1.7622 -1.4732 -1.0799
  841MOL0     H13479  11.718   7.109   7.409  0.1276 -2.0258 -1.6177
  841MOL0     H13480  11.537   7.256   7.348 -3.4326  0.3085 -1.4023
  841MOL0     H13481  11.427   7.120   7.391 -0.0844 -2.0630  2.0411
  841MOL0     H13482  11.553   7.129   7.627  0.9831 -2.6089 -1.8101
  841MOL0     H13483  11.420   7.249   7.582 -0.7050  2.1136 -2.8379
  841MOL0     H13484  11.590   7.397   7.510 -1.7005 -1.1237 -0.7106
  841MOL0     H13485  11.582   7.394   7.688  2.2607 -2.9068  2.8277
  841MOL0     H13486  11.782   7.125   7.730 -2.0921  0.5808 -0.6813
  841MOL0     H13487  11.979   7.092   7.835  0.5211  2.6903  3.2283
  841MOL0     H13488  12.105   7.097   7.698  1.9601  1.2776  0.2603
  841MOL0     H13489  12.191   7.173   7.919 -0.7672 -1.3105  0.0332
  841MOL0     H13490  12.211   7.290   7.784  0.3644 -1.5451  0.7541
  841MOL0     H13491  12.003   7.276   8.001 -1.6175  0.3310 -1.5918
  841MOL0     H13492  12.013   7.404   7.887 -0.2659 -1.8200 -0.7229
  841MOL0     H13493  12.120   7.515   8.037 -0.2770  0.2100  0.6514
  841MOL0     H13494  12.267   7.432   7.983 -1.5261  5.5400 -2.9407
  841MOL0     H13495  12.386   7.372   8.318  2.3445  2.8970 -2.2153
  841MOL0     H13496  12.407   7.521   8.511 -0.3502  0.1445  1.7524
  841MOL0     H13497  12.570   7.675   8.776 -0.6156 -2.9580  4.0375
  841MOL0     H13498  12.673   7.813   8.951  0.5559  0.0651  0.6083
  841MOL0     H13499  12.731   7.948   9.093  2.6683  0.0526  2.3404
  841MOL0     H13500  12.662   8.103   9.134  0.7181 -0.5950 -1.9894
  841MOL0     H13501  12.612   8.052   9.362  1.4239  0.4090  1.0016
  841MOL0     H13502  12.694   7.893   9.343  0.3717  1.0992  1.3176
  841MOL0     H13503  12.884   8.017   9.416  3.3226  0.0422 -1.0911
  841MOL0     H13504  12.899   8.007   9.254  3.5471  0.3569  1.7443
  841MOL0     H13505  12.776   8.248   9.410  0.1849  0.0062 -0.8517
  841MOL0     H13506  12.808   8.243   9.231  0.7547 -1.0186 -0.7603
  841MOL0     H13507  13.051   8.243   9.290  0.3996  2.9845 -0.2832
  841MOL0     H13508  13.012   8.230   9.461 -0.5605  2.5596  0.3316
  841MOL0     H13509  13.065   8.460   9.342  0.7151 -1.3974  1.0808
  841MOL0     H13510  12.894   8.460   9.304  1.9639  2.5269 -0.1843
  841MOL0     H13511  12.994   8.584   9.515  0.1108 -0.2450  2.0924
  841MOL0     H13512  13.025   8.418   9.575 -1.2624 -3.8813 -2.8526
  841MOL0     H13513  12.747   8.511   9.499 -0.3024  0.7626  1.8746
  841MOL0     H13514  12.791   8.363   9.580 -0.7488  1.1595 -1.9086
  841MOL0     H13515  12.271   7.922   9.072  0.4078 -0.2750  0.8296
  841MOL0     H13516  12.179   7.780   8.857  0.0049  1.1995 -0.8339
  841MOL0     H13517  12.011   7.677   8.439 -2.2778 -4.1982 -0.6227
  841MOL0     H13518  12.002   7.500   8.242 -1.4675  3.1314 -0.5142
  841MOL0     H13519  11.580   7.221   7.024  1.2257 -2.6044 -2.4173
  841MOL0     H13520  11.544   7.450   7.002 -1.1780  1.2208  1.0570
  841MOL0     H13521  11.453   7.787   6.975 -0.8465 -1.2458 -0.4141
  841MOL0     H13522  11.479   8.010   6.997  0.3687  0.8193 -1.0186
  841MOL0     H13523  11.460   8.337   6.906  1.0027 -0.1027 -0.3821
  841MOL0     H13524  11.412   8.244   7.049 -1.9414  0.5173  0.7804
  841MOL0     H13525  11.314   8.436   7.123 -0.9647 -0.9012  1.0779
  841MOL0     H13526  11.183   8.350   7.036  1.0150 -3.3415 -3.4622
  841MOL0     H13527  11.272   8.468   6.835 -0.4432  1.6090 -1.1477
  841MOL0     H13528  11.365   8.575   6.940  1.1534 -1.9211  1.0752
  841MOL0     H13529  11.119   8.633   6.869 -2.3786 -0.9411  0.4494
  841MOL0     H13530  11.065   8.543   7.007 -1.0071  0.8834 -1.2049
  841MOL0     H13531  11.227   8.879   7.206  0.9889 -1.0883  1.4341
  841MOL0     H13532  11.098   8.104   6.823  1.1815 -0.3564 -4.0996
  841MOL0     H13533  10.957   7.813   6.872 -1.7621  2.3051 -1.5640
  841MOL0     H13534  10.948   7.917   6.740  0.6602 -1.3976 -1.9206
  841MOL0     H13535  11.026   7.753   6.720 -1.0534 -2.9570  3.0162
  842MOL0     O13536   6.347  10.789   5.878 -0.6459  0.0747 -0.3090
  842MOL0     C13537   6.429  10.704   5.841  0.0234  0.0711  0.2455
  842MOL0     O13538   6.423  10.566   5.877  0.3863 -0.0932  0.1163
  842MOL0     C13539   6.308  10.520   5.947  0.3620  0.1095  0.3952
  842MOL0     C13540   6.182  10.501   5.882 -0.5960 -0.5202 -0.5488
  842MOL0     C13541   6.074  10.444   5.948 -0.1840 -0.9240 -0.1193
  842MOL0     C13542   6.088  10.399   6.077  0.0843 -0.3556 -0.5364
  842MOL0     O13543   5.976  10.352   6.146 -0.0242 -0.4921 -0.5047
  842MOL0     C13544   5.929  10.429   6.261  0.2536  0.6083 -0.0156
  842MOL0     C13545   5.787  10.386   6.289  0.0646  0.3175  0.2001
  842MOL0     C13546   5.689  10.413   6.171  0.1285 -0.6750 -0.1494
  842MOL0     C13547   5.674  10.569   6.144  0.6948  0.5225  1.0235
  842MOL0     C13548   5.613  10.590   6.006  0.1255  0.2433  0.1284
  842MOL0     C13549   5.614  10.734   5.969 -0.1922  0.2907  0.8641
  842MOL0     C13550   5.517  10.760   5.852 -0.3654  0.1140  0.3784
  842MOL0     C13551   5.547  10.688   5.724 -0.1025 -0.3928 -0.4607
  842MOL0     N13552   5.674  10.732   5.672 -0.4387 -0.0109  0.4449
  842MOL0     C13553   5.714  10.845   5.610  1.7000 -0.4320  0.3950
  842MOL0     C13554   5.832  10.821   5.554  0.5640 -0.3389 -0.2819
  842MOL0     C13555   5.907  10.929   5.491  0.3249 -0.0252 -0.7444
  842MOL0     C13556   6.045  10.954   5.548  0.0118  0.3685 -0.6927
  842MOL0     C13557   6.140  11.038   5.464 -0.9443  0.2123  0.2986
  842MOL0     C13558   6.169  10.979   5.316  0.4331  0.1846 -0.1031
  842MOL0     O13559   6.288  11.043   5.255  0.0212  0.2507 -0.5726
  842MOL0     C13560   6.265  11.125   5.151  0.2727 -0.4352 -0.6367
  842MOL0     C13561   6.359  11.121   5.049 -0.5877 -0.4265  0.7894
  842MOL0     C13562   6.340  11.204   4.939 -0.0230  0.3575  0.3933
  842MOL0     C13563   6.248  11.303   4.938 -0.2372 -0.6354  0.2920
  842MOL0     C13564   6.227  11.394   4.822 -0.2256 -0.2475 -0.6900
  842MOL0     O13565   6.110  11.468   4.814 -0.9207 -0.0584  0.2557
  842MOL0     C13566   6.108  11.571   4.720  0.0464 -0.7863 -0.3736
  842MOL0     C13567   6.137  11.552   4.595 -0.4171  0.4814 -0.0127
  842MOL0     C13568   6.157  11.665   4.511 -0.2806  1.0235 -0.1576
  842MOL0     C13569   6.121  11.792   4.555  0.6965  0.2145  0.5152
  842MOL0     O13570   6.146  11.887   4.455 -0.6788 -0.4497  0.0693
  842MOL0     C13571   6.154  12.020   4.494 -0.4651 -0.4260 -0.4527
  842MOL0     C13572   6.174  12.111   4.365  0.0381 -0.1907  1.3563
  842MOL0     C13573   6.315  12.094   4.307  0.5798  0.6681  0.1404
  842MOL0     C13574   6.351  12.171   4.178  0.7615  1.2081  0.4883
  842MOL0     C13575   6.501  12.158   4.139  0.0068  0.8483  0.1942
  842MOL0     C13576   6.527  12.231   4.007  0.6453  0.0057  0.4469
  842MOL0     C13577   6.684  12.229   3.986 -0.7392 -0.4908 -0.3658
  842MOL0     C13578   6.744  12.215   3.841  0.6017  0.2524  1.2105
  842MOL0    Cl13579   6.666  12.344   3.740 -0.1162 -0.6194  0.3854
  842MOL0     C13580   6.095  11.818   4.691  0.5923  0.5435  1.0079
  842MOL0     C13581   6.097  11.702   4.778 -1.2291  0.2074  0.0242
  842MOL0     O13582   6.324  11.398   4.748  0.6047  0.5501 -0.9927
  842MOL0     C13583   6.160  11.313   5.047  0.2902  0.7882  0.0878
  842MOL0     C13584   6.171  11.225   5.162 -0.3181 -0.0721 -0.0194
  842MOL0     N13585   5.871  10.698   5.600 -0.7568  0.6786  0.0098
  842MOL0     N13586   5.776  10.649   5.660 -0.3243 -0.2464  0.1712
  842MOL0     C13587   6.222  10.400   6.135  0.1933 -1.1446 -0.3291
  842MOL0     C13588   6.334  10.463   6.074 -0.2829  0.1862 -0.0864
  842MOL0     C13589   6.521  10.745   5.730  0.1039 -0.1317 -0.6945
  842MOL0     C13590   6.484  10.845   5.649 -0.9213  0.6432 -0.1172
  842MOL0     C13591   6.565  10.888   5.544  0.4153 -0.8954  0.0112
  842MOL0     C13592   6.692  10.837   5.537  0.0836 -0.0136 -0.6623
  842MOL0     O13593   6.786  10.877   5.437  0.2145 -0.3408 -1.0550
  842MOL0     C13594   6.757  10.993   5.354  1.1940  0.5315 -0.0445
  842MOL0     C13595   6.814  10.977   5.209 -0.1763  0.3208 -0.6829
  842MOL0     C13596   6.948  11.054   5.174  0.1618  0.3682 -1.0317
  842MOL0     C13597   7.075  10.972   5.224  0.6285  0.3226 -0.6905
  842MOL0     C13598   7.079  10.844   5.152  0.3666  0.7518  0.2616
  842MOL0     C13599   7.114  10.732   5.100  0.5302 -0.5716  0.2071
  842MOL0     C13600   6.719  10.723   5.610  0.0340 -0.2606  0.5409
  842MOL0     C13601   6.639  10.674   5.720 -0.3514 -0.8086  0.0109
  842MOL0     C13602   6.682  10.568   5.822 -0.3331 -0.3930  0.1990
  842MOL0     H13603   6.171  10.539   5.781 -3.3443 -0.1768 -0.2111
  842MOL0     H13604   5.975  10.447   5.904  0.2147  0.9368 -0.9847
  842MOL0     H13605   5.989  10.418   6.351  1.1224  1.1991 -0.5086
  842MOL0     H13606   5.931  10.536   6.239 -0.6722  1.3264  2.9983
  842MOL0     H13607   5.762  10.440   6.381  0.4692 -2.3662  1.9820
  842MOL0     H13608   5.779  10.283   6.326  1.0148  0.8315  1.9849
  842MOL0     H13609   5.587  10.380   6.191 -1.3873  3.8150  0.6474
  842MOL0     H13610   5.723  10.355   6.084 -0.7563 -1.5867  0.0924
  842MOL0     H13611   5.612  10.605   6.227  0.1944  1.0239  0.4503
  842MOL0     H13612   5.767  10.626   6.142  1.4465 -0.6696  1.0395
  842MOL0     H13613   5.665  10.533   5.928 -0.1347  1.4998 -1.0113
  842MOL0     H13614   5.511  10.552   6.015 -0.1183  1.3001  2.9465
  842MOL0     H13615   5.567  10.783   6.054  0.7754 -0.5860  1.9389
  842MOL0     H13616   5.713  10.771   5.940 -0.6736 -0.4660 -2.1022
  842MOL0     H13617   5.519  10.870   5.845 -0.1322  0.1019  0.2158
  842MOL0     H13618   5.421  10.717   5.879  1.0813 -2.4738  1.7817
  842MOL0     H13619   5.550  10.582   5.748  1.0815  0.0811  1.7097
  842MOL0     H13620   5.476  10.705   5.642 -2.7636 -1.3796  1.5009
  842MOL0     H13621   5.638  10.922   5.600 -0.1435 -2.2344 -0.3087
  842MOL0     H13622   5.917  10.909   5.384  0.5235  1.2006 -0.9637
  842MOL0     H13623   5.846  11.020   5.496  1.6163  0.9574 -2.1253
  842MOL0     H13624   6.027  11.006   5.643 -1.4386 -1.9833  0.4249
  842MOL0     H13625   6.091  10.856   5.565  0.9661  1.1497  1.7468
  842MOL0     H13626   6.226  11.053   5.530 -2.7757  4.0313  2.1581
  842MOL0     H13627   6.096  11.138   5.458 -0.1820  0.4939 -1.0881
  842MOL0     H13628   6.075  10.992   5.263 -0.9807 -2.4780  1.5156
  842MOL0     H13629   6.178  10.873   5.341 -1.9635  0.2007  1.1584
  842MOL0     H13630   6.438  11.046   5.045  0.5589  0.5866  2.7695
  842MOL0     H13631   6.398  11.211   4.848 -4.9774 -2.3494 -3.4458
  842MOL0     H13632   6.154  11.455   4.550 -0.6934 -0.1282  1.1743
  842MOL0     H13633   6.197  11.656   4.411  2.1446 -1.6733  0.9045
  842MOL0     H13634   6.054  12.054   4.524 -0.5496 -1.2712  0.2554
  842MOL0     H13635   6.228  12.043   4.571  1.4797  1.5384 -2.7432
  842MOL0     H13636   6.109  12.075   4.284 -1.1773 -0.4375  2.4159
  842MOL0     H13637   6.156  12.219   4.375 -0.6406  0.1234 -1.8713
  842MOL0     H13638   6.380  12.101   4.395 -0.7897  1.7362  1.1181
  842MOL0     H13639   6.315  11.989   4.278  0.1218  0.4192  1.0040
  842MOL0     H13640   6.327  12.277   4.186  1.3022  1.2631  1.4943
  842MOL0     H13641   6.301  12.125   4.092  1.4910  0.8304  0.2522
  842MOL0     H13642   6.525  12.052   4.136  1.8336  1.1616  1.7394
  842MOL0     H13643   6.561  12.194   4.224  0.9662  1.7406 -0.8329
  842MOL0     H13644   6.484  12.179   3.921 -0.6990 -1.3679  1.9087
  842MOL0     H13645   6.486  12.332   3.997 -1.7558 -1.0431 -1.1044
  842MOL0     H13646   6.715  12.144   4.048 -3.8675  0.2013  2.4276
  842MOL0     H13647   6.729  12.318   4.030 -3.4676 -0.4016  2.6045
  842MOL0     H13648   6.853  12.224   3.845  0.9565 -2.4651  0.1804
  842MOL0     H13649   6.717  12.114   3.808  3.1306 -0.8498  2.2070
  842MOL0     H13650   6.069  11.917   4.726  1.3627  0.5050  1.7382
  842MOL0     H13651   6.086  11.705   4.886  1.6116  0.0384  0.3898
  842MOL0     H13652   6.073  11.378   5.042  1.5144  2.3685 -2.1754
  842MOL0     H13653   6.112  11.249   5.250  0.8528  0.4889  0.6380
  842MOL0     H13654   6.233  10.363   6.237 -1.2925 -0.6662  0.0353
  842MOL0     H13655   6.430  10.448   6.124 -0.2085  1.5966  0.2515
  842MOL0     H13656   6.392  10.900   5.669  1.5816  3.8976  4.0303
  842MOL0     H13657   6.521  10.972   5.492 -0.9896 -1.7658 -0.2483
  842MOL0     H13658   6.805  11.080   5.400 -4.1552  2.3076  3.0332
  842MOL0     H13659   6.650  11.016   5.348  1.7988  3.2729 -3.6750
  842MOL0     H13660   6.738  11.012   5.139 -0.4068  0.1849 -0.5051
  842MOL0     H13661   6.830  10.870   5.194 -1.4470 -0.2134  1.3655
  842MOL0     H13662   6.940  11.151   5.224  0.8740  1.4773 -2.9464
  842MOL0     H13663   6.950  11.076   5.067 -5.1905 -1.9114 -1.9220
  842MOL0     H13664   7.172  11.018   5.200  1.0940 -0.7483 -0.9115
  842MOL0     H13665   7.057  10.961   5.331  2.4620  0.7771 -0.3000
  842MOL0     H13666   7.147  10.639   5.059  1.7863 -2.4755  4.9365
  842MOL0     H13667   6.813  10.676   5.582  0.4760  0.3224  1.0223
  842MOL0     H13668   6.657  10.590   5.926 -2.8258 -1.2791 -0.1388
  842MOL0     H13669   6.644  10.467   5.803 -2.8398  0.5302 -0.0796
  842MOL0     H13670   6.789  10.569   5.801 -0.7865 -0.8063 -2.5267
  843MOL0     O13671   7.804   7.764   0.414 -0.0171 -1.0758 -0.7029
  843MOL0     C13672   7.795   7.875   0.358 -0.3409 -0.2822 -0.1637
  843MOL0     O13673   7.860   7.916   0.245  0.1576  0.4915 -0.0063
  843MOL0     C13674   7.979   7.857   0.204 -0.3301 -0.8263  0.4438
  843MOL0     C13675   8.015   7.873   0.067  0.2884  0.6876  0.8996
  843MOL0     C13676   8.129   7.825   0.003  1.0164 -0.7688 -0.4982
  843MOL0     C13677   8.220   7.758   0.089 -0.1799 -0.7540  0.7279
  843MOL0     O13678   8.336   7.708   0.036  0.0857  0.2575  0.2651
  843MOL0     C13679   8.343   7.633  -0.091 -0.2908  0.4490  0.8784
  843MOL0     C13680   8.407   7.716  -0.204  0.5490 -0.5600 -0.0962
  843MOL0     C13681   8.564   7.709  -0.205 -0.8864  0.2433 -0.1169
  843MOL0     C13682   8.623   7.779  -0.323 -0.3867 -0.9267  0.2999
  843MOL0     C13683   8.776   7.806  -0.301 -0.1360 -0.4650  0.2592
  843MOL0     C13684   8.824   7.906  -0.410  0.4149  0.9373  1.0477
  843MOL0     C13685   8.967   7.906  -0.446  0.2619  0.0507 -0.2802
  843MOL0     C13686   9.002   8.029  -0.523 -0.8682 -0.4866 -0.4931
  843MOL0     N13687   9.151   8.056  -0.535 -0.0593  0.1963  0.1694
  843MOL0     C13688   9.223   8.071  -0.648  0.8294  0.5199  1.2753
  843MOL0     C13689   9.345   8.079  -0.609 -0.7456 -0.4053  0.8359
  843MOL0     C13690   9.464   8.119  -0.691 -0.2896 -0.2290 -0.7477
  843MOL0     C13691   9.530   8.246  -0.641 -0.6180  0.2321 -0.5227
  843MOL0     C13692   9.439   8.370  -0.646  0.0660 -0.4251 -0.2392
  843MOL0     C13693   9.526   8.487  -0.590 -0.0657  0.9410 -0.1021
  843MOL0     O13694   9.627   8.509  -0.687 -0.3118 -0.4117  1.2825
  843MOL0     C13695   9.732   8.579  -0.648 -0.3830 -0.6370  0.2279
  843MOL0     C13696   9.703   8.690  -0.561  0.7505  0.5392 -0.1988
  843MOL0     C13697   9.805   8.776  -0.520  0.4987 -0.8275 -0.5819
  843MOL0     C13698   9.935   8.757  -0.573  0.0798 -0.0224 -0.9047
  843MOL0     C13699  10.047   8.834  -0.526 -0.2182 -0.9714  1.1281
  843MOL0     O13700  10.171   8.778  -0.542  0.0481  0.4742  0.2060
  843MOL0     C13701  10.285   8.835  -0.483  0.5801  0.7715  0.1398
  843MOL0     C13702  10.365   8.776  -0.376  0.6028 -0.7218  0.2308
  843MOL0     C13703  10.487   8.835  -0.327  0.4271 -0.6705 -0.1650
  843MOL0     C13704  10.520   8.966  -0.366  0.9157 -0.5663 -0.4285
  843MOL0     O13705  10.629   9.021  -0.293 -0.4818 -0.8573 -0.1018
  843MOL0     C13706  10.643   9.164  -0.296 -0.8029 -0.1405  0.2093
  843MOL0     C13707  10.790   9.204  -0.247  0.7425  0.2562  0.7053
  843MOL0     C13708  10.838   9.118  -0.131  0.0324 -0.1749  0.3987
  843MOL0     C13709  10.756   9.125  -0.012  0.6620  0.7064  0.1779
  843MOL0     C13710  10.824   9.082   0.121  0.0117  1.1427 -0.3497
  843MOL0     C13711  10.870   9.205   0.194 -0.1225 -0.2142  0.4268
  843MOL0     C13712  10.949   9.180   0.311 -0.1746  0.0792 -0.8534
  843MOL0     C13713  10.959   9.311   0.391  0.4041 -0.0733  0.7259
  843MOL0    Cl13714  11.061   9.296   0.541  0.0013  0.1763  0.1324
  843MOL0     C13715  10.437   9.032  -0.463  0.7329  0.6352  0.5475
  843MOL0     C13716  10.334   8.966  -0.531 -0.7985  0.2740 -0.9584
  843MOL0     O13717  10.023   8.944  -0.479  0.2429  0.7165  0.0322
  843MOL0     C13718   9.965   8.658  -0.671  0.1372  0.3531 -0.6548
  843MOL0     C13719   9.862   8.561  -0.695 -0.0721 -0.4766  0.0349
  843MOL0     N13720   9.354   8.067  -0.477 -0.2839 -0.5160 -0.1291
  843MOL0     N13721   9.236   8.057  -0.427 -0.1340 -0.5484 -0.4899
  843MOL0     C13722   8.196   7.747   0.227  0.5486  1.0123  0.3752
  843MOL0     C13723   8.070   7.786   0.283 -1.0364  0.6293 -0.3088
  843MOL0     C13724   7.684   7.974   0.398 -0.8231  0.1286 -0.4010
  843MOL0     C13725   7.687   8.103   0.336 -0.7773 -0.3036 -0.6337
  843MOL0     C13726   7.587   8.193   0.368 -1.1365  0.4155  0.0938
  843MOL0     C13727   7.504   8.181   0.474  1.4249  0.6703 -0.4574
  843MOL0     O13728   7.424   8.283   0.502  0.5077 -1.5305  0.1538
  843MOL0     C13729   7.300   8.265   0.559 -0.0838 -0.2445 -0.2107
  843MOL0     C13730   7.192   8.318   0.472 -0.3051  0.5668  0.4964
  843MOL0     C13731   7.186   8.474   0.468  0.2013  0.8002 -0.3419
  843MOL0     C13732   7.053   8.516   0.402  0.2302  0.6441 -0.7410
  843MOL0     C13733   7.078   8.657   0.394  0.1063  0.1857 -0.0863
  843MOL0     C13734   7.090   8.783   0.395  0.0460 -0.3345 -0.1215
  843MOL0     C13735   7.511   8.060   0.544 -0.2196 -0.0755  0.2251
  843MOL0     C13736   7.597   7.955   0.505  0.0644 -0.9053 -0.6979
  843MOL0     C13737   7.593   7.829   0.597  0.0024 -0.0310  0.6834
  843MOL0     H13738   7.947   7.931   0.005 -0.4587 -0.0964  0.9557
  843MOL0     H13739   8.154   7.842  -0.101 -4.4266  3.2218 -1.6325
  843MOL0     H13740   8.401   7.541  -0.083  1.5164  1.2580 -1.7366
  843MOL0     H13741   8.243   7.613  -0.131  0.7573  0.2182 -1.8858
  843MOL0     H13742   8.376   7.820  -0.211  0.4381 -0.6849 -1.9458
  843MOL0     H13743   8.366   7.673  -0.296 -1.4997  1.6082 -0.2950
  843MOL0     H13744   8.596   7.604  -0.214  3.4296  1.3387  0.2187
  843MOL0     H13745   8.598   7.734  -0.105  1.8505 -0.3197 -0.8257
  843MOL0     H13746   8.623   7.704  -0.402  2.9441 -0.6024 -0.1816
  843MOL0     H13747   8.571   7.868  -0.360  0.3889 -0.3990  0.4323
  843MOL0     H13748   8.787   7.845  -0.199  1.3023 -2.9073  1.1311
  843MOL0     H13749   8.830   7.712  -0.313  0.8107  0.3728 -2.8110
  843MOL0     H13750   8.778   7.865  -0.501 -1.1571  3.2462  0.7352
  843MOL0     H13751   8.777   8.001  -0.386  0.0556  0.4935  2.1682
  843MOL0     H13752   8.998   7.819  -0.503  3.0807  2.4132 -2.6702
  843MOL0     H13753   9.014   7.906  -0.347 -1.3494 -1.3134  0.5271
  843MOL0     H13754   8.968   8.015  -0.626 -1.2584  1.7003 -0.7029
  843MOL0     H13755   8.952   8.117  -0.482  2.2642  1.6904 -1.0503
  843MOL0     H13756   9.188   8.084  -0.750  0.4860  0.3473  1.3726
  843MOL0     H13757   9.533   8.036  -0.705 -4.1411 -3.5411 -2.2462
  843MOL0     H13758   9.423   8.130  -0.792  2.3167 -0.9135 -1.9535
  843MOL0     H13759   9.564   8.234  -0.537 -2.0088 -0.0652 -0.0803
  843MOL0     H13760   9.624   8.250  -0.696 -0.6406  0.0193 -0.5744
  843MOL0     H13761   9.343   8.354  -0.596 -0.2867  0.8531 -0.4755
  843MOL0     H13762   9.425   8.389  -0.753  1.2104  0.3499 -0.2670
  843MOL0     H13763   9.560   8.473  -0.487 -2.2278  0.2297  0.5677
  843MOL0     H13764   9.447   8.562  -0.576 -1.0391 -0.3758  1.9191
  843MOL0     H13765   9.608   8.708  -0.512  0.6771 -2.1397  0.8378
  843MOL0     H13766   9.780   8.855  -0.450 -2.1191 -0.6625 -1.5886
  843MOL0     H13767  10.341   8.678  -0.338 -0.2317  0.0991  1.9054
  843MOL0     H13768  10.549   8.791  -0.249  1.0315 -2.1531 -1.4208
  843MOL0     H13769  10.624   9.207  -0.395  2.5919 -2.6868 -1.7751
  843MOL0     H13770  10.571   9.213  -0.230 -1.0786 -0.0433 -0.1649
  843MOL0     H13771  10.858   9.168  -0.325  2.3703 -1.7916  2.9070
  843MOL0     H13772  10.806   9.312  -0.243 -0.1376  0.4590 -0.6467
  843MOL0     H13773  10.841   9.016  -0.169 -2.2451  0.2399 -1.0406
  843MOL0     H13774  10.937   9.151  -0.099 -0.4351  1.8226 -0.0958
  843MOL0     H13775  10.683   9.044  -0.023 -0.5447  1.8907 -0.7995
  843MOL0     H13776  10.694   9.215  -0.008 -0.9926 -0.4023  0.9345
  843MOL0     H13777  10.906   9.011   0.106 -1.8964 -1.8436  1.9401
  843MOL0     H13778  10.756   9.031   0.191  0.4618  2.1727  0.8869
  843MOL0     H13779  10.925   9.276   0.131  0.2934  0.7159  1.8132
  843MOL0     H13780  10.782   9.262   0.223 -0.1723 -0.4379  0.7282
  843MOL0     H13781  11.044   9.138   0.279 -0.4866  0.7893 -2.8368
  843MOL0     H13782  10.902   9.110   0.382  1.0572  0.5098  0.4174
  843MOL0     H13783  11.002   9.390   0.328  1.8603 -1.1913  0.2696
  843MOL0     H13784  10.860   9.339   0.428  0.8378  0.8413  1.2359
  843MOL0     H13785  10.470   9.130  -0.494  0.1972  0.2772 -1.2925
  843MOL0     H13786  10.279   9.012  -0.612 -1.3284 -2.7309 -2.4343
  843MOL0     H13787  10.060   8.661  -0.723 -0.5067 -0.2806 -1.9229
  843MOL0     H13788   9.891   8.484  -0.766  4.7249 -0.0136  1.1499
  843MOL0     H13789   8.272   7.698   0.287  0.5869 -1.0290 -1.2333
  843MOL0     H13790   8.058   7.783   0.390 -1.1243 -0.8467 -0.3306
  843MOL0     H13791   7.759   8.132   0.259  1.3436  1.8871  1.9552
  843MOL0     H13792   7.595   8.294   0.330 -2.9174  0.6747  0.3147
  843MOL0     H13793   7.293   8.328   0.649 -1.7159 -0.5586 -0.0989
  843MOL0     H13794   7.276   8.162   0.585  3.7597 -1.2745 -0.1322
  843MOL0     H13795   7.096   8.276   0.505 -2.2208  4.3159  0.2758
  843MOL0     H13796   7.206   8.275   0.372 -0.6604 -0.4242  0.8596
  843MOL0     H13797   7.275   8.494   0.407  1.4426 -2.9048 -0.0594
  843MOL0     H13798   7.200   8.500   0.573 -1.5647 -2.4064  0.8398
  843MOL0     H13799   7.027   8.483   0.301 -0.7330  0.2000 -0.3628
  843MOL0     H13800   6.970   8.488   0.468  1.0021 -0.2280 -0.1234
  843MOL0     H13801   7.095   8.890   0.388  0.4914 -0.4420 -2.4687
  843MOL0     H13802   7.442   8.049   0.628 -0.1343 -1.5113  0.1315
  843MOL0     H13803   7.562   7.743   0.537  0.7117 -0.0512  0.3357
  843MOL0     H13804   7.681   7.806   0.656 -0.7950  1.3422  2.4978
  843MOL0     H13805   7.509   7.847   0.665  0.5684 -0.1577  1.4163
  844MOL0     O13806   0.225   2.572   8.301 -0.9061  0.4685  0.2095
  844MOL0     C13807   0.328   2.638   8.313 -0.0100  0.3087 -0.1616
  844MOL0     O13808   0.357   2.752   8.245  0.0458 -0.0356  0.2052
  844MOL0     C13809   0.257   2.803   8.175  0.3653 -0.4672 -0.4865
  844MOL0     C13810   0.175   2.908   8.228  0.0396  0.1794  0.5150
  844MOL0     C13811   0.078   2.963   8.147 -0.4959 -0.4185  0.4042
  844MOL0     C13812   0.050   2.919   8.017  0.3539  0.1884  0.3549
  844MOL0     O13813  -0.058   2.985   7.952 -0.4188 -1.0789  0.5259
  844MOL0     C13814  -0.051   2.976   7.807 -0.2940 -0.3682  0.2893
  844MOL0     C13815  -0.129   3.073   7.724 -0.0372 -0.4696 -0.5445
  844MOL0     C13816  -0.128   3.215   7.786  0.6101 -0.5287 -0.1530
  844MOL0     C13817   0.005   3.286   7.767 -0.9764  0.9683  0.1990
  844MOL0     C13818   0.030   3.390   7.874 -0.2548  0.3536 -0.7030
  844MOL0     C13819  -0.079   3.494   7.908 -0.2734 -0.5128  0.0439
  844MOL0     C13820  -0.045   3.602   8.011 -1.4183  0.7176 -0.5446
  844MOL0     C13821   0.079   3.691   7.970  0.0872  0.3683  0.8453
  844MOL0     N13822   0.062   3.773   7.848  0.3660 -0.2826 -0.0112
  844MOL0     C13823   0.167   3.826   7.792 -0.8574 -0.3632 -0.0507
  844MOL0     C13824   0.112   3.882   7.678  0.1355  0.1030 -0.3860
  844MOL0     C13825   0.181   3.945   7.564 -0.3291 -0.6750  0.7015
  844MOL0     C13826   0.267   4.060   7.624 -0.5076  0.5298 -0.1441
  844MOL0     C13827   0.184   4.180   7.669 -0.6859  0.4999 -0.3632
  844MOL0     C13828   0.265   4.305   7.692 -0.8621 -0.6093 -0.4830
  844MOL0     O13829   0.186   4.389   7.776  0.5934 -0.0427 -0.2179
  844MOL0     C13830   0.206   4.524   7.769  0.4168  0.1193 -0.0745
  844MOL0     C13831   0.116   4.599   7.845  0.3757  0.4176 -1.0534
  844MOL0     C13832   0.124   4.738   7.852 -0.4213 -0.9873 -0.1147
  844MOL0     C13833   0.220   4.813   7.771  0.0419 -0.3626  0.4773
  844MOL0     C13834   0.227   4.966   7.762  0.1809  0.2372  0.6859
  844MOL0     O13835   0.347   5.023   7.707 -0.7160  0.8524 -0.1798
  844MOL0     C13836   0.358   5.159   7.711  0.1000 -0.5493  0.2455
  844MOL0     C13837   0.470   5.189   7.626  0.1776 -0.5735 -0.3287
  844MOL0     C13838   0.506   5.324   7.622 -1.2168 -0.1315  0.0900
  844MOL0     C13839   0.460   5.418   7.703  0.0854  0.9614  0.9914
  844MOL0     O13840   0.521   5.542   7.691  0.2615 -0.7079 -0.1887
  844MOL0     C13841   0.430   5.650   7.687 -1.1718 -0.7897 -0.9506
  844MOL0     C13842   0.462   5.750   7.794 -0.1580 -0.3783 -0.7865
  844MOL0     C13843   0.356   5.864   7.787 -0.3383  0.6371 -0.2549
  844MOL0     C13844   0.437   5.992   7.814  0.6476 -0.0864 -0.1232
  844MOL0     C13845   0.495   6.059   7.689  0.9355 -0.4435  0.0530
  844MOL0     C13846   0.595   6.170   7.721 -0.6868  0.0704 -0.4196
  844MOL0     C13847   0.526   6.294   7.771  0.3360  0.3799  0.7726
  844MOL0     C13848   0.634   6.407   7.782  0.5706 -0.7015 -0.9190
  844MOL0    Cl13849   0.661   6.444   7.962  0.4340 -0.0125  0.4509
  844MOL0     C13850   0.358   5.387   7.794 -0.1305  0.1246 -0.7135
  844MOL0     C13851   0.296   5.266   7.786  0.4555  0.2868 -0.3308
  844MOL0     O13852   0.138   5.029   7.818  0.9504  0.7548  0.7130
  844MOL0     C13853   0.307   4.734   7.687 -0.6452  0.9904 -1.4805
  844MOL0     C13854   0.297   4.591   7.688 -1.1054 -1.2338 -0.2564
  844MOL0     N13855  -0.027   3.871   7.680  0.2354  0.4086  0.2082
  844MOL0     N13856  -0.061   3.809   7.793 -0.5135 -0.1068 -0.7706
  844MOL0     C13857   0.120   2.813   7.969  0.2688  0.3200 -1.0306
  844MOL0     C13858   0.232   2.755   8.039 -0.0441  0.4791 -0.5053
  844MOL0     C13859   0.439   2.572   8.392  0.7655 -1.3614 -0.6062
  844MOL0     C13860   0.549   2.656   8.409 -0.1970 -0.1934 -0.6172
  844MOL0     C13861   0.660   2.629   8.491 -0.7512  0.0921 -0.0546
  844MOL0     C13862   0.673   2.499   8.529  0.3532 -0.6433 -0.5096
  844MOL0     O13863   0.784   2.474   8.604  0.7764  0.1546  0.1454
  844MOL0     C13864   0.826   2.336   8.608  0.7228  0.1678  0.4760
  844MOL0     C13865   0.967   2.308   8.657 -0.4832 -0.4869 -0.5652
  844MOL0     C13866   1.011   2.163   8.643 -0.2828 -0.0444 -0.5008
  844MOL0     C13867   1.163   2.138   8.619  0.1184  0.2016 -0.3944
  844MOL0     C13868   1.205   2.013   8.685  0.5686  0.2122  0.3486
  844MOL0     C13869   1.246   1.894   8.706  0.9981 -0.5810  0.6998
  844MOL0     C13870   0.558   2.412   8.516  0.5742  0.3184  0.5861
  844MOL0     C13871   0.438   2.452   8.455  0.0938  0.3783 -0.3050
  844MOL0     C13872   0.324   2.345   8.446  0.0495 -0.2853 -0.5164
  844MOL0     H13873   0.198   2.945   8.328  2.3952 -0.1127  0.1352
  844MOL0     H13874   0.027   3.053   8.180  0.8733  0.3940  0.3884
  844MOL0     H13875   0.056   2.972   7.785 -0.0425  0.7330  1.2129
  844MOL0     H13876  -0.079   2.873   7.782  3.5765 -1.6773  0.6625
  844MOL0     H13877  -0.235   3.044   7.725 -1.8987  5.1699  0.4811
  844MOL0     H13878  -0.088   3.074   7.622  1.3079  2.4540 -0.0685
  844MOL0     H13879  -0.147   3.206   7.894 -0.1878 -1.8262 -0.3802
  844MOL0     H13880  -0.204   3.275   7.737  3.5150  2.5959 -1.2563
  844MOL0     H13881   0.089   3.216   7.758  1.0116  3.3829 -1.1676
  844MOL0     H13882   0.003   3.344   7.675 -0.9620  2.5407  1.1479
  844MOL0     H13883   0.065   3.347   7.968 -5.9775  0.2512  1.7744
  844MOL0     H13884   0.114   3.447   7.833 -0.3552 -0.1691 -1.6618
  844MOL0     H13885  -0.111   3.553   7.822 -1.5012 -1.2125 -0.0014
  844MOL0     H13886  -0.166   3.435   7.939 -0.8791 -1.1769 -2.7077
  844MOL0     H13887  -0.016   3.551   8.103  0.6345 -0.6616 -1.8445
  844MOL0     H13888  -0.122   3.678   8.013  0.6496  3.0487 -2.3958
  844MOL0     H13889   0.101   3.768   8.045 -1.6653  1.9119 -0.1190
  844MOL0     H13890   0.165   3.624   7.963 -2.3928 -3.0548  1.0529
  844MOL0     H13891   0.274   3.813   7.805 -1.2803 -1.4764  3.1443
  844MOL0     H13892   0.250   3.875   7.514 -2.4332 -1.7820 -0.8089
  844MOL0     H13893   0.119   3.986   7.484 -1.0500 -0.9307  1.1301
  844MOL0     H13894   0.321   4.026   7.712 -1.8908  2.5968  1.6203
  844MOL0     H13895   0.344   4.100   7.557 -0.9214  0.4008 -0.7082
  844MOL0     H13896   0.132   4.162   7.764 -2.8391  3.8161 -0.7755
  844MOL0     H13897   0.120   4.207   7.585 -2.0843 -0.0468  0.4844
  844MOL0     H13898   0.290   4.349   7.595  1.7642 -1.8207 -0.4418
  844MOL0     H13899   0.359   4.278   7.742  0.1668  1.1265 -1.3877
  844MOL0     H13900   0.044   4.547   7.907  1.5037  0.6623  0.5370
  844MOL0     H13901   0.056   4.802   7.907 -0.9572 -0.9681 -0.7750
  844MOL0     H13902   0.528   5.110   7.578  2.5635 -0.1538  1.6671
  844MOL0     H13903   0.589   5.356   7.559 -3.3463  1.4705 -2.0776
  844MOL0     H13904   0.433   5.701   7.590 -0.8730  1.3649  0.1255
  844MOL0     H13905   0.324   5.626   7.694 -2.4057  3.6698 -1.2770
  844MOL0     H13906   0.462   5.710   7.896 -1.5715  0.4630 -0.4156
  844MOL0     H13907   0.564   5.785   7.775  0.7023 -1.8592  0.8534
  844MOL0     H13908   0.312   5.865   7.686 -0.1543  0.6250 -0.3361
  844MOL0     H13909   0.278   5.847   7.862  1.4665 -2.7464  1.0888
  844MOL0     H13910   0.504   5.977   7.899 -1.0163 -0.3586  1.1920
  844MOL0     H13911   0.368   6.067   7.853 -1.5407 -1.3072 -1.4532
  844MOL0     H13912   0.419   6.084   7.614  0.1063 -0.9869  0.6978
  844MOL0     H13913   0.550   5.976   7.646 -2.3688 -3.8324  1.7466
  844MOL0     H13914   0.663   6.138   7.801 -4.6523 -2.0178  2.4662
  844MOL0     H13915   0.657   6.187   7.633 -1.5654 -1.3784 -1.3482
  844MOL0     H13916   0.482   6.276   7.870 -0.1160  1.6032  0.8200
  844MOL0     H13917   0.448   6.325   7.700 -2.3154 -2.9559  1.9559
  844MOL0     H13918   0.722   6.379   7.723  2.7526  5.1568 -1.0330
  844MOL0     H13919   0.613   6.500   7.730  1.2478  0.0504  0.1213
  844MOL0     H13920   0.336   5.451   7.879  0.6215 -1.8496  1.0395
  844MOL0     H13921   0.232   5.239   7.870  3.5377  1.1996  2.5428
  844MOL0     H13922   0.385   4.770   7.621 -0.1159 -2.7702 -3.1603
  844MOL0     H13923   0.367   4.521   7.643  1.3698  1.4077 -0.8005
  844MOL0     H13924   0.094   2.766   7.875 -1.9282 -2.7772  0.9233
  844MOL0     H13925   0.296   2.685   7.987 -1.6762  0.2987 -2.3993
  844MOL0     H13926   0.554   2.759   8.374 -1.0655 -0.7886 -2.6039
  844MOL0     H13927   0.735   2.703   8.518 -1.4721  1.3571 -1.4120
  844MOL0     H13928   0.845   2.312   8.503  2.5805 -2.0556  1.2324
  844MOL0     H13929   0.757   2.262   8.651  0.7803 -1.8315 -2.5647
  844MOL0     H13930   0.982   2.319   8.765 -1.2499 -3.6138 -0.0351
  844MOL0     H13931   1.034   2.376   8.604 -0.7874 -1.1994 -1.9059
  844MOL0     H13932   0.950   2.110   8.570  0.8371 -0.3809 -1.2235
  844MOL0     H13933   0.991   2.120   8.741 -2.4646  0.6869 -0.5761
  844MOL0     H13934   1.182   2.129   8.512  0.8663 -1.2186 -0.1721
  844MOL0     H13935   1.219   2.225   8.653  1.3556  0.2308 -2.3419
  844MOL0     H13936   1.314   1.818   8.738 -0.4502 -0.7287  3.8823
  844MOL0     H13937   0.569   2.312   8.556 -0.9167 -0.1965 -0.1992
  844MOL0     H13938   0.233   2.396   8.476  0.9035 -0.0309  1.8699
  844MOL0     H13939   0.330   2.305   8.344 -0.0303 -0.5587 -0.4152
  844MOL0     H13940   0.350   2.261   8.512  2.0898  1.2322  0.7241
  845MOL0     O13941   9.975   0.773   5.829  0.6434  0.1261  1.0836
  845MOL0     C13942  10.055   0.792   5.923  1.3381 -0.1866 -0.1875
  845MOL0     O13943  10.110   0.917   5.953  0.2312  0.3352  0.4451
  845MOL0     C13944  10.250   0.918   5.966  0.3130  0.7306  0.5086
  845MOL0     C13945  10.277   1.000   6.079 -0.1949 -0.1171 -0.5012
  845MOL0     C13946  10.411   0.999   6.117 -0.5133  0.0872 -0.4886
  845MOL0     C13947  10.513   0.924   6.061  0.8149  0.4068 -0.2355
  845MOL0     O13948  10.637   0.942   6.103  0.5140  0.5387 -0.0156
  845MOL0     C13949  10.736   0.966   6.003 -0.1353  0.5312  0.3468
  845MOL0     C13950  10.868   0.991   6.079 -0.3165 -0.9428  0.9356
  845MOL0     C13951  10.903   0.892   6.192 -0.2351 -0.4347  0.2414
  845MOL0     C13952  11.029   0.933   6.269 -0.6378  0.1414  0.7210
  845MOL0     C13953  11.061   0.813   6.353 -0.7199 -0.2902  0.0428
  845MOL0     C13954  11.187   0.817   6.427  0.2293 -0.8080  0.4094
  845MOL0     C13955  11.213   0.954   6.499 -0.5422  0.1859 -0.5763
  845MOL0     C13956  11.309   0.937   6.624  0.3394 -0.5937 -0.2253
  845MOL0     N13957  11.445   0.987   6.594  0.3411 -0.8961 -0.2305
  845MOL0     C13958  11.494   1.113   6.648  0.9199  1.0377  0.4610
  845MOL0     C13959  11.610   1.141   6.591  0.5040 -0.2953  0.2342
  845MOL0     C13960  11.686   1.265   6.615 -0.2049 -1.1005  1.3774
  845MOL0     C13961  11.808   1.244   6.704 -0.0719 -0.3120 -0.4131
  845MOL0     C13962  11.874   1.385   6.723 -0.9218 -0.1839 -0.8185
  845MOL0     C13963  11.988   1.410   6.619  0.6858 -0.3163 -0.5478
  845MOL0     O13964  12.054   1.532   6.646 -0.5599  0.4325  0.3395
  845MOL0     C13965  12.004   1.643   6.587 -0.2293 -0.1238 -0.6967
  845MOL0     C13966  11.871   1.664   6.540  0.0144 -0.3296  0.0261
  845MOL0     C13967  11.819   1.785   6.504  0.3193  1.5003 -0.7175
  845MOL0     C13968  11.893   1.899   6.500 -0.9007  0.3109 -0.1424
  845MOL0     C13969  11.831   2.020   6.452 -0.1971 -0.4303 -0.0850
  845MOL0     O13970  11.708   2.022   6.379  0.1644 -0.1808  0.3543
  845MOL0     C13971  11.650   2.144   6.354  0.0925  1.3198  0.3501
  845MOL0     C13972  11.686   2.211   6.234 -0.6411  0.4946 -0.3095
  845MOL0     C13973  11.613   2.330   6.212 -0.8133 -0.0884  0.6496
  845MOL0     C13974  11.512   2.370   6.298 -0.4012  0.2870 -0.6677
  845MOL0     O13975  11.437   2.478   6.258 -0.5798 -0.2679 -0.2869
  845MOL0     C13976  11.298   2.460   6.231  0.8006  0.4056 -0.3205
  845MOL0     C13977  11.261   2.364   6.125  0.4035 -0.4239 -0.1899
  845MOL0     C13978  11.107   2.356   6.087  0.8888 -0.3781  1.0724
  845MOL0     C13979  11.023   2.299   6.202 -0.5362  0.1409 -0.3373
  845MOL0     C13980  10.879   2.336   6.189 -0.1409  0.3563  0.0604
  845MOL0     C13981  10.809   2.214   6.248 -1.3094  0.2319  0.2067
  845MOL0     C13982  10.659   2.239   6.261 -0.8950  0.9139  0.2633
  845MOL0     C13983  10.593   2.109   6.293 -0.6890 -0.3891 -0.0153
  845MOL0    Cl13984  10.425   2.152   6.338  0.6605  0.0916 -0.2742
  845MOL0     C13985  11.484   2.305   6.418 -0.0658  0.0235 -0.0675
  845MOL0     C13986  11.561   2.195   6.448 -0.0894 -0.6029 -1.0330
  845MOL0     O13987  11.899   2.122   6.480  0.0976  0.3528  0.1833
  845MOL0     C13988  12.016   1.886   6.570  0.8948 -0.9068  0.4620
  845MOL0     C13989  12.071   1.765   6.604  0.3536 -0.4230 -0.3712
  845MOL0     N13990  11.632   1.040   6.492 -0.2860 -0.2594 -1.2334
  845MOL0     N13991  11.536   0.944   6.502 -0.0090  0.6392  0.5648
  845MOL0     C13992  10.480   0.840   5.954  0.5747 -0.2453  1.0216
  845MOL0     C13993  10.343   0.835   5.898 -1.0991 -0.1574 -0.0442
  845MOL0     C13994  10.091   0.664   5.987 -1.0904 -0.1143 -0.4651
  845MOL0     C13995  10.108   0.547   5.908 -0.5906 -0.1557  0.3397
  845MOL0     C13996  10.167   0.428   5.957  0.6307  0.1582 -0.5098
  845MOL0     C13997  10.190   0.411   6.090 -0.8792 -0.9445  0.4824
  845MOL0     O13998  10.245   0.300   6.142 -0.0838  0.7050  0.0741
  845MOL0     C13999  10.270   0.183   6.056  0.7063  0.5305  0.5031
  845MOL0     C14000  10.318   0.064   6.135 -0.0750 -0.2592  0.7736
  845MOL0     C14001  10.351  -0.064   6.053 -0.7335 -0.0417 -1.1035
  845MOL0     C14002  10.223  -0.140   6.015 -0.3688 -0.0744  0.2162
  845MOL0     C14003  10.171  -0.082   5.888 -0.5584  0.2955 -0.3031
  845MOL0     C14004  10.123  -0.051   5.789 -0.8662 -0.4137 -0.3472
  845MOL0     C14005  10.166   0.525   6.174 -0.5871 -0.2311 -0.6863
  845MOL0     C14006  10.122   0.652   6.125  0.7304  0.7320  0.4068
  845MOL0     C14007  10.102   0.754   6.226  0.9906 -0.0759  0.4101
  845MOL0     H14008  10.199   1.049   6.136 -0.7384  1.0426 -2.1585
  845MOL0     H14009  10.433   1.065   6.199 -0.9839  2.1761 -1.9579
  845MOL0     H14010  10.746   0.883   5.933  0.2058  1.4592 -0.7444
  845MOL0     H14011  10.713   1.062   5.955 -1.8189  0.4697  0.9709
  845MOL0     H14012  10.874   1.093   6.117  0.6294 -1.2408  1.6240
  845MOL0     H14013  10.941   0.989   5.996  0.3222  0.3825  1.4332
  845MOL0     H14014  10.912   0.791   6.153  2.3996 -0.8893  1.7655
  845MOL0     H14015  10.815   0.892   6.257 -2.7415 -0.4416 -2.8773
  845MOL0     H14016  11.110   0.948   6.198  0.8839  3.2593  2.8470
  845MOL0     H14017  11.015   1.026   6.326  1.5492  2.6687 -2.5048
  845MOL0     H14018  10.980   0.800   6.426  1.2022  1.7634  2.7541
  845MOL0     H14019  11.068   0.724   6.290 -0.2796 -0.8184  0.8214
  845MOL0     H14020  11.171   0.740   6.503 -2.9602  0.1003  0.8327
  845MOL0     H14021  11.270   0.794   6.360 -0.1220 -0.0264 -0.3135
  845MOL0     H14022  11.123   1.010   6.524 -0.9151 -0.1897 -1.0702
  845MOL0     H14023  11.260   1.021   6.426  1.2357 -0.0490  0.2843
  845MOL0     H14024  11.266   0.998   6.704  1.8832  2.6294 -1.6407
  845MOL0     H14025  11.314   0.834   6.659 -3.7450 -0.6708  0.6352
  845MOL0     H14026  11.436   1.175   6.716  0.3302  1.3014 -0.2677
  845MOL0     H14027  11.732   1.293   6.520  0.2836 -1.1425  1.6000
  845MOL0     H14028  11.623   1.345   6.657  1.4967  0.2734  1.4050
  845MOL0     H14029  11.781   1.207   6.803  0.0034  0.6921  0.0005
  845MOL0     H14030  11.879   1.172   6.665  0.2147 -1.9848  2.8215
  845MOL0     H14031  11.917   1.406   6.821  0.5407 -0.0779 -1.4581
  845MOL0     H14032  11.795   1.460   6.718 -0.7630  0.0795  0.3205
  845MOL0     H14033  11.935   1.408   6.523 -2.4286  0.8205  1.0024
  845MOL0     H14034  12.063   1.331   6.626 -0.5294 -1.4378  0.3195
  845MOL0     H14035  11.801   1.582   6.529  0.8149 -0.8364 -1.7121
  845MOL0     H14036  11.713   1.778   6.482 -0.6180 -2.0018  3.4588
  845MOL0     H14037  11.756   2.163   6.165 -0.0273 -0.9401  1.2534
  845MOL0     H14038  11.633   2.403   6.133 -0.4617  1.6439  2.2477
  845MOL0     H14039  11.252   2.435   6.328  1.4174 -0.0945 -0.1468
  845MOL0     H14040  11.249   2.557   6.219  0.4277  0.3384  0.5797
  845MOL0     H14041  11.317   2.389   6.035 -2.6803  2.5703 -1.4806
  845MOL0     H14042  11.289   2.262   6.156  0.8053 -0.1979  0.2004
  845MOL0     H14043  11.082   2.459   6.062  1.7234  1.2123  5.7017
  845MOL0     H14044  11.112   2.287   6.002  3.2894 -0.5837  1.2888
  845MOL0     H14045  11.065   2.340   6.294 -2.1020 -0.1165  0.5246
  845MOL0     H14046  11.037   2.191   6.201 -0.5469  0.1292  0.4075
  845MOL0     H14047  10.837   2.347   6.089 -4.2968  2.6978  1.7916
  845MOL0     H14048  10.846   2.423   6.246 -1.5668  0.0587 -0.2543
  845MOL0     H14049  10.818   2.140   6.168  0.8394  1.7202 -1.0128
  845MOL0     H14050  10.855   2.193   6.345  2.3804  0.0421 -1.4131
  845MOL0     H14051  10.622   2.266   6.162  0.9874 -0.7616 -0.9638
  845MOL0     H14052  10.643   2.319   6.334 -5.3280  0.9876 -0.5351
  845MOL0     H14053  10.589   2.026   6.222 -1.1010 -0.0164 -0.4335
  845MOL0     H14054  10.646   2.066   6.379  0.8348 -0.6336 -1.0515
  845MOL0     H14055  11.409   2.347   6.484  1.7762  2.1492  0.7767
  845MOL0     H14056  11.551   2.137   6.539 -0.3145 -0.6188 -1.0678
  845MOL0     H14057  12.064   1.979   6.597  1.2246 -0.6328 -1.0100
  845MOL0     H14058  12.164   1.765   6.661  0.8666 -1.1801 -1.1799
  845MOL0     H14059  10.546   0.771   5.903 -1.9080 -1.5636 -0.6147
  845MOL0     H14060  10.326   0.767   5.815 -0.0816 -1.2797  0.6250
  845MOL0     H14061  10.101   0.541   5.800  0.6139 -2.8411  0.3481
  845MOL0     H14062  10.177   0.341   5.892 -5.7562 -1.8902  0.5838
  845MOL0     H14063  10.339   0.198   5.973  2.7717 -1.3276  1.7648
  845MOL0     H14064  10.174   0.155   6.012  2.1667  0.6844 -3.1407
  845MOL0     H14065  10.235   0.044   6.203 -0.1784 -0.9592  0.4542
  845MOL0     H14066  10.411   0.088   6.186  1.8860 -0.2500 -2.4770
  845MOL0     H14067  10.410  -0.129   6.118 -0.2576  0.3898 -1.0988
  845MOL0     H14068  10.421  -0.046   5.971 -0.1823 -0.3821 -0.7155
  845MOL0     H14069  10.248  -0.243   5.989 -1.2614  0.4718 -3.2839
  845MOL0     H14070  10.152  -0.158   6.097  1.1732 -5.8269  0.7208
  845MOL0     H14071  10.093  -0.021   5.690 -1.7718 -2.0561 -0.6101
  845MOL0     H14072  10.201   0.508   6.276  0.8199  0.4793 -1.0262
  845MOL0     H14073  10.195   0.806   6.248  0.8903  1.8309 -3.0057
  845MOL0     H14074  10.030   0.834   6.206  2.6486  1.4189  0.1847
  845MOL0     H14075  10.052   0.704   6.311  0.7496 -0.5392  0.0018
  846MOL0     O14076   6.579   0.446   9.696  0.9445 -0.5240 -0.6970
  846MOL0     C14077   6.540   0.490   9.587  0.8454  0.2561  0.0347
  846MOL0     O14078   6.607   0.474   9.473  0.8714  0.5284 -0.2944
  846MOL0     C14079   6.711   0.386   9.468 -0.9258 -0.7860  0.5283
  846MOL0     C14080   6.701   0.254   9.477  0.8300  0.1705 -0.1136
  846MOL0     C14081   6.807   0.166   9.462 -0.6658  0.3433 -0.1127
  846MOL0     C14082   6.939   0.216   9.447 -0.5045  1.4762 -0.1969
  846MOL0     O14083   7.050   0.137   9.437  0.7403  0.4246  0.6612
  846MOL0     C14084   7.030   0.010   9.378  0.8661  0.3512  0.7842
  846MOL0     C14085   7.169  -0.055   9.369  1.1222 -0.2231  0.1339
  846MOL0     C14086   7.160  -0.185   9.294  0.5506  0.0209 -1.0869
  846MOL0     C14087   7.174  -0.158   9.155  0.5749  0.3671  0.2039
  846MOL0     C14088   7.121  -0.278   9.067  0.2864 -1.0708 -0.5969
  846MOL0     C14089   7.093  -0.232   8.930 -0.4777  0.0397  0.0333
  846MOL0     C14090   7.017  -0.337   8.861  0.7616  0.2222 -1.1284
  846MOL0     C14091   6.871  -0.313   8.898  0.0578  0.2060 -0.4588
  846MOL0     N14092   6.789  -0.398   8.821  1.0243 -0.0439 -0.3448
  846MOL0     C14093   6.701  -0.482   8.875  1.3396  0.5181 -0.4077
  846MOL0     C14094   6.611  -0.508   8.773 -0.6222 -0.1266 -0.0770
  846MOL0     C14095   6.477  -0.581   8.774  0.2993  0.2632 -0.8780
  846MOL0     C14096   6.360  -0.498   8.712  0.0674 -0.9388 -0.6124
  846MOL0     C14097   6.347  -0.365   8.793 -0.1944 -0.0837 -0.1747
  846MOL0     C14098   6.214  -0.279   8.768  0.0633 -0.1757 -0.2880
  846MOL0     O14099   6.238  -0.143   8.787  0.5982 -0.6340  0.0842
  846MOL0     C14100   6.222  -0.082   8.905  0.0814  0.0075  0.0004
  846MOL0     C14101   6.260   0.048   8.900 -0.5881 -0.5617 -0.1900
  846MOL0     C14102   6.266   0.126   9.019  0.6147 -0.5400 -0.3950
  846MOL0     C14103   6.221   0.076   9.143  0.1947  0.3462 -0.5192
  846MOL0     C14104   6.212   0.155   9.272  0.8902  0.3538  0.9484
  846MOL0     O14105   6.173   0.081   9.385  0.3953 -0.1709  0.4453
  846MOL0     C14106   6.142   0.160   9.501 -0.6844  0.9695  0.1606
  846MOL0     C14107   6.054   0.271   9.494  0.8904 -0.3359 -0.6700
  846MOL0     C14108   6.000   0.327   9.612 -0.0323 -0.8273  0.1821
  846MOL0     C14109   6.035   0.269   9.735 -0.1484 -0.7384 -0.5515
  846MOL0     O14110   5.975   0.326   9.842  0.6281  0.3563 -0.0886
  846MOL0     C14111   6.010   0.460   9.885 -0.2790 -0.0492 -0.3001
  846MOL0     C14112   5.960   0.469  10.026  0.9573  0.2503 -0.3176
  846MOL0     C14113   5.805   0.436  10.025 -0.7735 -0.9515  1.0441
  846MOL0     C14114   5.719   0.509   9.917 -0.9454  0.0956  0.1174
  846MOL0     C14115   5.708   0.658   9.941  0.2646  0.1081  0.7645
  846MOL0     C14116   5.573   0.702   9.878 -0.5898 -0.1895 -0.6092
  846MOL0     C14117   5.558   0.851   9.857 -0.0685  0.0095  0.1273
  846MOL0     C14118   5.668   0.926   9.780 -0.2364 -0.4857 -0.5591
  846MOL0    Cl14119   5.609   1.033   9.646 -0.3504  0.0304  0.4568
  846MOL0     C14120   6.119   0.163   9.740 -0.1592  0.4148  0.8692
  846MOL0     C14121   6.175   0.100   9.624  0.1736 -0.2190 -0.5978
  846MOL0     O14122   6.232   0.281   9.261  0.3336  0.2932 -0.0020
  846MOL0     C14123   6.189  -0.058   9.140 -0.1583  0.6759 -0.5762
  846MOL0     C14124   6.198  -0.141   9.034 -0.6453  0.4185  0.4252
  846MOL0     N14125   6.657  -0.452   8.659 -0.7222 -0.4285 -0.3491
  846MOL0     N14126   6.765  -0.388   8.688 -0.3721  0.7693 -0.1452
  846MOL0     C14127   6.956   0.352   9.428  0.9197 -1.4217 -0.8738
  846MOL0     C14128   6.841   0.440   9.443 -0.3600  0.6212  0.4523
  846MOL0     C14129   6.415   0.568   9.591  1.2338  0.7957  0.0671
  846MOL0     C14130   6.320   0.544   9.484 -1.0588  0.6944  0.4355
  846MOL0     C14131   6.194   0.586   9.497  0.8600 -0.6766 -0.3983
  846MOL0     C14132   6.147   0.667   9.600  0.3410 -0.5656 -0.5310
  846MOL0     O14133   6.019   0.725   9.616 -0.0539  0.0898  0.3775
  846MOL0     C14134   5.909   0.686   9.528 -0.4023 -0.2587  0.3999
  846MOL0     C14135   5.901   0.789   9.409 -0.1764 -0.2198 -0.4617
  846MOL0     C14136   5.801   0.749   9.307  0.9777  0.3966 -0.4522
  846MOL0     C14137   5.656   0.758   9.353 -0.9263 -0.1304 -0.0179
  846MOL0     C14138   5.563   0.737   9.246  0.4377  0.6434  0.9270
  846MOL0     C14139   5.490   0.727   9.150 -1.2989 -0.1340  0.0229
  846MOL0     C14140   6.233   0.683   9.707 -0.6333  0.5303 -0.3350
  846MOL0     C14141   6.373   0.641   9.700  1.2296 -0.1620  0.5924
  846MOL0     C14142   6.455   0.677   9.819 -0.1254  0.5807 -0.4551
  846MOL0     H14143   6.606   0.208   9.500 -0.0551  1.5687 -0.8277
  846MOL0     H14144   6.780   0.061   9.453  2.2096 -0.4272 -1.1477
  846MOL0     H14145   6.961  -0.052   9.435  1.3523  0.0793  1.0768
  846MOL0     H14146   6.978   0.031   9.284 -1.0367  0.3395  1.7726
  846MOL0     H14147   7.196  -0.062   9.475 -2.4961 -0.6934  1.1699
  846MOL0     H14148   7.242   0.015   9.328 -0.0159  0.1092 -1.4123
  846MOL0     H14149   7.066  -0.233   9.322  0.6502 -0.2100 -1.1521
  846MOL0     H14150   7.237  -0.258   9.320  0.0525 -1.2527 -2.9902
  846MOL0     H14151   7.110  -0.071   9.135 -0.4868  0.2655  2.7625
  846MOL0     H14152   7.275  -0.129   9.123  0.6378  0.7136  0.6973
  846MOL0     H14153   7.190  -0.361   9.081  0.3972 -0.7955  0.6598
  846MOL0     H14154   7.026  -0.312   9.110  0.3225  0.9928  1.2822
  846MOL0     H14155   7.034  -0.140   8.925 -0.2710  0.0996 -1.6289
  846MOL0     H14156   7.189  -0.206   8.885 -1.8096 -0.1353 -3.1896
  846MOL0     H14157   7.045  -0.436   8.897  2.4319  0.5809 -1.3626
  846MOL0     H14158   7.035  -0.342   8.753 -1.7466 -0.9811 -1.5719
  846MOL0     H14159   6.853  -0.338   9.003 -2.0085  0.3894 -0.7238
  846MOL0     H14160   6.834  -0.211   8.887 -0.5204 -0.1039 -1.4523
  846MOL0     H14161   6.693  -0.527   8.973  4.0048 -3.9513 -1.9253
  846MOL0     H14162   6.497  -0.664   8.705 -0.2731  0.6464 -1.5175
  846MOL0     H14163   6.442  -0.612   8.873  2.1425 -1.6427 -0.7430
  846MOL0     H14164   6.388  -0.483   8.608  3.3849 -2.1061 -0.0163
  846MOL0     H14165   6.266  -0.555   8.715 -2.9579  3.5302  1.0402
  846MOL0     H14166   6.426  -0.305   8.746 -1.5948  0.9147 -1.3740
  846MOL0     H14167   6.374  -0.372   8.898  1.4154 -0.5299 -0.5917
  846MOL0     H14168   6.132  -0.312   8.834 -1.1293 -0.2202 -1.7347
  846MOL0     H14169   6.185  -0.305   8.666  2.8766 -1.6114 -0.8007
  846MOL0     H14170   6.303   0.087   8.808  0.8984 -0.8886  0.3426
  846MOL0     H14171   6.283   0.233   9.011 -0.4884 -0.0290  2.6743
  846MOL0     H14172   6.011   0.320   9.408  1.6046  1.8183  0.1340
  846MOL0     H14173   5.917   0.397   9.611  2.6931  3.1109  5.2177
  846MOL0     H14174   6.117   0.473   9.869  0.6844 -1.5381  3.6603
  846MOL0     H14175   5.959   0.534   9.824 -0.8063  0.5321  0.8197
  846MOL0     H14176   6.013   0.402  10.094  4.6950  2.2644 -1.0066
  846MOL0     H14177   5.975   0.569  10.067  1.7080  0.5812 -1.3456
  846MOL0     H14178   5.802   0.326  10.020 -0.5944 -1.0913  3.0612
  846MOL0     H14179   5.758   0.456  10.121  0.3505 -2.6119  1.9914
  846MOL0     H14180   5.623   0.458   9.910 -0.6953 -0.3478 -0.0712
  846MOL0     H14181   5.759   0.500   9.816  0.2503  0.0616  0.5747
  846MOL0     H14182   5.799   0.699   9.896 -0.2531 -1.0352 -1.4074
  846MOL0     H14183   5.707   0.688  10.047 -1.4611  4.2402 -0.2030
  846MOL0     H14184   5.554   0.659   9.779 -0.9990  1.0075 -1.0601
  846MOL0     H14185   5.493   0.667   9.944  1.0900 -0.4478  1.4019
  846MOL0     H14186   5.552   0.893   9.958 -1.9433 -0.0009  0.0603
  846MOL0     H14187   5.461   0.883   9.818 -0.3385  2.1647  2.3392
  846MOL0     H14188   5.718   0.994   9.849 -2.9705  1.9419 -0.7581
  846MOL0     H14189   5.745   0.862   9.737  0.1108  0.2972 -1.1247
  846MOL0     H14190   6.134   0.129   9.843  2.2824 -0.0758  0.4091
  846MOL0     H14191   6.207  -0.004   9.629 -1.3637 -0.8011 -1.7191
  846MOL0     H14192   6.162  -0.113   9.230 -1.3741 -1.4387 -2.1313
  846MOL0     H14193   6.181  -0.248   9.030  0.1650  0.2696  0.7414
  846MOL0     H14194   7.045   0.394   9.383 -0.4685  0.0640 -2.3723
  846MOL0     H14195   6.837   0.546   9.423  0.9997  0.3283 -1.7434
  846MOL0     H14196   6.346   0.467   9.412 -1.5681  1.1286 -0.2260
  846MOL0     H14197   6.135   0.556   9.410  1.1902 -2.9012  0.0697
  846MOL0     H14198   5.808   0.699   9.568 -1.3614 -0.4850 -1.8153
  846MOL0     H14199   5.920   0.580   9.503 -0.7970 -0.5526  1.4165
  846MOL0     H14200   6.001   0.803   9.366  0.6805  0.5350  1.5895
  846MOL0     H14201   5.885   0.888   9.454  0.3731 -0.7690  1.0112
  846MOL0     H14202   5.821   0.645   9.280 -0.9024 -0.2992  0.6093
  846MOL0     H14203   5.817   0.823   9.227 -1.9366 -0.3574 -1.9161
  846MOL0     H14204   5.623   0.671   9.410 -1.2661 -0.9874 -1.4607
  846MOL0     H14205   5.631   0.853   9.400  0.0270 -0.2258  0.6972
  846MOL0     H14206   5.421   0.738   9.069 -0.1893  0.5486 -0.8599
  846MOL0     H14207   6.191   0.744   9.787 -0.3460  1.5998 -0.9841
  846MOL0     H14208   6.560   0.698   9.795 -0.0965  1.5447  0.4521
  846MOL0     H14209   6.405   0.755   9.876  1.3846 -1.5208  4.3031
  846MOL0     H14210   6.450   0.586   9.880 -2.2743  2.4108  2.3331
  847MOL0     O14211   3.988   0.322   8.548 -0.7124 -0.7988 -0.1317
  847MOL0     C14212   3.897   0.307   8.469  0.1166 -0.2180 -0.0002
  847MOL0     O14213   3.762   0.305   8.512 -0.5618  0.1714 -0.7900
  847MOL0     C14214   3.727   0.346   8.639 -0.0878 -0.3257 -0.0023
  847MOL0     C14215   3.589   0.363   8.662 -0.3362  0.6666 -0.4495
  847MOL0     C14216   3.538   0.404   8.790  0.1429 -1.0947 -0.1284
  847MOL0     C14217   3.617   0.440   8.894 -0.2245  0.1274  0.2573
  847MOL0     O14218   3.556   0.478   9.006  0.2875 -0.2264 -0.1866
  847MOL0     C14219   3.635   0.527   9.108 -0.7079  0.3043  0.3647
  847MOL0     C14220   3.532   0.592   9.211 -0.1367 -0.1008  0.0409
  847MOL0     C14221   3.446   0.480   9.276 -0.1296 -0.3480  0.0310
  847MOL0     C14222   3.353   0.550   9.380  0.0618  0.7611 -0.1932
  847MOL0     C14223   3.254   0.464   9.463 -0.5995  0.0106 -0.2039
  847MOL0     C14224   3.291   0.317   9.450 -0.0574 -0.0291 -0.3452
  847MOL0     C14225   3.219   0.205   9.536 -0.9103 -0.6656  0.0078
  847MOL0     C14226   3.067   0.226   9.528  0.2426 -0.5333 -0.8564
  847MOL0     N14227   3.013   0.173   9.411 -0.6826  0.6232  0.1853
  847MOL0     C14228   3.035   0.041   9.367 -0.1151 -0.0736  0.4481
  847MOL0     C14229   2.989   0.044   9.237 -0.5434 -0.7832  0.3306
  847MOL0     C14230   2.973  -0.071   9.149 -0.7705  0.1177  1.2595
  847MOL0     C14231   3.090  -0.076   9.049 -0.2586 -0.4055 -0.6360
  847MOL0     C14232   3.067  -0.202   8.963 -0.7383  0.5552 -0.2037
  847MOL0     C14233   3.183  -0.217   8.855  0.0665 -0.8146 -0.3819
  847MOL0     O14234   3.135  -0.293   8.744 -0.5095  0.4818  0.4622
  847MOL0     C14235   3.114  -0.426   8.774  0.4572  0.1202 -0.1309
  847MOL0     C14236   3.187  -0.515   8.870  1.1484 -0.3186  0.4605
  847MOL0     C14237   3.159  -0.648   8.893  0.3536  0.4220  0.6254
  847MOL0     C14238   3.060  -0.702   8.809  0.5893 -0.1332 -0.8483
  847MOL0     C14239   3.023  -0.838   8.824 -0.3192 -0.0221 -0.3084
  847MOL0     O14240   2.964  -0.902   8.712 -0.2082  0.1864 -0.0619
  847MOL0     C14241   2.909  -1.026   8.704 -0.4558 -0.0679 -0.7961
  847MOL0     C14242   2.824  -1.078   8.804  0.1997 -0.0609  0.2429
  847MOL0     C14243   2.754  -1.195   8.771 -0.0105 -0.5103 -0.0734
  847MOL0     C14244   2.762  -1.250   8.640  0.4798 -0.2222 -0.3338
  847MOL0     O14245   2.689  -1.356   8.589 -0.2424  0.3033  0.4819
  847MOL0     C14246   2.657  -1.459   8.680 -0.6535 -0.0995  0.1192
  847MOL0     C14247   2.613  -1.583   8.602  0.6604  0.0923  0.2518
  847MOL0     C14248   2.579  -1.700   8.694  0.0410 -1.1092  0.2606
  847MOL0     C14249   2.712  -1.769   8.746 -0.0379  0.1724 -0.9867
  847MOL0     C14250   2.694  -1.910   8.799  0.2406  0.8902 -0.0293
  847MOL0     C14251   2.633  -1.923   8.947 -0.1406 -0.0969  0.2784
  847MOL0     C14252   2.726  -1.853   9.053 -0.0660 -0.0079 -0.3334
  847MOL0     C14253   2.673  -1.882   9.189  0.6668 -0.7685  0.3356
  847MOL0    Cl14254   2.520  -1.792   9.228 -0.3110  0.7389 -0.1116
  847MOL0     C14255   2.845  -1.199   8.548 -0.3977  0.6833 -0.0245
  847MOL0     C14256   2.928  -1.092   8.588 -1.3835 -0.6355 -0.6089
  847MOL0     O14257   3.055  -0.900   8.927  0.3900 -0.1031  0.1698
  847MOL0     C14258   2.984  -0.621   8.715  0.0477  0.4926 -0.1657
  847MOL0     C14259   3.003  -0.479   8.702 -0.8773 -0.3084 -0.7180
  847MOL0     N14260   2.944   0.166   9.203 -0.1424 -0.4088 -0.1709
  847MOL0     N14261   2.969   0.242   9.313  0.6837  0.0333  0.6001
  847MOL0     C14262   3.750   0.430   8.875 -0.1867 -0.3944  0.3543
  847MOL0     C14263   3.811   0.384   8.756 -0.2124 -0.0395  1.1944
  847MOL0     C14264   3.922   0.282   8.332  0.3172 -0.2056  0.3653
  847MOL0     C14265   3.863   0.163   8.287 -0.3904  0.2302 -0.8848
  847MOL0     C14266   3.907   0.116   8.162  0.8331 -0.0292 -0.8459
  847MOL0     C14267   3.983   0.194   8.077  0.7733 -0.9588  0.3391
  847MOL0     O14268   4.004   0.145   7.948  0.6826  0.4244  0.5619
  847MOL0     C14269   4.139   0.097   7.916  0.4700 -0.8813 -0.5586
  847MOL0     C14270   4.145  -0.047   7.962 -1.5436 -0.1233  0.6107
  847MOL0     C14271   4.274  -0.111   7.904  0.2818  0.1205 -0.7025
  847MOL0     C14272   4.317  -0.253   7.967  0.7858  0.1321 -0.2431
  847MOL0     C14273   4.215  -0.348   7.950  0.4523 -0.2660 -0.2223
  847MOL0     C14274   4.130  -0.421   7.934  0.2751  0.5245  0.4373
  847MOL0     C14275   4.038   0.317   8.123  0.5348 -0.2306 -0.0724
  847MOL0     C14276   4.002   0.363   8.249 -0.6790 -0.2137 -0.1995
  847MOL0     C14277   4.052   0.491   8.307 -1.1282  0.7218 -0.4548
  847MOL0     H14278   3.522   0.323   8.587 -1.6690 -0.3565  1.2076
  847MOL0     H14279   3.434   0.410   8.821  0.0861 -1.5413 -0.2354
  847MOL0     H14280   3.692   0.452   9.164 -1.5591  0.3650  1.3413
  847MOL0     H14281   3.706   0.599   9.065 -1.6424  1.5396  0.8385
  847MOL0     H14282   3.473   0.662   9.151  2.4320  1.5699 -0.6786
  847MOL0     H14283   3.596   0.643   9.284 -0.3372 -0.2345  0.3115
  847MOL0     H14284   3.521   0.424   9.332  1.4443  3.4351  2.1239
  847MOL0     H14285   3.391   0.423   9.200 -0.4883 -1.3002  0.9736
  847MOL0     H14286   3.408   0.609   9.453  3.9071 -1.5351 -0.9440
  847MOL0     H14287   3.297   0.621   9.320 -1.1864  0.7015  0.8715
  847MOL0     H14288   3.253   0.488   9.569 -1.0402  0.0385 -0.2114
  847MOL0     H14289   3.155   0.481   9.419 -0.7631  2.6136  0.9983
  847MOL0     H14290   3.293   0.288   9.344 -1.0460  0.0522 -0.4003
  847MOL0     H14291   3.390   0.306   9.495  1.0817  1.6187 -2.2924
  847MOL0     H14292   3.249   0.215   9.641 -0.0431 -2.4133 -0.0444
  847MOL0     H14293   3.254   0.109   9.498 -1.1681 -1.5998  1.9791
  847MOL0     H14294   3.016   0.171   9.608 -4.3684  1.1277 -2.3401
  847MOL0     H14295   3.042   0.332   9.539 -1.1140 -1.0184  1.3313
  847MOL0     H14296   3.070  -0.052   9.410  1.2846 -0.6628 -1.8215
  847MOL0     H14297   2.984  -0.154   9.219  1.9716  1.5024  2.6562
  847MOL0     H14298   2.876  -0.077   9.100 -1.4336  0.9222  2.4303
  847MOL0     H14299   3.085   0.018   8.992  3.5586  0.1951 -0.2369
  847MOL0     H14300   3.191  -0.076   9.089 -0.0682  1.6721 -1.0138
  847MOL0     H14301   2.970  -0.199   8.912 -1.3117  1.6684  0.9134
  847MOL0     H14302   3.068  -0.287   9.032 -4.3646 -1.4877 -2.3344
  847MOL0     H14303   3.267  -0.254   8.914 -1.0949 -0.7152  1.4336
  847MOL0     H14304   3.212  -0.119   8.818  1.2668 -1.2773 -0.7007
  847MOL0     H14305   3.271  -0.479   8.929  1.5578  0.6005 -0.6559
  847MOL0     H14306   3.208  -0.710   8.967 -3.8457 -3.1450  0.8488
  847MOL0     H14307   2.813  -1.028   8.900 -0.4655  2.7534 -1.1719
  847MOL0     H14308   2.690  -1.242   8.846 -1.7454  0.1808 -1.0699
  847MOL0     H14309   2.748  -1.485   8.734 -1.0524  0.3298  1.0182
  847MOL0     H14310   2.573  -1.425   8.742 -0.4140 -0.3758  0.6041
  847MOL0     H14311   2.521  -1.554   8.551  0.0694 -0.1939  1.1384
  847MOL0     H14312   2.691  -1.608   8.529  1.4404 -0.5908  1.2783
  847MOL0     H14313   2.512  -1.669   8.774 -1.3044 -0.4413 -1.0861
  847MOL0     H14314   2.534  -1.781   8.637 -0.6082 -0.7629  0.2728
  847MOL0     H14315   2.770  -1.709   8.816 -0.1788 -1.0938  0.2530
  847MOL0     H14316   2.779  -1.778   8.660  0.7144 -0.0438 -0.3892
  847MOL0     H14317   2.789  -1.963   8.798 -1.6656 -2.9035  0.9544
  847MOL0     H14318   2.630  -1.958   8.724  2.3928 -2.3350  0.0349
  847MOL0     H14319   2.531  -1.883   8.938  0.3988  1.0948 -1.0206
  847MOL0     H14320   2.620  -2.028   8.976 -0.5079 -0.1113  0.0741
  847MOL0     H14321   2.719  -1.745   9.036 -2.5976 -0.0807 -0.0892
  847MOL0     H14322   2.828  -1.886   9.031 -0.7349 -0.9635 -2.3243
  847MOL0     H14323   2.672  -1.991   9.190  0.8898 -0.9228 -3.0324
  847MOL0     H14324   2.738  -1.871   9.276 -1.5179  0.1800  1.9760
  847MOL0     H14325   2.834  -1.250   8.453  0.1889 -0.8093  0.6719
  847MOL0     H14326   2.993  -1.045   8.515  1.5965 -2.5982  0.5657
  847MOL0     H14327   2.909  -0.673   8.656 -0.5238  2.9728 -1.7961
  847MOL0     H14328   2.930  -0.431   8.639 -2.1813 -2.0642 -0.6202
  847MOL0     H14329   3.819   0.445   8.958  0.3300 -1.3391  0.1056
  847MOL0     H14330   3.919   0.380   8.751 -0.3147 -1.0845 -0.7564
  847MOL0     H14331   3.828   0.093   8.362 -0.2239 -1.8259 -2.6179
  847MOL0     H14332   3.908   0.010   8.139  0.1224  0.2145 -2.0986
  847MOL0     H14333   4.216   0.150   7.972 -0.0975 -1.8924  1.2760
  847MOL0     H14334   4.155   0.108   7.808  2.5992  2.4130 -0.0382
  847MOL0     H14335   4.059  -0.094   7.914 -0.9284  0.6007 -1.2718
  847MOL0     H14336   4.140  -0.049   8.071 -0.5343  0.9592  0.7030
  847MOL0     H14337   4.358  -0.040   7.912  1.2537 -0.9923 -0.8236
  847MOL0     H14338   4.272  -0.115   7.794  0.1552  2.9346 -0.8769
  847MOL0     H14339   4.411  -0.293   7.929  0.8840  2.0973 -2.2890
  847MOL0     H14340   4.331  -0.250   8.075 -0.2397  0.2900 -0.1011
  847MOL0     H14341   4.063  -0.503   7.913  3.6471 -2.4971  0.5253
  847MOL0     H14342   4.102   0.372   8.054  0.1193 -0.5262 -0.7037
  847MOL0     H14343   4.146   0.465   8.356  0.8091 -0.0917 -4.2390
  847MOL0     H14344   4.077   0.567   8.234  4.0574  2.0614  2.2617
  847MOL0     H14345   3.977   0.534   8.375 -0.7653  1.5701 -0.5857
  848MOL0     O14346   5.225   8.077   9.476 -0.4133 -0.0460 -0.0858
  848MOL0     C14347   5.190   8.099   9.589  0.0829  0.1282  0.4892
  848MOL0     O14348   5.220   8.211   9.662  0.4560  0.1545  0.2522
  848MOL0     C14349   5.304   8.308   9.601  0.1986 -0.6116  0.3477
  848MOL0     C14350   5.433   8.272   9.553 -1.0179 -0.5619  0.0700
  848MOL0     C14351   5.517   8.381   9.503  1.0157  0.2197 -0.5254
  848MOL0     C14352   5.475   8.521   9.516 -0.4709 -0.2647 -0.0403
  848MOL0     O14353   5.554   8.629   9.484 -0.0871  0.4023 -0.1818
  848MOL0     C14354   5.692   8.597   9.450 -0.0059  0.0090 -0.0196
  848MOL0     C14355   5.759   8.729   9.404  0.2401  0.5089 -0.5231
  848MOL0     C14356   5.904   8.705   9.379 -0.9243 -0.9845  0.5710
  848MOL0     C14357   5.988   8.828   9.341 -0.2400  0.5717 -0.5159
  848MOL0     C14358   6.123   8.810   9.293  0.0519  0.6585  0.0029
  848MOL0     C14359   6.205   8.941   9.290 -0.2473 -0.0662  0.1158
  848MOL0     C14360   6.353   8.903   9.261  1.2742 -0.0002 -0.3864
  848MOL0     C14361   6.439   9.024   9.211 -0.2213  0.7488 -0.2567
  848MOL0     N14362   6.569   8.964   9.168 -0.2706 -0.8064  0.6186
  848MOL0     C14363   6.589   8.894   9.047  1.2776  0.0040 -0.5769
  848MOL0     C14364   6.721   8.876   9.026 -0.9925 -0.6373  0.4015
  848MOL0     C14365   6.784   8.804   8.905 -0.9009 -0.5058  0.1956
  848MOL0     C14366   6.910   8.877   8.847 -0.3342  0.2962 -0.0965
  848MOL0     C14367   6.881   9.014   8.772  0.9595  0.9658  0.6269
  848MOL0     C14368   6.995   9.086   8.711 -0.1224  0.4570  0.1536
  848MOL0     O14369   7.039   9.014   8.597  0.1579 -0.0790  0.0632
  848MOL0     C14370   7.172   9.024   8.550  0.3552 -0.1418 -0.7697
  848MOL0     C14371   7.263   9.122   8.597  0.1073  0.4118 -0.6230
  848MOL0     C14372   7.401   9.130   8.557 -0.1521 -0.5824  0.1448
  848MOL0     C14373   7.447   9.035   8.466 -0.8253  0.6578  0.7061
  848MOL0     C14374   7.590   9.029   8.425 -1.1919 -0.2460  0.9856
  848MOL0     O14375   7.641   8.918   8.369 -0.2832 -0.3935 -0.1097
  848MOL0     C14376   7.776   8.921   8.345 -0.3415 -0.5385  0.7832
  848MOL0     C14377   7.870   8.849   8.428 -0.0989  0.3924 -0.8359
  848MOL0     C14378   8.005   8.861   8.381  0.2035 -1.2821 -0.3020
  848MOL0     C14379   8.059   8.930   8.279  0.2384  0.6077  0.6387
  848MOL0     O14380   8.196   8.946   8.249  0.1122 -0.7827  0.5233
  848MOL0     C14381   8.294   8.895   8.336  1.1826 -0.1020 -0.5702
  848MOL0     C14382   8.441   8.941   8.300  0.0854  0.8483 -0.1365
  848MOL0     C14383   8.439   9.091   8.280 -0.5164  0.7344 -0.2916
  848MOL0     C14384   8.579   9.144   8.257  0.3933 -1.0131 -0.3655
  848MOL0     C14385   8.585   9.291   8.226 -0.3136  0.8910  0.7132
  848MOL0     C14386   8.586   9.394   8.340 -0.1624 -0.4274 -1.0299
  848MOL0     C14387   8.594   9.544   8.295  0.4560 -1.2929  0.1969
  848MOL0     C14388   8.453   9.591   8.231 -0.1558  0.4611  0.7881
  848MOL0    Cl14389   8.330   9.625   8.372 -0.6643  0.2273 -0.0594
  848MOL0     C14390   7.968   9.010   8.213  0.1424  0.2659 -0.0753
  848MOL0     C14391   7.827   8.996   8.238 -0.4732  0.6707 -0.5187
  848MOL0     O14392   7.661   9.133   8.454  0.0285 -0.0584 -0.1068
  848MOL0     C14393   7.368   8.926   8.422 -0.2192  0.1392 -0.9030
  848MOL0     C14394   7.229   8.935   8.445  0.3471 -0.1185 -0.3177
  848MOL0     N14395   6.775   8.944   9.141 -0.3820 -0.1999  0.1796
  848MOL0     N14396   6.690   8.994   9.219  0.5591  0.3511 -0.1214
  848MOL0     C14397   5.342   8.541   9.564 -0.4881 -0.4305  0.6913
  848MOL0     C14398   5.262   8.437   9.609 -0.3447  0.1060  0.3850
  848MOL0     C14399   5.089   8.020   9.649  0.8759  1.4733  0.7180
  848MOL0     C14400   5.106   7.875   9.662  0.1643 -0.4549  0.0348
  848MOL0     C14401   5.008   7.795   9.729  0.0471 -0.9093  0.9738
  848MOL0     C14402   4.893   7.855   9.777  0.2469  0.5724 -0.7556
  848MOL0     O14403   4.805   7.768   9.839 -0.3966  0.1064 -0.1528
  848MOL0     C14404   4.691   7.812   9.916  1.4925 -0.5819  0.0340
  848MOL0     C14405   4.563   7.822   9.830  0.3308  1.0784 -0.4745
  848MOL0     C14406   4.438   7.863   9.915 -0.0894  1.2051  0.0198
  848MOL0     C14407   4.333   7.911   9.818 -0.1792 -0.2281  1.2418
  848MOL0     C14408   4.284   7.790   9.746  0.1235 -0.0093  0.5791
  848MOL0     C14409   4.258   7.686   9.683  0.2177  0.4554 -1.3356
  848MOL0     C14410   4.871   7.992   9.756  0.7297 -0.1929  0.6784
  848MOL0     C14411   4.958   8.077   9.687 -0.0455  0.0953  0.1903
  848MOL0     C14412   4.923   8.223   9.661  0.3748 -0.5703  0.5098
  848MOL0     H14413   5.456   8.167   9.567  3.2590  0.4766  2.7080
  848MOL0     H14414   5.615   8.351   9.468  1.7094  2.4440 -0.6617
  848MOL0     H14415   5.742   8.562   9.541 -2.8015 -1.5280  1.0470
  848MOL0     H14416   5.695   8.525   9.369  0.8273  0.3646 -0.3189
  848MOL0     H14417   5.739   8.812   9.473 -2.7788  2.3410 -3.2834
  848MOL0     H14418   5.697   8.755   9.317  0.2585 -1.0547 -1.0400
  848MOL0     H14419   5.919   8.642   9.290  0.3588  1.3416 -0.9513
  848MOL0     H14420   5.952   8.659   9.467  2.3900  1.0867  0.0420
  848MOL0     H14421   5.929   8.874   9.261  0.0953  1.6878 -0.1385
  848MOL0     H14422   5.991   8.889   9.432  1.3677 -0.1050 -0.0852
  848MOL0     H14423   6.172   8.740   9.363 -2.9216  0.0586  1.6452
  848MOL0     H14424   6.114   8.768   9.192  0.5880  1.7431 -0.5051
  848MOL0     H14425   6.165   9.014   9.219 -0.9555 -1.9962 -1.5548
  848MOL0     H14426   6.193   8.991   9.387 -1.2269 -3.2195  1.7755
  848MOL0     H14427   6.364   8.828   9.182 -0.4669  0.2499 -0.8925
  848MOL0     H14428   6.404   8.866   9.350  1.8472 -0.0048 -0.7093
  848MOL0     H14429   6.399   9.075   9.123  1.3817 -0.1002 -1.5453
  848MOL0     H14430   6.465   9.094   9.291 -1.8050  2.4817 -1.1713
  848MOL0     H14431   6.498   8.868   8.995 -0.7637  2.5635  1.4732
  848MOL0     H14432   6.811   8.704   8.940 -1.2607 -0.7697 -0.2576
  848MOL0     H14433   6.700   8.801   8.835 -2.7822  0.2291  2.2807
  848MOL0     H14434   6.981   8.888   8.929 -2.0823  1.7880  1.3090
  848MOL0     H14435   6.953   8.804   8.778 -0.9169 -1.2881  1.1427
  848MOL0     H14436   6.844   9.080   8.851  3.0638  0.7730  1.8601
  848MOL0     H14437   6.805   8.994   8.696  0.4331  2.2525  0.7972
  848MOL0     H14438   7.067   9.092   8.793 -0.4273 -1.6340  0.6457
  848MOL0     H14439   6.954   9.184   8.686 -4.7678 -1.5887 -1.4470
  848MOL0     H14440   7.232   9.194   8.671  0.7805 -0.0967  0.1688
  848MOL0     H14441   7.461   9.212   8.595 -1.0546  1.1425 -1.9101
  848MOL0     H14442   7.852   8.786   8.515  4.6947 -2.9966 -1.8820
  848MOL0     H14443   8.081   8.813   8.443  0.7958  0.0972  0.0892
  848MOL0     H14444   8.287   8.932   8.439  2.7045 -2.0831  0.2938
  848MOL0     H14445   8.287   8.787   8.348  0.7232 -0.0472 -0.3161
  848MOL0     H14446   8.521   8.913   8.369  0.1739 -1.7345 -1.1406
  848MOL0     H14447   8.473   8.887   8.210  0.4525 -1.6281  1.3868
  848MOL0     H14448   8.386   9.123   8.190 -1.4210  1.1887  0.3857
  848MOL0     H14449   8.399   9.134   8.372 -1.0304 -1.8911  0.7932
  848MOL0     H14450   8.617   9.079   8.178 -0.6910 -1.0373 -0.8814
  848MOL0     H14451   8.628   9.131   8.354 -0.2214  1.1808  0.2917
  848MOL0     H14452   8.506   9.303   8.151  2.0855  1.8894 -1.8267
  848MOL0     H14453   8.681   9.322   8.185  0.5146  3.6438  4.2665
  848MOL0     H14454   8.489   9.384   8.389  1.3157  0.4798  2.3268
  848MOL0     H14455   8.667   9.379   8.412  1.2786 -0.2947 -2.5512
  848MOL0     H14456   8.678   9.550   8.225  2.8112  4.3987  2.8266
  848MOL0     H14457   8.616   9.608   8.381  0.6720  0.9974 -1.4760
  848MOL0     H14458   8.463   9.676   8.163 -1.1350  0.5458  0.7326
  848MOL0     H14459   8.425   9.518   8.154  2.3049  0.0182  0.2277
  848MOL0     H14460   7.991   9.081   8.135  2.8731 -0.8879 -0.4202
  848MOL0     H14461   7.760   9.052   8.174 -0.7486 -0.8740 -1.6279
  848MOL0     H14462   7.405   8.860   8.344  2.8126  0.9397 -0.2714
  848MOL0     H14463   7.162   8.866   8.394  0.7207 -2.0788  1.6913
  848MOL0     H14464   5.314   8.645   9.578 -2.7440 -0.9861  0.7422
  848MOL0     H14465   5.171   8.461   9.663 -0.4657  2.5427 -0.7826
  848MOL0     H14466   5.198   7.827   9.629  0.6775 -1.1940  2.3739
  848MOL0     H14467   5.025   7.688   9.727 -0.4045 -0.9847  0.9760
  848MOL0     H14468   4.709   7.911   9.958  1.9366  0.1527 -1.8211
  848MOL0     H14469   4.678   7.741   9.999  3.4803 -2.9777 -1.5594
  848MOL0     H14470   4.549   7.723   9.786 -0.6087  0.4713  1.0937
  848MOL0     H14471   4.584   7.893   9.749  3.2241 -1.4627 -2.1532
  848MOL0     H14472   4.473   7.944   9.979 -1.5754  1.7420  0.1828
  848MOL0     H14473   4.405   7.784   9.984  0.0641  0.0495 -1.1804
  848MOL0     H14474   4.256   7.964   9.874  0.2490  0.9602  0.7460
  848MOL0     H14475   4.387   7.970   9.743 -1.5781  0.1290  0.4916
  848MOL0     H14476   4.244   7.594   9.630  0.5187 -0.8749  0.7939
  848MOL0     H14477   4.779   8.041   9.787 -1.5373  0.1300 -5.1883
  848MOL0     H14478   4.967   8.277   9.745 -1.5578  0.0189  1.2005
  848MOL0     H14479   4.958   8.250   9.561 -0.7291 -3.8828 -0.9296
  848MOL0     H14480   4.815   8.232   9.675  0.4028 -0.7156  0.8221
  849MOL0     O14481   0.602   2.292   9.194  0.7287 -0.1945  0.0566
  849MOL0     C14482   0.703   2.284   9.259 -0.6732  0.5232 -0.5822
  849MOL0     O14483   0.818   2.231   9.223  0.1272  0.4127 -0.0656
  849MOL0     C14484   0.817   2.137   9.123  0.0757 -0.5928 -0.1994
  849MOL0     C14485   0.719   2.042   9.079  0.8973  1.3535  0.4381
  849MOL0     C14486   0.736   1.954   8.971 -1.1979 -0.0161 -0.7514
  849MOL0     C14487   0.869   1.929   8.918 -0.1715  0.4445 -0.7228
  849MOL0     O14488   0.911   1.834   8.829 -0.1658  0.5128 -0.0083
  849MOL0     C14489   0.839   1.837   8.709  0.1108  0.0541 -0.2164
  849MOL0     C14490   0.916   1.753   8.604  0.1130  1.6409  0.3669
  849MOL0     C14491   0.938   1.602   8.644  0.5158  0.2629  0.7027
  849MOL0     C14492   0.818   1.506   8.618 -0.2058  0.3764  0.3459
  849MOL0     C14493   0.833   1.348   8.647 -0.3985  0.8842 -0.5186
  849MOL0     C14494   0.716   1.272   8.580 -0.2221  0.5572  0.8454
  849MOL0     C14495   0.711   1.122   8.594 -0.4451  1.3398 -0.4703
  849MOL0     C14496   0.629   1.056   8.487  1.3897 -0.3587  0.3401
  849MOL0     N14497   0.518   0.981   8.546  0.1904  0.1144  0.4609
  849MOL0     C14498   0.477   0.862   8.493 -0.5810  0.4446 -0.4760
  849MOL0     C14499   0.386   0.813   8.575  0.0375 -0.0635  1.0776
  849MOL0     C14500   0.311   0.688   8.552 -1.2783  1.5642 -0.8111
  849MOL0     C14501   0.410   0.578   8.502 -0.2170 -0.8242  0.2117
  849MOL0     C14502   0.515   0.538   8.606 -0.1503  0.5706 -0.5559
  849MOL0     C14503   0.640   0.614   8.644 -0.5839 -0.5797  0.4358
  849MOL0     O14504   0.721   0.648   8.525  0.2062  0.0979  0.0535
  849MOL0     C14505   0.828   0.735   8.538  0.2579 -0.0468 -0.3142
  849MOL0     C14506   0.870   0.772   8.409  0.4976  0.6532 -0.8303
  849MOL0     C14507   0.959   0.883   8.399  0.1938  0.1297  0.3365
  849MOL0     C14508   1.015   0.937   8.517 -0.0017  0.2571  0.1276
  849MOL0     C14509   1.124   1.043   8.510  0.1681 -0.0648  0.3978
  849MOL0     O14510   1.177   1.082   8.624 -0.1130 -0.1957 -0.9356
  849MOL0     C14511   1.265   1.187   8.625 -0.2912  0.4053 -0.9067
  849MOL0     C14512   1.265   1.313   8.550 -0.4671  0.0031  0.1463
  849MOL0     C14513   1.380   1.392   8.557 -0.3175 -0.1277 -1.0168
  849MOL0     C14514   1.490   1.362   8.646  0.1697 -0.6980  0.5299
  849MOL0     O14515   1.598   1.444   8.676 -0.0474 -0.0624 -0.3534
  849MOL0     C14516   1.572   1.523   8.793  0.5808 -0.3920 -0.7730
  849MOL0     C14517   1.693   1.605   8.831  0.5102  0.8249 -0.7740
  849MOL0     C14518   1.807   1.505   8.861 -0.3591 -1.5693  0.4051
  849MOL0     C14519   1.928   1.598   8.911  0.0068 -0.4700 -0.3650
  849MOL0     C14520   1.896   1.643   9.057  0.6915 -0.4905  0.6486
  849MOL0     C14521   1.975   1.773   9.104 -0.1650  0.7732 -0.2101
  849MOL0     C14522   1.969   1.798   9.251 -0.4116  1.2348 -0.5660
  849MOL0     C14523   1.830   1.800   9.319 -0.6841  0.1724 -0.9045
  849MOL0    Cl14524   1.855   1.826   9.491  0.2934  0.0508 -0.1506
  849MOL0     C14525   1.475   1.250   8.724 -1.0109  0.8974 -0.4450
  849MOL0     C14526   1.367   1.159   8.711 -0.3500  0.3209  0.3977
  849MOL0     O14527   1.145   1.106   8.403 -0.3728  0.9269 -0.8816
  849MOL0     C14528   0.977   0.880   8.651 -0.5054 -0.2175  0.5831
  849MOL0     C14529   0.882   0.785   8.653  0.2478 -0.6350  0.1531
  849MOL0     N14530   0.357   0.906   8.665  0.5000 -0.6702 -0.1599
  849MOL0     N14531   0.434   1.005   8.652 -1.1156 -0.1016 -0.1464
  849MOL0     C14532   0.967   2.011   8.972 -0.4061  0.4721 -0.8189
  849MOL0     C14533   0.945   2.106   9.072 -0.0322  0.6918  0.5963
  849MOL0     C14534   0.692   2.322   9.418  0.3911  0.3617  0.3663
  849MOL0     C14535   0.780   2.271   9.512  0.2418  0.7906  0.8658
  849MOL0     C14536   0.757   2.283   9.645  0.2120 -0.3284  0.4611
  849MOL0     C14537   0.653   2.358   9.690  0.6359 -0.9387 -0.3254
  849MOL0     O14538   0.644   2.371   9.830  0.0995 -0.2223  0.5259
  849MOL0     C14539   0.560   2.463   9.895  0.4439  0.7864 -0.2128
  849MOL0     C14540   0.440   2.387   9.954  0.1522 -0.9558  0.0942
  849MOL0     C14541   0.479   2.314  10.073  0.4638 -0.7767 -1.2441
  849MOL0     C14542   0.366   2.222  10.114 -0.0389  0.8061 -0.3143
  849MOL0     C14543   0.267   2.288  10.194  0.6643 -0.7538  0.5357
  849MOL0     C14544   0.178   2.355  10.251  1.0335  0.0964 -0.0867
  849MOL0     C14545   0.576   2.430   9.600 -0.9268  0.0814  0.2971
  849MOL0     C14546   0.593   2.411   9.465 -0.3905  0.1793 -0.2185
  849MOL0     C14547   0.492   2.480   9.378  0.4744  0.0201  0.5706
  849MOL0     H14548   0.617   2.046   9.116  0.3080 -1.2978 -0.7355
  849MOL0     H14549   0.648   1.896   8.946 -0.8290 -0.9263  0.0266
  849MOL0     H14550   0.736   1.807   8.729 -0.2726  3.0393  3.3774
  849MOL0     H14551   0.816   1.940   8.680 -2.4944 -0.0870  1.0894
  849MOL0     H14552   1.017   1.794   8.611 -0.2237  3.0848 -1.9913
  849MOL0     H14553   0.865   1.750   8.507 -2.4669 -0.5199  1.6956
  849MOL0     H14554   0.966   1.587   8.748  4.3456 -1.3561 -0.3774
  849MOL0     H14555   1.027   1.565   8.592 -0.2188 -2.4537  1.2546
  849MOL0     H14556   0.734   1.532   8.684 -2.1232 -1.8049 -1.0893
  849MOL0     H14557   0.780   1.524   8.517  1.8813  2.0601 -0.2313
  849MOL0     H14558   0.924   1.305   8.606 -0.9470 -3.8114  2.4779
  849MOL0     H14559   0.847   1.337   8.755  4.0147 -1.0890 -1.1039
  849MOL0     H14560   0.619   1.312   8.608 -0.7260  0.7158 -0.9726
  849MOL0     H14561   0.741   1.306   8.479 -1.0165  4.7203  1.8770
  849MOL0     H14562   0.672   1.104   8.695  0.0294 -2.0725 -0.7983
  849MOL0     H14563   0.811   1.079   8.584 -1.3646 -0.9132 -0.5719
  849MOL0     H14564   0.590   1.145   8.437  3.6325  1.5843  1.8138
  849MOL0     H14565   0.692   0.995   8.421  3.0632 -0.3176  1.8048
  849MOL0     H14566   0.520   0.813   8.406  0.0167  0.5772 -0.2561
  849MOL0     H14567   0.273   0.655   8.649 -1.7850  2.3573 -0.7314
  849MOL0     H14568   0.234   0.698   8.475 -0.5542  2.1016 -1.4855
  849MOL0     H14569   0.357   0.487   8.471 -1.9688  0.1510  0.2733
  849MOL0     H14570   0.460   0.611   8.410 -0.1554  0.1490  0.5879
  849MOL0     H14571   0.554   0.443   8.569 -0.6162 -0.2359  0.9522
  849MOL0     H14572   0.477   0.505   8.703 -1.5189 -1.9170 -1.8368
  849MOL0     H14573   0.698   0.545   8.706  1.8143  1.6445  0.8339
  849MOL0     H14574   0.611   0.702   8.703 -1.8501 -2.2939  2.5419
  849MOL0     H14575   0.809   0.734   8.329 -0.2287 -0.5575  0.2667
  849MOL0     H14576   0.984   0.934   8.307  2.6002  0.7209  1.2317
  849MOL0     H14577   1.197   1.340   8.470 -1.1519  1.3955  1.1687
  849MOL0     H14578   1.396   1.482   8.499  2.9551 -1.6623 -2.7855
  849MOL0     H14579   1.493   1.593   8.766 -0.5349 -1.8846 -1.5060
  849MOL0     H14580   1.536   1.455   8.871 -2.3266  1.7762 -0.0587
  849MOL0     H14581   1.723   1.681   8.759  1.2541  1.2788 -0.0053
  849MOL0     H14582   1.656   1.674   8.907  1.0027  1.4956 -1.1311
  849MOL0     H14583   1.776   1.441   8.944 -2.3913 -0.8265  0.2663
  849MOL0     H14584   1.831   1.456   8.766  0.3424  0.2109 -0.3899
  849MOL0     H14585   1.943   1.667   8.827 -1.6589 -0.5353 -0.7596
  849MOL0     H14586   2.021   1.541   8.909  0.6976  0.6178 -0.5016
  849MOL0     H14587   1.929   1.564   9.125 -0.3946 -0.9232  0.6919
  849MOL0     H14588   1.787   1.652   9.062  0.6021  1.0095 -2.3301
  849MOL0     H14589   2.083   1.765   9.088 -0.4295 -0.3618 -1.6613
  849MOL0     H14590   1.954   1.857   9.038  1.8722 -1.7174 -4.4550
  849MOL0     H14591   2.022   1.893   9.261  2.0856  0.5657 -4.9000
  849MOL0     H14592   2.033   1.718   9.290 -0.7805 -1.0343 -4.1061
  849MOL0     H14593   1.766   1.881   9.283  1.1338  2.4487  0.6957
  849MOL0     H14594   1.772   1.708   9.310 -1.5102  0.0828  3.2682
  849MOL0     H14595   1.570   1.224   8.770  0.2015  2.3862 -1.9585
  849MOL0     H14596   1.373   1.065   8.765 -2.3434 -0.1990 -0.2098
  849MOL0     H14597   1.014   0.913   8.747 -1.5947 -0.7434  1.2036
  849MOL0     H14598   0.846   0.760   8.753 -3.3383 -0.9812 -1.0714
  849MOL0     H14599   1.069   1.997   8.937 -0.1822  0.6415 -0.2472
  849MOL0     H14600   1.023   2.178   9.094  0.3913  0.8673 -1.3491
  849MOL0     H14601   0.878   2.231   9.487  1.4094  2.5365  2.4034
  849MOL0     H14602   0.829   2.239   9.713  1.7586  2.4110  0.7384
  849MOL0     H14603   0.527   2.543   9.829 -0.2365 -0.9178 -2.0482
  849MOL0     H14604   0.620   2.507   9.975  1.3708 -0.2048 -0.3362
  849MOL0     H14605   0.415   2.319   9.873 -0.7918  0.3508 -0.7550
  849MOL0     H14606   0.351   2.449   9.971 -0.6287 -0.9316 -3.3196
  849MOL0     H14607   0.492   2.389  10.152 -2.0969  1.4068 -2.7357
  849MOL0     H14608   0.571   2.256  10.061 -0.7496 -2.7803 -1.1306
  849MOL0     H14609   0.325   2.186  10.019  1.2834  3.2921 -1.9387
  849MOL0     H14610   0.416   2.140  10.166  0.9365  0.2293 -2.0671
  849MOL0     H14611   0.099   2.411  10.297  1.0286  2.1538 -2.3748
  849MOL0     H14612   0.497   2.500   9.625  0.4637  0.9466  2.5673
  849MOL0     H14613   0.540   2.523   9.290 -0.0846  1.0077  0.7369
  849MOL0     H14614   0.410   2.412   9.353  1.1358 -0.8629  0.7584
  849MOL0     H14615   0.453   2.572   9.422 -1.6973  2.1021 -4.8323
  850MOL0     O14616   6.991   7.869   9.283  0.0457  0.3671 -0.8205
  850MOL0     C14617   7.012   7.986   9.295  0.6519 -0.1567  0.3254
  850MOL0     O14618   7.037   8.067   9.190  0.1397 -0.8494  0.6152
  850MOL0     C14619   7.016   8.035   9.064  0.9484 -0.6010  0.8709
  850MOL0     C14620   7.121   8.048   8.971  0.0775 -0.0910  0.5752
  850MOL0     C14621   7.103   8.022   8.838  0.9276 -0.0423 -0.0326
  850MOL0     C14622   6.971   7.998   8.792 -0.0189 -0.0907 -0.7326
  850MOL0     O14623   6.959   7.989   8.657  0.2128 -0.8445  0.3150
  850MOL0     C14624   6.876   8.104   8.614  1.1592 -0.4705 -0.0500
  850MOL0     C14625   6.921   8.176   8.475 -0.0233  0.1340  0.1986
  850MOL0     C14626   7.043   8.264   8.510 -0.2835  0.0381 -0.1011
  850MOL0     C14627   7.060   8.353   8.382 -0.0235  0.5648  0.3007
  850MOL0     C14628   6.972   8.482   8.376 -0.7797 -0.4540  0.5171
  850MOL0     C14629   6.907   8.505   8.236  0.4455 -0.2025 -0.6466
  850MOL0     C14630   6.821   8.635   8.252  0.2845  0.4625  0.2634
  850MOL0     C14631   6.762   8.696   8.113 -1.1119  0.1335 -1.3481
  850MOL0     N14632   6.691   8.826   8.135 -0.5950 -0.3908  0.1627
  850MOL0     C14633   6.756   8.939   8.093 -0.4099 -0.7845  0.0882
  850MOL0     C14634   6.661   9.038   8.081 -0.9753  0.7557 -0.5508
  850MOL0     C14635   6.708   9.170   8.033  0.3847  0.2048  0.3094
  850MOL0     C14636   6.775   9.263   8.129  0.2364 -0.1103  0.5558
  850MOL0     C14637   6.688   9.333   8.230  0.8586 -0.1121 -0.0878
  850MOL0     C14638   6.654   9.246   8.353  0.5049  0.3816  0.1673
  850MOL0     O14639   6.604   9.342   8.453 -0.2177  0.0301  0.0393
  850MOL0     C14640   6.535   9.308   8.557  0.3111 -1.0891  0.1743
  850MOL0     C14641   6.439   9.392   8.608 -0.5161 -0.8466  1.1569
  850MOL0     C14642   6.346   9.349   8.706 -0.0056  0.1252  0.0101
  850MOL0     C14643   6.362   9.226   8.774  0.9136  0.1231 -0.8823
  850MOL0     C14644   6.246   9.179   8.863 -1.2121 -0.2809 -0.0254
  850MOL0     O14645   6.149   9.271   8.892 -0.7637 -0.4166 -0.7961
  850MOL0     C14646   6.063   9.247   8.994 -0.4076 -0.2835 -0.4928
  850MOL0     C14647   6.050   9.326   9.109  0.2126  1.0364  0.1742
  850MOL0     C14648   5.953   9.303   9.201 -0.1521 -0.1602 -0.2081
  850MOL0     C14649   5.871   9.188   9.199 -0.4104 -0.0928 -1.0523
  850MOL0     O14650   5.786   9.165   9.305  0.2451  0.0120 -1.3299
  850MOL0     C14651   5.715   9.044   9.313  0.2592  0.1723  0.7058
  850MOL0     C14652   5.573   9.061   9.266  0.2302 -0.8132  0.3166
  850MOL0     C14653   5.511   9.166   9.351 -0.1458  0.1753 -0.3883
  850MOL0     C14654   5.355   9.162   9.333  0.6298  0.7476 -0.5049
  850MOL0     C14655   5.270   9.275   9.395  0.4889  0.0913  0.6617
  850MOL0     C14656   5.318   9.409   9.366  0.5536  0.1598  0.7764
  850MOL0     C14657   5.210   9.523   9.383 -0.9389  0.2629 -0.7684
  850MOL0     C14658   5.268   9.649   9.342 -0.3799  0.5579 -0.4144
  850MOL0    Cl14659   5.164   9.789   9.397 -0.6328  0.2553 -0.0924
  850MOL0     C14660   5.896   9.108   9.081 -0.0411  0.2084  0.0240
  850MOL0     C14661   5.975   9.137   8.976 -0.1822  0.7641  0.0146
  850MOL0     O14662   6.260   9.077   8.927  0.4536  0.3404 -0.7389
  850MOL0     C14663   6.466   9.145   8.727  0.6262 -0.1716 -0.1420
  850MOL0     C14664   6.543   9.185   8.619 -0.1011  0.1329 -0.0882
  850MOL0     N14665   6.545   8.977   8.105  0.5760  0.6458  0.2145
  850MOL0     N14666   6.558   8.855   8.148  0.3975 -0.3968 -0.0241
  850MOL0     C14667   6.862   8.003   8.878  0.5181  0.1455 -1.6132
  850MOL0     C14668   6.888   8.010   9.019 -0.0362 -0.2303  1.0052
  850MOL0     C14669   7.022   8.045   9.435 -0.4638  0.0993  0.1295
  850MOL0     C14670   6.960   8.167   9.460  0.1424  1.0381  0.3134
  850MOL0     C14671   6.951   8.230   9.586 -0.0870  0.0543 -0.4327
  850MOL0     C14672   7.021   8.165   9.687 -0.8708 -0.4718 -1.1683
  850MOL0     O14673   7.025   8.223   9.816 -0.3805 -0.1644 -0.2178
  850MOL0     C14674   7.084   8.148   9.925  1.1124 -0.8456 -0.1236
  850MOL0     C14675   7.232   8.203   9.927  0.0731  0.7118 -0.1476
  850MOL0     C14676   7.309   8.137  10.046  0.4811 -0.2722 -0.5787
  850MOL0     C14677   7.326   7.982  10.025 -0.3260  0.8947 -0.7474
  850MOL0     C14678   7.442   7.929  10.101 -0.7957  0.4589 -0.1672
  850MOL0     C14679   7.538   7.875  10.155 -1.0599 -0.2018  0.7325
  850MOL0     C14680   7.077   8.029   9.666  0.0979 -0.1735 -0.3465
  850MOL0     C14681   7.083   7.974   9.539  0.7068  1.1026  0.1492
  850MOL0     C14682   7.161   7.839   9.516  1.2897 -0.0250 -0.6374
  850MOL0     H14683   7.225   8.054   9.003  0.8721 -1.3171 -1.5182
  850MOL0     H14684   7.175   8.018   8.757  0.1137 -0.2380 -0.7718
  850MOL0     H14685   6.771   8.073   8.605  0.9395  0.8894 -4.3358
  850MOL0     H14686   6.877   8.191   8.681  1.4216  2.3397 -3.3930
  850MOL0     H14687   6.839   8.236   8.433  1.5299  1.0192 -1.7769
  850MOL0     H14688   6.945   8.095   8.405 -0.4664 -1.0943  1.4392
  850MOL0     H14689   7.127   8.199   8.535  0.0028 -1.0937 -3.5654
  850MOL0     H14690   7.020   8.335   8.591 -1.7438 -0.1183 -0.3406
  850MOL0     H14691   7.164   8.381   8.363 -0.4349  1.3493 -0.9131
  850MOL0     H14692   7.026   8.290   8.299  1.2069  2.1446 -1.4758
  850MOL0     H14693   6.897   8.468   8.454  1.9448 -0.9094  3.2260
  850MOL0     H14694   7.021   8.577   8.400 -4.2438  1.5580  0.3051
  850MOL0     H14695   6.982   8.521   8.158  0.1745  0.2329 -0.8155
  850MOL0     H14696   6.849   8.416   8.211  0.6615 -0.4787 -0.1959
  850MOL0     H14697   6.882   8.706   8.309  2.4103 -1.3519  0.3886
  850MOL0     H14698   6.731   8.610   8.309 -1.5439  3.0755 -1.2696
  850MOL0     H14699   6.838   8.714   8.037  3.2767  0.5363  2.6864
  850MOL0     H14700   6.691   8.616   8.093 -0.4213 -1.1068  0.7923
  850MOL0     H14701   6.862   8.962   8.088 -1.0315  2.3301 -0.6372
  850MOL0     H14702   6.778   9.143   7.953  0.5656  0.1817  0.4748
  850MOL0     H14703   6.624   9.233   8.003 -1.1416 -0.5639  2.6842
  850MOL0     H14704   6.863   9.228   8.183  0.2106  0.9747  1.3463
  850MOL0     H14705   6.813   9.345   8.067 -2.1529 -0.8041 -2.0375
  850MOL0     H14706   6.589   9.358   8.190  0.6439  1.4741  1.3230
  850MOL0     H14707   6.735   9.424   8.267  0.1710 -0.0855  0.7556
  850MOL0     H14708   6.750   9.214   8.394 -0.2397 -1.1293  0.8254
  850MOL0     H14709   6.589   9.158   8.344  0.6440  0.2709  0.2362
  850MOL0     H14710   6.445   9.488   8.558 -1.6605 -1.2312  0.2359
  850MOL0     H14711   6.250   9.398   8.719 -1.8869 -3.4041  0.6461
  850MOL0     H14712   6.116   9.412   9.120  3.1336 -0.7475 -1.8181
  850MOL0     H14713   5.935   9.364   9.288 -4.7519 -1.2431 -0.1593
  850MOL0     H14714   5.763   8.966   9.253 -0.6514 -0.9331  1.3561
  850MOL0     H14715   5.706   9.010   9.417 -0.6901  0.5478  0.7582
  850MOL0     H14716   5.577   9.102   9.165  3.9847 -0.3920  0.4855
  850MOL0     H14717   5.519   8.966   9.275 -3.6947  1.2506  0.8644
  850MOL0     H14718   5.535   9.150   9.456  1.1733 -4.3173 -1.1487
  850MOL0     H14719   5.542   9.262   9.308 -0.9198 -0.4955 -2.6206
  850MOL0     H14720   5.319   9.074   9.388  2.4793  0.4508  0.3176
  850MOL0     H14721   5.336   9.144   9.227 -0.4229 -1.4965  0.0111
  850MOL0     H14722   5.268   9.263   9.503 -2.2584 -1.9126  0.5070
  850MOL0     H14723   5.165   9.257   9.368  1.3744 -1.2283 -2.3513
  850MOL0     H14724   5.410   9.417   9.424  2.7348 -2.3004 -2.0034
  850MOL0     H14725   5.364   9.411   9.267 -0.5437 -1.7188  0.1691
  850MOL0     H14726   5.184   9.533   9.489  0.2435 -2.5317 -0.1297
  850MOL0     H14727   5.120   9.493   9.328 -1.4420  0.2612  0.0402
  850MOL0     H14728   5.371   9.665   9.376 -0.5825  0.1574  0.4152
  850MOL0     H14729   5.272   9.649   9.233  2.6664 -0.9662 -0.4045
  850MOL0     H14730   5.830   9.026   9.055 -0.7880  1.6474 -2.9464
  850MOL0     H14731   5.964   9.081   8.883 -0.7906  1.1145 -0.1331
  850MOL0     H14732   6.478   9.048   8.774  0.5136 -0.8549 -1.4710
  850MOL0     H14733   6.622   9.116   8.591  0.5613  0.6825  0.4082
  850MOL0     H14734   6.759   8.013   8.845  0.8842 -1.2016 -3.3185
  850MOL0     H14735   6.801   8.016   9.085  1.0954  0.7711  2.4598
  850MOL0     H14736   6.909   8.229   9.387 -0.4457 -2.2178 -2.2550
  850MOL0     H14737   6.899   8.325   9.597 -1.1458 -0.5674  0.1710
  850MOL0     H14738   7.062   8.041   9.925 -0.1917 -0.6013 -1.1684
  850MOL0     H14739   7.026   8.173  10.014 -0.5881 -1.7483 -0.9441
  850MOL0     H14740   7.225   8.311   9.941  0.1756  0.8795 -1.3195
  850MOL0     H14741   7.285   8.177   9.835  0.3580  1.0306 -0.0759
  850MOL0     H14742   7.249   8.139  10.138  2.7099 -3.6302  1.1576
  850MOL0     H14743   7.404   8.188  10.067 -1.3278  3.6058 -1.0571
  850MOL0     H14744   7.233   7.933  10.055  0.6301  0.6278  2.1500
  850MOL0     H14745   7.323   7.959   9.919 -0.7003  2.7580 -1.1712
  850MOL0     H14746   7.626   7.835  10.203  1.0148  3.9190  0.8141
  850MOL0     H14747   7.114   7.968   9.748 -3.9880 -1.3245  0.8778
  850MOL0     H14748   7.083   7.764   9.497  0.3446  1.0405 -1.1326
  850MOL0     H14749   7.219   7.839   9.423 -0.7978 -0.6570 -2.0374
  850MOL0     H14750   7.208   7.815   9.612  4.0449  4.4193 -0.5894
  851MOL0     O14751   6.503  11.205   1.964 -0.6965 -0.5869  0.2973
  851MOL0     C14752   6.453  11.294   1.894 -0.3282 -0.4602  0.5542
  851MOL0     O14753   6.324  11.292   1.848 -0.1195  0.3500  0.1677
  851MOL0     C14754   6.228  11.230   1.926 -0.1909  0.4473  0.2089
  851MOL0     C14755   6.122  11.152   1.876  0.4534 -0.0832 -0.1672
  851MOL0     C14756   6.005  11.119   1.956 -0.2514  0.1686  0.6572
  851MOL0     C14757   6.008  11.127   2.091 -0.1893  1.1444 -0.6314
  851MOL0     O14758   5.918  11.078   2.178  0.0014  0.5093  0.0141
  851MOL0     C14759   5.836  10.974   2.126 -0.4300  0.4675  0.3997
  851MOL0     C14760   5.775  10.900   2.244 -0.6969 -1.3141 -0.1722
  851MOL0     C14761   5.707  10.998   2.350  0.3913  0.8859  0.2850
  851MOL0     C14762   5.596  10.930   2.434 -0.5126 -0.0039  0.6228
  851MOL0     C14763   5.571  11.016   2.553  0.1029  0.3482 -1.0581
  851MOL0     C14764   5.672  10.974   2.668 -0.0643 -0.0279 -0.6745
  851MOL0     C14765   5.657  11.059   2.798 -0.5848 -0.3006 -0.1491
  851MOL0     C14766   5.776  11.029   2.884 -0.4007  0.3074 -1.5495
  851MOL0     N14767   5.846  11.151   2.920 -0.0438  0.3477 -0.5188
  851MOL0     C14768   5.916  11.235   2.836  0.6085  0.3005 -0.2984
  851MOL0     C14769   5.926  11.346   2.904 -0.1651 -0.6300  0.4094
  851MOL0     C14770   5.979  11.483   2.857 -0.3594  0.0057 -0.0084
  851MOL0     C14771   6.104  11.539   2.914  0.0260  0.6601  0.0090
  851MOL0     C14772   6.235  11.479   2.856 -0.8619  0.0535  0.0942
  851MOL0     C14773   6.335  11.590   2.849 -0.0666 -0.1620  1.1819
  851MOL0     O14774   6.286  11.671   2.737 -0.4946  0.5091  0.6341
  851MOL0     C14775   6.379  11.735   2.664 -0.8947 -0.8647  0.4801
  851MOL0     C14776   6.328  11.812   2.557  0.2109 -0.0674  0.2617
  851MOL0     C14777   6.408  11.906   2.484 -0.1885  0.2953  0.6227
  851MOL0     C14778   6.545  11.915   2.520  0.3193 -0.8329 -0.3804
  851MOL0     C14779   6.639  12.001   2.446  0.3371 -0.2032  0.8605
  851MOL0     O14780   6.754  12.055   2.506 -0.0043 -0.4419  0.4512
  851MOL0     C14781   6.839  12.120   2.420  0.5526 -0.2388 -0.2354
  851MOL0     C14782   6.971  12.085   2.423 -0.5714 -0.0196 -0.2207
  851MOL0     C14783   7.068  12.158   2.350 -0.0658 -0.9216 -0.2291
  851MOL0     C14784   7.030  12.272   2.280  0.7568 -0.3471 -0.3342
  851MOL0     O14785   7.112  12.354   2.205 -0.4496  0.2030 -0.2838
  851MOL0     C14786   7.243  12.304   2.169 -0.1496  0.4744  0.8169
  851MOL0     C14787   7.297  12.399   2.056  0.1823 -0.0941  1.1101
  851MOL0     C14788   7.392  12.500   2.117  0.4706 -0.7033 -0.4914
  851MOL0     C14789   7.425  12.625   2.029  0.2392 -0.5486  0.2695
  851MOL0     C14790   7.296  12.710   2.005  0.7924  0.3466 -0.0751
  851MOL0     C14791   7.338  12.852   1.980 -0.4755 -0.4359  0.1754
  851MOL0     C14792   7.441  12.872   1.858  0.2123  0.2605 -1.0524
  851MOL0     C14793   7.443  13.015   1.808 -0.7191  0.2883 -1.6011
  851MOL0    Cl14794   7.558  13.123   1.907  0.3506  0.0322  0.8007
  851MOL0     C14795   6.901  12.323   2.293 -0.4125  0.3021 -0.2427
  851MOL0     C14796   6.805  12.247   2.366 -0.1078 -0.4532  0.1891
  851MOL0     O14797   6.616  12.007   2.325 -0.9620 -0.0319  0.4730
  851MOL0     C14798   6.596  11.847   2.630  0.8678 -0.2845 -0.2542
  851MOL0     C14799   6.517  11.747   2.692  0.0862  0.2827  0.5273
  851MOL0     N14800   5.884  11.327   3.031 -0.7980 -0.0075 -0.3486
  851MOL0     N14801   5.836  11.203   3.043 -0.1008 -0.6515 -0.4879
  851MOL0     C14802   6.122  11.196   2.143  0.9067  1.1581  0.1167
  851MOL0     C14803   6.227  11.248   2.063 -0.2808 -0.5310 -0.6201
  851MOL0     C14804   6.546  11.378   1.824  0.9239  0.1302 -0.6557
  851MOL0     C14805   6.565  11.368   1.691  0.1146 -0.4040  0.1398
  851MOL0     C14806   6.649  11.456   1.623  0.4275 -0.3152 -0.2614
  851MOL0     C14807   6.716  11.554   1.692 -0.4270 -0.2045  0.9002
  851MOL0     O14808   6.805  11.636   1.637 -0.5922 -0.2144 -0.4618
  851MOL0     C14809   6.802  11.680   1.508  0.3259 -0.9113  0.9855
  851MOL0     C14810   6.905  11.612   1.423 -0.3075  0.8634  0.4671
  851MOL0     C14811   7.050  11.635   1.447  0.0335 -1.0131 -0.0962
  851MOL0     C14812   7.140  11.568   1.332  0.6048  0.5140  0.0089
  851MOL0     C14813   7.106  11.428   1.292 -0.3395 -0.4912  0.9243
  851MOL0     C14814   7.084  11.311   1.271  0.2172 -0.4601 -0.2483
  851MOL0     C14815   6.695  11.561   1.831 -0.0611 -0.3507  0.3845
  851MOL0     C14816   6.606  11.481   1.897 -0.0497  0.4874  0.3343
  851MOL0     C14817   6.597  11.510   2.045  0.3087 -0.0641  0.3278
  851MOL0     H14818   6.098  11.154   1.770  1.1936 -1.7736 -0.3928
  851MOL0     H14819   5.912  11.084   1.914  0.5289 -1.3307  0.0806
  851MOL0     H14820   5.758  11.010   2.058  1.6133  2.3444 -1.0725
  851MOL0     H14821   5.893  10.904   2.064 -0.5988 -0.0644  0.8296
  851MOL0     H14822   5.851  10.846   2.301  1.4188 -1.1937 -2.6898
  851MOL0     H14823   5.708  10.817   2.219 -0.3887 -2.3497  2.1741
  851MOL0     H14824   5.661  11.079   2.293  0.0706 -0.9645 -2.2860
  851MOL0     H14825   5.796  11.022   2.410  1.3150 -3.0366  0.7687
  851MOL0     H14826   5.505  10.917   2.374  0.0218  0.1555 -0.2403
  851MOL0     H14827   5.622  10.826   2.457 -2.2194 -0.7079 -0.3845
  851MOL0     H14828   5.582  11.122   2.531 -0.1268  0.3675 -1.0801
  851MOL0     H14829   5.472  10.991   2.592  0.6112  2.1425  1.6798
  851MOL0     H14830   5.644  10.871   2.694 -1.2758  0.9521  2.2909
  851MOL0     H14831   5.776  10.988   2.638 -0.3887 -0.2221 -1.9520
  851MOL0     H14832   5.565  11.030   2.849 -0.3986  0.0617  0.4028
  851MOL0     H14833   5.660  11.166   2.779  3.8469 -0.1230  0.4241
  851MOL0     H14834   5.727  10.980   2.969 -0.0393  3.0102  0.3348
  851MOL0     H14835   5.834  10.951   2.835  1.4001  1.5568 -1.4795
  851MOL0     H14836   5.934  11.229   2.729  0.3543 -2.1817 -0.2663
  851MOL0     H14837   5.983  11.501   2.750 -2.1665 -0.8349 -0.2443
  851MOL0     H14838   5.912  11.560   2.898  1.6276  2.9601 -1.9156
  851MOL0     H14839   6.104  11.648   2.904  0.2698  0.9411  2.4736
  851MOL0     H14840   6.103  11.529   3.023  2.7428 -1.6568 -0.0579
  851MOL0     H14841   6.210  11.444   2.755 -0.5282 -0.7094  0.2697
  851MOL0     H14842   6.255  11.392   2.919  1.8953 -1.3085 -2.4415
  851MOL0     H14843   6.425  11.537   2.817 -0.6920  0.3206 -1.5951
  851MOL0     H14844   6.351  11.647   2.941  0.8717  0.6110  0.5624
  851MOL0     H14845   6.224  11.813   2.526  1.0637  0.8868 -3.0226
  851MOL0     H14846   6.353  11.972   2.418  0.3044 -0.1263 -0.2264
  851MOL0     H14847   7.009  12.008   2.490  0.2629  0.7428  0.2031
  851MOL0     H14848   7.174  12.134   2.350  0.2385  0.0463 -3.2551
  851MOL0     H14849   7.308  12.290   2.256 -2.1649 -2.0281  2.0807
  851MOL0     H14850   7.233  12.208   2.117  0.3411  0.6581  0.3679
  851MOL0     H14851   7.349  12.325   1.994  1.3090 -0.0621  1.9806
  851MOL0     H14852   7.215  12.445   2.000  0.1080 -1.5484 -0.0491
  851MOL0     H14853   7.370  12.528   2.220 -1.9740 -1.9252 -0.6203
  851MOL0     H14854   7.483  12.440   2.120  1.2573  0.4714 -0.1752
  851MOL0     H14855   7.473  12.581   1.941 -0.7398 -0.7391 -0.1828
  851MOL0     H14856   7.502  12.689   2.073 -0.9554  0.6378  0.6771
  851MOL0     H14857   7.225  12.699   2.087  2.0002 -0.9273  0.8334
  851MOL0     H14858   7.255  12.671   1.911 -1.2857  1.1199  0.4630
  851MOL0     H14859   7.253  12.920   1.969  0.6912  1.0154 -0.2228
  851MOL0     H14860   7.385  12.890   2.071  0.5555  1.0838 -0.9377
  851MOL0     H14861   7.420  12.798   1.780  0.0096  0.6508 -1.3721
  851MOL0     H14862   7.542  12.852   1.896 -0.6836 -2.4005  0.1894
  851MOL0     H14863   7.495  13.012   1.712  0.6972  0.0811 -0.8559
  851MOL0     H14864   7.345  13.063   1.804  0.3398  3.9093  4.0210
  851MOL0     H14865   6.861  12.403   2.231 -2.2852  0.0125  0.5251
  851MOL0     H14866   6.705  12.289   2.371 -0.3713 -1.0274 -0.0724
  851MOL0     H14867   6.703  11.853   2.650  1.0122  0.4868 -1.1865
  851MOL0     H14868   6.571  11.679   2.757 -1.2331 -0.1658  1.1967
  851MOL0     H14869   6.154  11.218   2.244  0.0830  2.0738  0.1873
  851MOL0     H14870   6.307  11.313   2.096  1.5806 -2.1433 -1.7975
  851MOL0     H14871   6.502  11.293   1.643 -1.3069  1.7175 -1.5272
  851MOL0     H14872   6.652  11.431   1.518  1.7664 -4.8636  0.6668
  851MOL0     H14873   6.829  11.786   1.500  0.0845 -0.9195 -0.0665
  851MOL0     H14874   6.700  11.678   1.467 -0.7868  0.6677  3.4417
  851MOL0     H14875   6.891  11.620   1.315 -0.7934 -0.8242  0.3778
  851MOL0     H14876   6.895  11.506   1.444 -1.6291  0.6352 -1.0967
  851MOL0     H14877   7.080  11.603   1.547  0.2644  2.0690  0.9390
  851MOL0     H14878   7.076  11.741   1.458 -0.5373 -1.0426  2.0876
  851MOL0     H14879   7.114  11.635   1.249 -3.9450 -0.7027  0.2056
  851MOL0     H14880   7.247  11.573   1.354  0.7201 -2.8931  0.7815
  851MOL0     H14881   7.027  11.221   1.255 -0.1975 -0.4281  0.8877
  851MOL0     H14882   6.760  11.622   1.893  0.5489 -1.3566  0.7701
  851MOL0     H14883   6.511  11.455   2.085  0.4992 -0.8644 -0.3541
  851MOL0     H14884   6.683  11.477   2.105 -0.1405 -0.2047  0.9014
  851MOL0     H14885   6.572  11.616   2.055  3.4669  0.7000  1.1996
  852MOL0     O14886   4.540   8.286   1.312  0.1009  0.8549 -0.2901
  852MOL0     C14887   4.541   8.347   1.419 -0.0336 -0.5376  0.5608
  852MOL0     O14888   4.568   8.307   1.545 -1.2128  0.0255 -0.3346
  852MOL0     C14889   4.588   8.169   1.553  0.5131 -0.8775  0.3861
  852MOL0     C14890   4.478   8.086   1.547  0.8163 -0.5700  0.0353
  852MOL0     C14891   4.489   7.948   1.539  0.3246  0.1247  0.0882
  852MOL0     C14892   4.628   7.896   1.545 -0.1826 -0.4951 -0.6433
  852MOL0     O14893   4.657   7.759   1.551 -0.4856 -0.3691 -0.6728
  852MOL0     C14894   4.545   7.676   1.608 -1.1194 -0.4879  0.5270
  852MOL0     C14895   4.585   7.534   1.608 -0.4668  0.5145 -0.4963
  852MOL0     C14896   4.602   7.470   1.465 -0.5261 -0.9474 -0.6131
  852MOL0     C14897   4.714   7.360   1.466  0.1552 -0.0928 -0.5881
  852MOL0     C14898   4.862   7.398   1.453 -0.9019 -0.0437 -0.1579
  852MOL0     C14899   4.913   7.412   1.307 -0.6325 -1.1868  0.4457
  852MOL0     C14900   4.904   7.275   1.230  0.2034 -0.7895  0.1556
  852MOL0     C14901   4.973   7.296   1.101 -0.1104 -0.1910  0.7071
  852MOL0     N14902   4.956   7.179   1.005  0.3990 -0.2739 -0.7234
  852MOL0     C14903   4.939   7.204   0.867  0.4371 -0.1194 -0.0984
  852MOL0     C14904   4.960   7.081   0.814 -0.3761  0.4561 -0.3266
  852MOL0     C14905   4.966   7.051   0.655 -0.1181  0.2274  0.1686
  852MOL0     C14906   4.822   7.041   0.600  0.0108  0.0308  0.5442
  852MOL0     C14907   4.757   6.912   0.645  0.2464  0.5759  0.1220
  852MOL0     C14908   4.609   6.920   0.594  0.0875  0.5888 -0.0765
  852MOL0     O14909   4.565   6.786   0.623 -0.6537  0.5870  0.0408
  852MOL0     C14910   4.431   6.768   0.610 -0.5344  0.2216 -0.5838
  852MOL0     C14911   4.387   6.633   0.605  0.4374 -0.8326  0.0066
  852MOL0     C14912   4.252   6.605   0.552  0.5883 -0.1421  0.5538
  852MOL0     C14913   4.166   6.705   0.511  0.5008  0.2640  1.2673
  852MOL0     C14914   4.033   6.683   0.433 -0.1539 -0.2082 -0.8435
  852MOL0     O14915   3.997   6.558   0.405  0.6885  0.2767 -0.2459
  852MOL0     C14916   3.875   6.546   0.334 -0.0332  0.3085  0.6646
  852MOL0     C14917   3.873   6.460   0.222 -0.1386 -0.3763 -0.0875
  852MOL0     C14918   3.754   6.441   0.143 -0.1389  0.1323 -0.2141
  852MOL0     C14919   3.635   6.501   0.187 -0.3458 -0.7406 -0.4238
  852MOL0     O14920   3.512   6.480   0.125  0.3931  0.2718 -0.3980
  852MOL0     C14921   3.498   6.392   0.011 -0.1452  0.2264 -0.7968
  852MOL0     C14922   3.344   6.373   0.011 -0.4097 -0.1913 -0.4166
  852MOL0     C14923   3.310   6.284  -0.107  0.1889  0.6522  0.0933
  852MOL0     C14924   3.158   6.235  -0.092 -1.3876 -0.2401  0.7587
  852MOL0     C14925   3.135   6.129  -0.204  0.1560 -0.0701 -0.1516
  852MOL0     C14926   2.986   6.077  -0.175  0.1310 -0.4476 -0.5384
  852MOL0     C14927   2.934   5.964  -0.267 -0.0773  0.0346  0.0985
  852MOL0     C14928   3.012   5.843  -0.281  0.6722  0.3520 -0.0357
  852MOL0    Cl14929   3.017   5.765  -0.129 -0.1062  0.3219 -0.2024
  852MOL0     C14930   3.639   6.581   0.303 -0.6370 -0.2265  0.8516
  852MOL0     C14931   3.749   6.603   0.373 -0.5340  0.3620  0.1923
  852MOL0     O14932   3.971   6.784   0.402 -0.1460 -0.4925  0.2226
  852MOL0     C14933   4.212   6.839   0.531  0.5096 -0.1842 -0.8439
  852MOL0     C14934   4.333   6.867   0.581 -0.4779  0.4705  0.0501
  852MOL0     N14935   5.006   6.990   0.921 -0.7575  0.5875  0.8269
  852MOL0     N14936   5.000   7.048   1.032  0.3245 -0.2206 -0.7328
  852MOL0     C14937   4.733   7.974   1.549  0.7699 -0.3753 -0.8226
  852MOL0     C14938   4.714   8.112   1.569  0.5804  0.0475 -0.5848
  852MOL0     C14939   4.484   8.485   1.412  0.4529  1.2544  0.1871
  852MOL0     C14940   4.408   8.536   1.520  0.6800 -0.1972 -0.4138
  852MOL0     C14941   4.333   8.656   1.513 -0.2409  0.2588  0.1043
  852MOL0     C14942   4.317   8.717   1.391 -0.3635 -0.1543  0.2882
  852MOL0     O14943   4.218   8.815   1.387 -0.0115 -0.2258  0.1718
  852MOL0     C14944   4.217   8.919   1.281  0.1541  1.1678  0.3994
  852MOL0     C14945   4.327   9.020   1.295 -0.2217 -0.3358  0.0304
  852MOL0     C14946   4.307   9.118   1.180 -0.6484 -0.7094  0.5574
  852MOL0     C14947   4.420   9.230   1.169  0.1849  0.0061  0.2940
  852MOL0     C14948   4.370   9.333   1.074 -0.3165  1.4185  0.0564
  852MOL0     C14949   4.335   9.410   0.995  0.6578 -0.2097  1.0375
  852MOL0     C14950   4.396   8.674   1.286  0.2091 -0.0820  0.5616
  852MOL0     C14951   4.490   8.569   1.297 -0.5254 -0.2296  0.3764
  852MOL0     C14952   4.571   8.545   1.176 -0.7975  0.7389 -0.7421
  852MOL0     H14953   4.381   8.125   1.520  1.8962  2.0645 -0.3560
  852MOL0     H14954   4.394   7.901   1.521  0.6872 -2.1027  3.1428
  852MOL0     H14955   4.511   7.709   1.707 -1.4109 -0.1227  0.3087
  852MOL0     H14956   4.465   7.698   1.537  1.5680  1.3362 -2.2089
  852MOL0     H14957   4.513   7.472   1.661 -0.2486  1.0892  0.5068
  852MOL0     H14958   4.683   7.513   1.652 -0.2933 -1.1022 -1.5526
  852MOL0     H14959   4.642   7.540   1.391  1.2625  1.0416  2.0419
  852MOL0     H14960   4.511   7.430   1.419 -0.9427 -1.2592  0.4609
  852MOL0     H14961   4.698   7.307   1.561  2.2530 -0.5949 -0.4643
  852MOL0     H14962   4.692   7.282   1.392 -1.4906 -0.9924  0.7562
  852MOL0     H14963   4.903   7.483   1.510  3.1194 -3.2497  2.3503
  852MOL0     H14964   4.910   7.307   1.490 -0.6152  0.9323  2.0247
  852MOL0     H14965   4.855   7.489   1.255  4.5179  0.5548 -3.6201
  852MOL0     H14966   5.017   7.443   1.297 -0.5153 -1.4590  0.8534
  852MOL0     H14967   4.804   7.236   1.210 -0.4242  0.6715  0.2833
  852MOL0     H14968   4.960   7.211   1.299  0.8332  0.0084  0.4093
  852MOL0     H14969   4.936   7.384   1.049 -1.5764 -0.2776  1.5501
  852MOL0     H14970   5.079   7.317   1.122  0.5419 -3.1104  0.8117
  852MOL0     H14971   4.906   7.292   0.813 -3.3399 -0.1160  1.8705
  852MOL0     H14972   5.003   7.137   0.600 -1.7493  0.6947 -0.2333
  852MOL0     H14973   5.017   6.958   0.627 -3.5831 -1.7540 -0.0637
  852MOL0     H14974   4.769   7.127   0.642  0.5302  1.8290 -2.2164
  852MOL0     H14975   4.806   7.056   0.493  1.2964 -0.6805  0.2224
  852MOL0     H14976   4.768   6.892   0.752  1.1941  0.3723 -0.0065
  852MOL0     H14977   4.819   6.834   0.600 -0.3295 -0.8348  1.6601
  852MOL0     H14978   4.590   6.953   0.492  0.5823 -1.9582 -1.0803
  852MOL0     H14979   4.546   6.989   0.651 -1.8512 -0.9280 -0.2467
  852MOL0     H14980   4.449   6.544   0.614 -1.5742 -3.0579 -4.6249
  852MOL0     H14981   4.216   6.504   0.533 -0.0436  0.4422 -1.5673
  852MOL0     H14982   3.969   6.411   0.208 -1.0913 -2.9301  1.6341
  852MOL0     H14983   3.743   6.366   0.065  0.9588 -1.8513  1.4360
  852MOL0     H14984   3.534   6.444  -0.079  0.5307  0.0852 -0.6161
  852MOL0     H14985   3.557   6.300   0.013  2.8248  1.9454  2.6761
  852MOL0     H14986   3.309   6.337   0.108  0.3717 -0.9380 -0.4034
  852MOL0     H14987   3.310   6.477   0.004  2.4248  0.7588 -1.7911
  852MOL0     H14988   3.326   6.342  -0.199 -1.2636 -1.6486 -1.7423
  852MOL0     H14989   3.371   6.194  -0.111 -1.9242 -0.8694 -0.0201
  852MOL0     H14990   3.102   6.328  -0.100 -1.4107  0.1619  3.9701
  852MOL0     H14991   3.134   6.193   0.006  1.5080  2.0473  2.6503
  852MOL0     H14992   3.192   6.036  -0.195  1.4630  0.7780  0.6797
  852MOL0     H14993   3.140   6.181  -0.300  1.5082  3.1545  1.5259
  852MOL0     H14994   2.973   6.043  -0.072  1.7103 -1.5060 -0.6531
  852MOL0     H14995   2.920   6.164  -0.182 -0.2760 -0.5110  1.7829
  852MOL0     H14996   2.905   6.015  -0.359 -1.1472  0.6323  0.7511
  852MOL0     H14997   2.846   5.929  -0.212  1.1578 -0.2831  1.9701
  852MOL0     H14998   2.948   5.780  -0.344 -0.8175  1.1508  0.6204
  852MOL0     H14999   3.115   5.857  -0.312  0.8359 -1.3882 -0.4175
  852MOL0     H15000   3.545   6.628   0.328 -0.5441  2.8213 -3.4316
  852MOL0     H15001   3.755   6.655   0.467 -0.8243  0.1860  0.3080
  852MOL0     H15002   4.137   6.914   0.509 -0.6554 -1.1414 -0.2725
  852MOL0     H15003   4.351   6.973   0.573  1.9934 -0.0186 -2.3830
  852MOL0     H15004   4.837   7.951   1.564  0.7642  0.2995  0.3759
  852MOL0     H15005   4.797   8.180   1.585 -1.9219  3.3345 -0.5610
  852MOL0     H15006   4.426   8.476   1.609  1.0766 -0.7587 -0.8640
  852MOL0     H15007   4.280   8.694   1.600  0.7240  0.6948  0.5208
  852MOL0     H15008   4.121   8.972   1.278 -1.3643 -1.3125  1.7332
  852MOL0     H15009   4.221   8.875   1.181  0.4091  1.7258  0.1579
  852MOL0     H15010   4.427   8.978   1.285  0.1509 -0.2200  2.5646
  852MOL0     H15011   4.323   9.067   1.394 -0.3834 -0.5214  0.1125
  852MOL0     H15012   4.208   9.163   1.195  0.0793  0.3225  2.6896
  852MOL0     H15013   4.312   9.072   1.081 -4.0273  1.2814 -0.7133
  852MOL0     H15014   4.445   9.283   1.261 -0.6501  1.9382 -0.5526
  852MOL0     H15015   4.520   9.192   1.144  1.3436  2.3257  1.0899
  852MOL0     H15016   4.312   9.483   0.920  1.2767 -0.8489  0.1966
  852MOL0     H15017   4.392   8.724   1.189  0.1848  0.2697  0.7407
  852MOL0     H15018   4.676   8.570   1.197 -1.5237  1.6083  2.3605
  852MOL0     H15019   4.563   8.447   1.128 -0.4072 -0.7147  1.9914
  852MOL0     H15020   4.544   8.619   1.099 -5.1696  1.2234  0.9899
  853MOL0     O15021   5.406   7.312   9.226 -0.9967  0.2355  0.3881
  853MOL0     C15022   5.321   7.248   9.160  0.2932  0.2207  0.3218
  853MOL0     O15023   5.341   7.172   9.051 -0.3877  0.2307 -0.2254
  853MOL0     C15024   5.461   7.171   8.992 -0.0965  0.7242  0.0641
  853MOL0     C15025   5.495   7.252   8.879 -0.7405 -0.6901 -0.2654
  853MOL0     C15026   5.628   7.238   8.816 -0.0759 -0.0463  0.1878
  853MOL0     C15027   5.721   7.145   8.864  0.4150  0.4043  0.6068
  853MOL0     O15028   5.845   7.129   8.810 -0.2018  0.2145 -0.6023
  853MOL0     C15029   5.838   7.101   8.675 -0.1580  0.1524 -0.0312
  853MOL0     C15030   5.984   7.068   8.636  0.3611  0.6499 -0.2948
  853MOL0     C15031   6.029   6.939   8.702 -0.4491  0.2855 -0.2510
  853MOL0     C15032   6.168   6.899   8.632  0.3950 -0.2930 -0.2169
  853MOL0     C15033   6.254   6.797   8.719  0.0743  0.8562 -0.3229
  853MOL0     C15034   6.168   6.660   8.753  0.1750  0.1136  0.5625
  853MOL0     C15035   6.128   6.565   8.628 -0.7063  0.7422  0.5587
  853MOL0     C15036   6.252   6.490   8.554  0.9572 -0.0508 -0.3789
  853MOL0     N15037   6.343   6.417   8.653  0.3253  0.0617  0.1366
  853MOL0     C15038   6.317   6.289   8.695  0.9696 -0.2550  0.0021
  853MOL0     C15039   6.429   6.254   8.761  1.1404 -0.5023 -0.6573
  853MOL0     C15040   6.477   6.118   8.798  0.3825 -0.8526 -0.3013
  853MOL0     C15041   6.482   6.063   8.941 -0.0567 -0.3919 -0.1844
  853MOL0     C15042   6.594   6.130   9.028  0.7829 -0.6694  1.0228
  853MOL0     C15043   6.560   6.255   9.104  0.1284  0.1285  0.3109
  853MOL0     O15044   6.502   6.225   9.228  0.1908  0.2747  0.1311
  853MOL0     C15045   6.461   6.334   9.302 -0.5383 -0.8950 -0.2022
  853MOL0     C15046   6.483   6.476   9.270  0.0639  0.2002 -0.2836
  853MOL0     C15047   6.446   6.577   9.366  0.1637 -0.3226  0.4218
  853MOL0     C15048   6.389   6.550   9.491  0.1943  0.4865 -0.9162
  853MOL0     C15049   6.358   6.663   9.584  0.2016  0.1964  0.4130
  853MOL0     O15050   6.422   6.782   9.566 -0.3253  0.3594  0.9188
  853MOL0     C15051   6.389   6.886   9.644  0.2975  0.7464  0.0275
  853MOL0     C15052   6.449   6.914   9.762  0.0897 -0.6344 -0.1317
  853MOL0     C15053   6.408   7.010   9.848 -0.1314 -0.5317 -0.2520
  853MOL0     C15054   6.307   7.102   9.812 -0.3627 -0.6565  0.7298
  853MOL0     O15055   6.259   7.216   9.885 -0.4767 -0.1771  0.9478
  853MOL0     C15056   6.325   7.238  10.008  0.0126 -0.6369 -0.1124
  853MOL0     C15057   6.257   7.369  10.075  0.0025  1.0070  0.6818
  853MOL0     C15058   6.310   7.494  10.008 -0.6514  0.0029  0.0946
  853MOL0     C15059   6.210   7.613  10.033  0.0784  1.0943  0.5345
  853MOL0     C15060   6.276   7.729   9.955  0.4259 -0.7369  0.4280
  853MOL0     C15061   6.185   7.854   9.947 -0.5274 -1.0723  0.1083
  853MOL0     C15062   6.230   7.985  10.018  0.5569  0.9993  0.0825
  853MOL0     C15063   6.169   8.103   9.940 -0.7914 -0.1534  0.9472
  853MOL0    Cl15064   6.284   8.157   9.824  0.1300  0.3741  0.0673
  853MOL0     C15065   6.242   7.081   9.692  0.2454  0.8332  0.2576
  853MOL0     C15066   6.281   6.967   9.610  0.7204  0.2100  0.4353
  853MOL0     O15067   6.269   6.643   9.666  0.0224 -0.0338  0.0083
  853MOL0     C15068   6.361   6.413   9.520  1.2055  0.3279 -0.7260
  853MOL0     C15069   6.398   6.307   9.425 -0.1434 -0.5932  0.4039
  853MOL0     N15070   6.509   6.364   8.756 -0.5844 -0.4776  0.0600
  853MOL0     N15071   6.458   6.463   8.702  0.7754 -0.5825  0.6143
  853MOL0     C15072   5.683   7.057   8.968  1.1359 -0.1113 -0.7471
  853MOL0     C15073   5.560   7.072   9.035  0.8382 -0.3126  0.2019
  853MOL0     C15074   5.170   7.247   9.204 -0.0885 -0.2155  0.4111
  853MOL0     C15075   5.078   7.153   9.145 -0.4450  0.0819  0.1265
  853MOL0     C15076   4.946   7.143   9.192  0.7030  0.1118 -0.4246
  853MOL0     C15077   4.899   7.242   9.290  0.9366  0.2971  0.2490
  853MOL0     O15078   4.768   7.255   9.339  0.1460  0.3953 -1.0795
  853MOL0     C15079   4.681   7.141   9.344  0.8773 -0.5037 -0.1948
  853MOL0     C15080   4.737   7.026   9.424 -0.3082 -1.2694  0.1493
  853MOL0     C15081   4.691   6.891   9.372  0.1062  0.0254  0.8090
  853MOL0     C15082   4.775   6.762   9.399  1.1437 -0.3660  0.0194
  853MOL0     C15083   4.842   6.772   9.528  0.6238 -0.5810 -0.8049
  853MOL0     C15084   4.931   6.769   9.620  0.5100  0.3942 -0.2593
  853MOL0     C15085   4.988   7.327   9.348 -0.4468 -0.4258  0.8104
  853MOL0     C15086   5.120   7.337   9.301 -0.3296  0.6671  0.0433
  853MOL0     C15087   5.199   7.430   9.389 -0.4879 -0.0261  0.2315
  853MOL0     H15088   5.417   7.319   8.844 -1.0163 -0.8622  0.0208
  853MOL0     H15089   5.659   7.303   8.735 -1.1936 -1.3442 -1.3642
  853MOL0     H15090   5.765   7.026   8.644 -1.2568  0.8736  0.7144
  853MOL0     H15091   5.817   7.186   8.609  0.2444 -1.1564 -1.8976
  853MOL0     H15092   6.048   7.144   8.683  0.1109 -0.9862  2.9672
  853MOL0     H15093   5.986   7.058   8.527  2.1048  1.3824 -0.3718
  853MOL0     H15094   5.954   6.862   8.682  0.1299 -0.3954  0.1507
  853MOL0     H15095   6.048   6.944   8.810  2.1461 -1.7847 -0.5042
  853MOL0     H15096   6.137   6.866   8.533  3.8830 -1.5334 -1.0702
  853MOL0     H15097   6.232   6.984   8.610  3.2548 -1.5378  2.4675
  853MOL0     H15098   6.353   6.773   8.677 -0.7567 -1.3910 -1.2048
  853MOL0     H15099   6.276   6.847   8.813  0.4334 -0.2259  0.1868
  853MOL0     H15100   6.234   6.604   8.820  1.6493  0.3979 -0.6024
  853MOL0     H15101   6.071   6.677   8.800  1.2682  4.9530  1.6380
  853MOL0     H15102   6.064   6.620   8.559 -0.1315  0.2528 -0.3906
  853MOL0     H15103   6.061   6.484   8.656 -1.4696  1.5035  0.9711
  853MOL0     H15104   6.212   6.416   8.483  0.2919 -1.5651  1.4924
  853MOL0     H15105   6.309   6.553   8.484  0.0231 -0.5427 -1.6237
  853MOL0     H15106   6.245   6.217   8.655 -0.0353 -0.1004  1.4421
  853MOL0     H15107   6.398   6.052   8.759 -0.7242  0.7827 -0.9204
  853MOL0     H15108   6.569   6.107   8.740 -1.2009 -0.3629 -3.0817
  853MOL0     H15109   6.382   6.072   8.985  0.1443  0.7513  0.0678
  853MOL0     H15110   6.513   5.959   8.926 -2.4080 -0.9231 -1.8814
  853MOL0     H15111   6.673   6.167   8.963  0.4805 -0.6936  0.6394
  853MOL0     H15112   6.632   6.051   9.093 -0.4004 -1.5532  0.6731
  853MOL0     H15113   6.486   6.297   9.035 -1.5370 -2.1367  0.6078
  853MOL0     H15114   6.650   6.317   9.109  1.7801 -2.2390  2.0378
  853MOL0     H15115   6.530   6.502   9.176 -0.5187 -3.4452 -1.7376
  853MOL0     H15116   6.464   6.682   9.344 -2.3778 -0.3515 -2.4053
  853MOL0     H15117   6.538   6.858   9.788  1.2946 -0.2507 -3.0443
  853MOL0     H15118   6.457   6.999   9.944 -0.8050 -0.4567  0.1086
  853MOL0     H15119   6.320   7.142  10.060  2.7169 -1.9948 -2.1270
  853MOL0     H15120   6.431   7.251   9.988 -0.1025  0.0635 -0.2721
  853MOL0     H15121   6.149   7.356  10.068 -0.0945  2.2618 -0.6422
  853MOL0     H15122   6.298   7.383  10.176  1.3980  1.9873  0.0280
  853MOL0     H15123   6.409   7.515  10.050 -1.1158  1.0277  0.7240
  853MOL0     H15124   6.316   7.478   9.900  0.7969  0.3517  0.0971
  853MOL0     H15125   6.209   7.641  10.139 -0.9731 -2.1250  1.4673
  853MOL0     H15126   6.108   7.592  10.000  1.0245 -0.0139 -1.8874
  853MOL0     H15127   6.300   7.699   9.852 -1.6159  0.5317 -0.4748
  853MOL0     H15128   6.370   7.757  10.005 -0.9924  0.7353  2.4338
  853MOL0     H15129   6.149   7.869   9.845 -4.0411  2.2584  1.5830
  853MOL0     H15130   6.084   7.842   9.988  0.1869 -0.5461  2.1604
  853MOL0     H15131   6.338   7.983  10.035  0.3701 -1.7464  1.3555
  853MOL0     H15132   6.192   7.995  10.120  2.5104 -2.5424  1.3530
  853MOL0     H15133   6.076   8.074   9.890  2.4136 -4.5607 -3.2981
  853MOL0     H15134   6.152   8.184  10.011  1.8657  0.0813  1.3883
  853MOL0     H15135   6.165   7.143   9.649 -0.0438  2.2055  2.6242
  853MOL0     H15136   6.223   6.959   9.519  0.3223 -0.9044  0.7706
  853MOL0     H15137   6.315   6.396   9.616  0.6741  1.0598 -0.8463
  853MOL0     H15138   6.399   6.200   9.446  1.6421 -1.5879 -3.6864
  853MOL0     H15139   5.758   6.984   8.994  0.7130 -1.1853 -2.4116
  853MOL0     H15140   5.524   7.010   9.116  0.2794 -0.8339 -0.4405
  853MOL0     H15141   5.103   7.103   9.052  2.6322 -0.3004  1.0356
  853MOL0     H15142   4.877   7.090   9.127 -0.4229  3.1340 -1.8468
  853MOL0     H15143   4.663   7.102   9.243  1.4801 -3.4949  0.7638
  853MOL0     H15144   4.586   7.168   9.390  0.6009  2.6528 -2.3183
  853MOL0     H15145   4.714   7.048   9.529  0.3059 -3.4066  0.7904
  853MOL0     H15146   4.845   7.041   9.418 -0.6215  1.5828  0.3780
  853MOL0     H15147   4.687   6.887   9.262 -6.8593 -1.2492  0.6905
  853MOL0     H15148   4.591   6.891   9.416  1.1193 -1.3414  3.2756
  853MOL0     H15149   4.697   6.686   9.394 -1.6049  2.2897 -0.4577
  853MOL0     H15150   4.856   6.756   9.326  0.2059  0.3562 -1.1266
  853MOL0     H15151   4.984   6.754   9.712 -1.5935  0.6195  1.0699
  853MOL0     H15152   4.935   7.399   9.409 -0.2601 -0.0261  0.5047
  853MOL0     H15153   5.130   7.474   9.461  0.3181 -0.9786  1.6465
  853MOL0     H15154   5.278   7.374   9.442  0.7016 -1.3030 -2.6542
  853MOL0     H15155   5.251   7.503   9.327 -1.5903  0.0538 -0.6121
  854MOL0     O15156  10.931   0.039   9.224 -0.1002 -0.1223  0.3638
  854MOL0     C15157  10.996   0.108   9.149  0.4181  0.8321  0.0516
  854MOL0     O15158  10.945   0.226   9.105 -0.3339  0.6012  0.0241
  854MOL0     C15159  10.835   0.283   9.174  0.5137  0.7491 -0.1554
  854MOL0     C15160  10.850   0.336   9.306 -1.0361  0.8263  0.4207
  854MOL0     C15161  10.741   0.385   9.374 -0.4643 -0.3271  1.0547
  854MOL0     C15162  10.622   0.400   9.308  0.2784  0.3291  0.4029
  854MOL0     O15163  10.525   0.439   9.384 -0.1262 -0.6977  0.6194
  854MOL0     C15164  10.382   0.420   9.369 -0.4626  0.0526  1.3428
  854MOL0     C15165  10.332   0.283   9.363 -0.5947  0.0095  1.0239
  854MOL0     C15166  10.352   0.204   9.491 -0.2051 -0.5121 -0.1067
  854MOL0     C15167  10.285   0.064   9.466  0.9674 -0.7304  0.7120
  854MOL0     C15168  10.136   0.070   9.514  0.4964  0.3320 -0.6326
  854MOL0     C15169  10.080  -0.068   9.535  0.2984 -0.3797 -0.6092
  854MOL0     C15170   9.932  -0.061   9.567  0.0920  1.8927 -0.4292
  854MOL0     C15171   9.872  -0.207   9.561 -0.6236  0.3023  0.7800
  854MOL0     N15172   9.723  -0.219   9.550 -0.9399  0.7681 -0.7892
  854MOL0     C15173   9.652  -0.227   9.662 -0.7907 -0.6968 -0.7090
  854MOL0     C15174   9.552  -0.143   9.638  0.8402  0.8716  0.4476
  854MOL0     C15175   9.445  -0.112   9.736  0.6246  0.2522 -0.5150
  854MOL0     C15176   9.486  -0.010   9.845 -0.4179  0.2789 -0.6020
  854MOL0     C15177   9.464   0.129   9.793 -0.1949 -0.2857  0.7137
  854MOL0     C15178   9.501   0.227   9.905 -0.1226  0.7553 -0.2253
  854MOL0     O15179   9.454   0.172  10.035  0.4887 -0.3551  0.0502
  854MOL0     C15180   9.521   0.203  10.139 -0.3502  0.5598  0.4262
  854MOL0     C15181   9.504   0.333  10.187 -0.4730  0.4164 -0.4356
  854MOL0     C15182   9.571   0.376  10.304 -0.3635 -0.0850 -1.2604
  854MOL0     C15183   9.657   0.291  10.373  0.1607  1.2048 -0.6501
  854MOL0     C15184   9.724   0.334  10.504 -0.3691 -0.0167  0.9914
  854MOL0     O15185   9.737   0.256  10.612  0.8242 -0.6742  0.1224
  854MOL0     C15186   9.778   0.319  10.727  0.4354  0.7496 -0.1406
  854MOL0     C15187   9.870   0.256  10.804 -0.7640 -0.3572 -0.0364
  854MOL0     C15188   9.928   0.319  10.919  0.2679 -0.0417  0.1221
  854MOL0     C15189   9.881   0.447  10.958  0.1869 -0.3009 -0.3541
  854MOL0     O15190   9.931   0.498  11.075  0.0147  0.8766  0.0850
  854MOL0     C15191   9.971   0.634  11.064 -0.0957  0.1997  0.3075
  854MOL0     C15192  10.067   0.646  11.184 -0.6858  0.2103  0.4182
  854MOL0     C15193  10.070   0.792  11.223  0.5792 -1.0229  0.6712
  854MOL0     C15194  10.182   0.877  11.154 -0.5249 -0.0084 -0.3037
  854MOL0     C15195  10.307   0.922  11.238  0.4957 -0.1521  0.1165
  854MOL0     C15196  10.395   0.807  11.283 -0.4127  0.1412 -0.1008
  854MOL0     C15197  10.514   0.850  11.361 -0.7867 -0.6636 -0.1744
  854MOL0     C15198  10.610   0.735  11.403  0.1231 -0.5501 -0.8836
  854MOL0    Cl15199  10.754   0.812  11.476 -0.4228  0.0656  0.1322
  854MOL0     C15200   9.775   0.495  10.892 -0.2687 -0.7572  0.0250
  854MOL0     C15201   9.733   0.447  10.770  0.0437  1.8709  1.2803
  854MOL0     O15202   9.759   0.453  10.499 -0.9896 -0.5165 -0.9548
  854MOL0     C15203   9.683   0.161  10.315  0.2278 -0.1750 -1.4950
  854MOL0     C15204   9.601   0.118  10.210 -0.1637 -0.3013  0.1844
  854MOL0     N15205   9.540  -0.124   9.500  0.0244 -0.1219 -0.5406
  854MOL0     N15206   9.649  -0.166   9.448 -0.3495  1.5647 -0.2440
  854MOL0     C15207  10.605   0.350   9.177 -0.0773 -0.4886 -0.9119
  854MOL0     C15208  10.710   0.281   9.114 -0.0810  0.8066 -0.3529
  854MOL0     C15209  11.126   0.054   9.107 -0.8545 -0.2852  0.0497
  854MOL0     C15210  11.217   0.129   9.024  0.0244 -0.4685  0.2996
  854MOL0     C15211  11.336   0.089   8.960  0.2846  0.7148  0.1852
  854MOL0     C15212  11.390  -0.036   8.997 -0.4548 -0.2212 -0.7365
  854MOL0     O15213  11.490  -0.114   8.940 -0.5482 -0.0421  0.4598
  854MOL0     C15214  11.532  -0.078   8.811  0.0804 -0.3658 -0.2770
  854MOL0     C15215  11.663  -0.157   8.775 -0.3465  0.3852  0.2425
  854MOL0     C15216  11.649  -0.311   8.742  0.2319 -0.3919  0.1401
  854MOL0     C15217  11.661  -0.399   8.862 -0.4264 -0.3550  0.2406
  854MOL0     C15218  11.619  -0.531   8.830  0.9727  0.4959 -1.0399
  854MOL0     C15219  11.582  -0.643   8.816  0.1595  0.4434  0.2873
  854MOL0     C15220  11.313  -0.113   9.088 -0.2981  0.5625 -0.9696
  854MOL0     C15221  11.190  -0.070   9.143  0.1166  0.2134 -1.4394
  854MOL0     C15222  11.123  -0.155   9.246  0.2865  0.7477  0.7468
  854MOL0     H15223  10.948   0.349   9.350  0.2652  2.9347 -2.7363
  854MOL0     H15224  10.745   0.423   9.476 -0.1339  2.6879 -0.0078
  854MOL0     H15225  10.326   0.472   9.448  2.9600  1.6592  2.9500
  854MOL0     H15226  10.349   0.469   9.277  0.8494  1.5316  1.6204
  854MOL0     H15227  10.380   0.238   9.276 -4.2847 -1.8789 -0.2587
  854MOL0     H15228  10.224   0.285   9.342 -0.3528 -2.0977 -0.7682
  854MOL0     H15229  10.311   0.261   9.575  0.2917  1.9131 -1.4293
  854MOL0     H15230  10.455   0.186   9.524 -0.9539 -1.7914  1.7289
  854MOL0     H15231  10.280   0.038   9.360 -0.8082 -0.9670  0.8308
  854MOL0     H15232  10.340  -0.011   9.523 -0.4286 -1.1601  1.5495
  854MOL0     H15233  10.118   0.114   9.612  0.7463 -0.4657 -0.2271
  854MOL0     H15234  10.072   0.121   9.441  0.3676  1.8280  0.4988
  854MOL0     H15235  10.103  -0.138   9.454 -0.3251 -1.9349  0.5183
  854MOL0     H15236  10.125  -0.122   9.619 -1.8695  1.7936  2.1534
  854MOL0     H15237   9.880   0.002   9.495 -0.8931  3.3347  1.4649
  854MOL0     H15238   9.917  -0.029   9.671 -1.4531 -1.5809  0.5849
  854MOL0     H15239   9.911  -0.252   9.469 -5.2523 -1.4481 -0.6086
  854MOL0     H15240   9.915  -0.262   9.646  1.7199  2.1561  0.9084
  854MOL0     H15241   9.674  -0.280   9.754 -1.2742 -3.4304 -2.0641
  854MOL0     H15242   9.366  -0.065   9.677  0.5175 -0.6336 -1.0910
  854MOL0     H15243   9.417  -0.207   9.783  1.7335  0.8560  1.5128
  854MOL0     H15244   9.422  -0.044   9.927 -0.6685 -1.5562 -1.5142
  854MOL0     H15245   9.590  -0.020   9.877 -0.1273  1.2862 -1.1615
  854MOL0     H15246   9.358   0.137   9.768 -0.1638  2.3923  1.0985
  854MOL0     H15247   9.521   0.147   9.701 -2.2746  1.4139 -0.3225
  854MOL0     H15248   9.467   0.330   9.886  0.9161  1.6755  2.3404
  854MOL0     H15249   9.610   0.237   9.900 -0.1878  1.6103 -0.2431
  854MOL0     H15250   9.443   0.403  10.130  0.3066  0.7827 -0.8356
  854MOL0     H15251   9.559   0.469  10.358 -0.9223 -2.2141  2.6740
  854MOL0     H15252   9.905   0.156  10.781  2.0553 -0.2031  2.8275
  854MOL0     H15253  10.009   0.271  10.973  0.7385  0.9776  0.3682
  854MOL0     H15254  10.038   0.646  10.978  0.1473  1.9499  0.7050
  854MOL0     H15255   9.886   0.703  11.069  0.4034  1.2465 -2.9762
  854MOL0     H15256  10.032   0.591  11.271  0.1226 -0.0801  0.5732
  854MOL0     H15257  10.171   0.614  11.171 -0.4781  1.1316 -0.3298
  854MOL0     H15258   9.969   0.827  11.201  0.2119 -1.2459  1.9450
  854MOL0     H15259  10.071   0.814  11.330  0.7243  3.9496 -0.1034
  854MOL0     H15260  10.140   0.975  11.128  2.6040  1.6395  0.3282
  854MOL0     H15261  10.207   0.831  11.059 -1.8800  2.0753 -1.7568
  854MOL0     H15262  10.280   0.977  11.329 -0.3279  1.8219 -1.2506
  854MOL0     H15263  10.364   0.991  11.175 -0.1363 -0.6745 -1.0583
  854MOL0     H15264  10.326   0.747  11.344 -0.4299  0.8588  0.5949
  854MOL0     H15265  10.421   0.758  11.189 -3.1216  0.4529 -1.1179
  854MOL0     H15266  10.471   0.905  11.445 -2.2836 -1.5327 -0.3406
  854MOL0     H15267  10.569   0.916  11.295 -0.7733  0.0996  0.5768
  854MOL0     H15268  10.557   0.688  11.487  1.1697 -1.2539 -0.5998
  854MOL0     H15269  10.634   0.663  11.324  2.6706 -3.4591  2.2068
  854MOL0     H15270   9.752   0.597  10.920  0.1901 -0.6522  0.0307
  854MOL0     H15271   9.665   0.508  10.712  1.2620  1.8150 -0.2690
  854MOL0     H15272   9.757   0.100  10.366  0.1775  1.0276  0.0636
  854MOL0     H15273   9.618   0.021  10.164 -0.6426 -0.4144  0.2462
  854MOL0     H15274  10.516   0.366   9.117  0.3480  3.3442 -0.7149
  854MOL0     H15275  10.698   0.236   9.016  1.2410  1.3242 -0.7864
  854MOL0     H15276  11.193   0.233   9.005  1.5430  0.0470  1.0705
  854MOL0     H15277  11.369   0.162   8.888  0.3370 -0.4519 -1.0079
  854MOL0     H15278  11.563   0.027   8.812  2.8058 -1.0813  0.2086
  854MOL0     H15279  11.464  -0.115   8.735  1.1456 -2.2899 -0.3633
  854MOL0     H15280  11.736  -0.147   8.855 -1.8062 -3.4352  2.3063
  854MOL0     H15281  11.692  -0.119   8.677 -3.0246 -1.7546 -1.5506
  854MOL0     H15282  11.730  -0.333   8.671  2.8394 -1.8221  3.3229
  854MOL0     H15283  11.550  -0.320   8.697 -1.0352  3.3133  1.7321
  854MOL0     H15284  11.766  -0.412   8.888  0.6742 -1.0904 -3.9240
  854MOL0     H15285  11.616  -0.351   8.949  2.8297  1.8964  0.8572
  854MOL0     H15286  11.555  -0.746   8.806 -2.2733  0.2239  5.7124
  854MOL0     H15287  11.352  -0.210   9.115 -1.4686 -0.9269 -4.1230
  854MOL0     H15288  11.126  -0.108   9.345  4.6323  0.8235  0.7579
  854MOL0     H15289  11.017  -0.170   9.222 -0.0044  1.1618  1.6951
  854MOL0     H15290  11.179  -0.248   9.256 -0.4010  0.0126 -1.6588
  855MOL0     O15291   0.266   2.169   2.815  0.0717 -0.7633 -0.2678
  855MOL0     C15292   0.194   2.115   2.897  0.3094 -0.1896  0.2251
  855MOL0     O15293   0.141   1.991   2.879  0.2743  0.6381  0.4608
  855MOL0     C15294   0.181   1.893   2.784  1.1043 -0.1762  0.0424
  855MOL0     C15295   0.304   1.869   2.721 -0.9350 -0.6273 -1.0460
  855MOL0     C15296   0.331   1.766   2.619 -0.0111 -0.4074 -0.0059
  855MOL0     C15297   0.226   1.681   2.584 -0.8105  1.6434 -0.3621
  855MOL0     O15298   0.247   1.600   2.473 -0.2814  0.2826  0.5120
  855MOL0     C15299   0.139   1.520   2.430 -0.4834 -0.2942  0.3118
  855MOL0     C15300   0.127   1.378   2.492  0.2444 -0.2295 -0.9165
  855MOL0     C15301   0.225   1.268   2.441  0.1298  0.7890  0.6235
  855MOL0     C15302   0.375   1.312   2.431 -0.0744  0.1318  0.4652
  855MOL0     C15303   0.481   1.206   2.492 -0.1965 -0.3934  0.4631
  855MOL0     C15304   0.522   1.105   2.379  1.6795  0.0146  0.0983
  855MOL0     C15305   0.613   0.990   2.426  0.1735 -0.2950 -0.1093
  855MOL0     C15306   0.662   0.898   2.311  0.8489  0.7874  0.6241
  855MOL0     N15307   0.781   0.820   2.342 -0.2409 -0.3266 -0.2547
  855MOL0     C15308   0.907   0.868   2.373  0.1927  0.4886  1.1558
  855MOL0     C15309   0.979   0.753   2.394 -0.2037  0.1009 -0.4178
  855MOL0     C15310   1.109   0.757   2.460  0.6373  0.4249 -0.9228
  855MOL0     C15311   1.092   0.758   2.618  0.1247 -0.4468 -0.3960
  855MOL0     C15312   1.030   0.635   2.679  0.3063  0.3798 -0.0533
  855MOL0     C15313   1.112   0.509   2.668 -0.9057  0.4030  0.2440
  855MOL0     O15314   1.069   0.397   2.741  0.2719  0.1412  1.0253
  855MOL0     C15315   0.975   0.313   2.686 -0.0785  0.0560  0.2797
  855MOL0     C15316   0.883   0.348   2.584  0.1577  0.0272 -0.1507
  855MOL0     C15317   0.798   0.240   2.539  0.5709 -0.3092 -0.6065
  855MOL0     C15318   0.799   0.113   2.596  0.0740 -0.4430 -0.4470
  855MOL0     C15319   0.711   0.008   2.542  0.3074  0.1992  0.1936
  855MOL0     O15320   0.624   0.058   2.445  0.5932 -0.1830 -0.0951
  855MOL0     C15321   0.559  -0.036   2.362 -0.2334  0.0449 -0.8920
  855MOL0     C15322   0.620  -0.148   2.301 -0.3367  0.0378 -0.4713
  855MOL0     C15323   0.546  -0.256   2.243  1.1765 -0.4158  0.0120
  855MOL0     C15324   0.404  -0.254   2.231 -0.3170 -0.7896 -0.1440
  855MOL0     O15325   0.325  -0.342   2.161 -0.2850 -0.1321  0.4599
  855MOL0     C15326   0.363  -0.479   2.171  0.4796 -0.8194  0.7369
  855MOL0     C15327   0.257  -0.553   2.087 -0.3173 -0.3329 -0.2261
  855MOL0     C15328   0.291  -0.542   1.936  0.3880 -0.2243 -0.2230
  855MOL0     C15329   0.175  -0.572   1.844 -0.4187 -0.1467 -0.3274
  855MOL0     C15330   0.232  -0.630   1.723 -0.8393  0.9023  0.5430
  855MOL0     C15331   0.138  -0.658   1.605  0.8241 -1.5282 -0.0131
  855MOL0     C15332   0.190  -0.769   1.505 -1.0941  0.0234  0.3142
  855MOL0     C15333   0.079  -0.871   1.473  0.7424  0.2290  0.9194
  855MOL0    Cl15334   0.121  -1.001   1.358 -0.2462  0.1127 -0.2839
  855MOL0     C15335   0.341  -0.135   2.279 -0.4778  0.5198 -0.5688
  855MOL0     C15336   0.416  -0.024   2.344 -0.4343 -0.4880  1.6217
  855MOL0     O15337   0.730  -0.106   2.577  0.3511 -0.4923 -0.3943
  855MOL0     C15338   0.885   0.088   2.705 -0.0112  0.4346 -0.9346
  855MOL0     C15339   0.966   0.190   2.749 -0.5684 -0.8339 -0.2423
  855MOL0     N15340   0.904   0.643   2.376 -0.3642  0.2359 -0.5086
  855MOL0     N15341   0.788   0.687   2.348  0.3981 -1.4435 -0.3015
  855MOL0     C15342   0.102   1.698   2.648  0.1998 -0.1162 -0.4298
  855MOL0     C15343   0.082   1.802   2.748  0.2120 -0.5126  1.2147
  855MOL0     C15344   0.165   2.176   3.026  0.4993 -1.6293  0.3049
  855MOL0     C15345   0.073   2.109   3.112 -1.0711  0.1672 -0.1285
  855MOL0     C15346   0.024   2.166   3.230  0.1915  0.0095  1.1097
  855MOL0     C15347   0.088   2.278   3.284  0.0702 -0.3706 -0.3780
  855MOL0     O15348   0.048   2.321   3.418 -0.1703  0.3587  0.9442
  855MOL0     C15349   0.105   2.448   3.467  0.1996  1.0869  0.2625
  855MOL0     C15350   0.024   2.568   3.417  0.7025  0.0441 -0.1872
  855MOL0     C15351  -0.111   2.572   3.484  0.5033 -0.2676  0.4292
  855MOL0     C15352  -0.199   2.692   3.438  0.8447 -0.7288 -0.2339
  855MOL0     C15353  -0.228   2.690   3.290 -0.4847 -0.7317  0.2599
  855MOL0     C15354  -0.253   2.668   3.177  0.3451  0.5012  0.2343
  855MOL0     C15355   0.188   2.337   3.201  0.9972 -0.9270 -0.2767
  855MOL0     C15356   0.219   2.296   3.071  0.2189  0.0617  1.0784
  855MOL0     C15357   0.301   2.394   2.986  0.4382  0.6474 -0.4144
  855MOL0     H15358   0.367   1.941   2.772 -1.1892 -2.1616  1.6148
  855MOL0     H15359   0.416   1.755   2.553  0.4336  3.1173 -0.2312
  855MOL0     H15360   0.046   1.578   2.434  0.0848  0.6275  0.2811
  855MOL0     H15361   0.172   1.506   2.327 -1.0331  3.8064 -0.5525
  855MOL0     H15362   0.021   1.353   2.479 -0.1723 -0.9771  2.6848
  855MOL0     H15363   0.151   1.387   2.599  0.3628 -0.0493 -0.9584
  855MOL0     H15364   0.190   1.241   2.341  1.4862  1.1271  0.0368
  855MOL0     H15365   0.212   1.177   2.500  2.4277  0.8508  1.3322
  855MOL0     H15366   0.387   1.343   2.327  0.5875 -1.0726  0.1611
  855MOL0     H15367   0.395   1.397   2.496  1.7461  1.1124 -1.2545
  855MOL0     H15368   0.576   1.250   2.525  0.4536  0.9237 -2.8268
  855MOL0     H15369   0.427   1.156   2.573 -0.8974 -0.6836 -0.1685
  855MOL0     H15370   0.427   1.057   2.351  0.8769  0.9501  1.1228
  855MOL0     H15371   0.564   1.159   2.294 -0.9368 -0.1713 -1.4357
  855MOL0     H15372   0.558   0.921   2.491  1.9252 -1.5837  0.0792
  855MOL0     H15373   0.699   1.025   2.483 -0.2210  0.6271 -0.0652
  855MOL0     H15374   0.578   0.833   2.283  1.5205 -0.8994  2.3767
  855MOL0     H15375   0.695   0.953   2.222 -1.1670 -0.4647 -0.9936
  855MOL0     H15376   0.931   0.974   2.377 -2.1099  1.0278  2.5184
  855MOL0     H15377   1.175   0.672   2.440  0.3592  0.1250 -0.5748
  855MOL0     H15378   1.159   0.849   2.426 -0.3054  1.0923 -0.5658
  855MOL0     H15379   1.192   0.782   2.656  0.1353 -2.1446  0.7682
  855MOL0     H15380   1.023   0.837   2.648 -0.3992 -0.4059 -1.6716
  855MOL0     H15381   0.929   0.631   2.638 -1.5320  4.6647  3.2307
  855MOL0     H15382   1.025   0.666   2.784 -0.5382 -0.3491  0.1326
  855MOL0     H15383   1.201   0.547   2.721  0.7536 -1.1435 -1.3029
  855MOL0     H15384   1.115   0.483   2.562 -2.5636 -0.3903  0.3553
  855MOL0     H15385   0.899   0.443   2.533  3.1624  1.6416  3.3156
  855MOL0     H15386   0.730   0.259   2.456  3.2051 -1.8900 -3.3290
  855MOL0     H15387   0.727  -0.149   2.321 -0.6384  1.2932  1.4189
  855MOL0     H15388   0.602  -0.347   2.221  2.9419  0.6322 -0.0306
  855MOL0     H15389   0.464  -0.481   2.131 -0.5825 -1.0441 -2.1992
  855MOL0     H15390   0.351  -0.506   2.276 -2.3138  2.1796  1.3654
  855MOL0     H15391   0.246  -0.659   2.113 -3.6169 -0.2479 -0.8125
  855MOL0     H15392   0.162  -0.506   2.115  1.6240  2.6828  1.9873
  855MOL0     H15393   0.322  -0.440   1.912  2.4245 -0.0672  2.6312
  855MOL0     H15394   0.371  -0.613   1.914 -0.5129 -1.4315  0.2776
  855MOL0     H15395   0.117  -0.486   1.809  3.7115  2.7111 -0.7487
  855MOL0     H15396   0.117  -0.654   1.889  1.6091 -0.5883  1.6604
  855MOL0     H15397   0.282  -0.724   1.747 -1.2827  0.7484  0.8805
  855MOL0     H15398   0.305  -0.562   1.677  0.8201 -3.1900 -3.6753
  855MOL0     H15399   0.045  -0.702   1.644 -0.5738 -1.0142 -2.5168
  855MOL0     H15400   0.102  -0.564   1.561  0.4717 -0.1526  2.9662
  855MOL0     H15401   0.274  -0.819   1.555  1.7751  2.0927 -2.0796
  855MOL0     H15402   0.229  -0.724   1.414 -0.4604  1.3739  1.2195
  855MOL0     H15403   0.064  -0.921   1.569  0.8705  1.4285  1.5820
  855MOL0     H15404  -0.014  -0.830   1.433  1.8216  3.4016  1.3492
  855MOL0     H15405   0.236  -0.114   2.265 -1.1395 -0.7494  1.9506
  855MOL0     H15406   0.358   0.062   2.375 -1.8259 -1.0698  0.7431
  855MOL0     H15407   0.905  -0.007   2.752 -0.9835  1.8511  2.7007
  855MOL0     H15408   1.049   0.166   2.814  0.0129  0.5814 -0.4085
  855MOL0     H15409   0.014   1.638   2.627  0.3109  0.4127 -2.6572
  855MOL0     H15410  -0.012   1.823   2.798 -2.1309 -3.7411 -1.3288
  855MOL0     H15411   0.029   2.015   3.079  0.4158 -0.9593  0.9746
  855MOL0     H15412  -0.056   2.114   3.281 -0.1723 -0.8454 -0.2532
  855MOL0     H15413   0.212   2.454   3.450  0.0105  0.2952 -1.4233
  855MOL0     H15414   0.098   2.433   3.576  0.0135 -1.3809 -0.0235
  855MOL0     H15415   0.013   2.567   3.308 -2.9730  3.8910 -0.1160
  855MOL0     H15416   0.070   2.665   3.438 -0.9588  0.4035  2.2491
  855MOL0     H15417  -0.086   2.577   3.590  2.1182 -0.5328  0.0770
  855MOL0     H15418  -0.154   2.474   3.464  0.5149 -0.3431  0.7756
  855MOL0     H15419  -0.297   2.699   3.487  1.0396  3.5587 -0.0738
  855MOL0     H15420  -0.145   2.784   3.461 -1.1530  1.4956 -3.5966
  855MOL0     H15421  -0.273   2.642   3.075  4.4289 -0.8154 -0.3707
  855MOL0     H15422   0.235   2.426   3.242  3.0838 -2.6052  1.2264
  855MOL0     H15423   0.402   2.352   2.983  0.2942  0.1776  0.8390
  855MOL0     H15424   0.266   2.398   2.882 -0.4595  1.2223 -0.0958
  855MOL0     H15425   0.322   2.492   3.030  3.9490  0.2677 -0.9122
  856MOL0     O15426   1.180   9.360  11.368  0.2554  0.5585 -0.2749
  856MOL0     C15427   1.200   9.475  11.336  0.6563  0.2298 -0.8825
  856MOL0     O15428   1.184   9.584  11.415  0.2238 -0.0731 -0.3762
  856MOL0     C15429   1.126   9.581  11.539 -0.7748  0.4644 -0.0126
  856MOL0     C15430   1.023   9.484  11.564  0.0647 -0.7322 -0.7659
  856MOL0     C15431   0.954   9.487  11.682 -1.2726 -0.1398  0.2874
  856MOL0     C15432   1.002   9.563  11.789 -1.2694  0.4119 -0.7341
  856MOL0     O15433   0.954   9.534  11.913  0.5787 -0.0024  0.3828
  856MOL0     C15434   1.061   9.490  12.003  0.1954 -0.0676  0.9373
  856MOL0     C15435   1.053   9.585  12.127 -0.1301  0.0789 -0.3424
  856MOL0     C15436   1.188   9.597  12.215 -0.5406 -0.0348  0.0501
  856MOL0     C15437   1.193   9.461  12.293  1.0573  1.1061  0.8632
  856MOL0     C15438   1.289   9.471  12.412 -0.2419  0.3216 -0.1216
  856MOL0     C15439   1.303   9.357  12.512 -0.1807 -0.8555 -0.5255
  856MOL0     C15440   1.413   9.395  12.616  0.0718 -0.8486  0.3432
  856MOL0     C15441   1.453   9.283  12.696  0.2468  0.7440  0.8778
  856MOL0     N15442   1.549   9.325  12.801  0.8767  0.0411  0.3704
  856MOL0     C15443   1.512   9.367  12.922  0.2316  0.9897  0.5034
  856MOL0     C15444   1.620   9.370  13.004 -0.6253  0.4869 -0.2874
  856MOL0     C15445   1.624   9.396  13.149 -0.3049  1.3810 -0.9774
  856MOL0     C15446   1.637   9.545  13.184  0.7525 -0.7508  1.3330
  856MOL0     C15447   1.784   9.584  13.183 -0.0084  0.5720 -0.0348
  856MOL0     C15448   1.864   9.553  13.313 -0.6948  0.0729 -0.2472
  856MOL0     O15449   1.870   9.417  13.347 -0.3417 -0.3040  0.0036
  856MOL0     C15450   1.928   9.381  13.466  0.5850  0.1304 -0.4900
  856MOL0     C15451   2.008   9.460  13.553 -0.2690 -0.9656  0.0372
  856MOL0     C15452   2.072   9.412  13.662  0.9435 -0.2111 -0.0567
  856MOL0     C15453   2.061   9.283  13.698 -0.2827 -0.0809  0.3400
  856MOL0     C15454   2.136   9.230  13.812 -1.2244  0.2000 -0.5092
  856MOL0     O15455   2.102   9.109  13.852 -0.1348  0.0532 -0.1403
  856MOL0     C15456   2.174   9.044  13.947 -0.0223 -0.5984 -0.2300
  856MOL0     C15457   2.226   8.922  13.917  0.1961  0.9250  0.0430
  856MOL0     C15458   2.292   8.839  14.014 -0.2323 -0.0142 -0.0450
  856MOL0     C15459   2.309   8.902  14.142  0.5946 -0.5268 -0.4468
  856MOL0     O15460   2.385   8.826  14.235  0.4301  0.1059 -0.4261
  856MOL0     C15461   2.482   8.912  14.308  0.2641  0.1992 -0.0099
  856MOL0     C15462   2.551   8.832  14.416  0.7892  0.2156 -0.5331
  856MOL0     C15463   2.635   8.919  14.507  0.4413  0.3919  0.3590
  856MOL0     C15464   2.694   8.838  14.621 -0.6457  0.0082  0.1311
  856MOL0     C15465   2.823   8.882  14.687  0.8310  0.1444  1.5551
  856MOL0     C15466   2.933   8.936  14.593  0.5579 -0.3282 -0.0032
  856MOL0     C15467   3.069   8.938  14.661 -0.1012  0.1093 -0.6224
  856MOL0     C15468   3.154   8.822  14.611 -0.3129  0.5761  0.7631
  856MOL0    Cl15469   3.085   8.669  14.682  0.3562  0.7974  0.5872
  856MOL0     C15470   2.232   9.010  14.176 -0.3577 -0.0149 -0.4814
  856MOL0     C15471   2.159   9.078  14.083  0.4807 -0.2165 -0.3627
  856MOL0     O15472   2.229   9.290  13.869 -0.6653  0.4380  0.7098
  856MOL0     C15473   1.974   9.205  13.623 -0.3792  0.6028 -0.5661
  856MOL0     C15474   1.916   9.247  13.507 -0.2213 -0.3858  0.0626
  856MOL0     N15475   1.734   9.329  12.925  0.2439 -0.1216  0.4471
  856MOL0     N15476   1.683   9.292  12.809 -0.0302 -1.5496 -1.3985
  856MOL0     C15477   1.084   9.669  11.760  0.1814 -0.4095  0.4484
  856MOL0     C15478   1.144   9.681  11.635 -0.5526 -0.0284 -0.6987
  856MOL0     C15479   1.265   9.497  11.208  0.3975 -0.7352  0.2214
  856MOL0     C15480   1.288   9.634  11.167  0.7966  0.2220 -0.4822
  856MOL0     C15481   1.365   9.657  11.054  0.2024  0.0249 -0.5128
  856MOL0     C15482   1.416   9.559  10.980  1.1662  0.4922 -0.1227
  856MOL0     O15483   1.510   9.577  10.881  0.9341 -0.5819  0.5218
  856MOL0     C15484   1.587   9.704  10.875  0.0065  0.2524 -0.2759
  856MOL0     C15485   1.704   9.674  10.785 -0.5137  0.4521 -0.2858
  856MOL0     C15486   1.685   9.596  10.650 -0.3156 -0.4010  0.0018
  856MOL0     C15487   1.675   9.442  10.667  0.5627 -1.3727 -0.0972
  856MOL0     C15488   1.787   9.392  10.747 -1.4145  0.2666  0.4007
  856MOL0     C15489   1.897   9.355  10.782 -0.8378 -0.5370 -0.4094
  856MOL0     C15490   1.372   9.428  11.000 -0.2369  0.5304 -0.7124
  856MOL0     C15491   1.296   9.391  11.112 -0.0806  0.1774  0.6332
  856MOL0     C15492   1.260   9.245  11.111  0.4833 -0.5779 -0.6442
  856MOL0     H15493   0.983   9.425  11.482 -1.0781  2.2699 -2.5277
  856MOL0     H15494   0.872   9.416  11.683 -1.3847 -0.1633 -2.6082
  856MOL0     H15495   1.038   9.386  12.028  0.1090 -1.1701 -2.9688
  856MOL0     H15496   1.162   9.485  11.963 -0.1540 -0.4635  0.0671
  856MOL0     H15497   0.964   9.561  12.186  0.8896 -1.7484  0.5193
  856MOL0     H15498   1.039   9.684  12.083  0.3331  0.2604 -0.0872
  856MOL0     H15499   1.167   9.677  12.287 -2.8260 -1.5291  1.1723
  856MOL0     H15500   1.279   9.624  12.162 -0.5846  1.3113  0.6335
  856MOL0     H15501   1.092   9.442  12.330  1.1495 -0.5264  0.3350
  856MOL0     H15502   1.218   9.376  12.230  0.8729  1.0786  0.8267
  856MOL0     H15503   1.388   9.487  12.368  0.1885  1.7105  1.2652
  856MOL0     H15504   1.263   9.562  12.467 -3.3488 -1.2407  1.2384
  856MOL0     H15505   1.210   9.341  12.567 -0.2347 -0.2638 -0.4342
  856MOL0     H15506   1.332   9.261  12.469  1.1929 -1.1689  1.0174
  856MOL0     H15507   1.376   9.482  12.671 -2.0718 -0.5587 -1.4096
  856MOL0     H15508   1.497   9.430  12.555  0.0700  3.2892  2.4216
  856MOL0     H15509   1.373   9.219  12.735 -0.5231 -1.0579 -3.1161
  856MOL0     H15510   1.500   9.211  12.628  2.0258  1.6476  1.1107
  856MOL0     H15511   1.412   9.381  12.961 -0.4465 -1.9626  0.0303
  856MOL0     H15512   1.536   9.353  13.199 -1.4214  2.2046 -2.1524
  856MOL0     H15513   1.702   9.331  13.188 -1.2348 -2.3932 -4.6114
  856MOL0     H15514   1.564   9.594  13.118  0.2784 -0.8009  1.8133
  856MOL0     H15515   1.600   9.555  13.286 -1.6509 -1.6718  0.6152
  856MOL0     H15516   1.796   9.691  13.162 -1.1653  0.9361  1.0621
  856MOL0     H15517   1.835   9.526  13.105  1.8659  0.3785  1.2662
  856MOL0     H15518   1.825   9.619  13.391  0.7843  3.1515 -1.9162
  856MOL0     H15519   1.966   9.592  13.299 -0.2875 -0.0276  2.0359
  856MOL0     H15520   2.010   9.567  13.541 -0.1102 -1.2584 -3.7175
  856MOL0     H15521   2.134   9.488  13.709  1.3862 -0.3316 -0.4435
  856MOL0     H15522   2.222   8.878  13.818 -1.8803 -3.1718  1.7026
  856MOL0     H15523   2.350   8.749  13.994  1.2786  1.4043 -2.6405
  856MOL0     H15524   2.564   8.947  14.244  2.5167 -3.9002  0.3199
  856MOL0     H15525   2.429   8.995  14.357  2.2091  0.5310  1.6422
  856MOL0     H15526   2.477   8.779  14.477 -1.5586  0.6606 -2.8166
  856MOL0     H15527   2.601   8.745  14.371  0.8771 -0.7008  1.2547
  856MOL0     H15528   2.720   8.957  14.450  2.4288  0.3814  3.0870
  856MOL0     H15529   2.590   9.012  14.543 -0.9052  0.4748 -1.4096
  856MOL0     H15530   2.730   8.741  14.585  0.7742  0.3228  0.6480
  856MOL0     H15531   2.621   8.815  14.698 -0.9469 -2.0276 -0.7150
  856MOL0     H15532   2.847   8.793  14.746 -0.5677 -1.6111 -0.3579
  856MOL0     H15533   2.796   8.959  14.760 -0.2658  0.7662  0.5453
  856MOL0     H15534   2.939   8.872  14.505 -0.4415 -0.6312  0.1391
  856MOL0     H15535   2.906   9.036  14.558  1.2941 -0.0044  0.3192
  856MOL0     H15536   3.061   8.943  14.770  0.2571 -0.3768 -0.5703
  856MOL0     H15537   3.105   9.035  14.624 -1.3490  0.2969 -1.4137
  856MOL0     H15538   3.148   8.826  14.502 -2.3018  2.0421  0.8551
  856MOL0     H15539   3.259   8.826  14.639 -0.5140 -1.3666  1.9175
  856MOL0     H15540   2.250   9.055  14.273 -0.5343  0.9166 -0.8721
  856MOL0     H15541   2.096   9.163  14.109 -2.2399 -1.8065 -1.3237
  856MOL0     H15542   1.953   9.109  13.669 -0.1657  0.7212 -0.2208
  856MOL0     H15543   1.859   9.172  13.454  0.2606 -2.0965  1.8438
  856MOL0     H15544   1.114   9.746  11.830 -0.3122  2.5188 -2.3135
  856MOL0     H15545   1.207   9.769  11.628 -1.4558  0.4999 -3.5340
  856MOL0     H15546   1.252   9.711  11.235 -1.2955 -0.1540 -1.1081
  856MOL0     H15547   1.382   9.761  11.029 -1.4601 -0.4517 -4.2045
  856MOL0     H15548   1.608   9.747  10.973 -3.0012 -0.0924  0.5972
  856MOL0     H15549   1.521   9.779  10.828  0.9201  1.6554  0.5912
  856MOL0     H15550   1.783   9.636  10.851 -1.6788  1.0065  1.5061
  856MOL0     H15551   1.746   9.769  10.751  0.4896  1.3317  3.0238
  856MOL0     H15552   1.779   9.603  10.594 -0.0838 -3.9049 -0.2738
  856MOL0     H15553   1.607   9.639  10.587 -0.0095  0.2251  0.0518
  856MOL0     H15554   1.586   9.417  10.725  0.2795 -3.9650 -1.5437
  856MOL0     H15555   1.665   9.395  10.569 -0.0608 -0.2932 -0.5724
  856MOL0     H15556   1.986   9.319  10.830 -0.1010 -0.1701 -1.4743
  856MOL0     H15557   1.417   9.364  10.925  0.3493 -4.4740  3.3908
  856MOL0     H15558   1.299   9.207  11.206 -0.0601 -3.8595 -1.6065
  856MOL0     H15559   1.151   9.235  11.118  0.5366 -1.2152 -0.6864
  856MOL0     H15560   1.296   9.199  11.019 -0.3936  2.1579 -2.4790
  857MOL0     O15561   7.059   2.994  10.743 -0.0042 -0.6155 -0.4585
  857MOL0     C15562   7.069   2.962  10.861 -0.3220 -0.4625  0.2570
  857MOL0     O15563   7.016   3.028  10.964 -0.2564  0.0714  0.1718
  857MOL0     C15564   6.934   3.137  10.949 -1.2128  0.5155  0.0483
  857MOL0     C15565   6.981   3.258  10.904 -0.2454  0.9235 -0.3363
  857MOL0     C15566   6.905   3.366  10.905  0.3561  1.9243 -0.8874
  857MOL0     C15567   6.770   3.365  10.956  0.6104  0.3735  0.4406
  857MOL0     O15568   6.717   3.485  10.982  0.2666 -0.1259 -0.4418
  857MOL0     C15569   6.694   3.517  11.122  0.2551 -0.5962  0.4700
  857MOL0     C15570   6.647   3.663  11.136 -0.3753  0.0883  0.3098
  857MOL0     C15571   6.501   3.695  11.089  0.0735 -0.2410  0.1647
  857MOL0     C15572   6.500   3.828  11.018  0.6248  0.1621 -0.9204
  857MOL0     C15573   6.367   3.909  11.011 -0.1457 -0.4094 -0.3195
  857MOL0     C15574   6.247   3.836  10.951 -0.9483  0.5369 -0.4520
  857MOL0     C15575   6.253   3.850  10.794 -0.2043 -0.2192 -0.1469
  857MOL0     C15576   6.123   3.827  10.717  0.6900  0.8532  0.5188
  857MOL0     N15577   6.060   3.693  10.748  0.6805  0.3889  0.4083
  857MOL0     C15578   6.109   3.569  10.727 -0.6571  1.5230  0.6379
  857MOL0     C15579   5.997   3.489  10.737 -1.3233 -0.3937 -0.2973
  857MOL0     C15580   6.008   3.340  10.728  0.1161 -0.8439  0.2168
  857MOL0     C15581   5.934   3.269  10.824  0.3671 -0.0266 -0.5516
  857MOL0     C15582   5.894   3.128  10.779 -0.1240 -0.5341  0.3823
  857MOL0     C15583   5.870   3.047  10.908 -0.3425 -0.6014  0.1244
  857MOL0     O15584   5.996   2.984  10.957  0.7448  0.8441  0.0633
  857MOL0     C15585   5.972   2.895  11.065 -0.2440  0.9190 -0.8042
  857MOL0     C15586   5.871   2.903  11.159 -0.1151 -0.5870  0.7184
  857MOL0     C15587   5.861   2.805  11.265 -0.4451 -0.1438 -0.1778
  857MOL0     C15588   5.950   2.694  11.266  0.2016 -0.5329 -0.4753
  857MOL0     C15589   5.923   2.590  11.356 -0.5124  1.0042 -0.1931
  857MOL0     O15590   6.025   2.512  11.386  0.2406 -0.6067  0.2325
  857MOL0     C15591   6.000   2.380  11.429  0.1349 -0.3137 -0.2337
  857MOL0     C15592   6.065   2.337  11.544 -0.3728  0.3425 -0.8196
  857MOL0     C15593   6.054   2.208  11.589 -0.1040  0.8010 -0.1482
  857MOL0     C15594   5.983   2.116  11.515  0.4756  0.6501 -0.3790
  857MOL0     O15595   5.987   1.982  11.551 -0.6160  0.4119  0.1805
  857MOL0     C15596   5.873   1.950  11.641  0.3438  0.4380 -0.2786
  857MOL0     C15597   5.880   1.791  11.634  0.9002  0.6976  0.4765
  857MOL0     C15598   5.755   1.749  11.718  0.8318  0.4003 -0.3661
  857MOL0     C15599   5.788   1.679  11.860  0.0696 -0.0162 -0.1629
  857MOL0     C15600   5.662   1.606  11.924 -0.3520  0.2340 -0.8197
  857MOL0     C15601   5.660   1.560  12.075  0.0095  0.6808 -0.2709
  857MOL0     C15602   5.769   1.461  12.124  0.6510 -0.5653  0.3990
  857MOL0     C15603   5.761   1.315  12.075  0.5546  0.6156  0.7519
  857MOL0    Cl15604   5.611   1.235  12.131  0.3394 -0.3492 -0.1928
  857MOL0     C15605   5.923   2.156  11.394  0.5880  1.2852  0.4415
  857MOL0     C15606   5.935   2.287  11.359  0.3209 -0.1040 -0.0562
  857MOL0     O15607   5.812   2.587  11.413  0.2619  0.5111  0.1660
  857MOL0     C15608   6.056   2.695  11.173 -0.1278  0.1362 -0.1067
  857MOL0     C15609   6.074   2.802  11.078  1.1676 -0.7584  0.5157
  857MOL0     N15610   5.888   3.564  10.755  0.6545 -0.4097 -0.3687
  857MOL0     N15611   5.927   3.689  10.750  1.0792 -0.2895  0.3305
  857MOL0     C15612   6.722   3.244  10.995  0.0979  0.6153  0.0648
  857MOL0     C15613   6.803   3.134  10.994  0.0492  0.1530 -0.2151
  857MOL0     C15614   7.140   2.843  10.882 -0.3161 -0.2157 -0.2972
  857MOL0     C15615   7.247   2.815  10.795  0.3205  0.1535 -0.8626
  857MOL0     C15616   7.326   2.708  10.821  0.4422 -1.3414  1.0258
  857MOL0     C15617   7.323   2.631  10.926 -0.7697  0.1829  0.7051
  857MOL0     O15618   7.416   2.533  10.940 -0.3103 -0.0301  0.4257
  857MOL0     C15619   7.455   2.494  11.080 -1.0313  1.3776  0.1230
  857MOL0     C15620   7.506   2.344  11.079 -1.3156 -0.5685 -0.2165
  857MOL0     C15621   7.384   2.250  11.055  0.1755 -0.1477 -0.0679
  857MOL0     C15622   7.428   2.104  11.062 -0.1589  0.7517  0.3333
  857MOL0     C15623   7.474   2.073  11.192 -0.4548  0.2956 -0.2439
  857MOL0     C15624   7.528   2.034  11.294  0.4899  0.4810 -1.0357
  857MOL0     C15625   7.213   2.640  11.017  0.0759 -0.3063 -0.5873
  857MOL0     C15626   7.129   2.750  10.994 -0.2034 -0.3424 -0.2226
  857MOL0     C15627   7.010   2.758  11.093 -0.2442 -0.0492  1.1812
  857MOL0     H15628   7.087   3.262  10.881  0.1531  1.2327  1.4267
  857MOL0     H15629   6.944   3.458  10.864  0.3901  2.2516 -0.1411
  857MOL0     H15630   6.620   3.450  11.167  0.6765 -0.5514  1.2473
  857MOL0     H15631   6.787   3.496  11.175  1.0241  0.4179 -0.4309
  857MOL0     H15632   6.721   3.720  11.078  2.8609 -3.9588 -0.0370
  857MOL0     H15633   6.643   3.695  11.240  1.1477  0.6787  0.2201
  857MOL0     H15634   6.434   3.702  11.176 -0.8885  0.4150 -0.6106
  857MOL0     H15635   6.468   3.612  11.025 -2.2536  0.0504  0.8958
  857MOL0     H15636   6.565   3.889  11.082 -1.7929  0.4083  1.4864
  857MOL0     H15637   6.545   3.814  10.919 -0.1694  1.7041 -1.5422
  857MOL0     H15638   6.338   3.935  11.113 -1.1351 -0.5709 -0.5497
  857MOL0     H15639   6.385   4.005  10.962 -2.7396 -0.8260 -2.2981
  857MOL0     H15640   6.252   3.731  10.981  2.4076  1.4052  2.6891
  857MOL0     H15641   6.151   3.878  10.981 -0.8723  1.7855 -1.8284
  857MOL0     H15642   6.336   3.791  10.756  1.2205  0.2420  2.0710
  857MOL0     H15643   6.283   3.955  10.779  1.6699 -0.8228 -0.9069
  857MOL0     H15644   6.049   3.906  10.733 -1.1966 -0.2152 -2.1025
  857MOL0     H15645   6.131   3.820  10.608 -1.5958 -1.2888  0.3745
  857MOL0     H15646   6.210   3.534  10.711 -1.9067 -1.1223 -2.7897
  857MOL0     H15647   5.965   3.306  10.633  0.4148 -1.5601  0.3315
  857MOL0     H15648   6.112   3.307  10.736  0.4422  0.1794  0.3562
  857MOL0     H15649   5.989   3.253  10.917  1.8019 -1.6871 -1.6342
  857MOL0     H15650   5.845   3.327  10.850  1.2456  0.5331  1.3955
  857MOL0     H15651   5.982   3.088  10.728 -1.2416 -0.0637 -2.0832
  857MOL0     H15652   5.807   3.146  10.715 -1.1424  1.1529  2.1378
  857MOL0     H15653   5.797   2.971  10.878 -1.2206  0.8518 -1.5781
  857MOL0     H15654   5.821   3.103  10.988 -0.1476  0.1015 -0.2487
  857MOL0     H15655   5.806   2.990  11.159  0.7655  0.2455 -3.1770
  857MOL0     H15656   5.786   2.801  11.344  1.8054 -1.6395  2.0630
  857MOL0     H15657   6.143   2.387  11.600 -0.1319  0.8513 -1.5877
  857MOL0     H15658   6.097   2.179  11.684 -0.1271 -2.1305 -0.9514
  857MOL0     H15659   5.890   1.991  11.741 -1.2665 -0.9979  0.6422
  857MOL0     H15660   5.781   1.994  11.602 -0.9322 -0.4517  1.5480
  857MOL0     H15661   5.873   1.754  11.531 -0.6288  1.0931  0.4046
  857MOL0     H15662   5.966   1.743  11.681 -1.4235  1.0035  5.7813
  857MOL0     H15663   5.672   1.819  11.735 -1.0971 -1.7265 -0.5239
  857MOL0     H15664   5.702   1.672  11.662  0.9745  0.7513 -0.9847
  857MOL0     H15665   5.818   1.758  11.930 -2.0369 -0.0125  0.8046
  857MOL0     H15666   5.871   1.609  11.841  1.1217  1.3870 -0.8997
  857MOL0     H15667   5.648   1.518  11.861 -0.1284 -2.3520  2.4492
  857MOL0     H15668   5.578   1.674  11.912 -2.5875 -2.5985 -2.4925
  857MOL0     H15669   5.678   1.649  12.136  1.7019 -1.3220  2.3050
  857MOL0     H15670   5.560   1.518  12.092 -0.7324  0.8530 -3.4288
  857MOL0     H15671   5.771   1.469  12.233  1.3053 -1.8340  0.5025
  857MOL0     H15672   5.859   1.503  12.080 -0.2971  0.8946 -0.1881
  857MOL0     H15673   5.776   1.294  11.969 -1.6510  1.9817  0.1075
  857MOL0     H15674   5.842   1.269  12.133  1.5054  1.6343  0.2656
  857MOL0     H15675   5.885   2.079  11.327  2.3889  0.2855  0.5097
  857MOL0     H15676   5.888   2.312  11.265  4.1504  1.8348 -1.6744
  857MOL0     H15677   6.126   2.611  11.175  0.6165  0.6711  3.4487
  857MOL0     H15678   6.153   2.798  11.003 -1.1142  3.7777 -2.5741
  857MOL0     H15679   6.620   3.241  11.032  0.1365 -0.7546  0.1253
  857MOL0     H15680   6.752   3.053  11.046  0.8806  1.2658  2.5248
  857MOL0     H15681   7.261   2.865  10.700 -2.5194 -1.1986 -2.0923
  857MOL0     H15682   7.394   2.715  10.737 -2.4591 -0.8641 -1.4465
  857MOL0     H15683   7.374   2.497  11.154  0.1229  0.5102  1.4660
  857MOL0     H15684   7.540   2.547  11.123  1.0287 -1.2769 -0.4155
  857MOL0     H15685   7.555   2.322  11.175 -3.9288 -3.1301  0.6761
  857MOL0     H15686   7.580   2.329  11.000 -1.4459 -2.8347  0.0308
  857MOL0     H15687   7.342   2.284  10.959  1.1868  1.0099 -0.1364
  857MOL0     H15688   7.310   2.258  11.135 -0.7599 -1.3157 -0.7907
  857MOL0     H15689   7.347   2.035  11.037 -0.6360  0.8258  1.5537
  857MOL0     H15690   7.506   2.097  10.987 -0.9314  1.7974 -0.6040
  857MOL0     H15691   7.565   2.012  11.393 -2.5264  1.6280  0.4686
  857MOL0     H15692   7.188   2.570  11.096  3.1567  1.2663  2.0087
  857MOL0     H15693   6.917   2.714  11.055 -0.7190  0.1501  2.0749
  857MOL0     H15694   7.029   2.701  11.185  0.5226 -2.8925 -0.6376
  857MOL0     H15695   6.984   2.864  11.108  5.0491  1.8396 -0.8714
  858MOL0     O15696   4.039   9.615   5.202 -0.2755  0.2998 -0.6206
  858MOL0     C15697   4.098   9.548   5.276 -0.6431  0.1951  0.9424
  858MOL0     O15698   4.222   9.493   5.250 -0.4294 -0.3174  0.5062
  858MOL0     C15699   4.301   9.529   5.149  0.0959 -0.1774  0.3041
  858MOL0     C15700   4.389   9.423   5.123  0.2139  0.0755 -0.0359
  858MOL0     C15701   4.497   9.432   5.031 -0.8827 -0.3758  0.4055
  858MOL0     C15702   4.529   9.559   4.968  0.5454 -0.0026 -0.7554
  858MOL0     O15703   4.638   9.566   4.891  0.0190 -0.9076 -0.4352
  858MOL0     C15704   4.699   9.699   4.899  0.4881  0.2409  1.2032
  858MOL0     C15705   4.832   9.705   4.813  0.5628  0.2460 -0.1810
  858MOL0     C15706   4.945   9.709   4.913  0.8494 -0.3505 -0.6833
  858MOL0     C15707   5.071   9.695   4.839  0.0418  0.1925  0.1376
  858MOL0     C15708   5.193   9.692   4.930 -0.3452  0.6794 -0.9349
  858MOL0     C15709   5.314   9.742   4.863 -0.3825 -0.4322  0.9915
  858MOL0     C15710   5.434   9.785   4.949 -1.7233 -0.8080  0.2411
  858MOL0     C15711   5.535   9.677   4.982  0.4849 -0.6950  1.1609
  858MOL0     N15712   5.474   9.557   5.040  0.1367  1.4746 -0.1722
  858MOL0     C15713   5.431   9.543   5.170 -0.8320 -1.2755  0.7718
  858MOL0     C15714   5.383   9.426   5.183  1.1313  0.8093  0.9077
  858MOL0     C15715   5.323   9.347   5.303 -0.2575 -0.6252 -0.4259
  858MOL0     C15716   5.418   9.240   5.361 -0.2371 -0.5065  0.2935
  858MOL0     C15717   5.334   9.144   5.450 -0.5749 -0.2318 -0.0055
  858MOL0     C15718   5.294   9.028   5.368  0.7721  1.3927  0.5999
  858MOL0     O15719   5.408   8.943   5.316 -0.6056  0.3247  0.1715
  858MOL0     C15720   5.444   8.956   5.184 -1.2091 -0.1362  0.7434
  858MOL0     C15721   5.384   9.029   5.080  0.7536 -0.1851  0.8358
  858MOL0     C15722   5.432   9.017   4.941  0.2818  0.3457  0.0377
  858MOL0     C15723   5.523   8.919   4.913 -0.3198 -0.1554  0.3672
  858MOL0     C15724   5.575   8.901   4.770  0.3151  0.0933  1.0524
  858MOL0     O15725   5.569   9.014   4.692  0.6026  0.6342  0.6273
  858MOL0     C15726   5.615   9.001   4.564 -0.1376 -0.1282 -0.8538
  858MOL0     C15727   5.718   9.082   4.541 -0.3923 -0.7284 -0.2432
  858MOL0     C15728   5.759   9.105   4.404  0.2760  0.6558 -0.1580
  858MOL0     C15729   5.699   9.029   4.301  0.0733 -0.0703  0.0264
  858MOL0     O15730   5.743   9.036   4.169  0.9614 -0.0240  0.3677
  858MOL0     C15731   5.889   9.029   4.141  0.0977  0.0324  0.3917
  858MOL0     C15732   5.901   9.053   3.987 -1.0538 -0.2784  0.0864
  858MOL0     C15733   6.047   9.038   3.942 -0.1218  0.1845 -0.2211
  858MOL0     C15734   6.141   9.155   3.976  0.1298 -0.7079  0.1809
  858MOL0     C15735   6.248   9.186   3.879 -1.0238  0.3904 -0.5170
  858MOL0     C15736   6.318   9.318   3.900 -0.0624 -0.3661  0.3012
  858MOL0     C15737   6.434   9.299   3.992  0.5012 -1.0770  0.0553
  858MOL0     C15738   6.480   9.446   4.021  0.1011  1.6500 -0.4481
  858MOL0    Cl15739   6.377   9.513   4.154  0.2459 -0.4694  0.3387
  858MOL0     C15740   5.592   8.942   4.332  0.7290  0.3216  0.5885
  858MOL0     C15741   5.559   8.920   4.465  0.4927 -0.7853  0.0820
  858MOL0     O15742   5.625   8.797   4.744 -0.3597  0.4791 -0.3274
  858MOL0     C15743   5.582   8.850   5.017  0.1257  0.6792  0.9109
  858MOL0     C15744   5.538   8.862   5.144 -0.1607 -0.1862 -0.9749
  858MOL0     N15745   5.401   9.365   5.057  0.7635 -0.0781 -0.6922
  858MOL0     N15746   5.451   9.441   4.968 -0.5211  0.1651  1.1622
  858MOL0     C15747   4.429   9.663   4.984  0.2982  0.0623  0.2885
  858MOL0     C15748   4.318   9.648   5.072 -0.3063 -0.5262 -0.9274
  858MOL0     C15749   4.052   9.527   5.411  0.8866  0.1918  0.4419
  858MOL0     C15750   4.119   9.441   5.490 -0.4881  0.9785 -0.0765
  858MOL0     C15751   4.091   9.421   5.627  0.2269  0.3467 -0.2087
  858MOL0     C15752   3.975   9.467   5.678 -0.0617  0.2728  0.2578
  858MOL0     O15753   3.946   9.414   5.798 -0.4265 -0.3624  1.0092
  858MOL0     C15754   3.812   9.433   5.849 -0.1627 -0.1846  0.4040
  858MOL0     C15755   3.816   9.549   5.952 -0.0086 -0.0481  0.6128
  858MOL0     C15756   3.683   9.544   6.042 -0.3862 -0.7873  0.5779
  858MOL0     C15757   3.692   9.648   6.149 -1.0171  0.0581  0.0632
  858MOL0     C15758   3.559   9.656   6.210 -0.3570  0.8146 -0.7823
  858MOL0     C15759   3.444   9.649   6.245 -0.1223  0.3735  0.2020
  858MOL0     C15760   3.892   9.539   5.593  0.2173  0.2927  0.6477
  858MOL0     C15761   3.927   9.564   5.461 -0.0894  0.9725  0.2533
  858MOL0     C15762   3.821   9.641   5.386 -0.2692  0.5639  0.2268
  858MOL0     H15763   4.365   9.333   5.178  0.1051  1.0755  1.6305
  858MOL0     H15764   4.562   9.345   5.022 -1.1967 -0.8085  2.0115
  858MOL0     H15765   4.638   9.770   4.843  2.3833  0.8744 -0.1719
  858MOL0     H15766   4.713   9.738   5.000 -0.3596  0.1499  1.3642
  858MOL0     H15767   4.821   9.795   4.751 -0.0605  1.0348  1.0330
  858MOL0     H15768   4.838   9.613   4.754 -0.5948  0.8626 -1.3146
  858MOL0     H15769   4.926   9.623   4.977 -0.4741  1.3154  1.3171
  858MOL0     H15770   4.935   9.795   4.981 -0.5964 -2.1047  1.4833
  858MOL0     H15771   5.078   9.601   4.784 -1.3859  0.6679 -0.9104
  858MOL0     H15772   5.083   9.787   4.780  2.9713 -0.5252 -0.5516
  858MOL0     H15773   5.169   9.751   5.019  3.2601  1.0629 -0.0933
  858MOL0     H15774   5.208   9.591   4.969 -1.0567  1.8629  2.8345
  858MOL0     H15775   5.347   9.679   4.781  0.4754  2.1372 -0.7626
  858MOL0     H15776   5.283   9.832   4.809  0.1927 -1.4702 -1.1578
  858MOL0     H15777   5.414   9.848   5.037  1.6001  2.9189 -1.3391
  858MOL0     H15778   5.486   9.858   4.886 -4.7172 -2.0616 -4.1212
  858MOL0     H15779   5.592   9.648   4.893 -1.4096 -0.1978 -0.2944
  858MOL0     H15780   5.598   9.717   5.062 -1.3933  2.1448  1.3679
  858MOL0     H15781   5.434   9.626   5.240  0.4551 -1.5662  1.0789
  858MOL0     H15782   5.296   9.410   5.388 -0.8962 -0.6425 -0.6098
  858MOL0     H15783   5.241   9.291   5.256 -0.0362 -1.2455 -0.0703
  858MOL0     H15784   5.474   9.176   5.292 -1.9017  3.1176 -5.1552
  858MOL0     H15785   5.486   9.297   5.425  1.0545 -3.9106  2.1769
  858MOL0     H15786   5.249   9.189   5.502 -1.7702 -0.9794 -1.2723
  858MOL0     H15787   5.410   9.117   5.524 -1.1475  1.6103  1.3416
  858MOL0     H15788   5.230   9.061   5.286 -0.3486  1.5069  1.4918
  858MOL0     H15789   5.222   8.964   5.419 -1.2042  2.7536 -0.3796
  858MOL0     H15790   5.285   9.073   5.088  1.0290  0.2107  2.6026
  858MOL0     H15791   5.397   9.081   4.860  0.6318 -1.7777 -1.9224
  858MOL0     H15792   5.769   9.145   4.612  0.0889 -1.3845  0.0022
  858MOL0     H15793   5.844   9.169   4.384 -0.9874  2.4110 -0.1547
  858MOL0     H15794   5.961   9.097   4.188  1.6954 -0.4793 -1.2283
  858MOL0     H15795   5.921   8.930   4.177 -2.9549 -1.4185 -0.5704
  858MOL0     H15796   5.837   8.976   3.942 -5.6973  0.9279  3.8584
  858MOL0     H15797   5.867   9.151   3.952 -0.1345  0.4999  1.2828
  858MOL0     H15798   6.097   8.958   3.998  1.7921  0.1138 -1.9131
  858MOL0     H15799   6.051   9.013   3.836 -0.8511 -0.0166 -0.2058
  858MOL0     H15800   6.181   9.124   4.073  3.9872  0.0568 -1.0023
  858MOL0     H15801   6.079   9.242   3.999 -0.2317 -0.7578 -0.5592
  858MOL0     H15802   6.187   9.208   3.791  0.5709 -1.7383 -2.2955
  858MOL0     H15803   6.320   9.104   3.868 -1.8794 -0.4749  0.2084
  858MOL0     H15804   6.352   9.354   3.802 -2.0868  0.2806 -0.2140
  858MOL0     H15805   6.252   9.392   3.947 -1.4983 -1.4198  0.0289
  858MOL0     H15806   6.513   9.244   3.940  3.3876  0.9479  2.0251
  858MOL0     H15807   6.412   9.248   4.086 -0.1375 -4.5598 -1.8069
  858MOL0     H15808   6.586   9.434   4.046  0.1938 -2.6570 -2.0000
  858MOL0     H15809   6.478   9.513   3.935  1.3981  3.8438  1.1342
  858MOL0     H15810   5.553   8.881   4.251  0.0574  0.6789  0.6304
  858MOL0     H15811   5.487   8.840   4.479  0.1725 -0.0796  3.2941
  858MOL0     H15812   5.666   8.786   4.994 -0.4645  0.7850 -1.9269
  858MOL0     H15813   5.582   8.791   5.214  1.4219  1.8910  0.2361
  858MOL0     H15814   4.433   9.757   4.929 -2.4588  0.7377  1.0609
  858MOL0     H15815   4.243   9.724   5.090 -0.8587 -1.4456  1.0384
  858MOL0     H15816   4.209   9.394   5.451 -1.9150 -2.1892  0.1739
  858MOL0     H15817   4.153   9.358   5.690  0.2131 -1.6321 -2.0438
  858MOL0     H15818   3.778   9.347   5.907  0.7205 -1.1923 -0.5207
  858MOL0     H15819   3.735   9.460   5.776  1.0853  2.0674 -0.2031
  858MOL0     H15820   3.832   9.647   5.907  4.8184  0.7260  3.3467
  858MOL0     H15821   3.895   9.546   6.027  0.4793  3.7448  0.4458
  858MOL0     H15822   3.681   9.443   6.085 -0.3246 -0.7457  0.6789
  858MOL0     H15823   3.593   9.556   5.981  1.3592  4.5004 -1.5495
  858MOL0     H15824   3.773   9.634   6.221 -1.6744  2.4675  1.3952
  858MOL0     H15825   3.716   9.737   6.089 -0.0903 -0.5247 -0.4582
  858MOL0     H15826   3.340   9.647   6.268  0.1613  2.9804  2.2334
  858MOL0     H15827   3.797   9.574   5.631  0.1173  1.9941 -1.0228
  858MOL0     H15828   3.855   9.732   5.336 -1.7743  0.4144 -1.1729
  858MOL0     H15829   3.780   9.577   5.307  0.2971  1.3116 -0.7033
  858MOL0     H15830   3.743   9.667   5.458  1.8858  3.0788  1.8143
  859MOL0     O15831  10.094  10.622  10.476  1.0101  0.1458  0.7664
  859MOL0     C15832  10.132  10.735  10.503  0.1304 -0.2942 -0.1785
  859MOL0     O15833  10.150  10.832  10.403  0.8713  0.3503 -0.1486
  859MOL0     C15834  10.128  10.785  10.276  0.7849 -0.1778  0.3889
  859MOL0     C15835  10.225  10.728  10.197 -0.1176 -0.3932  0.2158
  859MOL0     C15836  10.216  10.717  10.056  0.0369  0.2857 -0.4758
  859MOL0     C15837  10.097  10.746   9.993  0.8242 -0.0824  0.2289
  859MOL0     O15838  10.079  10.733   9.853 -0.0517  0.2818 -0.3874
  859MOL0     C15839   9.957  10.672   9.815 -0.2489 -0.1428  0.6874
  859MOL0     C15840   9.972  10.587   9.686 -0.8570 -0.2006 -0.4842
  859MOL0     C15841  10.048  10.450   9.718 -1.6297  1.2253 -0.4276
  859MOL0     C15842  10.205  10.465   9.715  0.3319 -0.9063  0.6611
  859MOL0     C15843  10.283  10.356   9.782  0.0906 -0.2971  0.3879
  859MOL0     C15844  10.438  10.381   9.776 -0.7476 -0.0301 -0.4547
  859MOL0     C15845  10.486  10.437   9.909 -0.0149 -0.3260  0.0893
  859MOL0     C15846  10.626  10.496   9.898 -0.3950  0.9954  0.0674
  859MOL0     N15847  10.660  10.564  10.022  0.8494 -0.5677  0.6050
  859MOL0     C15848  10.787  10.556  10.077 -0.1259 -1.4582  0.0003
  859MOL0     C15849  10.768  10.620  10.200  0.1635  0.2676 -0.3780
  859MOL0     C15850  10.864  10.626  10.309 -0.4257  0.1564  0.8638
  859MOL0     C15851  10.982  10.722  10.268 -0.0481  0.1846 -0.1317
  859MOL0     C15852  11.080  10.741  10.382 -0.6843  0.6255 -0.0719
  859MOL0     C15853  11.043  10.822  10.504  0.7020  1.1440  0.3439
  859MOL0     O15854  11.093  10.957  10.492  0.2552  1.0416  0.1816
  859MOL0     C15855  11.194  10.988  10.584  1.2047 -0.4982  0.1330
  859MOL0     C15856  11.154  11.044  10.710 -0.1781  0.8871  0.2737
  859MOL0     C15857  11.253  11.074  10.802  0.0843  0.0849  0.1950
  859MOL0     C15858  11.390  11.047  10.777 -0.6581  0.7343 -0.9840
  859MOL0     C15859  11.501  11.081  10.877  0.3780 -0.9601  1.1209
  859MOL0     O15860  11.622  11.022  10.856  0.0860  0.1445  0.3119
  859MOL0     C15861  11.733  11.090  10.895  0.3150 -1.2300  0.1595
  859MOL0     C15862  11.775  11.212  10.824 -0.3993  0.6243  0.0290
  859MOL0     C15863  11.890  11.286  10.871 -0.6133 -0.8490  0.3406
  859MOL0     C15864  11.951  11.233  10.988 -0.7335 -0.7728 -0.1321
  859MOL0     O15865  12.055  11.309  11.028 -0.6348 -0.4227 -0.0653
  859MOL0     C15866  12.170  11.259  11.096  0.8012 -0.1336  0.2514
  859MOL0     C15867  12.255  11.366  11.153  0.1457 -0.1813  0.6661
  859MOL0     C15868  12.395  11.307  11.198  0.0998 -0.5555  0.0109
  859MOL0     C15869  12.474  11.423  11.267 -0.6631  0.3318  0.6101
  859MOL0     C15870  12.611  11.381  11.312 -0.9800  0.2136 -0.1751
  859MOL0     C15871  12.695  11.469  11.398 -0.9319 -1.0930 -0.5614
  859MOL0     C15872  12.643  11.520  11.535  0.7819  0.3819  0.1511
  859MOL0     C15873  12.734  11.626  11.598 -0.0510  0.1448 -0.4297
  859MOL0    Cl15874  12.644  11.750  11.701 -0.0426  0.2818 -0.3091
  859MOL0     C15875  11.895  11.135  11.064  0.4980 -0.7798  0.3435
  859MOL0     C15876  11.778  11.064  11.018  0.2638  0.3812 -0.5786
  859MOL0     O15877  11.484  11.172  10.959  0.0454 -0.2273 -0.3453
  859MOL0     C15878  11.422  10.986  10.649 -0.0535 -0.4321 -0.7880
  859MOL0     C15879  11.326  10.964  10.555  0.1007 -0.8882 -0.2149
  859MOL0     N15880  10.634  10.641  10.218  0.4744 -0.5623 -0.2265
  859MOL0     N15881  10.568  10.604  10.108  0.2469 -0.1381 -1.0531
  859MOL0     C15882   9.992  10.797  10.079 -0.7067 -0.2530 -0.0265
  859MOL0     C15883  10.013  10.827  10.214  0.0064 -0.5655 -0.3083
  859MOL0     C15884  10.152  10.767  10.637  0.2354 -0.2481 -0.9130
  859MOL0     C15885  10.218  10.891  10.658 -0.5010 -0.2162  0.5284
  859MOL0     C15886  10.259  10.940  10.778  0.3372 -0.2345 -0.0009
  859MOL0     C15887  10.249  10.858  10.888 -0.1498  0.2715 -0.6640
  859MOL0     O15888  10.293  10.925  11.002 -0.9862 -0.1701 -0.0212
  859MOL0     C15889  10.285  10.881  11.137  0.1928  0.4176  0.4226
  859MOL0     C15890  10.363  10.975  11.228 -0.1160  0.8599  0.0081
  859MOL0     C15891  10.338  10.931  11.375  0.4275 -0.1741  0.2849
  859MOL0     C15892  10.407  10.804  11.441  0.6443  0.1287  0.0107
  859MOL0     C15893  10.554  10.803  11.403  0.3797 -0.2970 -0.6705
  859MOL0     C15894  10.671  10.792  11.382  0.2388  0.2856 -0.7686
  859MOL0     C15895  10.194  10.727  10.874 -0.0829 -0.4041  0.1364
  859MOL0     C15896  10.135  10.691  10.755  0.3485 -0.1027 -0.1847
  859MOL0     C15897  10.055  10.563  10.761 -0.5946  0.8081  0.2226
  859MOL0     H15898  10.322  10.713  10.244  1.2176  2.7494 -1.2268
  859MOL0     H15899  10.307  10.687  10.005  1.2909 -1.1324  2.3486
  859MOL0     H15900   9.906  10.616   9.894  0.6181 -2.0026 -0.0378
  859MOL0     H15901   9.886  10.751   9.787  1.3796  0.2608 -2.7895
  859MOL0     H15902  10.017  10.645   9.605 -1.8051  0.6883 -0.3850
  859MOL0     H15903   9.872  10.566   9.645 -1.1458 -0.8706  0.5200
  859MOL0     H15904  10.031  10.365   9.652  2.3771 -0.6884  0.6842
  859MOL0     H15905  10.013  10.427   9.819  1.8374  0.2783  0.7020
  859MOL0     H15906  10.234  10.476   9.610  1.2771  1.5480  1.1077
  859MOL0     H15907  10.231  10.559   9.764 -0.2173  0.0495 -0.8175
  859MOL0     H15908  10.252  10.339   9.886  0.2691  4.0276  1.3481
  859MOL0     H15909  10.258  10.263   9.731  2.5349  0.2580 -2.0642
  859MOL0     H15910  10.485  10.284   9.755 -3.4702 -1.9155  1.2886
  859MOL0     H15911  10.474  10.438   9.690 -1.0202 -0.1857 -0.6775
  859MOL0     H15912  10.478  10.368   9.993 -3.7905  3.6192  3.4211
  859MOL0     H15913  10.410  10.507   9.944 -1.1194 -1.0827 -0.7460
  859MOL0     H15914  10.703  10.420   9.879  0.2890  1.7096 -0.0509
  859MOL0     H15915  10.632  10.577   9.825  0.9430  0.9799  0.1336
  859MOL0     H15916  10.882  10.529  10.032 -0.1968  1.3189 -2.0786
  859MOL0     H15917  10.829  10.662  10.406 -0.7463  0.5723  0.5981
  859MOL0     H15918  10.902  10.525  10.322  2.1263  0.4141 -3.1158
  859MOL0     H15919  11.036  10.670  10.188  2.8074 -0.2441  1.8919
  859MOL0     H15920  10.944  10.817  10.228 -1.2010 -0.6620 -1.0844
  859MOL0     H15921  11.171  10.791  10.348 -1.4371  1.3876 -1.0427
  859MOL0     H15922  11.110  10.641  10.413 -0.5548  0.3533 -1.0443
  859MOL0     H15923  11.076  10.772  10.596 -1.2401  0.4000  0.6789
  859MOL0     H15924  10.935  10.816  10.494  0.9977 -1.7850 -2.8137
  859MOL0     H15925  11.052  11.063  10.742  0.8214  1.1463  3.6643
  859MOL0     H15926  11.229  11.095  10.906 -1.9088  1.4280 -0.4699
  859MOL0     H15927  11.730  11.228  10.727 -1.4622 -0.5010  0.3176
  859MOL0     H15928  11.947  11.350  10.806  0.2390 -0.2941  1.5965
  859MOL0     H15929  12.142  11.187  11.174 -0.4377  0.0243 -0.0180
  859MOL0     H15930  12.231  11.210  11.021 -0.0839 -0.7841 -0.0609
  859MOL0     H15931  12.278  11.444  11.079 -0.3280  0.0137  0.7198
  859MOL0     H15932  12.205  11.425  11.230  0.6394  1.6947 -0.3780
  859MOL0     H15933  12.379  11.226  11.269  1.2839 -0.8855 -0.0840
  859MOL0     H15934  12.453  11.275  11.112  1.3024  2.1260 -0.2906
  859MOL0     H15935  12.420  11.453  11.357 -1.6188  0.3485  0.0491
  859MOL0     H15936  12.478  11.501  11.190  0.9795 -2.6462 -2.6150
  859MOL0     H15937  12.663  11.377  11.216  0.4981  1.0766  0.5428
  859MOL0     H15938  12.601  11.282  11.357 -1.1049 -1.3569 -3.4250
  859MOL0     H15939  12.796  11.432  11.420 -0.3443  1.6886  2.1218
  859MOL0     H15940  12.720  11.561  11.344 -0.0698 -1.5354 -0.9538
  859MOL0     H15941  12.643  11.434  11.602 -5.7299 -0.3717 -0.1347
  859MOL0     H15942  12.536  11.542  11.540  0.9106  0.9177  0.7135
  859MOL0     H15943  12.792  11.556  11.660 -1.4203 -0.9490 -0.3445
  859MOL0     H15944  12.802  11.674  11.527  3.9792 -3.1082  0.8305
  859MOL0     H15945  11.931  11.095  11.159 -0.1431 -1.7911  0.1781
  859MOL0     H15946  11.731  10.986  11.076 -0.8261  0.2073 -1.6535
  859MOL0     H15947  11.520  10.946  10.623  0.6637 -1.0003  2.3593
  859MOL0     H15948  11.351  10.914  10.462  1.4746  1.4240 -1.2065
  859MOL0     H15949   9.905  10.844  10.034 -1.8182 -0.2978  1.9710
  859MOL0     H15950   9.938  10.875  10.277  1.4733  0.8942  0.3825
  859MOL0     H15951  10.217  10.961  10.575  3.6331 -0.5130  0.0103
  859MOL0     H15952  10.298  11.042  10.778  0.7297 -0.2671 -3.2854
  859MOL0     H15953  10.312  10.775  11.139  0.5198  0.5101  2.0359
  859MOL0     H15954  10.179  10.891  11.162  0.5583  1.5116  1.6402
  859MOL0     H15955  10.327  11.078  11.229 -0.0581  0.8831 -0.3870
  859MOL0     H15956  10.467  10.959  11.198 -0.4242  0.0136 -0.6533
  859MOL0     H15957  10.230  10.916  11.377  0.5672 -1.3155  2.6707
  859MOL0     H15958  10.352  11.019  11.439 -0.4797  0.9341 -0.9731
  859MOL0     H15959  10.393  10.792  11.549  0.5139 -1.7666 -0.1767
  859MOL0     H15960  10.366  10.716  11.392  2.3702 -0.3401 -0.6838
  859MOL0     H15961  10.772  10.773  11.352  1.5376 -0.5053  3.3406
  859MOL0     H15962  10.190  10.659  10.959  0.6007 -1.7983 -0.9136
  859MOL0     H15963  10.115  10.480  10.723 -3.0434  0.1022 -2.4385
  859MOL0     H15964  10.021  10.537  10.862 -1.7082  1.4692  0.0377
  859MOL0     H15965   9.968  10.567  10.696  0.6515  3.1049 -1.4536
  860MOL0     O15966   8.727   9.277   9.715  0.1964 -0.7460 -0.1143
  860MOL0     C15967   8.804   9.330   9.797 -0.5308  0.0634  1.0751
  860MOL0     O15968   8.765   9.386   9.919  0.5061 -0.4720 -1.1242
  860MOL0     C15969   8.640   9.437   9.937 -0.1321  0.0117 -0.4387
  860MOL0     C15970   8.624   9.578   9.962  0.8497 -0.1159  0.4555
  860MOL0     C15971   8.492   9.634   9.954 -1.1342 -0.1201 -0.3443
  860MOL0     C15972   8.381   9.554   9.938  1.0551  0.8495 -1.2309
  860MOL0     O15973   8.259   9.618   9.938  0.0109 -0.8178  0.2246
  860MOL0     C15974   8.148   9.547   9.894 -0.8141  0.5866 -0.5505
  860MOL0     C15975   8.034   9.640   9.869  0.5924  0.0089  0.2900
  860MOL0     C15976   7.899   9.566   9.854  1.4625 -0.1508  0.3155
  860MOL0     C15977   7.781   9.656   9.824  0.1623 -0.0639  0.0348
  860MOL0     C15978   7.647   9.585   9.814 -0.6845 -0.8687  0.7728
  860MOL0     C15979   7.542   9.673   9.752  0.4482  0.1605 -0.3690
  860MOL0     C15980   7.397   9.619   9.743 -0.5768  0.1555  0.8374
  860MOL0     C15981   7.320   9.624   9.869  0.0804 -0.2318 -0.3457
  860MOL0     N15982   7.180   9.579   9.857  0.3499 -0.3760  0.7200
  860MOL0     C15983   7.137   9.445   9.865 -0.7045 -0.1668 -0.1956
  860MOL0     C15984   7.006   9.447   9.841  0.1537  0.8800 -0.7178
  860MOL0     C15985   6.924   9.330   9.832  0.4297 -0.2603 -0.0496
  860MOL0     C15986   6.850   9.283   9.965  0.8325 -0.1744  0.3964
  860MOL0     C15987   6.721   9.348   9.987  0.4560  0.2113 -0.7669
  860MOL0     C15988   6.715   9.469  10.088 -0.0583 -0.0761 -0.7541
  860MOL0     O15989   6.778   9.443  10.211 -0.0628  0.4710 -1.0917
  860MOL0     C15990   6.703   9.370  10.292  0.1548  0.7856 -1.0451
  860MOL0     C15991   6.643   9.444  10.392  0.0188 -0.1050 -0.9551
  860MOL0     C15992   6.578   9.374  10.491  0.1769 -0.7375 -0.5518
  860MOL0     C15993   6.568   9.234  10.493 -0.7732 -0.1639 -0.2776
  860MOL0     C15994   6.496   9.170  10.608 -0.6511 -0.2918 -0.4629
  860MOL0     O15995   6.457   9.046  10.590  0.2819 -1.1863  0.3963
  860MOL0     C15996   6.427   8.966  10.698  0.6098 -0.2133  0.2350
  860MOL0     C15997   6.356   9.009  10.815  1.5152 -0.5882 -0.1698
  860MOL0     C15998   6.339   8.928  10.930  0.8096  0.6644  0.0469
  860MOL0     C15999   6.394   8.799  10.932  0.2650  0.6322 -0.5947
  860MOL0     O16000   6.384   8.728  11.055  0.0168  0.4152  0.6638
  860MOL0     C16001   6.408   8.588  11.053 -0.9559 -0.1164  0.4744
  860MOL0     C16002   6.560   8.580  11.080 -0.6391 -0.4932 -0.2097
  860MOL0     C16003   6.597   8.441  11.118 -0.4091 -0.0110 -0.9167
  860MOL0     C16004   6.741   8.436  11.158 -0.7862 -0.4257 -0.5697
  860MOL0     C16005   6.777   8.294  11.194  0.2060 -0.3595 -0.0767
  860MOL0     C16006   6.924   8.298  11.215 -0.4933  0.1387 -0.2392
  860MOL0     C16007   6.989   8.155  11.224  1.1345  0.8246 -0.8829
  860MOL0     C16008   6.991   8.081  11.087 -0.0577  0.2660  0.0750
  860MOL0    Cl16009   7.098   8.164  10.965  0.4424  0.5451 -0.4301
  860MOL0     C16010   6.464   8.751  10.821  0.1830 -0.0679  0.0980
  860MOL0     C16011   6.482   8.839  10.705 -0.3571 -0.3625  1.3258
  860MOL0     O16012   6.492   9.234  10.711 -0.3938  0.4486 -0.3997
  860MOL0     C16013   6.642   9.159  10.397 -0.0497 -0.0339  0.0395
  860MOL0     C16014   6.711   9.230  10.298 -0.0760  0.2442 -0.8390
  860MOL0     N16015   6.962   9.576   9.833  0.1041 -0.6483  0.3689
  860MOL0     N16016   7.068   9.651   9.835  0.1676 -0.2193  0.0893
  860MOL0     C16017   8.396   9.413   9.910 -0.4070  1.2858 -0.0569
  860MOL0     C16018   8.525   9.360   9.919 -1.1494 -0.3967 -0.6168
  860MOL0     C16019   8.947   9.321   9.758 -0.2040 -0.0716 -0.5717
  860MOL0     C16020   8.981   9.252   9.643  0.1558  0.1003  0.7259
  860MOL0     C16021   9.109   9.228   9.600 -0.8914  0.7007 -0.4956
  860MOL0     C16022   9.212   9.274   9.682 -1.2915  0.0557  0.9454
  860MOL0     O16023   9.345   9.251   9.653  0.1120 -0.6161 -1.5466
  860MOL0     C16024   9.367   9.114   9.617  0.5342  0.5238 -0.3610
  860MOL0     C16025   9.516   9.084   9.620 -0.2910  0.0427  0.7302
  860MOL0     C16026   9.594   9.167   9.518  0.1182  0.7637  0.9132
  860MOL0     C16027   9.736   9.185   9.551 -0.1306  0.0004 -0.3844
  860MOL0     C16028   9.795   9.255   9.438  0.2549  0.1660 -0.2460
  860MOL0     C16029   9.858   9.329   9.358 -0.4225 -0.9695  0.8328
  860MOL0     C16030   9.182   9.354   9.789  0.1613  0.1246  0.5678
  860MOL0     C16031   9.053   9.364   9.844 -0.3733  0.9891  0.3217
  860MOL0     C16032   9.040   9.433   9.978  0.6103  0.5973  0.6293
  860MOL0     H16033   8.713   9.639   9.977  0.5641  0.4807 -0.2649
  860MOL0     H16034   8.473   9.741   9.953 -2.8544 -0.3562  1.0402
  860MOL0     H16035   8.163   9.494   9.800 -1.1836  1.3705 -1.0597
  860MOL0     H16036   8.115   9.470   9.965  0.5341 -1.5665 -2.1064
  860MOL0     H16037   8.048   9.702   9.780 -1.6481 -2.8587 -2.2927
  860MOL0     H16038   8.022   9.713   9.950  1.1221 -0.5729  0.9068
  860MOL0     H16039   7.880   9.513   9.948  2.4289  0.0365  0.6259
  860MOL0     H16040   7.923   9.495   9.775  0.0905 -0.6632  0.3450
  860MOL0     H16041   7.763   9.733   9.900 -3.2799 -0.7750  0.0883
  860MOL0     H16042   7.804   9.710   9.732 -0.2921 -2.1644 -1.3710
  860MOL0     H16043   7.647   9.497   9.749  0.2381 -1.1631  1.1463
  860MOL0     H16044   7.613   9.556   9.914  0.1963 -2.6850  0.6036
  860MOL0     H16045   7.542   9.760   9.818  1.0942 -0.3699  0.3494
  860MOL0     H16046   7.579   9.725   9.663  3.0557  1.5309  1.3854
  860MOL0     H16047   7.390   9.518   9.703  2.3368 -1.2246  3.4137
  860MOL0     H16048   7.353   9.685   9.666 -0.6200  1.6676  2.1086
  860MOL0     H16049   7.380   9.553   9.928 -0.3177 -2.2682 -2.2439
  860MOL0     H16050   7.328   9.723   9.914 -0.3342 -0.0821 -0.5994
  860MOL0     H16051   7.204   9.363   9.887 -0.6594  0.0820  0.6329
  860MOL0     H16052   6.848   9.351   9.757 -1.6330 -2.5275  1.2423
  860MOL0     H16053   6.974   9.237   9.801 -1.3069 -1.1607 -0.2599
  860MOL0     H16054   6.836   9.174   9.958  0.5151 -0.0239 -4.0831
  860MOL0     H16055   6.912   9.302  10.053  1.2099 -1.1630  0.3608
  860MOL0     H16056   6.642   9.279  10.020  1.9581 -0.8899  0.7052
  860MOL0     H16057   6.687   9.386   9.891  3.2745  2.5666 -0.9562
  860MOL0     H16058   6.612   9.503  10.100 -0.4916 -0.6914 -2.4587
  860MOL0     H16059   6.764   9.563  10.059 -1.0514  1.5174  2.3206
  860MOL0     H16060   6.657   9.551  10.391  1.1545 -0.1928  1.2051
  860MOL0     H16061   6.531   9.430  10.571  3.0010 -0.3136  0.9415
  860MOL0     H16062   6.327   9.112  10.831  1.8042 -0.5245 -0.0588
  860MOL0     H16063   6.286   8.957  11.021  1.0553  2.6016 -0.3858
  860MOL0     H16064   6.356   8.542  11.138 -2.8885  0.4049 -0.3724
  860MOL0     H16065   6.382   8.526  10.967  0.3738 -1.0624  0.7206
  860MOL0     H16066   6.622   8.618  10.999 -1.9142  2.2106 -0.0404
  860MOL0     H16067   6.579   8.655  11.157 -1.8578  1.3380 -1.6116
  860MOL0     H16068   6.539   8.395  11.199 -1.1510  0.5988 -1.0926
  860MOL0     H16069   6.586   8.371  11.035 -0.6327 -0.4622 -0.5134
  860MOL0     H16070   6.773   8.498  11.242  1.3790 -1.3648 -0.6285
  860MOL0     H16071   6.797   8.459  11.067 -0.1512 -2.5421 -0.7880
  860MOL0     H16072   6.758   8.234  11.104 -0.0026  0.3684 -0.5249
  860MOL0     H16073   6.725   8.271  11.287 -0.5890  0.8818 -0.1919
  860MOL0     H16074   6.970   8.355  11.134 -0.0974 -1.3846 -1.1244
  860MOL0     H16075   6.952   8.352  11.306 -1.2242 -0.8565  0.6072
  860MOL0     H16076   6.932   8.089  11.291 -0.2204  0.4292 -2.3580
  860MOL0     H16077   7.093   8.163  11.256  1.0453  0.3129 -0.4604
  860MOL0     H16078   7.035   7.981  11.098  0.6513  0.7589  2.0329
  860MOL0     H16079   6.892   8.072  11.040  1.3480 -0.8687 -2.9674
  860MOL0     H16080   6.502   8.649  10.820 -0.7250 -0.4481  1.4473
  860MOL0     H16081   6.543   8.791  10.629 -1.0639  0.5816  0.1303
  860MOL0     H16082   6.626   9.052  10.407  0.1859 -0.0323  0.4511
  860MOL0     H16083   6.764   9.178  10.220 -0.3282  0.2249 -0.9964
  860MOL0     H16084   8.317   9.342   9.891  0.7874  0.0783 -0.6327
  860MOL0     H16085   8.546   9.255   9.902 -0.1517 -0.4444  0.7453
  860MOL0     H16086   8.910   9.212   9.572  3.6875 -3.0741 -1.3816
  860MOL0     H16087   9.120   9.177   9.505 -3.5005 -0.6254 -0.1794
  860MOL0     H16088   9.315   9.089   9.524  0.6761  0.0274 -0.3121
  860MOL0     H16089   9.330   9.045   9.694  3.0706  1.6882  2.0987
  860MOL0     H16090   9.543   8.986   9.580  1.6498  2.4368 -4.7379
  860MOL0     H16091   9.560   9.103   9.718  2.3351 -3.4995  0.4274
  860MOL0     H16092   9.547   9.266   9.519  1.0074  1.1855  1.4351
  860MOL0     H16093   9.589   9.116   9.422  1.1805 -0.6515  1.5676
  860MOL0     H16094   9.742   9.241   9.644 -1.0524  2.1799 -1.5537
  860MOL0     H16095   9.774   9.083   9.560 -4.2723 -1.8273 -1.0577
  860MOL0     H16096   9.918   9.404   9.311 -2.6004  2.3445  2.9410
  860MOL0     H16097   9.265   9.408   9.834  0.9054  0.6925 -1.3488
  860MOL0     H16098   8.950   9.492   9.959  0.4690 -0.1805 -1.2961
  860MOL0     H16099   9.026   9.375  10.069 -2.1455 -2.6419 -1.6315
  860MOL0     H16100   9.113   9.514   9.994  0.6460  0.7664 -0.3174
  861MOL0     O16101   9.075   3.656   3.551 -0.4218 -0.7835 -0.4129
  861MOL0     C16102   9.057   3.578   3.461  0.1319  0.3230 -0.2079
  861MOL0     O16103   9.043   3.446   3.474 -0.7064  0.8721 -0.7020
  861MOL0     C16104   9.052   3.378   3.600  0.4518 -1.2215  0.7715
  861MOL0     C16105   8.970   3.436   3.711  0.0337  0.4181 -0.1918
  861MOL0     C16106   8.972   3.362   3.830 -0.9834  1.0826  0.7352
  861MOL0     C16107   9.057   3.252   3.848  0.9083  1.0986  0.2507
  861MOL0     O16108   9.063   3.177   3.963 -0.2367 -0.8195 -0.3445
  861MOL0     C16109   8.952   3.095   3.974 -0.0217 -0.4774  0.2750
  861MOL0     C16110   8.982   2.951   3.995  0.2808  1.1068  0.3552
  861MOL0     C16111   8.854   2.860   3.995  0.1146 -0.2331  0.7956
  861MOL0     C16112   8.779   2.870   4.127 -0.1626 -0.8729  1.5284
  861MOL0     C16113   8.663   2.778   4.166  0.4336  0.1920  0.4829
  861MOL0     C16114   8.619   2.793   4.312  0.0992 -0.6804 -0.0029
  861MOL0     C16115   8.497   2.709   4.360 -0.5795  0.9520 -0.5933
  861MOL0     C16116   8.492   2.568   4.323 -0.2138 -0.6229  0.0945
  861MOL0     N16117   8.569   2.486   4.411  0.1304 -0.1103 -0.2398
  861MOL0     C16118   8.676   2.412   4.388 -0.5950  0.2891 -0.0049
  861MOL0     C16119   8.698   2.321   4.487 -0.0798 -0.6893  0.1587
  861MOL0     C16120   8.813   2.238   4.505 -0.2157 -0.0644  0.9286
  861MOL0     C16121   8.759   2.111   4.566  0.9465 -0.5247  1.0689
  861MOL0     C16122   8.864   2.005   4.563 -0.5459  0.6617  0.2207
  861MOL0     C16123   8.838   1.894   4.655 -0.7607  0.7700 -0.9386
  861MOL0     O16124   8.878   1.937   4.794 -1.1811 -0.1564  0.4041
  861MOL0     C16125   8.858   1.853   4.908 -0.9412 -0.0763  0.4375
  861MOL0     C16126   8.831   1.719   4.895 -0.4162 -0.0502 -0.8753
  861MOL0     C16127   8.809   1.649   5.013  0.1039  0.4099 -0.3057
  861MOL0     C16128   8.806   1.714   5.144 -1.0569 -0.5382 -0.0017
  861MOL0     C16129   8.779   1.640   5.269 -0.0908  1.1718 -0.2341
  861MOL0     O16130   8.783   1.513   5.252 -0.2649 -0.5513 -0.4379
  861MOL0     C16131   8.745   1.429   5.355 -0.8225  0.8837  0.1280
  861MOL0     C16132   8.825   1.320   5.387  0.5708 -0.4584 -0.3410
  861MOL0     C16133   8.778   1.222   5.478  0.3408  0.1119 -0.0263
  861MOL0     C16134   8.655   1.245   5.549 -1.2885 -0.7733  0.1309
  861MOL0     O16135   8.585   1.153   5.621  0.3876  0.7003 -0.2612
  861MOL0     C16136   8.632   1.016   5.615 -0.0104 -1.0905 -0.2937
  861MOL0     C16137   8.541   0.940   5.716 -0.3427  0.2910 -0.1007
  861MOL0     C16138   8.535   0.996   5.857  0.1300 -0.7096  0.0140
  861MOL0     C16139   8.494   0.896   5.968 -0.0469  0.8490  1.1505
  861MOL0     C16140   8.499   0.978   6.098  0.1836  1.3144  0.4112
  861MOL0     C16141   8.472   0.888   6.228  0.6040  0.3913  0.9256
  861MOL0     C16142   8.493   0.962   6.365 -0.8170  0.6891  0.8493
  861MOL0     C16143   8.558   0.878   6.476 -0.0783  0.4213  0.6760
  861MOL0    Cl16144   8.712   0.787   6.430  0.7071  0.2385  0.2394
  861MOL0     C16145   8.588   1.368   5.533  0.0838  1.2269  0.8939
  861MOL0     C16146   8.630   1.449   5.429  0.6291 -0.3011 -0.2063
  861MOL0     O16147   8.746   1.707   5.374 -0.0464  0.3153  0.3426
  861MOL0     C16148   8.849   1.848   5.151 -0.3697  0.6350  0.7089
  861MOL0     C16149   8.885   1.913   5.033  0.1304  0.0865  0.0391
  861MOL0     N16150   8.596   2.345   4.579 -0.3567 -0.8796 -0.5062
  861MOL0     N16151   8.522   2.431   4.527 -0.8002  0.0972  0.5853
  861MOL0     C16152   9.132   3.203   3.749 -0.1256  0.0829 -0.0419
  861MOL0     C16153   9.126   3.263   3.623 -0.0385 -0.7090 -0.6004
  861MOL0     C16154   9.050   3.625   3.323 -0.3461 -0.1960 -0.1062
  861MOL0     C16155   8.964   3.555   3.236 -0.3054  0.5561  0.8209
  861MOL0     C16156   8.941   3.596   3.101 -0.1620 -0.5270 -0.1176
  861MOL0     C16157   9.003   3.714   3.058 -0.3971  0.3213  0.5954
  861MOL0     O16158   8.992   3.759   2.931 -0.3290  0.4221 -0.3207
  861MOL0     C16159   8.944   3.687   2.813  1.1717  0.1435  0.1177
  861MOL0     C16160   8.946   3.773   2.687  0.2247 -0.1197 -0.0663
  861MOL0     C16161   8.822   3.757   2.605  0.2153 -0.3574  0.2613
  861MOL0     C16162   8.822   3.623   2.528  0.1699 -0.8032 -0.6081
  861MOL0     C16163   8.704   3.604   2.439  0.1125 -0.3952  0.4200
  861MOL0     C16164   8.627   3.576   2.348 -0.7426 -0.1163 -0.2044
  861MOL0     C16165   9.075   3.792   3.149  0.3957 -0.3947  0.5931
  861MOL0     C16166   9.101   3.752   3.275  0.0188 -0.3054 -0.9384
  861MOL0     C16167   9.174   3.848   3.362  0.2056 -0.4416 -0.0792
  861MOL0     H16168   8.916   3.530   3.702 -0.6727 -0.1837 -3.0382
  861MOL0     H16169   8.911   3.388   3.917 -1.8443 -0.9566  0.8013
  861MOL0     H16170   8.887   3.135   4.052 -0.9586 -2.4280  0.5745
  861MOL0     H16171   8.891   3.101   3.883 -1.6031  3.3623  1.4127
  861MOL0     H16172   9.041   2.922   4.082 -1.9876  1.0574  1.9676
  861MOL0     H16173   9.034   2.929   3.902  0.0600  1.7362  0.0740
  861MOL0     H16174   8.879   2.757   3.968  0.3869 -0.8854  3.3167
  861MOL0     H16175   8.779   2.890   3.920 -0.0533  0.3088  1.1726
  861MOL0     H16176   8.856   2.861   4.204 -0.2531  2.2209  2.1069
  861MOL0     H16177   8.743   2.973   4.127  3.1903  0.5581 -2.1317
  861MOL0     H16178   8.585   2.815   4.099  1.5672  3.9047  1.0024
  861MOL0     H16179   8.696   2.677   4.138 -1.3203 -0.2921  0.0249
  861MOL0     H16180   8.698   2.769   4.383 -0.0148 -0.7872  0.0898
  861MOL0     H16181   8.595   2.900   4.319 -0.0176 -0.7603  1.0602
  861MOL0     H16182   8.401   2.747   4.323 -1.0891  1.1186  0.8168
  861MOL0     H16183   8.491   2.720   4.469  2.0800 -1.5689 -0.0929
  861MOL0     H16184   8.386   2.539   4.322  0.0924 -2.2563  2.8604
  861MOL0     H16185   8.530   2.563   4.221 -0.3704 -1.1291  0.0577
  861MOL0     H16186   8.751   2.426   4.310  1.1622  3.0280  2.0103
  861MOL0     H16187   8.866   2.217   4.411  0.9986 -0.6399  1.7203
  861MOL0     H16188   8.880   2.291   4.573  0.7451 -1.9119  1.4703
  861MOL0     H16189   8.728   2.126   4.670 -0.0028 -1.8791  1.0017
  861MOL0     H16190   8.672   2.071   4.513  0.2879  0.0269  1.7066
  861MOL0     H16191   8.968   2.040   4.569  0.8363 -3.2036  3.0764
  861MOL0     H16192   8.860   1.952   4.467 -0.7362  0.1884  0.4855
  861MOL0     H16193   8.909   1.815   4.629  0.0333  1.4601 -0.8925
  861MOL0     H16194   8.736   1.857   4.642 -0.3660  0.0145 -1.9835
  861MOL0     H16195   8.819   1.669   4.799  2.8072  1.6787 -2.3551
  861MOL0     H16196   8.790   1.542   5.005  1.3982  0.2607 -1.9259
  861MOL0     H16197   8.926   1.312   5.348  0.9125  0.5698  0.3032
  861MOL0     H16198   8.841   1.141   5.513 -0.6414 -0.3978  0.6062
  861MOL0     H16199   8.632   0.976   5.513  1.4446  1.0300 -1.1785
  861MOL0     H16200   8.729   1.022   5.666 -0.0914  1.7189 -0.3555
  861MOL0     H16201   8.441   0.921   5.677 -0.6980 -2.0307  1.7546
  861MOL0     H16202   8.578   0.838   5.729 -2.3267 -0.3884  0.5557
  861MOL0     H16203   8.629   1.046   5.882 -0.5499  0.0829  1.1169
  861MOL0     H16204   8.448   1.063   5.859 -2.4518 -3.7478 -1.1856
  861MOL0     H16205   8.582   0.831   5.968  0.2988  0.8623 -4.2812
  861MOL0     H16206   8.409   0.835   5.937 -0.1142  1.8749 -0.8348
  861MOL0     H16207   8.421   1.055   6.098  0.6702  2.0363  4.6891
  861MOL0     H16208   8.596   1.029   6.101  0.2220  1.2533  0.2568
  861MOL0     H16209   8.367   0.860   6.240 -0.4310  3.5363  0.2497
  861MOL0     H16210   8.520   0.790   6.232 -2.1786 -1.3704 -2.6398
  861MOL0     H16211   8.406   1.007   6.413 -1.7552  0.1108 -0.2580
  861MOL0     H16212   8.559   1.048   6.344  1.3831 -0.8206  1.2215
  861MOL0     H16213   8.582   0.948   6.556  2.9308  0.0554  0.1844
  861MOL0     H16214   8.482   0.805   6.508  0.1036  1.4080  3.6900
  861MOL0     H16215   8.503   1.391   5.596 -2.4893 -1.8447 -1.1027
  861MOL0     H16216   8.573   1.538   5.403  2.3213  0.5886 -1.0521
  861MOL0     H16217   8.840   1.905   5.243  1.3618 -0.0034  1.3230
  861MOL0     H16218   8.903   2.020   5.021  0.8050 -0.1778 -1.6050
  861MOL0     H16219   9.187   3.110   3.755 -0.8041 -0.4989 -2.1796
  861MOL0     H16220   9.184   3.206   3.550  1.2408 -1.0234  0.6097
  861MOL0     H16221   8.901   3.477   3.279  0.9076  0.6733  2.9434
  861MOL0     H16222   8.876   3.543   3.031 -0.1892  0.0293 -0.5217
  861MOL0     H16223   8.840   3.672   2.842  1.3743 -0.1876  0.6803
  861MOL0     H16224   8.987   3.587   2.803  1.5844  0.4200 -1.1611
  861MOL0     H16225   9.036   3.745   2.631 -1.1437 -2.5521 -1.1710
  861MOL0     H16226   8.941   3.876   2.724 -0.2255  1.0258 -3.0349
  861MOL0     H16227   8.807   3.840   2.536 -0.0443  1.0413  1.9179
  861MOL0     H16228   8.736   3.753   2.674  0.8486  0.3726  1.1188
  861MOL0     H16229   8.910   3.629   2.464  0.1875 -3.1873 -0.9096
  861MOL0     H16230   8.809   3.538   2.597 -1.9690 -0.9722 -1.1495
  861MOL0     H16231   8.552   3.563   2.272  0.4346 -0.9852 -1.2689
  861MOL0     H16232   9.119   3.884   3.111 -1.8945  1.7966  2.8558
  861MOL0     H16233   9.260   3.814   3.420  3.8270 -0.2379 -4.7580
  861MOL0     H16234   9.223   3.923   3.298 -1.7950  0.4059 -0.6942
  861MOL0     H16235   9.096   3.899   3.418 -0.6300  0.0601 -1.6334
  862MOL0     O16236   7.492   7.337   8.113  0.4023  0.7105  0.5541
  862MOL0     C16237   7.420   7.234   8.110 -0.9389 -0.8224 -0.2934
  862MOL0     O16238   7.384   7.168   8.226  0.0998  0.7341  0.0974
  862MOL0     C16239   7.482   7.163   8.318  0.0965  0.1709  1.0264
  862MOL0     C16240   7.600   7.095   8.291 -0.0083  0.5644  0.5528
  862MOL0     C16241   7.705   7.095   8.385 -0.0963 -0.4335 -0.7381
  862MOL0     C16242   7.690   7.152   8.517 -0.6084 -0.6455 -0.7292
  862MOL0     O16243   7.779   7.115   8.616  0.5718  0.4065 -0.2228
  862MOL0     C16244   7.768   7.192   8.740  0.7320  0.3061 -0.5739
  862MOL0     C16245   7.875   7.153   8.834  0.0353 -0.1127  0.3712
  862MOL0     C16246   7.936   7.272   8.892  0.1167 -0.2700 -0.0293
  862MOL0     C16247   8.036   7.225   8.997  0.0668 -0.0165 -0.6569
  862MOL0     C16248   8.164   7.156   8.960 -0.2621  0.8551  0.2669
  862MOL0     C16249   8.257   7.246   8.883 -0.3682  0.0789 -0.3331
  862MOL0     C16250   8.377   7.160   8.827  0.7472  0.2249 -0.6893
  862MOL0     C16251   8.436   7.243   8.704  0.6857  0.6691  0.6855
  862MOL0     N16252   8.344   7.255   8.591  0.0223  0.2160  0.3058
  862MOL0     C16253   8.238   7.172   8.552  0.0127  0.0194 -0.5423
  862MOL0     C16254   8.181   7.229   8.444 -1.3805 -0.0359  0.1772
  862MOL0     C16255   8.071   7.175   8.366 -0.5269  1.1279 -0.6313
  862MOL0     C16256   8.121   7.103   8.234 -0.3313  0.8505 -0.2887
  862MOL0     C16257   8.014   7.021   8.162 -0.2735  0.9758  0.0431
  862MOL0     C16258   8.058   6.949   8.025 -0.0925 -1.4898  0.6207
  862MOL0     O16259   8.127   7.053   7.946 -1.1123 -0.0769  0.2296
  862MOL0     C16260   8.168   7.017   7.818  0.0123 -0.0603  0.7029
  862MOL0     C16261   8.160   6.883   7.765 -0.3601 -1.1976 -0.0788
  862MOL0     C16262   8.204   6.868   7.629 -0.6963  0.2990 -1.0174
  862MOL0     C16263   8.243   6.975   7.548  0.0216  0.4908  0.6775
  862MOL0     C16264   8.276   6.952   7.407 -0.7473 -0.7695 -0.4674
  862MOL0     O16265   8.356   7.057   7.361  0.3712 -0.3053 -0.3395
  862MOL0     C16266   8.387   7.047   7.227  0.1781  0.0597 -0.8264
  862MOL0     C16267   8.310   7.118   7.145 -0.4159 -0.5806 -0.2970
  862MOL0     C16268   8.320   7.116   7.003 -0.6021  0.6250  0.6824
  862MOL0     C16269   8.395   7.012   6.944 -0.3018 -0.2651 -0.0596
  862MOL0     O16270   8.407   6.986   6.810 -0.0643 -0.5739  0.1088
  862MOL0     C16271   8.328   7.071   6.725 -0.4348 -1.2824  0.2483
  862MOL0     C16272   8.388   7.045   6.587 -0.1025 -0.1843  1.2083
  862MOL0     C16273   8.387   7.169   6.487  0.2637  0.0064  0.4066
  862MOL0     C16274   8.475   7.140   6.368  0.2433  0.2037  0.5932
  862MOL0     C16275   8.444   7.240   6.259  0.0005  0.1929 -0.2993
  862MOL0     C16276   8.502   7.190   6.133  0.4206 -0.0912 -0.0204
  862MOL0     C16277   8.657   7.202   6.106  0.9614 -0.1661  0.5118
  862MOL0     C16278   8.726   7.335   6.131  0.4036 -0.9164  0.4808
  862MOL0    Cl16279   8.902   7.349   6.076 -0.0955 -0.2274 -0.1585
  862MOL0     C16280   8.464   6.925   7.033  0.3722  0.4360 -0.6532
  862MOL0     C16281   8.475   6.951   7.171  0.1960  0.8076  0.0915
  862MOL0     O16282   8.261   6.843   7.351 -0.2410 -0.0424 -0.5255
  862MOL0     C16283   8.237   7.111   7.610  0.3854 -0.2474 -0.1449
  862MOL0     C16284   8.207   7.127   7.742  0.5150  0.0728 -0.2671
  862MOL0     N16285   8.256   7.344   8.418  0.3663 -0.1143 -0.0718
  862MOL0     N16286   8.341   7.361   8.503  0.1536 -0.1169  0.9940
  862MOL0     C16287   7.566   7.226   8.535  0.7394  0.1025 -0.4295
  862MOL0     C16288   7.464   7.219   8.444 -0.8061 -0.4987 -0.5457
  862MOL0     C16289   7.368   7.195   7.981  0.2213  0.3120  0.2619
  862MOL0     C16290   7.246   7.128   7.989 -0.2879  0.7757  0.1862
  862MOL0     C16291   7.166   7.098   7.881  0.0817 -0.0392  0.1341
  862MOL0     C16292   7.203   7.135   7.752  0.8427 -0.7847 -0.4100
  862MOL0     O16293   7.107   7.128   7.657  0.6249 -0.9855  0.6408
  862MOL0     C16294   7.148   7.143   7.517 -0.3167  0.1311 -0.4788
  862MOL0     C16295   7.211   7.005   7.469 -0.5518 -0.5834 -1.0169
  862MOL0     C16296   7.295   7.037   7.339 -0.0487 -0.7411  0.1131
  862MOL0     C16297   7.313   6.911   7.251 -0.2014  0.2242 -0.2639
  862MOL0     C16298   7.444   6.921   7.180 -0.7263  0.3995  0.6935
  862MOL0     C16299   7.550   6.931   7.130  0.8836  0.4258  0.0155
  862MOL0     C16300   7.330   7.193   7.738 -0.2215  0.6902  0.3424
  862MOL0     C16301   7.414   7.229   7.848 -1.1590  1.6958  0.7995
  862MOL0     C16302   7.550   7.276   7.822 -0.0207 -0.6007  1.6922
  862MOL0     H16303   7.616   7.041   8.198 -4.1241 -2.1031  1.1285
  862MOL0     H16304   7.797   7.050   8.349  0.5986  1.9210 -2.1808
  862MOL0     H16305   7.772   7.299   8.720 -0.5746  0.6467  0.7676
  862MOL0     H16306   7.667   7.171   8.776 -0.2768  0.8536 -2.9621
  862MOL0     H16307   7.952   7.089   8.790 -0.5851  0.6422 -1.9695
  862MOL0     H16308   7.824   7.101   8.916  0.1922  0.2164  0.6848
  862MOL0     H16309   7.858   7.331   8.940 -0.4542 -1.9286  1.2003
  862MOL0     H16310   7.993   7.339   8.827 -0.0048  0.3749  0.5201
  862MOL0     H16311   8.076   7.302   9.064 -1.2804 -0.2953  0.5339
  862MOL0     H16312   7.995   7.157   9.072  3.5459 -1.4350  0.1718
  862MOL0     H16313   8.213   7.126   9.054 -4.1349 -1.8864  1.6636
  862MOL0     H16314   8.151   7.060   8.911  0.4064 -0.7480  3.0081
  862MOL0     H16315   8.203   7.307   8.809 -1.9200 -0.7857  0.0307
  862MOL0     H16316   8.292   7.323   8.951 -2.6044  0.6639  0.2486
  862MOL0     H16317   8.345   7.062   8.789  0.0973  1.1974 -2.7927
  862MOL0     H16318   8.453   7.169   8.905 -0.4463  5.2917  0.2372
  862MOL0     H16319   8.465   7.343   8.738 -1.0963  0.7998  1.9226
  862MOL0     H16320   8.526   7.189   8.673 -0.0479 -0.2963  0.1729
  862MOL0     H16321   8.210   7.084   8.609 -2.0235  2.2948  2.3418
  862MOL0     H16322   8.020   7.101   8.428  0.8822  0.7183  0.0725
  862MOL0     H16323   8.006   7.259   8.337 -1.3458  1.4315  1.8059
  862MOL0     H16324   8.155   7.184   8.168  1.6301  2.0129  1.9820
  862MOL0     H16325   8.203   7.035   8.258  1.1452  3.0279  1.2400
  862MOL0     H16326   7.922   7.078   8.150 -1.2261 -0.8076 -1.7663
  862MOL0     H16327   8.001   6.937   8.230  2.3259 -3.4073 -4.2264
  862MOL0     H16328   7.977   6.920   7.958 -0.1788  0.4437 -0.1835
  862MOL0     H16329   8.126   6.864   8.033  0.6274 -0.8617  1.3900
  862MOL0     H16330   8.130   6.803   7.833  1.8019 -1.7472  0.3085
  862MOL0     H16331   8.192   6.766   7.593 -1.2504 -1.0839  2.6445
  862MOL0     H16332   8.260   7.207   7.184  2.4954  1.5987 -1.2141
  862MOL0     H16333   8.273   7.200   6.951 -0.4611  0.6531  0.6008
  862MOL0     H16334   8.222   7.046   6.717 -0.6730  0.0776 -1.5105
  862MOL0     H16335   8.353   7.177   6.738 -1.2379 -0.5152 -3.3620
  862MOL0     H16336   8.495   7.020   6.587 -0.5383 -2.4984 -1.2638
  862MOL0     H16337   8.357   6.954   6.535 -1.3450  0.4261  0.8630
  862MOL0     H16338   8.282   7.196   6.472  0.0589  0.8410  2.9312
  862MOL0     H16339   8.443   7.253   6.528  1.4439  0.8468 -2.6496
  862MOL0     H16340   8.463   7.037   6.335  5.9454 -1.1254  1.6093
  862MOL0     H16341   8.582   7.139   6.392  0.6208  0.1547 -0.9945
  862MOL0     H16342   8.487   7.337   6.285  0.7663 -0.3339  0.4693
  862MOL0     H16343   8.339   7.268   6.243  0.5174  3.1821  0.8622
  862MOL0     H16344   8.487   7.081   6.134  2.0663 -0.4269 -2.7512
  862MOL0     H16345   8.443   7.226   6.049 -1.0018  0.0323  0.9963
  862MOL0     H16346   8.671   7.193   5.998 -4.2276 -3.0469 -0.2541
  862MOL0     H16347   8.702   7.119   6.161 -0.0528  0.5899  2.5930
  862MOL0     H16348   8.671   7.419   6.088 -0.2797 -0.6396  1.8643
  862MOL0     H16349   8.723   7.361   6.237  2.7070  0.8064  0.2003
  862MOL0     H16350   8.523   6.841   6.997  0.5556 -0.2619  1.1739
  862MOL0     H16351   8.526   6.878   7.233  0.9766  1.4185  0.1814
  862MOL0     H16352   8.262   7.196   7.546 -0.2715  0.3480  0.3789
  862MOL0     H16353   8.225   7.228   7.780  0.3604 -0.4656  1.3172
  862MOL0     H16354   7.552   7.296   8.616  1.3823  1.3960 -1.4051
  862MOL0     H16355   7.368   7.261   8.471  0.3780  2.6253 -0.7561
  862MOL0     H16356   7.209   7.091   8.084  0.2118  1.4024  0.6305
  862MOL0     H16357   7.076   7.041   7.905  0.6048  0.0417  2.4694
  862MOL0     H16358   7.214   7.227   7.495  1.9957 -1.4745  0.0530
  862MOL0     H16359   7.061   7.151   7.450 -0.2159  0.1742 -0.6037
  862MOL0     H16360   7.134   6.929   7.460 -0.0457 -1.3075  0.4894
  862MOL0     H16361   7.281   6.959   7.539 -0.4259  0.6289 -0.3030
  862MOL0     H16362   7.386   7.087   7.371 -0.6236  2.5856 -2.8356
  862MOL0     H16363   7.244   7.117   7.284  0.4248 -0.7567 -0.3549
  862MOL0     H16364   7.304   6.832   7.326 -2.7347  1.4833  0.8504
  862MOL0     H16365   7.224   6.893   7.189 -1.2285 -2.5489  1.8010
  862MOL0     H16366   7.643   6.952   7.081  0.3567  0.6401 -0.9166
  862MOL0     H16367   7.358   7.218   7.636 -2.1333  2.7016  0.2475
  862MOL0     H16368   7.569   7.254   7.717  0.8331  2.0371  1.2124
  862MOL0     H16369   7.545   7.384   7.840 -1.9990 -0.4921  0.7417
  862MOL0     H16370   7.617   7.236   7.899 -0.4276 -0.8966  1.8940
  863MOL0     O16371   4.309   3.491   2.028  0.0115  0.0643 -0.5475
  863MOL0     C16372   4.322   3.472   1.906 -0.4319  0.2202 -0.5065
  863MOL0     O16373   4.228   3.428   1.823  0.2146 -0.0908 -0.3245
  863MOL0     C16374   4.106   3.404   1.874  0.4095  0.9709  1.0360
  863MOL0     C16375   3.998   3.488   1.847 -0.7254 -0.2365  0.2772
  863MOL0     C16376   3.867   3.456   1.888 -0.0096  1.4382  0.1843
  863MOL0     C16377   3.849   3.342   1.972  0.6004 -0.2726  1.2895
  863MOL0     O16378   3.719   3.309   2.006 -1.0303  0.6870  0.4382
  863MOL0     C16379   3.684   3.288   2.146 -0.8782 -0.1473  0.6419
  863MOL0     C16380   3.687   3.427   2.223 -0.1637 -0.6634  0.5252
  863MOL0     C16381   3.560   3.500   2.179 -0.5502 -0.3233  0.1223
  863MOL0     C16382   3.576   3.657   2.198  0.2766 -1.6378  0.0860
  863MOL0     C16383   3.445   3.742   2.159 -0.1282 -0.3850  0.2145
  863MOL0     C16384   3.321   3.699   2.240 -0.3414  0.2319 -0.6361
  863MOL0     C16385   3.298   3.761   2.373 -0.9252  0.3866  0.5298
  863MOL0     C16386   3.409   3.757   2.472  0.7883  0.5180  0.3923
  863MOL0     N16387   3.380   3.802   2.605  0.1819  0.5423  0.1934
  863MOL0     C16388   3.300   3.731   2.689 -0.3328  0.4039  1.6718
  863MOL0     C16389   3.277   3.799   2.800  0.6206 -0.6838  0.4762
  863MOL0     C16390   3.189   3.776   2.920  0.4362  0.1459  0.3003
  863MOL0     C16391   3.256   3.692   3.028 -0.3219 -0.1916  0.0271
  863MOL0     C16392   3.166   3.690   3.163  0.3223 -0.2058  0.1585
  863MOL0     C16393   3.025   3.620   3.148 -0.0442  0.2788  0.6381
  863MOL0     O16394   3.049   3.484   3.080 -0.1560 -0.7020  0.7044
  863MOL0     C16395   2.961   3.395   3.103  0.5860  0.9990 -0.0657
  863MOL0     C16396   2.834   3.424   3.065 -0.1313 -0.0022  0.2293
  863MOL0     C16397   2.737   3.321   3.080  0.5957  1.3287  0.3805
  863MOL0     C16398   2.764   3.193   3.140 -0.5722  0.1535  0.4097
  863MOL0     C16399   2.657   3.082   3.146 -0.5984 -0.5870  0.5419
  863MOL0     O16400   2.524   3.122   3.117  0.0339 -0.3164  0.5756
  863MOL0     C16401   2.430   3.029   3.146 -0.2019 -0.0439 -0.2322
  863MOL0     C16402   2.355   2.985   3.031 -0.1833 -0.7144 -0.0407
  863MOL0     C16403   2.256   2.891   3.044 -0.1292  0.0810 -0.3159
  863MOL0     C16404   2.235   2.837   3.172 -0.3647  0.1132  0.4990
  863MOL0     O16405   2.129   2.748   3.167  0.2709  0.0184  0.0835
  863MOL0     C16406   2.095   2.686   3.292 -0.0632 -0.5152 -0.3200
  863MOL0     C16407   1.960   2.620   3.271 -0.1436 -0.4045  0.2099
  863MOL0     C16408   1.859   2.724   3.216  0.7532  0.3713  0.2847
  863MOL0     C16409   1.809   2.824   3.310  1.3890 -0.1802 -0.4243
  863MOL0     C16410   1.715   2.772   3.427 -1.1385  0.7821 -0.0537
  863MOL0     C16411   1.580   2.722   3.382 -0.4132  0.2252 -0.2993
  863MOL0     C16412   1.482   2.686   3.500  0.2559  0.9341  1.3924
  863MOL0     C16413   1.427   2.792   3.587 -0.7022  0.1958  0.4869
  863MOL0    Cl16414   1.257   2.762   3.638  0.5665 -0.0797  0.0156
  863MOL0     C16415   2.314   2.874   3.288  0.0132 -0.0180  0.0089
  863MOL0     C16416   2.407   2.973   3.277  0.0645  0.7192 -0.8267
  863MOL0     O16417   2.697   2.977   3.197  0.4401 -0.6363  0.0231
  863MOL0     C16418   2.895   3.173   3.182 -0.4473  0.3196  0.1319
  863MOL0     C16419   2.993   3.272   3.175 -0.8811  0.5753  0.6767
  863MOL0     N16420   3.351   3.920   2.785  0.3867  0.0712  0.6103
  863MOL0     N16421   3.404   3.918   2.672 -0.0562 -0.5601  0.4547
  863MOL0     C16422   3.953   3.257   2.002 -0.1104  0.4790  0.4913
  863MOL0     C16423   4.085   3.292   1.955  0.2894  0.8523 -1.6717
  863MOL0     C16424   4.456   3.506   1.849  0.0733  0.7138  0.1411
  863MOL0     C16425   4.478   3.469   1.715  0.5820 -0.4405 -0.0648
  863MOL0     C16426   4.599   3.481   1.654 -0.4776 -0.7491  0.4713
  863MOL0     C16427   4.709   3.540   1.717 -0.1709  0.1112 -0.2170
  863MOL0     O16428   4.832   3.572   1.663  0.4311  0.2589 -0.1767
  863MOL0     C16429   4.840   3.598   1.519 -0.4407 -0.7488 -0.5033
  863MOL0     C16430   4.821   3.743   1.494 -0.4369 -0.3638 -0.0483
  863MOL0     C16431   4.875   3.778   1.351  0.8668 -0.9808 -0.0851
  863MOL0     C16432   4.887   3.919   1.316  0.2043 -0.2606 -0.0122
  863MOL0     C16433   4.998   3.981   1.376 -0.8218 -0.1184 -1.5321
  863MOL0     C16434   5.103   4.029   1.430  0.1389  0.4179  0.0994
  863MOL0     C16435   4.683   3.584   1.844 -0.1700 -0.1423 -0.2915
  863MOL0     C16436   4.563   3.560   1.917  0.4676 -0.1174 -0.1753
  863MOL0     C16437   4.570   3.604   2.064  0.3267  0.8099  0.1963
  863MOL0     H16438   4.019   3.577   1.788 -0.3131 -0.8278 -0.4882
  863MOL0     H16439   3.783   3.518   1.858 -1.4064 -0.1984  0.5322
  863MOL0     H16440   3.590   3.232   2.142  0.4824 -2.5320 -2.2449
  863MOL0     H16441   3.764   3.229   2.191 -1.1721 -0.5870  0.5998
  863MOL0     H16442   3.780   3.468   2.182 -1.0179  1.0252  0.2159
  863MOL0     H16443   3.705   3.402   2.328 -4.6154  2.6682  2.3839
  863MOL0     H16444   3.484   3.458   2.246  0.7310 -0.5091  1.5120
  863MOL0     H16445   3.543   3.483   2.073  1.1743  3.4768 -0.9357
  863MOL0     H16446   3.610   3.691   2.296 -2.1635  2.1615 -0.2090
  863MOL0     H16447   3.651   3.690   2.125  1.0559 -0.0344  1.5689
  863MOL0     H16448   3.462   3.850   2.152  1.2249 -0.6803 -1.5684
  863MOL0     H16449   3.426   3.710   2.056 -0.0540  0.3046 -0.0154
  863MOL0     H16450   3.234   3.731   2.182  1.4624  1.8800 -2.6075
  863MOL0     H16451   3.318   3.591   2.259  0.4864  0.4253  0.7318
  863MOL0     H16452   3.212   3.714   2.421 -2.8644  3.2567  0.1257
  863MOL0     H16453   3.257   3.861   2.357  1.2401  1.5552  1.7499
  863MOL0     H16454   3.451   3.656   2.473  0.8647  0.5534  1.3087
  863MOL0     H16455   3.484   3.825   2.431  0.2051  2.1512  1.9025
  863MOL0     H16456   3.263   3.633   2.661 -2.4077  2.2170 -2.7210
  863MOL0     H16457   3.163   3.872   2.967 -3.2899 -0.5409 -0.0483
  863MOL0     H16458   3.096   3.726   2.892  0.0907  1.3067 -0.7411
  863MOL0     H16459   3.284   3.591   2.997  1.4591 -0.7261  2.9454
  863MOL0     H16460   3.353   3.741   3.043  0.1464 -1.1642  0.2695
  863MOL0     H16461   3.145   3.795   3.184 -1.3414 -0.6336  0.7297
  863MOL0     H16462   3.226   3.646   3.243 -1.1355  0.2600  1.5433
  863MOL0     H16463   2.948   3.675   3.093 -0.6110 -0.8919  0.2343
  863MOL0     H16464   2.975   3.598   3.242 -2.0072 -0.1208 -0.4495
  863MOL0     H16465   2.811   3.521   3.022  3.4710  0.8550  0.0023
  863MOL0     H16466   2.638   3.336   3.038  0.6964  0.7332 -0.0796
  863MOL0     H16467   2.357   3.044   2.940 -0.4592  0.7689  0.9018
  863MOL0     H16468   2.173   2.875   2.976 -0.9681  0.4759  0.5850
  863MOL0     H16469   2.163   2.606   3.322  0.4157 -0.2576 -0.7071
  863MOL0     H16470   2.084   2.752   3.379 -2.1954 -0.1056 -0.8363
  863MOL0     H16471   1.961   2.530   3.209 -1.0839 -0.7165  0.6248
  863MOL0     H16472   1.921   2.577   3.363  3.7915 -2.3839  1.1787
  863MOL0     H16473   1.906   2.773   3.130  2.4047 -2.0076 -0.2769
  863MOL0     H16474   1.778   2.667   3.170  0.3200 -0.3310  1.8636
  863MOL0     H16475   1.739   2.890   3.257 -0.0805 -1.9378 -0.7652
  863MOL0     H16476   1.882   2.883   3.366  0.8876 -1.1548  1.3414
  863MOL0     H16477   1.717   2.844   3.509  0.7955  1.0365 -0.2696
  863MOL0     H16478   1.774   2.698   3.483 -0.9904  0.8650 -0.0992
  863MOL0     H16479   1.526   2.792   3.317 -3.4096 -1.3840  0.3060
  863MOL0     H16480   1.602   2.633   3.323 -0.3572  0.0519 -0.0187
  863MOL0     H16481   1.528   2.609   3.562  0.6145 -0.0382 -0.0221
  863MOL0     H16482   1.398   2.641   3.446  1.9232  2.4354 -2.9065
  863MOL0     H16483   1.494   2.780   3.672 -0.2828  2.9086  0.6425
  863MOL0     H16484   1.451   2.889   3.542  1.4965 -0.9769 -1.0716
  863MOL0     H16485   2.304   2.828   3.386 -0.2760 -1.4932 -0.6758
  863MOL0     H16486   2.471   2.998   3.361  0.1373  0.7040 -0.8775
  863MOL0     H16487   2.914   3.070   3.212  0.1732 -0.0441 -1.4180
  863MOL0     H16488   3.096   3.265   3.206 -0.4688  0.9049 -0.5797
  863MOL0     H16489   3.944   3.163   2.055  0.6359  0.0204 -0.1714
  863MOL0     H16490   4.174   3.232   1.972 -1.9871 -2.2749  0.1710
  863MOL0     H16491   4.404   3.412   1.660 -0.6743  1.2226 -0.1868
  863MOL0     H16492   4.589   3.445   1.552  1.6536  0.2628 -0.1618
  863MOL0     H16493   4.768   3.541   1.460 -3.1040 -0.2943  2.0575
  863MOL0     H16494   4.937   3.555   1.493 -1.2178 -2.1596 -1.2269
  863MOL0     H16495   4.859   3.805   1.576 -1.5524 -0.0336  0.2388
  863MOL0     H16496   4.715   3.770   1.496 -0.3636 -0.0831  0.1739
  863MOL0     H16497   4.802   3.739   1.279 -0.2926  0.0801  0.4821
  863MOL0     H16498   4.976   3.742   1.329  0.3361 -1.3937 -2.1107
  863MOL0     H16499   4.893   3.940   1.209 -1.1181 -2.8143 -0.6652
  863MOL0     H16500   4.796   3.964   1.356 -0.8028 -2.6061  0.4815
  863MOL0     H16501   5.199   4.049   1.473 -0.3585 -1.7175  2.4539
  863MOL0     H16502   4.760   3.633   1.903 -0.9901  0.7480  0.0730
  863MOL0     H16503   4.552   3.517   2.128  1.5219  0.6642  0.3636
  863MOL0     H16504   4.662   3.652   2.099  1.5616 -2.3226  1.6120
  863MOL0     H16505   4.491   3.678   2.080 -1.7172 -0.8391 -1.5578
  864MOL0     O16506   3.380   7.090   5.461  0.0227  0.2024 -0.2541
  864MOL0     C16507   3.378   7.164   5.559 -0.0935  0.8390  0.1565
  864MOL0     O16508   3.475   7.182   5.644  0.3113  0.4855  1.3368
  864MOL0     C16509   3.598   7.129   5.618 -0.5729  0.1892 -0.0303
  864MOL0     C16510   3.675   7.147   5.505 -0.3349  0.7476  0.5314
  864MOL0     C16511   3.792   7.070   5.486  0.0822 -0.4321  0.8920
  864MOL0     C16512   3.836   6.985   5.587  0.0826  0.1802  1.1042
  864MOL0     O16513   3.962   6.937   5.574  0.0441 -0.0966 -0.2192
  864MOL0     C16514   4.015   6.825   5.644 -0.9661 -0.7556 -0.2629
  864MOL0     C16515   4.123   6.879   5.731 -0.3100  0.1835 -0.3064
  864MOL0     C16516   4.238   6.926   5.646  0.0328 -0.3270 -0.2664
  864MOL0     C16517   4.337   7.013   5.735  0.2793 -0.0488 -0.3470
  864MOL0     C16518   4.466   7.046   5.654  1.0205  0.2269  0.1467
  864MOL0     C16519   4.527   7.191   5.681  0.5893  0.4326  0.5538
  864MOL0     C16520   4.667   7.224   5.629  0.2430  0.9016  0.4641
  864MOL0     C16521   4.762   7.288   5.730  0.0765  0.4421 -0.2796
  864MOL0     N16522   4.745   7.432   5.761  0.4658 -0.6743  0.4001
  864MOL0     C16523   4.783   7.498   5.869  0.6037  0.7401  0.2097
  864MOL0     C16524   4.732   7.628   5.852  0.6543  0.4558  1.0592
  864MOL0     C16525   4.740   7.751   5.937 -0.0399 -0.2085 -0.3938
  864MOL0     C16526   4.824   7.753   6.066  0.3485  0.2097 -0.6714
  864MOL0     C16527   4.820   7.878   6.163  0.2156  0.0393 -1.0566
  864MOL0     C16528   4.922   7.865   6.274  0.4285  0.2743 -0.2103
  864MOL0     O16529   4.931   7.729   6.321 -0.4703  0.6397  0.4397
  864MOL0     C16530   4.829   7.680   6.400 -0.0665 -0.5756 -0.7453
  864MOL0     C16531   4.726   7.768   6.453 -0.2826 -0.0630  0.0307
  864MOL0     C16532   4.622   7.706   6.540  0.1687  0.0876  0.0337
  864MOL0     C16533   4.614   7.571   6.554 -0.4512  0.3925 -0.2899
  864MOL0     C16534   4.500   7.510   6.634 -1.0013 -0.1343 -0.3311
  864MOL0     O16535   4.461   7.592   6.739  0.4752  0.6944  0.6077
  864MOL0     C16536   4.378   7.543   6.836  0.1802 -0.1898 -0.8303
  864MOL0     C16537   4.282   7.621   6.902  0.8224  0.3242  0.4973
  864MOL0     C16538   4.208   7.576   7.016 -0.4367  0.9645 -0.1684
  864MOL0     C16539   4.258   7.455   7.076  0.2293  0.4177  0.4427
  864MOL0     O16540   4.216   7.410   7.196 -0.1210  0.0041  0.3400
  864MOL0     C16541   4.094   7.352   7.184  0.9364 -0.2254 -0.1765
  864MOL0     C16542   4.109   7.213   7.238  0.2859 -0.0515 -0.2902
  864MOL0     C16543   4.146   7.217   7.388 -0.0105 -0.2862  0.8591
  864MOL0     C16544   4.113   7.082   7.447 -0.1792  0.9595 -1.5648
  864MOL0     C16545   4.126   7.086   7.598  0.2525  0.6546 -0.1662
  864MOL0     C16546   4.141   6.949   7.657 -0.1325  0.2125  0.5881
  864MOL0     C16547   4.213   6.953   7.798  0.4176 -1.3133 -0.4135
  864MOL0     C16548   4.171   6.828   7.870 -0.3911 -0.1372 -0.3747
  864MOL0    Cl16549   4.215   6.851   8.033 -0.0110 -0.1912  0.0030
  864MOL0     C16550   4.361   7.379   7.012  0.0953 -0.0915  0.6351
  864MOL0     C16551   4.420   7.418   6.894  0.1790 -1.7289  0.6603
  864MOL0     O16552   4.465   7.390   6.620 -0.5131 -0.9269  0.5857
  864MOL0     C16553   4.723   7.489   6.506 -0.0964  0.7542 -0.9809
  864MOL0     C16554   4.824   7.549   6.432 -0.3221 -1.0329  0.1063
  864MOL0     N16555   4.689   7.631   5.719  0.1585  0.7037 -0.6727
  864MOL0     N16556   4.694   7.514   5.669 -0.0271  0.3924  0.8541
  864MOL0     C16557   3.763   6.982   5.708 -0.1389  1.2370  0.7022
  864MOL0     C16558   3.647   7.043   5.721  0.2891  0.1827 -0.2607
  864MOL0     C16559   3.264   7.245   5.587  0.9893  0.0853 -0.4556
  864MOL0     C16560   3.186   7.290   5.478 -0.6784  0.5407 -0.1846
  864MOL0     C16561   3.085   7.387   5.492  0.4709 -0.0678 -0.5320
  864MOL0     C16562   3.052   7.425   5.617  0.7188 -1.5468 -0.6371
  864MOL0     O16563   2.938   7.493   5.653 -0.5059  0.1621  0.2520
  864MOL0     C16564   2.845   7.549   5.558  0.5151 -0.7937  0.0642
  864MOL0     C16565   2.870   7.696   5.574 -0.4506  0.0252 -0.0362
  864MOL0     C16566   2.757   7.771   5.502  0.0637  0.0242 -0.1738
  864MOL0     C16567   2.777   7.920   5.455 -0.5365 -0.1091  0.3683
  864MOL0     C16568   2.795   8.011   5.567 -1.0408 -0.7809  0.8385
  864MOL0     C16569   2.790   8.093   5.654  0.1465 -1.0515  0.2143
  864MOL0     C16570   3.129   7.385   5.722 -0.6057 -0.2258 -0.1330
  864MOL0     C16571   3.240   7.302   5.713  0.6286  0.4275  0.0885
  864MOL0     C16572   3.302   7.243   5.839  0.2291 -0.4156  0.5402
  864MOL0     H16573   3.647   7.203   5.417  3.0905 -1.3768 -2.1841
  864MOL0     H16574   3.848   7.066   5.393  0.7923 -0.5042  1.3133
  864MOL0     H16575   3.937   6.771   5.698 -0.3527 -2.0161 -0.5985
  864MOL0     H16576   4.053   6.752   5.572  0.3655  2.3684 -2.9806
  864MOL0     H16577   4.153   6.801   5.800 -0.5865  1.2694  1.0827
  864MOL0     H16578   4.091   6.968   5.786  2.3764  1.4886 -0.6664
  864MOL0     H16579   4.209   6.994   5.566 -0.7586  3.0962  2.6585
  864MOL0     H16580   4.302   6.845   5.611  1.0792  0.3858 -0.0431
  864MOL0     H16581   4.286   7.101   5.775  1.3370  0.1496  0.6323
  864MOL0     H16582   4.372   6.951   5.818  1.0119  0.6704 -0.1053
  864MOL0     H16583   4.541   6.970   5.677 -2.0182 -2.4826  1.9133
  864MOL0     H16584   4.433   7.051   5.550  2.7995 -2.7961 -0.6614
  864MOL0     H16585   4.462   7.259   5.626  0.3139 -0.8406 -0.7673
  864MOL0     H16586   4.523   7.214   5.788  3.7827 -1.5010  1.2107
  864MOL0     H16587   4.661   7.266   5.528 -1.7856 -1.4814 -0.5330
  864MOL0     H16588   4.708   7.125   5.606  0.7186  1.4112 -1.0126
  864MOL0     H16589   4.746   7.235   5.824 -1.4893  0.9677 -0.2312
  864MOL0     H16590   4.869   7.280   5.707  0.0350  1.7891 -1.0492
  864MOL0     H16591   4.833   7.448   5.951  0.1045 -0.1250  0.0015
  864MOL0     H16592   4.780   7.833   5.876 -1.7813  1.0745  0.1157
  864MOL0     H16593   4.638   7.781   5.961  0.5381 -1.1730  4.2383
  864MOL0     H16594   4.785   7.666   6.120 -1.1079 -1.9352 -4.7451
  864MOL0     H16595   4.923   7.720   6.034  0.1731 -2.1712  0.8945
  864MOL0     H16596   4.717   7.879   6.202 -0.3450 -2.3053 -2.2608
  864MOL0     H16597   4.835   7.967   6.102  1.1249 -0.2816 -1.3121
  864MOL0     H16598   4.906   7.930   6.360  0.1357  0.6439 -0.5427
  864MOL0     H16599   5.015   7.875   6.217  0.1289  1.6160 -0.4881
  864MOL0     H16600   4.721   7.875   6.435  5.0747  1.0148  2.8015
  864MOL0     H16601   4.537   7.762   6.576  1.0683  0.7259  1.2111
  864MOL0     H16602   4.246   7.716   6.863 -0.7567  1.0253  3.3720
  864MOL0     H16603   4.131   7.643   7.055 -1.3560  1.3217 -2.4318
  864MOL0     H16604   4.026   7.414   7.243 -1.1772 -1.2131 -1.4486
  864MOL0     H16605   4.046   7.349   7.086 -0.7919  2.9075  0.4598
  864MOL0     H16606   4.009   7.171   7.225 -0.0398 -0.0180  1.8050
  864MOL0     H16607   4.172   7.152   7.173  1.2332 -0.4383  0.9404
  864MOL0     H16608   4.253   7.238   7.383 -0.1492  0.3984 -3.7125
  864MOL0     H16609   4.088   7.292   7.443 -2.2660 -2.5990  1.8567
  864MOL0     H16610   4.177   7.003   7.408 -2.2042 -1.3736 -0.4594
  864MOL0     H16611   4.014   7.045   7.419  0.0256  0.5658 -1.7784
  864MOL0     H16612   4.042   7.136   7.648  2.1653  2.1433  1.7423
  864MOL0     H16613   4.216   7.145   7.613  2.0069 -1.2828 -2.3408
  864MOL0     H16614   4.044   6.899   7.649 -1.3407  2.3484  1.1588
  864MOL0     H16615   4.212   6.887   7.602  0.2855  1.5722 -0.4514
  864MOL0     H16616   4.165   7.041   7.842  2.4236 -0.4030  0.0558
  864MOL0     H16617   4.321   6.967   7.802  0.1015  2.1626 -0.9495
  864MOL0     H16618   4.061   6.826   7.864 -0.3443  0.4280 -2.0497
  864MOL0     H16619   4.212   6.744   7.814 -0.2858  0.6229 -1.4846
  864MOL0     H16620   4.391   7.285   7.058 -0.1978 -0.4958  0.0083
  864MOL0     H16621   4.505   7.365   6.852 -1.5882 -1.2999 -3.9860
  864MOL0     H16622   4.717   7.380   6.511  2.8089  0.5213 -1.0694
  864MOL0     H16623   4.902   7.492   6.382  2.6144  2.8366 -0.1724
  864MOL0     H16624   3.800   6.922   5.791 -1.4314 -1.4953 -0.5603
  864MOL0     H16625   3.609   7.047   5.823  3.3647 -0.2407  0.9999
  864MOL0     H16626   3.197   7.241   5.382 -0.2772 -1.8009  0.9982
  864MOL0     H16627   3.032   7.427   5.405 -0.3709 -0.4080 -0.1865
  864MOL0     H16628   2.741   7.524   5.582 -0.0727  1.1159 -0.3084
  864MOL0     H16629   2.862   7.512   5.456  4.3160 -1.6687  0.8533
  864MOL0     H16630   2.972   7.723   5.543 -0.4214  4.0390  2.7022
  864MOL0     H16631   2.871   7.716   5.682  1.6433  2.1834 -0.3464
  864MOL0     H16632   2.674   7.768   5.574 -1.6014 -0.0092 -2.0010
  864MOL0     H16633   2.719   7.711   5.419  1.3364 -1.8490  0.5371
  864MOL0     H16634   2.861   7.943   5.389 -0.6055  0.1615  0.3729
  864MOL0     H16635   2.692   7.955   5.395  0.2302  0.3275 -0.4838
  864MOL0     H16636   2.808   8.165   5.731  2.0377 -1.9778  0.6938
  864MOL0     H16637   3.120   7.429   5.821  0.9395  1.8621 -0.8323
  864MOL0     H16638   3.405   7.279   5.843  0.1359  0.1805 -1.5501
  864MOL0     H16639   3.239   7.265   5.927  0.1888  0.4370  0.3133
  864MOL0     H16640   3.293   7.135   5.834 -4.4206 -0.4624  3.3410
  865MOL0     O16641   1.573   6.578   6.104  0.4917  0.5176 -0.1295
  865MOL0     C16642   1.593   6.463   6.079 -0.5937 -0.1376 -0.4856
  865MOL0     O16643   1.705   6.386   6.106  0.1908 -0.6693  0.4844
  865MOL0     C16644   1.822   6.433   6.131  0.0846 -0.5936  0.3826
  865MOL0     C16645   1.854   6.570   6.118 -0.4096 -0.3462 -0.7407
  865MOL0     C16646   1.994   6.609   6.131  0.0926  0.7915 -1.1080
  865MOL0     C16647   2.090   6.513   6.158  1.7193 -0.9378 -0.1081
  865MOL0     O16648   2.221   6.545   6.165  0.6773 -0.7143  0.3639
  865MOL0     C16649   2.251   6.663   6.239 -0.6085  0.3049  1.1942
  865MOL0     C16650   2.207   6.674   6.380 -1.1201 -0.5972 -0.2218
  865MOL0     C16651   2.229   6.549   6.459  0.5554  0.2803  0.2644
  865MOL0     C16652   2.380   6.498   6.446  0.5125  0.3469  0.2449
  865MOL0     C16653   2.412   6.384   6.540  0.3326  0.4270 -1.2415
  865MOL0     C16654   2.344   6.255   6.503  0.4785  0.4027 -0.1772
  865MOL0     C16655   2.359   6.211   6.362  0.6520  0.5248  0.3069
  865MOL0     C16656   2.272   6.088   6.332  0.4378 -0.4089  0.2426
  865MOL0     N16657   2.291   6.042   6.203  0.1734  0.0756  1.2967
  865MOL0     C16658   2.288   5.908   6.161  1.1165 -0.1256  0.5660
  865MOL0     C16659   2.307   5.912   6.019  0.2229 -0.4069 -0.0907
  865MOL0     C16660   2.335   5.797   5.924  0.6231  0.4409 -0.3217
  865MOL0     C16661   2.435   5.836   5.818 -0.6917 -0.3141  0.2144
  865MOL0     C16662   2.482   5.707   5.736 -0.1064  0.4792  0.0468
  865MOL0     C16663   2.358   5.647   5.663  0.2097 -0.3521  0.2221
  865MOL0     O16664   2.406   5.579   5.545  0.2038 -0.0870 -0.2539
  865MOL0     C16665   2.411   5.443   5.580 -0.0251 -0.5163  0.2439
  865MOL0     C16666   2.309   5.365   5.538  0.1814 -1.1909  0.1264
  865MOL0     C16667   2.292   5.240   5.581  0.1192 -0.3505  0.2175
  865MOL0     C16668   2.395   5.181   5.667 -0.6446 -0.2018 -0.8269
  865MOL0     C16669   2.369   5.044   5.719 -1.0339 -0.0968 -1.2551
  865MOL0     O16670   2.283   4.961   5.641  0.3431  0.2115  0.1903
  865MOL0     C16671   2.272   4.829   5.686  0.2744 -0.5805 -0.3997
  865MOL0     C16672   2.249   4.787   5.824  0.6578  0.4181  0.1226
  865MOL0     C16673   2.236   4.649   5.858  0.8661  0.3918  0.8321
  865MOL0     C16674   2.257   4.552   5.756 -0.3037 -0.7467 -1.3588
  865MOL0     O16675   2.234   4.423   5.808  0.2210 -0.6679  0.2181
  865MOL0     C16676   2.197   4.322   5.715  0.6145 -0.1420 -0.4120
  865MOL0     C16677   2.176   4.198   5.798  0.7341  0.3568  1.0980
  865MOL0     C16678   2.070   4.115   5.729  0.2747  0.3856  0.3491
  865MOL0     C16679   1.936   4.151   5.777 -0.4989 -0.0259  0.2091
  865MOL0     C16680   1.832   4.125   5.678  0.3579 -0.1076 -0.6172
  865MOL0     C16681   1.812   4.241   5.575 -0.2508 -0.1151  0.5948
  865MOL0     C16682   1.739   4.372   5.629 -0.8944  1.2451 -0.8729
  865MOL0     C16683   1.831   4.489   5.678  0.4475 -0.1259 -0.6821
  865MOL0    Cl16684   1.899   4.584   5.543  0.4857 -0.2486  0.5586
  865MOL0     C16685   2.277   4.591   5.627 -0.4372  0.8165  1.0838
  865MOL0     C16686   2.294   4.724   5.591  0.1543 -0.9414 -0.4900
  865MOL0     O16687   2.424   5.018   5.823  0.2012 -0.1571  0.1963
  865MOL0     C16688   2.509   5.255   5.694  0.7495 -0.9276  0.6876
  865MOL0     C16689   2.510   5.388   5.657 -0.9168 -0.3514 -0.0315
  865MOL0     N16690   2.315   6.049   5.977  0.1661  0.2172 -0.8254
  865MOL0     N16691   2.292   6.116   6.084  0.5610 -0.4346  0.0030
  865MOL0     C16692   2.050   6.386   6.184 -0.5266 -0.3333 -0.7138
  865MOL0     C16693   1.922   6.337   6.168  0.2825  1.3921  0.8427
  865MOL0     C16694   1.468   6.385   6.052  0.2205 -0.5427 -0.1493
  865MOL0     C16695   1.350   6.417   6.126 -0.8706  0.3062 -0.8044
  865MOL0     C16696   1.242   6.344   6.112  0.8248  0.3191 -0.2339
  865MOL0     C16697   1.240   6.229   6.031 -0.4274  0.0471  0.3801
  865MOL0     O16698   1.120   6.160   6.024  0.6078  1.3686 -0.2525
  865MOL0     C16699   1.128   6.044   5.939  0.9416  0.0438 -0.2343
  865MOL0     C16700   0.993   5.980   5.907 -0.1749 -0.0953 -0.9249
  865MOL0     C16701   0.934   6.041   5.780 -0.4005  0.2020 -1.1431
  865MOL0     C16702   0.799   5.974   5.749  0.7462  0.1496 -0.2020
  865MOL0     C16703   0.689   5.995   5.846 -0.5129  0.7409 -0.9079
  865MOL0     C16704   0.612   5.986   5.943  0.7316 -0.3073  0.2273
  865MOL0     C16705   1.351   6.204   5.940  0.3572 -0.4289 -0.3872
  865MOL0     C16706   1.458   6.294   5.946  0.7197  0.0453 -0.3274
  865MOL0     C16707   1.569   6.261   5.843 -0.0999 -0.3932  0.7299
  865MOL0     H16708   1.794   6.657   6.093  1.7756  2.5448  3.0609
  865MOL0     H16709   2.023   6.712   6.119 -1.1335  1.6957  2.3888
  865MOL0     H16710   2.359   6.679   6.231 -0.6003 -0.5656 -2.3859
  865MOL0     H16711   2.210   6.747   6.182 -3.7570 -0.7217  1.7638
  865MOL0     H16712   2.101   6.697   6.391 -0.5863  1.3476  1.2997
  865MOL0     H16713   2.250   6.765   6.423 -1.3706 -0.2406 -0.7225
  865MOL0     H16714   2.156   6.472   6.433  0.8301  0.9710 -2.9313
  865MOL0     H16715   2.210   6.563   6.566 -3.4107  2.1910 -0.5265
  865MOL0     H16716   2.398   6.463   6.344  0.9235  1.7732 -0.2008
  865MOL0     H16717   2.458   6.574   6.459  0.3562  0.3946  0.9397
  865MOL0     H16718   2.519   6.361   6.533  0.3193 -0.3467  0.5265
  865MOL0     H16719   2.383   6.405   6.643  2.0210 -0.1574 -0.6072
  865MOL0     H16720   2.380   6.170   6.560 -0.1459  0.8716  0.9449
  865MOL0     H16721   2.240   6.278   6.529  1.0955  2.5569  0.5917
  865MOL0     H16722   2.466   6.189   6.354  0.8666  1.2114  1.1662
  865MOL0     H16723   2.327   6.289   6.293 -0.1784 -0.3297 -0.3036
  865MOL0     H16724   2.296   6.002   6.395  0.8728  0.8489  1.8415
  865MOL0     H16725   2.164   6.100   6.345  0.1290 -1.8978 -0.6712
  865MOL0     H16726   2.291   5.817   6.220 -1.0591 -1.1194 -0.7166
  865MOL0     H16727   2.361   5.710   5.985 -0.7649 -0.3024 -0.7298
  865MOL0     H16728   2.248   5.760   5.869 -0.6531 -0.7975  2.3308
  865MOL0     H16729   2.388   5.919   5.765  2.8691  2.6796  1.3879
  865MOL0     H16730   2.530   5.877   5.851 -0.5238 -0.7941  0.3354
  865MOL0     H16731   2.514   5.636   5.812 -0.2684  0.8619  0.4755
  865MOL0     H16732   2.562   5.730   5.665  0.1031 -4.3748 -1.7144
  865MOL0     H16733   2.292   5.727   5.628  1.0580  0.0123 -0.5885
  865MOL0     H16734   2.303   5.585   5.734  0.2254 -0.8071 -0.1618
  865MOL0     H16735   2.232   5.395   5.468  0.7061  0.2370  0.1212
  865MOL0     H16736   2.197   5.194   5.560 -1.2720  1.9509  1.0091
  865MOL0     H16737   2.238   4.861   5.903 -1.2515  2.0789 -1.5706
  865MOL0     H16738   2.215   4.615   5.959 -2.2879 -1.7306 -0.3610
  865MOL0     H16739   2.120   4.369   5.653  2.2245  2.9486 -0.2469
  865MOL0     H16740   2.282   4.307   5.649  0.3250 -1.7013 -0.4735
  865MOL0     H16741   2.273   4.149   5.787  0.2228 -0.1776 -2.7084
  865MOL0     H16742   2.153   4.211   5.904 -1.5823 -1.4572  0.8905
  865MOL0     H16743   2.080   4.128   5.621 -1.7070  2.3942  0.3280
  865MOL0     H16744   2.089   4.008   5.741  2.9917  0.7389 -0.3191
  865MOL0     H16745   1.940   4.256   5.809 -0.0572  0.6645 -1.9628
  865MOL0     H16746   1.907   4.088   5.861 -1.3751  1.5543  1.1362
  865MOL0     H16747   1.739   4.113   5.734  1.5207  4.4394  2.8231
  865MOL0     H16748   1.854   4.027   5.633  2.4003 -0.3361  0.7506
  865MOL0     H16749   1.908   4.267   5.529 -0.7383 -0.6291 -0.7638
  865MOL0     H16750   1.756   4.197   5.492 -0.5081 -1.7885  1.6103
  865MOL0     H16751   1.671   4.332   5.704  2.3369 -2.0332  0.6195
  865MOL0     H16752   1.687   4.421   5.545 -0.5305  0.7584 -1.3877
  865MOL0     H16753   1.767   4.552   5.742 -3.4396 -1.2780 -3.0538
  865MOL0     H16754   1.918   4.453   5.733 -2.2953  1.3722  5.4715
  865MOL0     H16755   2.287   4.510   5.555 -0.7699  0.0816  1.8507
  865MOL0     H16756   2.312   4.762   5.491 -0.7321  2.1861  0.4051
  865MOL0     H16757   2.581   5.208   5.760 -0.4279 -1.8645  1.3278
  865MOL0     H16758   2.589   5.438   5.711 -0.4055 -0.8646 -0.2925
  865MOL0     H16759   2.119   6.309   6.216 -2.5566 -1.2567  1.8008
  865MOL0     H16760   1.904   6.232   6.187  1.6430  1.0956  0.5830
  865MOL0     H16761   1.345   6.502   6.194 -0.0552  1.0857 -1.6794
  865MOL0     H16762   1.152   6.371   6.166  0.6242 -1.4576  0.3842
  865MOL0     H16763   1.196   5.973   5.987  0.8854 -0.1003 -0.3659
  865MOL0     H16764   1.165   6.060   5.838  3.5709 -3.9314 -0.1276
  865MOL0     H16765   0.932   5.994   5.996  1.2227  1.5261 -0.1620
  865MOL0     H16766   0.999   5.872   5.890  1.3635 -0.0951 -0.5140
  865MOL0     H16767   1.006   6.023   5.700 -0.5266 -0.3280 -1.1389
  865MOL0     H16768   0.911   6.146   5.802  0.8526 -0.1428  2.4854
  865MOL0     H16769   0.769   6.005   5.649  1.2348  2.2069  0.2557
  865MOL0     H16770   0.805   5.866   5.733 -2.8708  0.1192 -2.7470
  865MOL0     H16771   0.551   5.998   6.031 -2.7256 -1.6801 -1.7954
  865MOL0     H16772   1.352   6.139   5.853  1.3525  1.0631 -1.5307
  865MOL0     H16773   1.629   6.184   5.894 -0.3366 -0.7318  0.4998
  865MOL0     H16774   1.521   6.227   5.751 -1.8659  1.8310  0.7563
  865MOL0     H16775   1.628   6.353   5.833  2.1283 -1.6708  1.2204
  866MOL0     O16776   5.335   0.148  11.237 -0.0876  0.8782  0.1169
  866MOL0     C16777   5.301   0.246  11.304 -0.5889  0.3076  0.7472
  866MOL0     O16778   5.380   0.325  11.389 -0.3139 -0.6235 -0.3235
  866MOL0     C16779   5.512   0.326  11.369  0.4963 -0.6991  0.4033
  866MOL0     C16780   5.595   0.323  11.479  0.5164  0.3583 -0.0959
  866MOL0     C16781   5.727   0.344  11.479 -0.5854  0.4506 -0.4114
  866MOL0     C16782   5.795   0.350  11.354  0.1736 -0.5227 -0.3111
  866MOL0     O16783   5.933   0.354  11.349 -0.5889 -0.4000 -0.7390
  866MOL0     C16784   6.008   0.427  11.250  0.7692  0.3070  0.7324
  866MOL0     C16785   6.081   0.334  11.150  0.4172  0.1850  0.7768
  866MOL0     C16786   6.085   0.374  11.002  0.8200  0.0541  0.6382
  866MOL0     C16787   6.224   0.350  10.947  0.1517  0.0166 -0.7062
  866MOL0     C16788   6.226   0.399  10.798 -0.9531  0.0502  0.5988
  866MOL0     C16789   6.350   0.336  10.729  0.0461 -0.1243 -0.0850
  866MOL0     C16790   6.356   0.356  10.579 -0.1001  0.0484 -0.0583
  866MOL0     C16791   6.492   0.303  10.521 -0.1618  0.2571  0.4677
  866MOL0     N16792   6.494   0.164  10.494 -0.4525  0.0780  0.0478
  866MOL0     C16793   6.549   0.059  10.566 -0.5963 -0.1823 -0.0663
  866MOL0     C16794   6.500  -0.049  10.499 -1.0986 -0.4937 -0.7767
  866MOL0     C16795   6.514  -0.191  10.526 -0.6491  0.0115 -0.3640
  866MOL0     C16796   6.413  -0.228  10.640  0.6150 -0.0200 -1.4966
  866MOL0     C16797   6.379  -0.371  10.661 -0.2657 -0.1828  1.2065
  866MOL0     C16798   6.273  -0.390  10.769  0.7210  0.6176 -0.2596
  866MOL0     O16799   6.266  -0.527  10.821 -0.6055  0.5625 -0.7761
  866MOL0     C16800   6.219  -0.630  10.735  0.0839  0.0813 -0.3672
  866MOL0     C16801   6.303  -0.736  10.683 -0.1153  0.2459 -0.0433
  866MOL0     C16802   6.253  -0.821  10.589 -0.1486 -0.2370 -0.1464
  866MOL0     C16803   6.122  -0.810  10.535 -0.3806 -0.8915 -0.0871
  866MOL0     C16804   6.084  -0.874  10.411  0.5021  0.2776 -0.2324
  866MOL0     O16805   5.949  -0.891  10.381  0.3175  0.9291  0.1605
  866MOL0     C16806   5.930  -0.965  10.265  0.8924 -0.3766  0.6697
  866MOL0     C16807   5.948  -1.103  10.268 -0.9326  0.7265 -0.4296
  866MOL0     C16808   5.924  -1.190  10.157 -0.2287 -1.7368  0.2785
  866MOL0     C16809   5.886  -1.133  10.037  0.0455  0.0581  0.3450
  866MOL0     O16810   5.864  -1.224   9.930 -0.5268 -0.3507  0.4858
  866MOL0     C16811   5.748  -1.206   9.847 -1.1246 -0.2387 -0.0974
  866MOL0     C16812   5.624  -1.199   9.928 -0.6302  0.3259  1.0235
  866MOL0     C16813   5.599  -1.297  10.040 -0.6201  0.0182 -0.4123
  866MOL0     C16814   5.522  -1.233  10.152 -0.1123  0.1369  1.7908
  866MOL0     C16815   5.511  -1.338  10.262  0.3721 -0.0543  0.4391
  866MOL0     C16816   5.404  -1.308  10.372  1.2145  0.6188  0.7487
  866MOL0     C16817   5.426  -1.184  10.444 -1.2146  0.3648 -0.0033
  866MOL0     C16818   5.545  -1.192  10.534 -0.2474 -0.3168  0.1688
  866MOL0    Cl16819   5.548  -1.045  10.632 -0.7856  0.5921 -0.4183
  866MOL0     C16820   5.868  -0.994  10.020 -0.2702 -0.9912  0.6140
  866MOL0     C16821   5.895  -0.913  10.136 -0.8259 -0.4978 -0.1280
  866MOL0     O16822   6.178  -0.912  10.349  0.4350  0.8379  1.5211
  866MOL0     C16823   6.041  -0.706  10.583  0.6624  0.2303  0.5881
  866MOL0     C16824   6.094  -0.610  10.676 -0.8931  0.5876  0.2150
  866MOL0     N16825   6.423  -0.016  10.393 -0.4811 -0.0656  0.0769
  866MOL0     N16826   6.419   0.115  10.395  0.1587 -0.1816 -0.2388
  866MOL0     C16827   5.715   0.351  11.238  1.0492  1.3019  0.3278
  866MOL0     C16828   5.579   0.323  11.243 -1.6648 -0.5895  0.3569
  866MOL0     C16829   5.166   0.317  11.279 -0.8974 -0.2499 -0.1045
  866MOL0     C16830   5.165   0.456  11.267  1.1171  0.5354  0.2045
  866MOL0     C16831   5.044   0.516  11.247  0.2324 -0.3107  0.1362
  866MOL0     C16832   4.922   0.448  11.246 -0.0376  0.4254  0.5174
  866MOL0     O16833   4.799   0.514  11.221 -0.2819  0.0135  0.2162
  866MOL0     C16834   4.794   0.651  11.182  0.7831 -0.3481  0.6061
  866MOL0     C16835   4.657   0.672  11.119  0.4551 -0.3104 -0.2228
  866MOL0     C16836   4.621   0.604  10.979  0.1974 -0.1382 -0.5958
  866MOL0     C16837   4.597   0.449  10.995  0.4866  0.4104  0.2865
  866MOL0     C16838   4.522   0.407  11.117  0.1618  0.1650  0.3485
  866MOL0     C16839   4.462   0.365  11.218 -0.1388 -0.5623  0.3199
  866MOL0     C16840   4.920   0.313  11.258  0.5460 -0.3169 -0.1068
  866MOL0     C16841   5.045   0.248  11.275 -0.1188 -0.7021  0.0326
  866MOL0     C16842   5.052   0.098  11.294  0.1408  0.4915 -0.4039
  866MOL0     H16843   5.532   0.302  11.566 -2.3360 -0.5272 -2.2209
  866MOL0     H16844   5.786   0.332  11.569 -2.6065 -2.4861  0.6517
  866MOL0     H16845   5.946   0.498  11.194  0.3781 -0.4704  0.1566
  866MOL0     H16846   6.083   0.492  11.294  1.0416  1.9447 -1.8939
  866MOL0     H16847   6.040   0.233  11.159  2.1672 -0.5330  1.1167
  866MOL0     H16848   6.182   0.325  11.191 -0.0005 -1.9552  1.4575
  866MOL0     H16849   6.058   0.480  10.995 -1.3580 -0.5584 -2.1405
  866MOL0     H16850   6.005   0.316  10.954  1.0229 -1.0878  1.6480
  866MOL0     H16851   6.282   0.417  11.011 -1.1494 -0.7103  1.3241
  866MOL0     H16852   6.240   0.243  10.958  0.3903  0.3351  3.2588
  866MOL0     H16853   6.135   0.354  10.756 -0.9517 -1.2609  1.8980
  866MOL0     H16854   6.215   0.507  10.791 -2.8797 -0.0449  1.5978
  866MOL0     H16855   6.438   0.366  10.785  0.6751 -0.6417 -0.7793
  866MOL0     H16856   6.346   0.228  10.742 -1.1048 -0.1053 -0.1722
  866MOL0     H16857   6.341   0.463  10.557 -2.5223 -0.4410 -1.0719
  866MOL0     H16858   6.261   0.321  10.539 -2.4563  3.3405  2.1106
  866MOL0     H16859   6.517   0.352  10.427  1.4373  0.1383  0.8147
  866MOL0     H16860   6.569   0.333  10.593 -1.0168  3.2819  0.2747
  866MOL0     H16861   6.596   0.057  10.663  0.8640  0.0853 -0.7429
  866MOL0     H16862   6.474  -0.245  10.440  0.2228 -0.4195 -0.5115
  866MOL0     H16863   6.613  -0.228  10.555 -0.9865 -1.7753 -1.3104
  866MOL0     H16864   6.448  -0.191  10.737  2.4884  0.0072 -2.1503
  866MOL0     H16865   6.315  -0.189  10.612 -0.7049 -2.5077 -0.6148
  866MOL0     H16866   6.467  -0.431  10.686  1.1585  2.2244  2.4137
  866MOL0     H16867   6.352  -0.425  10.570 -0.6157  0.7911  0.7156
  866MOL0     H16868   6.174  -0.357  10.737 -0.2288  1.0808  2.8073
  866MOL0     H16869   6.298  -0.327  10.856  3.5667  1.2169 -1.4154
  866MOL0     H16870   6.407  -0.747  10.710  0.1998  1.6833 -0.5865
  866MOL0     H16871   6.323  -0.894  10.551 -0.5980 -0.7067 -0.0775
  866MOL0     H16872   5.961  -1.159  10.360 -1.7685  0.6064 -0.3721
  866MOL0     H16873   5.935  -1.298  10.166 -1.0681 -2.0036 -1.4034
  866MOL0     H16874   5.764  -1.106   9.807  1.0150  0.0448  1.2655
  866MOL0     H16875   5.758  -1.278   9.766  0.9424  0.9527 -0.9965
  866MOL0     H16876   5.635  -1.096   9.963  4.4387  0.1070  0.8259
  866MOL0     H16877   5.540  -1.204   9.858 -0.3280 -0.6896  0.7163
  866MOL0     H16878   5.554  -1.386   9.993  1.5673 -0.9126 -0.8618
  866MOL0     H16879   5.687  -1.333  10.093  0.2429  1.3342 -0.8970
  866MOL0     H16880   5.431  -1.203  10.100  1.7207  0.3964 -1.5120
  866MOL0     H16881   5.572  -1.148  10.201  2.0015 -0.6225  1.0445
  866MOL0     H16882   5.608  -1.343  10.314 -0.0342 -1.1266  1.1163
  866MOL0     H16883   5.488  -1.441  10.234 -2.0498  0.2859  0.9825
  866MOL0     H16884   5.312  -1.303  10.312  0.5804 -1.6900  1.4093
  866MOL0     H16885   5.395  -1.396  10.436  1.6532 -0.1791 -0.2495
  866MOL0     H16886   5.337  -1.170  10.506 -1.9308 -0.8892 -0.6920
  866MOL0     H16887   5.434  -1.102  10.371  0.1499  0.5825  0.3784
  866MOL0     H16888   5.528  -1.284  10.592 -2.1256 -1.6188 -2.2823
  866MOL0     H16889   5.635  -1.211  10.475 -1.2649 -0.9502 -1.2162
  866MOL0     H16890   5.842  -0.965   9.919 -2.1691 -0.7045  1.1485
  866MOL0     H16891   5.880  -0.806  10.130 -1.3942 -0.5497  0.2540
  866MOL0     H16892   5.942  -0.693  10.541  0.0994 -2.7224  0.7732
  866MOL0     H16893   6.024  -0.537  10.717  1.3297  2.4503  0.8934
  866MOL0     H16894   5.762   0.369  11.142 -0.2410 -0.7950 -0.7841
  866MOL0     H16895   5.520   0.337  11.152 -1.0693  0.6004  0.1423
  866MOL0     H16896   5.252   0.520  11.259 -0.0418  2.2933  1.0334
  866MOL0     H16897   5.037   0.624  11.237  1.3907 -0.3172 -0.9803
  866MOL0     H16898   4.878   0.677  11.116  1.5272  0.5037  1.8445
  866MOL0     H16899   4.808   0.725  11.262  0.2793 -1.2292  1.5359
  866MOL0     H16900   4.665   0.779  11.099  0.3658 -0.2971 -0.1917
  866MOL0     H16901   4.571   0.664  11.186 -0.8505 -0.2862 -1.8391
  866MOL0     H16902   4.700   0.603  10.904  0.4720 -1.3165 -0.3214
  866MOL0     H16903   4.538   0.660  10.935  1.7528  3.3795  0.5458
  866MOL0     H16904   4.542   0.419  10.905 -1.7907  0.2698  1.6495
  866MOL0     H16905   4.693   0.397  11.005 -1.3404 -2.7674  4.3563
  866MOL0     H16906   4.409   0.326  11.302  0.0638 -1.4494  0.0456
  866MOL0     H16907   4.830   0.253  11.256 -0.5908  1.3636 -1.2445
  866MOL0     H16908   4.948   0.065  11.301 -0.2106  1.3104 -1.3764
  866MOL0     H16909   5.108   0.048  11.215  1.4838 -1.2699  1.5632
  866MOL0     H16910   5.104   0.074  11.387  0.2864 -1.2902 -0.9152
  867MOL0     O16911  10.601  10.511   3.947 -0.2489 -0.3433 -0.1078
  867MOL0     C16912  10.602  10.388   3.953 -0.0318 -0.3631  0.4925
  867MOL0     O16913  10.590  10.309   3.844  0.6724 -0.4571  0.0813
  867MOL0     C16914  10.597  10.353   3.713 -0.3171  1.1646 -0.1217
  867MOL0     C16915  10.493  10.352   3.627 -0.8977 -0.4818  0.9818
  867MOL0     C16916  10.520  10.382   3.490  0.4886  0.1759 -0.1779
  867MOL0     C16917  10.644  10.410   3.440 -0.1718 -0.2369 -0.3578
  867MOL0     O16918  10.689  10.450   3.315  0.0482  0.4118  0.7811
  867MOL0     C16919  10.595  10.542   3.260 -0.4884 -0.9230 -0.6891
  867MOL0     C16920  10.674  10.647   3.168 -0.2042  0.4102  0.0402
  867MOL0     C16921  10.776  10.728   3.249  0.0853  0.3101  0.8913
  867MOL0     C16922  10.792  10.861   3.174  0.1714  0.1804 -0.6538
  867MOL0     C16923  10.905  10.952   3.230 -0.3124 -0.5436 -0.4748
  867MOL0     C16924  10.926  11.080   3.137  0.0848  0.0613 -0.5134
  867MOL0     C16925  10.815  11.184   3.136 -0.0641  0.0967  0.9373
  867MOL0     C16926  10.787  11.262   3.263 -0.3315 -0.5578 -1.1339
  867MOL0     N16927  10.907  11.347   3.284  0.3196  0.4550  0.6799
  867MOL0     C16928  11.022  11.323   3.360 -0.5453 -0.8525  0.0237
  867MOL0     C16929  11.095  11.433   3.353 -0.0564 -0.0459 -0.9158
  867MOL0     C16930  11.225  11.469   3.421 -0.0245 -0.1080  1.0432
  867MOL0     C16931  11.206  11.505   3.570 -0.6684  0.5334 -0.8618
  867MOL0     C16932  11.234  11.660   3.579  0.2239 -1.0642 -0.5831
  867MOL0     C16933  11.255  11.721   3.713  0.7694 -0.4150 -0.1076
  867MOL0     O16934  11.134  11.712   3.781 -0.7456 -0.3538 -0.7634
  867MOL0     C16935  11.119  11.692   3.914  0.3450 -0.4761  0.3783
  867MOL0     C16936  11.217  11.683   4.007 -0.2934 -0.8178  0.6643
  867MOL0     C16937  11.191  11.652   4.136  0.8697 -0.3135 -0.3998
  867MOL0     C16938  11.057  11.625   4.181 -0.6520 -0.2347  0.7341
  867MOL0     C16939  11.028  11.580   4.311  0.2281  0.2046 -1.2796
  867MOL0     O16940  10.913  11.636   4.359  0.8015  0.5042  0.1939
  867MOL0     C16941  10.881  11.615   4.489  0.3276  0.4712  0.0418
  867MOL0     C16942  10.879  11.493   4.553 -0.3404  0.2368  0.7479
  867MOL0     C16943  10.857  11.480   4.687 -0.9596  0.4007 -0.3181
  867MOL0     C16944  10.836  11.599   4.770  0.4096  0.1444 -0.8067
  867MOL0     O16945  10.810  11.578   4.905 -0.0613  1.1545 -0.4565
  867MOL0     C16946  10.776  11.684   5.003 -0.2049  1.0803 -0.1995
  867MOL0     C16947  10.725  11.648   5.138  0.9831  0.0878 -1.3831
  867MOL0     C16948  10.710  11.770   5.224  1.1013  0.0634 -0.4907
  867MOL0     C16949  10.706  11.730   5.375 -0.5770  0.1209  0.3750
  867MOL0     C16950  10.702  11.856   5.459 -0.7507 -0.0424 -1.0754
  867MOL0     C16951  10.692  11.823   5.608 -0.6351  0.4823 -0.3616
  867MOL0     C16952  10.669  11.951   5.684 -0.2301  0.3433  0.0357
  867MOL0     C16953  10.522  12.006   5.675 -0.8712 -0.9911  0.2895
  867MOL0    Cl16954  10.407  11.882   5.746  0.2503  0.1993 -0.3699
  867MOL0     C16955  10.842  11.725   4.707  0.2419 -0.4687  0.3876
  867MOL0     C16956  10.858  11.730   4.567  0.1440 -0.0631  0.8201
  867MOL0     O16957  11.101  11.499   4.378  0.0992 -0.4070 -0.6964
  867MOL0     C16958  10.961  11.650   4.082  0.2684 -1.2429 -0.1770
  867MOL0     C16959  10.988  11.693   3.955  0.0482  0.1512  0.2861
  867MOL0     N16960  11.037  11.526   3.272 -0.1054  0.4794  0.0771
  867MOL0     N16961  10.925  11.475   3.236 -0.0452 -0.4997 -0.3930
  867MOL0     C16962  10.747  10.405   3.540 -0.2763 -0.1210 -0.1789
  867MOL0     C16963  10.727  10.386   3.674 -0.1233  1.4116 -0.8910
  867MOL0     C16964  10.585  10.333   4.093  0.3958 -0.7956 -1.2276
  867MOL0     C16965  10.616  10.426   4.196 -0.1348  0.1079  0.7664
  867MOL0     C16966  10.579  10.408   4.329  0.0251 -0.5740 -0.0797
  867MOL0     C16967  10.496  10.299   4.358 -0.3249  0.6460 -0.0053
  867MOL0     O16968  10.455  10.301   4.488 -0.1141  0.3240  0.2180
  867MOL0     C16969  10.340  10.219   4.519  0.2120 -0.0386 -0.1669
  867MOL0     C16970  10.245  10.292   4.624 -0.1133 -0.5799 -0.1567
  867MOL0     C16971  10.269  10.267   4.778  0.9463  0.3515 -0.4936
  867MOL0     C16972  10.181  10.142   4.813  0.7792  0.4160 -0.7696
  867MOL0     C16973  10.165  10.134   4.966 -0.4019 -0.3333  0.6753
  867MOL0     C16974  10.139  10.146   5.085 -0.4708 -0.7905 -0.5975
  867MOL0     C16975  10.464  10.199   4.257 -1.1337  0.1492  0.2648
  867MOL0     C16976  10.524  10.208   4.130  1.0362 -0.1575  1.2465
  867MOL0     C16977  10.485  10.098   4.033 -0.8099  0.1526 -1.1460
  867MOL0     H16978  10.392  10.327   3.657 -1.1177 -1.0499 -0.2021
  867MOL0     H16979  10.439  10.394   3.418  0.8254 -0.7453 -0.7273
  867MOL0     H16980  10.510  10.501   3.206 -1.1008  0.1118 -0.5538
  867MOL0     H16981  10.542  10.593   3.341  0.5452 -1.5183  0.3935
  867MOL0     H16982  10.597  10.706   3.116 -1.5342 -1.6896 -0.4867
  867MOL0     H16983  10.726  10.594   3.087  1.9792  1.1332  0.8985
  867MOL0     H16984  10.865  10.666   3.265  0.6316  1.6602  3.8385
  867MOL0     H16985  10.741  10.743   3.351 -0.7580  1.4964  0.4588
  867MOL0     H16986  10.828  10.850   3.072  0.6234  0.9744 -0.5884
  867MOL0     H16987  10.698  10.918   3.179  1.8750  3.1282  1.0283
  867MOL0     H16988  10.883  10.993   3.329  0.9245  4.0091 -1.8516
  867MOL0     H16989  10.995  10.890   3.241  2.3727  3.1566  0.4742
  867MOL0     H16990  11.017  11.128   3.174  1.2903 -1.1465 -1.7593
  867MOL0     H16991  10.941  11.041   3.035  2.5978 -0.2302 -0.0931
  867MOL0     H16992  10.724  11.130   3.106  0.1238  0.9295 -1.3769
  867MOL0     H16993  10.833  11.251   3.051 -2.3530 -0.3699 -0.0015
  867MOL0     H16994  10.698  11.324   3.249  2.0031  2.7118 -3.1437
  867MOL0     H16995  10.777  11.192   3.346 -0.5855 -2.4008 -2.6579
  867MOL0     H16996  11.042  11.230   3.413  1.2604  1.0571  3.0041
  867MOL0     H16997  11.289  11.381   3.405  1.4782  1.5396 -3.2201
  867MOL0     H16998  11.273  11.551   3.368  0.6657  1.0535  3.3313
  867MOL0     H16999  11.106  11.481   3.607  1.0920 -0.3806  4.0210
  867MOL0     H17000  11.279  11.456   3.634 -1.3053  1.2231  0.4266
  867MOL0     H17001  11.160  11.714   3.519 -1.8687 -3.1594 -0.0146
  867MOL0     H17002  11.331  11.671   3.530 -0.7426  0.1818 -2.3221
  867MOL0     H17003  11.268  11.827   3.690 -3.3050  0.7789  2.0961
  867MOL0     H17004  11.345  11.688   3.766 -0.3485 -0.5610  1.7786
  867MOL0     H17005  11.318  11.716   3.984 -0.0776 -1.1651  1.1115
  867MOL0     H17006  11.270  11.664   4.210  2.3350 -1.1266 -1.7812
  867MOL0     H17007  10.887  11.397   4.503 -3.6045  0.0814  0.3153
  867MOL0     H17008  10.842  11.386   4.739 -0.6983 -1.4760 -3.3870
  867MOL0     H17009  10.868  11.743   5.009  0.7850 -0.2709 -1.4809
  867MOL0     H17010  10.704  11.745   4.948 -0.6130  0.6017 -0.2010
  867MOL0     H17011  10.628  11.598   5.139  0.4470  1.1076 -0.4508
  867MOL0     H17012  10.790  11.580   5.192 -1.9576 -1.4903  0.4388
  867MOL0     H17013  10.794  11.840   5.221 -1.4755  3.3997 -0.0895
  867MOL0     H17014  10.616  11.813   5.189  0.2264 -1.9490 -0.7453
  867MOL0     H17015  10.795  11.679   5.412  0.3783  2.5861  1.7426
  867MOL0     H17016  10.613  11.675   5.393  0.1279 -1.9442 -1.8170
  867MOL0     H17017  10.613  11.909   5.425  1.7686  3.8118 -2.3790
  867MOL0     H17018  10.789  11.919   5.437 -1.5355  0.7811 -1.8964
  867MOL0     H17019  10.621  11.741   5.625  1.9728 -1.9990 -0.5928
  867MOL0     H17020  10.789  11.783   5.638 -1.2340  0.6614  2.0114
  867MOL0     H17021  10.722  12.030   5.631  0.3229 -0.5934 -0.8273
  867MOL0     H17022  10.707  11.943   5.786 -0.3910  1.0303  0.1563
  867MOL0     H17023  10.515  12.101   5.731  1.4408  0.5443 -1.8177
  867MOL0     H17024  10.490  12.034   5.575 -5.9121 -3.2699  0.9647
  867MOL0     H17025  10.852  11.812   4.772  0.3471 -0.1749 -0.0236
  867MOL0     H17026  10.864  11.828   4.521 -0.3545  0.0080  0.8970
  867MOL0     H17027  10.858  11.640   4.116  1.7222 -2.2857  4.7143
  867MOL0     H17028  10.903  11.709   3.888 -0.6103  1.6434  1.4277
  867MOL0     H17029  10.849  10.428   3.510  0.8012  0.1548  3.1949
  867MOL0     H17030  10.802  10.404   3.750 -1.3406  1.2588  0.4048
  867MOL0     H17031  10.683  10.508   4.169 -1.3189  0.4385 -1.3949
  867MOL0     H17032  10.611  10.472   4.411  0.2231  0.0852 -0.6610
  867MOL0     H17033  10.371  10.120   4.553 -2.2681  0.1702  3.1621
  867MOL0     H17034  10.274  10.205   4.432 -2.5720  1.8862  1.4662
  867MOL0     H17035  10.145  10.263   4.588 -0.4671  2.1662 -1.6342
  867MOL0     H17036  10.244  10.400   4.610 -0.7384  0.5425  5.9761
  867MOL0     H17037  10.234  10.346   4.846  1.1419  0.5126 -0.5781
  867MOL0     H17038  10.376  10.250   4.788  0.6632 -1.0720  0.4882
  867MOL0     H17039  10.077  10.154   4.778 -0.5340 -0.1793  2.5680
  867MOL0     H17040  10.216  10.048   4.770 -3.0076 -2.3232  1.4931
  867MOL0     H17041  10.106  10.167   5.185 -2.2268 -1.2408 -1.0468
  867MOL0     H17042  10.428  10.109   4.305  1.9787  0.3213  3.3246
  867MOL0     H17043  10.537  10.100   3.937  1.1362 -1.8444 -0.2307
  867MOL0     H17044  10.506   9.997   4.069 -2.8154  0.5055  1.3155
  867MOL0     H17045  10.377  10.117   4.025 -1.0515 -0.8265 -0.4701
  868MOL0     O17046   8.145   5.998   3.848  0.0773 -0.7532 -0.5738
  868MOL0     C17047   8.146   6.013   3.968 -1.3186 -0.4688 -0.8108
  868MOL0     O17048   8.091   6.118   4.034  0.0346 -0.4326  0.7501
  868MOL0     C17049   8.090   6.239   3.965  0.3198 -0.1749  0.1049
  868MOL0     C17050   8.182   6.331   4.013 -0.2406  0.2788  0.7096
  868MOL0     C17051   8.185   6.456   3.959 -0.6797 -0.8562  0.2411
  868MOL0     C17052   8.095   6.487   3.849  0.2536 -0.8776 -0.4167
  868MOL0     O17053   8.072   6.609   3.802  0.1954 -0.1974 -0.0281
  868MOL0     C17054   8.178   6.665   3.713  0.1416 -0.5295 -0.4503
  868MOL0     C17055   8.112   6.722   3.594 -0.7818 -0.7242  0.2145
  868MOL0     C17056   8.214   6.785   3.495 -0.4370 -0.6662 -0.4291
  868MOL0     C17057   8.237   6.677   3.387 -0.3551  0.0574  0.0322
  868MOL0     C17058   8.369   6.690   3.306 -0.2300  0.0403 -0.8975
  868MOL0     C17059   8.375   6.581   3.190 -0.0436 -0.0028  0.8513
  868MOL0     C17060   8.516   6.535   3.161  0.7409  0.1508 -0.2655
  868MOL0     C17061   8.528   6.400   3.085  0.1218  1.4049 -0.7005
  868MOL0     N17062   8.669   6.376   3.057  0.0072 -0.4675  0.4979
  868MOL0     C17063   8.720   6.338   2.932  0.8397 -0.3070  0.8539
  868MOL0     C17064   8.846   6.316   2.963  0.0917  0.4610  0.1219
  868MOL0     C17065   8.946   6.259   2.863 -0.2331  0.3768  0.4737
  868MOL0     C17066   8.998   6.370   2.776 -0.3202 -0.3898 -1.4201
  868MOL0     C17067   9.074   6.486   2.853  0.5591  0.1762  0.3455
  868MOL0     C17068   9.206   6.431   2.914 -0.2729 -0.7082 -0.0154
  868MOL0     O17069   9.277   6.388   2.796  0.1128  0.1999 -0.3444
  868MOL0     C17070   9.351   6.277   2.822  0.3903  0.4983  0.0607
  868MOL0     C17071   9.320   6.141   2.822  0.7394 -0.0002  0.8701
  868MOL0     C17072   9.407   6.047   2.858 -1.1873  0.3185 -0.1103
  868MOL0     C17073   9.538   6.077   2.890 -0.6122  0.1517 -0.3642
  868MOL0     C17074   9.637   5.978   2.911 -0.2714  0.8929  0.9753
  868MOL0     O17075   9.716   5.999   3.014 -0.0772 -0.4699  1.1534
  868MOL0     C17076   9.812   5.902   3.036 -0.0966 -0.5542  0.1872
  868MOL0     C17077   9.787   5.773   3.088 -0.1298 -0.5507 -0.4104
  868MOL0     C17078   9.893   5.681   3.089 -0.6673 -0.2351  0.1203
  868MOL0     C17079  10.021   5.719   3.041  0.1412  0.0834 -0.2539
  868MOL0     O17080  10.134   5.635   3.032  0.4529 -0.2939 -0.1037
  868MOL0     C17081  10.169   5.560   3.139 -0.0640 -0.3556 -1.0014
  868MOL0     C17082  10.319   5.578   3.159 -0.6173  0.6647 -0.3516
  868MOL0     C17083  10.358   5.707   3.243 -0.9466 -0.1102  0.5928
  868MOL0     C17084  10.336   5.691   3.394  0.6725  0.9289  0.5424
  868MOL0     C17085  10.391   5.792   3.482  0.2332  0.3752  0.4859
  868MOL0     C17086  10.328   5.929   3.473 -0.1493 -1.1992 -0.8519
  868MOL0     C17087  10.334   5.996   3.612 -0.1111  0.0441 -0.1326
  868MOL0     C17088  10.270   6.136   3.620  0.2815 -0.3871  0.1595
  868MOL0    Cl17089  10.270   6.189   3.780 -0.4908  0.2819  0.2702
  868MOL0     C17090  10.037   5.856   3.012  0.1124 -0.4232  0.2254
  868MOL0     C17091   9.935   5.950   3.000  0.6018 -0.4830  0.0114
  868MOL0     O17092   9.630   5.878   2.831  0.7204 -0.6255 -0.6445
  868MOL0     C17093   9.574   6.211   2.896  0.2290 -0.5107  0.0245
  868MOL0     C17094   9.481   6.308   2.869 -0.0222  0.5423 -0.0302
  868MOL0     N17095   8.882   6.346   3.094  0.0596  0.0175  0.8106
  868MOL0     N17096   8.770   6.378   3.145  0.1121 -1.5973  0.5828
  868MOL0     C17097   8.020   6.388   3.790 -0.1939  0.7606 -0.3293
  868MOL0     C17098   8.012   6.269   3.857  0.1288  0.5100  0.4688
  868MOL0     C17099   8.189   5.898   4.052  0.4388  0.8185  0.0991
  868MOL0     C17100   8.092   5.834   4.134 -0.1541 -0.9226  0.0128
  868MOL0     C17101   8.120   5.729   4.210 -0.3482 -0.1029 -0.7086
  868MOL0     C17102   8.249   5.675   4.211 -0.1442  1.1286 -0.3935
  868MOL0     O17103   8.288   5.565   4.282  0.9923  1.1563  0.7098
  868MOL0     C17104   8.196   5.493   4.365  0.3287  0.4812  0.5003
  868MOL0     C17105   8.280   5.373   4.417 -0.2521 -0.5078 -0.2650
  868MOL0     C17106   8.208   5.274   4.513 -0.1067  0.1621 -0.6412
  868MOL0     C17107   8.176   5.331   4.652  0.5349 -0.4978  0.4406
  868MOL0     C17108   8.284   5.339   4.742  0.3731  0.2620 -0.6707
  868MOL0     C17109   8.389   5.351   4.801 -0.0729  0.0401 -0.6733
  868MOL0     C17110   8.349   5.751   4.145 -0.3010  0.2854 -0.2269
  868MOL0     C17111   8.318   5.857   4.063 -0.1156 -0.0819  0.3610
  868MOL0     C17112   8.432   5.936   3.992  0.8537 -0.0184 -0.7201
  868MOL0     H17113   8.243   6.314   4.101 -2.8457 -0.4504  2.4531
  868MOL0     H17114   8.233   6.539   4.010 -2.2422  0.4052 -0.2254
  868MOL0     H17115   8.236   6.735   3.774 -3.4497  1.1587  1.3463
  868MOL0     H17116   8.245   6.582   3.689  4.1790  2.4070 -0.4373
  868MOL0     H17117   8.041   6.790   3.641 -0.7079 -0.7195  0.3204
  868MOL0     H17118   8.042   6.645   3.558 -4.3893  1.4479  2.0377
  868MOL0     H17119   8.313   6.809   3.536  0.0743  0.0207 -2.0138
  868MOL0     H17120   8.169   6.876   3.455  2.4377  1.4552  0.8410
  868MOL0     H17121   8.248   6.584   3.444 -2.1148 -0.5401 -0.5480
  868MOL0     H17122   8.150   6.674   3.321 -0.5341  0.1767  0.2651
  868MOL0     H17123   8.353   6.790   3.267 -5.0758  0.9797  2.5048
  868MOL0     H17124   8.451   6.673   3.376  1.3879 -2.0312 -3.1204
  868MOL0     H17125   8.318   6.495   3.226  2.0812 -1.4658  0.9159
  868MOL0     H17126   8.338   6.617   3.093  3.7367  1.9612 -0.0292
  868MOL0     H17127   8.566   6.524   3.258 -1.6408 -1.7930  0.8422
  868MOL0     H17128   8.551   6.618   3.098 -2.9491  0.5246 -2.0840
  868MOL0     H17129   8.474   6.318   3.133  0.6796  1.6346  0.3509
  868MOL0     H17130   8.475   6.406   2.990 -1.0161 -0.1409 -0.2026
  868MOL0     H17131   8.668   6.333   2.836 -1.1500  0.6639  1.8131
  868MOL0     H17132   9.025   6.207   2.918 -0.0567 -0.0602 -0.1837
  868MOL0     H17133   8.901   6.181   2.801 -0.5056 -0.0036  1.1316
  868MOL0     H17134   9.076   6.336   2.707  2.7643  0.5161  1.3376
  868MOL0     H17135   8.914   6.415   2.722  0.2740  1.4406 -0.9076
  868MOL0     H17136   9.011   6.532   2.930  1.0304 -2.0293  2.1434
  868MOL0     H17137   9.092   6.567   2.781 -1.3002  1.0398  0.7947
  868MOL0     H17138   9.173   6.358   2.989 -0.3765  1.9802  2.7808
  868MOL0     H17139   9.262   6.515   2.956  0.8282  1.9252 -5.8591
  868MOL0     H17140   9.223   6.100   2.797  0.3338 -1.2668  4.0632
  868MOL0     H17141   9.373   5.945   2.845 -1.4951  0.4338 -0.2351
  868MOL0     H17142   9.685   5.736   3.095  0.1252 -1.1161  0.5966
  868MOL0     H17143   9.882   5.575   3.107  0.9022 -0.6353 -1.0460
  868MOL0     H17144  10.120   5.601   3.227 -0.4967  3.2485 -2.7295
  868MOL0     H17145  10.138   5.457   3.120 -1.9965  0.2955 -1.5797
  868MOL0     H17146  10.355   5.484   3.202 -0.1415 -0.1555 -2.3743
  868MOL0     H17147  10.363   5.574   3.058 -2.3638 -1.6691 -1.1250
  868MOL0     H17148  10.463   5.736   3.241 -0.0218 -2.5748  4.1327
  868MOL0     H17149  10.286   5.781   3.206 -0.9935  0.1390  1.1638
  868MOL0     H17150  10.371   5.594   3.430  3.4691  0.5950 -2.6400
  868MOL0     H17151  10.227   5.682   3.406  0.4400 -0.4664 -1.9054
  868MOL0     H17152  10.498   5.794   3.460  0.3968 -1.7408  0.8364
  868MOL0     H17153  10.382   5.741   3.578 -1.1661 -0.2139  0.0656
  868MOL0     H17154  10.378   5.986   3.394 -1.0167 -0.7385 -1.0824
  868MOL0     H17155  10.225   5.938   3.437 -0.3232  3.9580  0.1741
  868MOL0     H17156  10.437   6.001   3.647 -1.0386  4.0847  2.7667
  868MOL0     H17157  10.288   5.929   3.686  0.3132 -2.5612 -2.1102
  868MOL0     H17158  10.336   6.203   3.565  1.8805 -0.6359  1.7078
  868MOL0     H17159  10.164   6.135   3.590  0.5051 -1.0958 -0.6391
  868MOL0     H17160  10.135   5.890   2.983 -1.0620  3.3675  0.1276
  868MOL0     H17161   9.951   6.048   2.955 -0.9184  1.3120  3.0793
  868MOL0     H17162   9.672   6.230   2.938 -0.1911  3.2335 -0.3332
  868MOL0     H17163   9.512   6.410   2.891 -0.2759  0.7405 -0.5595
  868MOL0     H17164   7.957   6.400   3.703 -0.8023 -1.6063 -0.2858
  868MOL0     H17165   7.947   6.188   3.826  0.5535  0.9618 -1.7942
  868MOL0     H17166   7.994   5.881   4.123  1.3062  2.3127 -0.4282
  868MOL0     H17167   8.041   5.676   4.264  1.2054 -1.6122  0.1689
  868MOL0     H17168   8.115   5.457   4.302 -0.8130  0.6948  1.7968
  868MOL0     H17169   8.159   5.550   4.451 -0.8678 -1.9665  1.7073
  868MOL0     H17170   8.358   5.423   4.475 -2.7349  1.3363  1.7131
  868MOL0     H17171   8.329   5.330   4.329 -0.8775 -0.9566 -0.4062
  868MOL0     H17172   8.274   5.191   4.540 -2.5584 -2.2443 -1.5827
  868MOL0     H17173   8.125   5.237   4.452  0.4944 -2.0332 -0.2115
  868MOL0     H17174   8.145   5.435   4.641  1.3784 -0.1333  1.3606
  868MOL0     H17175   8.092   5.272   4.691 -0.7392  2.9188  3.4672
  868MOL0     H17176   8.475   5.368   4.863 -1.7086  4.0651  0.8905
  868MOL0     H17177   8.450   5.714   4.162 -0.2850 -0.3277 -1.4960
  868MOL0     H17178   8.408   6.042   4.006 -2.6325 -0.0221 -4.7059
  868MOL0     H17179   8.531   5.912   4.031 -0.4833 -2.8550  1.2403
  868MOL0     H17180   8.436   5.917   3.884  1.1567 -2.9742 -0.2588
  869MOL0     O17181   4.636  11.163   2.543 -0.9713  0.4416 -0.8210
  869MOL0     C17182   4.754  11.172   2.519 -0.2685  0.2368 -0.0353
  869MOL0     O17183   4.808  11.288   2.485  0.4445  0.3534 -0.6428
  869MOL0     C17184   4.732  11.401   2.449 -0.7851 -0.5869 -0.4871
  869MOL0     C17185   4.772  11.523   2.508  0.1915  0.6591  0.6781
  869MOL0     C17186   4.688  11.633   2.489  0.5399 -0.4414 -0.8161
  869MOL0     C17187   4.572  11.631   2.404 -0.0082  0.0377  0.1759
  869MOL0     O17188   4.495  11.740   2.366 -0.6222  0.7187 -0.0353
  869MOL0     C17189   4.575  11.844   2.301  0.0255 -0.4458  0.4908
  869MOL0     C17190   4.478  11.940   2.231  0.2594  0.5497 -0.3842
  869MOL0     C17191   4.526  12.013   2.099  0.4587 -0.6378 -0.2070
  869MOL0     C17192   4.433  12.131   2.056  0.3033 -0.7885 -0.7352
  869MOL0     C17193   4.478  12.250   2.133  0.0483 -0.0410 -0.2944
  869MOL0     C17194   4.401  12.371   2.081 -0.7859 -1.0459  0.6206
  869MOL0     C17195   4.425  12.484   2.180  0.2031  0.1161 -0.7067
  869MOL0     C17196   4.345  12.611   2.157 -0.4914 -0.0629  0.4215
  869MOL0     N17197   4.202  12.591   2.148  0.3319 -0.2421  1.0889
  869MOL0     C17198   4.117  12.566   2.254 -0.7106  0.1683 -0.1023
  869MOL0     C17199   3.995  12.573   2.189  0.0272 -0.5140 -0.4665
  869MOL0     C17200   3.858  12.568   2.258 -0.6354  0.7035  0.6191
  869MOL0     C17201   3.872  12.524   2.404 -0.7606  0.2056  0.1706
  869MOL0     C17202   3.745  12.504   2.478  0.7378  0.1968 -0.0999
  869MOL0     C17203   3.655  12.389   2.431 -0.4766  0.1418  0.2089
  869MOL0     O17204   3.549  12.349   2.521 -0.1164  0.7574 -0.4625
  869MOL0     C17205   3.595  12.282   2.640  0.6560 -0.6187  0.7082
  869MOL0     C17206   3.718  12.224   2.659 -0.0128 -0.2208  0.0091
  869MOL0     C17207   3.761  12.176   2.785 -0.7240  1.1638 -0.4156
  869MOL0     C17208   3.673  12.187   2.895  0.4881  0.0948 -0.4004
  869MOL0     C17209   3.706  12.146   3.032 -0.9638  0.3821 -0.3899
  869MOL0     O17210   3.639  12.208   3.123  0.0228  0.3376 -0.2448
  869MOL0     C17211   3.689  12.201   3.251 -0.1219 -0.1923  0.0890
  869MOL0     C17212   3.623  12.135   3.351 -0.3136 -0.1171  0.2836
  869MOL0     C17213   3.674  12.119   3.480  0.0429 -0.3971  0.6360
  869MOL0     C17214   3.793  12.192   3.518  0.5636  0.7615  0.3318
  869MOL0     O17215   3.846  12.182   3.647 -0.0119  0.9845 -0.2588
  869MOL0     C17216   3.873  12.050   3.705  0.4967 -0.0100  0.8496
  869MOL0     C17217   3.987  12.042   3.787  0.6226  0.4845  0.5912
  869MOL0     C17218   3.997  11.891   3.826 -1.7017  0.5912  0.1346
  869MOL0     C17219   4.067  11.865   3.962  0.5533  0.5249 -0.5273
  869MOL0     C17220   4.097  11.713   3.977  0.5415  0.2345  0.3849
  869MOL0     C17221   4.221  11.689   4.064 -0.1993  0.8282 -0.8779
  869MOL0     C17222   4.274  11.547   4.045 -0.5079 -0.3536  0.2154
  869MOL0     C17223   4.428  11.547   4.059 -0.4362  0.2197 -0.4031
  869MOL0    Cl17224   4.511  11.656   3.939 -0.2480 -0.2207  0.0750
  869MOL0     C17225   3.848  12.276   3.420 -0.3951  0.2296 -0.9339
  869MOL0     C17226   3.796  12.280   3.286 -0.3252  0.0606  0.1027
  869MOL0     O17227   3.808  12.078   3.053  0.5949  0.2152 -0.0901
  869MOL0     C17228   3.543  12.242   2.870  0.8454  0.0140  0.0325
  869MOL0     C17229   3.501  12.289   2.744 -0.5563 -0.2114  0.7614
  869MOL0     N17230   4.011  12.581   2.046 -0.8744 -0.5880 -0.8008
  869MOL0     N17231   4.139  12.604   2.029 -0.3723  1.1671 -0.2282
  869MOL0     C17232   4.533  11.510   2.357 -0.6437 -0.1164  0.2359
  869MOL0     C17233   4.610  11.399   2.380  0.2824  0.2863  0.3594
  869MOL0     C17234   4.838  11.051   2.484 -0.2931 -0.0302 -0.0602
  869MOL0     C17235   4.777  10.929   2.460  0.6395  0.3535  0.5300
  869MOL0     C17236   4.843  10.809   2.432 -0.9575 -0.3838 -0.1830
  869MOL0     C17237   4.990  10.817   2.439 -0.2549  0.0750 -0.4447
  869MOL0     O17238   5.067  10.709   2.403  0.5030 -0.5148  0.7765
  869MOL0     C17239   5.023  10.575   2.416 -0.3728  1.1677  0.1652
  869MOL0     C17240   5.040  10.526   2.565  0.3160  0.8970 -0.8952
  869MOL0     C17241   4.991  10.386   2.598 -0.8293 -0.0982  0.4536
  869MOL0     C17242   4.836  10.378   2.582  0.7843 -0.2258  0.0297
  869MOL0     C17243   4.767  10.479   2.657 -0.7226  0.1221 -0.2784
  869MOL0     C17244   4.694  10.551   2.720 -0.2298 -0.2443 -0.1523
  869MOL0     C17245   5.052  10.941   2.448  0.2682  0.6064  0.0448
  869MOL0     C17246   4.978  11.058   2.475 -1.1583  0.2060  0.5319
  869MOL0     C17247   5.071  11.182   2.504  0.7477  0.0712  0.4388
  869MOL0     H17248   4.870  11.527   2.554  2.9875 -2.6487 -4.0127
  869MOL0     H17249   4.704  11.732   2.531 -1.8819 -1.2928  2.5063
  869MOL0     H17250   4.638  11.901   2.369 -0.7896 -0.1505  1.0104
  869MOL0     H17251   4.635  11.800   2.220 -0.4936  0.0867 -0.2011
  869MOL0     H17252   4.443  12.011   2.307  2.8522  0.2674  1.2062
  869MOL0     H17253   4.391  11.881   2.202  0.7984  0.1400 -1.2116
  869MOL0     H17254   4.541  11.939   2.020 -1.6003 -3.6440  2.0329
  869MOL0     H17255   4.628  12.050   2.115  0.4155 -0.2698 -0.7447
  869MOL0     H17256   4.449  12.140   1.948 -3.0088  1.8904 -1.1666
  869MOL0     H17257   4.333  12.095   2.082  0.2873  1.3680  2.8473
  869MOL0     H17258   4.453  12.233   2.238  0.5145 -1.7318 -0.4199
  869MOL0     H17259   4.587  12.262   2.127  0.7694 -2.7915  3.5367
  869MOL0     H17260   4.435  12.396   1.980  1.8428  2.0080  2.0851
  869MOL0     H17261   4.293  12.352   2.075 -1.0359  0.4383 -0.1797
  869MOL0     H17262   4.534  12.496   2.180  0.2080  0.4551 -2.9270
  869MOL0     H17263   4.399  12.443   2.278 -1.5598 -0.2111 -1.2692
  869MOL0     H17264   4.358  12.686   2.235 -0.1662  0.9780 -0.6009
  869MOL0     H17265   4.392  12.665   2.074  0.9480 -0.7197  0.7795
  869MOL0     H17266   4.163  12.547   2.350  1.5046 -1.0129 -1.3004
  869MOL0     H17267   3.809  12.665   2.250  0.5908  1.3469  0.6953
  869MOL0     H17268   3.789  12.506   2.200 -0.9716  1.8584 -0.2600
  869MOL0     H17269   3.928  12.431   2.409  1.3747  1.4542  1.2162
  869MOL0     H17270   3.927  12.597   2.465 -1.7740 -1.7687  3.7904
  869MOL0     H17271   3.689  12.597   2.470  0.6106  0.0895 -0.4820
  869MOL0     H17272   3.774  12.484   2.581  0.9132  1.0102  0.0129
  869MOL0     H17273   3.713  12.299   2.408 -0.5323  0.4908 -1.4695
  869MOL0     H17274   3.600  12.415   2.339 -2.2002 -0.5047  1.0070
  869MOL0     H17275   3.789  12.233   2.577  1.2799 -0.4543  1.0808
  869MOL0     H17276   3.864  12.145   2.791 -0.6583  1.5734  1.0599
  869MOL0     H17277   3.533  12.082   3.322 -0.6076 -0.3736  1.5895
  869MOL0     H17278   3.620  12.052   3.546  4.0826 -2.3068  2.3715
  869MOL0     H17279   3.784  12.027   3.764  1.2594 -1.1919  1.5727
  869MOL0     H17280   3.894  11.976   3.627  0.0532  1.8899 -1.1745
  869MOL0     H17281   4.079  12.079   3.742  0.7973  0.7217  1.1377
  869MOL0     H17282   3.975  12.092   3.883  0.5627  0.7106  0.4655
  869MOL0     H17283   3.899  11.842   3.825 -1.7373  0.6455 -1.3286
  869MOL0     H17284   4.056  11.839   3.750 -3.2572 -0.8310 -0.1508
  869MOL0     H17285   4.011  11.902   4.049  0.4641  1.5913 -1.0263
  869MOL0     H17286   4.161  11.920   3.962  0.6705  0.3391 -1.5672
  869MOL0     H17287   4.128  11.667   3.882 -0.2955  1.2832 -0.4147
  869MOL0     H17288   4.008  11.663   4.016 -1.1031  3.4896  1.1303
  869MOL0     H17289   4.291  11.767   4.032 -0.8172  1.0024 -1.8623
  869MOL0     H17290   4.207  11.713   4.169  1.2474  0.0224 -0.4689
  869MOL0     H17291   4.251  11.508   3.945  1.6224  3.4318 -2.0008
  869MOL0     H17292   4.239  11.478   4.122 -0.2332 -1.7143 -0.8422
  869MOL0     H17293   4.453  11.575   4.161  0.5109 -2.1861  0.0975
  869MOL0     H17294   4.465  11.445   4.044 -0.1603  0.2678 -0.0567
  869MOL0     H17295   3.940  12.323   3.453  2.3064 -2.9795 -3.2676
  869MOL0     H17296   3.844  12.335   3.207 -2.1052  3.2841  1.0960
  869MOL0     H17297   3.466  12.245   2.946 -1.9473 -1.5593 -2.5507
  869MOL0     H17298   3.401  12.321   2.718 -0.1002  0.9459  0.3877
  869MOL0     H17299   4.446  11.510   2.293 -0.5792  1.2891  0.1311
  869MOL0     H17300   4.572  11.303   2.345 -1.2842  0.6894  0.9031
  869MOL0     H17301   4.673  10.912   2.488  1.2210 -1.6651  1.7038
  869MOL0     H17302   4.796  10.712   2.415  1.4504 -1.9281  1.3684
  869MOL0     H17303   5.083  10.516   2.346 -0.6917 -0.7441  1.4405
  869MOL0     H17304   4.918  10.565   2.386 -0.2390  2.2658 -0.7453
  869MOL0     H17305   4.999  10.597   2.638  4.3270  2.8672 -0.2925
  869MOL0     H17306   5.146  10.518   2.591  0.2400 -2.4849 -1.2122
  869MOL0     H17307   4.996  10.365   2.705 -5.5321  0.3382  0.9956
  869MOL0     H17308   5.038  10.305   2.541 -0.3853  0.7647 -0.4222
  869MOL0     H17309   4.802  10.395   2.479 -0.1934 -1.5027  0.1143
  869MOL0     H17310   4.797  10.277   2.600  0.4637 -0.1898 -0.4317
  869MOL0     H17311   4.628  10.609   2.781 -2.6267 -0.7901 -2.0939
  869MOL0     H17312   5.160  10.942   2.438  0.4121  3.8259  0.7173
  869MOL0     H17313   5.030  11.235   2.590  0.3956  0.5709 -0.0287
  869MOL0     H17314   5.171  11.146   2.529 -0.1280 -2.2311  0.8491
  869MOL0     H17315   5.063  11.244   2.414  1.1825 -3.7570 -2.5040
  870MOL0     O17316   3.254   2.557   3.269  0.4038 -0.9495 -0.0988
  870MOL0     C17317   3.322   2.475   3.321 -1.2829  0.6250 -0.0235
  870MOL0     O17318   3.301   2.417   3.440  0.4414  0.0766  0.5892
  870MOL0     C17319   3.165   2.409   3.487  0.7679 -0.1068 -0.1067
  870MOL0     C17320   3.059   2.349   3.418  0.4704  0.4268 -0.0631
  870MOL0     C17321   2.936   2.350   3.480 -1.1447 -0.4147  0.8737
  870MOL0     C17322   2.919   2.400   3.613 -0.3315  0.7893  0.2990
  870MOL0     O17323   2.794   2.405   3.670  0.0358  1.5254 -0.2992
  870MOL0     C17324   2.696   2.299   3.649 -0.6139  0.0649 -0.3586
  870MOL0     C17325   2.589   2.359   3.567  0.1215  0.4540 -0.0519
  870MOL0     C17326   2.480   2.250   3.557 -0.8299  0.2958  0.0419
  870MOL0     C17327   2.354   2.315   3.495  0.4774 -0.5829 -0.3040
  870MOL0     C17328   2.253   2.207   3.469  0.3279  0.8244  0.1551
  870MOL0     C17329   2.111   2.261   3.413 -0.3005  0.1641  0.4446
  870MOL0     C17330   2.012   2.165   3.367 -0.2580  0.4455  0.2908
  870MOL0     C17331   1.941   2.096   3.481  0.6251 -0.9898  1.1671
  870MOL0     N17332   1.856   2.187   3.550 -0.1212 -0.0296 -0.7348
  870MOL0     C17333   1.786   2.169   3.671 -0.1418  0.3850  0.2425
  870MOL0     C17334   1.700   2.274   3.682  0.5082 -0.9741  0.6960
  870MOL0     C17335   1.587   2.306   3.788  0.3561 -0.6380 -0.6988
  870MOL0     C17336   1.520   2.175   3.842 -1.5249  0.7872  0.0066
  870MOL0     C17337   1.370   2.196   3.858  0.3594 -0.3167  0.1697
  870MOL0     C17338   1.287   2.070   3.903 -0.4730 -0.0592 -0.4569
  870MOL0     O17339   1.357   2.005   4.010 -0.4076  0.5648 -0.0070
  870MOL0     C17340   1.319   2.028   4.141 -0.3126 -0.4035 -0.3610
  870MOL0     C17341   1.336   1.934   4.246 -0.5806  0.1088  0.5016
  870MOL0     C17342   1.333   1.967   4.385 -0.2606 -0.8022 -1.2573
  870MOL0     C17343   1.324   2.098   4.427 -0.2622 -0.2034 -0.0213
  870MOL0     C17344   1.317   2.134   4.571  0.6773  0.1999 -0.8483
  870MOL0     O17345   1.335   2.027   4.654 -0.2091  0.1910 -0.3599
  870MOL0     C17346   1.292   2.048   4.785  1.0282 -0.1635  0.0896
  870MOL0     C17347   1.341   2.150   4.870 -0.7795 -0.1714  0.2107
  870MOL0     C17348   1.286   2.189   4.995 -0.2506  0.5703  0.2649
  870MOL0     C17349   1.186   2.107   5.055 -0.2313 -0.0247  0.2065
  870MOL0     O17350   1.122   2.130   5.171  0.3377  0.7704  0.3046
  870MOL0     C17351   1.167   2.239   5.251 -0.0760  0.0443  0.3144
  870MOL0     C17352   1.285   2.200   5.336 -0.1139  1.2102  0.4736
  870MOL0     C17353   1.313   2.308   5.444  0.1167  0.4556  0.1961
  870MOL0     C17354   1.393   2.423   5.390 -0.0494  0.1708  0.6244
  870MOL0     C17355   1.468   2.489   5.494 -0.3242  0.4066 -0.1589
  870MOL0     C17356   1.614   2.539   5.467 -0.1214 -0.3543 -0.1388
  870MOL0     C17357   1.623   2.645   5.362 -0.3106  0.5043  0.4881
  870MOL0     C17358   1.568   2.777   5.399 -0.0946 -0.2216 -0.0934
  870MOL0    Cl17359   1.670   2.863   5.522  0.4862  0.4078  0.2068
  870MOL0     C17360   1.139   2.001   4.981 -1.3253 -0.5542 -0.1669
  870MOL0     C17361   1.188   1.976   4.846 -0.2247  0.6345  0.3290
  870MOL0     O17362   1.306   2.253   4.600 -0.3287  0.4310  0.7025
  870MOL0     C17363   1.297   2.198   4.330 -0.4198  0.3523 -0.1714
  870MOL0     C17364   1.303   2.162   4.194 -0.0394  0.0046  0.4386
  870MOL0     N17365   1.716   2.348   3.570 -0.4980 -0.0805 -0.1973
  870MOL0     N17366   1.801   2.298   3.494  0.0989 -0.2743 -0.1706
  870MOL0     C17367   3.022   2.446   3.686 -0.2182  0.1990 -0.2209
  870MOL0     C17368   3.139   2.454   3.620 -0.1185 -0.9786  0.1783
  870MOL0     C17369   3.462   2.470   3.254 -0.2322  0.8939 -0.1522
  870MOL0     C17370   3.481   2.510   3.121 -0.6830  0.4388 -0.4696
  870MOL0     C17371   3.610   2.525   3.071 -0.1466  0.6297  0.7022
  870MOL0     C17372   3.724   2.511   3.146  0.7970 -0.0896  1.7560
  870MOL0     O17373   3.843   2.550   3.096  0.0161 -0.3235  0.2234
  870MOL0     C17374   3.889   2.532   2.971  0.0239  0.7530  0.8153
  870MOL0     C17375   4.017   2.448   2.992  0.0907 -0.1642  0.4437
  870MOL0     C17376   4.122   2.517   3.071  0.6197 -0.0339  0.1507
  870MOL0     C17377   4.272   2.525   3.021  0.5035 -0.2736  0.8328
  870MOL0     C17378   4.349   2.634   3.083  0.6282  0.7480 -0.7609
  870MOL0     C17379   4.410   2.723   3.141 -0.0583  0.0115 -0.0239
  870MOL0     C17380   3.708   2.473   3.275 -0.1189  0.1336  0.6266
  870MOL0     C17381   3.581   2.445   3.325  0.6050 -1.1433 -0.2840
  870MOL0     C17382   3.601   2.398   3.469  0.3634  0.2095  0.3484
  870MOL0     H17383   3.074   2.308   3.319 -0.4021 -0.6232  0.2219
  870MOL0     H17384   2.858   2.327   3.408 -0.9872 -1.5514  1.0447
  870MOL0     H17385   2.726   2.205   3.600 -3.7228 -0.9647 -0.5211
  870MOL0     H17386   2.650   2.265   3.742  0.7667  0.3201  0.4297
  870MOL0     H17387   2.634   2.389   3.472 -2.1013 -0.0147 -1.3134
  870MOL0     H17388   2.539   2.449   3.603 -0.4838 -0.4830  1.6162
  870MOL0     H17389   2.462   2.217   3.660  0.3989  2.3765  0.9822
  870MOL0     H17390   2.526   2.167   3.503  2.1744  0.8010  1.6385
  870MOL0     H17391   2.304   2.386   3.562  0.0866 -2.2404  1.2564
  870MOL0     H17392   2.382   2.362   3.400 -0.1673 -1.2056 -0.8089
  870MOL0     H17393   2.287   2.131   3.397  1.4718  0.2808  1.2228
  870MOL0     H17394   2.239   2.172   3.571  1.4527  0.6199  0.2550
  870MOL0     H17395   2.067   2.314   3.498 -1.1808 -0.4567  0.3984
  870MOL0     H17396   2.132   2.325   3.328  0.8261  1.7156  1.8288
  870MOL0     H17397   2.062   2.095   3.300 -2.6249 -0.2709 -0.8534
  870MOL0     H17398   1.940   2.212   3.299  0.8469 -0.0566 -1.2831
  870MOL0     H17399   1.886   2.017   3.430  3.3146 -1.1453 -1.7942
  870MOL0     H17400   2.003   2.050   3.558  0.8372 -0.8785  1.0638
  870MOL0     H17401   1.788   2.075   3.726 -3.4280  0.0379 -0.0266
  870MOL0     H17402   1.634   2.372   3.861 -2.3216  2.6946 -1.7220
  870MOL0     H17403   1.523   2.379   3.737 -0.3186 -0.8427 -0.1557
  870MOL0     H17404   1.553   2.085   3.790 -0.4858  0.1935  1.6106
  870MOL0     H17405   1.562   2.154   3.941  2.0260 -0.2607 -1.5778
  870MOL0     H17406   1.318   2.225   3.766 -0.6189 -0.8815  0.5353
  870MOL0     H17407   1.356   2.269   3.938  1.3781 -0.1736  0.2339
  870MOL0     H17408   1.295   2.011   3.811 -4.0176  0.2430 -1.0849
  870MOL0     H17409   1.182   2.091   3.927 -0.7387  1.1754 -2.4762
  870MOL0     H17410   1.365   1.835   4.212 -0.3056  0.1913  0.4952
  870MOL0     H17411   1.364   1.889   4.454  1.4435  1.3686  0.5636
  870MOL0     H17412   1.419   2.211   4.826  0.9410 -3.2472 -1.2801
  870MOL0     H17413   1.338   2.275   5.038 -0.4300  1.5179 -1.3208
  870MOL0     H17414   1.190   2.332   5.198  0.2763  0.5420  1.3253
  870MOL0     H17415   1.077   2.247   5.312 -0.4354 -5.7802  1.1588
  870MOL0     H17416   1.266   2.107   5.391 -4.2126  1.6134  0.0555
  870MOL0     H17417   1.375   2.186   5.277  0.8134 -2.6352  2.4672
  870MOL0     H17418   1.225   2.351   5.493 -0.8419  0.4069 -1.4072
  870MOL0     H17419   1.362   2.251   5.524 -4.0817 -2.4829  1.0225
  870MOL0     H17420   1.327   2.497   5.343  0.9481  1.4714  1.2116
  870MOL0     H17421   1.462   2.378   5.318  0.8270  0.3002  1.3680
  870MOL0     H17422   1.484   2.425   5.582  1.1166  1.9944  0.7951
  870MOL0     H17423   1.411   2.574   5.533  2.6497  1.7101  1.7179
  870MOL0     H17424   1.651   2.586   5.558  1.5032  0.1821 -1.0420
  870MOL0     H17425   1.684   2.458   5.446  0.9313 -0.0768  2.0248
  870MOL0     H17426   1.572   2.603   5.275 -1.6517 -0.4712  1.6960
  870MOL0     H17427   1.730   2.653   5.339 -0.0599  1.7533  1.9438
  870MOL0     H17428   1.532   2.832   5.311 -3.7830 -1.9322  0.1286
  870MOL0     H17429   1.474   2.755   5.451  1.6696  0.8763  3.8853
  870MOL0     H17430   1.056   1.947   5.026 -1.3914 -0.9335 -0.7225
  870MOL0     H17431   1.125   1.909   4.788 -0.2624  0.4379  0.5930
  870MOL0     H17432   1.273   2.299   4.360  2.2356  0.9923 -0.0377
  870MOL0     H17433   1.259   2.231   4.123 -1.1624  2.7340  3.5078
  870MOL0     H17434   3.011   2.474   3.790  0.3589 -1.1315  0.2246
  870MOL0     H17435   3.230   2.486   3.670 -0.4585 -1.6300  1.2461
  870MOL0     H17436   3.395   2.542   3.064 -0.8112  3.1399  1.0547
  870MOL0     H17437   3.624   2.558   2.968 -0.0088 -2.7805 -0.5082
  870MOL0     H17438   3.915   2.629   2.927  1.5716  0.8300  1.8429
  870MOL0     H17439   3.815   2.475   2.914 -0.6759 -0.0229  2.4693
  870MOL0     H17440   4.061   2.424   2.895  0.1280  1.2622  0.0926
  870MOL0     H17441   3.989   2.352   3.036 -1.3682 -0.4571 -1.0261
  870MOL0     H17442   4.128   2.460   3.165  0.4384  2.0538  1.4881
  870MOL0     H17443   4.085   2.616   3.097 -3.8080 -1.8469  1.7621
  870MOL0     H17444   4.320   2.427   3.011 -0.0813 -0.3133 -3.4199
  870MOL0     H17445   4.271   2.563   2.918  2.1269 -2.4822 -0.0753
  870MOL0     H17446   4.464   2.790   3.205  0.6787  0.9491 -1.5845
  870MOL0     H17447   3.797   2.488   3.335 -0.6059  2.5837  0.8361
  870MOL0     H17448   3.573   2.292   3.465  1.6753 -0.1404 -1.5269
  870MOL0     H17449   3.700   2.420   3.509 -0.8755  2.5512  2.3422
  870MOL0     H17450   3.539   2.455   3.538  2.8657  0.8974  2.1814
  871MOL0     O17451  10.115   3.302   4.225 -0.9909 -0.6811 -0.0096
  871MOL0     C17452   9.995   3.255   4.219 -0.4958 -0.7565  0.4242
  871MOL0     O17453   9.886   3.311   4.275 -0.5821  0.0161 -0.1911
  871MOL0     C17454   9.892   3.437   4.331  0.2039 -0.1654 -0.0731
  871MOL0     C17455   9.961   3.540   4.269  0.0791 -1.4217 -0.8415
  871MOL0     C17456   9.976   3.670   4.328 -0.0895  0.2655  0.0840
  871MOL0     C17457   9.900   3.707   4.442 -0.9385  1.1987 -0.4185
  871MOL0     O17458   9.882   3.837   4.483  0.7980 -0.8641 -0.1275
  871MOL0     C17459   9.866   3.857   4.630  0.3839  0.5485  0.2658
  871MOL0     C17460  10.007   3.853   4.701  0.2425 -0.3257 -0.4266
  871MOL0     C17461   9.993   3.884   4.854  0.1069 -0.3905 -0.3700
  871MOL0     C17462  10.120   3.849   4.943 -0.1346 -0.3403  0.2014
  871MOL0     C17463  10.232   3.950   4.924  0.2033 -0.1261 -0.9943
  871MOL0     C17464  10.343   3.940   5.025  0.0077 -0.3200 -0.8628
  871MOL0     C17465  10.314   3.949   5.175  0.0538 -0.6236  0.3393
  871MOL0     C17466  10.249   4.079   5.225 -0.1728  0.9096  0.8967
  871MOL0     N17467  10.248   4.073   5.371 -0.4315 -0.1793 -0.5904
  871MOL0     C17468  10.156   4.010   5.459 -0.3971 -0.1377  0.7299
  871MOL0     C17469  10.191   4.027   5.591  0.6489 -0.2974  0.3779
  871MOL0     C17470  10.147   3.987   5.732  0.3341 -0.0611  0.0625
  871MOL0     C17471  10.065   4.101   5.785 -0.4849 -1.0833 -0.6504
  871MOL0     C17472  10.120   4.134   5.928  1.3569 -0.2428  0.4463
  871MOL0     C17473  10.048   4.267   5.990 -0.3174  1.0471  0.1792
  871MOL0     O17474   9.911   4.243   6.021 -0.5935  0.1508 -0.0021
  871MOL0     C17475   9.839   4.357   6.047 -0.6578  0.2145 -0.0203
  871MOL0     C17476   9.883   4.474   6.115  0.6301  0.2946  0.0818
  871MOL0     C17477   9.801   4.586   6.133 -0.1501 -0.2420 -0.2554
  871MOL0     C17478   9.664   4.574   6.088  1.1305 -0.3920  0.2386
  871MOL0     C17479   9.575   4.687   6.079 -1.2112  0.1933 -0.1915
  871MOL0     O17480   9.635   4.805   6.096  0.4179 -0.4068  0.2379
  871MOL0     C17481   9.551   4.905   6.140  0.4797 -0.6996  0.7136
  871MOL0     C17482   9.501   4.902   6.265  0.1780 -0.5161 -0.1731
  871MOL0     C17483   9.405   4.989   6.315  0.3466  1.4407  0.1634
  871MOL0     C17484   9.367   5.098   6.236 -0.6960 -0.4854 -0.1416
  871MOL0     O17485   9.272   5.191   6.280  0.5606  0.3154  0.1140
  871MOL0     C17486   9.133   5.148   6.299 -0.0012  0.3264 -0.2837
  871MOL0     C17487   9.049   5.253   6.355 -0.1090  0.5840 -0.0057
  871MOL0     C17488   9.070   5.260   6.505  0.4568 -0.1953  1.3388
  871MOL0     C17489   8.970   5.169   6.575 -0.2379 -0.5041  0.2751
  871MOL0     C17490   8.965   5.207   6.726 -0.0155  0.3320 -0.4173
  871MOL0     C17491   8.832   5.165   6.795  0.6001  0.1176  0.5424
  871MOL0     C17492   8.825   5.225   6.929 -0.1838  0.3051  0.1316
  871MOL0     C17493   8.676   5.217   6.973 -1.1123 -1.2453  0.4347
  871MOL0    Cl17494   8.626   5.041   6.986 -0.5928 -0.4061 -0.5680
  871MOL0     C17495   9.420   5.104   6.106  0.8921 -0.2037  0.0148
  871MOL0     C17496   9.513   5.016   6.056  0.3120  0.0712  0.4350
  871MOL0     O17497   9.456   4.676   6.065  0.4610 -1.3234  0.2345
  871MOL0     C17498   9.622   4.454   6.040  0.5476  0.2680  0.2432
  871MOL0     C17499   9.705   4.347   6.015  1.0050  0.4293  0.0158
  871MOL0     N17500  10.296   4.119   5.571  0.1652 -0.9779  0.2450
  871MOL0     N17501  10.325   4.151   5.448 -0.0881 -0.8578  0.0540
  871MOL0     C17502   9.833   3.598   4.507  0.0750 -0.7949  0.1523
  871MOL0     C17503   9.822   3.469   4.441 -0.7771 -0.0618  0.4827
  871MOL0     C17504   9.970   3.142   4.137  0.3343  0.2697  0.8629
  871MOL0     C17505   9.872   3.149   4.039 -0.0185 -0.6676 -0.0006
  871MOL0     C17506   9.848   3.058   3.936  0.1148 -0.4391 -0.6355
  871MOL0     C17507   9.940   2.955   3.920  0.2924 -0.5936 -0.1779
  871MOL0     O17508   9.932   2.870   3.818  0.0845  0.1525 -0.2698
  871MOL0     C17509   9.804   2.825   3.778 -0.7853  0.0179  0.5066
  871MOL0     C17510   9.797   2.701   3.693 -0.9195 -0.3246  0.3866
  871MOL0     C17511   9.655   2.660   3.704 -0.1447 -0.6546  0.1891
  871MOL0     C17512   9.630   2.536   3.614 -0.2642  0.2414  0.4480
  871MOL0     C17513   9.704   2.406   3.651 -0.9651 -0.5944 -1.2618
  871MOL0     C17514   9.790   2.326   3.698 -0.3351 -0.0846 -0.9615
  871MOL0     C17515  10.046   2.942   4.014 -0.0096  0.2559 -0.3785
  871MOL0     C17516  10.053   3.031   4.125 -0.3646 -0.2088  0.0563
  871MOL0     C17517  10.167   3.004   4.220 -1.0997  0.1237  0.1673
  871MOL0     H17518  10.001   3.523   4.170 -0.6870 -2.5930 -0.9684
  871MOL0     H17519  10.037   3.740   4.273  0.5798  0.5048  1.0961
  871MOL0     H17520   9.838   3.963   4.633 -1.0261  0.2741 -1.3995
  871MOL0     H17521   9.781   3.798   4.665 -1.2362  2.1537 -0.7917
  871MOL0     H17522  10.075   3.932   4.667 -0.8342  0.6469 -0.3938
  871MOL0     H17523  10.053   3.754   4.700 -1.1499 -1.0979  2.0007
  871MOL0     H17524   9.919   3.811   4.889  1.0673 -0.1922  2.3044
  871MOL0     H17525   9.965   3.988   4.870 -0.1623 -0.6654  1.0809
  871MOL0     H17526  10.084   3.839   5.046  0.5342  0.8852  0.5720
  871MOL0     H17527  10.144   3.745   4.917 -0.9362 -0.0196 -2.0130
  871MOL0     H17528  10.277   3.931   4.826 -0.5338 -0.4254 -1.2780
  871MOL0     H17529  10.188   4.050   4.920  0.2103  0.0143  1.2149
  871MOL0     H17530  10.378   3.837   5.010  1.4055 -0.2576  1.4890
  871MOL0     H17531  10.418   4.013   4.997 -2.0189  2.0206 -0.5276
  871MOL0     H17532  10.414   3.945   5.220  0.5363  0.6975 -0.5850
  871MOL0     H17533  10.251   3.864   5.204  1.5433 -2.3186 -1.1289
  871MOL0     H17534  10.316   4.154   5.182 -3.1581  1.1047 -4.3104
  871MOL0     H17535  10.148   4.099   5.187 -0.4782  0.1776  1.3053
  871MOL0     H17536  10.074   3.944   5.434 -1.1317  0.6136  1.1351
  871MOL0     H17537  10.087   3.899   5.708  0.6001  0.1375 -1.4041
  871MOL0     H17538  10.227   3.958   5.801  0.7820  1.4632  0.2310
  871MOL0     H17539  10.074   4.188   5.720 -2.4556 -0.7491 -0.5475
  871MOL0     H17540   9.960   4.068   5.787 -1.0000  0.4540  1.3987
  871MOL0     H17541  10.227   4.153   5.927  1.6882 -1.5778 -2.9326
  871MOL0     H17542  10.112   4.043   5.988 -0.3979  0.9671  2.1969
  871MOL0     H17543  10.059   4.346   5.915  1.2943  1.0877  0.4162
  871MOL0     H17544  10.101   4.296   6.081 -2.8063 -0.1275  2.1458
  871MOL0     H17545   9.986   4.480   6.148  1.1866 -0.2160 -1.4697
  871MOL0     H17546   9.844   4.674   6.181  2.1321 -2.1509  1.4725
  871MOL0     H17547   9.527   4.813   6.322  1.1396 -1.4882 -2.0149
  871MOL0     H17548   9.348   4.976   6.407 -0.2550 -0.4973 -0.4340
  871MOL0     H17549   9.085   5.115   6.206  0.0087 -0.5588  0.0165
  871MOL0     H17550   9.126   5.060   6.364 -1.7938 -0.1984 -1.1323
  871MOL0     H17551   9.085   5.352   6.325 -2.1355  1.9834  1.8760
  871MOL0     H17552   8.947   5.246   6.316  0.8166  0.0757 -2.4669
  871MOL0     H17553   9.174   5.235   6.527  0.6122  0.2862  1.1672
  871MOL0     H17554   9.057   5.363   6.539 -2.7912  0.1948 -0.6979
  871MOL0     H17555   8.999   5.065   6.562  2.1446  0.1935 -0.6072
  871MOL0     H17556   8.872   5.184   6.530 -0.5283  1.2993  1.4084
  871MOL0     H17557   8.971   5.317   6.731 -0.0244  0.3846 -1.3743
  871MOL0     H17558   9.045   5.152   6.777 -0.5976  1.3675  1.7206
  871MOL0     H17559   8.762   5.232   6.745  0.2311  0.5357  1.5865
  871MOL0     H17560   8.803   5.060   6.786  0.8989  0.0575  0.2621
  871MOL0     H17561   8.847   5.332   6.920 -1.0460  0.4059 -1.0734
  871MOL0     H17562   8.897   5.175   6.994 -0.0017 -0.4200 -0.6091
  871MOL0     H17563   8.664   5.256   7.074  1.6259  0.2752  0.2704
  871MOL0     H17564   8.620   5.270   6.895  0.3765 -0.4602 -0.1496
  871MOL0     H17565   9.398   5.189   6.041 -1.1088 -0.1939  0.6212
  871MOL0     H17566   9.550   5.019   5.954  1.9441  3.2176  0.9929
  871MOL0     H17567   9.519   4.432   6.013  0.6267 -2.8337  1.9931
  871MOL0     H17568   9.658   4.257   5.979 -2.7081  1.3375  1.9885
  871MOL0     H17569   9.752   3.620   4.575  0.5998  2.9507 -0.2163
  871MOL0     H17570   9.760   3.396   4.492  1.9325 -1.8140  1.4959
  871MOL0     H17571   9.798   3.228   4.038 -2.1296 -2.5771 -0.2441
  871MOL0     H17572   9.767   3.076   3.867 -1.1269 -2.0342  0.3386
  871MOL0     H17573   9.755   2.903   3.720 -1.0005  0.5035  1.3352
  871MOL0     H17574   9.742   2.812   3.868 -0.7248 -0.3466  0.4980
  871MOL0     H17575   9.862   2.618   3.724  0.4881 -0.6045 -2.9096
  871MOL0     H17576   9.808   2.715   3.585 -0.1937  0.5541  0.5723
  871MOL0     H17577   9.579   2.728   3.665 -1.8774 -2.9146 -0.6408
  871MOL0     H17578   9.618   2.640   3.805  1.7033 -2.1924  0.6242
  871MOL0     H17579   9.522   2.521   3.604 -0.2698  0.2857  0.4456
  871MOL0     H17580   9.669   2.556   3.514  1.4492  3.7438  1.6728
  871MOL0     H17581   9.866   2.262   3.737 -2.9827 -2.8162  0.1056
  871MOL0     H17582  10.114   2.861   3.995 -0.3248 -0.7971  2.4718
  871MOL0     H17583  10.132   2.993   4.323 -0.6200  2.1125  0.5816
  871MOL0     H17584  10.214   2.911   4.185 -1.5039  0.5999 -1.7724
  871MOL0     H17585  10.238   3.086   4.215 -1.8935  0.7674 -1.2730
  872MOL0     O17586   6.763   6.951   0.004  0.6626 -0.8559  0.4854
  872MOL0     C17587   6.805   6.847   0.044  0.4125 -0.8055 -1.0964
  872MOL0     O17588   6.936   6.828   0.093  0.1996 -0.3208 -0.3563
  872MOL0     C17589   7.021   6.929   0.122 -0.4999 -0.6079 -0.3884
  872MOL0     C17590   6.988   7.037   0.212  0.4292  0.5974  0.3659
  872MOL0     C17591   7.089   7.116   0.263 -0.7110 -0.3522 -0.0100
  872MOL0     C17592   7.219   7.120   0.214 -0.3159  0.4919 -0.3505
  872MOL0     O17593   7.312   7.200   0.272  0.4556 -0.3476  0.1597
  872MOL0     C17594   7.435   7.207   0.223 -0.5259 -0.4994  0.4776
  872MOL0     C17595   7.509   7.335   0.260 -0.5257  0.6485 -0.2738
  872MOL0     C17596   7.625   7.311   0.362  0.1161  0.2134  0.0869
  872MOL0     C17597   7.681   7.442   0.417 -0.3900 -0.2406  0.2199
  872MOL0     C17598   7.767   7.441   0.542 -0.2524 -0.0935 -0.7082
  872MOL0     C17599   7.909   7.384   0.529  0.3246 -0.2437  0.5674
  872MOL0     C17600   8.015   7.482   0.462  0.8644  0.3657 -0.3057
  872MOL0     C17601   8.160   7.421   0.466  0.1065 -0.5706 -0.6617
  872MOL0     N17602   8.207   7.370   0.596  0.0513  0.7604 -0.5609
  872MOL0     C17603   8.278   7.446   0.682  0.0803 -0.8433 -0.6438
  872MOL0     C17604   8.317   7.365   0.772 -0.3292 -0.5723  0.0648
  872MOL0     C17605   8.400   7.415   0.890 -0.6590  0.9267 -0.5370
  872MOL0     C17606   8.550   7.361   0.899 -0.3504  0.5856 -0.7130
  872MOL0     C17607   8.633   7.433   0.786  0.2004 -0.4262  0.4322
  872MOL0     C17608   8.755   7.348   0.761  0.7768 -0.0970 -0.7327
  872MOL0     O17609   8.848   7.425   0.677  1.0474  0.1585 -0.0819
  872MOL0     C17610   8.967   7.360   0.642  0.9558 -1.4410 -0.5264
  872MOL0     C17611   9.059   7.425   0.559  0.0071  0.1199  0.8063
  872MOL0     C17612   9.191   7.376   0.544 -0.3308  0.1432  0.0957
  872MOL0     C17613   9.244   7.269   0.613  0.9210 -0.2610 -0.1766
  872MOL0     C17614   9.381   7.226   0.584  0.1716 -0.8520  0.4077
  872MOL0     O17615   9.433   7.103   0.632  0.2805  0.0094  0.7351
  872MOL0     C17616   9.521   7.026   0.559  0.1101 -0.4273 -0.4212
  872MOL0     C17617   9.501   6.889   0.559 -0.3064  0.0845 -0.6078
  872MOL0     C17618   9.581   6.809   0.478 -0.0905  0.8594  0.6807
  872MOL0     C17619   9.689   6.859   0.408  0.5622  0.6494  0.0355
  872MOL0     O17620   9.753   6.765   0.325  0.6369 -0.2499  0.3430
  872MOL0     C17621   9.784   6.806   0.185 -0.0758  0.7231 -0.0992
  872MOL0     C17622   9.901   6.734   0.120 -0.6428 -0.2439 -0.9953
  872MOL0     C17623  10.026   6.720   0.221  1.0569 -0.2228  0.1775
  872MOL0     C17624  10.139   6.650   0.153 -0.2838 -0.2536  0.0513
  872MOL0     C17625  10.252   6.639   0.260  0.1445 -1.0317  0.5667
  872MOL0     C17626  10.336   6.523   0.241  0.5936  0.7662  0.1736
  872MOL0     C17627  10.382   6.506   0.093 -0.2237  0.5277 -0.4797
  872MOL0     C17628  10.469   6.387   0.090  0.7487 -0.4062 -0.3800
  872MOL0    Cl17629  10.511   6.344  -0.084  0.0919  0.2712  0.3406
  872MOL0     C17630   9.719   6.993   0.425  0.5135 -0.7947 -0.4812
  872MOL0     C17631   9.633   7.077   0.495 -0.1364  0.9444 -0.5254
  872MOL0     O17632   9.442   7.304   0.503 -0.3239  0.3795  0.7204
  872MOL0     C17633   9.158   7.206   0.700 -0.2725 -1.0962  0.0533
  872MOL0     C17634   9.023   7.247   0.713  0.6037  0.1985 -0.1088
  872MOL0     N17635   8.288   7.244   0.741  0.1743  0.3156  0.2505
  872MOL0     N17636   8.219   7.236   0.635 -0.6782 -0.6513 -0.0040
  872MOL0     C17637   7.254   7.018   0.115 -0.2159  0.3922 -1.0864
  872MOL0     C17638   7.150   6.924   0.079 -0.5528 -0.5775 -0.8680
  872MOL0     C17639   6.726   6.719   0.024 -0.8510 -1.1184  0.1684
  872MOL0     C17640   6.793   6.598   0.045  0.7868  0.3967  1.0683
  872MOL0     C17641   6.742   6.479   0.003  1.4424  0.3268 -0.7871
  872MOL0     C17642   6.612   6.478  -0.047 -0.0322  0.3559 -0.0085
  872MOL0     O17643   6.541   6.361  -0.063  0.8124  1.0593 -0.0439
  872MOL0     C17644   6.504   6.293   0.063 -0.2996 -0.0070 -0.1799
  872MOL0     C17645   6.600   6.199   0.132  0.1172  0.7381  0.3664
  872MOL0     C17646   6.663   6.100   0.029 -0.2611 -0.3839  0.4785
  872MOL0     C17647   6.798   6.022   0.062  0.0153 -0.1993  0.2536
  872MOL0     C17648   6.916   6.093   0.004  1.0252 -0.2125  0.2217
  872MOL0     C17649   7.009   6.151  -0.043 -0.3823 -0.5586 -0.4420
  872MOL0     C17650   6.541   6.596  -0.070 -0.2786 -0.0739 -0.6121
  872MOL0     C17651   6.598   6.722  -0.038 -0.6772  0.4225 -0.5965
  872MOL0     C17652   6.505   6.842  -0.042 -0.4968 -0.5030  0.0321
  872MOL0     H17653   6.888   7.035   0.254  0.8725 -1.7204  1.5154
  872MOL0     H17654   7.053   7.181   0.342  0.4454  0.0388  0.2217
  872MOL0     H17655   7.487   7.120   0.265 -1.5570 -1.4824 -0.2224
  872MOL0     H17656   7.426   7.199   0.114 -5.2844 -0.6570  0.7012
  872MOL0     H17657   7.446   7.407   0.313  1.2993  0.6250  2.0475
  872MOL0     H17658   7.548   7.386   0.171  0.6454 -1.5217 -1.0623
  872MOL0     H17659   7.704   7.267   0.302  0.4231  0.4205  0.3337
  872MOL0     H17660   7.594   7.247   0.445  2.6026  0.7990  1.5686
  872MOL0     H17661   7.752   7.477   0.342  0.0794  0.5109  0.9984
  872MOL0     H17662   7.592   7.505   0.432 -0.8397 -1.0591  1.0907
  872MOL0     H17663   7.765   7.544   0.580  2.4887 -1.4969  4.1067
  872MOL0     H17664   7.734   7.390   0.633  0.4524  3.1001  1.5378
  872MOL0     H17665   7.942   7.362   0.630  0.3818  0.1297  0.6315
  872MOL0     H17666   7.895   7.292   0.471 -0.1692  1.4033 -2.1121
  872MOL0     H17667   8.021   7.577   0.516  0.5615  0.4981 -0.4988
  872MOL0     H17668   7.983   7.513   0.361 -2.9903  0.1981  0.7009
  872MOL0     H17669   8.175   7.346   0.387  4.4482 -1.0873  0.3755
  872MOL0     H17670   8.219   7.504   0.427  2.9169 -0.7845  2.6490
  872MOL0     H17671   8.298   7.552   0.670 -1.5865 -0.3972  0.0989
  872MOL0     H17672   8.386   7.523   0.903  1.5468  1.0094  2.1378
  872MOL0     H17673   8.349   7.369   0.975 -1.4043  2.9645  0.1998
  872MOL0     H17674   8.588   7.374   1.001 -3.0494 -1.1204  0.6237
  872MOL0     H17675   8.544   7.255   0.877 -1.3255  0.5966 -0.5455
  872MOL0     H17676   8.650   7.535   0.821 -1.3422 -0.4980  1.4725
  872MOL0     H17677   8.576   7.450   0.693  0.6658  4.4650  0.7480
  872MOL0     H17678   8.724   7.254   0.716  2.3681 -2.6564  3.0448
  872MOL0     H17679   8.803   7.328   0.857  2.1538  1.4807 -1.0394
  872MOL0     H17680   9.037   7.511   0.497  2.7594 -0.2827 -0.8933
  872MOL0     H17681   9.244   7.431   0.467 -0.6813  2.0400  1.1661
  872MOL0     H17682   9.431   6.838   0.624  0.8116 -0.3602  0.2837
  872MOL0     H17683   9.575   6.702   0.462  0.4196  0.8400  0.6059
  872MOL0     H17684   9.697   6.797   0.119 -0.2198  1.8855 -0.0908
  872MOL0     H17685   9.817   6.910   0.181 -0.0206  0.7051 -0.1032
  872MOL0     H17686   9.864   6.633   0.100 -1.3612 -0.5610  1.5875
  872MOL0     H17687   9.934   6.785   0.029  0.5279 -2.0753 -1.6708
  872MOL0     H17688  10.051   6.822   0.250 -3.3832  0.8782  0.7693
  872MOL0     H17689   9.992   6.664   0.309 -0.0225 -0.9168 -0.6511
  872MOL0     H17690  10.180   6.710   0.072  0.7247  0.3567  0.9832
  872MOL0     H17691  10.124   6.547   0.120 -1.4158  0.8568 -3.2140
  872MOL0     H17692  10.222   6.629   0.365  0.7049 -1.9314  0.6554
  872MOL0     H17693  10.316   6.728   0.257  1.6133 -2.0422  0.8524
  872MOL0     H17694  10.415   6.543   0.314 -0.5897  2.6802  1.0154
  872MOL0     H17695  10.280   6.433   0.269  0.1497  1.6389  2.3533
  872MOL0     H17696  10.432   6.594   0.050 -1.9933  1.3519 -0.9452
  872MOL0     H17697  10.304   6.497   0.017  0.2338  0.8023 -0.9838
  872MOL0     H17698  10.561   6.393   0.149 -2.5786 -0.6054  5.6933
  872MOL0     H17699  10.417   6.307   0.143  2.7013 -1.2708  0.3352
  872MOL0     H17700   9.808   7.031   0.374 -1.6039  2.6676 -1.9355
  872MOL0     H17701   9.651   7.184   0.495 -0.6723  1.0405 -0.7070
  872MOL0     H17702   9.195   7.134   0.772 -0.6062  1.8019  3.4292
  872MOL0     H17703   8.953   7.195   0.777 -2.1209  0.1766 -2.8552
  872MOL0     H17704   7.354   7.021   0.072  1.0727  1.7312  1.7233
  872MOL0     H17705   7.168   6.843   0.008 -3.0265 -2.7079  0.7655
  872MOL0     H17706   6.891   6.605   0.092  0.5197  6.9088  1.5876
  872MOL0     H17707   6.791   6.383   0.012  0.5352 -0.1548 -0.7898
  872MOL0     H17708   6.418   6.228   0.043  0.5929 -1.0983 -0.5216
  872MOL0     H17709   6.486   6.368   0.141  0.1819  1.4742 -1.4472
  872MOL0     H17710   6.537   6.139   0.197  0.6747  1.5224  1.6837
  872MOL0     H17711   6.684   6.241   0.189  2.0240 -3.7232  1.2625
  872MOL0     H17712   6.665   6.141  -0.072  0.4699  0.0153  0.6418
  872MOL0     H17713   6.590   6.019   0.022 -0.0128 -0.7995  2.2059
  872MOL0     H17714   6.806   5.989   0.166  1.0878 -3.3544 -0.7125
  872MOL0     H17715   6.797   5.925   0.012  0.2368 -0.6349  1.0812
  872MOL0     H17716   7.080   6.222  -0.079  0.0614 -1.2624 -0.9814
  872MOL0     H17717   6.438   6.596  -0.105 -0.1898 -1.7975 -1.0169
  872MOL0     H17718   6.503   6.881   0.060 -2.8777 -0.6318  0.0828
  872MOL0     H17719   6.535   6.923  -0.109  0.2404  2.5979  3.7879
  872MOL0     H17720   6.399   6.824  -0.058 -1.5079  3.8638  0.5418
  873MOL0     O17721   1.196   7.510  10.407 -1.0625 -0.2823  0.3405
  873MOL0     C17722   1.074   7.536  10.377 -0.2950  0.9186  0.8161
  873MOL0     O17723   1.019   7.653  10.376  0.7128  0.5665  0.0316
  873MOL0     C17724   1.097   7.764  10.388  0.3718  0.9200 -0.6587
  873MOL0     C17725   1.143   7.839  10.274  0.0800 -0.3422 -0.1045
  873MOL0     C17726   1.224   7.951  10.292  0.3984 -0.1782  0.1238
  873MOL0     C17727   1.265   7.998  10.420  0.7980  0.0342  0.3799
  873MOL0     O17728   1.345   8.109  10.445  0.0651 -0.6328 -0.0279
  873MOL0     C17729   1.371   8.169  10.577  0.3743 -0.4415  0.6464
  873MOL0     C17730   1.489   8.263  10.561  0.4653 -0.5364  0.5279
  873MOL0     C17731   1.476   8.371  10.671  0.7843 -0.0007 -0.5275
  873MOL0     C17732   1.592   8.474  10.661 -0.1844 -0.7365 -1.2273
  873MOL0     C17733   1.582   8.574  10.783 -0.6470  1.3146  0.0570
  873MOL0     C17734   1.695   8.559  10.886  0.3944  0.1671 -0.3976
  873MOL0     C17735   1.675   8.645  11.016  0.4643 -1.0312  0.1325
  873MOL0     C17736   1.794   8.643  11.123  0.1845 -1.0035 -0.2929
  873MOL0     N17737   1.926   8.637  11.061 -0.6511  0.1308  0.6864
  873MOL0     C17738   1.998   8.513  11.055  0.5068 -0.3609 -0.3224
  873MOL0     C17739   2.113   8.537  10.992  0.1721  0.2912 -1.1431
  873MOL0     C17740   2.220   8.431  10.974  0.3316  0.7914 -0.5273
  873MOL0     C17741   2.305   8.446  10.850 -0.1982 -0.5445  0.1240
  873MOL0     C17742   2.233   8.427  10.716  0.0480  0.4262 -0.6999
  873MOL0     C17743   2.190   8.286  10.701  0.0583  0.5736 -0.5679
  873MOL0     O17744   2.052   8.270  10.757 -0.0815 -0.4536  0.5597
  873MOL0     C17745   1.993   8.148  10.725  0.3645 -0.6078 -0.4335
  873MOL0     C17746   1.857   8.121  10.765 -0.2137  0.2175 -0.6853
  873MOL0     C17747   1.790   8.003  10.743  0.1081 -0.6752 -1.0477
  873MOL0     C17748   1.840   7.909  10.649  0.0892 -0.6212  0.7742
  873MOL0     C17749   1.766   7.790  10.595 -0.5368  0.4544  0.0466
  873MOL0     O17750   1.816   7.730  10.487  0.5080 -0.0236  0.4161
  873MOL0     C17751   1.746   7.624  10.424  0.3825 -0.5507 -0.0641
  873MOL0     C17752   1.607   7.604  10.423  0.0374 -0.6218  0.1349
  873MOL0     C17753   1.560   7.507  10.341  0.6735 -0.4555  0.1540
  873MOL0     C17754   1.640   7.429  10.255 -0.1484  1.3626 -0.2485
  873MOL0     O17755   1.569   7.335  10.180  0.2699  1.3711  0.0753
  873MOL0     C17756   1.627   7.293  10.049 -0.8158 -0.2580  0.1533
  873MOL0     C17757   1.519   7.205   9.975 -0.3218 -0.4475 -0.2458
  873MOL0     C17758   1.427   7.135  10.072  0.2073  0.9107  0.5011
  873MOL0     C17759   1.313   7.061   9.997 -0.3831  0.5359  0.8507
  873MOL0     C17760   1.207   7.000  10.087  0.2769 -0.8229 -0.1646
  873MOL0     C17761   1.281   6.901  10.178  1.2402  0.6134  0.4651
  873MOL0     C17762   1.173   6.812  10.220  0.6194  0.8156  0.1059
  873MOL0     C17763   1.225   6.691  10.287 -0.1938  0.8080  0.6465
  873MOL0    Cl17764   1.299   6.740  10.447 -0.2883 -0.4087 -0.1337
  873MOL0     C17765   1.778   7.450  10.256  0.1691 -0.4263 -0.9489
  873MOL0     C17766   1.831   7.552  10.334 -0.5119  0.2044  0.0423
  873MOL0     O17767   1.671   7.743  10.657 -0.7852  0.0179  0.5745
  873MOL0     C17768   1.979   7.928  10.627 -0.7217  0.0334  0.4239
  873MOL0     C17769   2.056   8.037  10.668  1.1869  0.3669 -0.1844
  873MOL0     N17770   2.110   8.666  10.949 -0.4758  0.8310 -0.1244
  873MOL0     N17771   2.001   8.724  10.983  0.8286 -0.8980  0.0246
  873MOL0     C17772   1.225   7.912  10.524  0.4437 -0.6167 -0.1844
  873MOL0     C17773   1.145   7.800  10.511  0.9011 -0.4998 -0.6193
  873MOL0     C17774   0.989   7.421  10.364 -0.4808  0.2617  0.5068
  873MOL0     C17775   0.971   7.340  10.480 -0.2534 -0.1462 -0.5671
  873MOL0     C17776   0.906   7.216  10.466 -0.4621 -0.0302  0.7859
  873MOL0     C17777   0.864   7.178  10.339 -0.7248  0.1977  0.3104
  873MOL0     O17778   0.797   7.063  10.311  0.1828  0.2201  0.1893
  873MOL0     C17779   0.752   6.980  10.425 -0.2890 -0.0082  0.7338
  873MOL0     C17780   0.636   7.041  10.499  0.3951  0.4974  0.1955
  873MOL0     C17781   0.504   7.004  10.420 -0.1655 -0.1781 -0.5624
  873MOL0     C17782   0.377   7.040  10.501  1.2198 -0.6831 -0.4775
  873MOL0     C17783   0.298   6.918  10.525  1.2288 -0.6343  0.5112
  873MOL0     C17784   0.227   6.823  10.552  0.0517  0.1950 -0.2903
  873MOL0     C17785   0.896   7.248  10.229  0.1926  0.8246 -0.0624
  873MOL0     C17786   0.946   7.375  10.240 -0.4818 -0.4605  0.0700
  873MOL0     C17787   0.964   7.457  10.109  0.7045  0.3183 -0.4123
  873MOL0     H17788   1.104   7.803  10.180  0.0131 -1.2766  0.2673
  873MOL0     H17789   1.261   8.003  10.205  0.9360 -0.3485  0.2507
  873MOL0     H17790   1.279   8.217  10.611 -1.0798 -0.3812 -2.8994
  873MOL0     H17791   1.393   8.085  10.643 -2.8672 -2.9638 -1.1969
  873MOL0     H17792   1.489   8.301  10.458  2.3678 -5.5335 -1.6729
  873MOL0     H17793   1.580   8.203  10.565 -0.7104 -2.3645  0.8008
  873MOL0     H17794   1.461   8.327  10.770 -1.9741 -1.2748 -1.4277
  873MOL0     H17795   1.387   8.431  10.651  1.4994  0.2610 -3.3046
  873MOL0     H17796   1.684   8.416  10.668  0.6264  0.7224  3.4038
  873MOL0     H17797   1.595   8.516  10.560 -0.1456 -0.0457 -0.9384
  873MOL0     H17798   1.574   8.675  10.741  1.1584  0.8564 -1.5360
  873MOL0     H17799   1.487   8.554  10.834  0.3414 -0.4325  1.3380
  873MOL0     H17800   1.703   8.452  10.905  2.7662  0.4609  0.6313
  873MOL0     H17801   1.795   8.575  10.844  0.9721 -2.6691 -0.3129
  873MOL0     H17802   1.582   8.627  11.070  0.7713 -2.5046  0.2217
  873MOL0     H17803   1.662   8.750  10.987  1.6325 -0.6370  0.9483
  873MOL0     H17804   1.792   8.746  11.160  0.3805 -1.6961  1.7648
  873MOL0     H17805   1.788   8.558  11.191 -2.0847 -0.1882  0.6306
  873MOL0     H17806   1.984   8.417  11.103 -0.9771 -1.0909 -2.0900
  873MOL0     H17807   2.280   8.438  11.065 -1.2017 -0.1341  0.6158
  873MOL0     H17808   2.174   8.332  10.985  0.5905  0.9165  3.3588
  873MOL0     H17809   2.362   8.539  10.856 -3.3199  1.5413 -0.4066
  873MOL0     H17810   2.381   8.366  10.850 -2.7001 -3.1645 -2.1802
  873MOL0     H17811   2.307   8.432  10.635  0.6896 -3.6991 -0.5395
  873MOL0     H17812   2.140   8.485  10.709 -0.9806 -0.7538  1.9404
  873MOL0     H17813   2.261   8.210  10.733 -1.1503 -0.6230 -0.6486
  873MOL0     H17814   2.189   8.269  10.593  0.1034 -0.9643 -0.3475
  873MOL0     H17815   1.831   8.202  10.832  1.0614  1.6047 -1.8176
  873MOL0     H17816   1.690   7.994  10.784 -0.0196  3.0899 -0.1168
  873MOL0     H17817   1.539   7.665  10.482  1.5643  3.4781 -1.9374
  873MOL0     H17818   1.454   7.487  10.329  0.3420  0.1988  1.7225
  873MOL0     H17819   1.654   7.371   9.978  0.9287  0.2642  1.3139
  873MOL0     H17820   1.718   7.236  10.070  0.8244  1.0115 -2.8144
  873MOL0     H17821   1.468   7.270   9.903  1.2207  2.6077  1.2560
  873MOL0     H17822   1.571   7.136   9.907 -3.4863 -1.6663 -1.6643
  873MOL0     H17823   1.487   7.053  10.114  0.9948  0.2581 -1.7430
  873MOL0     H17824   1.381   7.207  10.140  0.4456  1.9307 -0.3973
  873MOL0     H17825   1.348   6.985   9.926  0.5964  2.6063 -1.0029
  873MOL0     H17826   1.261   7.135   9.936 -2.8931  0.1160  2.3285
  873MOL0     H17827   1.126   6.971  10.020  0.6051 -0.2944 -0.8153
  873MOL0     H17828   1.167   7.086  10.141 -2.1632  0.2305 -3.3588
  873MOL0     H17829   1.362   6.848  10.128  0.3201 -0.0817 -0.3313
  873MOL0     H17830   1.328   6.944  10.267 -1.9404 -0.7036  3.0020
  873MOL0     H17831   1.110   6.791  10.133  2.9329  1.1827 -1.7718
  873MOL0     H17832   1.111   6.858  10.297  2.2457 -0.3208  2.2344
  873MOL0     H17833   1.145   6.617  10.302 -2.5556  3.0400 -0.1556
  873MOL0     H17834   1.293   6.646  10.214 -2.6964  2.6641 -3.1493
  873MOL0     H17835   1.856   7.396  10.203  2.2581 -1.8479  3.1582
  873MOL0     H17836   1.939   7.559  10.326 -0.7102  1.4900 -4.8466
  873MOL0     H17837   2.030   7.847  10.575  0.7555  1.0654  0.2101
  873MOL0     H17838   2.158   8.024  10.634  1.2811  2.8784 -1.0498
  873MOL0     H17839   1.251   7.945  10.625 -0.9058  1.2588 -0.3803
  873MOL0     H17840   1.113   7.749  10.601  1.2186  2.1274  1.1123
  873MOL0     H17841   1.011   7.379  10.573 -1.1169  1.0182 -0.6544
  873MOL0     H17842   0.884   7.159  10.556  0.0173  0.1689  1.0345
  873MOL0     H17843   0.833   6.966  10.497  0.0334  0.6538  0.5121
  873MOL0     H17844   0.726   6.881  10.385 -0.4997  0.1423  0.4979
  873MOL0     H17845   0.641   7.148  10.521  0.1950  0.7000 -0.7003
  873MOL0     H17846   0.636   7.002  10.601  2.9995 -0.6284 -0.1613
  873MOL0     H17847   0.501   6.900  10.386  1.8425 -0.4086 -0.1485
  873MOL0     H17848   0.498   7.065  10.330 -0.8260 -0.1162 -0.4855
  873MOL0     H17849   0.405   7.090  10.594  1.3728 -0.5482 -0.5970
  873MOL0     H17850   0.309   7.107  10.448  1.9540  1.3506  1.0237
  873MOL0     H17851   0.188   6.724  10.568  1.3075 -0.5175 -1.4301
  873MOL0     H17852   0.862   7.221  10.130 -0.5084  3.7339 -0.7036
  873MOL0     H17853   0.870   7.473  10.055  0.4715 -4.0190 -1.6914
  873MOL0     H17854   1.013   7.551  10.133  0.9193 -0.4513  2.5170
  873MOL0     H17855   1.031   7.410  10.036 -2.1426 -2.9198 -1.2343
  874MOL0     O17856   7.156   8.928   6.704  0.3125  0.0393 -0.1331
  874MOL0     C17857   7.141   8.854   6.801 -0.6892 -0.4662 -0.7229
  874MOL0     O17858   7.079   8.731   6.801 -0.4435 -0.1598 -0.0971
  874MOL0     C17859   7.080   8.667   6.677  0.0932  0.9431 -0.9088
  874MOL0     C17860   7.195   8.651   6.610 -0.2506  1.2934  0.1394
  874MOL0     C17861   7.197   8.612   6.469 -0.0015  0.0323 -0.0812
  874MOL0     C17862   7.080   8.584   6.403  0.4595 -1.0971  0.1645
  874MOL0     O17863   7.078   8.549   6.263  0.4377  0.3889 -0.5131
  874MOL0     C17864   7.195   8.472   6.208 -0.7870  0.4019 -0.4258
  874MOL0     C17865   7.205   8.485   6.057 -0.2345  0.7836 -1.4758
  874MOL0     C17866   7.175   8.615   6.012  0.0702  0.4372  0.3862
  874MOL0     C17867   7.196   8.617   5.865  0.0207 -0.3320 -0.0221
  874MOL0     C17868   7.112   8.726   5.805 -0.0616 -0.2977 -0.1961
  874MOL0     C17869   7.136   8.752   5.649 -0.1464  0.6786  0.2142
  874MOL0     C17870   7.043   8.862   5.608 -0.3468 -0.2188 -0.2343
  874MOL0     C17871   7.062   8.917   5.462 -0.2126  0.7392 -0.5866
  874MOL0     N17872   6.954   9.002   5.424 -0.2115 -0.6306 -0.1008
  874MOL0     C17873   6.958   9.136   5.433  0.4544 -0.0690 -0.1327
  874MOL0     C17874   6.830   9.187   5.450  0.3877 -0.4866 -0.0794
  874MOL0     C17875   6.792   9.334   5.478  1.5146  0.9410 -0.4834
  874MOL0     C17876   6.714   9.411   5.369  0.7303  0.1652 -0.1144
  874MOL0     C17877   6.713   9.552   5.391  0.1212 -0.2675 -0.1711
  874MOL0     C17878   6.663   9.614   5.520  0.3388  1.2586 -0.2453
  874MOL0     O17879   6.659   9.758   5.498 -0.2571  1.0816  0.0314
  874MOL0     C17880   6.556   9.816   5.429  0.7369 -0.5022  0.2046
  874MOL0     C17881   6.541   9.953   5.435 -0.3598 -0.2937  0.1777
  874MOL0     C17882   6.425  10.019   5.383 -0.7285  0.2786 -0.3812
  874MOL0     C17883   6.319   9.941   5.334  0.3271 -0.0268 -0.1157
  874MOL0     C17884   6.190  10.020   5.304  0.4117  0.0425  0.6099
  874MOL0     O17885   6.200  10.156   5.289  0.1396 -0.0507  0.1022
  874MOL0     C17886   6.102  10.252   5.262  0.5937 -0.1751  0.4366
  874MOL0     C17887   6.031  10.258   5.143  0.7765 -0.3553  0.3442
  874MOL0     C17888   5.949  10.360   5.114  0.2335  0.0695 -0.2135
  874MOL0     C17889   5.926  10.455   5.212  1.0429 -0.0611  0.1958
  874MOL0     O17890   5.830  10.548   5.173 -0.0120  0.0056  0.0358
  874MOL0     C17891   5.755  10.603   5.282  1.5680 -1.0116 -1.1291
  874MOL0     C17892   5.613  10.622   5.227  0.7620 -0.3863 -0.4928
  874MOL0     C17893   5.522  10.689   5.331 -0.0002 -0.4594  0.0825
  874MOL0     C17894   5.368  10.656   5.302 -1.2442  0.5483 -0.1624
  874MOL0     C17895   5.282  10.752   5.375  0.9366  0.2739 -0.4715
  874MOL0     C17896   5.135  10.712   5.385 -1.0993  0.4911  0.1256
  874MOL0     C17897   5.050  10.818   5.458  0.1425 -0.5513  0.2004
  874MOL0     C17898   4.911  10.790   5.414 -0.6106 -0.2840  0.6632
  874MOL0    Cl17899   4.800  10.918   5.441 -0.3137  0.0160 -0.5285
  874MOL0     C17900   5.995  10.456   5.340  0.0417  0.4800 -0.5052
  874MOL0     C17901   6.079  10.351   5.365  0.4120  1.7185 -0.6465
  874MOL0     O17902   6.087   9.960   5.289  0.2699 -0.5756  0.1670
  874MOL0     C17903   6.327   9.804   5.329 -0.8471  0.0075 -0.2251
  874MOL0     C17904   6.453   9.746   5.371  0.3004  0.3120  0.3895
  874MOL0     N17905   6.747   9.076   5.434  0.9197 -0.7714 -0.0407
  874MOL0     N17906   6.827   8.966   5.428  0.7238 -0.5781 -0.2197
  874MOL0     C17907   6.962   8.576   6.475 -0.8732  0.0602 -0.4978
  874MOL0     C17908   6.962   8.621   6.619  0.0028 -0.2103  0.7344
  874MOL0     C17909   7.181   8.906   6.932  0.1338  0.4600  0.1661
  874MOL0     C17910   7.274   8.822   7.003 -0.6733 -0.3315 -0.2597
  874MOL0     C17911   7.338   8.867   7.115 -0.4237  0.5612 -0.1146
  874MOL0     C17912   7.308   8.993   7.168 -0.2593 -0.5317 -0.3385
  874MOL0     O17913   7.357   9.019   7.295 -0.1716  0.2605  0.0249
  874MOL0     C17914   7.304   9.123   7.379 -0.2137  0.9843 -0.5510
  874MOL0     C17915   7.406   9.245   7.382 -0.8012  0.1191 -0.1479
  874MOL0     C17916   7.536   9.221   7.451 -0.3437  0.6390  0.0100
  874MOL0     C17917   7.628   9.346   7.475 -0.1794 -0.5577 -0.0731
  874MOL0     C17918   7.707   9.406   7.362  0.1094  0.2075  0.9987
  874MOL0     C17919   7.767   9.436   7.259 -0.0606  0.1149  0.4199
  874MOL0     C17920   7.217   9.071   7.105  0.5137  0.9302  0.7693
  874MOL0     C17921   7.147   9.032   6.989  0.6549 -0.3274  0.0001
  874MOL0     C17922   7.040   9.121   6.941  0.6928  0.2291  0.8107
  874MOL0     H17923   7.280   8.670   6.675  0.8288 -2.2249 -0.0286
  874MOL0     H17924   7.294   8.623   6.423 -0.8050  1.5672 -1.5461
  874MOL0     H17925   7.284   8.514   6.256 -1.7593  0.6298  1.2640
  874MOL0     H17926   7.185   8.367   6.235 -2.9555  0.8599  0.8039
  874MOL0     H17927   7.124   8.422   6.018 -2.6939  2.2210  0.9774
  874MOL0     H17928   7.308   8.467   6.026 -0.1950 -0.8701 -0.5261
  874MOL0     H17929   7.253   8.679   6.056  0.6992 -1.7308  2.6326
  874MOL0     H17930   7.074   8.654   6.030 -0.0369  0.2579  0.1724
  874MOL0     H17931   7.302   8.644   5.858  0.4415 -1.2886  2.0057
  874MOL0     H17932   7.167   8.529   5.808 -0.4266  1.7605 -3.2604
  874MOL0     H17933   7.010   8.686   5.808  0.3196 -1.3422 -0.8326
  874MOL0     H17934   7.118   8.816   5.868 -3.1210 -2.0639  3.0494
  874MOL0     H17935   7.241   8.777   5.632 -0.2494  0.0776 -1.4827
  874MOL0     H17936   7.117   8.664   5.586 -0.0801  0.8594 -0.0622
  874MOL0     H17937   7.068   8.949   5.669 -3.2997  0.3649  0.2987
  874MOL0     H17938   6.936   8.854   5.629 -0.6115  2.7476 -0.0043
  874MOL0     H17939   7.153   8.975   5.441  1.4809 -0.4980  2.5859
  874MOL0     H17940   7.050   8.823   5.407 -0.9573  2.0710 -2.8389
  874MOL0     H17941   7.037   9.210   5.432 -2.8554  3.8540  0.8743
  874MOL0     H17942   6.721   9.308   5.557  2.4233  0.4009  0.1827
  874MOL0     H17943   6.887   9.380   5.508 -0.1035  3.8711  0.6245
  874MOL0     H17944   6.769   9.374   5.282  1.4971 -0.0184  0.4393
  874MOL0     H17945   6.614   9.369   5.358  1.4007 -1.0701 -2.1134
  874MOL0     H17946   6.649   9.604   5.319 -1.8939  3.6261  3.9398
  874MOL0     H17947   6.818   9.582   5.380  1.8056 -4.2410  2.6417
  874MOL0     H17948   6.749   9.595   5.585  2.9103  5.7307 -1.8778
  874MOL0     H17949   6.566   9.580   5.557 -0.6409  2.7494 -1.3209
  874MOL0     H17950   6.619  10.016   5.476 -0.2736 -0.1492 -0.2113
  874MOL0     H17951   6.411  10.126   5.389  2.5716  0.7645  0.8836
  874MOL0     H17952   6.033  10.193   5.056  1.0999  0.3570 -0.1880
  874MOL0     H17953   5.889  10.361   5.024  0.2728 -2.0225 -0.3167
  874MOL0     H17954   5.752  10.529   5.362  0.6764 -1.9147 -1.9806
  874MOL0     H17955   5.796  10.699   5.315  0.7035 -1.3429  1.0892
  874MOL0     H17956   5.621  10.688   5.141 -1.2664  0.6215  0.0175
  874MOL0     H17957   5.583  10.529   5.178  3.2645 -0.6621 -1.6323
  874MOL0     H17958   5.537  10.651   5.432 -0.9623 -2.2456 -0.4024
  874MOL0     H17959   5.548  10.795   5.341  1.5816 -0.8622  0.4265
  874MOL0     H17960   5.356  10.549   5.324  1.4627  0.1626 -0.1092
  874MOL0     H17961   5.349  10.669   5.195  0.5451  1.1992 -0.4415
  874MOL0     H17962   5.283  10.852   5.332 -2.8484  0.2570 -0.9508
  874MOL0     H17963   5.322  10.755   5.477 -0.1785 -0.6886  0.0184
  874MOL0     H17964   5.104  10.689   5.282  1.2898 -0.6587 -0.4130
  874MOL0     H17965   5.119  10.616   5.435  1.6529  1.2908  2.8684
  874MOL0     H17966   5.073  10.918   5.419  0.5883 -1.3560 -1.7145
  874MOL0     H17967   5.064  10.815   5.567  0.8681  4.7283  0.5022
  874MOL0     H17968   4.909  10.747   5.313 -0.6277 -1.6924  1.2412
  874MOL0     H17969   4.876  10.707   5.476 -1.0649 -0.0745  0.6958
  874MOL0     H17970   5.987  10.539   5.409  2.0224  0.3894 -0.1198
  874MOL0     H17971   6.142  10.355   5.453 -1.0965  0.0739  0.5724
  874MOL0     H17972   6.244   9.751   5.282 -0.4122  0.2065 -1.2463
  874MOL0     H17973   6.462   9.641   5.346  2.7035  0.4842  0.3229
  874MOL0     H17974   6.869   8.545   6.428 -1.5291  2.6167 -1.0291
  874MOL0     H17975   6.859   8.625   6.652 -0.8408 -0.8135 -1.5797
  874MOL0     H17976   7.321   8.735   6.959  0.9714  0.6444 -0.5113
  874MOL0     H17977   7.413   8.803   7.161  0.5057  0.5522 -1.5813
  874MOL0     H17978   7.299   9.083   7.481  1.6670  0.5890 -0.5765
  874MOL0     H17979   7.201   9.158   7.362 -1.7322 -1.7313  2.0905
  874MOL0     H17980   7.361   9.322   7.447  2.2003  1.6796  0.2560
  874MOL0     H17981   7.436   9.302   7.294  4.8194  1.7937  2.3805
  874MOL0     H17982   7.582   9.140   7.393  0.6560  1.2323 -0.0485
  874MOL0     H17983   7.519   9.178   7.551  0.9627 -1.6151 -0.6614
  874MOL0     H17984   7.562   9.422   7.518 -2.0261 -1.0749 -1.8533
  874MOL0     H17985   7.700   9.312   7.550  2.0914  0.2374 -1.7758
  874MOL0     H17986   7.827   9.431   7.170 -0.2383  2.1060  0.1458
  874MOL0     H17987   7.183   9.163   7.149 -2.8739  0.5961 -0.8794
  874MOL0     H17988   6.983   9.171   7.019 -1.1248 -0.0307 -0.2959
  874MOL0     H17989   7.083   9.197   6.875 -2.0109  0.0080 -1.4178
  874MOL0     H17990   6.969   9.069   6.876  1.2385 -1.3249  1.4216
  875MOL0     O17991   6.097   2.449   7.258  0.5830  0.4468 -0.0358
  875MOL0     C17992   6.212   2.497   7.244 -0.2543 -0.8421 -1.2020
  875MOL0     O17993   6.331   2.464   7.315  0.2602  1.0695 -0.3193
  875MOL0     C17994   6.322   2.359   7.415  0.4952 -0.9499  0.3453
  875MOL0     C17995   6.430   2.279   7.435 -0.5309 -0.1294  0.5228
  875MOL0     C17996   6.456   2.192   7.542 -0.0912  0.5899 -0.0343
  875MOL0     C17997   6.349   2.176   7.631 -0.7907 -0.6903 -0.2970
  875MOL0     O17998   6.365   2.101   7.745  0.5736  0.3780  0.4903
  875MOL0     C17999   6.292   1.975   7.743  0.9776 -0.5265  0.0836
  875MOL0     C18000   6.167   2.001   7.833  0.0086  0.7827  0.0993
  875MOL0     C18001   6.086   1.867   7.839  0.8114  0.1779 -0.4975
  875MOL0     C18002   6.017   1.828   7.713 -0.2379 -0.2066 -0.4982
  875MOL0     C18003   5.929   1.706   7.703  0.1849 -0.2395  0.0389
  875MOL0     C18004   5.818   1.710   7.587 -1.2925  0.2350  0.1098
  875MOL0     C18005   5.781   1.559   7.551 -0.3604 -0.9649  0.4365
  875MOL0     C18006   5.684   1.561   7.436 -0.6589 -0.2657 -0.7542
  875MOL0     N18007   5.663   1.436   7.385 -0.7205  0.9464 -0.5383
  875MOL0     C18008   5.762   1.349   7.349  0.9273 -0.3219 -0.6160
  875MOL0     C18009   5.696   1.230   7.319 -0.7802 -0.2672  0.2239
  875MOL0     C18010   5.763   1.109   7.259 -0.8197  0.0030 -0.7360
  875MOL0     C18011   5.921   1.109   7.256  0.1558  0.3594  0.2080
  875MOL0     C18012   5.939   1.002   7.142  0.2718  0.2843 -0.7215
  875MOL0     C18013   6.092   0.982   7.126  0.8247  0.3958  0.1399
  875MOL0     O18014   6.145   1.086   7.044  0.2989 -0.7629  0.4313
  875MOL0     C18015   6.148   1.066   6.905  0.3247 -0.8939 -0.6071
  875MOL0     C18016   6.093   0.968   6.821 -0.3568 -0.3694 -0.3984
  875MOL0     C18017   6.087   0.979   6.685  1.3526  0.8118  0.4938
  875MOL0     C18018   6.153   1.084   6.613  0.2835 -0.0451  0.0903
  875MOL0     C18019   6.140   1.106   6.469  0.4228 -0.2086 -0.5755
  875MOL0     O18020   6.037   1.026   6.411  0.4200  0.6569 -0.3149
  875MOL0     C18021   6.031   1.010   6.273 -0.4985  0.4024 -0.2553
  875MOL0     C18022   6.145   1.020   6.187 -0.1278 -0.6341  0.4485
  875MOL0     C18023   6.130   1.020   6.045  0.0269 -0.6806  0.6438
  875MOL0     C18024   6.003   0.996   5.985  0.0714 -0.3534  1.0002
  875MOL0     O18025   5.971   1.002   5.851  0.3483 -0.1563 -0.4167
  875MOL0     C18026   6.068   0.993   5.742  0.5919 -0.3157  0.3501
  875MOL0     C18027   5.995   0.888   5.643  0.8154  0.2369 -0.3637
  875MOL0     C18028   6.017   0.741   5.698  0.0943  0.0987  0.4204
  875MOL0     C18029   5.921   0.645   5.637  0.2096  0.2681  0.9039
  875MOL0     C18030   5.936   0.616   5.486  0.0296  0.8413 -1.1857
  875MOL0     C18031   5.874   0.479   5.434  0.1797  0.3583  0.0058
  875MOL0     C18032   5.912   0.459   5.288 -0.5833  0.2605 -0.0431
  875MOL0     C18033   5.883   0.312   5.245  0.7338 -0.0101  0.1372
  875MOL0    Cl18034   5.970   0.271   5.094 -0.1389  0.1636  0.1076
  875MOL0     C18035   5.896   0.962   6.074  0.4941  0.2210  1.0216
  875MOL0     C18036   5.911   0.982   6.211  0.5603  0.6692  0.4628
  875MOL0     O18037   6.215   1.180   6.414  0.1808 -0.3771 -0.2327
  875MOL0     C18038   6.215   1.175   6.696  0.1020  0.1750 -0.9668
  875MOL0     C18039   6.210   1.169   6.841 -0.2608 -0.2228  0.9602
  875MOL0     N18040   5.556   1.255   7.325 -0.5908  0.6371 -0.2361
  875MOL0     N18041   5.543   1.370   7.381 -0.2898  0.0351 -1.0906
  875MOL0     C18042   6.224   2.232   7.604  0.1416 -1.0925 -0.2991
  875MOL0     C18043   6.217   2.337   7.506 -0.5735  0.0360 -0.0142
  875MOL0     C18044   6.242   2.605   7.148  0.2229  0.7121  0.5266
  875MOL0     C18045   6.373   2.652   7.120  0.7710  0.0059  0.0914
  875MOL0     C18046   6.400   2.732   7.017 -0.6568  0.6483 -1.0835
  875MOL0     C18047   6.306   2.782   6.934 -0.1036 -0.6067  0.2826
  875MOL0     O18048   6.336   2.865   6.833  0.1202 -0.3505 -0.6459
  875MOL0     C18049   6.230   2.906   6.737  0.3466 -0.7705  0.2221
  875MOL0     C18050   6.301   2.994   6.629  1.0311  0.1114 -0.1885
  875MOL0     C18051   6.344   3.136   6.669  0.8342  0.4508 -1.3277
  875MOL0     C18052   6.367   3.230   6.549  0.0898 -0.4962 -0.3342
  875MOL0     C18053   6.495   3.234   6.487  0.4970  0.8546 -0.6280
  875MOL0     C18054   6.595   3.245   6.429 -0.0699  0.0823 -0.7383
  875MOL0     C18055   6.172   2.735   6.953  0.3557  0.7819  0.1621
  875MOL0     C18056   6.141   2.651   7.064  1.1034  0.5311  0.2060
  875MOL0     C18057   5.991   2.604   7.054 -0.1765  0.3076 -0.3958
  875MOL0     H18058   6.510   2.288   7.362 -0.0184 -1.0810  0.9403
  875MOL0     H18059   6.550   2.140   7.548 -1.1954 -1.5451 -0.2097
  875MOL0     H18060   6.268   1.957   7.637  2.8143 -0.6953 -0.3441
  875MOL0     H18061   6.340   1.882   7.774  0.0129 -0.8202  0.7536
  875MOL0     H18062   6.101   2.084   7.805 -2.2737 -1.2263 -0.8707
  875MOL0     H18063   6.202   2.021   7.935  1.6387 -3.1040  0.4486
  875MOL0     H18064   6.000   1.890   7.903  0.5246 -1.5309 -0.2258
  875MOL0     H18065   6.147   1.793   7.892  0.5712  2.3314  3.1229
  875MOL0     H18066   5.958   1.918   7.694 -1.3169 -0.5897  0.9127
  875MOL0     H18067   6.098   1.812   7.641  0.6242 -0.8289  0.5707
  875MOL0     H18068   5.995   1.620   7.689 -1.0171 -0.6937 -4.5526
  875MOL0     H18069   5.868   1.715   7.793  1.9155  0.2026  1.2116
  875MOL0     H18070   5.738   1.782   7.609 -1.1669  0.8254 -1.3001
  875MOL0     H18071   5.866   1.763   7.504  2.6195 -3.7719 -0.5907
  875MOL0     H18072   5.746   1.503   7.638  0.4120 -0.7460  0.8919
  875MOL0     H18073   5.874   1.506   7.533  0.5379  0.4530  0.7184
  875MOL0     H18074   5.594   1.607   7.479 -2.1953 -2.1589 -1.8145
  875MOL0     H18075   5.730   1.632   7.367 -2.6037  0.6701 -1.1879
  875MOL0     H18076   5.869   1.367   7.349  0.9424 -0.2252  1.2263
  875MOL0     H18077   5.725   1.026   7.320 -2.1987 -0.2941 -1.9630
  875MOL0     H18078   5.723   1.084   7.161 -2.5527  0.4019 -0.1654
  875MOL0     H18079   5.955   1.210   7.231 -3.1376  1.2518 -1.0647
  875MOL0     H18080   5.957   1.079   7.355  4.7194  0.2822 -1.2484
  875MOL0     H18081   5.901   1.024   7.041 -2.2287  1.2691  0.3555
  875MOL0     H18082   5.885   0.913   7.174 -3.8543  2.8543  0.2438
  875MOL0     H18083   6.122   0.886   7.082  1.3107  0.2739  0.7162
  875MOL0     H18084   6.134   1.002   7.225  0.6097 -0.6942  0.4731
  875MOL0     H18085   6.036   0.887   6.867  0.3546 -0.5759  0.1355
  875MOL0     H18086   6.036   0.898   6.634  0.8070  0.6503  1.2827
  875MOL0     H18087   6.246   1.026   6.228  0.2389 -3.9235  0.2948
  875MOL0     H18088   6.217   1.049   5.986 -1.8050 -0.5828 -2.2188
  875MOL0     H18089   6.079   1.094   5.700  2.3449  0.8212  3.2432
  875MOL0     H18090   6.166   0.954   5.770  0.4644  0.4737  1.9922
  875MOL0     H18091   5.891   0.921   5.650 -0.3414 -2.9140 -1.3156
  875MOL0     H18092   6.051   0.906   5.550  1.5731  0.7337  0.1815
  875MOL0     H18093   6.117   0.708   5.668  0.2423 -1.3997  2.3933
  875MOL0     H18094   6.010   0.724   5.806  2.0151  1.0923  0.7372
  875MOL0     H18095   5.819   0.675   5.661 -0.0284  0.3522 -0.1765
  875MOL0     H18096   5.953   0.551   5.683 -0.6504  0.6757  2.4224
  875MOL0     H18097   6.043   0.635   5.476  0.0535  1.7252  0.4146
  875MOL0     H18098   5.901   0.697   5.421 -2.2396 -1.0569 -2.4704
  875MOL0     H18099   5.907   0.389   5.487 -3.4315 -1.9908 -1.3403
  875MOL0     H18100   5.765   0.484   5.440  0.0949 -1.4917  0.6349
  875MOL0     H18101   6.019   0.482   5.285 -0.8586  2.4406  2.6381
  875MOL0     H18102   5.863   0.531   5.222  1.3264  0.8926 -0.8688
  875MOL0     H18103   5.911   0.229   5.311  0.3059  0.2825  0.6953
  875MOL0     H18104   5.775   0.320   5.230  0.2846  2.7419  3.6625
  875MOL0     H18105   5.809   0.924   6.023  2.5117  0.4791 -3.0730
  875MOL0     H18106   5.829   0.958   6.278  0.7241  0.6771  0.6682
  875MOL0     H18107   6.267   1.262   6.658  1.9486  1.0891  3.1670
  875MOL0     H18108   6.245   1.255   6.898  1.2278  0.5440 -0.9734
  875MOL0     H18109   6.132   2.240   7.661  0.4639  2.7266 -0.0950
  875MOL0     H18110   6.130   2.399   7.490 -0.0512 -0.0623 -4.2799
  875MOL0     H18111   6.446   2.623   7.195  1.1528 -0.9304 -0.6343
  875MOL0     H18112   6.506   2.752   7.001 -0.2900 -1.2594 -1.2176
  875MOL0     H18113   6.150   2.968   6.780  1.1484  0.1218  0.4535
  875MOL0     H18114   6.189   2.821   6.681 -3.0210  2.3061 -2.4413
  875MOL0     H18115   6.237   2.980   6.542  0.9247  1.8446 -0.4169
  875MOL0     H18116   6.394   2.948   6.594 -0.3402 -1.8735 -1.4069
  875MOL0     H18117   6.437   3.126   6.726  0.0176  1.2429  0.1802
  875MOL0     H18118   6.274   3.185   6.737  0.6142 -2.3694  0.6228
  875MOL0     H18119   6.299   3.204   6.467 -1.3203  0.3566  0.5372
  875MOL0     H18120   6.348   3.332   6.583  2.6142  1.0295 -3.0521
  875MOL0     H18121   6.689   3.269   6.383 -0.1829  3.3868  0.4643
  875MOL0     H18122   6.098   2.773   6.883 -0.2363  1.8061  1.3179
  875MOL0     H18123   5.974   2.497   7.039 -1.8470  0.3098  1.1207
  875MOL0     H18124   5.941   2.631   7.147 -0.1996 -2.9481  0.6653
  875MOL0     H18125   5.924   2.639   6.975 -2.4985  0.1534  1.3923
  876MOL0     O18126  11.480   7.635   1.026  0.6079  0.0953  0.1671
  876MOL0     C18127  11.506   7.581   1.133 -0.0567 -0.7072 -0.6254
  876MOL0     O18128  11.634   7.574   1.192 -0.0432 -0.1434 -0.2334
  876MOL0     C18129  11.738   7.615   1.108 -0.8514  0.5290 -0.0009
  876MOL0     C18130  11.751   7.559   0.980 -0.3294 -0.8656  0.1026
  876MOL0     C18131  11.854   7.609   0.892  0.1207 -1.0155 -0.1625
  876MOL0     C18132  11.939   7.714   0.936 -0.3869 -0.3409 -0.5391
  876MOL0     O18133  12.054   7.770   0.875  0.1722 -0.5132 -0.1002
  876MOL0     C18134  12.050   7.755   0.734  0.5533 -0.6594  0.6749
  876MOL0     C18135  12.091   7.623   0.673 -0.8824 -0.7723 -0.1094
  876MOL0     C18136  12.229   7.640   0.594 -0.5114  0.2637 -0.0541
  876MOL0     C18137  12.276   7.523   0.501  0.3749  0.8046 -0.5256
  876MOL0     C18138  12.249   7.375   0.557 -0.2830 -1.3101  0.3276
  876MOL0     C18139  12.305   7.270   0.465  1.1194 -0.4892  0.5899
  876MOL0     C18140  12.283   7.134   0.534 -0.9083  0.6266 -0.8950
  876MOL0     C18141  12.379   7.040   0.465  0.4779 -0.0285  0.4518
  876MOL0     N18142  12.367   7.034   0.312 -0.8682 -0.4286 -0.0312
  876MOL0     C18143  12.280   6.950   0.247  1.2001 -0.4131  1.4135
  876MOL0     C18144  12.309   6.960   0.117  0.1440 -0.3908 -0.0047
  876MOL0     C18145  12.247   6.890  -0.004 -0.3405  0.5801 -0.1318
  876MOL0     C18146  12.170   6.767   0.050 -0.1999 -0.8646  0.6554
  876MOL0     C18147  12.136   6.672  -0.063  0.7172 -0.3831  0.7182
  876MOL0     C18148  12.007   6.706  -0.141  0.0660  0.7689 -0.4992
  876MOL0     O18149  11.985   6.589  -0.229  0.5921 -0.1677  0.6112
  876MOL0     C18150  11.857   6.586  -0.274  0.3142 -0.0303  0.6778
  876MOL0     C18151  11.831   6.603  -0.406 -0.7775  0.4691 -0.7392
  876MOL0     C18152  11.701   6.608  -0.454 -0.8674  0.5555  0.2509
  876MOL0     C18153  11.589   6.582  -0.371  0.6657  0.1605  0.5332
  876MOL0     C18154  11.452   6.578  -0.421 -0.0405 -1.1036 -0.4311
  876MOL0     O18155  11.362   6.524  -0.332 -0.5138 -0.1826  0.1005
  876MOL0     C18156  11.248   6.508  -0.389 -0.3513  0.4898  0.1824
  876MOL0     C18157  11.153   6.603  -0.388 -0.7429 -0.3148  0.3531
  876MOL0     C18158  11.023   6.571  -0.435 -0.8629  0.5982  0.0510
  876MOL0     C18159  11.003   6.441  -0.473  0.0348 -0.3039  1.3824
  876MOL0     O18160  10.879   6.391  -0.497 -0.0916  0.0800  1.3138
  876MOL0     C18161  10.778   6.427  -0.399  0.5906 -0.4040 -0.1435
  876MOL0     C18162  10.656   6.343  -0.412 -0.1416  0.4353  1.2422
  876MOL0     C18163  10.689   6.191  -0.404  0.1442  0.5789  0.7196
  876MOL0     C18164  10.564   6.121  -0.464 -0.2751  0.2197 -0.0104
  876MOL0     C18165  10.581   5.968  -0.495 -1.1589  0.0329 -0.7994
  876MOL0     C18166  10.711   5.937  -0.584  0.4972  0.1048  0.5119
  876MOL0     C18167  10.706   5.813  -0.680 -0.0605  0.7267  0.9243
  876MOL0     C18168  10.683   5.677  -0.619 -1.3397 -0.2815 -0.1993
  876MOL0    Cl18169  10.511   5.627  -0.581  0.3238 -0.4668 -0.2733
  876MOL0     C18170  11.103   6.340  -0.453  0.0961  0.1895  0.2822
  876MOL0     C18171  11.230   6.378  -0.424 -0.5436 -0.5772 -0.4094
  876MOL0     O18172  11.434   6.603  -0.542 -0.6191  0.2352 -0.4170
  876MOL0     C18173  11.614   6.564  -0.239 -0.4358 -0.1202  0.2828
  876MOL0     C18174  11.752   6.566  -0.183  0.0281 -1.0282  1.0594
  876MOL0     N18175  12.419   7.052   0.103 -0.3912  0.0954 -0.5233
  876MOL0     N18176  12.447   7.090   0.221 -0.8402  0.5420 -0.6755
  876MOL0     C18177  11.922   7.761   1.066  0.4288  0.1555 -0.0239
  876MOL0     C18178  11.824   7.706   1.146 -0.1990 -0.7329  0.1085
  876MOL0     C18179  11.410   7.549   1.236 -0.1236  0.7800  0.3124
  876MOL0     C18180  11.433   7.585   1.368 -0.2831 -0.2805 -0.9222
  876MOL0     C18181  11.330   7.574   1.456  0.5045  0.2092 -1.2737
  876MOL0     C18182  11.203   7.522   1.432  0.1631  0.6563 -0.2587
  876MOL0     O18183  11.097   7.518   1.528  0.0816 -0.5963  0.8199
  876MOL0     C18184  10.963   7.557   1.484 -0.4831  1.1560  0.9601
  876MOL0     C18185  10.850   7.518   1.586  1.3617 -0.2914  0.3166
  876MOL0     C18186  10.875   7.584   1.723 -0.1823 -0.0730  0.5005
  876MOL0     C18187  10.744   7.617   1.802 -0.5646  0.1869  0.3043
  876MOL0     C18188  10.628   7.672   1.729  0.0982 -0.1881  0.3025
  876MOL0     C18189  10.530   7.706   1.662 -0.1365 -0.3348  0.4675
  876MOL0     C18190  11.198   7.468   1.297  0.0822  0.4332 -0.2448
  876MOL0     C18191  11.292   7.482   1.193 -0.5963 -0.4313 -0.7490
  876MOL0     C18192  11.255   7.415   1.060 -0.3051 -0.0757  0.1177
  876MOL0     H18193  11.669   7.492   0.956 -0.5333 -2.0359  3.5196
  876MOL0     H18194  11.858   7.564   0.793 -3.2270  0.5894 -1.1838
  876MOL0     H18195  11.953   7.787   0.693  1.2102 -1.8610 -2.0245
  876MOL0     H18196  12.105   7.842   0.697 -2.6229  0.4379 -1.9483
  876MOL0     H18197  12.010   7.592   0.606 -1.1813  3.5870 -2.1034
  876MOL0     H18198  12.109   7.544   0.746 -1.9130  0.7296  1.8476
  876MOL0     H18199  12.305   7.673   0.665 -1.9008  1.1012  1.1029
  876MOL0     H18200  12.220   7.721   0.521  5.0723  0.8905 -0.4641
  876MOL0     H18201  12.233   7.528   0.400 -0.3943 -1.3170 -0.3676
  876MOL0     H18202  12.385   7.531   0.489  0.7015  0.7023  1.8647
  876MOL0     H18203  12.305   7.360   0.650  0.7665 -2.2743 -0.4356
  876MOL0     H18204  12.141   7.361   0.566 -1.2156  1.2122 -4.0429
  876MOL0     H18205  12.249   7.278   0.371 -1.5053  3.0601  2.2478
  876MOL0     H18206  12.405   7.298   0.430  0.4814 -1.9973 -2.9266
  876MOL0     H18207  12.181   7.096   0.520 -1.2268  0.8717  0.5851
  876MOL0     H18208  12.304   7.129   0.641 -1.2519  1.9852 -0.7531
  876MOL0     H18209  12.482   7.075   0.476  0.4476  0.4303 -0.5734
  876MOL0     H18210  12.373   6.939   0.507  0.4335  0.2133  1.0346
  876MOL0     H18211  12.196   6.894   0.287  1.9034 -0.5725  2.7372
  876MOL0     H18212  12.167   6.957  -0.037 -4.1255 -1.5597  3.6368
  876MOL0     H18213  12.313   6.875  -0.090  0.4085  1.3645  0.2962
  876MOL0     H18214  12.220   6.720   0.135 -0.5041  2.8783  3.1381
  876MOL0     H18215  12.077   6.801   0.096  0.1956 -0.1879  0.9821
  876MOL0     H18216  12.131   6.568  -0.030  0.5828 -2.9324 -5.8555
  876MOL0     H18217  12.207   6.678  -0.146 -0.3580 -1.1225 -0.2844
  876MOL0     H18218  12.013   6.803  -0.191  0.2836  2.0203  1.8123
  876MOL0     H18219  11.931   6.712  -0.063 -1.4218 -1.1748 -1.6920
  876MOL0     H18220  11.914   6.612  -0.475 -1.8906  0.1211 -2.1980
  876MOL0     H18221  11.678   6.616  -0.560 -0.1186  0.5602  0.0806
  876MOL0     H18222  11.171   6.704  -0.353 -2.2183  0.7829 -1.7951
  876MOL0     H18223  10.954   6.655  -0.426 -0.9957  0.3785  1.2075
  876MOL0     H18224  10.818   6.415  -0.297 -3.4344  0.3853  1.7144
  876MOL0     H18225  10.745   6.530  -0.411 -3.4634 -1.8361 -4.4290
  876MOL0     H18226  10.590   6.381  -0.333 -1.5022 -1.1028  0.8980
  876MOL0     H18227  10.597   6.371  -0.499  0.4781 -0.1154  0.6282
  876MOL0     H18228  10.772   6.166  -0.470  0.8405  2.9273  0.6193
  876MOL0     H18229  10.701   6.158  -0.300 -1.6005 -0.6932  0.5755
  876MOL0     H18230  10.567   6.166  -0.564  2.6188 -2.1880 -1.1744
  876MOL0     H18231  10.476   6.140  -0.403 -0.8260  0.5940 -0.9089
  876MOL0     H18232  10.490   5.934  -0.545 -1.4431 -1.2386  0.5205
  876MOL0     H18233  10.594   5.922  -0.397  2.2809 -0.3705 -1.3247
  876MOL0     H18234  10.727   6.016  -0.658  0.3527  0.3252  0.7148
  876MOL0     H18235  10.797   5.929  -0.517 -1.3274 -0.6470  2.9127
  876MOL0     H18236  10.808   5.805  -0.719  0.6503  2.6795  2.2061
  876MOL0     H18237  10.642   5.829  -0.767 -0.5954 -1.0887  0.9468
  876MOL0     H18238  10.733   5.605  -0.685  2.3270  0.7129  1.2499
  876MOL0     H18239  10.739   5.691  -0.526 -1.5615  1.7799 -0.3194
  876MOL0     H18240  11.087   6.235  -0.477 -0.9501  0.5040 -0.5047
  876MOL0     H18241  11.317   6.313  -0.428  1.7194  2.3159 -1.7194
  876MOL0     H18242  11.542   6.540  -0.161  2.4174  0.7610  3.4198
  876MOL0     H18243  11.767   6.525  -0.083 -0.7141 -4.9654 -0.2731
  876MOL0     H18244  11.978   7.846   1.101  0.1374  0.1730  0.4152
  876MOL0     H18245  11.808   7.749   1.244 -2.2786  1.6301 -1.1634
  876MOL0     H18246  11.530   7.626   1.394 -0.9160  0.3216  0.6101
  876MOL0     H18247  11.329   7.632   1.548  0.7026 -3.1593  1.0385
  876MOL0     H18248  10.942   7.501   1.393 -0.6164 -0.7409  2.1160
  876MOL0     H18249  10.960   7.666   1.469 -0.2126  0.8406 -2.1738
  876MOL0     H18250  10.843   7.410   1.602  3.9052 -0.3847  1.2202
  876MOL0     H18251  10.757   7.550   1.537  3.4570  2.8924 -2.0268
  876MOL0     H18252  10.916   7.680   1.691 -0.5415 -0.3202 -0.7190
  876MOL0     H18253  10.956   7.534   1.778 -0.2521 -1.7883 -0.8567
  876MOL0     H18254  10.701   7.539   1.865 -2.7976  0.8759 -0.2780
  876MOL0     H18255  10.777   7.692   1.876 -0.1466 -0.5049  0.8344
  876MOL0     H18256  10.437   7.722   1.610 -2.4450 -0.7396  4.0521
  876MOL0     H18257  11.111   7.411   1.269 -0.7847 -0.6357  3.9409
  876MOL0     H18258  11.329   7.415   0.979  0.9326 -3.5470  1.0417
  876MOL0     H18259  11.226   7.311   1.079 -3.2526  0.6689  0.1601
  876MOL0     H18260  11.167   7.462   1.015  0.5806 -1.0177 -2.8762
  877MOL0     O18261   6.935   9.705   2.868 -0.4783  0.1059  0.1526
  877MOL0     C18262   7.027   9.630   2.893 -0.6195 -1.0859 -0.2522
  877MOL0     O18263   7.133   9.650   2.986  0.7223 -0.7135  0.9635
  877MOL0     C18264   7.148   9.769   3.049  0.7111 -0.1456  0.4698
  877MOL0     C18265   7.047   9.863   3.071  0.2018 -0.2697  0.1387
  877MOL0     C18266   7.070   9.984   3.123 -0.5419 -0.8938 -1.0061
  877MOL0     C18267   7.204  10.033   3.142 -0.2034  0.1596 -0.4466
  877MOL0     O18268   7.228  10.161   3.195  0.2376  0.3499  0.6662
  877MOL0     C18269   7.367  10.194   3.229 -0.5465 -1.4693  0.8542
  877MOL0     C18270   7.366  10.328   3.311 -0.9797  0.9032  0.2000
  877MOL0     C18271   7.345  10.459   3.232 -1.0402  0.2044 -0.8546
  877MOL0     C18272   7.480  10.521   3.198 -0.0434  0.3580  0.6196
  877MOL0     C18273   7.448  10.644   3.120  0.4393 -0.0550  0.6488
  877MOL0     C18274   7.584  10.714   3.091  0.4979  0.8708 -0.2767
  877MOL0     C18275   7.591  10.842   3.016 -0.3096  0.5188  0.6342
  877MOL0     C18276   7.534  10.955   3.109 -0.5191  0.7553  1.0034
  877MOL0     N18277   7.615  10.981   3.225 -0.4115  0.8172 -0.2086
  877MOL0     C18278   7.564  11.003   3.346 -0.2774  0.4431 -0.4427
  877MOL0     C18279   7.674  10.998   3.430  0.4508 -0.1259 -0.0761
  877MOL0     C18280   7.686  11.024   3.575  1.1281 -0.1881  0.7328
  877MOL0     C18281   7.617  10.914   3.649  0.5401  0.3343 -0.8120
  877MOL0     C18282   7.709  10.804   3.680  1.3913  0.4374 -0.9728
  877MOL0     C18283   7.648  10.689   3.765  0.0638  0.0740  0.0086
  877MOL0     O18284   7.501  10.695   3.784 -0.5149  0.0013  0.5780
  877MOL0     C18285   7.460  10.653   3.898  0.3369  0.0744 -1.0488
  877MOL0     C18286   7.483  10.735   4.013  0.3259  0.4530  0.0123
  877MOL0     C18287   7.441  10.691   4.139  0.6115  1.0927 -0.6278
  877MOL0     C18288   7.375  10.559   4.151  0.7380 -0.9053  0.1556
  877MOL0     C18289   7.327  10.506   4.284 -0.3790  0.0813 -0.1375
  877MOL0     O18290   7.312  10.600   4.382 -0.2524 -0.2514  0.1497
  877MOL0     C18291   7.280  10.555   4.515  0.2024  0.0936  0.1862
  877MOL0     C18292   7.237  10.651   4.604 -0.3580 -0.7337  1.5463
  877MOL0     C18293   7.190  10.612   4.730 -1.3740  0.0283 -0.2079
  877MOL0     C18294   7.185  10.479   4.771  0.7204  0.2088  0.1126
  877MOL0     O18295   7.144  10.432   4.895 -0.7550 -0.7338  0.4201
  877MOL0     C18296   7.078  10.306   4.893  0.3102  0.1297  0.7653
  877MOL0     C18297   7.020  10.287   5.033  0.3469  0.7761  0.3869
  877MOL0     C18298   6.922  10.386   5.079  1.1192 -0.5525 -0.1616
  877MOL0     C18299   6.780  10.378   5.030  0.2109  0.0403 -0.7786
  877MOL0     C18300   6.695  10.499   5.084  0.2547 -0.5415  0.5590
  877MOL0     C18301   6.681  10.498   5.240 -0.7206  0.2955 -0.1473
  877MOL0     C18302   6.563  10.588   5.297 -0.7226  0.3598  0.1551
  877MOL0     C18303   6.494  10.516   5.413 -0.4668  0.0235 -0.0261
  877MOL0    Cl18304   6.338  10.597   5.454 -0.2350  0.0323  0.1460
  877MOL0     C18305   7.258  10.395   4.691 -0.1994  0.8944  0.0306
  877MOL0     C18306   7.312  10.430   4.569  0.7217  0.0152  0.7558
  877MOL0     O18307   7.282  10.390   4.286 -0.2305  0.5026 -0.5025
  877MOL0     C18308   7.355  10.485   4.035 -0.2254 -0.2300 -0.2608
  877MOL0     C18309   7.397  10.529   3.913  0.5845 -0.0761  1.0295
  877MOL0     N18310   7.781  10.958   3.353 -0.8048  0.8779 -0.7357
  877MOL0     N18311   7.749  10.951   3.231  0.0285  0.5988 -0.0175
  877MOL0     C18312   7.310   9.945   3.112  0.2839  0.5182  0.2712
  877MOL0     C18313   7.281   9.809   3.071  0.7849 -0.1535  0.6593
  877MOL0     C18314   7.019   9.509   2.820  0.0671 -0.5032 -0.8742
  877MOL0     C18315   6.910   9.419   2.826 -0.3769  0.0125 -0.0461
  877MOL0     C18316   6.902   9.300   2.753 -0.0750 -0.3906 -0.4612
  877MOL0     C18317   7.004   9.260   2.665  1.0598  0.5101 -0.4773
  877MOL0     O18318   6.991   9.163   2.570  0.1711 -0.5393 -0.5792
  877MOL0     C18319   6.869   9.087   2.560 -0.3069 -0.0127  0.1344
  877MOL0     C18320   6.915   8.949   2.507 -0.3866  0.5115  0.0260
  877MOL0     C18321   7.042   8.895   2.584  0.3966 -0.5408  0.6945
  877MOL0     C18322   7.074   8.752   2.563  0.2887 -0.3465  0.2711
  877MOL0     C18323   7.203   8.717   2.624  0.2419 -0.8030 -0.0515
  877MOL0     C18324   7.310   8.690   2.672 -0.5390 -0.6447 -0.5996
  877MOL0     C18325   7.117   9.342   2.658  0.2287 -0.5111 -0.2266
  877MOL0     C18326   7.132   9.473   2.739 -0.7303  0.0269  0.4900
  877MOL0     C18327   7.245   9.558   2.703 -1.0031 -0.5227  0.1214
  877MOL0     H18328   6.944   9.828   3.065  0.1058  0.2483 -1.8000
  877MOL0     H18329   6.994  10.052   3.161  0.9742 -0.4638  1.5534
  877MOL0     H18330   7.414  10.127   3.302  2.1749  0.5042  1.0599
  877MOL0     H18331   7.426  10.212   3.139 -0.9357  0.4450  0.9441
  877MOL0     H18332   7.461  10.339   3.364  1.2078  0.8042 -3.3612
  877MOL0     H18333   7.284  10.317   3.383  1.4930  3.6691  3.7841
  877MOL0     H18334   7.312  10.532   3.307  3.8177  0.0747  1.7886
  877MOL0     H18335   7.279  10.445   3.146 -0.5084 -1.4143 -1.0368
  877MOL0     H18336   7.538  10.538   3.289  3.6641 -1.6542 -1.1735
  877MOL0     H18337   7.528  10.447   3.134  4.2756 -1.4532  5.2997
  877MOL0     H18338   7.410  10.626   3.019  1.6088  2.7648 -0.3713
  877MOL0     H18339   7.377  10.716   3.161 -0.6087  0.0484 -1.2295
  877MOL0     H18340   7.655  10.723   3.174  0.5151  0.5415 -0.2531
  877MOL0     H18341   7.650  10.650   3.031  2.9853 -0.3374  3.4052
  877MOL0     H18342   7.524  10.829   2.931 -1.3919 -4.8195  1.9250
  877MOL0     H18343   7.693  10.870   2.989  0.4543 -2.4523  0.1628
  877MOL0     H18344   7.514  11.041   3.044  2.8014  0.8766 -0.0699
  877MOL0     H18345   7.434  10.925   3.139 -1.2915  1.5118 -0.6835
  877MOL0     H18346   7.462  11.012   3.383 -0.5465  1.6654 -1.4016
  877MOL0     H18347   7.788  11.044   3.609  1.4934  0.5744 -0.7074
  877MOL0     H18348   7.627  11.116   3.579  0.6519 -0.3774 -1.0765
  877MOL0     H18349   7.583  10.952   3.746  2.3167 -0.1556  0.0374
  877MOL0     H18350   7.528  10.869   3.604  2.3315 -1.9752 -2.1881
  877MOL0     H18351   7.798  10.844   3.730  1.8824 -2.4903  0.7127
  877MOL0     H18352   7.750  10.762   3.588  3.6663  1.5469 -0.5237
  877MOL0     H18353   7.697  10.694   3.862 -0.8755  2.5919  0.4454
  877MOL0     H18354   7.673  10.590   3.727 -2.2307  0.0899 -1.8065
  877MOL0     H18355   7.536  10.829   4.003  0.8692  0.0191 -1.4920
  877MOL0     H18356   7.458  10.755   4.225  2.5842 -2.1570  1.6417
  877MOL0     H18357   7.226  10.748   4.557  1.2960 -1.5084 -0.6374
  877MOL0     H18358   7.146  10.690   4.792 -1.2057  1.5380 -1.9139
  877MOL0     H18359   6.991  10.299   4.828  1.0126 -2.7139 -0.0275
  877MOL0     H18360   7.145  10.223   4.867 -0.8680 -0.6982  0.2934
  877MOL0     H18361   6.975  10.188   5.045  3.3633 -1.2747 -2.9279
  877MOL0     H18362   7.110  10.281   5.095 -1.8705 -0.7850  3.7058
  877MOL0     H18363   6.923  10.377   5.188  0.5554  0.7596 -0.0344
  877MOL0     H18364   6.953  10.486   5.049  1.4259 -1.4012 -2.9511
  877MOL0     H18365   6.727  10.286   5.057 -0.8779 -0.0127 -2.8354
  877MOL0     H18366   6.783  10.367   4.921 -1.6654  1.4490 -1.0234
  877MOL0     H18367   6.594  10.490   5.044  0.3724 -1.1865  0.3976
  877MOL0     H18368   6.727  10.600   5.055  2.2373 -1.1638  0.4646
  877MOL0     H18369   6.660  10.397   5.275 -1.7641 -0.4219 -2.6332
  877MOL0     H18370   6.774  10.533   5.284  0.0579 -1.2866 -0.4661
  877MOL0     H18371   6.492  10.618   5.219 -1.2280 -1.1433 -0.0024
  877MOL0     H18372   6.613  10.680   5.329 -1.0655  1.2308 -1.6581
  877MOL0     H18373   6.468  10.417   5.375  1.7220 -0.7968  0.5020
  877MOL0     H18374   6.556  10.508   5.502 -2.2997 -1.9050  1.1772
  877MOL0     H18375   7.281  10.294   4.724  2.0217  0.8208 -1.5432
  877MOL0     H18376   7.386  10.364   4.524  0.7480  1.0645 -0.8134
  877MOL0     H18377   7.319  10.383   4.038  1.6275 -0.8976  0.2319
  877MOL0     H18378   7.388  10.461   3.828 -2.9487  0.6481  0.6428
  877MOL0     H18379   7.410   9.962   3.152  0.9824  1.2239 -1.6571
  877MOL0     H18380   7.349   9.724   3.069  0.4120 -0.4653  1.1011
  877MOL0     H18381   6.827   9.445   2.891 -0.2527  1.9861 -0.6037
  877MOL0     H18382   6.813   9.239   2.761 -0.7147  0.5996  0.1199
  877MOL0     H18383   6.806   9.146   2.493 -0.5379 -0.3409  0.0577
  877MOL0     H18384   6.829   9.055   2.657  1.4062 -0.5597  0.7041
  877MOL0     H18385   6.936   8.951   2.400  1.0727  1.4753  0.3126
  877MOL0     H18386   6.832   8.878   2.517 -0.2021  0.3340  0.2942
  877MOL0     H18387   7.009   8.896   2.688 -0.5222 -0.3806  0.4117
  877MOL0     H18388   7.132   8.952   2.559  0.0935 -1.1808 -2.3105
  877MOL0     H18389   6.987   8.691   2.591  0.8218 -1.8853 -1.2343
  877MOL0     H18390   7.078   8.740   2.455  1.1361  4.7201 -0.4707
  877MOL0     H18391   7.407   8.668   2.711 -2.0685 -2.4315  2.6028
  877MOL0     H18392   7.185   9.328   2.575 -1.0899  0.7320 -1.5801
  877MOL0     H18393   7.334   9.504   2.738  1.2329 -0.3669 -4.4675
  877MOL0     H18394   7.259   9.580   2.597  0.2480 -0.5587  0.2538
  877MOL0     H18395   7.251   9.659   2.744  2.6307 -1.2432  1.7977
  878MOL0     O18396   4.661   0.155   5.404  0.4001 -0.1037  0.0364
  878MOL0     C18397   4.704   0.220   5.502  0.8464  0.5568 -0.0914
  878MOL0     O18398   4.639   0.323   5.561  0.5763  0.2604 -0.0502
  878MOL0     C18399   4.528   0.373   5.490  0.1492  0.8131 -0.1528
  878MOL0     C18400   4.541   0.505   5.460  0.1959  0.5629  0.2776
  878MOL0     C18401   4.425   0.583   5.410  0.2850  0.0628  0.2395
  878MOL0     C18402   4.305   0.514   5.392  0.0781  0.1387  0.1763
  878MOL0     O18403   4.197   0.589   5.355 -0.3715 -0.7214 -0.2687
  878MOL0     C18404   4.070   0.532   5.344 -0.0193 -0.0958 -0.5743
  878MOL0     C18405   3.994   0.639   5.263  0.7334 -0.5263  0.3010
  878MOL0     C18406   3.852   0.602   5.240 -0.1975  0.4889 -0.6914
  878MOL0     C18407   3.830   0.540   5.103 -0.2859 -0.1642  0.0307
  878MOL0     C18408   3.681   0.529   5.063 -0.1937 -0.0231  0.0607
  878MOL0     C18409   3.618   0.665   5.044 -0.7186  0.1871  0.7190
  878MOL0     C18410   3.488   0.657   4.963 -1.4606  0.6881 -0.2266
  878MOL0     C18411   3.428   0.791   4.970 -0.4735 -1.2666  0.1570
  878MOL0     N18412   3.299   0.808   4.907 -0.0317 -0.7984 -0.0014
  878MOL0     C18413   3.266   0.804   4.771  0.2517 -0.0983  0.4213
  878MOL0     C18414   3.129   0.823   4.772  0.5753 -0.2910  0.7440
  878MOL0     C18415   3.045   0.864   4.657 -0.2019 -0.9571  0.1019
  878MOL0     C18416   3.028   1.021   4.643 -0.0124  0.0576 -0.4125
  878MOL0     C18417   2.969   1.062   4.509 -0.4355 -0.2829 -0.6495
  878MOL0     C18418   2.919   1.210   4.512  0.3075 -0.0273  0.1883
  878MOL0     O18419   2.874   1.263   4.389 -0.2349  0.0519  0.3156
  878MOL0     C18420   2.783   1.179   4.324 -0.5414  0.7532 -0.5812
  878MOL0     C18421   2.799   1.125   4.202 -0.2689 -0.0488 -0.1634
  878MOL0     C18422   2.691   1.071   4.121  0.3252  0.0003  0.3451
  878MOL0     C18423   2.566   1.047   4.177  1.1411 -0.4432  0.5121
  878MOL0     C18424   2.449   1.022   4.094 -0.6539  0.0853 -0.0730
  878MOL0     O18425   2.487   1.021   3.961  0.8459  0.9316  0.0366
  878MOL0     C18426   2.381   1.010   3.864 -0.3637  0.4019 -0.7416
  878MOL0     C18427   2.302   1.126   3.854 -0.0149 -0.6475 -0.1929
  878MOL0     C18428   2.192   1.117   3.766  1.3840 -0.1482 -0.0597
  878MOL0     C18429   2.153   0.998   3.709  0.6082 -0.5068 -0.5540
  878MOL0     O18430   2.038   0.991   3.635  0.0629  0.0806  0.1615
  878MOL0     C18431   2.070   0.961   3.494  1.2837 -0.0095 -0.7841
  878MOL0     C18432   1.987   0.855   3.420  0.0173 -0.2627 -0.1601
  878MOL0     C18433   1.993   0.859   3.270  0.1293  0.1854  0.2182
  878MOL0     C18434   1.967   0.726   3.207 -0.8312  0.2826  0.2396
  878MOL0     C18435   1.916   0.749   3.067  1.1302 -0.5782 -0.1825
  878MOL0     C18436   1.773   0.789   3.074 -0.0342 -0.8325  0.1529
  878MOL0     C18437   1.672   0.679   3.100  0.2116  0.3278  0.5515
  878MOL0     C18438   1.527   0.732   3.074 -0.5841 -0.1775 -0.0471
  878MOL0    Cl18439   1.501   0.774   2.900 -0.2275 -0.2817 -0.1803
  878MOL0     C18440   2.232   0.883   3.727 -0.8556  0.2263 -0.6741
  878MOL0     C18441   2.347   0.887   3.811  1.6434  0.6530 -1.2100
  878MOL0     O18442   2.329   1.022   4.131  0.5249 -0.2744  0.5974
  878MOL0     C18443   2.549   1.088   4.312  0.2130  0.2742  0.5119
  878MOL0     C18444   2.655   1.151   4.391  0.2766 -0.3622  0.3377
  878MOL0     N18445   3.086   0.848   4.910  0.6479  0.0191  0.5574
  878MOL0     N18446   3.195   0.844   4.981  0.2648  0.0024 -0.1061
  878MOL0     C18447   4.297   0.375   5.433  0.9123 -0.6036  0.0802
  878MOL0     C18448   4.407   0.307   5.486  0.7092  0.0973 -1.0091
  878MOL0     C18449   4.845   0.194   5.547 -0.7377  0.0174 -0.6580
  878MOL0     C18450   4.938   0.302   5.543 -1.6937 -0.0399 -0.8394
  878MOL0     C18451   5.071   0.277   5.587  0.4754  0.7157  0.4793
  878MOL0     C18452   5.112   0.155   5.642 -0.1471  0.0552 -0.3070
  878MOL0     O18453   5.239   0.143   5.704  0.5293  0.1359  0.2865
  878MOL0     C18454   5.346   0.208   5.643 -0.0088  1.0115  0.6207
  878MOL0     C18455   5.474   0.181   5.725 -0.6849  0.1581  0.8431
  878MOL0     C18456   5.604   0.260   5.681  0.0596 -0.5815 -0.6979
  878MOL0     C18457   5.706   0.184   5.600  0.3382 -0.3328 -0.3503
  878MOL0     C18458   5.649   0.142   5.472  0.1344 -0.4783 -0.8885
  878MOL0     C18459   5.609   0.104   5.367 -0.1846 -0.2826  0.1944
  878MOL0     C18460   5.025   0.042   5.649  0.1724  0.8330  1.0181
  878MOL0     C18461   4.892   0.063   5.592  0.1100 -0.0801  0.2404
  878MOL0     C18462   4.794  -0.053   5.598  0.9261  0.5253  0.4577
  878MOL0     H18463   4.635   0.559   5.470  0.7901 -0.1913 -1.0565
  878MOL0     H18464   4.423   0.687   5.377  3.3141  0.4056  0.8769
  878MOL0     H18465   4.060   0.439   5.287 -0.1049 -0.5556  0.1824
  878MOL0     H18466   4.031   0.517   5.445  0.9355  1.0549 -0.0156
  878MOL0     H18467   4.037   0.664   5.165 -0.7774  1.5403  0.1046
  878MOL0     H18468   4.004   0.731   5.321 -1.7238  1.7687 -2.5920
  878MOL0     H18469   3.794   0.695   5.255  0.1363  0.9120 -1.9219
  878MOL0     H18470   3.837   0.533   5.323  0.8255  1.9046  0.7338
  878MOL0     H18471   3.878   0.613   5.037 -0.8231  1.8367  1.7299
  878MOL0     H18472   3.873   0.440   5.093 -0.7945 -0.1677 -2.8533
  878MOL0     H18473   3.672   0.466   4.974  1.7050 -0.3354  0.0399
  878MOL0     H18474   3.630   0.475   5.143 -0.4648  0.0052 -0.0899
  878MOL0     H18475   3.595   0.720   5.136 -0.9353  1.2010  0.0793
  878MOL0     H18476   3.685   0.725   4.982 -3.8825  2.4796 -0.7972
  878MOL0     H18477   3.426   0.581   5.011 -0.0741 -1.4273 -1.5677
  878MOL0     H18478   3.503   0.626   4.859 -1.8140  2.6957 -0.9192
  878MOL0     H18479   3.425   0.832   5.071  1.8389  1.0761 -0.6184
  878MOL0     H18480   3.487   0.859   4.908 -1.5824 -0.5735 -0.1684
  878MOL0     H18481   3.319   0.803   4.677 -2.5716 -0.7775 -1.2944
  878MOL0     H18482   3.082   0.819   4.564 -0.0128  2.4338 -1.6216
  878MOL0     H18483   2.940   0.836   4.672  0.1382 -1.4103  1.8541
  878MOL0     H18484   2.960   1.061   4.718 -1.4585  0.2241 -1.7772
  878MOL0     H18485   3.125   1.071   4.656  2.2674 -3.7276 -1.1006
  878MOL0     H18486   2.888   0.994   4.484 -0.2224  0.6122 -4.3076
  878MOL0     H18487   3.039   1.045   4.427 -1.3454  1.0671 -1.7671
  878MOL0     H18488   3.000   1.280   4.535  0.2666 -0.0982  0.5565
  878MOL0     H18489   2.848   1.224   4.594  2.5197  0.4768  2.1422
  878MOL0     H18490   2.890   1.149   4.149 -1.0518 -0.6523 -1.8622
  878MOL0     H18491   2.710   1.050   4.016  1.9013  2.2644  0.1031
  878MOL0     H18492   2.333   1.216   3.905  1.2494 -1.1324 -0.0563
  878MOL0     H18493   2.134   1.209   3.762  1.3830  0.1564  3.6410
  878MOL0     H18494   2.054   1.061   3.452 -2.4551 -0.1667 -0.0366
  878MOL0     H18495   2.176   0.944   3.472  1.8594 -1.0884  2.3159
  878MOL0     H18496   2.039   0.761   3.441  0.0208 -0.2596 -0.1559
  878MOL0     H18497   1.884   0.843   3.454  0.3400 -3.5626 -0.0667
  878MOL0     H18498   1.933   0.942   3.231 -0.8810 -0.2277  0.8564
  878MOL0     H18499   2.096   0.881   3.241  0.3537  0.8581  1.4641
  878MOL0     H18500   1.900   0.658   3.261  1.8982 -2.9388 -0.1144
  878MOL0     H18501   2.060   0.670   3.199  1.3201  3.2805  2.0506
  878MOL0     H18502   1.915   0.658   3.006  0.4921 -0.0442 -1.0013
  878MOL0     H18503   1.972   0.828   3.015 -2.3005  3.5388  1.7676
  878MOL0     H18504   1.754   0.875   3.139 -1.2167 -1.4487  0.6474
  878MOL0     H18505   1.770   0.838   2.976 -1.5410 -0.7091  0.2348
  878MOL0     H18506   1.691   0.654   3.205  0.8587  0.8170  0.5519
  878MOL0     H18507   1.696   0.592   3.039 -0.0497  0.2931  0.4954
  878MOL0     H18508   1.458   0.650   3.100 -0.0971  0.2421  2.9864
  878MOL0     H18509   1.517   0.814   3.146 -2.0176 -2.5417  2.6866
  878MOL0     H18510   2.199   0.802   3.663  0.6474 -0.4291 -0.6709
  878MOL0     H18511   2.401   0.793   3.815 -2.9105 -2.2076  0.4071
  878MOL0     H18512   2.454   1.076   4.363 -1.1460  2.1870 -1.3916
  878MOL0     H18513   2.628   1.194   4.487  2.0586 -3.3278  2.3512
  878MOL0     H18514   4.204   0.320   5.419 -0.0084  0.2203  2.4094
  878MOL0     H18515   4.407   0.201   5.509  1.2584 -0.0997 -1.8720
  878MOL0     H18516   4.905   0.400   5.512  0.2602  0.2003 -2.3937
  878MOL0     H18517   5.126   0.370   5.580 -0.2749  1.1246 -0.1503
  878MOL0     H18518   5.343   0.317   5.649  3.5745  1.1888  2.1921
  878MOL0     H18519   5.361   0.190   5.536  1.9737  1.3908  0.7836
  878MOL0     H18520   5.494   0.075   5.707 -0.1027  0.6260 -1.7104
  878MOL0     H18521   5.467   0.206   5.831  1.4258  2.3977  0.5294
  878MOL0     H18522   5.648   0.298   5.773 -1.7887 -1.2238  0.4998
  878MOL0     H18523   5.573   0.346   5.622 -0.4737  2.5664  3.7627
  878MOL0     H18524   5.786   0.248   5.560 -2.6962  2.4084 -2.5984
  878MOL0     H18525   5.751   0.102   5.656 -2.0225 -2.4869 -1.4735
  878MOL0     H18526   5.573   0.076   5.270  0.5043  1.5207 -0.6453
  878MOL0     H18527   5.057  -0.051   5.696 -2.7090 -0.1953  1.1656
  878MOL0     H18528   4.846  -0.148   5.587  0.1523  0.3067 -1.8260
  878MOL0     H18529   4.748  -0.060   5.697  0.3190  1.0141  0.2171
  878MOL0     H18530   4.726  -0.061   5.513  0.3135 -0.2773  1.0055
  879MOL0     O18531   5.850   2.174   9.893  0.3835  0.8036  0.2277
  879MOL0     C18532   5.762   2.227   9.964  0.1680  0.3366  0.3793
  879MOL0     O18533   5.777   2.239  10.099  0.3827  0.7661 -0.1318
  879MOL0     C18534   5.885   2.186  10.172  0.9251  0.3738  0.0013
  879MOL0     C18535   5.978   2.087  10.137 -0.1727 -0.3640  0.6685
  879MOL0     C18536   6.060   2.029  10.242 -0.1559 -0.0428  0.9223
  879MOL0     C18537   6.045   2.060  10.376 -0.0484  0.8762 -0.5080
  879MOL0     O18538   6.112   1.990  10.478 -0.1393  0.4697  0.6297
  879MOL0     C18539   6.216   1.883  10.459 -0.2480 -0.5773 -0.2398
  879MOL0     C18540   6.144   1.750  10.418  0.4922 -1.1627  0.3228
  879MOL0     C18541   6.027   1.694  10.502 -0.0834 -0.5265 -0.1479
  879MOL0     C18542   6.077   1.656  10.643  0.5290 -0.7222 -0.0614
  879MOL0     C18543   5.962   1.607  10.731  1.2243 -0.4487  0.1188
  879MOL0     C18544   5.845   1.708  10.755  0.0247 -0.1335 -0.4270
  879MOL0     C18545   5.709   1.646  10.775 -0.5569 -0.6282 -0.2649
  879MOL0     C18546   5.603   1.726  10.852  0.7153  0.0444  0.3508
  879MOL0     N18547   5.509   1.628  10.907  0.8837 -1.3579  0.3562
  879MOL0     C18548   5.506   1.625  11.051 -0.4731  0.2756  0.5417
  879MOL0     C18549   5.437   1.506  11.070 -0.6732 -0.6681 -0.6692
  879MOL0     C18550   5.414   1.440  11.211 -0.3749  0.1169 -0.0640
  879MOL0     C18551   5.281   1.368  11.205  0.9557 -0.0663  0.3778
  879MOL0     C18552   5.242   1.305  11.328  0.1641 -1.0327 -0.6233
  879MOL0     C18553   5.231   1.147  11.314  0.6067 -1.0276  0.0595
  879MOL0     O18554   5.118   1.103  11.230 -0.2836 -1.2570  0.4962
  879MOL0     C18555   4.992   1.087  11.283  0.5159  0.6072  0.7211
  879MOL0     C18556   4.887   1.059  11.202  0.1738 -0.6652  0.5985
  879MOL0     C18557   4.761   1.028  11.235  0.5501 -0.5247  0.4063
  879MOL0     C18558   4.728   1.017  11.366 -0.3882 -0.5774  0.4232
  879MOL0     C18559   4.595   0.960  11.410 -0.1407 -0.0107 -1.3777
  879MOL0     O18560   4.580   0.940  11.546 -0.4537  0.1545  0.4077
  879MOL0     C18561   4.452   0.916  11.589 -0.2905  0.2284  0.4585
  879MOL0     C18562   4.406   1.011  11.672 -0.6242 -0.6447 -0.0169
  879MOL0     C18563   4.282   0.997  11.739  0.3263 -0.4652  0.1202
  879MOL0     C18564   4.194   0.900  11.694  0.0960  0.0731  0.1603
  879MOL0     O18565   4.065   0.878  11.738 -0.6537 -0.5136  0.4447
  879MOL0     C18566   3.982   0.993  11.744  0.3314 -0.3660 -0.7173
  879MOL0     C18567   3.878   0.973  11.838  0.8221  0.0479 -0.1655
  879MOL0     C18568   3.826   1.117  11.879 -0.4536 -0.2354  0.1257
  879MOL0     C18569   3.725   1.107  12.002 -0.6951  0.3088 -0.1226
  879MOL0     C18570   3.591   1.041  11.980  0.5718  1.1448 -1.3371
  879MOL0     C18571   3.523   1.037  12.124 -0.2991 -0.5642 -0.2145
  879MOL0     C18572   3.558   0.923  12.219 -0.4033 -0.6460 -0.1016
  879MOL0     C18573   3.487   0.926  12.354 -1.6347  0.2812  0.5385
  879MOL0    Cl18574   3.307   0.932  12.336 -0.5959  0.1349  0.3321
  879MOL0     C18575   4.233   0.804  11.593  0.8284 -0.1403  0.6589
  879MOL0     C18576   4.371   0.811  11.546  0.8017 -0.2152  0.1968
  879MOL0     O18577   4.509   0.950  11.323 -0.7769  0.5814  0.0932
  879MOL0     C18578   4.828   1.060  11.460 -0.8700 -0.0144  1.7692
  879MOL0     C18579   4.960   1.084  11.415  0.0796 -0.2905  0.1196
  879MOL0     N18580   5.386   1.458  10.952  0.4179  0.8806 -0.1865
  879MOL0     N18581   5.432   1.532  10.846  0.2985 -0.4237  0.2778
  879MOL0     C18582   5.946   2.152  10.417  0.9597 -0.6921  0.6152
  879MOL0     C18583   5.878   2.223  10.311 -0.5352  0.6991 -0.6821
  879MOL0     C18584   5.656   2.315   9.910  0.3211  0.9275  0.3363
  879MOL0     C18585   5.611   2.419   9.999 -1.0815 -0.0526  0.4173
  879MOL0     C18586   5.515   2.506   9.958  0.2822 -0.9440  0.1709
  879MOL0     C18587   5.460   2.484   9.835  1.0015 -0.2893 -0.4609
  879MOL0     O18588   5.372   2.575   9.788 -0.2294 -0.1229  0.2463
  879MOL0     C18589   5.382   2.598   9.648  0.0660 -0.3131 -0.1040
  879MOL0     C18590   5.301   2.728   9.625  0.0142 -0.0926  0.5518
  879MOL0     C18591   5.337   2.790   9.489  0.0791  0.3174 -0.3131
  879MOL0     C18592   5.299   2.937   9.488 -0.0957 -0.4795  1.1857
  879MOL0     C18593   5.153   2.962   9.465 -0.3355  0.4416  0.0311
  879MOL0     C18594   5.033   2.956   9.444  0.2071 -0.0722 -0.3081
  879MOL0     C18595   5.479   2.365   9.768  0.1523  0.8495 -0.3403
  879MOL0     C18596   5.586   2.281   9.798  0.1345 -0.4322 -0.2075
  879MOL0     C18597   5.626   2.173   9.712  0.3657 -0.2875  0.6822
  879MOL0     H18598   5.997   2.057  10.035  0.0586  1.5024  0.1224
  879MOL0     H18599   6.130   1.950  10.215  0.5944  1.1459 -0.8419
  879MOL0     H18600   6.293   1.916  10.388  0.0666 -0.3176  0.2136
  879MOL0     H18601   6.268   1.877  10.555  2.3048 -1.3772 -1.5781
  879MOL0     H18602   6.228   1.680  10.413  2.0936  0.7012  0.1324
  879MOL0     H18603   6.120   1.766  10.313  0.8791 -1.3726  0.1999
  879MOL0     H18604   5.995   1.604  10.450  1.9048 -2.2706  1.4694
  879MOL0     H18605   5.936   1.755  10.496  0.6622  0.6943  0.3582
  879MOL0     H18606   6.151   1.576  10.657 -0.4113 -1.5787  0.1587
  879MOL0     H18607   6.108   1.748  10.693  1.6028 -1.1620  0.1062
  879MOL0     H18608   5.911   1.515  10.700 -3.7335  1.3011  2.1962
  879MOL0     H18609   6.014   1.581  10.824  3.6663  1.3683 -0.6255
  879MOL0     H18610   5.873   1.769  10.841  0.6758  0.1905 -0.8666
  879MOL0     H18611   5.836   1.781  10.674 -0.9663 -1.8636 -1.9495
  879MOL0     H18612   5.717   1.545  10.817  2.2233  0.2888  1.6781
  879MOL0     H18613   5.667   1.626  10.676  1.3877 -0.2156 -1.2305
  879MOL0     H18614   5.647   1.774  10.940 -0.4832 -2.5848  2.5033
  879MOL0     H18615   5.545   1.796  10.791 -1.7049  0.4958  2.9778
  879MOL0     H18616   5.534   1.696  11.127 -2.0233  1.1075  0.3663
  879MOL0     H18617   5.493   1.370  11.238  0.9804  1.2127 -0.9921
  879MOL0     H18618   5.418   1.525  11.280 -0.3060  2.5528 -2.8604
  879MOL0     H18619   5.209   1.449  11.188  0.2884 -1.1324 -2.5256
  879MOL0     H18620   5.279   1.301  11.118 -2.2664  0.3749 -0.0150
  879MOL0     H18621   5.152   1.344  11.376  1.8904 -1.1953  3.0409
  879MOL0     H18622   5.310   1.330  11.410  3.1554 -0.9648 -2.9371
  879MOL0     H18623   5.220   1.117  11.418 -0.7097 -1.9489 -0.3207
  879MOL0     H18624   5.325   1.106  11.277  0.9651  0.7132 -1.0928
  879MOL0     H18625   4.921   1.070  11.099 -0.3992 -4.3643 -0.1357
  879MOL0     H18626   4.691   1.011  11.154  0.1567  1.7477  0.1974
  879MOL0     H18627   4.463   1.095  11.709 -3.1829  0.7988  0.9107
  879MOL0     H18628   4.248   1.073  11.809  0.4068 -1.1722  0.9465
  879MOL0     H18629   4.038   1.086  11.753  1.5153 -1.2530  3.1847
  879MOL0     H18630   3.924   1.007  11.652 -1.3420  0.1414  0.3667
  879MOL0     H18631   3.796   0.909  11.806 -0.1447  0.9768  0.4033
  879MOL0     H18632   3.921   0.925  11.926  1.4082  0.9383  0.0438
  879MOL0     H18633   3.912   1.177  11.910  0.8632 -1.8823 -0.1535
  879MOL0     H18634   3.771   1.165  11.799 -2.1042 -1.3838  0.5310
  879MOL0     H18635   3.708   1.213  12.020  2.4148  1.0529 -0.9441
  879MOL0     H18636   3.785   1.058  12.080  1.0256  2.3878 -0.0347
  879MOL0     H18637   3.601   0.935  11.951 -0.1172  1.2027 -1.8206
  879MOL0     H18638   3.529   1.095  11.908  0.4560 -0.1106 -2.2146
  879MOL0     H18639   3.528   1.131  12.180  1.3328 -0.7341 -0.0246
  879MOL0     H18640   3.418   1.015  12.102 -0.6222  2.2389 -1.9950
  879MOL0     H18641   3.664   0.903  12.234 -0.4012 -0.0082  0.8547
  879MOL0     H18642   3.531   0.834  12.161  0.7163 -0.3754 -1.0780
  879MOL0     H18643   3.520   0.832  12.398 -3.4748 -0.7506 -0.1528
  879MOL0     H18644   3.522   1.009  12.416 -2.0510  1.8532 -1.2469
  879MOL0     H18645   4.177   0.726  11.543  1.2695 -0.1849  0.2261
  879MOL0     H18646   4.413   0.734  11.482  4.1558  0.4806  1.3145
  879MOL0     H18647   4.810   1.031  11.563  4.1858 -2.6648  2.2153
  879MOL0     H18648   5.037   1.095  11.491 -0.4104  2.0372  0.3489
  879MOL0     H18649   5.930   2.153  10.524 -2.2184 -0.3029  0.2281
  879MOL0     H18650   5.824   2.316  10.328 -0.8133  0.3724  0.2804
  879MOL0     H18651   5.652   2.436  10.098 -2.1734  2.1350  0.5711
  879MOL0     H18652   5.480   2.589  10.019 -1.3446 -0.3021 -1.5419
  879MOL0     H18653   5.331   2.519   9.592 -1.0993  0.2598  0.1190
  879MOL0     H18654   5.485   2.601   9.610 -0.4905  1.8196 -1.6078
  879MOL0     H18655   5.342   2.791   9.705  1.3181 -1.5681  1.0989
  879MOL0     H18656   5.195   2.705   9.632  0.4145 -1.9716  1.0628
  879MOL0     H18657   5.283   2.731   9.414  0.9620 -0.4287 -0.3853
  879MOL0     H18658   5.442   2.775   9.462 -0.1295 -0.9741 -0.4728
  879MOL0     H18659   5.336   2.979   9.582  1.7439 -1.6520  1.0338
  879MOL0     H18660   5.357   2.988   9.411  1.4505 -2.2747  1.0889
  879MOL0     H18661   4.927   2.963   9.435 -0.2870  1.3776  4.2404
  879MOL0     H18662   5.431   2.350   9.672  2.1384 -3.3371 -0.9251
  879MOL0     H18663   5.553   2.170   9.631  0.3921  1.4437  0.5558
  879MOL0     H18664   5.718   2.201   9.660  0.7752 -0.8748  1.0770
  879MOL0     H18665   5.635   2.071   9.751 -0.0103 -0.8446 -0.6320
  880MOL0     O18666   9.393   6.301   4.565  0.6965  0.1404 -0.1947
  880MOL0     C18667   9.485   6.289   4.645 -0.3134 -0.0963 -0.0883
  880MOL0     O18668   9.484   6.321   4.776  0.3133 -0.5459 -0.0265
  880MOL0     C18669   9.376   6.396   4.822  0.0140 -0.2136  0.7266
  880MOL0     C18670   9.238   6.356   4.814 -0.3279 -0.5290  0.2616
  880MOL0     C18671   9.134   6.426   4.875 -0.1809 -0.3780  0.3807
  880MOL0     C18672   9.154   6.540   4.947 -0.1271  0.5629 -0.2285
  880MOL0     O18673   9.044   6.607   5.005  0.2086  0.0663  0.7570
  880MOL0     C18674   9.055   6.749   5.031 -0.0493  0.3007  1.2288
  880MOL0     C18675   9.088   6.841   4.897 -0.4061 -0.6249  0.4516
  880MOL0     C18676   8.960   6.839   4.811 -0.4477  0.1178 -0.6705
  880MOL0     C18677   8.995   6.899   4.677  0.4666  0.1363  0.9530
  880MOL0     C18678   8.892   6.845   4.574  0.9415  0.0485  0.0627
  880MOL0     C18679   8.909   6.902   4.436  1.1303  0.6369  0.2510
  880MOL0     C18680   8.808   6.858   4.337 -0.4014  0.0901 -0.6675
  880MOL0     C18681   8.816   6.704   4.312  1.2858  0.5398 -1.0223
  880MOL0     N18682   8.744   6.651   4.196 -0.4665 -0.5259  0.8315
  880MOL0     C18683   8.617   6.681   4.147 -0.1681  0.3741  0.7355
  880MOL0     C18684   8.618   6.619   4.024 -0.1114  0.1693 -0.5235
  880MOL0     C18685   8.521   6.603   3.909  0.4033  0.3152 -0.7318
  880MOL0     C18686   8.570   6.654   3.773 -0.4280  0.8631  0.2273
  880MOL0     C18687   8.592   6.798   3.778  0.2450 -0.1760 -0.6825
  880MOL0     C18688   8.649   6.852   3.654 -0.0097 -0.2124  0.1929
  880MOL0     O18689   8.635   6.991   3.657  0.0325 -0.2416  0.1702
  880MOL0     C18690   8.659   7.060   3.546 -0.4779  0.2578  0.8043
  880MOL0     C18691   8.665   7.196   3.567  0.0668  0.0709  0.3961
  880MOL0     C18692   8.702   7.283   3.457 -0.2614 -0.4986  0.2390
  880MOL0     C18693   8.721   7.227   3.326 -0.3497  0.1125 -0.2935
  880MOL0     C18694   8.757   7.303   3.200  0.6920 -0.2064 -0.1614
  880MOL0     O18695   8.759   7.232   3.076  0.7639 -0.0128  0.6115
  880MOL0     C18696   8.777   7.298   2.953  0.7872 -0.3301 -0.9380
  880MOL0     C18697   8.913   7.314   2.918  0.0010  0.4843  0.7280
  880MOL0     C18698   8.946   7.385   2.802 -0.4111 -0.3071 -0.3502
  880MOL0     C18699   8.843   7.436   2.718 -0.1883  0.4802  0.1826
  880MOL0     O18700   8.857   7.528   2.612 -1.0290 -0.7980  0.2339
  880MOL0     C18701   8.982   7.610   2.611 -0.8144 -0.3073  0.2078
  880MOL0     C18702   8.998   7.674   2.464  0.6263 -0.2137 -1.2705
  880MOL0     C18703   8.875   7.768   2.440  0.4964 -0.4983 -0.2657
  880MOL0     C18704   8.888   7.831   2.293  0.1985 -0.1984 -0.6694
  880MOL0     C18705   8.799   7.945   2.297  0.6512 -0.0224 -1.0100
  880MOL0     C18706   8.824   8.043   2.178  0.9273  0.6100 -0.2252
  880MOL0     C18707   8.770   7.992   2.039 -0.3069 -0.2052  0.6085
  880MOL0     C18708   8.771   8.102   1.939  0.5007  1.1582 -0.5360
  880MOL0    Cl18709   8.948   8.125   1.866  0.0870 -0.1589 -0.4254
  880MOL0     C18710   8.709   7.413   2.760  0.0425  0.4401 -0.4472
  880MOL0     C18711   8.669   7.343   2.867  1.1234  0.2909 -0.8543
  880MOL0     O18712   8.786   7.420   3.219 -0.4766 -0.4603 -0.5226
  880MOL0     C18713   8.704   7.095   3.312  0.6322  0.9856  0.5785
  880MOL0     C18714   8.683   7.009   3.419 -0.2335  0.2355  0.2829
  880MOL0     N18715   8.741   6.553   4.008  1.1483  0.0642 -0.1959
  880MOL0     N18716   8.814   6.590   4.100  0.3030 -0.2266 -0.3509
  880MOL0     C18717   9.291   6.586   4.951  0.3796  0.7749 -0.8619
  880MOL0     C18718   9.399   6.521   4.887  0.6038  0.1095 -0.7381
  880MOL0     C18719   9.615   6.224   4.594  0.4774 -0.9876 -0.4416
  880MOL0     C18720   9.617   6.189   4.449 -0.2687 -0.7828 -0.4922
  880MOL0     C18721   9.731   6.147   4.383 -0.4502 -0.7755 -0.4592
  880MOL0     C18722   9.851   6.121   4.453  0.0675 -1.0723 -0.6514
  880MOL0     O18723   9.957   6.059   4.386  0.1751  0.2748  0.0655
  880MOL0     C18724   9.984   5.923   4.428 -0.0923 -0.0519 -0.8822
  880MOL0     C18725  10.047   5.852   4.318  0.5476 -0.0073  0.6021
  880MOL0     C18726   9.985   5.711   4.283  0.2792  0.1252 -0.8497
  880MOL0     C18727  10.014   5.612   4.398 -0.3229 -0.1982  0.0525
  880MOL0     C18728   9.965   5.472   4.362  0.3281 -0.4940  0.3221
  880MOL0     C18729   9.934   5.364   4.310  0.1280  0.0702  0.5025
  880MOL0     C18730   9.856   6.146   4.594  0.6936  0.2978  0.3802
  880MOL0     C18731   9.738   6.193   4.666 -0.1585 -0.4041  0.3505
  880MOL0     C18732   9.757   6.226   4.813  0.4084 -0.0391 -0.3584
  880MOL0     H18733   9.229   6.260   4.764  0.0060 -0.6445  0.4197
  880MOL0     H18734   9.029   6.398   4.870 -0.0479 -0.7939 -0.1232
  880MOL0     H18735   8.968   6.789   5.084  0.6022  0.9989  1.7898
  880MOL0     H18736   9.138   6.766   5.101  0.1832 -1.3633  1.4031
  880MOL0     H18737   9.174   6.804   4.841 -2.2739  2.8038 -5.5402
  880MOL0     H18738   9.105   6.944   4.927  2.3960 -1.3730  1.7929
  880MOL0     H18739   8.887   6.912   4.847 -0.9775 -1.3566  1.4707
  880MOL0     H18740   8.914   6.740   4.803 -1.2870  0.5312 -1.1199
  880MOL0     H18741   9.002   7.008   4.678 -0.3998  0.3618 -2.8022
  880MOL0     H18742   9.096   6.868   4.649  0.5152  2.3770 -1.8216
  880MOL0     H18743   8.883   6.736   4.566  2.4489 -0.1362  0.5551
  880MOL0     H18744   8.790   6.876   4.601  0.1753 -1.6279 -0.7571
  880MOL0     H18745   8.916   7.011   4.435  4.4052  0.5618 -1.4865
  880MOL0     H18746   9.006   6.858   4.409  1.6081  1.0950  1.1565
  880MOL0     H18747   8.820   6.902   4.237  0.3442  1.7075  0.1049
  880MOL0     H18748   8.707   6.885   4.371 -0.8737  0.1848 -2.0814
  880MOL0     H18749   8.921   6.676   4.294  2.2479  3.7674 -1.1488
  880MOL0     H18750   8.786   6.642   4.397  0.2110 -1.9438 -3.0941
  880MOL0     H18751   8.542   6.744   4.194 -0.0188  0.3872  0.9522
  880MOL0     H18752   8.503   6.496   3.892  1.6553 -0.0683  0.2436
  880MOL0     H18753   8.424   6.649   3.930  0.3529  0.9810 -2.2937
  880MOL0     H18754   8.666   6.609   3.745  0.6294  1.7744  2.1470
  880MOL0     H18755   8.493   6.636   3.697 -1.1245 -1.0358  1.3209
  880MOL0     H18756   8.666   6.822   3.856 -2.4922  0.3557  1.9510
  880MOL0     H18757   8.500   6.846   3.812  1.4180  1.4572  0.3512
  880MOL0     H18758   8.585   6.807   3.577 -1.4075  2.1229 -0.1176
  880MOL0     H18759   8.752   6.816   3.647 -0.5865 -1.6885 -1.3511
  880MOL0     H18760   8.667   7.228   3.670 -2.4952  1.4795  0.0984
  880MOL0     H18761   8.710   7.391   3.459 -0.2516 -0.4304 -1.6705
  880MOL0     H18762   8.994   7.266   2.972  0.3666  0.6719  0.3473
  880MOL0     H18763   9.053   7.402   2.793 -0.3189  0.5925  1.8169
  880MOL0     H18764   8.984   7.697   2.677  0.1273  0.1357 -0.3836
  880MOL0     H18765   9.074   7.553   2.629 -0.6915 -0.2478 -0.2025
  880MOL0     H18766   9.092   7.729   2.457  0.3157  1.9129  5.1698
  880MOL0     H18767   8.992   7.593   2.390 -2.5440 -0.3647 -0.9509
  880MOL0     H18768   8.777   7.722   2.458 -1.9041  3.2563 -2.4118
  880MOL0     H18769   8.875   7.840   2.522 -2.3964 -1.4085  0.6832
  880MOL0     H18770   8.847   7.767   2.215 -0.3028  0.4510 -0.9529
  880MOL0     H18771   8.993   7.860   2.287  1.1265 -3.2736 -0.8801
  880MOL0     H18772   8.819   8.006   2.386 -4.0341  0.4911 -0.0266
  880MOL0     H18773   8.697   7.905   2.298  0.0050  1.5083  0.8227
  880MOL0     H18774   8.806   8.149   2.198  3.8104  2.0696 -4.0806
  880MOL0     H18775   8.933   8.045   2.188  0.9342  0.1325 -0.1498
  880MOL0     H18776   8.663   7.972   2.047 -0.2952 -0.0277  1.3123
  880MOL0     H18777   8.826   7.915   1.987  0.1563  1.4033 -1.3764
  880MOL0     H18778   8.711   8.056   1.860 -1.9982 -0.0390  1.8954
  880MOL0     H18779   8.723   8.197   1.967 -4.4356 -1.2257  0.1311
  880MOL0     H18780   8.632   7.451   2.693 -0.8143 -1.1640 -0.4065
  880MOL0     H18781   8.564   7.327   2.885  0.9250  2.6072  0.5560
  880MOL0     H18782   8.721   7.047   3.217  1.3914  2.0132  0.1786
  880MOL0     H18783   8.675   6.901   3.406  0.8990 -0.0590  1.7903
  880MOL0     H18784   9.307   6.691   4.972  1.7302  0.4775 -0.3365
  880MOL0     H18785   9.496   6.566   4.867  1.7440 -2.7258 -2.1795
  880MOL0     H18786   9.532   6.212   4.386 -2.7025 -1.5209  2.2706
  880MOL0     H18787   9.717   6.131   4.276  0.3185 -0.5597 -0.5975
  880MOL0     H18788   9.892   5.871   4.457 -0.4377  1.0028 -0.0375
  880MOL0     H18789  10.046   5.922   4.518 -1.9917  0.9639  0.5277
  880MOL0     H18790  10.153   5.854   4.344  0.9236  1.0596 -0.8592
  880MOL0     H18791  10.045   5.915   4.229  0.0261 -2.0601 -0.9150
  880MOL0     H18792  10.036   5.670   4.195  0.0521 -1.1389 -0.4104
  880MOL0     H18793   9.878   5.720   4.261  0.0324 -2.7512 -1.2046
  880MOL0     H18794  10.120   5.624   4.422  0.6328  2.7275 -4.3235
  880MOL0     H18795   9.953   5.644   4.483  0.2879  1.6276 -0.1494
  880MOL0     H18796   9.920   5.263   4.276  3.6952 -0.4947  0.2500
  880MOL0     H18797   9.951   6.123   4.642 -0.8878 -2.1736  2.6129
  880MOL0     H18798   9.849   6.181   4.853  0.0992 -0.8866 -0.5852
  880MOL0     H18799   9.762   6.333   4.833 -2.6865 -0.1192  1.5861
  880MOL0     H18800   9.680   6.182   4.877  2.2921 -1.8035  0.8172
  881MOL0     O18801   8.518   3.321   0.094 -0.3224 -0.3513  0.0667
  881MOL0     C18802   8.604   3.242   0.073 -1.9292  0.1798  0.0504
  881MOL0     O18803   8.741   3.265   0.070 -0.2085 -0.5586 -0.7458
  881MOL0     C18804   8.813   3.371   0.128 -0.5027 -0.7526  1.4560
  881MOL0     C18805   8.954   3.372   0.099 -0.2297  0.4440  0.5779
  881MOL0     C18806   9.050   3.473   0.144  0.9629 -0.0759 -0.0553
  881MOL0     C18807   9.008   3.570   0.236 -0.0663  0.3077 -1.1564
  881MOL0     O18808   9.097   3.665   0.291 -0.1532  0.9032 -0.1434
  881MOL0     C18809   9.214   3.696   0.228  0.0592  0.1775  1.7584
  881MOL0     C18810   9.253   3.837   0.281 -0.5701  0.3370 -0.9661
  881MOL0     C18811   9.135   3.933   0.256  0.0710  0.0168  0.3505
  881MOL0     C18812   9.175   4.075   0.286  0.5127 -0.0252 -0.3887
  881MOL0     C18813   9.053   4.163   0.311  0.9282 -0.7973  0.7060
  881MOL0     C18814   9.075   4.309   0.270 -0.7887  0.8009 -0.6294
  881MOL0     C18815   8.940   4.387   0.248 -0.3305 -0.0494  0.1249
  881MOL0     C18816   8.954   4.536   0.212 -0.3784  0.5343 -0.8015
  881MOL0     N18817   8.952   4.618   0.327  0.3970 -0.1825  0.9181
  881MOL0     C18818   8.854   4.637   0.422  0.4635  0.0748  0.8294
  881MOL0     C18819   8.912   4.708   0.516 -0.4800  0.4704 -0.0761
  881MOL0     C18820   8.847   4.766   0.641 -0.0556  0.2602 -0.0299
  881MOL0     C18821   8.910   4.687   0.756  0.4652 -0.2902  0.3587
  881MOL0     C18822   8.887   4.741   0.898  0.9408 -0.1556  0.5476
  881MOL0     C18823   8.949   4.638   0.993  0.0050  1.1164  0.3230
  881MOL0     O18824   9.088   4.611   0.965  0.0990 -0.3708  0.6195
  881MOL0     C18825   9.181   4.709   0.995  0.6915  0.4279  0.1366
  881MOL0     C18826   9.303   4.690   0.934 -0.6416  0.8288  0.0966
  881MOL0     C18827   9.408   4.784   0.965 -0.4152  0.2234 -0.4821
  881MOL0     C18828   9.380   4.892   1.051 -0.5514 -0.1137  0.4521
  881MOL0     C18829   9.485   4.996   1.077 -0.5286  1.5243 -0.9684
  881MOL0     O18830   9.611   4.949   1.069  0.4302  0.0166 -0.4510
  881MOL0     C18831   9.718   5.040   1.061  0.4317 -0.6585 -0.4183
  881MOL0     C18832   9.716   5.170   1.001 -0.5798  0.1895  0.4589
  881MOL0     C18833   9.835   5.244   0.993 -0.5411  0.4879  0.5953
  881MOL0     C18834   9.961   5.196   1.041 -0.2387  0.1027  0.4934
  881MOL0     O18835  10.072   5.272   1.013  0.2598 -0.0810  0.4801
  881MOL0     C18836  10.209   5.235   1.063  0.0127  1.6811  0.3414
  881MOL0     C18837  10.291   5.362   1.039  0.8929 -0.6947  0.2232
  881MOL0     C18838  10.436   5.319   1.052 -0.3866 -0.7309  0.2027
  881MOL0     C18839  10.477   5.370   1.192 -1.2085  1.1462 -0.0508
  881MOL0     C18840  10.620   5.315   1.232 -0.4832 -0.3771  0.4717
  881MOL0     C18841  10.700   5.392   1.343  0.1531  0.0419  0.7881
  881MOL0     C18842  10.748   5.536   1.301  0.3444 -0.0978  0.4232
  881MOL0     C18843  10.835   5.602   1.408 -0.1342 -1.0024 -1.0622
  881MOL0    Cl18844  10.870   5.766   1.352  0.1261 -0.1204  0.0830
  881MOL0     C18845   9.965   5.074   1.096 -0.3983 -0.5306 -0.0160
  881MOL0     C18846   9.848   4.990   1.103 -0.4074 -0.0799  0.4286
  881MOL0     O18847   9.451   5.108   1.120  0.2670  0.3821 -0.9229
  881MOL0     C18848   9.250   4.906   1.101  0.2734  0.3665  0.3596
  881MOL0     C18849   9.155   4.811   1.085 -0.6300  0.1124 -0.0681
  881MOL0     N18850   9.044   4.729   0.479 -0.8066  0.2973 -1.2753
  881MOL0     N18851   9.064   4.683   0.367  0.5541  0.9097 -0.4657
  881MOL0     C18852   8.872   3.569   0.274  0.1535 -0.2628  0.9468
  881MOL0     C18853   8.780   3.477   0.213  0.5466 -0.1210  0.2397
  881MOL0     C18854   8.541   3.113   0.040 -0.3226  0.4068 -0.1116
  881MOL0     C18855   8.411   3.112  -0.019  0.5520  0.6699  0.4735
  881MOL0     C18856   8.339   2.995  -0.045 -0.1449  0.9763 -0.5132
  881MOL0     C18857   8.390   2.875   0.002 -0.7937  0.0758  0.6467
  881MOL0     O18858   8.309   2.763  -0.003  0.2425  0.7119  0.3227
  881MOL0     C18859   8.357   2.643   0.057  0.2350 -1.1335  0.5813
  881MOL0     C18860   8.338   2.646   0.207 -0.3410  0.0265  0.6969
  881MOL0     C18861   8.191   2.648   0.254  0.1108 -0.2541  0.0244
  881MOL0     C18862   8.194   2.645   0.408 -0.3887  0.1651 -0.1809
  881MOL0     C18863   8.062   2.673   0.448 -0.3122  0.0703 -0.9508
  881MOL0     C18864   7.953   2.707   0.486 -0.9065 -0.6489  0.3899
  881MOL0     C18865   8.517   2.886   0.067 -0.3575  0.2260  0.3095
  881MOL0     C18866   8.589   3.000   0.093 -0.8453  0.4540 -0.0453
  881MOL0     C18867   8.717   2.993   0.175 -0.1907  0.1520  0.4120
  881MOL0     H18868   8.990   3.303   0.023  1.1910 -1.3577  2.7536
  881MOL0     H18869   9.152   3.473   0.106  1.4635 -1.1456  1.1897
  881MOL0     H18870   9.288   3.616   0.236  2.7968  1.7882 -3.1790
  881MOL0     H18871   9.193   3.715   0.123  0.0989  1.5898  1.9909
  881MOL0     H18872   9.340   3.878   0.229 -2.1439  3.3790 -1.4128
  881MOL0     H18873   9.273   3.823   0.388  0.0753 -3.0658 -1.4361
  881MOL0     H18874   9.053   3.920   0.327 -0.1577  3.0347  0.7828
  881MOL0     H18875   9.098   3.924   0.154  0.9679  2.0961 -0.2039
  881MOL0     H18876   9.245   4.079   0.371  0.6255 -3.5687 -0.1802
  881MOL0     H18877   9.235   4.104   0.200 -1.6522  3.7983 -0.8408
  881MOL0     H18878   8.971   4.128   0.248  0.6018 -0.3561  0.8840
  881MOL0     H18879   9.026   4.152   0.416 -0.1089 -0.9616  0.4297
  881MOL0     H18880   9.134   4.373   0.336 -0.2271 -1.5926  1.3379
  881MOL0     H18881   9.131   4.314   0.176  3.4687 -0.6684  1.5632
  881MOL0     H18882   8.877   4.376   0.337 -1.1641  0.8779 -0.3315
  881MOL0     H18883   8.888   4.337   0.165  0.3969 -0.7003  0.0496
  881MOL0     H18884   9.053   4.545   0.167  0.4437 -3.3437 -0.1492
  881MOL0     H18885   8.869   4.563   0.149 -1.2065 -0.9680 -0.3799
  881MOL0     H18886   8.751   4.607   0.411  0.5001  0.6333 -2.0122
  881MOL0     H18887   8.880   4.868   0.659 -3.3371  0.9278  3.9032
  881MOL0     H18888   8.737   4.761   0.637 -0.4366  5.0519 -3.8563
  881MOL0     H18889   8.862   4.589   0.756  0.2482 -0.2621  3.3485
  881MOL0     H18890   9.014   4.663   0.733  0.4989  0.4490 -0.3147
  881MOL0     H18891   8.784   4.767   0.924  0.9828 -1.6839  2.4674
  881MOL0     H18892   8.939   4.837   0.895  0.6391  0.0265 -2.6972
  881MOL0     H18893   8.897   4.542   0.995 -0.1393  1.0960 -1.8837
  881MOL0     H18894   8.940   4.672   1.097  2.2800 -0.0084  0.9665
  881MOL0     H18895   9.329   4.599   0.881  0.2091  0.4876  1.0703
  881MOL0     H18896   9.509   4.760   0.933 -0.2477 -2.2108  1.5453
  881MOL0     H18897   9.629   5.223   0.962 -1.0023  0.6543  1.9690
  881MOL0     H18898   9.849   5.340   0.945  1.8334 -1.2357 -2.4739
  881MOL0     H18899  10.215   5.193   1.164 -1.2525 -3.7840 -1.5253
  881MOL0     H18900  10.244   5.159   0.994 -0.8013  3.2182 -1.8842
  881MOL0     H18901  10.267   5.387   0.935  1.6546 -1.4434 -0.1427
  881MOL0     H18902  10.261   5.441   1.109 -3.0024  1.3975 -3.2901
  881MOL0     H18903  10.446   5.210   1.046  0.4923 -0.6032 -1.0127
  881MOL0     H18904  10.503   5.359   0.975 -0.0890  1.0376  1.3307
  881MOL0     H18905  10.400   5.328   1.257 -0.8043  0.9525  0.3076
  881MOL0     H18906  10.473   5.479   1.199 -0.2838  1.1502  0.6060
  881MOL0     H18907  10.686   5.316   1.145  0.0645  2.9187  0.7971
  881MOL0     H18908  10.593   5.211   1.256 -0.0386 -0.4235  0.7805
  881MOL0     H18909  10.637   5.405   1.432  1.8958 -0.5581  2.1817
  881MOL0     H18910  10.793   5.335   1.357  2.9533  4.0927  0.5546
  881MOL0     H18911  10.661   5.599   1.283  0.1181  0.0152  1.7575
  881MOL0     H18912  10.807   5.538   1.209  2.9292 -2.0288  1.8706
  881MOL0     H18913  10.785   5.615   1.505 -2.9678 -0.8693 -2.4560
  881MOL0     H18914  10.930   5.549   1.420 -1.1761 -2.8290 -0.4809
  881MOL0     H18915  10.057   5.024   1.126 -0.8052 -3.0176 -2.4771
  881MOL0     H18916   9.853   4.889   1.142 -0.5547  0.1990  1.1956
  881MOL0     H18917   9.216   4.981   1.172 -3.3707 -0.4371 -0.3598
  881MOL0     H18918   9.073   4.814   1.156 -0.5710 -1.1169  0.0717
  881MOL0     H18919   8.821   3.641   0.338 -1.4136 -0.2314 -0.2840
  881MOL0     H18920   8.676   3.468   0.242 -0.1366  1.7701 -1.3594
  881MOL0     H18921   8.365   3.209  -0.027  1.1478  1.5621  4.9304
  881MOL0     H18922   8.251   2.989  -0.108  0.3817 -0.2980 -1.1672
  881MOL0     H18923   8.454   2.610   0.020  0.7140 -4.2608  4.0372
  881MOL0     H18924   8.288   2.561   0.034 -0.0294 -0.4745 -1.1393
  881MOL0     H18925   8.390   2.734   0.246 -0.8529 -0.2249  1.9812
  881MOL0     H18926   8.390   2.559   0.248  0.8571 -0.5961 -1.9342
  881MOL0     H18927   8.128   2.565   0.223  1.4421 -0.2425 -3.0882
  881MOL0     H18928   8.145   2.739   0.215  1.2988  0.6531  0.6399
  881MOL0     H18929   8.229   2.543   0.431  3.9007  1.5338  0.3316
  881MOL0     H18930   8.254   2.726   0.451 -0.4095 -0.2852  0.7350
  881MOL0     H18931   7.859   2.754   0.504  0.1651  1.9211 -0.2379
  881MOL0     H18932   8.554   2.797   0.116 -1.1925 -0.2063  0.1738
  881MOL0     H18933   8.714   2.919   0.256  0.4857  1.8181  2.0546
  881MOL0     H18934   8.810   2.985   0.118  0.6628  3.2344  1.1875
  881MOL0     H18935   8.742   3.082   0.234  0.8754 -1.2725  2.2160
  882MOL0     O18936   2.882   6.806   0.484  0.5882 -0.6732 -0.3002
  882MOL0     C18937   2.882   6.918   0.541  0.8065  0.3077 -0.0403
  882MOL0     O18938   2.889   6.941   0.676  0.0795  0.8036  0.7701
  882MOL0     C18939   2.876   6.840   0.762  0.9545 -0.1772  0.5228
  882MOL0     C18940   2.764   6.851   0.846  0.0872  0.7182  0.0244
  882MOL0     C18941   2.732   6.739   0.928  0.7235 -0.5417 -0.7065
  882MOL0     C18942   2.811   6.622   0.926 -0.6699 -0.4336 -0.3371
  882MOL0     O18943   2.800   6.514   1.010 -0.1816 -0.7386  0.1525
  882MOL0     C18944   2.665   6.502   1.076  0.5246  0.9500 -0.4748
  882MOL0     C18945   2.658   6.361   1.138 -0.8773 -0.4688  1.2386
  882MOL0     C18946   2.553   6.338   1.246 -0.5585 -0.9194 -0.7832
  882MOL0     C18947   2.505   6.190   1.261 -0.4150 -1.2445  0.3762
  882MOL0     C18948   2.592   6.108   1.358  0.8236  0.3779  0.8944
  882MOL0     C18949   2.537   5.972   1.379  0.2889  0.5755  0.1338
  882MOL0     C18950   2.624   5.908   1.498  0.7754  0.4775  0.0584
  882MOL0     C18951   2.623   5.756   1.491 -0.1695 -0.5016  0.2761
  882MOL0     N18952   2.716   5.710   1.383 -0.9691 -0.6093 -0.6801
  882MOL0     C18953   2.849   5.686   1.398 -0.0343 -0.5421 -0.5044
  882MOL0     C18954   2.889   5.639   1.278 -0.3852  0.5029  0.2170
  882MOL0     C18955   3.015   5.603   1.220 -1.0333 -0.0017 -0.2594
  882MOL0     C18956   2.993   5.494   1.121 -0.5913  0.2126 -0.1130
  882MOL0     C18957   3.139   5.450   1.070  0.3999  0.6686  0.5386
  882MOL0     C18958   3.241   5.397   1.178 -0.2106 -0.4955 -0.0290
  882MOL0     O18959   3.368   5.405   1.117  1.0520 -0.0745  0.5327
  882MOL0     C18960   3.396   5.337   1.000 -0.4370 -0.1416 -0.1920
  882MOL0     C18961   3.353   5.210   0.958 -0.0114  0.7053 -0.4488
  882MOL0     C18962   3.387   5.169   0.831  0.6071 -0.7201  1.3204
  882MOL0     C18963   3.471   5.252   0.750  0.5831 -0.3723 -0.7686
  882MOL0     C18964   3.526   5.208   0.627 -1.9572  0.6930 -1.2794
  882MOL0     O18965   3.626   5.279   0.570 -0.6101  0.1322  0.2025
  882MOL0     C18966   3.747   5.228   0.527 -0.2517 -0.2516  0.1089
  882MOL0     C18967   3.806   5.297   0.422 -0.7620  0.0268 -0.1499
  882MOL0     C18968   3.932   5.247   0.371 -0.8394  0.9163 -0.4623
  882MOL0     C18969   3.993   5.131   0.416 -0.6906 -0.5386 -0.1659
  882MOL0     O18970   4.113   5.108   0.353  1.2857 -0.0338 -0.4511
  882MOL0     C18971   4.181   4.982   0.362  0.4930  0.7118  0.7590
  882MOL0     C18972   4.151   4.894   0.238  0.1181  0.3041  0.0565
  882MOL0     C18973   4.235   4.948   0.115  1.6627 -0.8786 -0.5913
  882MOL0     C18974   4.252   4.858  -0.007  0.3309 -0.2997  0.3242
  882MOL0     C18975   4.359   4.906  -0.096 -0.6757  0.1201  0.2245
  882MOL0     C18976   4.339   5.043  -0.161 -0.4416 -0.1174  0.4349
  882MOL0     C18977   4.209   5.057  -0.228 -0.2740 -0.1952 -0.3561
  882MOL0     C18978   4.207   5.173  -0.337 -0.1918  0.3634  0.0047
  882MOL0    Cl18979   4.032   5.203  -0.378 -0.5039  0.0250  0.1301
  882MOL0     C18980   3.928   5.064   0.523 -0.0889  0.4057 -0.3318
  882MOL0     C18981   3.803   5.104   0.572 -1.4079  0.0706 -0.1851
  882MOL0     O18982   3.476   5.112   0.576  0.2231 -0.5166  0.8527
  882MOL0     C18983   3.505   5.378   0.798 -0.0477  0.2207 -0.0661
  882MOL0     C18984   3.476   5.414   0.914 -0.5160 -0.4096 -0.2969
  882MOL0     N18985   2.779   5.652   1.190 -0.1556  0.3321  0.1653
  882MOL0     N18986   2.674   5.687   1.263 -0.4517  0.0397  0.7318
  882MOL0     C18987   2.924   6.613   0.848 -0.3065  0.6555 -0.2073
  882MOL0     C18988   2.955   6.724   0.767  0.0163 -0.8575  0.4425
  882MOL0     C18989   2.901   7.032   0.444 -0.6568 -0.1808  0.2266
  882MOL0     C18990   2.812   7.028   0.341  0.0567  0.2110 -0.2397
  882MOL0     C18991   2.804   7.131   0.245  1.0431  0.5509 -0.3489
  882MOL0     C18992   2.872   7.251   0.254 -0.8352  0.3441 -0.9020
  882MOL0     O18993   2.849   7.341   0.163 -0.5509 -1.0004 -0.8440
  882MOL0     C18994   2.927   7.465   0.163  0.2475 -0.7177 -0.0735
  882MOL0     C18995   2.886   7.568   0.275 -1.1750  0.6152 -0.2502
  882MOL0     C18996   2.817   7.690   0.232 -0.1811  0.3974  0.7367
  882MOL0     C18997   2.666   7.674   0.236 -0.9944 -0.5155  0.9598
  882MOL0     C18998   2.607   7.804   0.196 -0.3582  0.3822  0.1156
  882MOL0     C18999   2.571   7.913   0.170  0.2612 -0.0526  0.0752
  882MOL0     C19000   2.948   7.251   0.371 -0.3004 -0.4225  0.7056
  882MOL0     C19001   2.963   7.160   0.471 -1.0567  0.6432 -0.6188
  882MOL0     C19002   3.049   7.181   0.597 -0.5094 -0.0959 -1.2631
  882MOL0     H19003   2.720   6.950   0.841 -3.4281 -0.7170 -0.5528
  882MOL0     H19004   2.632   6.741   0.971 -0.5975 -0.6232 -3.5739
  882MOL0     H19005   2.637   6.577   1.151  1.8383  0.8989  0.0936
  882MOL0     H19006   2.582   6.487   1.006  0.6079 -2.1784 -0.0793
  882MOL0     H19007   2.755   6.333   1.180  2.0696 -0.0742 -4.3907
  882MOL0     H19008   2.644   6.282   1.064  1.7721  0.4372 -0.3512
  882MOL0     H19009   2.466   6.396   1.215  0.2161 -0.5676 -2.3886
  882MOL0     H19010   2.599   6.386   1.333  0.6049  0.0682 -1.9007
  882MOL0     H19011   2.400   6.186   1.293 -1.6086 -0.2474 -2.9362
  882MOL0     H19012   2.487   6.144   1.163 -1.8897  1.3697 -0.6783
  882MOL0     H19013   2.694   6.114   1.319  0.5710 -1.6751 -0.2392
  882MOL0     H19014   2.582   6.152   1.458 -3.4142 -1.7013  1.6050
  882MOL0     H19015   2.434   5.976   1.416  1.1438 -2.2215  3.3066
  882MOL0     H19016   2.538   5.931   1.278  0.7767 -1.8328  1.0632
  882MOL0     H19017   2.590   5.939   1.597 -1.5108  0.9186 -0.7901
  882MOL0     H19018   2.721   5.957   1.488 -0.0732  2.5174  1.2092
  882MOL0     H19019   2.646   5.710   1.587 -0.0937 -2.8539 -0.8119
  882MOL0     H19020   2.525   5.717   1.464  0.1619 -0.2977 -1.3258
  882MOL0     H19021   2.912   5.705   1.484 -0.6716  1.7266 -0.4530
  882MOL0     H19022   3.073   5.684   1.175  0.6189 -0.2006  1.3600
  882MOL0     H19023   3.074   5.559   1.302  2.9709  1.5007 -2.0901
  882MOL0     H19024   2.935   5.406   1.151  0.7539 -0.7708 -0.2962
  882MOL0     H19025   2.949   5.530   1.028  1.2400 -1.1719 -1.5994
  882MOL0     H19026   3.193   5.534   1.025  4.1205 -1.1020  1.3359
  882MOL0     H19027   3.125   5.372   0.994 -0.4224 -0.7020  2.0407
  882MOL0     H19028   3.209   5.295   1.201 -1.1838  0.1039  1.4082
  882MOL0     H19029   3.249   5.451   1.273 -0.8748 -1.6597  0.7141
  882MOL0     H19030   3.302   5.149   1.031  3.2511 -2.9096 -0.8612
  882MOL0     H19031   3.357   5.070   0.800 -1.7985  0.6383 -1.1291
  882MOL0     H19032   3.756   5.392   0.405 -0.3373  0.0065 -1.6700
  882MOL0     H19033   3.977   5.290   0.283  2.2304 -3.5761 -1.4607
  882MOL0     H19034   4.289   4.996   0.373  0.4703 -0.5560  3.7463
  882MOL0     H19035   4.165   4.925   0.454 -0.9492 -1.8055 -0.9184
  882MOL0     H19036   4.192   4.794   0.254 -0.6888 -0.3727 -1.7270
  882MOL0     H19037   4.047   4.882   0.204 -0.2929 -1.2247  1.7086
  882MOL0     H19038   4.186   5.033   0.067 -0.9335 -0.4448  2.4369
  882MOL0     H19039   4.332   4.981   0.152  2.5079 -3.6715 -0.0822
  882MOL0     H19040   4.159   4.850  -0.064  0.0413  3.0521  0.0667
  882MOL0     H19041   4.279   4.761   0.034  0.9688  1.2172  3.9299
  882MOL0     H19042   4.359   4.830  -0.175  3.9465 -0.4443  0.4586
  882MOL0     H19043   4.457   4.908  -0.047 -2.3176 -0.8710  3.8486
  882MOL0     H19044   4.348   5.126  -0.090 -1.2232  0.1761  0.2026
  882MOL0     H19045   4.419   5.059  -0.233 -1.0579  1.7399  0.0898
  882MOL0     H19046   4.130   5.074  -0.154 -0.7006 -2.2095 -0.2908
  882MOL0     H19047   4.190   4.964  -0.283 -0.6163  0.2492 -0.9835
  882MOL0     H19048   4.256   5.261  -0.295 -0.1903  1.0200 -1.3387
  882MOL0     H19049   4.268   5.143  -0.423 -1.1082  3.3500 -1.8539
  882MOL0     H19050   3.970   4.971   0.560 -1.1029  0.3872  0.8037
  882MOL0     H19051   3.775   5.040   0.654  2.3527 -1.8966 -0.2146
  882MOL0     H19052   3.567   5.454   0.753  1.1573  0.6314  2.1301
  882MOL0     H19053   3.507   5.508   0.959  1.0218 -0.4207 -1.2735
  882MOL0     H19054   2.974   6.517   0.850 -0.1850  0.7260  0.4962
  882MOL0     H19055   3.032   6.718   0.691 -0.9805  1.6482 -0.8826
  882MOL0     H19056   2.745   6.943   0.331 -0.3067  0.5310 -0.5692
  882MOL0     H19057   2.739   7.124   0.159  1.1182  2.5218 -0.6118
  882MOL0     H19058   2.908   7.507   0.064  0.5754  0.3301  0.3040
  882MOL0     H19059   3.035   7.452   0.175  0.3197 -0.5948 -0.5633
  882MOL0     H19060   2.978   7.605   0.321 -2.4296  1.1382  1.9694
  882MOL0     H19061   2.838   7.512   0.356 -1.2021 -0.7010 -1.1488
  882MOL0     H19062   2.852   7.726   0.134  0.3063  1.0760  1.1541
  882MOL0     H19063   2.841   7.760   0.312  1.7243 -0.2739  0.8007
  882MOL0     H19064   2.635   7.589   0.174 -0.9719 -1.2813  1.9678
  882MOL0     H19065   2.642   7.663   0.342 -2.7672  1.6395  0.8673
  882MOL0     H19066   2.557   8.019   0.164  3.5821  0.4196 -1.8271
  882MOL0     H19067   3.001   7.340   0.402 -1.9692  0.5833  0.8207
  882MOL0     H19068   3.092   7.084   0.621 -0.8258 -0.0973 -0.7044
  882MOL0     H19069   3.118   7.266   0.594 -4.6898  3.8446  1.1382
  882MOL0     H19070   2.984   7.198   0.683  0.7180 -2.9200  0.3691
  883MOL0     O19071   0.481   3.688   8.104 -0.5452  0.7445  0.4261
  883MOL0     C19072   0.504   3.713   8.223  0.6628 -0.1285  1.0347
  883MOL0     O19073   0.448   3.825   8.282 -0.7774  0.7654 -0.1934
  883MOL0     C19074   0.368   3.902   8.211  0.2827 -0.3550 -0.3185
  883MOL0     C19075   0.239   3.906   8.267 -0.3020  0.1815  0.2316
  883MOL0     C19076   0.140   3.985   8.224 -0.0706  0.1900  0.1266
  883MOL0     C19077   0.172   4.079   8.118 -0.3689  0.2459  1.2939
  883MOL0     O19078   0.086   4.192   8.093 -0.3690  0.4036  0.1199
  883MOL0     C19079   0.050   4.247   8.214 -0.1864 -0.0535  0.1714
  883MOL0     C19080   0.013   4.396   8.216 -1.0511  0.6036 -0.3541
  883MOL0     C19081   0.133   4.483   8.199  0.6797  0.6610  0.2376
  883MOL0     C19082   0.081   4.628   8.213 -1.1251 -0.2011 -0.2889
  883MOL0     C19083   0.198   4.732   8.208  0.6549 -0.5736  0.1308
  883MOL0     C19084   0.144   4.873   8.206 -0.3721  0.3352  0.3334
  883MOL0     C19085   0.274   4.965   8.206  0.2904 -0.8227 -0.3438
  883MOL0     C19086   0.243   5.111   8.192 -0.2848 -0.7460  0.0334
  883MOL0     N19087   0.360   5.202   8.194 -0.6575  0.5081  0.1315
  883MOL0     C19088   0.459   5.216   8.098 -1.2068  0.3431  0.5549
  883MOL0     C19089   0.550   5.299   8.150 -0.1186 -0.9053  0.0319
  883MOL0     C19090   0.692   5.334   8.099  0.1650 -0.0517  0.4572
  883MOL0     C19091   0.684   5.470   8.032  0.2788 -0.4641 -0.4806
  883MOL0     C19092   0.675   5.590   8.136 -0.4981 -0.6347  0.0510
  883MOL0     C19093   0.783   5.591   8.247 -0.2135  0.0233  0.0737
  883MOL0     O19094   0.769   5.725   8.315  0.5433  0.1479  0.3060
  883MOL0     C19095   0.678   5.747   8.409  0.3937  0.1324  0.1445
  883MOL0     C19096   0.699   5.874   8.456  0.4147 -0.0785 -0.8450
  883MOL0     C19097   0.614   5.923   8.556 -0.4010 -0.0095 -0.1958
  883MOL0     C19098   0.522   5.835   8.613 -0.2233 -0.4649  0.5300
  883MOL0     C19099   0.428   5.870   8.721 -0.5235 -0.0927 -1.3226
  883MOL0     O19100   0.383   5.989   8.723  0.2378  0.1163 -0.4340
  883MOL0     C19101   0.321   6.034   8.842 -0.9353  0.2296  0.0869
  883MOL0     C19102   0.357   6.017   8.976 -0.6033 -0.1533 -0.4209
  883MOL0     C19103   0.280   6.068   9.085  0.1229 -0.0401 -0.1323
  883MOL0     C19104   0.165   6.146   9.058  0.2474  0.3915 -0.0048
  883MOL0     O19105   0.103   6.229   9.141  0.9684 -0.4407  0.1509
  883MOL0     C19106   0.116   6.209   9.280 -0.4282 -0.2448 -0.4333
  883MOL0     C19107   0.011   6.275   9.368  0.1031  0.0388 -0.1861
  883MOL0     C19108   0.056   6.278   9.520 -0.9260  0.0865 -0.0564
  883MOL0     C19109   0.164   6.392   9.548 -0.0639  0.5376 -0.0328
  883MOL0     C19110   0.190   6.400   9.702  0.7364  0.8399 -0.7986
  883MOL0     C19111   0.322   6.476   9.726 -0.5226 -0.6779  0.3248
  883MOL0     C19112   0.383   6.456   9.868 -0.9935  0.1946 -0.0823
  883MOL0     C19113   0.423   6.313   9.912  0.2830 -0.3888  0.5344
  883MOL0    Cl19114   0.554   6.265   9.802  0.2622 -0.6154 -0.1354
  883MOL0     C19115   0.126   6.155   8.930 -0.3998  0.3845 -0.3433
  883MOL0     C19116   0.202   6.106   8.818 -0.6200  0.4178  0.8194
  883MOL0     O19117   0.406   5.778   8.803  0.9211 -0.2687  0.1194
  883MOL0     C19118   0.515   5.701   8.562  0.0820 -0.1354  0.4243
  883MOL0     C19119   0.599   5.654   8.467 -0.4450  0.2745  0.3508
  883MOL0     N19120   0.509   5.329   8.279  0.3052 -0.0660  0.4230
  883MOL0     N19121   0.402   5.274   8.308  0.2993  0.1485 -0.4254
  883MOL0     C19122   0.299   4.080   8.053 -1.1521  0.2117  0.4258
  883MOL0     C19123   0.395   3.983   8.094  0.7962  0.3696 -0.4002
  883MOL0     C19124   0.589   3.635   8.306 -0.0011  0.2435 -0.0095
  883MOL0     C19125   0.582   3.665   8.446 -1.2486  0.2423 -0.3621
  883MOL0     C19126   0.661   3.589   8.533  0.2831  0.4023 -0.1664
  883MOL0     C19127   0.745   3.483   8.494  0.2197 -0.3109  0.7743
  883MOL0     O19128   0.800   3.411   8.597 -0.2371 -0.7225 -0.2659
  883MOL0     C19129   0.926   3.358   8.578 -0.5048 -0.0821 -0.7551
  883MOL0     C19130   0.986   3.328   8.718  0.1490  0.5211  0.4119
  883MOL0     C19131   0.923   3.210   8.788 -0.1727  0.0888 -0.2343
  883MOL0     C19132   1.016   3.153   8.893  0.5260  0.6363 -0.0295
  883MOL0     C19133   1.035   3.230   9.023 -0.0998  0.0483  0.1893
  883MOL0     C19134   1.052   3.286   9.130  0.7968 -0.0941 -0.3491
  883MOL0     C19135   0.743   3.451   8.357  0.4933  0.5291  0.0956
  883MOL0     C19136   0.670   3.525   8.262  0.8698  0.1578  0.0231
  883MOL0     C19137   0.702   3.497   8.122 -0.3632  0.6722 -0.4136
  883MOL0     H19138   0.211   3.843   8.351 -4.0644  1.6060  0.2695
  883MOL0     H19139   0.038   3.992   8.259  1.2973  1.3620  4.6081
  883MOL0     H19140  -0.035   4.198   8.262  0.7253 -0.4418  1.4393
  883MOL0     H19141   0.133   4.229   8.283 -0.3155 -3.4030 -0.4123
  883MOL0     H19142  -0.031   4.404   8.316  1.0281 -0.7866  0.7435
  883MOL0     H19143  -0.060   4.422   8.138 -4.3635 -1.8050  1.6751
  883MOL0     H19144   0.186   4.463   8.106  1.8747 -1.5954  1.3224
  883MOL0     H19145   0.196   4.464   8.286  1.2424  1.6141  0.0515
  883MOL0     H19146   0.003   4.655   8.142 -1.1467  0.4150 -0.0382
  883MOL0     H19147   0.039   4.646   8.313  2.1779 -2.7180  1.8012
  883MOL0     H19148   0.259   4.719   8.298  1.5067  1.3852 -0.1163
  883MOL0     H19149   0.251   4.721   8.113 -0.5770  0.6238 -0.7351
  883MOL0     H19150   0.077   4.879   8.119 -0.3704 -4.2936 -0.2168
  883MOL0     H19151   0.083   4.893   8.295  2.1953 -0.6348  2.4414
  883MOL0     H19152   0.336   4.941   8.119  0.4986 -0.5050 -0.2864
  883MOL0     H19153   0.342   4.940   8.288 -0.6298  2.6777  1.6876
  883MOL0     H19154   0.204   5.125   8.090  0.6168 -0.0127 -0.2350
  883MOL0     H19155   0.174   5.154   8.265 -0.9610 -1.5196 -0.1403
  883MOL0     H19156   0.461   5.177   7.997  1.4147 -0.8315  0.9829
  883MOL0     H19157   0.775   5.320   8.169  0.8460  1.7184  0.0297
  883MOL0     H19158   0.721   5.264   8.020  0.4551  0.7113 -0.1170
  883MOL0     H19159   0.781   5.492   7.988  2.5330  0.2674  4.2449
  883MOL0     H19160   0.600   5.470   7.962  0.0069 -3.4444 -0.2781
  883MOL0     H19161   0.573   5.593   8.176 -0.6017  0.5890 -0.2711
  883MOL0     H19162   0.695   5.681   8.079  2.5880 -1.1112  0.1965
  883MOL0     H19163   0.886   5.587   8.209  1.0682 -0.0337  3.2574
  883MOL0     H19164   0.760   5.507   8.314 -2.9716 -0.7738 -1.7190
  883MOL0     H19165   0.754   5.950   8.400 -2.5884  1.0139 -2.5550
  883MOL0     H19166   0.620   6.029   8.576  2.0112 -0.1037 -0.0987
  883MOL0     H19167   0.448   5.961   8.996 -2.2622 -1.8453  3.8267
  883MOL0     H19168   0.326   6.057   9.182  1.7057  0.5177 -0.7970
  883MOL0     H19169   0.123   6.100   9.294  1.7314 -0.3596 -1.9481
  883MOL0     H19170   0.212   6.256   9.305 -0.1016 -0.8527 -0.4980
  883MOL0     H19171  -0.003   6.379   9.338  2.1215 -0.3691 -2.9360
  883MOL0     H19172  -0.085   6.222   9.362 -0.6653  0.9100  2.8656
  883MOL0     H19173  -0.030   6.304   9.582  0.8004 -0.4262  2.7357
  883MOL0     H19174   0.091   6.178   9.549 -2.1183  0.5561  3.4257
  883MOL0     H19175   0.127   6.487   9.511 -0.2787  0.0910 -0.9870
  883MOL0     H19176   0.258   6.368   9.498 -1.5991 -1.4166 -2.2052
  883MOL0     H19177   0.199   6.298   9.741  0.5791  0.9193 -0.5540
  883MOL0     H19178   0.111   6.443   9.764  2.9976  0.2902  2.7773
  883MOL0     H19179   0.398   6.450   9.651  1.4863  2.7600  0.9424
  883MOL0     H19180   0.308   6.584   9.718  2.0613 -0.1605  1.5626
  883MOL0     H19181   0.309   6.488   9.942  0.9138  0.5156  1.7571
  883MOL0     H19182   0.471   6.520   9.879 -3.4230  3.7823  0.1839
  883MOL0     H19183   0.459   6.316  10.015 -2.4495  4.8839  1.6265
  883MOL0     H19184   0.339   6.243   9.912 -1.0562  1.1618  0.9812
  883MOL0     H19185   0.042   6.223   8.916  2.6880  3.9216 -4.5413
  883MOL0     H19186   0.171   6.136   8.718 -2.2740  0.5813  1.3358
  883MOL0     H19187   0.441   5.626   8.589  0.5837 -1.8863 -2.6833
  883MOL0     H19188   0.596   5.558   8.418 -0.2750 -0.0484  0.9573
  883MOL0     H19189   0.340   4.154   7.986 -2.4651 -1.9252 -2.9783
  883MOL0     H19190   0.493   3.978   8.048 -0.8559  0.0212 -4.2651
  883MOL0     H19191   0.530   3.747   8.495  2.7833  2.6228  0.3339
  883MOL0     H19192   0.644   3.615   8.637  2.5191  3.7868 -0.4791
  883MOL0     H19193   0.989   3.419   8.513  0.8978 -0.8016 -0.1149
  883MOL0     H19194   0.905   3.263   8.527 -1.4814  0.2005 -0.9027
  883MOL0     H19195   0.959   3.414   8.780 -3.0049  0.3794 -0.6070
  883MOL0     H19196   1.096   3.326   8.714  0.1345  0.9859 -0.4464
  883MOL0     H19197   0.908   3.131   8.714  1.1122 -0.5054  0.1071
  883MOL0     H19198   0.827   3.235   8.832 -0.0629  1.0371 -0.5130
  883MOL0     H19199   0.978   3.056   8.926 -2.7573  1.1654 -1.8375
  883MOL0     H19200   1.117   3.128   8.859  0.6677  0.2465  0.6529
  883MOL0     H19201   1.059   3.329   9.228  4.4793  3.6476 -1.9411
  883MOL0     H19202   0.798   3.366   8.319 -1.0264 -1.3176  1.8501
  883MOL0     H19203   0.662   3.396   8.108  0.8496 -0.1637  1.6770
  883MOL0     H19204   0.683   3.572   8.044  0.1590 -0.6021 -1.8089
  883MOL0     H19205   0.810   3.484   8.115 -0.2262  0.6622  1.2841
  884MOL0     O19206   6.996   6.147   5.939  0.3019  0.7048  0.1016
  884MOL0     C19207   7.080   6.055   5.947  0.1243 -0.7268  0.4643
  884MOL0     O19208   7.212   6.065   5.982 -0.7396  0.0983 -0.1785
  884MOL0     C19209   7.255   6.171   6.044 -0.3280 -0.2714 -0.0653
  884MOL0     C19210   7.269   6.175   6.175  0.8523  1.0087  0.0499
  884MOL0     C19211   7.288   6.298   6.254 -0.0893  1.2511  0.4014
  884MOL0     C19212   7.287   6.424   6.190 -0.9387 -0.1001 -0.1911
  884MOL0     O19213   7.295   6.539   6.262  0.8539 -0.4341  0.0523
  884MOL0     C19214   7.286   6.546   6.409 -0.0857 -0.7810  0.5189
  884MOL0     C19215   7.145   6.560   6.452 -0.0582 -0.1050  1.7513
  884MOL0     C19216   7.110   6.473   6.577  0.2491 -0.4619 -0.3898
  884MOL0     C19217   6.954   6.474   6.590 -0.4914  0.7261  0.7935
  884MOL0     C19218   6.888   6.589   6.663 -0.2275 -0.3170  0.0893
  884MOL0     C19219   6.733   6.572   6.656 -0.1721 -0.2767  0.4152
  884MOL0     C19220   6.652   6.687   6.726  0.3797  0.3888 -0.2686
  884MOL0     C19221   6.499   6.659   6.729  0.5948 -0.6191 -0.6905
  884MOL0     N19222   6.434   6.740   6.833 -0.5779  0.0665  0.1078
  884MOL0     C19223   6.420   6.707   6.968 -0.2684 -0.7885  1.0503
  884MOL0     C19224   6.340   6.802   7.016  0.0058 -0.2439 -0.2749
  884MOL0     C19225   6.297   6.817   7.164 -0.4190  0.2322  0.7656
  884MOL0     C19226   6.377   6.937   7.226  0.2550  0.8893 -0.4239
  884MOL0     C19227   6.313   6.959   7.364 -1.4488 -0.6140  0.0673
  884MOL0     C19228   6.382   7.084   7.419 -0.5241  0.2340 -1.0527
  884MOL0     O19229   6.517   7.073   7.471 -0.4179  1.1650 -0.1641
  884MOL0     C19230   6.587   7.191   7.490  0.4164 -0.5663  0.2880
  884MOL0     C19231   6.549   7.321   7.475  0.6243  0.1596  0.2055
  884MOL0     C19232   6.625   7.433   7.509 -0.2385  0.7533  0.6320
  884MOL0     C19233   6.755   7.406   7.564  0.2195 -0.8807  0.5820
  884MOL0     C19234   6.835   7.516   7.616  0.4967 -0.0178 -0.3784
  884MOL0     O19235   6.952   7.484   7.673 -0.2233 -0.7565  1.1103
  884MOL0     C19236   7.042   7.572   7.722 -1.1878 -0.5206  0.2444
  884MOL0     C19237   7.054   7.708   7.697  0.5181  0.2374  0.0521
  884MOL0     C19238   7.163   7.777   7.741  0.2952 -0.4837 -0.5195
  884MOL0     C19239   7.267   7.718   7.804 -0.0113 -0.0324  0.2522
  884MOL0     O19240   7.369   7.795   7.847  0.5977 -0.1037 -0.1513
  884MOL0     C19241   7.492   7.727   7.856 -0.2170 -0.5198 -0.2460
  884MOL0     C19242   7.585   7.803   7.947  0.1562 -0.2027 -1.2387
  884MOL0     C19243   7.644   7.919   7.874 -0.2420  0.2602  0.3631
  884MOL0     C19244   7.786   7.953   7.931 -0.1870 -0.2411 -0.1609
  884MOL0     C19245   7.856   8.049   7.825  0.5898 -0.2477 -0.8128
  884MOL0     C19246   7.978   8.123   7.892  0.0279  0.5678  0.2845
  884MOL0     C19247   8.074   8.201   7.787  0.7954 -0.0366  0.4089
  884MOL0     C19248   8.204   8.118   7.773 -0.8274  0.0436  0.5000
  884MOL0    Cl19249   8.305   8.141   7.924 -0.2084 -0.0218  0.1482
  884MOL0     C19250   7.255   7.578   7.842  1.2543  1.1270  0.6558
  884MOL0     C19251   7.147   7.511   7.792 -0.0791 -0.1075 -0.5664
  884MOL0     O19252   6.792   7.631   7.595 -0.0610 -0.0262  0.0714
  884MOL0     C19253   6.804   7.273   7.568  1.1533 -0.1727  0.3458
  884MOL0     C19254   6.717   7.164   7.533  0.5360 -0.7157  0.1752
  884MOL0     N19255   6.319   6.900   6.921 -0.4328  0.3395  0.4420
  884MOL0     N19256   6.366   6.853   6.811  0.2659 -0.6623  0.5762
  884MOL0     C19257   7.258   6.419   6.055  0.1297 -0.0060  0.4270
  884MOL0     C19258   7.245   6.297   5.986  0.1933 -0.2997 -0.3918
  884MOL0     C19259   7.026   5.918   5.941  0.0271 -0.5974  0.6038
  884MOL0     C19260   7.114   5.815   5.913 -0.4536  0.1036 -0.1544
  884MOL0     C19261   7.072   5.684   5.907  0.8003  0.3075 -0.8172
  884MOL0     C19262   6.943   5.652   5.915  0.9356 -0.6062  0.5708
  884MOL0     O19263   6.887   5.527   5.896  0.4433  0.1109 -0.5265
  884MOL0     C19264   6.914   5.464   5.771  0.1931 -0.6164  0.2519
  884MOL0     C19265   6.964   5.321   5.805  0.5788 -0.8524  0.4710
  884MOL0     C19266   6.991   5.256   5.668  1.3114 -0.3989 -0.5369
  884MOL0     C19267   7.049   5.119   5.701  0.2146  0.0839 -0.9154
  884MOL0     C19268   7.004   5.021   5.594 -0.2465 -0.8784 -0.0481
  884MOL0     C19269   6.975   4.949   5.503  0.6248 -0.9137 -0.5873
  884MOL0     C19270   6.846   5.752   5.949 -0.7914 -0.3481 -0.0390
  884MOL0     C19271   6.884   5.885   5.960 -0.1598 -1.1613 -0.2808
  884MOL0     C19272   6.771   5.986   5.968 -0.8516  0.6131  0.4631
  884MOL0     H19273   7.269   6.087   6.239  0.6017 -1.2675 -2.8801
  884MOL0     H19274   7.296   6.284   6.361 -0.6316  2.7771  0.6586
  884MOL0     H19275   7.323   6.454   6.455  1.6629  0.8104  2.4537
  884MOL0     H19276   7.350   6.623   6.452 -0.8305  0.6352 -0.7828
  884MOL0     H19277   7.084   6.524   6.369  2.2745 -2.7093  1.0451
  884MOL0     H19278   7.119   6.666   6.459 -1.5417 -0.4176  1.3873
  884MOL0     H19279   7.169   6.510   6.661 -1.8948  0.9807  0.6010
  884MOL0     H19280   7.155   6.374   6.567  0.9247 -0.3820  1.4645
  884MOL0     H19281   6.913   6.456   6.490 -2.2694  0.3707  1.5549
  884MOL0     H19282   6.916   6.385   6.642 -0.6240  0.2928 -0.0308
  884MOL0     H19283   6.921   6.588   6.768 -0.5142 -0.4530  0.1795
  884MOL0     H19284   6.912   6.683   6.612 -0.8882 -0.6011 -0.7632
  884MOL0     H19285   6.702   6.582   6.552  0.2595  0.7956  0.3728
  884MOL0     H19286   6.695   6.477   6.694 -2.7045 -0.0950 -1.4506
  884MOL0     H19287   6.681   6.783   6.681  0.2163  0.4988 -0.1372
  884MOL0     H19288   6.684   6.695   6.830  1.9533  2.8087 -0.8317
  884MOL0     H19289   6.465   6.691   6.630  0.4263  0.0174 -0.4314
  884MOL0     H19290   6.482   6.552   6.748  0.0767 -0.0021  3.0317
  884MOL0     H19291   6.471   6.624   7.016 -0.7353 -0.6506  1.7858
  884MOL0     H19292   6.189   6.829   7.165 -0.3207  1.1727  0.8388
  884MOL0     H19293   6.321   6.724   7.218  0.9334  0.9426  1.4538
  884MOL0     H19294   6.484   6.914   7.233  0.0538  0.4883  2.4112
  884MOL0     H19295   6.363   7.028   7.168 -3.0350  2.0847  1.9880
  884MOL0     H19296   6.335   6.865   7.415 -0.8317 -0.9040 -0.6968
  884MOL0     H19297   6.206   6.980   7.359 -0.8319  2.6284 -1.9675
  884MOL0     H19298   6.307   7.113   7.493 -1.1618  0.1053 -1.6384
  884MOL0     H19299   6.395   7.167   7.348  2.5778  0.8416  0.0632
  884MOL0     H19300   6.448   7.355   7.456  0.6061  0.0674  0.1358
  884MOL0     H19301   6.584   7.532   7.497  0.6573  0.8253 -2.6668
  884MOL0     H19302   6.989   7.768   7.635  2.8094  3.6078  0.6220
  884MOL0     H19303   7.172   7.883   7.715 -0.1310 -0.6411 -1.3438
  884MOL0     H19304   7.478   7.628   7.900 -0.3761 -1.5864 -2.5762
  884MOL0     H19305   7.531   7.718   7.755  2.7967  5.1951 -0.0091
  884MOL0     H19306   7.539   7.836   8.040  1.5608 -0.0641 -0.5663
  884MOL0     H19307   7.655   7.727   7.981 -1.1419 -0.2559  1.5576
  884MOL0     H19308   7.658   7.900   7.767  1.0347 -1.7274  0.8269
  884MOL0     H19309   7.564   7.991   7.893 -0.6669 -0.2438  0.5108
  884MOL0     H19310   7.847   7.863   7.944  0.9012  0.2761 -1.4752
  884MOL0     H19311   7.786   7.990   8.034  4.4058 -0.1453  0.0002
  884MOL0     H19312   7.787   8.117   7.773 -1.3975 -1.6237 -0.0963
  884MOL0     H19313   7.873   7.981   7.742  2.2598 -3.6696  2.0964
  884MOL0     H19314   7.939   8.197   7.963  2.0806  2.7680 -0.7584
  884MOL0     H19315   8.030   8.050   7.956 -0.6954 -0.1062  0.1276
  884MOL0     H19316   8.098   8.301   7.826  0.2931 -0.7971  2.8806
  884MOL0     H19317   8.028   8.219   7.690  0.4950  2.5344  0.9632
  884MOL0     H19318   8.184   8.011   7.774 -0.4523 -0.0369  1.7934
  884MOL0     H19319   8.267   8.147   7.688 -1.3368 -0.3331 -0.0131
  884MOL0     H19320   7.325   7.522   7.904  0.7755  0.2708  0.4426
  884MOL0     H19321   7.134   7.407   7.820  2.4139 -0.2959  0.1107
  884MOL0     H19322   6.899   7.270   7.621  2.9581  3.2322 -2.2544
  884MOL0     H19323   6.754   7.062   7.530  1.3833 -0.4810  1.8365
  884MOL0     H19324   7.222   6.501   5.992 -4.9683 -1.9545  0.3172
  884MOL0     H19325   7.212   6.296   5.883 -2.5710 -0.1722  0.4143
  884MOL0     H19326   7.220   5.823   5.893  0.0023 -2.5016  0.7096
  884MOL0     H19327   7.135   5.600   5.882 -1.8518 -1.1007 -3.3390
  884MOL0     H19328   6.994   5.515   5.716  1.9645  0.6860  3.7275
  884MOL0     H19329   6.824   5.452   5.710 -1.6204  1.3199  2.3262
  884MOL0     H19330   6.883   5.271   5.858  0.5607  0.8868  2.2314
  884MOL0     H19331   7.052   5.314   5.870  1.5184 -5.2284 -0.9246
  884MOL0     H19332   7.057   5.321   5.610  0.1028 -0.6499 -2.2780
  884MOL0     H19333   6.894   5.248   5.619  0.7337  0.1644  0.4787
  884MOL0     H19334   7.158   5.119   5.714 -0.0044  1.5739  1.6486
  884MOL0     H19335   7.006   5.089   5.797  2.3416 -1.6890 -0.4428
  884MOL0     H19336   6.949   4.891   5.416  0.1462 -3.9521  1.4255
  884MOL0     H19337   6.741   5.723   5.949 -1.0664  0.6177 -0.1344
  884MOL0     H19338   6.673   5.948   5.998 -2.3289  3.6350 -0.1209
  884MOL0     H19339   6.792   6.050   6.054 -2.7306  1.4712  0.3345
  884MOL0     H19340   6.749   6.053   5.884  0.2849  1.2829  0.6786
  885MOL0     O19341   1.948  10.719   9.265 -0.1382  0.1647  0.5503
  885MOL0     C19342   2.065  10.743   9.270  0.2037 -0.6719  0.3602
  885MOL0     O19343   2.158  10.665   9.210  0.3434 -0.1169  0.3733
  885MOL0     C19344   2.107  10.577   9.125 -1.1330 -0.6107 -0.7094
  885MOL0     C19345   2.138  10.442   9.143  0.2859 -0.4764  0.0302
  885MOL0     C19346   2.108  10.340   9.049  0.1142 -0.4930  0.0902
  885MOL0     C19347   2.032  10.377   8.932 -0.3346  1.1620 -0.0581
  885MOL0     O19348   1.994  10.274   8.856  0.5508 -0.0696 -0.3609
  885MOL0     C19349   1.961  10.312   8.722 -0.1886 -0.4760  0.7605
  885MOL0     C19350   1.973  10.186   8.635  0.8961 -0.7011 -0.5619
  885MOL0     C19351   1.971  10.225   8.486 -0.2941 -0.5159  0.7249
  885MOL0     C19352   1.929  10.102   8.405  0.7269 -0.7528 -0.1912
  885MOL0     C19353   1.939  10.146   8.263  0.0825 -0.8236  0.7902
  885MOL0     C19354   1.918  10.022   8.172  0.5468  0.3415 -0.4119
  885MOL0     C19355   1.977  10.041   8.035 -0.1668  0.2833  0.0809
  885MOL0     C19356   1.907  10.158   7.969 -0.1694  0.2087  0.3472
  885MOL0     N19357   1.932  10.159   7.823  0.3557 -0.5331 -0.2993
  885MOL0     C19358   2.013  10.252   7.769  1.0177 -0.2955  0.4481
  885MOL0     C19359   1.991  10.249   7.638  0.4218  0.0887  0.2321
  885MOL0     C19360   2.040  10.362   7.548 -0.4191 -0.0843  1.3118
  885MOL0     C19361   2.192  10.362   7.531  0.2624  0.2593  0.0997
  885MOL0     C19362   2.226  10.488   7.459  0.4520  0.5008 -0.1195
  885MOL0     C19363   2.381  10.491   7.461  0.5184 -0.0565  0.6084
  885MOL0     O19364   2.446  10.399   7.380 -0.3799  0.1281  0.1191
  885MOL0     C19365   2.585  10.408   7.369 -0.7886 -0.1298 -0.5243
  885MOL0     C19366   2.663  10.509   7.419 -1.4004  0.3195 -0.1823
  885MOL0     C19367   2.797  10.507   7.402  0.8143 -0.3998  0.1651
  885MOL0     C19368   2.858  10.398   7.341  0.1105  0.1770  1.0730
  885MOL0     C19369   3.005  10.413   7.314  0.7759  1.2225  0.3113
  885MOL0     O19370   3.058  10.531   7.272 -0.3093 -0.7932 -0.3198
  885MOL0     C19371   3.178  10.548   7.208  0.0407  1.3748  0.1121
  885MOL0     C19372   3.251  10.434   7.157  0.6022  0.0014 -0.3193
  885MOL0     C19373   3.369  10.446   7.087  0.4196  0.4207  0.3143
  885MOL0     C19374   3.425  10.580   7.078  0.2422  1.0672  1.5600
  885MOL0     O19375   3.554  10.598   7.033  0.0709  0.0714 -0.5057
  885MOL0     C19376   3.637  10.493   6.986  0.9531  0.1520 -1.0474
  885MOL0     C19377   3.775  10.550   6.938  0.2087 -0.2060  1.3268
  885MOL0     C19378   3.880  10.561   7.054  0.3328 -0.2768 -0.4408
  885MOL0     C19379   3.980  10.676   7.027  0.0213 -0.2371  0.7784
  885MOL0     C19380   4.090  10.638   6.917  0.7547  0.0138 -0.3772
  885MOL0     C19381   4.197  10.562   6.990  0.3406 -0.2854 -0.2451
  885MOL0     C19382   4.271  10.484   6.880  0.4502 -0.7184  0.1274
  885MOL0     C19383   4.394  10.416   6.941  0.2902  0.0029 -0.3409
  885MOL0    Cl19384   4.445  10.304   6.813  0.5084  0.3169  0.3511
  885MOL0     C19385   3.354  10.693   7.118  0.1639  0.3928 -0.0492
  885MOL0     C19386   3.239  10.670   7.201  0.3822  0.0164  0.6622
  885MOL0     O19387   3.075  10.310   7.333  0.1669  0.0406  0.6583
  885MOL0     C19388   2.781  10.288   7.297 -0.7908  0.7860  0.8560
  885MOL0     C19389   2.640  10.296   7.306 -0.2451  1.0982  0.3456
  885MOL0     N19390   1.902  10.145   7.606 -0.7202 -0.2194  0.4462
  885MOL0     N19391   1.861  10.100   7.719 -0.5406  0.8946 -0.7567
  885MOL0     C19392   1.998  10.509   8.920  0.1057 -0.0251  0.0144
  885MOL0     C19393   2.033  10.614   9.015  0.1851  0.5800  0.5645
  885MOL0     C19394   2.105  10.869   9.353 -0.0110  0.2088 -1.0540
  885MOL0     C19395   2.244  10.890   9.356 -0.5983 -0.8540  0.2431
  885MOL0     C19396   2.293  11.010   9.419  0.6903 -0.2870 -1.1422
  885MOL0     C19397   2.211  11.089   9.500 -0.3675 -0.3705  0.0916
  885MOL0     O19398   2.246  11.207   9.564 -0.1481 -0.3811 -0.3996
  885MOL0     C19399   2.383  11.235   9.588 -0.2526 -0.5092  0.2952
  885MOL0     C19400   2.456  11.128   9.680  0.2124  0.0807  0.4924
  885MOL0     C19401   2.608  11.142   9.681 -0.3829 -1.1656  0.7717
  885MOL0     C19402   2.664  11.033   9.770 -0.0442  0.3247  0.1611
  885MOL0     C19403   2.800  11.062   9.813 -0.6465  0.6155  0.5416
  885MOL0     C19404   2.902  11.101   9.866  0.8715 -0.2512  0.7731
  885MOL0     C19405   2.079  11.072   9.483  0.0989 -0.1637 -0.2764
  885MOL0     C19406   2.023  10.968   9.413 -0.7096 -0.2790  0.5670
  885MOL0     C19407   1.873  10.958   9.418 -0.1585  0.7147 -0.4894
  885MOL0     H19408   2.205  10.414   9.224 -1.0581 -4.1464  0.0743
  885MOL0     H19409   2.124  10.235   9.072  0.6505  0.0848  2.6590
  885MOL0     H19410   1.867  10.367   8.713  0.3160  0.1648 -1.3650
  885MOL0     H19411   2.044  10.374   8.685 -0.1278  1.7769  4.2353
  885MOL0     H19412   1.899  10.116   8.675  1.0764  0.2168  1.5316
  885MOL0     H19413   2.068  10.136   8.658 -0.4109 -2.5703  1.1813
  885MOL0     H19414   2.071  10.259   8.457  0.1289 -1.3142  1.2203
  885MOL0     H19415   1.901  10.306   8.460  2.3225  2.1277  1.4305
  885MOL0     H19416   2.009  10.028   8.416  0.3255 -0.9703  1.5238
  885MOL0     H19417   1.825  10.076   8.427 -0.2438  0.5522 -2.8215
  885MOL0     H19418   1.860  10.214   8.231 -0.9617 -1.2902  2.2856
  885MOL0     H19419   2.037  10.195   8.253  0.7507 -2.2732 -0.2141
  885MOL0     H19420   1.965   9.934   8.216 -0.7769 -0.1246  0.1161
  885MOL0     H19421   1.813  10.003   8.151 -0.0539  2.7922  0.0942
  885MOL0     H19422   1.970   9.955   7.968  2.1051  0.1825 -0.1245
  885MOL0     H19423   2.083  10.064   8.050  0.0200  0.0221 -0.8066
  885MOL0     H19424   1.799  10.150   7.980 -0.0716  0.4628  1.6657
  885MOL0     H19425   1.945  10.252   8.010  3.8102  0.6350 -3.5385
  885MOL0     H19426   2.073  10.330   7.813 -0.5719  1.7579 -0.8437
  885MOL0     H19427   1.985  10.363   7.453 -1.9567  1.5520  2.1397
  885MOL0     H19428   2.013  10.456   7.598  2.5742  1.4406  0.2967
  885MOL0     H19429   2.231  10.355   7.633 -0.3481  3.4872  0.6617
  885MOL0     H19430   2.233  10.283   7.467 -3.0943  1.9920 -4.7624
  885MOL0     H19431   2.196  10.581   7.507 -0.4345 -0.0386  0.3971
  885MOL0     H19432   2.183  10.478   7.359  0.6728  4.2897 -0.7555
  885MOL0     H19433   2.420  10.470   7.561  3.7835 -2.7910 -1.0187
  885MOL0     H19434   2.401  10.592   7.425  0.4519 -0.7852 -1.5839
  885MOL0     H19435   2.627  10.581   7.493  0.2289  0.2968  0.6763
  885MOL0     H19436   2.849  10.583   7.459  0.0359  0.4983 -0.2879
  885MOL0     H19437   3.207  10.336   7.141  3.2124 -1.4032  0.6159
  885MOL0     H19438   3.422  10.355   7.063  1.5236  0.5181  2.1655
  885MOL0     H19439   3.654  10.436   7.078  0.4442 -0.0164 -1.0550
  885MOL0     H19440   3.584  10.427   6.917 -0.5117  1.5481 -1.3121
  885MOL0     H19441   3.819  10.490   6.858  1.6343 -0.8230  2.5314
  885MOL0     H19442   3.763  10.652   6.901 -0.4371 -0.5741  0.4855
  885MOL0     H19443   3.841  10.601   7.148  2.9064 -0.0091  0.6110
  885MOL0     H19444   3.925  10.463   7.071  0.4044  0.0180  1.3527
  885MOL0     H19445   4.040  10.702   7.114  0.2626 -3.4735  1.6897
  885MOL0     H19446   3.920  10.763   6.997  2.0668  0.3760 -1.9033
  885MOL0     H19447   4.138  10.726   6.871 -2.7198  1.9511 -0.6481
  885MOL0     H19448   4.052  10.582   6.831 -0.4230  1.1020 -0.5876
  885MOL0     H19449   4.261  10.624   7.054 -1.3539  0.5808  0.6511
  885MOL0     H19450   4.150  10.484   7.050  1.7561 -1.5526 -0.7033
  885MOL0     H19451   4.309  10.545   6.797 -0.3373  0.3123  0.5087
  885MOL0     H19452   4.204  10.411   6.833 -0.3745  2.8600 -5.2063
  885MOL0     H19453   4.471  10.485   6.977 -0.0813  0.5522 -0.5877
  885MOL0     H19454   4.371  10.360   7.032  3.9932 -3.8022 -1.4263
  885MOL0     H19455   3.408  10.786   7.104 -0.8625  0.7766 -1.7674
  885MOL0     H19456   3.194  10.749   7.260 -0.9914  0.3792 -0.7906
  885MOL0     H19457   2.828  10.199   7.256  1.4161  1.9356  0.7152
  885MOL0     H19458   2.574  10.215   7.276  1.6464  0.7692 -3.3986
  885MOL0     H19459   1.929  10.533   8.839  0.2286 -0.6390 -0.2763
  885MOL0     H19460   1.999  10.715   8.995  1.8716  0.5371 -3.3762
  885MOL0     H19461   2.301  10.833   9.283 -1.6683 -1.5570 -0.0807
  885MOL0     H19462   2.393  11.045   9.397  0.6205 -0.1507 -1.2404
  885MOL0     H19463   2.400  11.331   9.637  3.2946 -1.4849  1.2538
  885MOL0     H19464   2.445  11.240   9.498  3.1412 -1.4357  2.4340
  885MOL0     H19465   2.445  11.024   9.647  1.6830  1.0799 -3.8515
  885MOL0     H19466   2.403  11.137   9.775 -1.7655 -1.6685 -0.3714
  885MOL0     H19467   2.621  11.244   9.717 -2.0831 -0.3394 -0.7789
  885MOL0     H19468   2.655  11.130   9.582  1.5433  0.5047  1.4121
  885MOL0     H19469   2.608  11.027   9.864 -0.0315  3.1340  0.4302
  885MOL0     H19470   2.652  10.937   9.719  0.8932 -0.3062  1.0876
  885MOL0     H19471   2.987  11.160   9.894  2.8658 -2.4006 -0.4815
  885MOL0     H19472   2.006  11.129   9.540 -0.5703 -0.6163 -0.6732
  885MOL0     H19473   1.835  11.034   9.487 -0.1612  4.1365 -3.9114
  885MOL0     H19474   1.828  10.984   9.322 -5.3181  1.3376  1.7549
  885MOL0     H19475   1.836  10.857   9.442 -2.1599  0.4969 -3.8521
  886MOL0     O19476   2.529   8.876   1.839  0.2127  0.3919 -0.9222
  886MOL0     C19477   2.498   8.970   1.918  1.0027 -0.9411 -0.3742
  886MOL0     O19478   2.381   8.966   1.984 -0.8407  0.0243  0.3064
  886MOL0     C19479   2.289   8.874   1.972  0.5316 -0.5532 -0.4365
  886MOL0     C19480   2.325   8.733   1.992 -0.5605 -0.3658  0.5865
  886MOL0     C19481   2.229   8.643   1.978  0.1429  0.6625 -0.3424
  886MOL0     C19482   2.091   8.675   1.982  0.0552 -0.5284 -0.4698
  886MOL0     O19483   2.006   8.569   1.985 -0.5599  0.0041 -0.7651
  886MOL0     C19484   1.865   8.595   1.977  0.3189  0.8464  0.0875
  886MOL0     C19485   1.778   8.470   1.990 -0.4283 -0.7150  0.8102
  886MOL0     C19486   1.631   8.505   1.989  0.9068 -0.0179 -0.2491
  886MOL0     C19487   1.531   8.395   1.943  0.1159  0.2944  0.8222
  886MOL0     C19488   1.546   8.265   2.019  0.3462  0.1954  0.0133
  886MOL0     C19489   1.531   8.279   2.174  0.6866 -0.6727 -1.6245
  886MOL0     C19490   1.484   8.156   2.255  0.5908  0.2914  0.1187
  886MOL0     C19491   1.516   8.172   2.410 -0.4540 -0.4118 -0.0481
  886MOL0     N19492   1.470   8.040   2.452 -1.4565 -0.8892 -0.9364
  886MOL0     C19493   1.551   7.937   2.462  0.0753 -0.1987 -0.3746
  886MOL0     C19494   1.473   7.837   2.515 -0.7302 -0.0985 -0.0474
  886MOL0     C19495   1.521   7.701   2.534 -0.5277  0.7678 -0.3850
  886MOL0     C19496   1.446   7.623   2.641  0.0666 -0.2481  1.2443
  886MOL0     C19497   1.451   7.686   2.785 -0.2508 -0.0812  0.6856
  886MOL0     C19498   1.414   7.591   2.896 -0.2933  0.3629 -0.1792
  886MOL0     O19499   1.534   7.512   2.922 -0.1856 -0.5668 -0.7331
  886MOL0     C19500   1.540   7.453   3.051 -0.7562 -0.5613  0.2251
  886MOL0     C19501   1.437   7.384   3.101 -0.5065 -0.4489 -0.3812
  886MOL0     C19502   1.445   7.321   3.226 -0.5478  0.1778 -0.0435
  886MOL0     C19503   1.564   7.340   3.309 -0.4075  0.1700  0.4102
  886MOL0     C19504   1.580   7.280   3.443 -0.4980  0.2963 -1.1187
  886MOL0     O19505   1.678   7.324   3.526 -0.6192  0.3729 -0.0662
  886MOL0     C19506   1.715   7.237   3.628  0.2483 -0.3288  0.2839
  886MOL0     C19507   1.743   7.106   3.596  0.2187  0.1151  0.2587
  886MOL0     C19508   1.786   7.013   3.690  0.5683  0.3054 -0.3925
  886MOL0     C19509   1.807   7.063   3.826  0.1547 -0.1684 -0.1766
  886MOL0     O19510   1.850   6.977   3.925 -0.8734 -0.4537 -0.4340
  886MOL0     C19511   1.756   6.953   4.028  0.8550  0.4965  0.0086
  886MOL0     C19512   1.806   6.833   4.116  0.4515 -0.2118  0.5254
  886MOL0     C19513   1.951   6.843   4.164 -0.1037  0.0656  0.0447
  886MOL0     C19514   1.963   6.795   4.312  0.1766  0.3575 -0.8845
  886MOL0     C19515   2.106   6.794   4.360  0.6663 -0.0413  0.2083
  886MOL0     C19516   2.119   6.746   4.497 -0.5100 -0.3079  0.7681
  886MOL0     C19517   2.266   6.724   4.548 -0.6236  0.2063  0.0677
  886MOL0     C19518   2.331   6.864   4.559 -0.2047 -0.3943  0.3673
  886MOL0    Cl19519   2.403   6.893   4.396  0.3600 -0.1718  0.0291
  886MOL0     C19520   1.788   7.193   3.854  1.7910 -0.6888  1.0368
  886MOL0     C19521   1.745   7.286   3.754  0.2115 -0.1850  0.0700
  886MOL0     O19522   1.490   7.189   3.468  0.4793 -0.4565  0.3901
  886MOL0     C19523   1.668   7.420   3.257  1.2183 -0.4255 -1.1599
  886MOL0     C19524   1.653   7.480   3.135 -0.0426 -0.7711  0.1547
  886MOL0     N19525   1.356   7.896   2.549  0.2804 -0.1297 -0.1315
  886MOL0     N19526   1.350   8.014   2.502  0.2283 -0.2252 -1.1777
  886MOL0     C19527   2.053   8.812   1.965 -0.2136  0.1774 -0.1880
  886MOL0     C19528   2.154   8.901   1.953  0.2422  0.3080  0.1830
  886MOL0     C19529   2.589   9.090   1.939  0.7750 -0.5727  0.0490
  886MOL0     C19530   2.717   9.082   1.891 -1.0456  0.7057 -0.3729
  886MOL0     C19531   2.806   9.188   1.884 -0.5478  0.7998 -0.6446
  886MOL0     C19532   2.765   9.309   1.929  0.7768 -0.4312 -1.2242
  886MOL0     O19533   2.854   9.419   1.919 -0.1438 -0.1384  0.0148
  886MOL0     C19534   2.876   9.450   1.779  0.7582 -0.8471 -0.6255
  886MOL0     C19535   2.827   9.587   1.750 -0.1801  0.6604  0.4561
  886MOL0     C19536   2.931   9.692   1.785 -0.1974  0.8592  0.2141
  886MOL0     C19537   2.871   9.798   1.872  0.0287 -0.3268  1.2421
  886MOL0     C19538   2.842   9.741   2.009 -0.2175 -0.4822 -0.0346
  886MOL0     C19539   2.805   9.718   2.125 -0.3795 -0.1245 -0.6498
  886MOL0     C19540   2.638   9.320   1.986 -0.3424 -0.8952  0.2007
  886MOL0     C19541   2.545   9.215   1.995 -0.0589  0.5927  0.1010
  886MOL0     C19542   2.405   9.247   2.058  0.1289  0.2662 -0.0391
  886MOL0     H19543   2.426   8.707   2.022  1.2143  3.1356 -1.6355
  886MOL0     H19544   2.257   8.539   1.988  2.9724  1.4934  2.1022
  886MOL0     H19545   1.825   8.663   2.054 -0.3836 -1.7288  2.1364
  886MOL0     H19546   1.857   8.646   1.880  2.4758  1.1576  0.0304
  886MOL0     H19547   1.801   8.412   2.080  1.1346 -1.6591 -0.1376
  886MOL0     H19548   1.797   8.399   1.908 -1.6442 -1.0848  0.8387
  886MOL0     H19549   1.609   8.589   1.923 -4.7956  0.1159  1.3576
  886MOL0     H19550   1.603   8.528   2.092 -0.4678  1.9351 -1.0085
  886MOL0     H19551   1.430   8.433   1.963  1.0071  2.8053  0.8894
  886MOL0     H19552   1.548   8.373   1.837 -0.3652 -1.2605  1.0373
  886MOL0     H19553   1.473   8.192   1.982  1.8850 -1.4400  0.1210
  886MOL0     H19554   1.649   8.231   2.009  0.7379  1.4523 -0.5311
  886MOL0     H19555   1.623   8.321   2.217 -1.8298  3.8795  0.0822
  886MOL0     H19556   1.463   8.363   2.190  1.7305 -0.0632 -0.0849
  886MOL0     H19557   1.534   8.064   2.224 -0.6983 -1.5449  3.0557
  886MOL0     H19558   1.376   8.145   2.240  0.5269  0.7474  0.2420
  886MOL0     H19559   1.621   8.183   2.438 -0.0396 -3.7581  0.0944
  886MOL0     H19560   1.458   8.259   2.442  0.7156  0.3366  0.0780
  886MOL0     H19561   1.655   7.929   2.431 -0.3452 -3.1002 -1.4094
  886MOL0     H19562   1.502   7.642   2.444 -3.6366  2.1467 -0.7531
  886MOL0     H19563   1.629   7.695   2.553 -0.7569 -1.7424  0.3862
  886MOL0     H19564   1.347   7.594   2.602  2.7659 -4.8671 -3.4293
  886MOL0     H19565   1.488   7.522   2.643 -2.6929 -1.5999 -1.1775
  886MOL0     H19566   1.378   7.766   2.800 -1.7246 -1.1979 -0.1111
  886MOL0     H19567   1.551   7.725   2.803 -0.1007  1.4270 -2.5756
  886MOL0     H19568   1.344   7.513   2.866 -1.6052  1.8291 -1.0086
  886MOL0     H19569   1.388   7.656   2.979  0.8791  1.8129 -0.8922
  886MOL0     H19570   1.348   7.381   3.040 -0.7026  1.6851 -0.2886
  886MOL0     H19571   1.364   7.255   3.252 -0.7367 -1.1873 -3.6333
  886MOL0     H19572   1.743   7.071   3.494 -0.2401 -0.5164  0.4675
  886MOL0     H19573   1.811   6.912   3.660 -2.0688 -0.4052 -0.4478
  886MOL0     H19574   1.755   7.039   4.095  0.5479  0.5916 -0.1180
  886MOL0     H19575   1.656   6.929   3.990 -0.1652 -0.2806  2.9324
  886MOL0     H19576   1.740   6.814   4.201 -2.3834  1.5128 -1.1487
  886MOL0     H19577   1.797   6.742   4.056 -4.8929  0.3837 -0.0479
  886MOL0     H19578   2.023   6.785   4.105 -0.0226  0.3013 -0.0923
  886MOL0     H19579   1.984   6.947   4.156 -2.2567  0.8836  0.9888
  886MOL0     H19580   1.924   6.693   4.316  1.8987 -0.2808  0.2766
  886MOL0     H19581   1.910   6.865   4.378  1.9441  0.3414  0.6256
  886MOL0     H19582   2.125   6.902   4.356  0.9623 -0.0760  0.5921
  886MOL0     H19583   2.166   6.736   4.290  0.0060  2.4875 -2.6685
  886MOL0     H19584   2.071   6.821   4.560  0.5260  0.3906  0.7324
  886MOL0     H19585   2.077   6.644   4.493  0.3171 -0.6127 -1.9750
  886MOL0     H19586   2.315   6.657   4.477  0.6423  2.5342 -1.3787
  886MOL0     H19587   2.271   6.682   4.649  3.2975 -1.4930 -0.6150
  886MOL0     H19588   2.255   6.941   4.576  0.5769  1.0821 -2.2187
  886MOL0     H19589   2.410   6.869   4.635 -0.9753 -0.4708  1.1793
  886MOL0     H19590   1.794   7.226   3.957  0.4841 -0.3404  1.0191
  886MOL0     H19591   1.722   7.391   3.770 -0.6593 -0.5793  1.6956
  886MOL0     H19592   1.753   7.449   3.318 -0.4013  1.6730  0.2057
  886MOL0     H19593   1.718   7.563   3.108 -0.7187 -0.2599  0.0741
  886MOL0     H19594   1.954   8.856   1.964 -0.2980  0.0009 -1.4451
  886MOL0     H19595   2.131   9.006   1.938  2.2520  0.8424  0.5970
  886MOL0     H19596   2.753   8.985   1.858  2.3266  1.7413 -0.1189
  886MOL0     H19597   2.909   9.199   1.850 -1.3260  5.1262 -2.2756
  886MOL0     H19598   2.820   9.388   1.707  1.8573 -2.1354 -0.4183
  886MOL0     H19599   2.983   9.435   1.763  1.0095 -3.4108  2.4424
  886MOL0     H19600   2.730   9.597   1.799 -0.6595 -1.6017  0.1006
  886MOL0     H19601   2.802   9.591   1.644  1.5133 -0.9373 -0.0623
  886MOL0     H19602   2.961   9.750   1.698  2.0548  1.1062  1.0862
  886MOL0     H19603   3.026   9.657   1.826 -0.5807  0.2034  0.5711
  886MOL0     H19604   2.956   9.866   1.882 -1.1993  1.9089 -1.9905
  886MOL0     H19605   2.784   9.851   1.832 -0.6268 -3.4680 -2.0195
  886MOL0     H19606   2.795   9.704   2.231 -2.0886 -0.8568 -0.8623
  886MOL0     H19607   2.605   9.415   2.026 -0.0723 -0.1797 -1.2020
  886MOL0     H19608   2.329   9.215   1.986  1.5827  0.1827 -1.6070
  886MOL0     H19609   2.393   9.189   2.149 -0.2370  0.1690 -0.1442
  886MOL0     H19610   2.391   9.354   2.078 -1.2886  0.5736 -2.2752
  887MOL0     O19611   2.139   8.302   6.420 -0.6843  0.0454 -0.4441
  887MOL0     C19612   2.231   8.376   6.456  0.2009 -1.1268  1.1520
  887MOL0     O19613   2.363   8.379   6.417 -0.4957  0.6924  0.2264
  887MOL0     C19614   2.403   8.314   6.303  0.0568  0.4535  0.0788
  887MOL0     C19615   2.461   8.383   6.199  0.5201  0.0331  0.2906
  887MOL0     C19616   2.479   8.327   6.068  1.0737 -0.5273 -0.2685
  887MOL0     C19617   2.452   8.194   6.048  0.5366  0.7285  0.3846
  887MOL0     O19618   2.457   8.123   5.927  0.2331 -0.7893  0.0955
  887MOL0     C19619   2.453   8.210   5.817 -1.0608 -0.4183  0.2763
  887MOL0     C19620   2.439   8.134   5.687  0.2907  0.1212  0.4541
  887MOL0     C19621   2.423   8.218   5.567  0.5651  0.2050  0.4465
  887MOL0     C19622   2.426   8.127   5.444 -0.1060  0.4204  0.0928
  887MOL0     C19623   2.382   8.213   5.320 -0.5735  0.1177 -0.2518
  887MOL0     C19624   2.487   8.313   5.264 -2.2572 -0.3098  0.4455
  887MOL0     C19625   2.600   8.240   5.193  0.2019 -0.4624 -1.0088
  887MOL0     C19626   2.718   8.330   5.161 -0.2985 -0.6823  0.2178
  887MOL0     N19627   2.832   8.265   5.089  0.5042  0.3365  0.1770
  887MOL0     C19628   2.829   8.219   4.963  0.0697 -0.0369 -0.8621
  887MOL0     C19629   2.962   8.192   4.943  0.0643 -0.1295  1.1170
  887MOL0     C19630   3.020   8.149   4.810  0.7114  0.1752  0.2224
  887MOL0     C19631   3.177   8.111   4.816  0.1967 -0.7333  0.2301
  887MOL0     C19632   3.258   8.240   4.802 -0.2746 -0.1716  0.1757
  887MOL0     C19633   3.409   8.200   4.824 -0.2024 -0.2640 -0.0710
  887MOL0     O19634   3.482   8.302   4.884 -0.5668 -0.3488  0.0694
  887MOL0     C19635   3.489   8.290   5.018 -0.2868  0.2389 -1.4708
  887MOL0     C19636   3.607   8.339   5.069 -0.4334 -0.5268 -0.2418
  887MOL0     C19637   3.634   8.347   5.206 -0.6108 -0.1285 -0.1124
  887MOL0     C19638   3.538   8.288   5.291  0.4271  0.4065  0.5253
  887MOL0     C19639   3.549   8.283   5.436 -0.3282  0.5526 -0.5750
  887MOL0     O19640   3.442   8.244   5.504  0.7445 -0.3010  0.2631
  887MOL0     C19641   3.447   8.248   5.641 -0.1420 -0.0212 -0.3671
  887MOL0     C19642   3.478   8.127   5.702  0.4794 -0.5190  0.6245
  887MOL0     C19643   3.460   8.119   5.842 -0.3256  0.9439  0.5903
  887MOL0     C19644   3.421   8.231   5.917 -0.9155  0.0383 -0.3737
  887MOL0     O19645   3.407   8.234   6.050 -0.4253  0.0867 -0.1229
  887MOL0     C19646   3.465   8.126   6.134 -0.0917 -0.0025  0.4952
  887MOL0     C19647   3.472   8.158   6.285  0.1611 -0.3209 -1.5593
  887MOL0     C19648   3.581   8.095   6.372 -0.0888  0.4121 -0.3243
  887MOL0     C19649   3.590   7.942   6.375  0.3129  0.2432 -0.2707
  887MOL0     C19650   3.703   7.895   6.475 -0.1344  0.3878  1.0818
  887MOL0     C19651   3.684   7.931   6.617 -0.6603  0.6801 -0.4982
  887MOL0     C19652   3.788   7.847   6.686 -0.0025  0.6840 -0.1378
  887MOL0     C19653   3.771   7.853   6.839  1.1606  0.4559  0.0352
  887MOL0    Cl19654   3.891   7.763   6.919  0.1481  0.0149 -0.0991
  887MOL0     C19655   3.396   8.351   5.848 -0.2628  0.9219 -1.5521
  887MOL0     C19656   3.402   8.361   5.710 -0.3098  0.3773 -0.3472
  887MOL0     O19657   3.650   8.331   5.486 -0.7253 -0.1133 -0.0755
  887MOL0     C19658   3.410   8.255   5.236 -0.0590  0.1553  0.6344
  887MOL0     C19659   3.386   8.253   5.102  0.6108  0.0366 -0.0487
  887MOL0     N19660   3.023   8.224   5.065 -0.3452 -0.3462  0.1113
  887MOL0     N19661   2.945   8.248   5.155  0.1093 -0.8069 -0.6026
  887MOL0     C19662   2.412   8.119   6.157  0.4121  0.7369 -0.5262
  887MOL0     C19663   2.378   8.174   6.277 -0.0917  0.0278 -0.4766
  887MOL0     C19664   2.209   8.483   6.553  1.3293 -0.3435  1.1081
  887MOL0     C19665   2.277   8.486   6.676  0.2914 -0.1332  0.8620
  887MOL0     C19666   2.242   8.570   6.778  0.1079 -0.9585  0.7069
  887MOL0     C19667   2.132   8.658   6.761 -0.0839 -0.8321 -0.9385
  887MOL0     O19668   2.078   8.744   6.850 -0.2929  0.3340  0.7770
  887MOL0     C19669   2.145   8.772   6.978  0.2789  0.7295  0.4119
  887MOL0     C19670   2.089   8.683   7.076  0.0417  1.2120  0.4653
  887MOL0     C19671   1.954   8.731   7.124 -0.6389  0.3802 -0.0627
  887MOL0     C19672   1.963   8.749   7.286  1.2651  1.2904  0.0634
  887MOL0     C19673   2.051   8.854   7.324 -0.5788  0.1505 -0.1927
  887MOL0     C19674   2.118   8.954   7.331 -0.1764 -0.6718  0.6069
  887MOL0     C19675   2.065   8.652   6.638  0.2887  0.3311 -0.5692
  887MOL0     C19676   2.100   8.565   6.534 -0.0152 -1.6376 -0.0233
  887MOL0     C19677   2.020   8.584   6.405  0.8706  0.3073  0.8669
  887MOL0     H19678   2.482   8.487   6.222  1.4538 -0.0903  0.0370
  887MOL0     H19679   2.516   8.393   5.989 -2.3160  0.9577 -0.8108
  887MOL0     H19680   2.371   8.282   5.828  0.0583  0.9148  0.1882
  887MOL0     H19681   2.540   8.276   5.815  0.3811 -2.2460 -0.4487
  887MOL0     H19682   2.362   8.057   5.686  0.2643  0.1430 -1.1690
  887MOL0     H19683   2.521   8.063   5.670  0.1397 -0.0028  0.2304
  887MOL0     H19684   2.503   8.291   5.562 -0.5899  1.8033  2.9402
  887MOL0     H19685   2.328   8.272   5.574  0.9758  0.7207  3.3468
  887MOL0     H19686   2.526   8.084   5.436 -1.1033 -2.1252  0.5641
  887MOL0     H19687   2.362   8.040   5.463 -0.1088  0.2233 -0.7776
  887MOL0     H19688   2.357   8.154   5.231  0.4383 -0.5966 -0.0830
  887MOL0     H19689   2.301   8.277   5.357  1.2806  1.5620  1.5701
  887MOL0     H19690   2.447   8.381   5.188 -0.0608  0.5127 -0.0535
  887MOL0     H19691   2.535   8.371   5.343 -0.8626  1.8213 -1.8136
  887MOL0     H19692   2.565   8.196   5.099  0.8259 -2.7563 -0.2239
  887MOL0     H19693   2.638   8.154   5.249  2.4522 -0.8303 -2.9216
  887MOL0     H19694   2.679   8.404   5.091 -0.4099  2.4882  3.3777
  887MOL0     H19695   2.746   8.402   5.238  0.1030  0.0199 -0.5672
  887MOL0     H19696   2.738   8.212   4.905 -1.1996  1.3185  0.8470
  887MOL0     H19697   2.961   8.061   4.783 -1.1965  2.4513 -4.1276
  887MOL0     H19698   2.995   8.223   4.733 -2.6212  2.2447  3.0065
  887MOL0     H19699   3.199   8.066   4.913 -0.0381 -0.3910  0.4472
  887MOL0     H19700   3.192   8.037   4.738  0.5559 -1.1399  0.6785
  887MOL0     H19701   3.223   8.307   4.880 -1.4454 -1.4194  0.7605
  887MOL0     H19702   3.247   8.286   4.703 -0.0740  2.3498  1.2736
  887MOL0     H19703   3.453   8.181   4.726  0.6740  1.4035 -0.0279
  887MOL0     H19704   3.411   8.113   4.890  0.5234 -0.1215  0.0956
  887MOL0     H19705   3.670   8.391   4.997 -2.3151  1.7792 -0.3572
  887MOL0     H19706   3.729   8.391   5.231  0.3311 -0.8761 -2.1568
  887MOL0     H19707   3.521   8.053   5.636 -0.5677  1.8557 -3.0180
  887MOL0     H19708   3.502   8.025   5.880 -3.4878 -1.4943 -1.4416
  887MOL0     H19709   3.417   8.031   6.109  0.0771 -0.2170  0.9754
  887MOL0     H19710   3.572   8.117   6.112  0.2533 -1.9539  2.5077
  887MOL0     H19711   3.492   8.264   6.302  3.5301 -1.2656  1.6997
  887MOL0     H19712   3.380   8.148   6.343 -0.1912  3.7247 -1.1507
  887MOL0     H19713   3.681   8.130   6.345 -0.2828  0.3021 -1.2261
  887MOL0     H19714   3.553   8.126   6.473 -1.1068  0.8796 -0.7319
  887MOL0     H19715   3.598   7.897   6.276 -0.6998 -0.9850  0.1719
  887MOL0     H19716   3.491   7.902   6.400 -0.3759  2.0404 -0.0071
  887MOL0     H19717   3.797   7.928   6.429 -0.0274  2.0920  2.4374
  887MOL0     H19718   3.698   7.786   6.471  1.9891  0.2923 -0.5253
  887MOL0     H19719   3.698   8.038   6.636  0.0880  1.7549 -5.5746
  887MOL0     H19720   3.588   7.893   6.654  0.2338 -2.9051 -1.4371
  887MOL0     H19721   3.889   7.873   6.656 -0.0255 -2.1858 -3.1906
  887MOL0     H19722   3.782   7.743   6.655 -2.7569  1.0783 -1.2898
  887MOL0     H19723   3.768   7.960   6.864 -1.4405  0.7091 -1.0576
  887MOL0     H19724   3.673   7.814   6.868  0.7051  0.3573 -1.5324
  887MOL0     H19725   3.368   8.435   5.911 -1.6020 -0.3281 -0.4147
  887MOL0     H19726   3.378   8.450   5.651 -1.1611 -0.5993 -1.5363
  887MOL0     H19727   3.331   8.220   5.302  0.5783 -1.4398  0.5895
  887MOL0     H19728   3.286   8.242   5.061  1.2273 -1.9017 -1.1521
  887MOL0     H19729   2.393   8.013   6.144 -1.5360  0.8309  1.0675
  887MOL0     H19730   2.359   8.101   6.355  0.3612 -2.3756 -2.5044
  887MOL0     H19731   2.356   8.412   6.688  0.4733  0.0812  0.9834
  887MOL0     H19732   2.304   8.575   6.867  1.5374 -3.1597 -0.0830
  887MOL0     H19733   2.122   8.871   7.017  0.3290 -0.3762  3.5125
  887MOL0     H19734   2.251   8.745   6.976  0.3669  1.0106  1.0976
  887MOL0     H19735   2.157   8.672   7.161  0.9379 -0.2901 -0.4054
  887MOL0     H19736   2.086   8.591   7.018 -2.6678  2.7169 -2.0764
  887MOL0     H19737   1.884   8.648   7.114  1.6677 -1.6698 -0.3306
  887MOL0     H19738   1.917   8.822   7.074 -2.2363  0.4325  1.1308
  887MOL0     H19739   1.860   8.764   7.320  0.4394 -0.1125 -1.6729
  887MOL0     H19740   1.996   8.654   7.329  0.2073  0.2012 -1.4064
  887MOL0     H19741   2.177   9.043   7.325  2.8193 -2.4748  1.7362
  887MOL0     H19742   1.988   8.729   6.635 -0.6701 -0.2232  3.6241
  887MOL0     H19743   1.939   8.513   6.425 -1.8054  3.7108  3.5442
  887MOL0     H19744   1.972   8.681   6.389 -2.2825 -0.8070  2.6873
  887MOL0     H19745   2.078   8.556   6.316  3.4061 -0.8932  2.7723
  888MOL0     O19746  10.560   8.203   1.255  0.4800 -0.3050  0.2207
  888MOL0     C19747  10.670   8.190   1.198  0.3293 -0.0946 -0.4445
  888MOL0     O19748  10.795   8.190   1.253  0.3089  0.2405  0.7666
  888MOL0     C19749  10.819   8.133   1.371 -0.1498 -0.0194  0.3396
  888MOL0     C19750  10.936   8.176   1.442 -0.7193  0.0750 -0.0201
  888MOL0     C19751  10.968   8.127   1.571 -0.0438  0.5474 -0.8843
  888MOL0     C19752  10.878   8.031   1.630 -0.8096  0.2044  0.0251
  888MOL0     O19753  10.911   7.978   1.756  0.3818 -0.8345  0.1070
  888MOL0     C19754  11.037   7.996   1.819  0.4216 -0.4026  0.4230
  888MOL0     C19755  11.032   7.915   1.946  0.8019 -0.0846 -1.0077
  888MOL0     C19756  10.991   8.015   2.055  0.1737 -0.5007 -0.8764
  888MOL0     C19757  11.117   8.080   2.107 -0.6602 -0.2813  0.2072
  888MOL0     C19758  11.102   8.152   2.240 -0.5339 -0.7860  0.1488
  888MOL0     C19759  11.239   8.221   2.263  1.0035 -0.1423  0.2846
  888MOL0     C19760  11.235   8.276   2.400 -0.6717  0.1096  0.3350
  888MOL0     C19761  11.299   8.206   2.517 -0.3964  0.1885  0.2839
  888MOL0     N19762  11.207   8.115   2.573 -0.1453  0.0036  0.5265
  888MOL0     C19763  11.222   7.979   2.573  0.6331 -0.3301 -0.1286
  888MOL0     C19764  11.124   7.948   2.660  0.3085 -0.6982 -0.0943
  888MOL0     C19765  11.089   7.803   2.684 -0.1424 -0.2659 -0.7553
  888MOL0     C19766  10.990   7.735   2.588 -1.1644  0.2125 -0.4839
  888MOL0     C19767  10.984   7.578   2.590 -0.7264 -0.4949 -1.0387
  888MOL0     C19768  10.865   7.524   2.515  0.2844  0.1824 -0.1501
  888MOL0     O19769  10.897   7.412   2.428 -0.2193 -0.4492  0.1704
  888MOL0     C19770  10.991   7.423   2.328 -0.2748  1.0319 -0.1157
  888MOL0     C19771  11.016   7.544   2.259  0.5761 -0.2835  0.4555
  888MOL0     C19772  11.119   7.555   2.166  0.2902 -0.3480 -0.7306
  888MOL0     C19773  11.199   7.441   2.139 -0.7344  0.3572 -1.2926
  888MOL0     C19774  11.306   7.462   2.047  0.1170  0.1693 -0.3061
  888MOL0     O19775  11.404   7.370   2.052 -0.3132 -0.1159  0.1480
  888MOL0     C19776  11.471   7.341   1.940  0.3969 -0.2045 -0.3885
  888MOL0     C19777  11.600   7.393   1.921 -0.3034  1.2684 -0.1230
  888MOL0     C19778  11.671   7.350   1.812 -0.5973  1.0620  0.9041
  888MOL0     C19779  11.613   7.265   1.714  0.5151 -0.3171 -0.4109
  888MOL0     O19780  11.691   7.215   1.608 -0.3799  0.5537 -0.3705
  888MOL0     C19781  11.826   7.170   1.637 -0.5922 -0.1891 -0.1205
  888MOL0     C19782  11.910   7.147   1.505  0.3361  0.6190  0.9816
  888MOL0     C19783  11.903   7.274   1.416  0.2061 -0.4845 -0.4598
  888MOL0     C19784  12.003   7.241   1.307 -0.3157  0.1793  0.6787
  888MOL0     C19785  12.003   7.364   1.206 -0.8848  0.0280 -0.1293
  888MOL0     C19786  12.097   7.365   1.091 -0.0224 -0.2794 -0.3525
  888MOL0     C19787  12.067   7.245   1.006  0.2245 -0.4065  0.5706
  888MOL0     C19788  12.104   7.252   0.853  0.2576 -0.0723 -0.2772
  888MOL0    Cl19789  11.968   7.301   0.751  0.0583  0.3073  0.0061
  888MOL0     C19790  11.485   7.214   1.726  0.7301 -0.4103 -0.7183
  888MOL0     C19791  11.413   7.259   1.837  0.5735 -0.5112 -0.6418
  888MOL0     O19792  11.296   7.545   1.960 -0.5725 -0.3597 -0.5513
  888MOL0     C19793  11.167   7.318   2.199  0.8683  0.4999  0.4312
  888MOL0     C19794  11.064   7.311   2.292  0.0946 -0.5467 -0.1042
  888MOL0     N19795  11.044   8.054   2.708  0.3782  0.1934 -0.0982
  888MOL0     N19796  11.093   8.158   2.643 -0.6495  0.2544 -1.1122
  888MOL0     C19797  10.769   7.993   1.563 -1.1024  0.2988  0.0567
  888MOL0     C19798  10.735   8.046   1.437 -0.6972 -0.7417  0.4081
  888MOL0     C19799  10.671   8.168   1.055 -0.9057 -0.6577  0.1531
  888MOL0     C19800  10.800   8.140   0.993  0.1415 -0.1059  0.4942
  888MOL0     C19801  10.803   8.124   0.860  0.6177 -0.2509  0.1490
  888MOL0     C19802  10.686   8.125   0.786  0.4485  0.2151  0.3812
  888MOL0     O19803  10.669   8.108   0.653  0.2305  0.1741 -0.1850
  888MOL0     C19804  10.751   8.027   0.568  0.6171 -1.1757  0.4674
  888MOL0     C19805  10.705   7.886   0.543  0.4812 -0.6945 -0.9338
  888MOL0     C19806  10.771   7.811   0.421 -0.1939 -0.7579  0.2977
  888MOL0     C19807  10.705   7.671   0.401 -0.4040 -0.0886 -0.1483
  888MOL0     C19808  10.725   7.619   0.270  0.4594  1.3270  0.6904
  888MOL0     C19809  10.709   7.567   0.158  0.4047  0.4975 -0.2900
  888MOL0     C19810  10.564   8.137   0.844  0.7985  0.3007  0.0745
  888MOL0     C19811  10.548   8.154   0.977 -1.0262 -0.0968  0.6981
  888MOL0     C19812  10.410   8.201   1.014 -0.6097 -0.6263  0.0424
  888MOL0     H19813  11.006   8.244   1.395  0.0551 -2.1735 -2.3960
  888MOL0     H19814  11.055   8.167   1.622 -1.7344  0.9638  1.8708
  888MOL0     H19815  11.120   7.964   1.755 -0.8177 -0.0516 -1.4033
  888MOL0     H19816  11.051   8.101   1.845  0.3714  0.2034 -1.8647
  888MOL0     H19817  11.131   7.871   1.962 -0.0583 -1.0695  2.8476
  888MOL0     H19818  10.968   7.827   1.953  1.5984 -0.5910  3.9085
  888MOL0     H19819  10.947   7.949   2.130  1.5381 -2.5326 -1.7828
  888MOL0     H19820  10.921   8.091   2.019  0.2195  1.6148  2.9865
  888MOL0     H19821  11.190   8.000   2.121 -0.6509 -0.4714 -0.8586
  888MOL0     H19822  11.152   8.150   2.031  1.4255 -1.0707  0.3985
  888MOL0     H19823  11.022   8.225   2.227  1.1080  0.9414 -0.8398
  888MOL0     H19824  11.075   8.079   2.317 -1.9143  0.3991  0.8182
  888MOL0     H19825  11.312   8.142   2.245 -1.0524 -2.2098  0.5126
  888MOL0     H19826  11.251   8.290   2.180  2.3029  0.2369  0.7575
  888MOL0     H19827  11.134   8.301   2.433 -0.4732 -0.8900  1.7886
  888MOL0     H19828  11.295   8.366   2.384 -2.8907  1.4525 -0.9833
  888MOL0     H19829  11.389   8.158   2.476 -2.8016 -2.2892 -2.6176
  888MOL0     H19830  11.334   8.285   2.583 -0.0808  2.1866 -2.1339
  888MOL0     H19831  11.287   7.909   2.522 -0.9443 -0.7781 -1.5900
  888MOL0     H19832  11.184   7.750   2.680  1.1016  1.8942 -1.8779
  888MOL0     H19833  11.047   7.781   2.783 -1.9860  2.2909 -0.8399
  888MOL0     H19834  10.899   7.782   2.627 -1.8394 -0.8632 -0.7146
  888MOL0     H19835  10.994   7.753   2.481 -0.5030  1.6128 -0.2465
  888MOL0     H19836  10.974   7.542   2.693 -1.1273  3.9130  0.7077
  888MOL0     H19837  11.076   7.537   2.548  0.4486  0.0961  0.8554
  888MOL0     H19838  10.822   7.606   2.457 -1.4952 -0.0667  0.7236
  888MOL0     H19839  10.787   7.500   2.588 -0.0464 -0.4392 -0.6961
  888MOL0     H19840  10.943   7.623   2.270  0.3863  0.2727 -3.2707
  888MOL0     H19841  11.135   7.642   2.102 -1.0555 -0.7383 -1.6459
  888MOL0     H19842  11.651   7.459   1.991 -0.9112  1.8653 -0.2261
  888MOL0     H19843  11.773   7.382   1.796 -0.7275  0.6765 -0.8348
  888MOL0     H19844  11.885   7.248   1.686  0.8458 -0.4376 -1.3651
  888MOL0     H19845  11.832   7.080   1.700 -2.3254  0.9338  1.7845
  888MOL0     H19846  12.008   7.120   1.543 -0.0682 -0.7856  1.0973
  888MOL0     H19847  11.871   7.057   1.456 -0.5477  0.9636  1.0372
  888MOL0     H19848  11.807   7.283   1.365  0.7813  1.0301 -1.3576
  888MOL0     H19849  11.920   7.370   1.466 -0.7938  0.1001 -1.2029
  888MOL0     H19850  11.970   7.152   1.252 -1.6925 -0.9691  3.1995
  888MOL0     H19851  12.100   7.216   1.351 -0.6853 -2.2533  0.2244
  888MOL0     H19852  12.038   7.446   1.269 -0.2652  0.9916 -1.6765
  888MOL0     H19853  11.897   7.377   1.184 -0.9036 -0.0355 -0.0796
  888MOL0     H19854  12.081   7.456   1.032 -0.8738 -0.0185  0.2661
  888MOL0     H19855  12.202   7.371   1.121 -0.2084 -1.6501  0.6386
  888MOL0     H19856  11.965   7.211   1.023 -0.4731  1.4037  0.1919
  888MOL0     H19857  12.124   7.160   1.045 -0.1574 -1.1901 -0.5357
  888MOL0     H19858  12.188   7.322   0.850 -2.0227  2.8575 -0.9463
  888MOL0     H19859  12.129   7.149   0.828 -0.9236 -1.5071  3.6492
  888MOL0     H19860  11.437   7.148   1.655  1.4830 -3.7434  1.6033
  888MOL0     H19861  11.310   7.228   1.854  0.3125  0.4068 -0.5017
  888MOL0     H19862  11.223   7.231   2.166 -1.1018 -0.5385 -0.3220
  888MOL0     H19863  11.038   7.219   2.343  0.2087 -0.4019  0.2129
  888MOL0     H19864  10.703   7.921   1.611 -1.7634 -0.4789 -1.9288
  888MOL0     H19865  10.646   8.007   1.389 -1.2497 -1.8332  2.2048
  888MOL0     H19866  10.890   8.147   1.053  1.1737 -1.2801 -0.8499
  888MOL0     H19867  10.899   8.125   0.809  1.6501  1.1576  2.0069
  888MOL0     H19868  10.851   8.029   0.611 -0.7787 -1.0373  4.0584
  888MOL0     H19869  10.754   8.073   0.469 -1.7054  2.5686  1.8949
  888MOL0     H19870  10.598   7.893   0.522  0.4818  0.9385 -0.5055
  888MOL0     H19871  10.719   7.824   0.632  1.2314 -0.5769 -0.9694
  888MOL0     H19872  10.878   7.803   0.444  0.3313  1.6221 -0.9798
  888MOL0     H19873  10.757   7.865   0.327 -0.6554 -1.3024  0.0454
  888MOL0     H19874  10.755   7.611   0.478 -0.8321  0.8050  0.8590
  888MOL0     H19875  10.598   7.662   0.420 -0.9049 -1.4521 -3.0903
  888MOL0     H19876  10.681   7.530   0.061  2.1045  1.7564 -1.3289
  888MOL0     H19877  10.472   8.131   0.788 -0.1116  4.0953  0.9257
  888MOL0     H19878  10.336   8.226   0.938 -1.7116  4.0718  2.3241
  888MOL0     H19879  10.352   8.142   1.087 -0.0538  1.3386  2.1925
  888MOL0     H19880  10.425   8.292   1.073 -3.5690 -1.2152  1.9680
  889MOL0     O19881   4.882   0.082   7.375  0.1988 -0.1860 -0.0367
  889MOL0     C19882   4.768   0.037   7.394  0.3599  0.0553  1.0340
  889MOL0     O19883   4.727  -0.092   7.397  0.0391 -0.0288  0.3059
  889MOL0     C19884   4.792  -0.193   7.343  0.0057  0.3289  0.1488
  889MOL0     C19885   4.723  -0.287   7.276  0.0769 -0.7461 -0.2061
  889MOL0     C19886   4.792  -0.402   7.225 -1.0715  0.9968  0.4558
  889MOL0     C19887   4.930  -0.437   7.255 -0.1140 -0.0239 -0.1513
  889MOL0     O19888   4.986  -0.551   7.186  0.7126 -0.4473 -0.6091
  889MOL0     C19889   5.124  -0.544   7.171  0.7251 -0.6012 -0.2472
  889MOL0     C19890   5.164  -0.633   7.060 -0.0296  0.8977 -0.2082
  889MOL0     C19891   5.121  -0.569   6.930  0.6163  0.0641 -0.5688
  889MOL0     C19892   5.175  -0.656   6.806  0.2419  0.2196  0.2435
  889MOL0     C19893   5.159  -0.586   6.671  0.8768 -0.6006  0.2503
  889MOL0     C19894   5.201  -0.680   6.555  0.2311  0.9595 -0.2399
  889MOL0     C19895   5.180  -0.624   6.414  0.0691 -0.8278 -0.1809
  889MOL0     C19896   5.256  -0.709   6.314  0.7375 -0.4476 -0.4241
  889MOL0     N19897   5.264  -0.637   6.190 -0.6767  0.0871  0.4961
  889MOL0     C19898   5.176  -0.622   6.093  0.9597  1.0904  0.3093
  889MOL0     C19899   5.225  -0.548   6.001 -0.1912 -0.6734  0.0988
  889MOL0     C19900   5.144  -0.505   5.878 -0.4460 -0.2239  0.7401
  889MOL0     C19901   5.129  -0.349   5.882  0.2121  0.1870  0.4621
  889MOL0     C19902   5.036  -0.323   5.764  0.1733 -0.6841  0.1419
  889MOL0     C19903   5.113  -0.331   5.620 -0.2337 -0.1674 -0.3478
  889MOL0     O19904   5.010  -0.312   5.528  0.0822  0.3486 -0.1540
  889MOL0     C19905   5.028  -0.262   5.401 -0.4823 -0.1775 -0.9293
  889MOL0     C19906   5.149  -0.222   5.360  0.3074 -0.2924  0.0068
  889MOL0     C19907   5.159  -0.160   5.237 -0.5233  1.2819  0.1354
  889MOL0     C19908   5.041  -0.132   5.159  0.0176 -1.0969 -0.2388
  889MOL0     C19909   5.041  -0.059   5.032  0.4055 -0.6852  0.9760
  889MOL0     O19910   5.148  -0.089   4.954 -0.3330  0.9995  0.2437
  889MOL0     C19911   5.139  -0.061   4.820  0.3573  1.3499 -0.7928
  889MOL0     C19912   5.159   0.071   4.770  0.1252  1.1955  0.9238
  889MOL0     C19913   5.148   0.102   4.629  0.8460 -0.9911  0.5113
  889MOL0     C19914   5.111   0.002   4.542  0.6855 -0.4247  0.4389
  889MOL0     O19915   5.135   0.024   4.408 -0.1479  0.0310 -0.6650
  889MOL0     C19916   5.052  -0.054   4.326 -0.3233  0.0655  0.6138
  889MOL0     C19917   5.023   0.021   4.202  0.2439 -0.1552 -0.2736
  889MOL0     C19918   4.907  -0.031   4.115  1.0514  0.2914 -0.5727
  889MOL0     C19919   4.889   0.031   3.978 -0.5934  0.1503  0.0444
  889MOL0     C19920   4.996   0.013   3.871 -0.5878  0.5272  0.3147
  889MOL0     C19921   4.987  -0.136   3.822 -0.7229  0.8576 -0.5102
  889MOL0     C19922   5.080  -0.166   3.709 -0.0770  1.0380  1.2864
  889MOL0     C19923   5.081  -0.310   3.663 -1.3026  0.0011 -0.1850
  889MOL0    Cl19924   5.099  -0.420   3.801  0.1170 -0.4572 -0.2970
  889MOL0     C19925   5.089  -0.127   4.595 -0.6960  0.3986 -0.0214
  889MOL0     C19926   5.103  -0.159   4.722  0.8125 -1.4634 -0.9389
  889MOL0     O19927   4.948   0.010   4.994  0.4351 -0.1043  0.5450
  889MOL0     C19928   4.916  -0.178   5.202  0.0135 -0.4517  0.7589
  889MOL0     C19929   4.906  -0.233   5.329 -0.6323 -0.5381  0.3828
  889MOL0     N19930   5.356  -0.518   6.035 -0.2398  0.4901  0.7736
  889MOL0     N19931   5.383  -0.584   6.153  0.3790 -0.0090  0.8858
  889MOL0     C19932   4.997  -0.342   7.332 -0.6891  0.3877  0.2320
  889MOL0     C19933   4.929  -0.217   7.369 -0.0991  0.0207  0.7804
  889MOL0     C19934   4.655   0.132   7.431 -0.3055 -0.3794 -0.2319
  889MOL0     C19935   4.526   0.072   7.457 -1.3121 -0.4413 -0.4584
  889MOL0     C19936   4.419   0.146   7.496  0.8664  0.4051  0.1616
  889MOL0     C19937   4.432   0.291   7.505 -0.0525  0.8663 -0.2663
  889MOL0     O19938   4.337   0.369   7.558 -0.1012  0.2818 -1.2878
  889MOL0     C19939   4.221   0.326   7.632  0.3812 -1.0616  0.0594
  889MOL0     C19940   4.138   0.453   7.648 -0.3935 -0.1373  0.1377
  889MOL0     C19941   4.001   0.416   7.697  1.3022 -0.6642  0.1646
  889MOL0     C19942   3.913   0.535   7.708 -0.1631  0.3642 -0.3814
  889MOL0     C19943   3.939   0.596   7.833  0.5746 -0.6745 -0.5675
  889MOL0     C19944   3.956   0.645   7.942  0.0888  0.8164 -0.3154
  889MOL0     C19945   4.556   0.351   7.479 -0.5596  0.1667  0.6069
  889MOL0     C19946   4.667   0.279   7.454 -0.4154  1.2275  0.1767
  889MOL0     C19947   4.799   0.359   7.443 -0.5391  0.2143 -0.4231
  889MOL0     H19948   4.617  -0.283   7.255  0.5102 -1.4911 -2.9462
  889MOL0     H19949   4.739  -0.478   7.168 -0.6010 -0.6598  2.1097
  889MOL0     H19950   5.148  -0.439   7.150 -1.7253 -0.2392 -1.5820
  889MOL0     H19951   5.195  -0.581   7.245  1.0819 -0.3928 -0.4791
  889MOL0     H19952   5.110  -0.728   7.072 -3.2273  2.4765 -0.9383
  889MOL0     H19953   5.273  -0.643   7.057 -0.0797  0.1503  0.1166
  889MOL0     H19954   5.151  -0.465   6.913 -2.2504  0.8394 -1.4584
  889MOL0     H19955   5.013  -0.576   6.918 -0.1468  4.6660  1.3806
  889MOL0     H19956   5.280  -0.684   6.818  0.6518  1.2397 -0.7751
  889MOL0     H19957   5.122  -0.751   6.812 -1.1307  1.0242  1.9007
  889MOL0     H19958   5.055  -0.557   6.653  0.8772  1.4862  2.9497
  889MOL0     H19959   5.203  -0.486   6.662 -2.3692  1.5233  4.5260
  889MOL0     H19960   5.308  -0.705   6.546 -0.2481 -0.3280 -3.5391
  889MOL0     H19961   5.135  -0.766   6.567 -1.4466  2.0498 -1.2224
  889MOL0     H19962   5.225  -0.524   6.418  0.9470 -1.2409  1.2832
  889MOL0     H19963   5.077  -0.616   6.379  0.3771 -0.1008 -0.9669
  889MOL0     H19964   5.361  -0.725   6.339  0.6525 -1.0528 -0.4388
  889MOL0     H19965   5.212  -0.810   6.315  0.7526 -0.4647  1.3059
  889MOL0     H19966   5.081  -0.673   6.102  2.1570 -1.4301 -0.4339
  889MOL0     H19967   5.186  -0.540   5.784 -2.7213 -1.8523  0.2532
  889MOL0     H19968   5.050  -0.562   5.878  0.8840 -2.6907 -2.4794
  889MOL0     H19969   5.073  -0.328   5.974 -1.1211  0.0375 -0.2893
  889MOL0     H19970   5.215  -0.282   5.886 -1.4089  2.3510  0.9794
  889MOL0     H19971   4.986  -0.228   5.784 -0.7221 -1.7041  3.2235
  889MOL0     H19972   4.959  -0.400   5.752  1.1964 -1.6673 -0.3183
  889MOL0     H19973   5.172  -0.420   5.597 -0.8381  0.1551 -3.7246
  889MOL0     H19974   5.181  -0.245   5.621  0.1699 -0.4785  1.0630
  889MOL0     H19975   5.230  -0.238   5.431 -3.2040 -1.3524  4.2342
  889MOL0     H19976   5.258  -0.127   5.207  1.1408 -3.4413 -0.3579
  889MOL0     H19977   5.189   0.158   4.828 -1.0731  0.9973  1.8832
  889MOL0     H19978   5.183   0.198   4.593 -3.7977  0.1587 -1.6699
  889MOL0     H19979   5.101  -0.145   4.291 -1.1783 -0.5618  1.0052
  889MOL0     H19980   4.956  -0.074   4.374  0.4974 -2.1197  1.4796
  889MOL0     H19981   4.995   0.118   4.242  1.2442 -0.0030  0.0748
  889MOL0     H19982   5.118   0.031   4.147 -0.9401 -2.0564 -2.8888
  889MOL0     H19983   4.912  -0.139   4.102  3.4077  0.4439 -1.3297
  889MOL0     H19984   4.817  -0.024   4.177  1.1735 -1.8831 -0.0738
  889MOL0     H19985   4.903   0.139   3.994 -0.9233  0.1903  0.0567
  889MOL0     H19986   4.791   0.006   3.938 -1.3990  1.3000  1.2026
  889MOL0     H19987   5.091   0.037   3.919  1.2764 -2.6208 -1.4215
  889MOL0     H19988   4.993   0.092   3.795 -1.5128  1.1924  1.0185
  889MOL0     H19989   5.006  -0.200   3.908 -0.5038 -1.7112 -2.3538
  889MOL0     H19990   4.881  -0.155   3.798 -1.0938  1.9585  0.1672
  889MOL0     H19991   5.177  -0.121   3.729  0.2968  0.3851  0.9647
  889MOL0     H19992   5.033  -0.119   3.621 -0.8498 -0.4326  0.8832
  889MOL0     H19993   4.985  -0.330   3.615 -0.2973 -2.2041 -1.4241
  889MOL0     H19994   5.162  -0.336   3.595 -2.6097 -1.3252 -1.3225
  889MOL0     H19995   5.068  -0.211   4.531 -1.5727  2.5566 -2.7424
  889MOL0     H19996   5.098  -0.262   4.758 -2.2908 -0.8792  0.6708
  889MOL0     H19997   4.827  -0.140   5.155 -0.8812 -0.7562  2.1477
  889MOL0     H19998   4.816  -0.253   5.387  0.3473 -1.1293  1.7610
  889MOL0     H19999   5.095  -0.356   7.377 -0.0289  2.4133 -0.4700
  889MOL0     H20000   4.969  -0.134   7.426  0.0894  1.1276 -0.8858
  889MOL0     H20001   4.516  -0.035   7.448  0.7339 -0.9110  1.8731
  889MOL0     H20002   4.326   0.102   7.529  1.3857  2.6894  5.7204
  889MOL0     H20003   4.257   0.286   7.728 -1.6029 -0.9331  0.8932
  889MOL0     H20004   4.149   0.260   7.583 -0.9274 -0.0299  0.5339
  889MOL0     H20005   4.114   0.498   7.551 -0.7808 -2.6764 -1.0309
  889MOL0     H20006   4.180   0.532   7.711  0.8090  0.4089 -1.2810
  889MOL0     H20007   4.013   0.366   7.794  1.0592  2.3439  1.8861
  889MOL0     H20008   3.945   0.346   7.635 -1.0290  3.2487 -2.5803
  889MOL0     H20009   3.933   0.608   7.629 -2.3862 -0.3063 -1.6658
  889MOL0     H20010   3.811   0.498   7.692  0.7212 -2.3093 -0.4149
  889MOL0     H20011   3.992   0.686   8.034 -0.2256  0.7906 -0.1786
  889MOL0     H20012   4.556   0.459   7.481  0.2597  0.2307 -1.4063
  889MOL0     H20013   4.791   0.449   7.505 -1.7192  1.2705 -2.0249
  889MOL0     H20014   4.892   0.310   7.473 -0.5786 -0.1368 -0.8655
  889MOL0     H20015   4.811   0.394   7.340  0.0988 -2.4076 -1.2990
  890MOL0     O20016   5.696   5.437   6.951  0.4109  0.0797 -1.3884
  890MOL0     C20017   5.807   5.381   6.971  0.1515  0.2628 -0.4497
  890MOL0     O20018   5.878   5.314   6.887  0.9346 -0.0733 -0.8185
  890MOL0     C20019   5.824   5.295   6.769 -0.2609 -1.3163 -0.9159
  890MOL0     C20020   5.891   5.360   6.663  0.0279  0.4194  0.4256
  890MOL0     C20021   5.833   5.352   6.537 -0.5165  0.3334  0.3953
  890MOL0     C20022   5.724   5.271   6.505 -0.0295  0.8783 -0.2421
  890MOL0     O20023   5.671   5.274   6.379  0.0867  0.1617 -0.0562
  890MOL0     C20024   5.773   5.231   6.282  0.3167  0.9365  0.7858
  890MOL0     C20025   5.716   5.213   6.149 -0.6483 -0.5985  0.6347
  890MOL0     C20026   5.637   5.080   6.134 -0.8688 -0.1938  0.1481
  890MOL0     C20027   5.601   5.061   5.983  0.2844 -0.5211 -0.0468
  890MOL0     C20028   5.532   4.930   5.961  0.7672 -0.1552 -0.2624
  890MOL0     C20029   5.409   4.945   5.865  0.0847 -0.3041 -0.5963
  890MOL0     C20030   5.447   4.965   5.720  0.5101  0.5106  0.8936
  890MOL0     C20031   5.323   4.960   5.622 -0.1354  0.1767 -0.2273
  890MOL0     N20032   5.367   4.967   5.484  0.1732 -0.7526  0.6924
  890MOL0     C20033   5.286   4.932   5.379  0.0389 -1.1610  0.1153
  890MOL0     C20034   5.343   4.974   5.271  0.1209 -0.1885 -0.1249
  890MOL0     C20035   5.299   4.971   5.124 -0.1748  0.9460  0.6313
  890MOL0     C20036   5.356   5.073   5.032  0.8995  0.7446 -0.2958
  890MOL0     C20037   5.315   5.050   4.883  0.4043  1.1297 -0.4292
  890MOL0     C20038   5.173   5.104   4.859 -0.5951 -0.3582  0.1359
  890MOL0     O20039   5.148   5.109   4.719  0.7024  0.6722 -0.5638
  890MOL0     C20040   5.099   4.998   4.651 -1.0812 -0.1134  0.1076
  890MOL0     C20041   5.100   4.869   4.700 -0.2576 -0.5728  0.2023
  890MOL0     C20042   5.029   4.776   4.637  0.1792 -0.2209  0.1663
  890MOL0     C20043   4.964   4.800   4.517 -0.0860  0.3554  0.0737
  890MOL0     C20044   4.875   4.698   4.448  0.4926 -0.6802 -0.8174
  890MOL0     O20045   4.820   4.729   4.321  1.1271  0.4386  0.0363
  890MOL0     C20046   4.762   4.642   4.242  0.3264  0.1881 -0.7327
  890MOL0     C20047   4.787   4.503   4.231 -1.4128 -1.0781 -0.5884
  890MOL0     C20048   4.706   4.413   4.160  0.0413  0.1127  0.4823
  890MOL0     C20049   4.605   4.465   4.078 -0.6853 -1.0784  0.3767
  890MOL0     O20050   4.536   4.372   4.003  0.1227  0.9503 -0.5211
  890MOL0     C20051   4.405   4.404   3.958  0.3021 -0.2546 -0.4520
  890MOL0     C20052   4.333   4.276   3.908  0.1501 -0.6202  0.4009
  890MOL0     C20053   4.391   4.148   3.967  0.4706  0.4401  0.2192
  890MOL0     C20054   4.289   4.042   3.922 -1.0866 -0.1715 -0.2390
  890MOL0     C20055   4.304   3.919   4.019 -0.0296  0.0293  0.0517
  890MOL0     C20056   4.219   3.799   3.977 -0.7654  0.1703 -0.8364
  890MOL0     C20057   4.255   3.732   3.852 -0.3951  0.1072  0.1970
  890MOL0     C20058   4.134   3.696   3.770 -0.1255 -0.9588  0.5041
  890MOL0    Cl20059   4.007   3.582   3.848 -0.3851  0.3172 -0.0926
  890MOL0     C20060   4.585   4.606   4.075  0.6278 -0.5788  0.7258
  890MOL0     C20061   4.654   4.690   4.161  0.7007  0.2766  0.4195
  890MOL0     O20062   4.852   4.596   4.517 -0.1565  0.6034 -0.3673
  890MOL0     C20063   4.976   4.928   4.452 -0.1111  0.4602  0.2656
  890MOL0     C20064   5.045   5.019   4.529  1.0657 -0.5571 -0.1391
  890MOL0     N20065   5.463   5.031   5.301 -0.8179  0.0288  0.0765
  890MOL0     N20066   5.483   5.029   5.428  0.2217  0.8202  0.5506
  890MOL0     C20067   5.667   5.193   6.616  0.2265  0.7187  0.0742
  890MOL0     C20068   5.715   5.206   6.745 -0.6297  0.3505  0.2249
  890MOL0     C20069   5.875   5.410   7.111  0.8171 -0.6769  0.3775
  890MOL0     C20070   6.012   5.439   7.104  0.2717  0.4997  1.0213
  890MOL0     C20071   6.094   5.462   7.212 -0.1054  0.8281  1.0007
  890MOL0     C20072   6.035   5.479   7.329  0.2341  0.3020  0.5190
  890MOL0     O20073   6.101   5.530   7.440 -0.1367  0.1686 -0.5449
  890MOL0     C20074   6.241   5.502   7.471 -0.3208  0.5027 -0.5868
  890MOL0     C20075   6.272   5.555   7.610  0.6749  0.0046 -0.1982
  890MOL0     C20076   6.391   5.483   7.667  0.7019  0.4891  0.4449
  890MOL0     C20077   6.522   5.561   7.663 -0.1983 -0.0124 -0.0353
  890MOL0     C20078   6.580   5.579   7.531  0.6308  0.6850 -0.4970
  890MOL0     C20079   6.627   5.617   7.427 -0.1251  0.2500  0.6932
  890MOL0     C20080   5.896   5.464   7.349 -0.8210 -0.2788  0.5064
  890MOL0     C20081   5.818   5.419   7.237 -0.7583  0.7922 -1.2418
  890MOL0     C20082   5.668   5.414   7.259 -0.5298  0.5672  1.0876
  890MOL0     H20083   5.978   5.414   6.699  0.9266 -1.1028  0.6167
  890MOL0     H20084   5.871   5.405   6.450 -2.2848 -0.2207 -0.7668
  890MOL0     H20085   5.851   5.306   6.263 -0.3238  0.9400 -2.4228
  890MOL0     H20086   5.809   5.136   6.323 -1.0170  0.4831  0.9500
  890MOL0     H20087   5.802   5.211   6.081 -1.2864 -0.4318 -0.1836
  890MOL0     H20088   5.665   5.303   6.113  0.9471 -0.3877 -1.3250
  890MOL0     H20089   5.544   5.082   6.192 -1.5937  1.4450 -0.9929
  890MOL0     H20090   5.699   5.001   6.177 -0.9682 -1.3365 -1.6832
  890MOL0     H20091   5.537   5.145   5.953  0.6198 -0.7642 -1.4648
  890MOL0     H20092   5.684   5.062   5.912 -0.2062  1.4208 -0.6617
  890MOL0     H20093   5.591   4.854   5.909  1.3154 -0.3043  0.5444
  890MOL0     H20094   5.498   4.890   6.057 -0.9754  0.0911 -0.7462
  890MOL0     H20095   5.349   4.853   5.868 -1.8562  0.8817 -1.2287
  890MOL0     H20096   5.340   5.024   5.894 -1.6394 -1.8928 -0.1540
  890MOL0     H20097   5.524   4.893   5.690  0.9602  2.5062 -3.4065
  890MOL0     H20098   5.499   5.059   5.702  0.4905  0.2447 -0.6821
  890MOL0     H20099   5.277   4.862   5.630  0.5719 -0.2769 -1.4264
  890MOL0     H20100   5.256   5.041   5.651  1.8674  2.3209 -1.2433
  890MOL0     H20101   5.184   4.894   5.382 -0.3382 -0.5596 -2.4667
  890MOL0     H20102   5.342   4.878   5.085 -0.0909  0.3638  2.0231
  890MOL0     H20103   5.192   4.993   5.121 -0.3360  0.1790  0.5627
  890MOL0     H20104   5.323   5.169   5.074 -2.2861 -0.7663  0.9468
  890MOL0     H20105   5.466   5.071   5.035  0.8714  0.2484  1.5575
  890MOL0     H20106   5.325   4.944   4.857  2.0414  1.3555 -0.8535
  890MOL0     H20107   5.388   5.109   4.826 -0.7466  3.5280  0.4521
  890MOL0     H20108   5.164   5.209   4.887  0.5570 -0.0104 -0.7517
  890MOL0     H20109   5.101   5.050   4.921  0.3278 -0.2307  1.3353
  890MOL0     H20110   5.142   4.849   4.798 -0.4238  1.6385  0.7760
  890MOL0     H20111   5.037   4.674   4.674  0.4614  0.6847  2.8562
  890MOL0     H20112   4.878   4.466   4.277 -1.5047 -1.4128 -0.6754
  890MOL0     H20113   4.716   4.305   4.160 -2.9822 -0.2604 -0.0172
  890MOL0     H20114   4.350   4.442   4.045  3.0107 -0.2236  1.3793
  890MOL0     H20115   4.404   4.483   3.882 -0.0335 -0.3722 -0.5685
  890MOL0     H20116   4.228   4.283   3.938 -0.8122  0.3967 -2.8008
  890MOL0     H20117   4.335   4.273   3.799 -3.1076 -0.2847  0.2338
  890MOL0     H20118   4.488   4.136   3.917 -0.9255  0.4717 -2.6637
  890MOL0     H20119   4.408   4.148   4.075  1.0064 -0.3655  0.1396
  890MOL0     H20120   4.303   4.012   3.818  2.9713 -2.9177  0.8722
  890MOL0     H20121   4.185   4.075   3.934 -2.2148 -3.1936 -0.6786
  890MOL0     H20122   4.261   3.956   4.113 -0.7559 -0.6673 -0.0051
  890MOL0     H20123   4.408   3.894   4.044 -0.1450  0.8598  1.4376
  890MOL0     H20124   4.209   3.727   4.058 -0.1088  3.0900  2.0561
  890MOL0     H20125   4.120   3.846   3.971 -1.5933 -1.3499  0.2786
  890MOL0     H20126   4.317   3.647   3.883 -0.2052  0.3891  0.5837
  890MOL0     H20127   4.326   3.792   3.794  2.7230 -3.2749  0.1481
  890MOL0     H20128   4.086   3.793   3.757  0.9004 -0.2601  1.6845
  890MOL0     H20129   4.167   3.671   3.668 -0.6580  3.2325 -0.9117
  890MOL0     H20130   4.510   4.651   4.011  1.1566 -0.3926  0.2250
  890MOL0     H20131   4.637   4.797   4.148  2.9556  0.7254  0.6217
  890MOL0     H20132   4.943   4.950   4.351  1.1253  0.9592 -0.0502
  890MOL0     H20133   5.043   5.124   4.502 -2.3885  0.0955  2.0549
  890MOL0     H20134   5.576   5.135   6.606  1.0423 -0.3553 -1.3143
  890MOL0     H20135   5.668   5.156   6.829  0.3113  3.2423  2.6945
  890MOL0     H20136   6.063   5.424   7.010 -1.4669 -0.0158  0.1068
  890MOL0     H20137   6.202   5.470   7.208 -0.1908  2.2190  1.0440
  890MOL0     H20138   6.305   5.561   7.404  2.6193  1.8183  3.0454
  890MOL0     H20139   6.257   5.394   7.467  0.9496  0.4004  3.2241
  890MOL0     H20140   6.194   5.531   7.683  0.7909  3.7292  1.3493
  890MOL0     H20141   6.282   5.662   7.590 -2.2783  0.1278 -1.6448
  890MOL0     H20142   6.406   5.384   7.623  1.6970  0.4261  0.8821
  890MOL0     H20143   6.365   5.459   7.770  1.2076 -1.1516  0.2252
  890MOL0     H20144   6.513   5.663   7.702  2.6817  0.6458 -0.8868
  890MOL0     H20145   6.594   5.516   7.731  3.1585  2.3042 -1.7861
  890MOL0     H20146   6.648   5.661   7.332 -1.2343  2.2707  1.3093
  890MOL0     H20147   5.864   5.487   7.450  0.1882  5.5269 -0.1749
  890MOL0     H20148   5.626   5.462   7.170  1.2118 -0.6870 -0.4903
  890MOL0     H20149   5.637   5.309   7.258 -1.7212  0.9092  1.1532
  890MOL0     H20150   5.621   5.464   7.344 -2.0143  0.2285  0.4973
  891MOL0     O20151   0.809   5.025   5.915  0.1715 -0.6965  0.3534
  891MOL0     C20152   0.869   4.945   5.978 -0.2314  0.5476 -0.0064
  891MOL0     O20153   1.004   4.943   5.985 -0.2306 -0.9312 -0.3546
  891MOL0     C20154   1.088   5.030   5.914 -0.6662  0.6217  0.0224
  891MOL0     C20155   1.220   4.980   5.878 -0.5585 -0.6199  0.2465
  891MOL0     C20156   1.317   5.063   5.813 -0.1143 -0.8348  0.3291
  891MOL0     C20157   1.293   5.199   5.804  0.2144 -0.3116 -0.9163
  891MOL0     O20158   1.401   5.273   5.758  0.2485  0.1226  0.5155
  891MOL0     C20159   1.378   5.373   5.662  0.1317  0.5535  0.7336
  891MOL0     C20160   1.498   5.378   5.557  0.0845  0.1717 -0.5787
  891MOL0     C20161   1.630   5.389   5.630  0.0040  0.1542  0.6217
  891MOL0     C20162   1.656   5.516   5.710 -0.1087  0.1804 -0.2088
  891MOL0     C20163   1.797   5.517   5.779  0.0771  0.0333 -0.5873
  891MOL0     C20164   1.834   5.394   5.863  0.1769  0.0410 -0.2708
  891MOL0     C20165   1.952   5.418   5.960 -0.6425  1.4755  0.2116
  891MOL0     C20166   2.075   5.492   5.913 -0.6737  0.4465 -0.0757
  891MOL0     N20167   2.194   5.470   6.001 -0.2149 -0.0448  0.3279
  891MOL0     C20168   2.288   5.369   5.988 -0.5034 -0.4648  0.1859
  891MOL0     C20169   2.368   5.381   6.095 -0.2426 -0.5507  0.0172
  891MOL0     C20170   2.501   5.320   6.121 -0.5804 -0.0790 -0.7954
  891MOL0     C20171   2.486   5.245   6.250 -0.9789 -0.0329  1.0952
  891MOL0     C20172   2.404   5.117   6.251 -0.1124  0.3047  1.4585
  891MOL0     C20173   2.460   4.995   6.164  0.9472  0.6225 -0.3897
  891MOL0     O20174   2.525   4.901   6.252 -0.1425  0.3542 -0.9184
  891MOL0     C20175   2.553   4.772   6.211 -0.3001 -0.5919 -0.0825
  891MOL0     C20176   2.617   4.688   6.306  0.6555 -0.2388 -0.1529
  891MOL0     C20177   2.615   4.547   6.300  0.0985 -0.8257 -0.2369
  891MOL0     C20178   2.568   4.499   6.178 -0.0002 -0.1565 -0.2713
  891MOL0     C20179   2.557   4.346   6.155  1.3206  0.4338 -0.2722
  891MOL0     O20180   2.533   4.307   6.027  0.0737 -0.1979 -0.7372
  891MOL0     C20181   2.511   4.180   6.002  0.8430 -0.4090 -0.2265
  891MOL0     C20182   2.414   4.101   6.062  0.5850 -1.1898  1.0546
  891MOL0     C20183   2.414   3.969   6.043 -0.0887  0.8257  0.4396
  891MOL0     C20184   2.488   3.900   5.947  0.3631 -0.4438  0.5449
  891MOL0     O20185   2.499   3.762   5.930 -0.0882 -0.0914  0.1436
  891MOL0     C20186   2.381   3.692   5.896  0.0689 -0.6475 -1.1557
  891MOL0     C20187   2.374   3.559   5.976  0.3876 -0.8479  0.2536
  891MOL0     C20188   2.392   3.574   6.124 -1.0434  0.1484 -1.5133
  891MOL0     C20189   2.386   3.428   6.194  0.5778  0.2197  0.2322
  891MOL0     C20190   2.444   3.432   6.338 -0.6881  0.6458 -0.6993
  891MOL0     C20191   2.450   3.306   6.412  0.7999  0.6868 -0.6884
  891MOL0     C20192   2.523   3.320   6.542 -0.4335 -0.3593 -1.1940
  891MOL0     C20193   2.529   3.180   6.609 -0.3903  0.5208  0.6780
  891MOL0    Cl20194   2.630   3.060   6.518  0.7315 -0.3700  0.1274
  891MOL0     C20195   2.571   3.979   5.869  0.5870 -0.1199 -0.5110
  891MOL0     C20196   2.585   4.118   5.901  0.8819 -0.9116 -0.2334
  891MOL0     O20197   2.568   4.276   6.253 -0.5317  0.1124 -0.6888
  891MOL0     C20198   2.528   4.584   6.072  0.6865 -0.2043 -0.1048
  891MOL0     C20199   2.518   4.720   6.092 -0.0435 -0.1109 -0.0852
  891MOL0     N20200   2.316   5.477   6.176 -0.2354  0.3904  0.2172
  891MOL0     N20201   2.225   5.542   6.118 -0.0348 -0.2600  0.2703
  891MOL0     C20202   1.166   5.251   5.834 -0.0622  0.0325  1.6216
  891MOL0     C20203   1.066   5.171   5.898 -0.0526 -0.2471 -0.2438
  891MOL0     C20204   0.803   4.842   6.061  0.5593  1.6888 -0.3795
  891MOL0     C20205   0.884   4.743   6.127  0.0221 -0.5195  0.1751
  891MOL0     C20206   0.830   4.650   6.204 -0.1124  0.2524 -0.4130
  891MOL0     C20207   0.690   4.634   6.214  0.2170 -0.5225 -0.4870
  891MOL0     O20208   0.625   4.541   6.288 -0.1515 -0.5191  0.0179
  891MOL0     C20209   0.695   4.441   6.360 -0.4507  0.2540 -0.0611
  891MOL0     C20210   0.609   4.319   6.396  0.5295 -0.0864 -0.0701
  891MOL0     C20211   0.671   4.258   6.524 -1.0468 -0.1599 -0.1236
  891MOL0     C20212   0.595   4.129   6.580 -0.4820 -0.1642  0.7839
  891MOL0     C20213   0.452   4.121   6.561 -0.2602 -0.5236 -0.2045
  891MOL0     C20214   0.330   4.133   6.549 -1.3001 -1.0236 -0.2873
  891MOL0     C20215   0.611   4.732   6.154  0.1316 -0.2783  0.5048
  891MOL0     C20216   0.664   4.837   6.078  0.4365 -0.4452 -0.8455
  891MOL0     C20217   0.561   4.919   6.004  0.2782 -0.0407  0.0437
  891MOL0     H20218   1.245   4.876   5.890  2.8162  0.1103  0.3829
  891MOL0     H20219   1.415   5.022   5.790  1.0749  2.1526 -0.3787
  891MOL0     H20220   1.285   5.347   5.612 -1.2281  2.4320  2.1348
  891MOL0     H20221   1.355   5.465   5.717 -0.1627  0.6965  0.3720
  891MOL0     H20222   1.472   5.452   5.481 -2.4457 -1.4097 -1.3709
  891MOL0     H20223   1.507   5.290   5.494  1.1125 -0.8308  0.8941
  891MOL0     H20224   1.692   5.378   5.540 -2.3026 -0.3985 -0.9873
  891MOL0     H20225   1.650   5.308   5.701  0.0927 -0.4896 -0.1283
  891MOL0     H20226   1.648   5.602   5.643  0.2197 -1.0433 -1.8899
  891MOL0     H20227   1.588   5.530   5.794  1.1784 -3.4619  1.6537
  891MOL0     H20228   1.876   5.524   5.703  0.5744 -1.8702 -0.2908
  891MOL0     H20229   1.786   5.611   5.833 -2.6191  0.9828 -2.5755
  891MOL0     H20230   1.755   5.362   5.932  1.4894 -1.0057  0.8022
  891MOL0     H20231   1.857   5.309   5.799 -0.7977 -0.1395 -0.3922
  891MOL0     H20232   1.977   5.318   5.996  1.4611  2.1304  0.7084
  891MOL0     H20233   1.907   5.478   6.040 -1.0388 -0.2434  1.3307
  891MOL0     H20234   2.106   5.455   5.815 -1.0267  0.7959 -0.3222
  891MOL0     H20235   2.040   5.595   5.900 -1.9753 -0.0745 -0.9865
  891MOL0     H20236   2.313   5.311   5.899 -1.0354  2.7849 -2.3104
  891MOL0     H20237   2.530   5.254   6.039  2.1855  0.4045 -0.3149
  891MOL0     H20238   2.577   5.398   6.136 -0.6085 -0.2037  0.0660
  891MOL0     H20239   2.582   5.222   6.295  0.3273 -1.0251 -1.9592
  891MOL0     H20240   2.450   5.314   6.327  2.3163  0.6852  2.1462
  891MOL0     H20241   2.302   5.143   6.220  1.3548  3.3538 -1.5448
  891MOL0     H20242   2.406   5.084   6.355  1.5923 -1.7842  0.8225
  891MOL0     H20243   2.532   5.040   6.094  2.8836 -1.6743 -0.0322
  891MOL0     H20244   2.381   4.947   6.105  3.7630 -2.9095 -1.6624
  891MOL0     H20245   2.666   4.738   6.389  0.3465  0.4001 -0.3438
  891MOL0     H20246   2.651   4.484   6.381 -5.1058  0.8250  3.9534
  891MOL0     H20247   2.341   4.155   6.121 -0.8630  0.5237 -2.0730
  891MOL0     H20248   2.340   3.905   6.091 -0.7893 -0.6551 -2.4092
  891MOL0     H20249   2.292   3.752   5.916  1.3129  1.4297 -1.5990
  891MOL0     H20250   2.371   3.666   5.790 -0.5218  1.1612 -1.5763
  891MOL0     H20251   2.276   3.511   5.965 -0.0854 -0.5790  2.8259
  891MOL0     H20252   2.454   3.491   5.945  0.6393 -0.2609 -0.3977
  891MOL0     H20253   2.494   3.615   6.133 -0.8737 -0.3507 -1.1811
  891MOL0     H20254   2.333   3.646   6.182 -0.0404  0.3475 -0.7174
  891MOL0     H20255   2.432   3.349   6.134 -3.2134  0.1272 -2.8773
  891MOL0     H20256   2.278   3.414   6.200  0.7207 -0.5144  1.5717
  891MOL0     H20257   2.395   3.506   6.403 -2.2225 -0.6178 -0.3628
  891MOL0     H20258   2.549   3.461   6.329 -1.0969  2.5400  0.0097
  891MOL0     H20259   2.348   3.267   6.422 -0.9319  3.8297 -3.9179
  891MOL0     H20260   2.507   3.243   6.344  1.6586 -1.3651  1.7623
  891MOL0     H20261   2.460   3.385   6.604 -1.3317  0.3890 -2.8284
  891MOL0     H20262   2.624   3.357   6.524  0.0338 -0.9273  0.1097
  891MOL0     H20263   2.567   3.173   6.711 -0.0647 -4.0936  0.4716
  891MOL0     H20264   2.425   3.150   6.622 -0.3965  0.8721  1.4504
  891MOL0     H20265   2.619   3.942   5.779 -2.7468 -0.4803 -2.3122
  891MOL0     H20266   2.658   4.172   5.842  3.0388 -3.1539  0.2061
  891MOL0     H20267   2.497   4.545   5.976  0.6316 -1.2274  0.3171
  891MOL0     H20268   2.482   4.788   6.016  0.3265  1.5788  1.2074
  891MOL0     H20269   1.156   5.359   5.823 -3.2211 -0.4058 -1.5812
  891MOL0     H20270   0.976   5.219   5.933  0.8456  0.9676  0.4494
  891MOL0     H20271   0.990   4.753   6.111 -0.0913  1.1318  0.3012
  891MOL0     H20272   0.895   4.579   6.254 -1.4913 -1.5777 -1.1331
  891MOL0     H20273   0.740   4.487   6.448 -0.8905 -0.1616  0.3880
  891MOL0     H20274   0.782   4.407   6.302  0.2304  1.3632  0.2941
  891MOL0     H20275   0.581   4.265   6.305 -0.9113  2.1830 -1.0589
  891MOL0     H20276   0.518   4.359   6.441  0.8057  0.3412  0.1156
  891MOL0     H20277   0.680   4.327   6.609  1.3975  1.1964 -1.3827
  891MOL0     H20278   0.773   4.232   6.495 -1.8163 -0.9504 -2.2636
  891MOL0     H20279   0.644   4.054   6.518 -0.0187 -0.7113  1.7913
  891MOL0     H20280   0.615   4.109   6.685 -2.9589  0.1632  1.3721
  891MOL0     H20281   0.225   4.146   6.540 -0.9191  1.1937 -2.6724
  891MOL0     H20282   0.504   4.733   6.166  0.2079 -1.4352  1.3716
  891MOL0     H20283   0.563   4.884   5.900  0.4141  1.4961 -0.5104
  891MOL0     H20284   0.458   4.905   6.039 -0.8214  1.6892 -2.2127
  891MOL0     H20285   0.581   5.026   6.019 -1.3467  0.6526 -2.1487
  892MOL0     O20286   8.292   4.430  10.508  0.6490 -0.3228 -0.2538
  892MOL0     C20287   8.232   4.449  10.615 -0.7230 -0.2737 -0.6572
  892MOL0     O20288   8.210   4.350  10.714  0.4167 -0.3277  0.4264
  892MOL0     C20289   8.313   4.268  10.738 -0.1019 -0.2723  0.6585
  892MOL0     C20290   8.442   4.248  10.672  0.8435 -0.5512  0.2535
  892MOL0     C20291   8.540   4.160  10.718  0.8672  0.1522 -0.1395
  892MOL0     C20292   8.521   4.065  10.824  0.2810 -0.0944 -0.2520
  892MOL0     O20293   8.620   3.973  10.864 -0.7672 -0.8701  0.1767
  892MOL0     C20294   8.747   3.985  10.778  0.2594  0.4916 -0.7624
  892MOL0     C20295   8.854   3.888  10.828  0.4400 -0.5194 -0.3948
  892MOL0     C20296   8.933   3.947  10.937  0.0271  0.2286  0.6523
  892MOL0     C20297   9.050   4.035  10.888 -0.4115  0.3698 -0.2890
  892MOL0     C20298   9.130   4.082  11.014  0.4099 -0.2998 -0.6033
  892MOL0     C20299   9.231   4.197  10.998  0.1583 -0.2604 -0.8206
  892MOL0     C20300   9.376   4.154  10.960  0.1452 -1.1520 -0.8701
  892MOL0     C20301   9.406   4.149  10.813 -0.1697 -0.2142  0.3107
  892MOL0     N20302   9.554   4.154  10.778 -0.7598  0.2627 -0.1613
  892MOL0     C20303   9.611   4.093  10.670 -0.3293  0.7518  1.0390
  892MOL0     C20304   9.726   4.164  10.647  0.8079  0.1824  0.7723
  892MOL0     C20305   9.825   4.139  10.540 -0.2963 -0.1516  0.0626
  892MOL0     C20306   9.838   4.236  10.428 -0.4423 -0.3642 -0.0779
  892MOL0     C20307   9.958   4.330  10.467  0.1975 -0.0362  1.1952
  892MOL0     C20308   9.959   4.437  10.366  0.0822 -0.8126  0.7639
  892MOL0     O20309   9.844   4.524  10.388  0.1625  0.0825  0.9485
  892MOL0     C20310   9.857   4.643  10.319 -0.4094  0.4339  0.0566
  892MOL0     C20311   9.851   4.642  10.177 -0.5532  0.2418  0.0485
  892MOL0     C20312   9.863   4.763  10.103 -0.3247  0.4029  0.1136
  892MOL0     C20313   9.856   4.881  10.176  0.6753  0.0451 -1.0104
  892MOL0     C20314   9.853   5.014  10.109  0.0819 -0.1836 -0.2523
  892MOL0     O20315   9.822   5.007   9.975 -0.4762 -0.6754 -0.1530
  892MOL0     C20316   9.835   5.121   9.900  0.2086 -0.0243 -0.3860
  892MOL0     C20317   9.949   5.198   9.898 -0.2066  0.1287 -0.2729
  892MOL0     C20318   9.957   5.306   9.812 -0.3964 -0.4344  0.1341
  892MOL0     C20319   9.847   5.340   9.735 -0.1189  0.5130  0.2465
  892MOL0     O20320   9.850   5.445   9.655  0.3023 -0.6000  0.1401
  892MOL0     C20321   9.738   5.537   9.633 -0.4998  0.0109 -0.6282
  892MOL0     C20322   9.726   5.626   9.751  0.4603 -0.4200  0.0948
  892MOL0     C20323   9.835   5.728   9.779 -0.1908  0.4278 -0.9519
  892MOL0     C20324   9.839   5.832   9.670  0.1646 -0.5685  0.1374
  892MOL0     C20325   9.918   5.952   9.713  0.5586  0.3674 -0.4839
  892MOL0     C20326  10.071   5.936   9.735 -0.1941 -0.3003 -0.0010
  892MOL0     C20327  10.132   6.072   9.775  2.0807 -0.4852 -0.0911
  892MOL0     C20328  10.282   6.066   9.782 -0.2762 -0.2182 -0.1441
  892MOL0    Cl20329  10.344   6.213   9.867 -0.0636 -0.0520 -0.1505
  892MOL0     C20330   9.724   5.261   9.743  0.3213 -1.3650 -1.6930
  892MOL0     C20331   9.727   5.155   9.827 -0.3226 -0.9281  0.1270
  892MOL0     O20332   9.856   5.116  10.188  0.8535  0.1158  0.6778
  892MOL0     C20333   9.870   4.882  10.324  0.1626 -0.2518 -0.1379
  892MOL0     C20334   9.869   4.761  10.391  0.0809  0.1463 -0.4940
  892MOL0     N20335   9.726   4.273  10.732 -0.0511 -0.6314  0.3371
  892MOL0     N20336   9.623   4.266  10.809  0.5805  0.2991 -0.3425
  892MOL0     C20337   8.407   4.085  10.890  0.3669 -0.8275 -0.2302
  892MOL0     C20338   8.306   4.185  10.852 -0.3271 -0.6150 -0.9693
  892MOL0     C20339   8.180   4.590  10.627  0.0714  0.2097  0.2065
  892MOL0     C20340   8.209   4.695  10.538  0.4233  0.2084 -0.2967
  892MOL0     C20341   8.173   4.823  10.564  0.0596 -0.1410  0.5983
  892MOL0     C20342   8.106   4.844  10.684  0.9900 -0.5294 -0.5565
  892MOL0     O20343   8.061   4.967  10.727  0.3404  0.4203 -0.6951
  892MOL0     C20344   8.039   5.078  10.631  0.3746  0.8984 -0.4971
  892MOL0     C20345   7.908   5.051  10.558  0.4669 -0.5567 -0.1758
  892MOL0     C20346   7.849   5.172  10.491 -0.2884 -0.8696  0.7709
  892MOL0     C20347   7.708   5.147  10.425  0.1007 -0.1655 -0.2419
  892MOL0     C20348   7.641   5.272  10.364  0.1160 -0.1641  0.3447
  892MOL0     C20349   7.599   5.387  10.321 -0.4541  0.6859 -0.9421
  892MOL0     C20350   8.065   4.747  10.768  0.6918  1.0988 -0.5582
  892MOL0     C20351   8.101   4.620  10.744  0.5602  1.1721  1.0335
  892MOL0     C20352   8.048   4.520  10.846  1.0928  0.4233  0.2108
  892MOL0     H20353   8.481   4.314  10.596  1.2433  0.8121  1.5990
  892MOL0     H20354   8.633   4.172  10.663  0.4848  2.8860 -0.3620
  892MOL0     H20355   8.718   3.957  10.677 -3.3619  1.7454 -0.2024
  892MOL0     H20356   8.781   4.090  10.778  1.3112  0.2140 -3.3670
  892MOL0     H20357   8.910   3.877  10.735  0.6620  3.6245 -0.9498
  892MOL0     H20358   8.805   3.794  10.857 -0.7639  0.8408  2.4587
  892MOL0     H20359   8.986   3.859  10.975 -0.7150 -0.3436  0.3878
  892MOL0     H20360   8.878   3.988  11.021 -2.9416 -0.2270 -0.9102
  892MOL0     H20361   9.117   3.983  10.819 -0.3267  2.1813 -1.6209
  892MOL0     H20362   8.998   4.116  10.838 -0.3887  1.8297  1.9121
  892MOL0     H20363   9.053   4.117  11.084  0.3975  5.9214 -3.1242
  892MOL0     H20364   9.184   3.994  11.052 -1.4651 -0.5271  1.7801
  892MOL0     H20365   9.188   4.268  10.928 -0.1268  0.3675 -0.0237
  892MOL0     H20366   9.244   4.252  11.092 -0.5342  0.0309 -0.8886
  892MOL0     H20367   9.415   4.057  10.994 -1.4625 -2.2799 -2.0647
  892MOL0     H20368   9.440   4.230  11.006 -0.0033 -1.8218  0.5213
  892MOL0     H20369   9.374   4.052  10.776 -0.6783  0.1721 -0.2896
  892MOL0     H20370   9.333   4.212  10.761  0.0159  1.0241  1.4692
  892MOL0     H20371   9.585   3.997  10.627 -2.3405  2.1022 -1.0643
  892MOL0     H20372   9.922   4.108  10.581 -0.8134 -2.0072 -0.0220
  892MOL0     H20373   9.780   4.053  10.490 -0.4048 -1.0283  1.6085
  892MOL0     H20374   9.863   4.194  10.330 -0.7081  0.6059 -0.5675
  892MOL0     H20375   9.746   4.292  10.407  1.0420  3.1147  1.8343
  892MOL0     H20376  10.046   4.266  10.457 -2.3279 -3.7663  0.8004
  892MOL0     H20377   9.945   4.367  10.569  0.0120  0.5498  0.9625
  892MOL0     H20378   9.965   4.398  10.264  0.0263 -1.0727  0.8582
  892MOL0     H20379  10.050   4.492  10.391  1.9687 -3.4788  0.2113
  892MOL0     H20380   9.851   4.551  10.118  3.8118  1.2433 -1.9527
  892MOL0     H20381   9.857   4.763   9.995 -0.5549  1.6838  0.1141
  892MOL0     H20382  10.037   5.161   9.948 -1.8827 -1.7204  1.4745
  892MOL0     H20383  10.047   5.366   9.802 -0.0066 -0.9124  0.7010
  892MOL0     H20384   9.744   5.581   9.533 -2.5635 -1.3735 -1.4188
  892MOL0     H20385   9.657   5.466   9.613  2.1147 -3.2164 -0.6379
  892MOL0     H20386   9.640   5.686   9.721  0.8554 -0.7468 -1.7760
  892MOL0     H20387   9.696   5.573   9.842 -0.0467  1.3952  1.0220
  892MOL0     H20388   9.799   5.753   9.879  2.9967 -2.5621  1.2287
  892MOL0     H20389   9.932   5.677   9.779  0.1574  1.0753 -1.2863
  892MOL0     H20390   9.739   5.863   9.640  1.8552  2.8953 -2.7482
  892MOL0     H20391   9.878   5.787   9.579 -0.2284 -0.2436 -0.1977
  892MOL0     H20392   9.873   5.996   9.802  0.6923 -0.4129 -0.0152
  892MOL0     H20393   9.906   6.032   9.640  0.5210  0.4348 -0.4028
  892MOL0     H20394  10.091   5.868   9.817  2.7164  0.0286 -0.3439
  892MOL0     H20395  10.122   5.906   9.643  1.5514  1.3428  0.3943
  892MOL0     H20396  10.103   6.101   9.876  3.1931 -2.5101  0.8739
  892MOL0     H20397  10.110   6.156   9.709  0.3366 -1.4010 -0.7354
  892MOL0     H20398  10.317   5.987   9.849  2.6162 -0.0708 -1.3515
  892MOL0     H20399  10.326   6.048   9.684 -0.3166  2.8726 -0.8106
  892MOL0     H20400   9.648   5.284   9.670  0.0697  0.6653 -0.8571
  892MOL0     H20401   9.649   5.079   9.819 -0.2536 -0.9231 -0.6929
  892MOL0     H20402   9.899   4.973  10.375  0.4619 -0.6521  0.4149
  892MOL0     H20403   9.881   4.755  10.499  0.2936 -2.3205 -0.5982
  892MOL0     H20404   8.377   4.029  10.978 -3.7275 -0.9711 -1.4965
  892MOL0     H20405   8.218   4.195  10.915 -0.9520  2.2365 -2.1414
  892MOL0     H20406   8.269   4.667  10.452  2.0043  1.7288  0.2578
  892MOL0     H20407   8.200   4.904  10.497 -0.4155 -0.8327 -0.4522
  892MOL0     H20408   8.123   5.083  10.561 -1.4820 -2.5191 -3.2957
  892MOL0     H20409   8.033   5.168  10.692  0.9022  0.0488  0.8748
  892MOL0     H20410   7.834   5.025  10.634  0.0504 -2.4312 -1.1537
  892MOL0     H20411   7.912   4.969  10.486 -0.7813 -2.4927  1.8380
  892MOL0     H20412   7.914   5.203  10.409  0.4992 -1.4725  1.1583
  892MOL0     H20413   7.836   5.256  10.561  0.8898  0.3812 -0.4625
  892MOL0     H20414   7.725   5.074  10.345  1.5813 -0.0989 -0.0246
  892MOL0     H20415   7.638   5.109  10.500 -1.0489  0.4981 -0.9560
  892MOL0     H20416   7.564   5.483  10.290  1.3125  1.7684  0.2428
  892MOL0     H20417   8.006   4.764  10.858  0.8290 -1.9231  0.1969
  892MOL0     H20418   8.127   4.480  10.911 -0.3346 -1.6849  0.7375
  892MOL0     H20419   7.972   4.564  10.911 -0.0156  2.1928 -2.1123
  892MOL0     H20420   7.994   4.440  10.795  2.2696 -0.9773  1.0704
  893MOL0     O20421   8.731   0.723   2.348 -1.0881 -0.5083  0.2959
  893MOL0     C20422   8.783   0.611   2.357  0.8840  0.7891 -0.3753
  893MOL0     O20423   8.717   0.494   2.313  0.0130  0.4983 -0.1602
  893MOL0     C20424   8.611   0.519   2.235 -0.1565 -0.7729  0.5454
  893MOL0     C20425   8.469   0.479   2.275 -0.2204  0.1344  0.2125
  893MOL0     C20426   8.364   0.501   2.190 -0.1828 -1.0059 -0.3689
  893MOL0     C20427   8.383   0.552   2.053 -0.6995 -0.4066  0.2067
  893MOL0     O20428   8.276   0.559   1.962 -0.0156  0.3274 -0.1332
  893MOL0     C20429   8.287   0.639   1.845  0.2925  0.8152 -0.5746
  893MOL0     C20430   8.282   0.790   1.878  0.0681  0.0400 -1.0596
  893MOL0     C20431   8.292   0.856   1.730  0.8368 -0.1625 -0.7826
  893MOL0     C20432   8.373   0.985   1.726  0.3451 -0.8811  0.4587
  893MOL0     C20433   8.383   1.043   1.571  0.6557 -0.7904  1.0741
  893MOL0     C20434   8.517   0.985   1.508 -0.1845 -1.1459  0.5584
  893MOL0     C20435   8.539   1.040   1.365  0.1166  0.0823 -0.5730
  893MOL0     C20436   8.648   0.962   1.291 -0.1965 -0.1779  0.1949
  893MOL0     N20437   8.674   1.038   1.171 -0.7216  0.0024 -0.6638
  893MOL0     C20438   8.730   1.163   1.155 -0.8942  0.4857 -0.2682
  893MOL0     C20439   8.753   1.176   1.022 -0.7339  0.2107  0.7325
  893MOL0     C20440   8.845   1.290   0.979 -1.0163 -0.1896 -0.5282
  893MOL0     C20441   8.771   1.423   0.938  0.5854  0.7277 -1.0264
  893MOL0     C20442   8.677   1.402   0.818 -0.0419  0.1218 -0.7288
  893MOL0     C20443   8.574   1.512   0.795 -0.4471  0.2982  0.4073
  893MOL0     O20444   8.513   1.479   0.670 -0.4224 -0.7916 -0.3227
  893MOL0     C20445   8.540   1.573   0.577  0.6715  0.8035 -0.1074
  893MOL0     C20446   8.427   1.637   0.514  0.5564 -0.1649 -0.3850
  893MOL0     C20447   8.434   1.722   0.408 -0.5177 -0.5555 -0.0423
  893MOL0     C20448   8.561   1.772   0.382  0.1807  0.2077  0.1584
  893MOL0     C20449   8.573   1.851   0.259  0.4733 -0.2649  0.6024
  893MOL0     O20450   8.484   1.834   0.155  1.0701  0.1610  0.2693
  893MOL0     C20451   8.492   1.903   0.039 -0.1684 -0.5777 -0.5065
  893MOL0     C20452   8.374   1.976   0.009  0.8395  0.4978 -0.2903
  893MOL0     C20453   8.375   2.057  -0.107 -0.4371  0.0403 -0.0484
  893MOL0     C20454   8.484   2.054  -0.198 -0.3382  1.5866  1.0144
  893MOL0     O20455   8.465   2.149  -0.297 -0.6075  0.5978 -0.9403
  893MOL0     C20456   8.561   2.243  -0.327 -0.3298 -0.6642 -0.1365
  893MOL0     C20457   8.598   2.336  -0.214 -0.5438  0.0030 -0.1692
  893MOL0     C20458   8.701   2.435  -0.265  0.8584  0.2215 -1.0485
  893MOL0     C20459   8.758   2.534  -0.158 -0.3219 -0.1969 -0.0988
  893MOL0     C20460   8.873   2.614  -0.221 -1.1452  0.2415 -1.2215
  893MOL0     C20461   8.820   2.721  -0.311  0.5196  0.8229 -0.3103
  893MOL0     C20462   8.788   2.846  -0.225  0.3603  0.1653 -0.2264
  893MOL0     C20463   8.865   2.976  -0.266 -0.7865  0.0588  0.3782
  893MOL0    Cl20464   9.049   2.957  -0.263  0.0151 -0.2048 -0.1203
  893MOL0     C20465   8.595   1.981  -0.161 -0.1354  0.5940  0.9234
  893MOL0     C20466   8.606   1.897  -0.047  0.5512 -1.5289 -1.2090
  893MOL0     O20467   8.669   1.922   0.251 -0.2726  0.4614 -0.4851
  893MOL0     C20468   8.672   1.724   0.453 -0.1894 -0.9525  1.0729
  893MOL0     C20469   8.662   1.624   0.538  1.3929  0.2982 -0.9059
  893MOL0     N20470   8.727   1.053   0.965  1.0705  1.0695 -0.0750
  893MOL0     N20471   8.668   0.973   1.048 -0.4492 -0.3365  0.3274
  893MOL0     C20472   8.515   0.581   2.013  0.5402 -0.0631 -0.4373
  893MOL0     C20473   8.629   0.571   2.102  0.1751 -0.9018  0.3707
  893MOL0     C20474   8.897   0.586   2.446 -0.0153  0.3562  0.5191
  893MOL0     C20475   8.890   0.475   2.538 -0.9059  0.2146 -0.3052
  893MOL0     C20476   8.986   0.459   2.641  0.5995 -0.4577 -0.0603
  893MOL0     C20477   9.093   0.558   2.667 -0.2431  0.6199  0.8925
  893MOL0     O20478   9.184   0.546   2.766  0.0262  0.1218 -1.3564
  893MOL0     C20479   9.227   0.413   2.794  0.2384  0.8487  0.6392
  893MOL0     C20480   9.339   0.406   2.885  0.4571 -0.3478 -0.5999
  893MOL0     C20481   9.469   0.491   2.843  0.0656 -0.1262 -0.3184
  893MOL0     C20482   9.530   0.581   2.953 -1.1392 -0.3255 -0.9618
  893MOL0     C20483   9.651   0.534   3.014  0.0081  0.7707 -0.1152
  893MOL0     C20484   9.764   0.496   3.050  0.0402  1.4399 -1.3466
  893MOL0     C20485   9.103   0.661   2.571 -0.1265  0.1678 -0.1001
  893MOL0     C20486   9.017   0.676   2.457 -0.5402  0.1496  0.2566
  893MOL0     C20487   9.029   0.783   2.353  0.7422 -0.2164 -0.6301
  893MOL0     H20488   8.454   0.437   2.374 -2.8297 -3.6609 -1.5479
  893MOL0     H20489   8.264   0.479   2.224 -0.0129 -2.0457 -0.5129
  893MOL0     H20490   8.375   0.597   1.796  1.8456 -1.1249  3.4323
  893MOL0     H20491   8.206   0.615   1.775  1.8939 -0.9864 -1.8881
  893MOL0     H20492   8.362   0.814   1.948 -0.4628  0.4139 -0.5700
  893MOL0     H20493   8.186   0.814   1.926  0.0075  0.0728 -1.1969
  893MOL0     H20494   8.188   0.856   1.695  0.4447 -0.5651  0.3267
  893MOL0     H20495   8.348   0.790   1.664  2.6915 -0.5777  1.0890
  893MOL0     H20496   8.320   1.064   1.780 -2.2325  0.0364 -3.0042
  893MOL0     H20497   8.466   0.972   1.781  2.5313  1.8412 -2.2629
  893MOL0     H20498   8.297   1.000   1.518  0.8121  0.7833 -0.5468
  893MOL0     H20499   8.374   1.151   1.563 -1.3406 -0.8879  1.4603
  893MOL0     H20500   8.598   1.008   1.577 -0.5200  0.5537  0.4298
  893MOL0     H20501   8.509   0.876   1.505  1.0412 -1.2269 -0.9035
  893MOL0     H20502   8.570   1.145   1.369 -3.8471  1.5690 -2.9986
  893MOL0     H20503   8.447   1.034   1.307 -1.6182  0.0864  2.0253
  893MOL0     H20504   8.744   0.975   1.341  1.1749  2.3050 -2.7142
  893MOL0     H20505   8.618   0.860   1.264 -1.6647  0.6508 -1.5439
  893MOL0     H20506   8.758   1.230   1.236  3.6666 -2.3529  0.9095
  893MOL0     H20507   8.898   1.311   1.072 -0.5548  0.4172 -0.9196
  893MOL0     H20508   8.922   1.258   0.909 -0.7785  1.4117 -1.0431
  893MOL0     H20509   8.717   1.461   1.026 -1.5910  0.7759 -2.3244
  893MOL0     H20510   8.834   1.504   0.901 -4.1275  2.8190 -5.7251
  893MOL0     H20511   8.612   1.319   0.850 -2.5489  2.4365  0.6173
  893MOL0     H20512   8.737   1.379   0.730 -0.9886  2.2414 -2.0090
  893MOL0     H20513   8.630   1.605   0.812  2.2344 -0.9030 -1.1955
  893MOL0     H20514   8.505   1.518   0.880 -1.0780  1.0552 -0.1345
  893MOL0     H20515   8.325   1.615   0.545  0.6969 -0.3091 -0.0214
  893MOL0     H20516   8.344   1.753   0.356 -0.3293 -0.2979 -0.2201
  893MOL0     H20517   8.288   1.971   0.075  0.5973  2.5968 -0.3826
  893MOL0     H20518   8.293   2.119  -0.142  0.9121  2.8827  1.4136
  893MOL0     H20519   8.650   2.192  -0.365 -0.7677 -1.9750  0.5259
  893MOL0     H20520   8.534   2.303  -0.415  1.1811 -1.2788 -1.0665
  893MOL0     H20521   8.506   2.386  -0.184 -0.4855 -0.1816  0.3347
  893MOL0     H20522   8.635   2.279  -0.128  2.2393  0.0798 -1.1961
  893MOL0     H20523   8.790   2.389  -0.309  1.8299 -2.4891  3.1033
  893MOL0     H20524   8.652   2.482  -0.350 -0.3379  0.4857 -0.2406
  893MOL0     H20525   8.791   2.477  -0.070 -3.3093 -0.0834  1.2087
  893MOL0     H20526   8.682   2.601  -0.118 -0.6242 -0.4807 -0.1943
  893MOL0     H20527   8.945   2.548  -0.270  0.1629  0.5846  0.1472
  893MOL0     H20528   8.935   2.651  -0.139  0.5192 -0.5105 -2.0833
  893MOL0     H20529   8.901   2.743  -0.381  2.2658  0.1085  1.4005
  893MOL0     H20530   8.739   2.670  -0.363  1.8834 -1.6374 -0.1403
  893MOL0     H20531   8.803   2.843  -0.116 -1.0059  1.5083  0.0196
  893MOL0     H20532   8.684   2.867  -0.250  0.3469  0.5529  0.1435
  893MOL0     H20533   8.830   2.989  -0.368 -1.7601 -1.1996  0.5176
  893MOL0     H20534   8.823   3.047  -0.194 -1.1489 -2.3627  2.7648
  893MOL0     H20535   8.678   1.979  -0.231 -1.8955  3.2108 -1.4622
  893MOL0     H20536   8.695   1.841  -0.022 -1.7001 -5.5097 -1.2741
  893MOL0     H20537   8.768   1.767   0.423 -1.8997  1.6605 -1.1797
  893MOL0     H20538   8.746   1.587   0.597  1.4069 -0.0127 -1.1222
  893MOL0     H20539   8.528   0.626   1.915  0.1910 -0.1529 -0.5241
  893MOL0     H20540   8.728   0.599   2.069 -0.3078  2.3789  1.3441
  893MOL0     H20541   8.811   0.400   2.537 -1.6728  0.8658 -4.1853
  893MOL0     H20542   8.983   0.375   2.709  0.6715  0.0699  0.6080
  893MOL0     H20543   9.263   0.362   2.704  3.2320  4.2151 -0.3279
  893MOL0     H20544   9.154   0.349   2.844  1.2890 -1.5087 -0.7037
  893MOL0     H20545   9.367   0.300   2.890 -0.0652 -0.5169 -1.0096
  893MOL0     H20546   9.300   0.432   2.984  0.0313 -0.8057 -0.6410
  893MOL0     H20547   9.428   0.559   2.767  0.8689 -3.0530 -3.6604
  893MOL0     H20548   9.540   0.424   2.793  0.6226 -1.3293  1.9595
  893MOL0     H20549   9.561   0.677   2.912  4.4471 -0.8848  1.0618
  893MOL0     H20550   9.455   0.583   3.032  0.1284 -0.4056  0.2867
  893MOL0     H20551   9.864   0.466   3.077 -1.0014 -4.4548 -2.8006
  893MOL0     H20552   9.191   0.723   2.588  3.3214 -4.7387  3.0339
  893MOL0     H20553   9.127   0.830   2.363 -0.7488  2.7083  1.8948
  893MOL0     H20554   9.015   0.727   2.260  0.1236 -1.2050  0.0429
  893MOL0     H20555   8.952   0.858   2.371  1.8148  0.8016 -0.1197
  894MOL0     O20556   1.261   2.839   7.836  0.1353 -0.1568 -0.3066
  894MOL0     C20557   1.153   2.794   7.880 -0.4873 -1.4116 -0.7275
  894MOL0     O20558   1.038   2.871   7.900  0.1999 -0.2312 -0.0319
  894MOL0     C20559   1.026   3.007   7.884  0.1362 -0.4369 -0.5621
  894MOL0     C20560   0.901   3.067   7.899  0.3080 -0.1720  0.5491
  894MOL0     C20561   0.865   3.199   7.899 -0.4563  0.4699 -0.4792
  894MOL0     C20562   0.970   3.293   7.882  0.7405  0.7156 -0.3352
  894MOL0     O20563   0.937   3.425   7.897 -0.1823 -0.9622 -0.3416
  894MOL0     C20564   0.970   3.518   7.791 -0.3302  1.4438 -0.6437
  894MOL0     C20565   0.926   3.662   7.823 -0.0503 -0.2634 -0.2195
  894MOL0     C20566   0.994   3.709   7.951  0.6353  0.3734  0.4602
  894MOL0     C20567   0.909   3.830   8.002  0.3279  0.0318 -0.3789
  894MOL0     C20568   0.951   3.951   7.915 -0.4314 -0.6243 -0.5566
  894MOL0     C20569   0.880   4.086   7.941 -0.2782 -1.5422 -0.3323
  894MOL0     C20570   0.729   4.069   7.952  0.4591  0.1421  0.7975
  894MOL0     C20571   0.665   4.049   7.807 -0.1266  1.0510  0.0893
  894MOL0     N20572   0.647   3.913   7.760  0.2268  0.0058 -0.3214
  894MOL0     C20573   0.547   3.828   7.798  0.1434  0.0560 -0.2409
  894MOL0     C20574   0.531   3.747   7.696  0.3433  0.2663 -0.7973
  894MOL0     C20575   0.440   3.620   7.705  0.4684 -0.8484 -0.3332
  894MOL0     C20576   0.499   3.502   7.780 -0.3307 -1.2839 -0.0124
  894MOL0     C20577   0.391   3.408   7.848 -0.4683  0.1886  0.1279
  894MOL0     C20578   0.444   3.279   7.904  0.6373  0.0743  0.2620
  894MOL0     O20579   0.500   3.203   7.795 -0.1778 -0.0769 -0.1886
  894MOL0     C20580   0.525   3.072   7.827 -0.1826 -0.8571 -0.3251
  894MOL0     C20581   0.510   3.018   7.957  0.5765  0.1241 -0.0513
  894MOL0     C20582   0.550   2.888   7.978  0.5266 -0.9765 -0.3204
  894MOL0     C20583   0.572   2.804   7.865 -0.4283  0.8162 -0.0879
  894MOL0     C20584   0.605   2.661   7.896 -0.3609  0.0610  0.5888
  894MOL0     O20585   0.566   2.620   8.020 -0.8070 -0.2318 -0.3934
  894MOL0     C20586   0.569   2.490   8.057  0.5676  0.2497 -0.5421
  894MOL0     C20587   0.683   2.440   8.108 -0.8800  0.1327 -0.3054
  894MOL0     C20588   0.685   2.319   8.175 -0.0905 -0.6012 -0.7765
  894MOL0     C20589   0.561   2.242   8.169 -1.1040  0.9890  0.3789
  894MOL0     O20590   0.559   2.116   8.212 -0.1511  0.7318 -0.4061
  894MOL0     C20591   0.677   2.033   8.233 -0.1995 -0.6901  1.4259
  894MOL0     C20592   0.641   1.889   8.219 -0.9388  0.1812  0.4549
  894MOL0     C20593   0.570   1.850   8.084 -0.2788 -0.3050  0.2375
  894MOL0     C20594   0.545   1.697   8.079  0.2817  0.5982 -0.1150
  894MOL0     C20595   0.391   1.661   8.084  0.3268 -0.1738 -1.2519
  894MOL0     C20596   0.365   1.519   8.045  0.3165 -0.1247  0.0207
  894MOL0     C20597   0.224   1.517   7.989 -0.3107 -0.3195 -0.0676
  894MOL0     C20598   0.218   1.477   7.846  0.1491 -1.8767  0.0864
  894MOL0    Cl20599   0.306   1.616   7.742 -0.4434  0.5291 -0.1863
  894MOL0     C20600   0.444   2.289   8.117  0.6624  0.9094 -0.1377
  894MOL0     C20601   0.445   2.414   8.064 -0.0785  0.4047 -0.6753
  894MOL0     O20602   0.638   2.589   7.800  0.1578 -0.7155  0.1987
  894MOL0     C20603   0.575   2.860   7.738  0.8148  0.3195 -0.1134
  894MOL0     C20604   0.560   2.996   7.718  0.1842  0.1114  0.4614
  894MOL0     N20605   0.640   3.769   7.607  0.4230  0.5645 -0.3924
  894MOL0     N20606   0.707   3.874   7.640  0.1507 -0.4598 -0.3959
  894MOL0     C20607   1.100   3.242   7.863  0.2386 -0.1789 -0.2354
  894MOL0     C20608   1.137   3.104   7.864 -0.4536  0.1625 -0.6385
  894MOL0     C20609   1.131   2.653   7.887  0.1985  0.2313 -0.3284
  894MOL0     C20610   1.021   2.601   7.812 -0.6012 -0.4120  0.4056
  894MOL0     C20611   0.989   2.460   7.817  0.1704  0.3065 -0.6149
  894MOL0     C20612   1.067   2.379   7.896 -0.9426 -0.3117 -0.3791
  894MOL0     O20613   1.082   2.250   7.886  0.5715  0.7012 -0.7759
  894MOL0     C20614   1.009   2.174   7.787  0.0184  0.4981  0.3236
  894MOL0     C20615   0.972   2.038   7.842  0.1683 -1.0374 -0.3429
  894MOL0     C20616   0.916   1.936   7.745 -0.9675  0.5893  0.0209
  894MOL0     C20617   1.037   1.862   7.679 -0.0327  0.0143 -0.7519
  894MOL0     C20618   1.002   1.740   7.611 -0.1938  0.3932 -0.4026
  894MOL0     C20619   0.960   1.644   7.545  0.9914  0.5848 -0.7640
  894MOL0     C20620   1.177   2.429   7.966  0.2713 -0.6984  0.1549
  894MOL0     C20621   1.203   2.567   7.976 -0.0536 -0.4976 -0.5907
  894MOL0     C20622   1.309   2.613   8.067 -0.4337  0.6171  0.3095
  894MOL0     H20623   0.813   3.005   7.911 -0.6008  0.8986 -0.2660
  894MOL0     H20624   0.762   3.223   7.923 -0.9834 -0.5899 -1.5785
  894MOL0     H20625   1.076   3.506   7.765 -0.8706  1.1591 -3.0279
  894MOL0     H20626   0.911   3.496   7.701 -0.2683 -2.4908  0.0750
  894MOL0     H20627   0.818   3.675   7.836 -0.0808 -1.7181  1.3132
  894MOL0     H20628   0.963   3.713   7.734 -1.6720 -0.6687 -1.1652
  894MOL0     H20629   1.100   3.733   7.939  1.3382 -2.1666  0.9988
  894MOL0     H20630   0.996   3.630   8.026 -4.0806 -0.2122  0.2644
  894MOL0     H20631   0.803   3.805   8.008  0.5190 -0.3377  3.3409
  894MOL0     H20632   0.924   3.850   8.108 -0.4548  2.3679 -0.6552
  894MOL0     H20633   1.058   3.969   7.929 -0.0099 -1.2559 -2.5861
  894MOL0     H20634   0.948   3.934   7.807 -1.3277 -3.2498 -0.2030
  894MOL0     H20635   0.903   4.128   8.039 -2.3472 -0.0790 -0.4169
  894MOL0     H20636   0.915   4.151   7.859  0.7708 -1.9107 -0.1975
  894MOL0     H20637   0.678   4.153   8.000 -0.1742  0.5591 -0.5584
  894MOL0     H20638   0.705   3.975   8.004  0.5033  0.6113  1.6745
  894MOL0     H20639   0.566   4.095   7.813 -1.6850 -2.0598  0.5348
  894MOL0     H20640   0.720   4.101   7.728  1.1555 -1.4284 -0.7635
  894MOL0     H20641   0.489   3.831   7.890  1.6781  2.0416  0.7486
  894MOL0     H20642   0.354   3.647   7.768 -0.3031 -3.3172 -0.2176
  894MOL0     H20643   0.412   3.593   7.603 -1.3459 -0.8962  0.1254
  894MOL0     H20644   0.556   3.441   7.709  5.2051  2.6145  0.4739
  894MOL0     H20645   0.571   3.533   7.856 -0.3348 -0.2540 -0.4095
  894MOL0     H20646   0.313   3.394   7.773 -0.1392 -0.0549 -0.1688
  894MOL0     H20647   0.330   3.453   7.927  0.1819  1.5050 -0.0944
  894MOL0     H20648   0.366   3.222   7.957  2.5417 -1.9449  1.0443
  894MOL0     H20649   0.520   3.297   7.980  1.5216  0.1350 -0.6202
  894MOL0     H20650   0.468   3.073   8.041  0.8818 -0.8019  0.7219
  894MOL0     H20651   0.553   2.844   8.077 -1.5924 -0.4176  0.0307
  894MOL0     H20652   0.773   2.498   8.094 -2.0364  1.9268 -0.5514
  894MOL0     H20653   0.769   2.294   8.240 -0.4203 -0.1996 -0.1800
  894MOL0     H20654   0.754   2.050   8.157 -1.8755  0.5304 -0.0744
  894MOL0     H20655   0.726   2.060   8.327  1.6009 -0.2605  0.4163
  894MOL0     H20656   0.724   1.819   8.231 -0.1091  0.1766 -3.8867
  894MOL0     H20657   0.571   1.868   8.301 -0.1002  0.6233  1.3139
  894MOL0     H20658   0.474   1.899   8.071 -1.0926 -2.4183 -2.8562
  894MOL0     H20659   0.641   1.875   8.005  5.3000 -1.0540  4.3350
  894MOL0     H20660   0.596   1.655   8.166  0.2644  0.5737 -0.1162
  894MOL0     H20661   0.588   1.661   7.985  0.5900 -0.6732  0.4862
  894MOL0     H20662   0.343   1.723   8.008 -0.5828 -0.7462 -1.1574
  894MOL0     H20663   0.354   1.682   8.185  3.1182 -1.2963  0.1028
  894MOL0     H20664   0.436   1.473   7.976  2.0344  0.3404  1.3999
  894MOL0     H20665   0.364   1.459   8.137  0.2622 -1.4253 -0.8039
  894MOL0     H20666   0.171   1.612   7.993  0.3110  0.0374 -0.2089
  894MOL0     H20667   0.156   1.448   8.040  0.7384 -1.4552 -0.1505
  894MOL0     H20668   0.275   1.384   7.836  0.0704 -1.8526 -0.6234
  894MOL0     H20669   0.117   1.449   7.815  0.6556 -2.0002 -1.5347
  894MOL0     H20670   0.357   2.224   8.123  2.1468 -1.2715 -0.9669
  894MOL0     H20671   0.352   2.468   8.047 -0.5464  0.0369  0.6094
  894MOL0     H20672   0.588   2.797   7.650 -0.4708  1.0774 -0.8785
  894MOL0     H20673   0.581   3.067   7.639 -1.3078  1.4557  1.2083
  894MOL0     H20674   1.174   3.316   7.833 -1.9466  2.2734  0.0005
  894MOL0     H20675   1.239   3.071   7.847  0.6405  0.4829  3.8936
  894MOL0     H20676   0.956   2.665   7.754 -0.7393 -1.9227 -1.2011
  894MOL0     H20677   0.906   2.417   7.762  0.8569 -3.2073  0.7815
  894MOL0     H20678   1.080   2.165   7.704 -3.2959  5.4631 -3.6355
  894MOL0     H20679   0.921   2.216   7.739 -0.3434 -1.6438 -1.0271
  894MOL0     H20680   0.893   2.055   7.915  0.0856 -2.6611 -0.0107
  894MOL0     H20681   1.058   1.999   7.896  0.4217  0.7562  0.5930
  894MOL0     H20682   0.861   1.996   7.672 -2.1248 -2.5013 -1.8368
  894MOL0     H20683   0.849   1.857   7.779  0.9914 -0.9613  0.5082
  894MOL0     H20684   1.069   1.939   7.608 -0.5127  0.0849 -0.8973
  894MOL0     H20685   1.117   1.838   7.749 -0.6243  0.0726 -0.0420
  894MOL0     H20686   0.953   1.560   7.479 -0.4391 -1.3502  1.6560
  894MOL0     H20687   1.227   2.366   8.038 -0.6975 -2.6307 -0.7806
  894MOL0     H20688   1.305   2.718   8.096 -0.9860  0.1046  2.2809
  894MOL0     H20689   1.329   2.561   8.162  0.0938 -0.0165 -0.1382
  894MOL0     H20690   1.401   2.593   8.012 -1.6725 -1.8015 -1.0489
  895MOL0     O20691  10.508   7.964   9.716  0.0384 -0.2008  0.4378
  895MOL0     C20692  10.565   7.883   9.793 -0.1141  0.3046 -0.1632
  895MOL0     O20693  10.624   7.768   9.755  0.4085 -0.2521  0.4651
  895MOL0     C20694  10.625   7.724   9.619 -0.0819  0.0362  0.0608
  895MOL0     C20695  10.623   7.808   9.505  0.2693 -0.9421 -0.8341
  895MOL0     C20696  10.590   7.744   9.383  0.7272 -0.3805  0.4613
  895MOL0     C20697  10.583   7.609   9.371  0.4442  0.7908 -0.1024
  895MOL0     O20698  10.533   7.542   9.261 -0.0503  0.3476 -0.2466
  895MOL0     C20699  10.581   7.591   9.128 -0.3429  0.5001  0.0551
  895MOL0     C20700  10.537   7.486   9.031  0.5632 -0.0119  1.3817
  895MOL0     C20701  10.526   7.528   8.876  0.9253 -0.6682 -0.4227
  895MOL0     C20702  10.428   7.643   8.861 -0.8360 -0.1992 -0.5932
  895MOL0     C20703  10.418   7.682   8.720 -0.5371 -1.1244  0.1840
  895MOL0     C20704  10.374   7.580   8.610  0.1240  0.0987 -1.5846
  895MOL0     C20705  10.357   7.649   8.484  0.0686 -1.3627 -0.7493
  895MOL0     C20706  10.324   7.538   8.380 -0.6927  0.2953  0.6392
  895MOL0     N20707  10.264   7.600   8.263  0.7645  0.3118 -0.5458
  895MOL0     C20708  10.128   7.602   8.237  1.1115 -0.5414  0.4089
  895MOL0     C20709  10.116   7.675   8.121 -0.5629 -0.1084  0.2660
  895MOL0     C20710  10.005   7.745   8.046 -0.6908 -0.4434  0.0144
  895MOL0     C20711   9.931   7.645   7.956  0.5414  0.0795 -0.2732
  895MOL0     C20712   9.808   7.702   7.883 -0.4509  0.9522 -0.5737
  895MOL0     C20713   9.737   7.581   7.822 -0.5044 -0.2712  0.7637
  895MOL0     O20714   9.830   7.519   7.720  0.4883  1.0119 -0.0237
  895MOL0     C20715   9.818   7.385   7.702  0.1567 -0.3124  1.0669
  895MOL0     C20716   9.705   7.342   7.621 -0.4993 -1.0014  0.6888
  895MOL0     C20717   9.698   7.216   7.582 -1.1526  0.0040 -0.7171
  895MOL0     C20718   9.805   7.126   7.598 -0.0374  0.8697  0.5373
  895MOL0     C20719   9.793   6.994   7.538  0.5704  0.7756 -0.1174
  895MOL0     O20720   9.670   6.932   7.510  0.3880  0.5997  0.5078
  895MOL0     C20721   9.676   6.800   7.474  0.4929  0.6608  0.1097
  895MOL0     C20722   9.688   6.758   7.337 -0.9083  0.2078 -1.2501
  895MOL0     C20723   9.710   6.621   7.313  0.3210 -0.8178  0.6136
  895MOL0     C20724   9.701   6.523   7.412  0.2567  1.6913 -0.4654
  895MOL0     O20725   9.727   6.394   7.370 -0.3229 -0.1715 -0.4403
  895MOL0     C20726   9.742   6.286   7.467  0.3324 -0.2732  0.0258
  895MOL0     C20727   9.771   6.161   7.386 -0.6702 -0.0347 -1.2061
  895MOL0     C20728   9.797   6.059   7.498 -0.7155 -0.0187  0.0058
  895MOL0     C20729   9.796   5.912   7.438  0.5463  0.4387 -0.6422
  895MOL0     C20730   9.928   5.863   7.386 -0.7394  0.2780  0.7599
  895MOL0     C20731   9.933   5.707   7.363 -0.0102 -0.7048 -0.2816
  895MOL0     C20732  10.064   5.667   7.294 -0.2391 -1.4784  0.4630
  895MOL0     C20733  10.050   5.516   7.271 -0.5166 -0.5984 -0.4028
  895MOL0    Cl20734  10.217   5.463   7.231  0.3143  0.3759  0.1275
  895MOL0     C20735   9.671   6.563   7.549  0.1211  0.2121  0.0335
  895MOL0     C20736   9.664   6.697   7.577  1.0838  0.4839 -0.3961
  895MOL0     O20737   9.896   6.943   7.502  0.0662 -0.2834 -1.1967
  895MOL0     C20738   9.916   7.172   7.672 -0.1797 -0.0600 -0.9031
  895MOL0     C20739   9.925   7.299   7.714  0.5907 -0.5797 -0.5679
  895MOL0     N20740  10.247   7.705   8.083 -0.3227 -0.7313  0.5875
  895MOL0     N20741  10.330   7.659   8.163 -1.5380  0.3388  0.8466
  895MOL0     C20742  10.609   7.522   9.480 -0.6837 -0.7996 -1.3616
  895MOL0     C20743  10.639   7.585   9.604  0.9369  0.9857 -0.3316
  895MOL0     C20744  10.583   7.919   9.936 -0.3680  0.0198  0.4547
  895MOL0     C20745  10.667   7.840  10.012  0.6415 -0.6313 -1.0032
  895MOL0     C20746  10.699   7.862  10.146  0.4914  0.1786 -0.8157
  895MOL0     C20747  10.633   7.977  10.200 -0.8864  0.1286  0.2125
  895MOL0     O20748  10.666   8.023  10.325  0.3028 -0.3260  0.1133
  895MOL0     C20749  10.609   8.148  10.385  0.4906  0.2251  0.3333
  895MOL0     C20750  10.665   8.164  10.530  0.0052  0.7758  0.8613
  895MOL0     C20751  10.657   8.028  10.608  0.2564  0.1181 -0.5056
  895MOL0     C20752  10.730   8.048  10.737 -0.6846 -0.4183  0.2042
  895MOL0     C20753  10.708   7.940  10.827 -0.1050 -0.3832 -0.1034
  895MOL0     C20754  10.696   7.845  10.898 -0.8258 -0.2072  0.7184
  895MOL0     C20755  10.540   8.054  10.127  0.4857  0.8780  0.6287
  895MOL0     C20756  10.513   8.023   9.993 -1.2429 -0.6419 -1.7959
  895MOL0     C20757  10.420   8.124   9.921 -1.1095  1.8175 -0.4658
  895MOL0     H20758  10.634   7.915   9.516 -0.8460 -0.8733 -0.3540
  895MOL0     H20759  10.567   7.806   9.297  5.7044  0.2409 -0.7177
  895MOL0     H20760  10.541   7.690   9.105  1.2163  1.2486  0.4706
  895MOL0     H20761  10.689   7.598   9.116  0.1724 -1.9395  2.2647
  895MOL0     H20762  10.436   7.452   9.052  0.6943 -2.1744 -0.9934
  895MOL0     H20763  10.608   7.402   9.021  1.1229  0.6800 -1.4611
  895MOL0     H20764  10.498   7.440   8.818 -1.4613 -0.7643  0.7853
  895MOL0     H20765  10.611   7.580   8.829  0.4595  0.6459  0.1440
  895MOL0     H20766  10.327   7.629   8.901  0.3621 -0.4005  2.6503
  895MOL0     H20767  10.473   7.728   8.912 -0.8749  0.9219 -2.3633
  895MOL0     H20768  10.351   7.768   8.714  1.1373  0.2870  1.0114
  895MOL0     H20769  10.518   7.711   8.686  0.9664 -3.6174  2.1288
  895MOL0     H20770  10.441   7.500   8.579 -1.1618 -0.6635 -2.4799
  895MOL0     H20771  10.279   7.543   8.650  1.3662  1.1792  2.9621
  895MOL0     H20772  10.447   7.709   8.469  0.6267 -1.7040  0.9939
  895MOL0     H20773  10.273   7.718   8.479  1.1336  0.1417  0.7916
  895MOL0     H20774  10.409   7.472   8.359 -1.0686  0.6403 -2.4520
  895MOL0     H20775  10.255   7.461   8.418 -0.4284 -0.6490 -0.7038
  895MOL0     H20776  10.047   7.545   8.280 -1.0030  1.5872 -0.4576
  895MOL0     H20777   9.943   7.795   8.121 -0.2345  0.7909 -0.4078
  895MOL0     H20778  10.050   7.824   7.986 -0.9810  0.6308  1.1614
  895MOL0     H20779  10.006   7.613   7.884  0.1005 -2.0469  0.1494
  895MOL0     H20780   9.909   7.554   8.013  0.8543  1.0135  1.4197
  895MOL0     H20781   9.843   7.774   7.808  0.8559 -1.5233 -2.5229
  895MOL0     H20782   9.743   7.744   7.960  1.6115 -0.8762  2.3630
  895MOL0     H20783   9.652   7.613   7.761  2.1751 -0.5186 -3.5645
  895MOL0     H20784   9.719   7.508   7.901  0.4832 -0.3673  0.9148
  895MOL0     H20785   9.628   7.413   7.594  1.6867  1.7077  1.0966
  895MOL0     H20786   9.622   7.174   7.517 -0.5316  0.2297 -1.6134
  895MOL0     H20787   9.716   6.827   7.257 -0.6548  0.5595 -0.8582
  895MOL0     H20788   9.728   6.589   7.211 -0.5772  0.7365 -0.0668
  895MOL0     H20789   9.825   6.303   7.537  0.7214 -3.0041  0.3225
  895MOL0     H20790   9.652   6.272   7.528  0.5957 -1.6573  0.1327
  895MOL0     H20791   9.688   6.126   7.325 -1.5082  1.7554 -1.1591
  895MOL0     H20792   9.861   6.179   7.328  1.6107 -1.6353  1.5400
  895MOL0     H20793   9.898   6.084   7.533 -1.7641  0.0582  3.2799
  895MOL0     H20794   9.716   6.075   7.570 -0.5952  0.7770 -0.0317
  895MOL0     H20795   9.726   5.908   7.353  0.6864  0.6755 -0.7705
  895MOL0     H20796   9.754   5.840   7.509 -2.0984 -0.0449 -2.5353
  895MOL0     H20797  10.002   5.887   7.463 -1.1294  1.4986  0.7744
  895MOL0     H20798   9.956   5.913   7.294 -3.0224  1.0126  0.3877
  895MOL0     H20799   9.923   5.657   7.459 -0.3033  2.0082  1.2039
  895MOL0     H20800   9.846   5.672   7.306 -0.6109  1.3104 -0.6964
  895MOL0     H20801  10.155   5.692   7.348 -0.5442 -1.2510  0.8775
  895MOL0     H20802  10.073   5.711   7.194  2.0443 -0.9705  0.8546
  895MOL0     H20803  10.024   5.465   7.364 -0.6291  2.3931  1.3481
  895MOL0     H20804   9.985   5.486   7.188 -2.0274  1.8663 -0.2221
  895MOL0     H20805   9.670   6.483   7.623 -2.8921  1.3249  1.3709
  895MOL0     H20806   9.645   6.726   7.680  2.7537  1.7105 -0.3841
  895MOL0     H20807  10.008   7.114   7.674 -0.9510 -1.3787  2.1075
  895MOL0     H20808  10.021   7.329   7.753 -0.0494 -0.8425  1.3223
  895MOL0     H20809  10.591   7.415   9.480 -0.1837 -0.8897 -1.3414
  895MOL0     H20810  10.657   7.517   9.686 -0.5800  0.8369 -0.0970
  895MOL0     H20811  10.723   7.757   9.970 -0.0761 -0.4566 -2.3441
  895MOL0     H20812  10.771   7.803  10.203  0.4456  1.2757  0.4286
  895MOL0     H20813  10.500   8.151  10.389  0.4461 -1.4885  3.2323
  895MOL0     H20814  10.637   8.241  10.333 -1.9923  2.2082  2.2792
  895MOL0     H20815  10.593   8.236  10.571 -0.2720  1.8311 -1.2895
  895MOL0     H20816  10.769   8.199  10.529  1.1499 -2.2576 -1.3880
  895MOL0     H20817  10.700   7.948  10.548 -1.5253  0.0474 -1.7750
  895MOL0     H20818  10.551   8.010  10.629  0.0566  0.7900 -0.8873
  895MOL0     H20819  10.836   8.056  10.715  0.3605  1.0509  4.5836
  895MOL0     H20820  10.699   8.142  10.784  0.1490  0.1794 -0.4303
  895MOL0     H20821  10.696   7.747  10.941 -2.5377  0.1885  1.7159
  895MOL0     H20822  10.483   8.128  10.183 -0.7701 -0.1336  0.7152
  895MOL0     H20823  10.363   8.177   9.998 -0.1096  0.9415  0.9290
  895MOL0     H20824  10.482   8.187   9.856 -0.0433  1.3910  0.1045
  895MOL0     H20825  10.348   8.068   9.861 -2.5222  1.9154  1.0790
  896MOL0     O20826  10.907   1.669  10.257 -0.2139 -0.6193 -0.7971
  896MOL0     C20827  10.858   1.572  10.212  0.1831 -1.0266 -0.1984
  896MOL0     O20828  10.736   1.520  10.249 -0.8478  0.2599  0.4033
  896MOL0     C20829  10.658   1.597  10.330  0.2468 -0.7071  0.0822
  896MOL0     C20830  10.546   1.660  10.293 -0.3829 -0.0132 -0.3579
  896MOL0     C20831  10.463   1.728  10.386  0.3131 -0.1239 -0.4365
  896MOL0     C20832  10.494   1.729  10.527 -0.1352 -0.6815  0.5683
  896MOL0     O20833  10.423   1.797  10.618  0.6934  0.8274 -0.7679
  896MOL0     C20834  10.426   1.934  10.615 -0.5086 -0.0601  0.3298
  896MOL0     C20835  10.483   1.992  10.749  0.1420  0.0897 -0.4328
  896MOL0     C20836  10.561   2.117  10.730 -0.1067  0.7829  0.1003
  896MOL0     C20837  10.482   2.246  10.698  0.4126  0.6660 -0.1244
  896MOL0     C20838  10.551   2.359  10.623  1.1682 -0.6906 -0.2772
  896MOL0     C20839  10.665   2.408  10.715  0.2253  0.4616  0.3676
  896MOL0     C20840  10.748   2.516  10.655  0.0505  0.1694  0.5265
  896MOL0     C20841  10.891   2.522  10.719 -0.0885  0.3259 -0.4432
  896MOL0     N20842  10.889   2.550  10.869  0.0041 -0.0703 -0.4298
  896MOL0     C20843  10.815   2.645  10.920 -0.0468 -0.1892 -0.7979
  896MOL0     C20844  10.799   2.622  11.051  0.1724 -0.3812  0.3219
  896MOL0     C20845  10.740   2.697  11.168  0.4457  0.2862  1.0207
  896MOL0     C20846  10.837   2.799  11.208 -0.1936 -0.4800 -0.4024
  896MOL0     C20847  10.833   2.927  11.115  0.0610  0.3414 -0.2774
  896MOL0     C20848  10.941   3.029  11.134 -0.7977  0.9531  0.0650
  896MOL0     O20849  11.055   3.004  11.059 -0.5012 -0.5064 -0.5540
  896MOL0     C20850  11.166   3.090  11.062  0.3534 -0.5111 -0.1444
  896MOL0     C20851  11.277   3.059  10.981 -0.2362 -1.1820 -0.2642
  896MOL0     C20852  11.399   3.137  10.978  0.3030 -0.0334 -0.4757
  896MOL0     C20853  11.402   3.246  11.070 -0.0074 -0.1706  0.4500
  896MOL0     C20854  11.514   3.338  11.046 -1.5299  0.5080 -0.2284
  896MOL0     O20855  11.571   3.348  10.918 -0.3751 -0.5208 -0.5529
  896MOL0     C20856  11.636   3.458  10.891  0.7112  0.0279  0.2290
  896MOL0     C20857  11.564   3.577  10.877 -0.5041 -0.3939  1.1573
  896MOL0     C20858  11.629   3.693  10.827  0.3622 -0.4797 -0.0601
  896MOL0     C20859  11.758   3.685  10.782 -0.3534 -0.4483 -0.4418
  896MOL0     O20860  11.816   3.793  10.720 -0.1675  0.2615 -0.5205
  896MOL0     C20861  11.957   3.809  10.715  0.7131  0.3512  0.2838
  896MOL0     C20862  11.984   3.918  10.611 -0.4595  0.2366 -0.4053
  896MOL0     C20863  11.923   4.056  10.641  0.3661  0.7103  0.2437
  896MOL0     C20864  11.927   4.150  10.524 -0.2761  0.9544  0.3400
  896MOL0     C20865  11.808   4.245  10.539 -0.3838 -0.1038 -0.0678
  896MOL0     C20866  11.693   4.174  10.463 -0.1493 -0.6710  0.3306
  896MOL0     C20867  11.553   4.241  10.489 -0.0303  0.4635 -0.5093
  896MOL0     C20868  11.459   4.260  10.368  0.8984 -1.1077  0.1990
  896MOL0    Cl20869  11.416   4.107  10.284 -0.6504  0.2082  0.2220
  896MOL0     C20870  11.828   3.564  10.800  0.1892 -0.2126 -0.0212
  896MOL0     C20871  11.769   3.442  10.854  0.3111  0.0522 -1.0358
  896MOL0     O20872  11.553   3.412  11.139  0.1218  0.8289  0.4128
  896MOL0     C20873  11.296   3.279  11.152  0.5337 -0.1094 -0.0654
  896MOL0     C20874  11.175   3.203  11.155 -0.1264  0.1646  1.0090
  896MOL0     N20875  10.879   2.518  11.072 -0.6977  0.9005  0.7172
  896MOL0     N20876  10.933   2.463  10.965  0.2763 -1.0380  0.0122
  896MOL0     C20877  10.609   1.667  10.568 -0.3804 -0.0718  0.9325
  896MOL0     C20878  10.691   1.596  10.471  0.2248 -0.2619 -0.2529
  896MOL0     C20879  10.917   1.488  10.100  0.7456  0.6289 -0.7136
  896MOL0     C20880  11.046   1.431  10.101  0.8175  0.7362  0.6304
  896MOL0     C20881  11.081   1.332  10.007  0.0633 -0.3957  0.4987
  896MOL0     C20882  10.995   1.289   9.910  0.3367 -0.1303  0.2029
  896MOL0     O20883  11.019   1.195   9.816  0.5419  0.5573  0.5542
  896MOL0     C20884  10.945   1.080   9.840  0.7677  0.2103  0.1164
  896MOL0     C20885  11.003   0.980   9.930 -0.7734 -0.0554  0.0738
  896MOL0     C20886  11.141   0.945   9.889 -0.6704 -0.2677  0.1219
  896MOL0     C20887  11.198   0.832   9.974 -0.6344 -0.2854 -0.7639
  896MOL0     C20888  11.101   0.730  10.022 -0.4130  0.7219 -0.1069
  896MOL0     C20889  11.038   0.634  10.076  0.3586  0.0840  0.1276
  896MOL0     C20890  10.875   1.362   9.895 -0.2079  1.1151 -0.1841
  896MOL0     C20891  10.835   1.463   9.985  0.4056 -0.1903 -0.3991
  896MOL0     C20892  10.720   1.554   9.942  0.3469  0.0340  0.3742
  896MOL0     H20893  10.527   1.652  10.187  2.6178 -2.3018 -0.8614
  896MOL0     H20894  10.369   1.767  10.349 -0.9790 -1.7440  0.9388
  896MOL0     H20895  10.488   1.973  10.534 -1.4805  1.7053  0.3673
  896MOL0     H20896  10.329   1.985  10.607  1.1765  3.7349  1.4794
  896MOL0     H20897  10.551   1.914  10.785  1.2115  1.6868  1.1991
  896MOL0     H20898  10.399   2.000  10.818 -0.8258 -0.0088 -1.5803
  896MOL0     H20899  10.626   2.105  10.643 -4.8684  0.7412 -3.8886
  896MOL0     H20900  10.611   2.128  10.827 -0.4515 -0.8963  0.5057
  896MOL0     H20901  10.410   2.229  10.618  0.7924  2.8247 -1.0036
  896MOL0     H20902  10.428   2.287  10.784  2.1340  0.6708  1.0151
  896MOL0     H20903  10.601   2.313  10.537  2.9817 -0.2557  0.4926
  896MOL0     H20904  10.486   2.440  10.590  2.6480 -0.0279 -1.6791
  896MOL0     H20905  10.612   2.451  10.801 -4.0331  2.3063 -2.7945
  896MOL0     H20906  10.727   2.325  10.748 -2.0215 -0.6997  1.9243
  896MOL0     H20907  10.689   2.606  10.676  0.9121  0.2747  2.8360
  896MOL0     H20908  10.754   2.499  10.547 -0.8470 -3.7187  0.9603
  896MOL0     H20909  10.925   2.420  10.701 -0.4476 -0.2020  1.5347
  896MOL0     H20910  10.960   2.593  10.673  2.5822 -1.9300 -0.1686
  896MOL0     H20911  10.782   2.729  10.860 -2.5115 -0.8451 -0.4857
  896MOL0     H20912  10.643   2.744  11.149  0.7848  1.2643  1.6390
  896MOL0     H20913  10.739   2.628  11.253 -1.1661 -1.5948 -0.4517
  896MOL0     H20914  10.817   2.836  11.309 -1.8940 -0.9145 -0.5522
  896MOL0     H20915  10.932   2.748  11.192 -0.9419 -1.7029 -1.1195
  896MOL0     H20916  10.732   2.968  11.124  0.6370  1.5792  0.9401
  896MOL0     H20917  10.828   2.900  11.009  2.6540  1.8231 -0.8582
  896MOL0     H20918  10.974   3.039  11.238  1.5414 -2.0898 -0.2542
  896MOL0     H20919  10.915   3.131  11.103 -2.4436  1.3990  2.5704
  896MOL0     H20920  11.269   2.981  10.907 -0.2237  1.4568 -3.2603
  896MOL0     H20921  11.476   3.105  10.908  1.9770  1.1670  0.7331
  896MOL0     H20922  11.457   3.557  10.878 -0.6350 -0.5141 -2.5365
  896MOL0     H20923  11.580   3.790  10.826  2.6640  0.7410 -0.0059
  896MOL0     H20924  11.999   3.837  10.812 -1.1372 -0.7411  1.4620
  896MOL0     H20925  12.003   3.713  10.690 -2.0042 -1.6016  2.2202
  896MOL0     H20926  12.093   3.924  10.606 -0.2130  0.5536  2.9435
  896MOL0     H20927  11.951   3.888  10.512 -1.4277 -0.8544  0.2256
  896MOL0     H20928  11.819   4.041  10.672 -0.5147 -1.1168 -3.0930
  896MOL0     H20929  11.979   4.103  10.722  1.9865 -2.4011  1.0871
  896MOL0     H20930  11.935   4.107  10.424  0.9903  1.3129  0.2639
  896MOL0     H20931  12.017   4.212  10.524 -0.9185  1.9204  0.5533
  896MOL0     H20932  11.842   4.344  10.508  0.7780 -0.7151 -0.8578
  896MOL0     H20933  11.795   4.263  10.646 -0.7028  1.3143 -0.3258
  896MOL0     H20934  11.715   4.185  10.356 -0.0664 -4.7604 -0.2175
  896MOL0     H20935  11.690   4.065  10.466 -2.1556 -0.6686 -0.2242
  896MOL0     H20936  11.568   4.342  10.529 -1.2322  0.1597  0.7978
  896MOL0     H20937  11.503   4.188  10.571  0.3669  0.1724 -0.4505
  896MOL0     H20938  11.362   4.302  10.396  2.0927  3.7556 -1.9651
  896MOL0     H20939  11.498   4.333  10.297 -1.8625 -0.6625 -1.0027
  896MOL0     H20940  11.935   3.558  10.781  0.0906  1.1704 -1.2812
  896MOL0     H20941  11.817   3.345  10.864 -0.9121 -0.5035 -0.3328
  896MOL0     H20942  11.304   3.365  11.218  0.8457  0.1684 -0.4594
  896MOL0     H20943  11.100   3.239  11.225  1.1296  3.4055  0.8812
  896MOL0     H20944  10.642   1.672  10.671 -0.8848  3.2653  1.0426
  896MOL0     H20945  10.771   1.533  10.509 -1.0783 -2.0707 -0.3628
  896MOL0     H20946  11.120   1.468  10.171  2.6921 -0.6327 -0.5444
  896MOL0     H20947  11.185   1.305   9.990  1.2622  4.2553 -0.8232
  896MOL0     H20948  10.911   1.036   9.745 -3.0866  0.8791  1.0161
  896MOL0     H20949  10.852   1.122   9.879 -0.5694 -1.4684 -1.1112
  896MOL0     H20950  10.924   0.904   9.925  1.2424 -2.2741  0.1956
  896MOL0     H20951  11.000   1.016  10.033 -0.5700  0.2920 -0.0407
  896MOL0     H20952  11.207   1.032   9.902 -2.2951  1.9554 -4.2969
  896MOL0     H20953  11.140   0.908   9.786  0.8291 -5.1199  1.5808
  896MOL0     H20954  11.292   0.795   9.931  1.8478  1.8144  2.3724
  896MOL0     H20955  11.213   0.882  10.070 -4.1431 -1.9051  0.8262
  896MOL0     H20956  10.986   0.564  10.137  0.2888  2.6161  3.2376
  896MOL0     H20957  10.821   1.333   9.806  1.0738 -0.7409 -0.4240
  896MOL0     H20958  10.762   1.637   9.885 -3.9337  2.7276  0.6601
  896MOL0     H20959  10.665   1.502   9.864  3.4741  0.8826 -2.6294
  896MOL0     H20960  10.661   1.582  10.031  1.1663  1.9145  0.3757
  897MOL0     O20961  10.880   1.088   8.252  0.0156 -0.4024 -0.2607
  897MOL0     C20962  10.930   1.078   8.359 -0.4123 -0.0379 -0.0931
  897MOL0     O20963  10.930   0.967   8.433  0.2455  0.4136 -0.2449
  897MOL0     C20964  10.861   0.860   8.393  0.6353  0.5399 -0.9614
  897MOL0     C20965  10.923   0.740   8.424 -0.2351  0.0677 -0.2260
  897MOL0     C20966  10.853   0.622   8.404 -0.2225 -0.5923  0.5768
  897MOL0     C20967  10.721   0.624   8.371  0.7135 -0.4823 -0.2955
  897MOL0     O20968  10.633   0.521   8.363 -0.3645  0.2903  0.3971
  897MOL0     C20969  10.693   0.391   8.381 -0.3416 -0.1160  0.2507
  897MOL0     C20970  10.712   0.350   8.529 -0.2747  0.6602  1.2030
  897MOL0     C20971  10.770   0.209   8.541 -0.1972  0.5765  0.0818
  897MOL0     C20972  10.792   0.157   8.689 -0.8155 -0.5667  0.2828
  897MOL0     C20973  10.872   0.027   8.690  0.6821 -0.2750 -0.0401
  897MOL0     C20974  10.897  -0.025   8.838 -0.8181  0.4076 -0.7106
  897MOL0     C20975  10.781  -0.104   8.912  0.7158 -0.8015 -0.7702
  897MOL0     C20976  10.793  -0.251   8.881  0.2374 -0.2661  0.4386
  897MOL0     N20977  10.752  -0.280   8.740  0.2125  0.5753 -0.9732
  897MOL0     C20978  10.632  -0.253   8.680 -0.1948  0.0447  0.7426
  897MOL0     C20979  10.644  -0.301   8.549 -0.2905 -1.0861  0.7713
  897MOL0     C20980  10.534  -0.293   8.450 -0.1305  0.0064 -0.0910
  897MOL0     C20981  10.490  -0.146   8.421 -0.3185 -0.5717 -0.6434
  897MOL0     C20982  10.385  -0.138   8.305  0.3931  0.1459 -0.1846
  897MOL0     C20983  10.314   0.010   8.295 -0.0587 -0.4750  0.3659
  897MOL0     O20984  10.206  -0.001   8.203  0.0217 -0.1528  0.3567
  897MOL0     C20985  10.154   0.107   8.154  0.1532 -0.6385 -0.5740
  897MOL0     C20986  10.210   0.179   8.045 -0.2652 -0.7528  0.3367
  897MOL0     C20987  10.136   0.273   7.976  0.8792 -0.2220 -1.1498
  897MOL0     C20988  10.011   0.309   8.023  0.2539 -0.4536  0.4402
  897MOL0     C20989   9.943   0.413   7.951  0.2829  0.1889 -0.0801
  897MOL0     O20990   9.818   0.435   7.998  0.0728  0.2721 -0.1696
  897MOL0     C20991   9.745   0.531   7.937  0.7542  0.4080 -0.3625
  897MOL0     C20992   9.708   0.647   7.999  0.1247 -0.1871 -0.6500
  897MOL0     C20993   9.631   0.748   7.931  0.9809  0.2626 -1.1886
  897MOL0     C20994   9.603   0.731   7.793 -0.6648 -0.2425 -0.1670
  897MOL0     O20995   9.536   0.817   7.717  1.4950  0.3660 -0.5322
  897MOL0     C20996   9.407   0.851   7.767  0.3173  1.1764  1.1809
  897MOL0     C20997   9.382   0.999   7.759  0.3354  0.4161  0.1768
  897MOL0     C20998   9.244   1.047   7.805  0.4449  0.4635 -0.0692
  897MOL0     C20999   9.256   1.176   7.882  0.3704  0.6483  1.0480
  897MOL0     C21000   9.128   1.239   7.925 -0.6164  0.5483  0.4779
  897MOL0     C21001   9.160   1.375   7.986 -0.1313 -0.6879 -0.5361
  897MOL0     C21002   9.243   1.374   8.127 -0.1146 -0.3098  0.2709
  897MOL0     C21003   9.203   1.482   8.225 -0.3604  0.1135 -0.0522
  897MOL0    Cl21004   9.306   1.633   8.234 -0.0871 -0.9318 -0.0224
  897MOL0     C21005   9.637   0.613   7.728 -0.8397  0.5197 -0.4931
  897MOL0     C21006   9.702   0.514   7.801 -0.3322 -0.0602 -0.0141
  897MOL0     O21007   9.994   0.458   7.848 -0.2031  0.8101 -0.1592
  897MOL0     C21008   9.957   0.252   8.143 -0.3852 -1.1902  0.8070
  897MOL0     C21009  10.031   0.152   8.201 -1.0576  1.0324 -0.2020
  897MOL0     N21010  10.776  -0.343   8.534  0.0249 -0.8247 -0.1739
  897MOL0     N21011  10.830  -0.338   8.652 -1.3298  0.5182 -0.3740
  897MOL0     C21012  10.655   0.751   8.343  0.3004 -0.1573  0.4323
  897MOL0     C21013  10.731   0.868   8.350 -0.5274  0.2685 -0.7456
  897MOL0     C21014  11.014   1.195   8.397 -0.1363 -0.0764  0.0297
  897MOL0     C21015  11.037   1.297   8.313  0.7299 -0.5957 -0.0849
  897MOL0     C21016  11.120   1.404   8.333  0.2779 -0.2560 -0.0199
  897MOL0     C21017  11.193   1.409   8.455  0.5114  0.4114  0.0888
  897MOL0     O21018  11.306   1.484   8.479  0.5523 -0.7063  0.0832
  897MOL0     C21019  11.342   1.585   8.384 -0.0910 -0.5357 -1.1207
  897MOL0     C21020  11.447   1.675   8.450  1.3964  0.3609 -0.1436
  897MOL0     C21021  11.514   1.766   8.345  0.2162 -0.8120  0.0845
  897MOL0     C21022  11.615   1.861   8.426  0.1277 -0.2456  0.2991
  897MOL0     C21023  11.697   1.916   8.319  0.8395 -0.3938 -0.4673
  897MOL0     C21024  11.762   1.965   8.228  0.0825 -1.2519 -0.1398
  897MOL0     C21025  11.161   1.313   8.548 -1.5291  0.7445  0.5405
  897MOL0     C21026  11.083   1.203   8.518 -0.2162  0.2943  0.7974
  897MOL0     C21027  11.050   1.111   8.631 -0.7359  0.7702  0.0414
  897MOL0     H21028  11.023   0.743   8.467 -0.9738 -0.7109  1.6266
  897MOL0     H21029  10.902   0.527   8.420  1.0366 -0.3757 -1.6246
  897MOL0     H21030  10.620   0.321   8.338  0.1519 -0.8433  0.5704
  897MOL0     H21031  10.780   0.376   8.317 -2.5680  0.2262 -3.0863
  897MOL0     H21032  10.618   0.355   8.586 -0.8812  0.1153  0.2698
  897MOL0     H21033  10.788   0.416   8.573 -0.8236  1.3404  1.1541
  897MOL0     H21034  10.866   0.198   8.488 -0.1859 -1.1287  0.3826
  897MOL0     H21035  10.703   0.132   8.501  2.0134 -0.9950 -0.8350
  897MOL0     H21036  10.852   0.234   8.737 -0.8098 -1.1681  1.2496
  897MOL0     H21037  10.692   0.155   8.732 -1.1635  0.1254 -0.4595
  897MOL0     H21038  10.819  -0.046   8.629 -1.5627  1.0014  0.2992
  897MOL0     H21039  10.971   0.039   8.644  1.5705 -0.5051  1.7031
  897MOL0     H21040  10.989  -0.085   8.835 -0.1374  1.3221  0.6192
  897MOL0     H21041  10.928   0.065   8.892 -0.2281  0.6755 -1.4843
  897MOL0     H21042  10.682  -0.069   8.880  1.5903  0.9709 -1.6151
  897MOL0     H21043  10.783  -0.097   9.021 -1.6429 -2.0055 -0.5733
  897MOL0     H21044  10.894  -0.284   8.907  0.3605  0.8021  1.3590
  897MOL0     H21045  10.740  -0.314   8.953  1.4328  0.5765  2.1104
  897MOL0     H21046  10.551  -0.204   8.733 -0.0756 -1.8697  2.8443
  897MOL0     H21047  10.548  -0.356   8.362 -2.8840 -1.8565  0.6778
  897MOL0     H21048  10.452  -0.341   8.505  0.2915 -2.4706 -1.4954
  897MOL0     H21049  10.438  -0.103   8.508 -1.0369  2.8069 -2.5605
  897MOL0     H21050  10.576  -0.082   8.399 -1.0097  0.6625  0.1254
  897MOL0     H21051  10.319  -0.222   8.325 -0.0525  0.9756  2.1531
  897MOL0     H21052  10.445  -0.150   8.214 -1.1541  2.8829 -1.7237
  897MOL0     H21053  10.385   0.072   8.240  1.2662 -1.4875  0.8897
  897MOL0     H21054  10.296   0.049   8.396 -0.6560 -0.8438  0.4107
  897MOL0     H21055  10.307   0.170   7.996  0.0263  3.7299 -0.3651
  897MOL0     H21056  10.195   0.318   7.897  0.5634 -0.1482 -1.3485
  897MOL0     H21057   9.738   0.663   8.102 -0.3372  3.1257 -0.9217
  897MOL0     H21058   9.606   0.840   7.983  0.2149 -0.2030 -0.7101
  897MOL0     H21059   9.335   0.794   7.707  0.9529 -2.3233  3.4723
  897MOL0     H21060   9.396   0.823   7.872 -2.5136  2.8221  1.4325
  897MOL0     H21061   9.455   1.033   7.833  1.0860  0.5070 -0.5810
  897MOL0     H21062   9.416   1.041   7.664 -2.9133 -0.0373 -1.3137
  897MOL0     H21063   9.176   1.064   7.721  1.2721  2.4573 -0.4055
  897MOL0     H21064   9.209   0.970   7.873 -2.1327  3.1029  1.8629
  897MOL0     H21065   9.314   1.252   7.829  1.9883  0.4944  2.4934
  897MOL0     H21066   9.307   1.160   7.978 -3.4934  2.3141  3.6265
  897MOL0     H21067   9.065   1.174   7.986  0.5734 -0.9340  0.1665
  897MOL0     H21068   9.066   1.272   7.840  0.1816 -0.2319 -0.4209
  897MOL0     H21069   9.199   1.450   7.916 -1.8121  1.1116  0.3667
  897MOL0     H21070   9.057   1.408   8.001 -0.1881  0.3706 -2.7801
  897MOL0     H21071   9.350   1.357   8.108 -0.1220 -0.0318 -0.0348
  897MOL0     H21072   9.217   1.276   8.168 -0.9573 -0.4732 -0.6095
  897MOL0     H21073   9.098   1.509   8.221 -0.2355  0.5398 -0.4933
  897MOL0     H21074   9.218   1.433   8.322 -1.2743 -1.3747 -0.6343
  897MOL0     H21075   9.624   0.598   7.621  2.1505 -2.6382 -0.5785
  897MOL0     H21076   9.726   0.418   7.755 -0.8616 -0.3351  0.2851
  897MOL0     H21077   9.854   0.273   8.171 -0.6744  1.3953 -1.7030
  897MOL0     H21078   9.976   0.086   8.268  2.7838 -0.4266  1.7939
  897MOL0     H21079  10.554   0.765   8.306  0.4678  2.6792  0.7714
  897MOL0     H21080  10.672   0.958   8.333 -1.9387 -0.1396  1.5579
  897MOL0     H21081  10.995   1.295   8.213 -1.2087 -0.5534  0.6910
  897MOL0     H21082  11.141   1.486   8.265 -1.0125  0.2906  0.2236
  897MOL0     H21083  11.256   1.650   8.365  0.4854  1.0619  1.2461
  897MOL0     H21084  11.381   1.540   8.293  0.0432 -0.6895 -0.9878
  897MOL0     H21085  11.519   1.610   8.501 -0.7228 -1.7015  0.3791
  897MOL0     H21086  11.405   1.745   8.522 -1.6171 -1.3716 -0.0616
  897MOL0     H21087  11.451   1.816   8.271 -0.0251 -1.1387  0.0671
  897MOL0     H21088  11.575   1.701   8.282  0.0219  0.8879 -1.9892
  897MOL0     H21089  11.558   1.938   8.480 -1.7773 -0.8876 -0.6962
  897MOL0     H21090  11.676   1.813   8.503 -1.7159  0.2958  2.1630
  897MOL0     H21091  11.822   2.005   8.149  0.1678 -1.3061 -0.1019
  897MOL0     H21092  11.216   1.291   8.638  1.1423 -0.1118 -1.1761
  897MOL0     H21093  11.095   1.012   8.618 -1.4286 -0.0958  3.3218
  897MOL0     H21094  11.078   1.155   8.728 -0.9921  1.3361 -0.1373
  897MOL0     H21095  10.942   1.096   8.627 -0.6603  0.3644 -0.5158
  898MOL0     O21096   7.447   2.925   7.319 -0.5002 -2.1542 -0.0800
  898MOL0     C21097   7.526   2.835   7.334 -0.9818 -0.3296 -0.5236
  898MOL0     O21098   7.497   2.710   7.370  0.1910 -0.2140  0.5230
  898MOL0     C21099   7.373   2.655   7.347 -0.8320 -0.3441  0.4021
  898MOL0     C21100   7.321   2.580   7.449  0.3765 -0.2144  0.5558
  898MOL0     C21101   7.208   2.497   7.433  0.2186  0.3004  0.0807
  898MOL0     C21102   7.152   2.487   7.309  0.8114 -0.3111  0.1075
  898MOL0     O21103   7.046   2.398   7.290 -0.3009  0.4758 -0.2091
  898MOL0     C21104   7.079   2.254   7.312  0.1708 -1.6209  0.1112
  898MOL0     C21105   6.957   2.169   7.264  0.2527  0.2566  0.0316
  898MOL0     C21106   6.986   2.103   7.130 -0.7091 -0.4050  0.1022
  898MOL0     C21107   6.856   2.036   7.083 -0.2996  0.2791 -0.0573
  898MOL0     C21108   6.842   1.897   7.142  0.3066 -0.2645  0.8112
  898MOL0     C21109   6.707   1.843   7.116  0.3210  0.0734 -0.9838
  898MOL0     C21110   6.675   1.838   6.964  1.3127 -0.3713 -1.3928
  898MOL0     C21111   6.547   1.917   6.933 -1.1455  0.3405 -1.0953
  898MOL0     N21112   6.487   1.870   6.813 -0.2460 -0.3612  0.1264
  898MOL0     C21113   6.402   1.759   6.798  0.3730 -0.1210 -0.2345
  898MOL0     C21114   6.382   1.735   6.664  1.0619 -0.0917  0.6012
  898MOL0     C21115   6.282   1.627   6.614 -0.4884 -0.2229 -0.5247
  898MOL0     C21116   6.322   1.555   6.475 -0.7031 -0.2884  0.1477
  898MOL0     C21117   6.449   1.485   6.486 -0.3667  0.3022  0.2362
  898MOL0     C21118   6.503   1.437   6.349 -1.0565 -0.9160 -0.1560
  898MOL0     O21119   6.642   1.404   6.372  0.4709 -0.3821 -0.7454
  898MOL0     C21120   6.709   1.306   6.298 -0.2335 -0.0348 -0.1833
  898MOL0     C21121   6.669   1.274   6.168  1.2359 -0.2097 -0.1381
  898MOL0     C21122   6.729   1.169   6.093  0.4406  0.0486 -0.1513
  898MOL0     C21123   6.842   1.113   6.146  0.6333 -0.0803  0.6348
  898MOL0     C21124   6.904   0.998   6.071 -1.0837  0.7102  0.5278
  898MOL0     O21125   6.837   0.938   5.954 -0.2374 -0.6721 -0.5025
  898MOL0     C21126   6.898   0.825   5.911 -0.6373 -0.3073  0.8163
  898MOL0     C21127   6.837   0.707   5.931 -0.2057 -0.0802  0.3085
  898MOL0     C21128   6.885   0.590   5.869 -0.2499 -0.7703  0.1050
  898MOL0     C21129   6.992   0.589   5.776 -0.4712 -0.2138 -0.7749
  898MOL0     O21130   7.047   0.470   5.726 -0.8751 -0.2007 -0.3005
  898MOL0     C21131   7.124   0.470   5.602  1.1448 -0.3973  0.7193
  898MOL0     C21132   7.034   0.425   5.483  0.5190 -0.5429 -0.3984
  898MOL0     C21133   6.921   0.518   5.434 -0.5529 -0.8907  0.1043
  898MOL0     C21134   6.860   0.463   5.306 -0.9193 -0.5818  0.4671
  898MOL0     C21135   6.945   0.458   5.175 -0.0018 -0.1074 -0.5708
  898MOL0     C21136   7.065   0.546   5.158  0.1826 -0.3120 -0.8525
  898MOL0     C21137   7.115   0.549   5.016 -1.1950 -0.8476  0.1678
  898MOL0     C21138   7.272   0.570   5.019 -0.0146  0.3301 -0.0147
  898MOL0    Cl21139   7.281   0.741   5.075 -0.3827  0.5201  0.3112
  898MOL0     C21140   7.055   0.716   5.760  0.8654  1.1689  0.0016
  898MOL0     C21141   7.006   0.835   5.825  0.2142 -0.3169 -0.4549
  898MOL0     O21142   7.016   0.964   6.107  1.0396  0.0899 -0.4660
  898MOL0     C21143   6.889   1.150   6.273  0.5266  0.7295  0.5792
  898MOL0     C21144   6.828   1.245   6.349  0.3076  0.5040 -0.1140
  898MOL0     N21145   6.447   1.851   6.603 -0.3690  0.2729 -0.0822
  898MOL0     N21146   6.513   1.924   6.695  0.2385 -0.1871  1.0402
  898MOL0     C21147   7.198   2.578   7.202 -0.1785  0.7144 -0.2989
  898MOL0     C21148   7.302   2.660   7.224 -0.6800 -0.2099  0.3600
  898MOL0     C21149   7.676   2.865   7.329  0.9421 -0.2405  0.2375
  898MOL0     C21150   7.760   2.748   7.307  0.9604 -1.0740  0.1382
  898MOL0     C21151   7.896   2.764   7.295  0.2019  0.0021 -0.7097
  898MOL0     C21152   7.960   2.884   7.308 -0.0196 -0.6586  0.3545
  898MOL0     O21153   8.093   2.909   7.296 -0.3010  0.6403  0.0163
  898MOL0     C21154   8.179   2.807   7.231  0.4822 -0.5346  0.1712
  898MOL0     C21155   8.154   2.816   7.077 -0.4288  1.0500  0.3845
  898MOL0     C21156   8.159   2.958   7.018 -0.4844  0.4328  0.1695
  898MOL0     C21157   8.286   3.037   7.036  0.3330 -0.2113 -0.1119
  898MOL0     C21158   8.317   3.106   7.160  0.9866 -0.2400  0.3852
  898MOL0     C21159   8.357   3.142   7.266 -0.4913 -0.6689  0.0546
  898MOL0     C21160   7.879   2.993   7.323 -0.2627  0.3439  0.8831
  898MOL0     C21161   7.741   2.988   7.341  0.1400  0.7015 -0.3398
  898MOL0     C21162   7.672   3.121   7.366  0.0814  1.0530  0.2131
  898MOL0     H21163   7.376   2.587   7.542  2.9293  0.7962 -0.9386
  898MOL0     H21164   7.187   2.425   7.512  4.5130 -1.9912 -0.5535
  898MOL0     H21165   7.173   2.228   7.262 -0.9203 -4.2579 -0.7657
  898MOL0     H21166   7.096   2.231   7.418  0.2099  1.7789  0.9490
  898MOL0     H21167   6.875   2.237   7.241  0.8640  1.0253  0.0603
  898MOL0     H21168   6.932   2.105   7.349  0.2870  0.6265  0.3216
  898MOL0     H21169   7.075   2.039   7.135  0.2085  0.9396  2.2261
  898MOL0     H21170   7.007   2.180   7.054  1.9719 -0.8860  0.2624
  898MOL0     H21171   6.776   2.103   7.116  0.2373 -0.2168  2.4750
  898MOL0     H21172   6.840   2.033   6.975 -4.2783 -1.9597  0.3566
  898MOL0     H21173   6.918   1.841   7.086  0.5110  2.3521 -1.7352
  898MOL0     H21174   6.869   1.907   7.248  1.3414 -2.0094  0.7490
  898MOL0     H21175   6.713   1.739   7.147 -1.0242  0.0062 -0.8886
  898MOL0     H21176   6.630   1.893   7.176 -0.6897 -1.6555 -0.8065
  898MOL0     H21177   6.652   1.737   6.927 -0.3416 -0.5643  0.0555
  898MOL0     H21178   6.758   1.873   6.902  1.7526 -1.9496 -1.7572
  898MOL0     H21179   6.482   1.887   7.016 -0.4803  3.0223  0.5154
  898MOL0     H21180   6.570   2.023   6.939  2.2616 -0.3506  3.7617
  898MOL0     H21181   6.366   1.695   6.878 -1.2023  1.9211  0.7879
  898MOL0     H21182   6.291   1.550   6.691  2.5530 -0.2021 -0.7378
  898MOL0     H21183   6.177   1.656   6.609 -0.0655  1.3387 -0.6421
  898MOL0     H21184   6.244   1.480   6.453 -0.8287 -0.9382  2.5611
  898MOL0     H21185   6.335   1.641   6.408 -0.0489 -0.7026 -0.2731
  898MOL0     H21186   6.426   1.398   6.548 -1.5169  0.6830  0.3731
  898MOL0     H21187   6.514   1.559   6.535 -1.2005 -1.1467  3.8086
  898MOL0     H21188   6.500   1.513   6.271 -1.5791 -0.3759  0.3777
  898MOL0     H21189   6.458   1.343   6.316  2.1057 -2.6442  0.0018
  898MOL0     H21190   6.599   1.339   6.118  0.5460  0.2283  1.3433
  898MOL0     H21191   6.688   1.131   5.999  0.8944 -0.7418 -0.0390
  898MOL0     H21192   6.749   0.708   5.995  0.5775  1.7410  1.4500
  898MOL0     H21193   6.829   0.499   5.889  1.0672 -1.3918  1.1112
  898MOL0     H21194   7.172   0.564   5.574  2.6928 -2.1463 -3.2027
  898MOL0     H21195   7.207   0.405   5.630  1.2758 -0.6407 -0.1912
  898MOL0     H21196   7.099   0.406   5.398  1.2043  1.6836 -0.4250
  898MOL0     H21197   6.986   0.328   5.500  2.4878 -1.7717 -1.4564
  898MOL0     H21198   6.846   0.532   5.513 -0.4411  3.6309 -0.3645
  898MOL0     H21199   6.965   0.616   5.414 -0.5049 -1.2340 -1.6834
  898MOL0     H21200   6.781   0.531   5.272  0.5261  0.9904  0.1124
  898MOL0     H21201   6.826   0.362   5.330  1.1198 -2.0050 -2.0769
  898MOL0     H21202   6.880   0.475   5.089 -0.8535  0.8581  0.2401
  898MOL0     H21203   6.975   0.354   5.157 -1.2142 -0.2788 -1.7357
  898MOL0     H21204   7.022   0.643   5.185 -1.7627 -0.8663 -1.8013
  898MOL0     H21205   7.144   0.508   5.224 -1.2762 -1.2643  0.4035
  898MOL0     H21206   7.068   0.635   4.968 -0.9033  1.0977  3.1236
  898MOL0     H21207   7.103   0.453   4.965  3.5342 -1.3561 -0.4363
  898MOL0     H21208   7.318   0.502   5.092 -1.7732  0.6120  1.4124
  898MOL0     H21209   7.319   0.541   4.924  0.5474 -1.5065  0.7773
  898MOL0     H21210   7.155   0.719   5.717  0.2424 -1.6587 -1.8655
  898MOL0     H21211   7.064   0.926   5.832 -1.6620  0.8792  0.4298
  898MOL0     H21212   6.979   1.113   6.322  0.6843  1.1951  0.6457
  898MOL0     H21213   6.879   1.267   6.442  1.4596 -3.1200  0.2718
  898MOL0     H21214   7.136   2.575   7.113 -0.3520  0.0058 -0.1684
  898MOL0     H21215   7.344   2.731   7.154  2.8656 -2.2634  0.1631
  898MOL0     H21216   7.722   2.647   7.323  1.6645 -0.8996  3.7421
  898MOL0     H21217   7.955   2.673   7.293 -2.7100 -2.1289  1.6181
  898MOL0     H21218   8.167   2.710   7.280  0.1847  0.3040  1.8445
  898MOL0     H21219   8.284   2.828   7.254  0.2259 -1.9902  3.2813
  898MOL0     H21220   8.060   2.771   7.042 -3.0588  5.3393  1.2648
  898MOL0     H21221   8.228   2.759   7.020 -0.0546 -1.4328  3.0753
  898MOL0     H21222   8.066   3.007   7.049 -1.6453 -1.3008 -0.4586
  898MOL0     H21223   8.148   2.958   6.910  0.4204  0.0913  0.0650
  898MOL0     H21224   8.370   2.968   7.021  2.0906  1.3206  2.0361
  898MOL0     H21225   8.287   3.109   6.954 -1.4521 -1.3063 -1.1687
  898MOL0     H21226   8.389   3.189   7.357 -1.5534  1.4903 -0.6165
  898MOL0     H21227   7.925   3.090   7.310  1.2307 -0.2131  1.8419
  898MOL0     H21228   7.592   3.133   7.292 -0.0454 -4.1189 -0.9322
  898MOL0     H21229   7.623   3.124   7.464 -0.5180  0.1389 -0.0410
  898MOL0     H21230   7.745   3.202   7.357  3.3311 -1.7648 -1.3770
  899MOL0     O21231   5.081   8.383   6.592  0.0449 -0.1428 -0.1636
  899MOL0     C21232   5.031   8.477   6.527 -0.9213  0.4442  0.2217
  899MOL0     O21233   5.077   8.602   6.537  0.0170  0.2876 -1.1103
  899MOL0     C21234   5.172   8.645   6.633 -0.0529 -0.1410  0.2262
  899MOL0     C21235   5.141   8.761   6.699  0.2112 -0.0107 -0.8962
  899MOL0     C21236   5.236   8.814   6.794  0.2277 -0.9513  0.0642
  899MOL0     C21237   5.361   8.753   6.817 -0.2030 -0.1595  0.6786
  899MOL0     O21238   5.446   8.827   6.895  0.4348 -0.3980 -0.3320
  899MOL0     C21239   5.519   8.747   6.995  0.3036 -0.3421  0.5253
  899MOL0     C21240   5.669   8.748   6.958  0.0341 -0.1014 -0.2224
  899MOL0     C21241   5.733   8.887   6.957 -0.0753 -0.9665 -0.4798
  899MOL0     C21242   5.728   8.956   7.099 -0.3884 -0.2909  0.4296
  899MOL0     C21243   5.780   9.107   7.088 -0.7676  0.3444  0.4631
  899MOL0     C21244   5.668   9.207   7.102 -0.1763  0.3078 -0.5427
  899MOL0     C21245   5.627   9.223   7.245  0.4985  0.8964  0.4609
  899MOL0     C21246   5.557   9.354   7.270  0.5078 -0.8534 -0.5512
  899MOL0     N21247   5.570   9.372   7.421  0.2518 -0.4349  0.1138
  899MOL0     C21248   5.555   9.279   7.519  0.3744 -0.3805  0.7420
  899MOL0     C21249   5.551   9.345   7.639  0.1519 -0.2017  0.1279
  899MOL0     C21250   5.553   9.291   7.773  0.0044 -0.1356  0.5333
  899MOL0     C21251   5.424   9.225   7.822 -0.8107 -0.1565  0.0406
  899MOL0     C21252   5.442   9.139   7.941  0.4532  0.9016 -0.5491
  899MOL0     C21253   5.317   9.050   7.978 -0.3767  0.4079 -0.1090
  899MOL0     O21254   5.200   9.107   8.031 -0.4441  0.9256 -1.1253
  899MOL0     C21255   5.186   9.085   8.162 -1.1177  0.5674  0.0060
  899MOL0     C21256   5.185   8.958   8.225  0.3150 -0.5898  0.8514
  899MOL0     C21257   5.159   8.954   8.361 -0.6736 -0.2363  0.6566
  899MOL0     C21258   5.119   9.069   8.437 -0.5332  0.7606  0.2048
  899MOL0     C21259   5.095   9.057   8.578  0.9026 -0.5450 -0.4407
  899MOL0     O21260   5.150   8.945   8.634 -1.1307 -0.4054  0.4132
  899MOL0     C21261   5.125   8.917   8.764 -0.1594 -0.7804  0.4933
  899MOL0     C21262   5.224   8.924   8.865 -0.6797  0.0187  1.1796
  899MOL0     C21263   5.185   8.905   8.995 -1.4049  0.4538  0.2007
  899MOL0     C21264   5.053   8.857   9.024  0.4118 -1.0865 -0.5422
  899MOL0     O21265   5.014   8.841   9.151 -0.0749 -0.2746  0.0267
  899MOL0     C21266   5.061   8.713   9.209  0.1763 -0.2567  0.8385
  899MOL0     C21267   4.970   8.666   9.329 -1.0731  0.3072  0.3535
  899MOL0     C21268   4.981   8.749   9.449 -0.2203 -0.1786  0.1536
  899MOL0     C21269   4.861   8.732   9.539  0.3112 -0.7849 -0.7724
  899MOL0     C21270   4.908   8.762   9.686 -0.9764  0.0035  0.4518
  899MOL0     C21271   4.818   8.705   9.793 -0.3150  0.0111 -0.4906
  899MOL0     C21272   4.872   8.708   9.945 -0.0043  0.1675  0.5020
  899MOL0     C21273   5.016   8.647   9.980  0.4364 -0.6248 -0.3465
  899MOL0    Cl21274   5.031   8.643  10.166  0.5081 -0.0591  0.0508
  899MOL0     C21275   4.970   8.824   8.925  0.1292  1.1545  0.3946
  899MOL0     C21276   4.996   8.848   8.790  0.0380  0.1578 -0.2425
  899MOL0     O21277   5.053   9.149   8.648 -0.1912  0.4260 -0.2825
  899MOL0     C21278   5.133   9.193   8.371 -0.4345  0.5813  0.3295
  899MOL0     C21279   5.161   9.203   8.238  0.0914 -0.2592  0.7466
  899MOL0     N21280   5.545   9.483   7.617 -0.2152 -0.0665 -0.8353
  899MOL0     N21281   5.554   9.497   7.486 -0.5895 -0.1062 -1.5021
  899MOL0     C21282   5.394   8.631   6.756  0.0307  0.4467  0.7160
  899MOL0     C21283   5.295   8.587   6.664  0.5373  0.0225  0.1385
  899MOL0     C21284   4.947   8.437   6.419 -0.5033  0.6643 -0.4402
  899MOL0     C21285   4.922   8.546   6.331  0.2060  0.8569 -0.0144
  899MOL0     C21286   4.845   8.526   6.216 -0.2204 -0.3571 -0.3051
  899MOL0     C21287   4.789   8.396   6.187  0.0014  0.5758 -0.3525
  899MOL0     O21288   4.697   8.374   6.083  0.3955  0.7506  0.6211
  899MOL0     C21289   4.735   8.405   5.945 -0.9324  0.4281 -0.1099
  899MOL0     C21290   4.690   8.542   5.897  0.4460  0.3351 -0.4344
  899MOL0     C21291   4.662   8.553   5.745 -0.5743  0.8070  0.3677
  899MOL0     C21292   4.782   8.503   5.664  0.2821  0.2117  0.3331
  899MOL0     C21293   4.899   8.599   5.677 -0.3209 -0.3892 -0.8137
  899MOL0     C21294   4.985   8.679   5.694 -0.4714 -0.1491 -0.2419
  899MOL0     C21295   4.804   8.298   6.282  0.3801  0.1292 -0.8408
  899MOL0     C21296   4.892   8.311   6.392  0.7286  0.1699  0.2139
  899MOL0     C21297   4.901   8.196   6.483 -0.4033  0.3540  0.6990
  899MOL0     H21298   5.045   8.794   6.658 -1.8108 -3.6530  0.3876
  899MOL0     H21299   5.206   8.907   6.840  2.1416 -0.7444  1.0005
  899MOL0     H21300   5.511   8.790   7.095 -0.7775  2.8432 -0.7981
  899MOL0     H21301   5.498   8.640   6.997 -1.1776 -0.0831  0.1004
  899MOL0     H21302   5.677   8.706   6.858  0.3829  1.0720 -0.6977
  899MOL0     H21303   5.731   8.686   7.024  1.2618  0.9510 -0.3505
  899MOL0     H21304   5.683   8.946   6.880 -1.6270  0.4817  1.5329
  899MOL0     H21305   5.836   8.870   6.923  0.3827 -1.7687  1.1794
  899MOL0     H21306   5.625   8.965   7.135  0.4212  0.7420  2.6655
  899MOL0     H21307   5.794   8.895   7.162 -0.0202 -2.9663 -2.2883
  899MOL0     H21308   5.842   9.125   7.176 -0.7379  3.0434 -0.0247
  899MOL0     H21309   5.842   9.121   6.999 -1.2240 -0.6129 -0.0182
  899MOL0     H21310   5.696   9.307   7.067 -0.1014  0.7229  0.6463
  899MOL0     H21311   5.583   9.170   7.044 -0.5521  0.0074  0.1903
  899MOL0     H21312   5.718   9.210   7.303  0.4158  0.3523  0.4764
  899MOL0     H21313   5.566   9.140   7.283  3.1352 -0.3191  2.3861
  899MOL0     H21314   5.608   9.443   7.231  0.3154 -1.0915 -1.3820
  899MOL0     H21315   5.453   9.342   7.238  0.3322  1.5092 -1.0823
  899MOL0     H21316   5.562   9.171   7.505 -1.3253 -0.1175 -4.0670
  899MOL0     H21317   5.640   9.226   7.784  0.2677  0.3197  1.1988
  899MOL0     H21318   5.584   9.377   7.832 -1.6547  0.5933  0.3879
  899MOL0     H21319   5.345   9.299   7.838 -0.1455  0.3476  1.0875
  899MOL0     H21320   5.377   9.168   7.742 -0.8179  1.8263 -1.4617
  899MOL0     H21321   5.457   9.201   8.029 -0.5892  0.9604 -0.4043
  899MOL0     H21322   5.532   9.077   7.936  0.7275  1.2078  0.4611
  899MOL0     H21323   5.355   8.979   8.053 -2.2443  0.1613  0.6593
  899MOL0     H21324   5.313   8.983   7.891  2.8378 -0.3581  0.1862
  899MOL0     H21325   5.201   8.865   8.171 -0.9201  0.1228 -0.8606
  899MOL0     H21326   5.157   8.853   8.401  0.8735 -1.6458 -2.4528
  899MOL0     H21327   5.323   8.957   8.836 -0.3208 -0.2519  2.0597
  899MOL0     H21328   5.273   8.919   9.058  0.1171 -1.7251 -1.2637
  899MOL0     H21329   5.065   8.635   9.132  2.4462  2.3627 -1.9657
  899MOL0     H21330   5.158   8.732   9.257  1.4231 -3.5773 -0.0267
  899MOL0     H21331   4.868   8.665   9.289 -1.1939  0.5594  0.6553
  899MOL0     H21332   4.997   8.563   9.351  0.8343  1.1888  2.4655
  899MOL0     H21333   5.079   8.744   9.497  0.1841  3.8179  0.1245
  899MOL0     H21334   4.981   8.847   9.401  3.0398 -1.0243 -1.8723
  899MOL0     H21335   4.819   8.631   9.533  2.3628 -1.8676  1.4901
  899MOL0     H21336   4.773   8.795   9.525  0.6584 -0.6250 -2.4890
  899MOL0     H21337   4.922   8.870   9.697 -0.7232  0.5265 -3.5131
  899MOL0     H21338   5.011   8.727   9.691 -0.6168 -0.2476 -4.3361
  899MOL0     H21339   4.721   8.756   9.793 -0.9620 -1.0501 -3.3573
  899MOL0     H21340   4.791   8.601   9.777 -2.9338  0.3475  1.0749
  899MOL0     H21341   4.797   8.653  10.002 -2.1603 -0.6348 -2.8013
  899MOL0     H21342   4.875   8.811   9.983 -3.4106 -0.2282  2.2291
  899MOL0     H21343   5.055   8.550   9.949  0.7857 -0.2454 -1.1288
  899MOL0     H21344   5.096   8.701   9.928  0.8970 -0.3752  0.5981
  899MOL0     H21345   4.877   8.776   8.954  0.0282  1.1499  0.0622
  899MOL0     H21346   4.924   8.811   8.718  0.9667 -1.3869 -0.4170
  899MOL0     H21347   5.110   9.286   8.421  0.0002 -0.0055  1.6930
  899MOL0     H21348   5.158   9.302   8.195  2.8476 -0.0264  0.9197
  899MOL0     H21349   5.489   8.580   6.765  0.4875  1.3659  1.1758
  899MOL0     H21350   5.313   8.502   6.600 -0.6160  2.6894 -4.1693
  899MOL0     H21351   4.956   8.647   6.351  0.6846  0.7001 -0.0166
  899MOL0     H21352   4.811   8.610   6.156 -1.5679  0.2380  1.2325
  899MOL0     H21353   4.678   8.333   5.884 -0.5335  1.0548 -1.2584
  899MOL0     H21354   4.837   8.377   5.917 -1.4908 -0.9951 -0.8584
  899MOL0     H21355   4.767   8.617   5.916  1.7279 -0.8449 -0.8002
  899MOL0     H21356   4.595   8.566   5.946  0.4714  2.5821 -1.3880
  899MOL0     H21357   4.645   8.657   5.715 -3.4031  0.0323 -1.0596
  899MOL0     H21358   4.569   8.503   5.717 -0.3288 -0.5354  1.7960
  899MOL0     H21359   4.825   8.405   5.687  2.5986  1.4888  1.8058
  899MOL0     H21360   4.743   8.505   5.561 -1.5515 -1.7501  0.9072
  899MOL0     H21361   5.062   8.752   5.715 -0.0950 -0.7644  0.5726
  899MOL0     H21362   4.752   8.204   6.267  1.4251 -0.9906  1.9766
  899MOL0     H21363   4.890   8.244   6.580  5.3139 -0.6173  2.1426
  899MOL0     H21364   4.835   8.112   6.457 -0.2398  0.2698  0.5575
  899MOL0     H21365   5.004   8.160   6.482 -0.8745 -1.0553  0.6186
  900MOL0     O21366  10.759   3.004   1.496  0.1805 -0.4624  0.1257
  900MOL0     C21367  10.692   3.101   1.526  0.1981 -0.1525 -1.8204
  900MOL0     O21368  10.562   3.088   1.566 -0.3702 -0.2754 -0.3394
  900MOL0     C21369  10.490   2.970   1.587 -0.3175 -0.1650  0.8708
  900MOL0     C21370  10.354   2.981   1.611  0.5912 -1.3125  0.9707
  900MOL0     C21371  10.266   2.871   1.630  0.2074  0.1236  0.0522
  900MOL0     C21372  10.335   2.742   1.617  0.1956  0.4308 -0.0523
  900MOL0     O21373  10.250   2.633   1.644 -0.3011 -1.3350  0.6230
  900MOL0     C21374  10.197   2.582   1.524  0.1276  0.2319  0.3662
  900MOL0     C21375  10.102   2.466   1.557  0.6917 -1.0191  0.4631
  900MOL0     C21376  10.169   2.367   1.644 -0.0336  0.9310 -0.5932
  900MOL0     C21377  10.294   2.307   1.588  0.8201  0.0824  0.2630
  900MOL0     C21378  10.240   2.174   1.528 -0.2678 -1.1969  0.2099
  900MOL0     C21379  10.357   2.121   1.448 -0.1712  0.2319 -0.8326
  900MOL0     C21380  10.348   2.177   1.305 -0.3871 -0.3953 -0.3880
  900MOL0     C21381  10.425   2.108   1.197  0.0300  0.9548 -0.6745
  900MOL0     N21382  10.345   2.100   1.076 -0.8666 -1.1012  0.0568
  900MOL0     C21383  10.325   1.978   1.012 -0.9287  0.7927 -0.1138
  900MOL0     C21384  10.239   2.003   0.910  0.7283 -0.7007 -0.3016
  900MOL0     C21385  10.198   1.895   0.814  0.3061 -0.3426  1.2015
  900MOL0     C21386  10.211   1.939   0.664  0.9689 -0.5047 -0.3735
  900MOL0     C21387  10.354   1.944   0.617  0.2407 -1.5933  0.3495
  900MOL0     C21388  10.355   1.901   0.465 -0.1798  0.3740  0.4862
  900MOL0     O21389  10.266   1.979   0.385  0.0583 -0.4064  0.6112
  900MOL0     C21390  10.292   2.104   0.349  0.1498  0.1994  0.5912
  900MOL0     C21391  10.209   2.162   0.253  0.4726  0.0849  0.6077
  900MOL0     C21392  10.236   2.294   0.192  1.0397  1.3444 -0.2646
  900MOL0     C21393  10.342   2.372   0.244  0.8616 -0.7342 -0.8978
  900MOL0     C21394  10.370   2.516   0.195 -0.5342  0.2319 -0.7936
  900MOL0     O21395  10.277   2.556   0.106  0.6125 -0.0068  0.3242
  900MOL0     C21396  10.287   2.684   0.058  0.9018 -0.1610  0.2548
  900MOL0     C21397  10.202   2.781   0.106  0.7664  0.8708  0.1098
  900MOL0     C21398  10.199   2.911   0.051 -0.2149  1.0637 -0.7512
  900MOL0     C21399  10.280   2.932  -0.057 -0.0824 -0.5386  0.3250
  900MOL0     O21400  10.289   3.055  -0.123 -0.1069  0.1428 -1.0235
  900MOL0     C21401  10.183   3.148  -0.111  0.2439  0.0354  0.2773
  900MOL0     C21402  10.069   3.109  -0.197 -0.0073  0.4528  0.6352
  900MOL0     C21403   9.937   3.155  -0.136 -1.0465  0.4878 -0.1945
  900MOL0     C21404   9.918   3.311  -0.118  0.2176  0.0554 -0.0562
  900MOL0     C21405   9.940   3.379  -0.247  0.7801  0.5911 -0.3202
  900MOL0     C21406   9.926   3.531  -0.239  0.1986  0.7233  0.4820
  900MOL0     C21407   9.934   3.582  -0.376  1.5333 -0.7617  0.2376
  900MOL0     C21408  10.069   3.613  -0.426  0.4656  0.7626  0.3498
  900MOL0    Cl21409  10.113   3.763  -0.339 -0.4348  0.1340  0.2594
  900MOL0     C21410  10.367   2.837  -0.106 -0.2443 -0.2861 -2.0520
  900MOL0     C21411  10.381   2.716  -0.039 -0.3825 -0.1978 -0.3957
  900MOL0     O21412  10.453   2.586   0.255 -0.3593 -0.0407 -0.1451
  900MOL0     C21413  10.424   2.305   0.342 -0.2289  0.1016  0.1356
  900MOL0     C21414  10.400   2.171   0.395 -0.3948  0.2040 -0.0473
  900MOL0     N21415  10.205   2.136   0.914 -0.1524  0.0197  0.1438
  900MOL0     N21416  10.266   2.193   1.015 -0.0988 -0.5736  0.0232
  900MOL0     C21417  10.471   2.731   1.598  0.5409 -0.4088  0.7949
  900MOL0     C21418  10.552   2.849   1.583  0.1204  0.0651  0.8168
  900MOL0     C21419  10.754   3.235   1.485 -0.4367  0.1833  0.7491
  900MOL0     C21420  10.668   3.353   1.465 -0.6789  0.3958  0.4454
  900MOL0     C21421  10.715   3.477   1.425 -0.0615 -0.7436 -0.2198
  900MOL0     C21422  10.852   3.494   1.403  0.3587 -0.8657  0.1043
  900MOL0     O21423  10.896   3.612   1.357 -0.4576 -0.1792 -0.0521
  900MOL0     C21424  10.980   3.678   1.457  0.1585  0.7561  0.5319
  900MOL0     C21425  10.970   3.828   1.471  0.0124 -1.2109  1.0517
  900MOL0     C21426  10.829   3.875   1.482  0.0796 -0.8768  0.2614
  900MOL0     C21427  10.814   4.027   1.505 -0.1292 -0.3570 -0.2817
  900MOL0     C21428  10.837   4.084   1.642  0.8669 -0.2938  0.0785
  900MOL0     C21429  10.835   4.136   1.753 -0.8856  0.4948  0.8511
  900MOL0     C21430  10.936   3.390   1.431 -1.3031  0.6395  0.1262
  900MOL0     C21431  10.892   3.263   1.475  0.0918  0.6471 -0.5759
  900MOL0     C21432  11.000   3.156   1.499  0.9010 -0.0775 -0.0026
  900MOL0     H21433  10.308   3.078   1.629  0.6711 -1.0676 -0.0939
  900MOL0     H21434  10.165   2.870   1.669  0.2769  2.4392  0.4514
  900MOL0     H21435  10.129   2.655   1.480 -2.1935 -1.9689  0.0778
  900MOL0     H21436  10.278   2.553   1.456 -1.4203 -1.8219 -0.7032
  900MOL0     H21437  10.072   2.414   1.466  0.5922 -2.5169  1.3237
  900MOL0     H21438  10.012   2.502   1.607  1.5696 -1.9509  2.8684
  900MOL0     H21439  10.096   2.288   1.668 -1.2629  1.9830 -0.7365
  900MOL0     H21440  10.184   2.422   1.737 -0.0649 -0.3113  0.1620
  900MOL0     H21441  10.343   2.372   1.515 -0.7407 -0.6343 -1.5056
  900MOL0     H21442  10.373   2.287   1.661 -0.7749 -2.2461  1.4909
  900MOL0     H21443  10.211   2.110   1.612 -0.7828 -1.0581  0.1447
  900MOL0     H21444  10.146   2.187   1.474 -1.4738 -2.1465  1.9769
  900MOL0     H21445  10.447   2.146   1.506 -3.2064  2.0811  3.6211
  900MOL0     H21446  10.332   2.014   1.446  0.0167  0.1656  0.1599
  900MOL0     H21447  10.391   2.277   1.296  0.9242 -0.4552  3.2733
  900MOL0     H21448  10.245   2.183   1.270 -0.7683 -1.8142  0.3890
  900MOL0     H21449  10.514   2.168   1.176 -0.6095  2.0163 -0.3960
  900MOL0     H21450  10.455   2.007   1.229  0.8484  1.6171  0.7733
  900MOL0     H21451  10.356   1.874   1.024  0.0860  0.8311 -2.0615
  900MOL0     H21452  10.272   1.816   0.826  1.8950  0.9321  0.2049
  900MOL0     H21453  10.097   1.859   0.836 -0.3531  0.9613  0.4438
  900MOL0     H21454  10.158   1.862   0.607  1.4538 -1.8297  0.9003
  900MOL0     H21455  10.170   2.034   0.630  3.7450  0.2028 -1.9741
  900MOL0     H21456  10.416   1.874   0.675 -2.0660 -4.0594  0.0403
  900MOL0     H21457  10.393   2.042   0.645 -1.7069 -0.7181  0.1193
  900MOL0     H21458  10.322   1.797   0.460  4.7580 -1.4325 -2.4885
  900MOL0     H21459  10.462   1.901   0.442  0.1644  1.0933  1.9434
  900MOL0     H21460  10.126   2.101   0.218 -0.0128  1.7705 -1.3353
  900MOL0     H21461  10.162   2.331   0.122  0.1531 -0.9091 -0.5949
  900MOL0     H21462  10.142   2.758   0.193  1.2053 -1.5643 -0.1846
  900MOL0     H21463  10.124   2.981   0.089 -0.4726  1.1430 -1.3854
  900MOL0     H21464  10.153   3.162  -0.007 -0.8100  1.7926 -0.2144
  900MOL0     H21465  10.221   3.244  -0.146  0.9273 -0.3613 -0.0785
  900MOL0     H21466  10.093   3.145  -0.298  4.9165 -5.3704 -0.8418
  900MOL0     H21467  10.069   3.001  -0.212 -0.3673  0.7735 -2.2488
  900MOL0     H21468   9.857   3.115  -0.199 -0.6714  2.6624 -2.2071
  900MOL0     H21469   9.929   3.110  -0.036  0.7788  2.6808  1.0374
  900MOL0     H21470   9.991   3.343  -0.044 -3.2766  1.4303  3.1451
  900MOL0     H21471   9.822   3.347  -0.079  1.1715  3.0428 -0.2122
  900MOL0     H21472   9.860   3.348  -0.316 -3.0221 -0.8079  4.1498
  900MOL0     H21473  10.037   3.354  -0.292  1.5125 -1.1988  2.0346
  900MOL0     H21474   9.834   3.561  -0.187 -0.7001 -0.8105 -0.1560
  900MOL0     H21475  10.017   3.561  -0.187 -0.5571  2.6826  0.7733
  900MOL0     H21476   9.874   3.673  -0.385  1.5093 -0.9145 -1.8011
  900MOL0     H21477   9.884   3.513  -0.444  2.3629 -1.5785  0.4316
  900MOL0     H21478  10.145   3.535  -0.428  0.9019  1.1965 -0.9592
  900MOL0     H21479  10.063   3.632  -0.534  1.3004 -3.3685 -0.5699
  900MOL0     H21480  10.432   2.844  -0.193 -0.4012 -0.7895 -2.2138
  900MOL0     H21481  10.446   2.639  -0.079  0.5369 -0.1064  0.8580
  900MOL0     H21482  10.520   2.349   0.367  0.3056  0.4678 -2.3357
  900MOL0     H21483  10.471   2.126   0.463  2.5210  0.8735 -2.4414
  900MOL0     H21484  10.510   2.630   1.589 -2.0546 -1.3334 -1.4225
  900MOL0     H21485  10.654   2.816   1.566 -1.6591 -4.9768 -2.2641
  900MOL0     H21486  10.559   3.347   1.465 -0.6636 -0.1006 -0.3296
  900MOL0     H21487  10.653   3.557   1.387  0.1402 -0.8644 -0.8131
  900MOL0     H21488  11.083   3.666   1.423  0.5248  1.4724  1.3498
  900MOL0     H21489  10.967   3.639   1.559 -0.1012  0.3267  0.3366
  900MOL0     H21490  11.005   3.870   1.376 -2.5766  0.5775  0.7865
  900MOL0     H21491  11.022   3.869   1.558 -0.8245  0.4421  0.8211
  900MOL0     H21492  10.782   3.816   1.562  0.5737 -1.5032  0.0978
  900MOL0     H21493  10.778   3.862   1.386  1.2306 -1.6452 -0.2709
  900MOL0     H21494  10.886   4.087   1.449  0.4493 -0.7252  0.0586
  900MOL0     H21495  10.709   4.044   1.482 -1.0866 -1.8224  2.5654
  900MOL0     H21496  10.838   4.185   1.848  1.2273 -1.3621  1.8475
  900MOL0     H21497  11.044   3.402   1.432 -1.3210  0.8543 -0.3218
  900MOL0     H21498  11.016   3.103   1.404  0.3061 -2.7537  1.3133
  900MOL0     H21499  11.089   3.216   1.520 -0.4522  1.5619  1.2573
  900MOL0     H21500  10.982   3.089   1.583 -2.1297 -1.5636 -1.6339
  901MOL0     O21501   6.858   8.432   0.700  0.7316 -0.2302  0.3752
  901MOL0     C21502   6.858   8.419   0.817 -0.1947 -0.6975 -1.1080
  901MOL0     O21503   6.843   8.297   0.875 -0.0050 -0.2582  0.1998
  901MOL0     C21504   6.870   8.196   0.790  0.0263  1.3244  0.1243
  901MOL0     C21505   6.763   8.134   0.725  0.8007  1.3088  1.1704
  901MOL0     C21506   6.785   8.033   0.618 -0.1956  1.3511 -0.1172
  901MOL0     C21507   6.915   7.980   0.596 -0.0244  1.1551 -0.6080
  901MOL0     O21508   6.924   7.860   0.520  0.2098 -0.0159  0.8817
  901MOL0     C21509   7.060   7.798   0.501  0.5754 -0.0963 -0.0389
  901MOL0     C21510   7.150   7.862   0.388 -0.6613 -0.3796 -0.7796
  901MOL0     C21511   7.274   7.779   0.353 -0.3594  0.4924 -1.1173
  901MOL0     C21512   7.337   7.853   0.242 -0.1632 -0.2721 -0.0457
  901MOL0     C21513   7.462   7.782   0.181  0.0429  0.1078 -0.6485
  901MOL0     C21514   7.512   7.861   0.072 -0.4461 -0.1501 -0.7074
  901MOL0     C21515   7.636   7.790  -0.001  0.2411 -1.5706  0.2887
  901MOL0     C21516   7.683   7.877  -0.121  0.4222 -0.1683 -0.9041
  901MOL0     N21517   7.570   7.894  -0.207  0.3384 -0.0382  0.3568
  901MOL0     C21518   7.484   7.787  -0.253  0.1485 -0.2511 -0.3984
  901MOL0     C21519   7.386   7.852  -0.309 -0.1466 -0.4725  0.4340
  901MOL0     C21520   7.270   7.804  -0.385  0.2491  0.4905  0.4232
  901MOL0     C21521   7.258   7.837  -0.528 -0.0965  0.3241 -0.1946
  901MOL0     C21522   7.356   7.772  -0.626 -0.3699  0.2579  0.4051
  901MOL0     C21523   7.316   7.788  -0.782  0.5331 -1.1282  0.0465
  901MOL0     O21524   7.338   7.922  -0.830 -0.4482  0.2073 -0.2915
  901MOL0     C21525   7.264   7.948  -0.941 -0.0903  0.2568  0.2228
  901MOL0     C21526   7.183   8.065  -0.932  0.0909  0.2942 -0.3481
  901MOL0     C21527   7.091   8.100  -1.032 -0.6980  0.2968  0.3213
  901MOL0     C21528   7.075   8.017  -1.141 -0.2479 -0.1214  0.5288
  901MOL0     C21529   6.953   8.048  -1.220  0.3379  0.1486  0.8113
  901MOL0     O21530   6.917   8.176  -1.225  0.5281 -0.3155  1.3121
  901MOL0     C21531   6.803   8.204  -1.295 -0.6749 -0.2440  0.5794
  901MOL0     C21532   6.705   8.294  -1.243 -0.4990 -0.3170  0.0491
  901MOL0     C21533   6.586   8.327  -1.312  0.6869 -0.3472 -0.2437
  901MOL0     C21534   6.560   8.268  -1.429  1.6963 -0.9081  0.1025
  901MOL0     O21535   6.452   8.301  -1.502  0.7872 -0.0867  0.8264
  901MOL0     C21536   6.459   8.429  -1.573  0.3471 -0.9682 -0.2146
  901MOL0     C21537   6.558   8.431  -1.683  0.2523  0.4456  1.1743
  901MOL0     C21538   6.548   8.553  -1.775  0.0768 -0.9573  0.0054
  901MOL0     C21539   6.630   8.526  -1.898 -1.1574 -0.3757  0.8412
  901MOL0     C21540   6.673   8.658  -1.967  1.1997  1.0613  0.0519
  901MOL0     C21541   6.683   8.636  -2.122 -0.2747 -0.0904 -0.7248
  901MOL0     C21542   6.800   8.544  -2.155 -0.3093 -0.6212 -0.1743
  901MOL0     C21543   6.820   8.530  -2.305  0.2478 -0.2743 -0.0264
  901MOL0    Cl21544   6.942   8.395  -2.328  0.3126  0.1314 -0.0140
  901MOL0     C21545   6.652   8.192  -1.484 -0.0070  0.3060  0.2625
  901MOL0     C21546   6.773   8.167  -1.423 -0.0746 -0.0555 -0.2609
  901MOL0     O21547   6.886   7.956  -1.265 -0.3341  0.4392 -0.6714
  901MOL0     C21548   7.160   7.900  -1.165 -0.1873  0.4601 -0.9049
  901MOL0     C21549   7.249   7.866  -1.057  0.3461  0.5219  0.1455
  901MOL0     N21550   7.416   7.987  -0.307  0.3288  0.6171 -0.2421
  901MOL0     N21551   7.522   8.010  -0.233 -1.0615  0.0731  0.0299
  901MOL0     C21552   7.020   8.033   0.674 -0.1830 -0.1942 -0.7356
  901MOL0     C21553   7.002   8.144   0.767 -0.0482  0.9586 -0.2375
  901MOL0     C21554   6.851   8.535   0.919  1.2263 -0.0030  0.1602
  901MOL0     C21555   6.829   8.514   1.060  0.6620  0.2670 -0.9234
  901MOL0     C21556   6.825   8.621   1.144  0.9781 -0.5356  0.3546
  901MOL0     C21557   6.831   8.750   1.097 -0.5087 -0.4311 -0.1046
  901MOL0     O21558   6.840   8.872   1.163 -0.7526  0.0072 -0.1302
  901MOL0     C21559   6.809   8.885   1.300 -0.8948  0.9456  0.6398
  901MOL0     C21560   6.923   8.869   1.395  0.2173  0.3073 -0.4768
  901MOL0     C21561   6.879   8.799   1.523 -0.4799 -0.3239  0.1157
  901MOL0     C21562   6.997   8.756   1.610  0.4830  0.1351  0.1772
  901MOL0     C21563   7.006   8.607   1.616  0.5794  0.6697  0.3430
  901MOL0     C21564   6.999   8.488   1.631 -0.0265  1.0004 -0.5370
  901MOL0     C21565   6.853   8.772   0.962 -0.3145  0.1126  0.0010
  901MOL0     C21566   6.858   8.666   0.871 -0.6601 -0.2379  0.5437
  901MOL0     C21567   6.885   8.709   0.733  0.0724  0.0380  0.2796
  901MOL0     H21568   6.659   8.162   0.738  0.2448  0.4947 -1.1243
  901MOL0     H21569   6.695   7.984   0.583  2.0847 -1.6164 -2.3949
  901MOL0     H21570   7.120   7.800   0.593  1.8760  2.6362 -0.8440
  901MOL0     H21571   7.048   7.694   0.470 -1.5414  0.1285 -0.1692
  901MOL0     H21572   7.183   7.964   0.411 -5.0105  2.0549 -3.8159
  901MOL0     H21573   7.083   7.887   0.306  0.4892 -0.4873 -1.7720
  901MOL0     H21574   7.232   7.681   0.330 -1.6543  0.4870  0.9749
  901MOL0     H21575   7.343   7.762   0.437  0.0890 -5.2162 -2.2311
  901MOL0     H21576   7.261   7.879   0.167  1.7742  1.9623 -1.3795
  901MOL0     H21577   7.375   7.948   0.281 -1.8788  1.0863 -1.4931
  901MOL0     H21578   7.539   7.777   0.259  0.4736  0.6350 -1.0387
  901MOL0     H21579   7.439   7.678   0.155  3.7061 -1.5085  1.7861
  901MOL0     H21580   7.434   7.877  -0.003 -0.2033  0.8858 -0.7556
  901MOL0     H21581   7.552   7.948   0.125 -3.1000 -1.2070  3.5403
  901MOL0     H21582   7.626   7.685  -0.028  2.3271 -1.9551  0.8596
  901MOL0     H21583   7.718   7.779   0.070  0.7483 -2.6527 -0.4441
  901MOL0     H21584   7.711   7.980  -0.096 -0.0161 -0.1681 -0.4089
  901MOL0     H21585   7.761   7.825  -0.176  1.4423 -2.7252  2.6483
  901MOL0     H21586   7.503   7.680  -0.249  3.3147  0.0204 -3.3119
  901MOL0     H21587   7.285   7.696  -0.380 -0.3927  0.2606 -1.5900
  901MOL0     H21588   7.176   7.817  -0.330  0.5359 -2.1493  1.6909
  901MOL0     H21589   7.154   7.814  -0.553 -0.6854  2.2108  0.3413
  901MOL0     H21590   7.276   7.945  -0.533  0.6888  0.4546  3.0303
  901MOL0     H21591   7.370   7.665  -0.610 -0.3002 -0.3513 -2.8641
  901MOL0     H21592   7.449   7.830  -0.621  1.7199 -2.8843  0.4719
  901MOL0     H21593   7.212   7.757  -0.795  0.5858 -2.1032  1.6345
  901MOL0     H21594   7.376   7.727  -0.850  1.8052  0.4849 -0.3495
  901MOL0     H21595   7.207   8.133  -0.851 -0.0177 -1.4957  1.2802
  901MOL0     H21596   7.035   8.188  -1.000 -0.6146 -1.6312  7.4548
  901MOL0     H21597   6.738   8.335  -1.148 -0.2091 -1.5503  0.5083
  901MOL0     H21598   6.504   8.383  -1.268  2.4853  1.2475  1.2640
  901MOL0     H21599   6.358   8.461  -1.600  0.9408  0.8343 -0.4346
  901MOL0     H21600   6.483   8.506  -1.498  0.1618 -0.5109 -0.6148
  901MOL0     H21601   6.665   8.438  -1.659  1.1913 -0.3132 -2.1833
  901MOL0     H21602   6.545   8.341  -1.743  1.0085  2.1276 -1.7140
  901MOL0     H21603   6.446   8.587  -1.793  0.1169  0.6183  2.3266
  901MOL0     H21604   6.588   8.644  -1.727 -3.2587  0.2739  0.7493
  901MOL0     H21605   6.571   8.464  -1.967  0.6086 -1.2623  0.0757
  901MOL0     H21606   6.724   8.482  -1.863  1.3570  3.2406 -0.8083
  901MOL0     H21607   6.765   8.685  -1.914  3.1497 -0.9563 -2.0662
  901MOL0     H21608   6.591   8.725  -1.939 -4.9505 -5.3506  0.3204
  901MOL0     H21609   6.587   8.610  -2.169 -1.1814 -0.7019  1.3618
  901MOL0     H21610   6.705   8.732  -2.169  2.0976 -0.0456  0.3310
  901MOL0     H21611   6.774   8.443  -2.121  0.3580 -0.2982  1.3811
  901MOL0     H21612   6.894   8.580  -2.111  0.3227 -0.9229 -1.2466
  901MOL0     H21613   6.724   8.504  -2.351  0.3014 -0.0099 -0.2904
  901MOL0     H21614   6.861   8.621  -2.349  1.9219 -0.6108  0.7808
  901MOL0     H21615   6.645   8.163  -1.589 -3.8656  1.9016 -0.1111
  901MOL0     H21616   6.851   8.101  -1.460  3.5137  3.6893 -0.1543
  901MOL0     H21617   7.132   7.841  -1.251  0.5111 -0.8900 -0.2400
  901MOL0     H21618   7.305   7.773  -1.058 -1.1783 -0.4236  0.0857
  901MOL0     H21619   7.118   7.995   0.647 -1.3015 -3.7462 -0.3983
  901MOL0     H21620   7.091   8.176   0.820  0.1370  0.3353 -0.1639
  901MOL0     H21621   6.834   8.412   1.097 -1.3530 -0.7107 -3.0444
  901MOL0     H21622   6.811   8.604   1.251 -0.1150 -3.0809 -0.1038
  901MOL0     H21623   6.723   8.825   1.332 -1.6406  2.0627  0.7477
  901MOL0     H21624   6.770   8.985   1.320 -1.3140  0.4829  2.2595
  901MOL0     H21625   6.957   8.968   1.424 -1.7837  1.0831 -0.6298
  901MOL0     H21626   7.005   8.820   1.341 -1.0617 -0.7701 -1.5042
  901MOL0     H21627   6.813   8.712   1.509  0.0391 -0.7741  0.4692
  901MOL0     H21628   6.818   8.871   1.578  1.3979  1.0493  0.4953
  901MOL0     H21629   7.089   8.798   1.569 -0.5098  0.4736 -1.8294
  901MOL0     H21630   6.990   8.808   1.706  0.8205  0.0086  0.2738
  901MOL0     H21631   6.992   8.384   1.656 -0.5818  1.1166 -0.1848
  901MOL0     H21632   6.860   8.874   0.926 -0.5468  0.6423  1.3896
  901MOL0     H21633   6.902   8.817   0.721 -1.2155  0.6179  2.9203
  901MOL0     H21634   6.976   8.659   0.699  2.4680  0.3338  5.2905
  901MOL0     H21635   6.799   8.691   0.668 -2.3030  0.3892  3.1093
  902MOL0     O21636   4.742   4.129   2.501  0.1993 -0.0421  0.5257
  902MOL0     C21637   4.820   4.167   2.408  0.0517 -0.2274 -0.1391
  902MOL0     O21638   4.924   4.258   2.430  0.8848 -0.2625 -0.3396
  902MOL0     C21639   4.933   4.339   2.532  0.0320 -0.0644 -0.8233
  902MOL0     C21640   5.044   4.415   2.531  0.0216  0.0634  0.0042
  902MOL0     C21641   5.085   4.511   2.630  1.1927 -0.1424  0.1500
  902MOL0     C21642   5.000   4.529   2.732 -0.7259 -0.0702 -0.1747
  902MOL0     O21643   5.023   4.633   2.817  0.1823 -0.1525  0.4935
  902MOL0     C21644   5.154   4.668   2.865  0.2495  0.8986  1.1543
  902MOL0     C21645   5.142   4.787   2.963 -0.0015  0.1191 -0.3865
  902MOL0     C21646   5.115   4.752   3.111 -0.1276 -0.2548  0.2059
  902MOL0     C21647   5.037   4.858   3.179 -0.0159  0.2936  0.2035
  902MOL0     C21648   5.041   4.815   3.331  0.1327 -0.5474  0.2664
  902MOL0     C21649   5.107   4.891   3.444  0.0633  0.4984  0.1403
  902MOL0     C21650   5.059   5.040   3.464 -0.0608  0.3912 -0.3520
  902MOL0     C21651   5.123   5.101   3.596 -0.4908 -0.3221  0.7381
  902MOL0     N21652   5.118   5.005   3.707  0.1425 -0.0902 -1.5537
  902MOL0     C21653   5.004   4.933   3.760 -0.7113 -0.9252 -0.1523
  902MOL0     C21654   5.068   4.855   3.864  0.0420 -0.2358 -0.4041
  902MOL0     C21655   5.007   4.755   3.964 -0.3517  0.2629  0.1810
  902MOL0     C21656   4.886   4.676   3.895 -1.1892  0.2017 -0.3149
  902MOL0     C21657   4.947   4.568   3.801  0.2581 -0.1933  0.3712
  902MOL0     C21658   4.860   4.443   3.787  0.3459  0.1835 -0.2172
  902MOL0     O21659   4.912   4.367   3.678  0.7897 -1.0262  0.0486
  902MOL0     C21660   4.853   4.258   3.640  0.7492  1.4589 -0.0044
  902MOL0     C21661   4.902   4.175   3.540 -1.0922 -0.2339  0.2061
  902MOL0     C21662   4.837   4.064   3.489  0.9759  0.6703 -0.3665
  902MOL0     C21663   4.716   4.024   3.540  0.7307  0.5712 -0.1862
  902MOL0     C21664   4.643   3.900   3.497 -0.1666  0.2190 -0.4400
  902MOL0     O21665   4.533   3.860   3.575  0.0405 -0.2005  0.4175
  902MOL0     C21666   4.471   3.751   3.519  0.4902  0.1354  0.0941
  902MOL0     C21667   4.362   3.768   3.434 -0.3202 -0.5344  0.2258
  902MOL0     C21668   4.279   3.654   3.407  0.3383  0.5044 -0.1229
  902MOL0     C21669   4.309   3.523   3.461 -0.3615 -0.3737  1.2832
  902MOL0     O21670   4.232   3.407   3.447  0.5474 -0.7075 -0.4770
  902MOL0     C21671   4.087   3.424   3.454  0.5934 -0.3452 -0.1815
  902MOL0     C21672   4.031   3.290   3.509  0.0637 -0.0721 -0.0507
  902MOL0     C21673   3.886   3.271   3.524  0.3907 -0.3394  0.6859
  902MOL0     C21674   3.817   3.222   3.400 -1.0336  0.3974  0.5353
  902MOL0     C21675   3.744   3.094   3.428 -0.6799  0.1245  0.4350
  902MOL0     C21676   3.639   3.063   3.325  0.0398  0.5132  0.0942
  902MOL0     C21677   3.589   2.916   3.362  0.3961 -0.6244 -0.3875
  902MOL0     C21678   3.473   2.871   3.261  0.8027 -0.4839 -0.5707
  902MOL0    Cl21679   3.331   2.981   3.287  0.4510 -0.2932  0.1696
  902MOL0     C21680   4.430   3.514   3.527  0.1015  0.2044  0.0152
  902MOL0     C21681   4.510   3.624   3.569  0.9362 -0.6597 -0.0911
  902MOL0     O21682   4.693   3.843   3.399  0.0808 -0.0536 -0.1396
  902MOL0     C21683   4.662   4.108   3.646 -1.0496  0.3300  0.3209
  902MOL0     C21684   4.723   4.218   3.680  0.4878  0.0166  0.3865
  902MOL0     N21685   5.200   4.885   3.880 -0.1929 -0.0917 -0.5623
  902MOL0     N21686   5.227   4.958   3.776 -0.1125 -0.9622 -0.5850
  902MOL0     C21687   4.884   4.462   2.739 -0.1107  0.2725 -0.4682
  902MOL0     C21688   4.848   4.364   2.640  0.1713  0.0440  0.4452
  902MOL0     C21689   4.802   4.090   2.279  0.2795 -0.8769  0.3896
  902MOL0     C21690   4.682   4.029   2.261 -0.1765  0.0254 -0.4080
  902MOL0     C21691   4.646   3.994   2.131  0.2157  0.0093  0.5943
  902MOL0     C21692   4.733   3.997   2.020  0.3908  0.2635 -1.5564
  902MOL0     O21693   4.694   3.958   1.903  0.3338  0.6708  0.7130
  902MOL0     C21694   4.768   3.998   1.776 -0.1182  0.3762  0.0831
  902MOL0     C21695   4.662   4.049   1.667 -0.4158  0.5869 -0.9432
  902MOL0     C21696   4.581   4.171   1.709  0.3712  0.1678  0.4096
  902MOL0     C21697   4.667   4.304   1.712 -0.3247  0.2085 -0.0320
  902MOL0     C21698   4.695   4.343   1.569 -0.3245  0.5256  0.1916
  902MOL0     C21699   4.717   4.363   1.450 -0.6658 -0.6458 -0.7106
  902MOL0     C21700   4.858   4.049   2.049  0.1037 -0.3572 -1.3246
  902MOL0     C21701   4.893   4.096   2.173 -0.7052  1.1145 -0.0555
  902MOL0     C21702   5.031   4.135   2.184 -0.2138  1.1274 -1.3388
  902MOL0     H21703   5.108   4.399   2.445  1.6277 -4.0402  1.7031
  902MOL0     H21704   5.170   4.576   2.610  2.3254  0.5164  5.6620
  902MOL0     H21705   5.199   4.590   2.927 -0.8209  1.5775  2.8484
  902MOL0     H21706   5.214   4.705   2.781 -1.7947  1.5552 -0.0947
  902MOL0     H21707   5.058   4.852   2.938 -1.2215  0.0752  2.9700
  902MOL0     H21708   5.238   4.839   2.956  0.1856  0.1453  1.6317
  902MOL0     H21709   5.212   4.749   3.162  1.0488  1.1044 -1.8102
  902MOL0     H21710   5.061   4.657   3.119  2.6683 -1.9701  0.4062
  902MOL0     H21711   5.077   4.959   3.165  0.1782 -0.1325 -3.0454
  902MOL0     H21712   4.940   4.849   3.129  0.1699  2.8776 -0.7847
  902MOL0     H21713   4.935   4.808   3.358 -0.2980 -2.5430 -1.6408
  902MOL0     H21714   5.079   4.712   3.323 -1.4387 -1.0703 -0.9974
  902MOL0     H21715   5.087   4.844   3.541  2.8670  0.8040  0.9534
  902MOL0     H21716   5.215   4.880   3.433 -0.1042 -1.0675 -0.1580
  902MOL0     H21717   4.952   5.039   3.484  0.5139 -0.5637  3.2464
  902MOL0     H21718   5.067   5.104   3.375  0.8462 -1.3855 -1.5992
  902MOL0     H21719   5.230   5.119   3.583 -1.1319  3.3507 -0.7387
  902MOL0     H21720   5.087   5.201   3.624  0.3321  0.6430 -1.4442
  902MOL0     H21721   4.905   4.922   3.715 -1.8732 -0.9763  2.2507
  902MOL0     H21722   5.082   4.684   3.999  1.0820  2.8938  2.9301
  902MOL0     H21723   4.984   4.809   4.056  2.2422  2.4312 -0.3197
  902MOL0     H21724   4.848   4.611   3.974  2.1590  1.2976  2.4782
  902MOL0     H21725   4.810   4.743   3.854  0.0808  4.5458  3.5259
  902MOL0     H21726   5.044   4.545   3.845  0.1555  0.1270  0.7728
  902MOL0     H21727   4.968   4.614   3.704  0.9976  1.5464  1.3157
  902MOL0     H21728   4.755   4.472   3.772  0.3281 -0.6695 -2.1489
  902MOL0     H21729   4.857   4.375   3.872 -1.5475  0.2465 -0.1873
  902MOL0     H21730   5.001   4.186   3.497 -1.1728  0.8009  0.2659
  902MOL0     H21731   4.884   4.010   3.408 -2.4133 -1.2945 -1.2179
  902MOL0     H21732   4.333   3.862   3.389 -0.1202 -0.6248 -0.0968
  902MOL0     H21733   4.185   3.666   3.353  0.1095  3.9401  0.7690
  902MOL0     H21734   4.053   3.502   3.524  2.2936  1.6310 -1.4525
  902MOL0     H21735   4.034   3.446   3.361 -1.7671 -3.7131  0.2031
  902MOL0     H21736   4.065   3.210   3.442 -0.9308 -2.1826  1.8374
  902MOL0     H21737   4.078   3.264   3.604  1.5601  3.9815  0.5013
  902MOL0     H21738   3.873   3.208   3.612 -0.8549 -2.0681 -0.6631
  902MOL0     H21739   3.856   3.371   3.557 -1.0133 -0.0508 -1.3163
  902MOL0     H21740   3.878   3.206   3.311 -1.1591 -3.5658  1.0209
  902MOL0     H21741   3.743   3.299   3.372  0.5009  1.8685  0.3487
  902MOL0     H21742   3.691   3.109   3.523 -2.0291  2.5719 -0.6404
  902MOL0     H21743   3.815   3.011   3.434 -1.0188 -0.0891  3.3840
  902MOL0     H21744   3.553   3.131   3.328 -1.4309 -1.2481 -0.6599
  902MOL0     H21745   3.676   3.063   3.222  0.4597 -1.0030  0.2213
  902MOL0     H21746   3.535   2.916   3.457 -0.1248 -2.8848 -0.6057
  902MOL0     H21747   3.668   2.841   3.372  2.2015  1.2661 -0.0977
  902MOL0     H21748   3.504   2.867   3.157  2.0556  2.5642 -0.4117
  902MOL0     H21749   3.432   2.775   3.295 -1.6416  0.7818  0.3520
  902MOL0     H21750   4.456   3.415   3.562 -1.1470  0.9869  3.6685
  902MOL0     H21751   4.598   3.625   3.633  0.8848  4.1067  0.2126
  902MOL0     H21752   4.569   4.076   3.691  0.9352 -4.2754  1.7655
  902MOL0     H21753   4.659   4.262   3.755  2.8459 -4.6399  5.9383
  902MOL0     H21754   4.827   4.475   2.830  0.2545 -0.9629 -0.0408
  902MOL0     H21755   4.760   4.305   2.662 -0.4102  0.7085 -0.0373
  902MOL0     H21756   4.604   4.022   2.336 -1.7302  1.5947 -1.7684
  902MOL0     H21757   4.548   3.952   2.111 -1.3350  1.9404  3.3949
  902MOL0     H21758   4.818   3.905   1.749 -0.7744  0.5356 -1.7731
  902MOL0     H21759   4.847   4.074   1.788  2.4910 -2.5216  4.3964
  902MOL0     H21760   4.580   3.979   1.650 -0.5953  0.4135  0.5277
  902MOL0     H21761   4.709   4.072   1.571  1.9865  2.1133  0.4933
  902MOL0     H21762   4.533   4.154   1.806 -0.7451  1.2388  0.0681
  902MOL0     H21763   4.503   4.193   1.636 -1.5293 -2.0638  1.6396
  902MOL0     H21764   4.622   4.384   1.771  1.8423  0.3805  1.5359
  902MOL0     H21765   4.749   4.284   1.782 -1.9427  0.1523  1.9411
  902MOL0     H21766   4.722   4.393   1.347 -2.3788  0.0283 -0.6275
  902MOL0     H21767   4.929   4.038   1.968 -1.5303 -1.4286 -2.7152
  902MOL0     H21768   5.037   4.239   2.152 -1.4353  1.4271 -0.6766
  902MOL0     H21769   5.067   4.129   2.287 -2.9081  0.1899 -0.3611
  902MOL0     H21770   5.095   4.074   2.119  1.6687  0.2907  1.1518
  903MOL0     O21771  11.163   3.115   6.879 -0.3653  0.1659  0.0937
  903MOL0     C21772  11.250   3.174   6.946  0.5451  0.7171  0.4565
  903MOL0     O21773  11.222   3.247   7.062 -0.4463  0.4374 -0.0652
  903MOL0     C21774  11.089   3.244   7.104 -0.4569  0.1914 -0.1759
  903MOL0     C21775  11.024   3.125   7.146 -0.4706 -0.0268  0.3226
  903MOL0     C21776  10.891   3.133   7.171 -0.5826 -0.5039  0.1124
  903MOL0     C21777  10.825   3.260   7.180 -0.2687  0.9458  0.1238
  903MOL0     O21778  10.687   3.249   7.204 -0.1542 -0.6714  0.1329
  903MOL0     C21779  10.600   3.327   7.117  0.0870  0.3561  0.9330
  903MOL0     C21780  10.606   3.265   6.974  0.8502  1.2558  0.1849
  903MOL0     C21781  10.494   3.313   6.885  0.3201  0.6868 -0.0586
  903MOL0     C21782  10.346   3.289   6.940 -0.4608  0.4782 -0.5426
  903MOL0     C21783  10.244   3.328   6.842  0.2956 -0.2063  0.6881
  903MOL0     C21784  10.127   3.400   6.903 -0.2466 -0.7213  0.2057
  903MOL0     C21785  10.010   3.389   6.811  0.0294 -0.4817 -0.0215
  903MOL0     C21786   9.936   3.527   6.814  1.0793 -0.0745  0.1029
  903MOL0     N21787   9.999   3.609   6.706 -0.3515  0.0470 -0.4682
  903MOL0     C21788   9.920   3.648   6.604  0.3271  0.3057  0.8684
  903MOL0     C21789  10.003   3.718   6.523  0.0143  0.2491  0.3891
  903MOL0     C21790   9.972   3.750   6.378  0.0381 -0.4094 -0.1087
  903MOL0     C21791   9.883   3.876   6.365  0.0623 -0.0128  0.3702
  903MOL0     C21792   9.953   4.008   6.410 -0.6525  0.8453 -0.5346
  903MOL0     C21793   9.863   4.131   6.395 -0.5196 -0.2493 -0.3577
  903MOL0     O21794   9.743   4.113   6.475  0.4047 -0.9698  0.0092
  903MOL0     C21795   9.664   4.226   6.488  0.5091 -0.1668 -0.5561
  903MOL0     C21796   9.679   4.351   6.423 -0.7921 -0.0839 -0.9229
  903MOL0     C21797   9.600   4.458   6.450 -0.6676 -0.0299 -0.4368
  903MOL0     C21798   9.496   4.449   6.540 -0.4649  1.0293 -0.3343
  903MOL0     C21799   9.405   4.565   6.554 -0.8630 -0.1499  0.0754
  903MOL0     O21800   9.306   4.545   6.642  0.0337 -0.2900 -0.2331
  903MOL0     C21801   9.194   4.617   6.634  0.2996  1.0802 -1.0531
  903MOL0     C21802   9.121   4.628   6.511 -0.4775 -0.3992  0.8693
  903MOL0     C21803   8.998   4.693   6.507  0.8260 -0.0868  0.3433
  903MOL0     C21804   8.941   4.747   6.627  0.2231 -0.8553  0.4923
  903MOL0     O21805   8.832   4.835   6.624 -0.5807  0.0821 -0.0691
  903MOL0     C21806   8.738   4.801   6.717 -0.3769  0.3049 -0.7409
  903MOL0     C21807   8.665   4.670   6.670  0.0658 -0.3527  0.0896
  903MOL0     C21808   8.520   4.665   6.723  0.4935 -1.0164  0.8156
  903MOL0     C21809   8.437   4.545   6.691  0.2827 -0.4957 -0.5846
  903MOL0     C21810   8.294   4.546   6.752 -0.7674  0.5456 -0.1199
  903MOL0     C21811   8.198   4.629   6.661 -0.1686 -0.5120 -0.8092
  903MOL0     C21812   8.145   4.571   6.533 -0.6130 -0.7580 -0.6999
  903MOL0     C21813   8.002   4.609   6.511 -0.6106  0.3974 -0.6169
  903MOL0    Cl21814   7.897   4.537   6.635 -0.1109  0.2498 -0.5220
  903MOL0     C21815   9.014   4.732   6.745  0.0911 -0.8046 -0.0999
  903MOL0     C21816   9.140   4.673   6.751  0.1870 -0.5996  0.6831
  903MOL0     O21817   9.423   4.674   6.503 -0.2757  0.8096  0.3562
  903MOL0     C21818   9.472   4.323   6.610 -0.3983 -1.1582  0.4721
  903MOL0     C21819   9.555   4.214   6.582  0.3961  0.0505 -0.1959
  903MOL0     N21820  10.130   3.733   6.588  1.2096 -0.2759  0.1700
  903MOL0     N21821  10.120   3.663   6.694  0.0061  0.5827  0.5013
  903MOL0     C21822  10.898   3.377   7.158 -0.5644  0.3109  0.0445
  903MOL0     C21823  11.024   3.360   7.108  0.4855  0.1922 -1.1894
  903MOL0     C21824  11.374   3.184   6.881 -0.5800 -1.7979  0.1244
  903MOL0     C21825  11.387   3.216   6.743  0.3033 -0.7179 -0.1584
  903MOL0     C21826  11.507   3.218   6.670 -0.1991 -0.6324 -0.8260
  903MOL0     C21827  11.625   3.198   6.740 -0.4781  0.0165 -0.2733
  903MOL0     O21828  11.746   3.188   6.676 -0.5703  0.2512 -0.5644
  903MOL0     C21829  11.781   3.295   6.583 -0.8898  0.1684 -0.2997
  903MOL0     C21830  11.812   3.422   6.648  0.5424 -0.0230  0.2312
  903MOL0     C21831  11.878   3.506   6.536 -0.2054  0.2767  0.0998
  903MOL0     C21832  11.905   3.652   6.584 -0.3864  0.9437 -0.0956
  903MOL0     C21833  11.974   3.719   6.472  0.1343 -0.6932  0.7374
  903MOL0     C21834  12.023   3.800   6.398 -0.4447 -0.8975 -0.6726
  903MOL0     C21835  11.618   3.146   6.872 -0.4848  0.1334 -0.8685
  903MOL0     C21836  11.497   3.146   6.945  0.2663  0.9067  0.5990
  903MOL0     C21837  11.494   3.097   7.085 -0.2418 -0.1306  0.7446
  903MOL0     H21838  11.085   3.036   7.131  1.5491  0.7629  3.1458
  903MOL0     H21839  10.834   3.041   7.184  1.6181 -2.5504 -3.1076
  903MOL0     H21840  10.495   3.339   7.145 -0.0342  0.5099  0.4143
  903MOL0     H21841  10.627   3.433   7.127  0.5196  0.3184  0.2142
  903MOL0     H21842  10.600   3.156   6.965 -0.2108  1.2837  0.4422
  903MOL0     H21843  10.704   3.289   6.932  1.5184  1.3042  1.7045
  903MOL0     H21844  10.500   3.266   6.787  0.5355 -0.3856  0.4500
  903MOL0     H21845  10.514   3.420   6.873  3.2266  0.4853  1.7704
  903MOL0     H21846  10.332   3.186   6.974 -0.2423  0.6047 -0.0557
  903MOL0     H21847  10.331   3.348   7.031  1.6825 -0.7777  0.7350
  903MOL0     H21848  10.278   3.397   6.765 -2.6439  0.2291 -0.3508
  903MOL0     H21849  10.212   3.238   6.788  0.0696  0.4246 -0.2466
  903MOL0     H21850  10.121   3.356   7.003  3.5324  0.6627  1.2395
  903MOL0     H21851  10.158   3.502   6.930  4.2596 -2.3933  2.4162
  903MOL0     H21852   9.944   3.317   6.858 -2.3953 -1.2375 -4.0706
  903MOL0     H21853  10.036   3.345   6.714 -1.9369 -3.8031  0.7952
  903MOL0     H21854   9.829   3.511   6.803  0.8977  0.1287  1.4241
  903MOL0     H21855   9.938   3.585   6.907 -2.1264 -1.1232  0.9442
  903MOL0     H21856   9.818   3.611   6.597  0.4311 -0.3154  2.2501
  903MOL0     H21857  10.053   3.768   6.307 -4.0324  0.8485 -5.0196
  903MOL0     H21858   9.918   3.664   6.338 -0.9693  0.6374 -1.0710
  903MOL0     H21859   9.854   3.901   6.263  2.9361 -1.0737 -0.7895
  903MOL0     H21860   9.797   3.856   6.431 -0.4078 -1.0784 -0.5411
  903MOL0     H21861  10.043   4.027   6.352 -0.1162 -2.0232 -0.7915
  903MOL0     H21862   9.964   4.001   6.519 -0.9574 -0.2154 -0.5521
  903MOL0     H21863   9.838   4.141   6.289 -0.1062 -0.4325 -0.4730
  903MOL0     H21864   9.925   4.215   6.428 -1.6332 -0.0243  1.3082
  903MOL0     H21865   9.754   4.368   6.346  0.8907  2.5952  1.1440
  903MOL0     H21866   9.618   4.556   6.408  1.2782 -1.4275 -3.1864
  903MOL0     H21867   9.151   4.574   6.421  0.2169  1.0103  0.2214
  903MOL0     H21868   8.951   4.698   6.409  0.6160 -0.8959  0.3953
  903MOL0     H21869   8.773   4.778   6.818  1.1532  0.7205 -1.1575
  903MOL0     H21870   8.659   4.876   6.705  1.0638  1.6842 -2.0117
  903MOL0     H21871   8.663   4.672   6.560  0.2905 -1.1625  0.0624
  903MOL0     H21872   8.718   4.577   6.692 -0.6345 -1.1214 -1.2791
  903MOL0     H21873   8.519   4.688   6.830 -0.4108  3.5948  0.0121
  903MOL0     H21874   8.479   4.757   6.680  2.5192 -0.5029 -0.1530
  903MOL0     H21875   8.485   4.455   6.729  1.0685  0.2005  0.1129
  903MOL0     H21876   8.435   4.526   6.583 -1.6525 -0.5367 -0.5804
  903MOL0     H21877   8.298   4.598   6.849  1.3932 -0.5172  0.4290
  903MOL0     H21878   8.255   4.446   6.773 -0.5605  0.4145 -0.3530
  903MOL0     H21879   8.113   4.653   6.724 -0.2595 -2.3317 -0.1963
  903MOL0     H21880   8.250   4.723   6.639 -2.4090  1.0045  0.0705
  903MOL0     H21881   8.152   4.462   6.545 -0.2608 -0.5711  1.1251
  903MOL0     H21882   8.223   4.598   6.462 -0.2038 -1.8082 -0.6652
  903MOL0     H21883   7.994   4.718   6.507 -0.3189  0.5079  0.9475
  903MOL0     H21884   7.962   4.567   6.418  0.3973  0.7853 -1.2446
  903MOL0     H21885   8.984   4.787   6.833 -0.2910  1.5136 -1.5870
  903MOL0     H21886   9.211   4.672   6.833 -1.0561  0.6525  1.8095
  903MOL0     H21887   9.406   4.317   6.696  0.1043 -0.2300  0.9351
  903MOL0     H21888   9.541   4.116   6.627  1.1768 -1.2533 -2.6448
  903MOL0     H21889  10.855   3.476   7.160 -1.4403 -0.0559  0.0738
  903MOL0     H21890  11.078   3.453   7.100 -2.9031  2.5906  1.1626
  903MOL0     H21891  11.294   3.248   6.699 -2.0329 -1.2099  3.9239
  903MOL0     H21892  11.501   3.254   6.568  1.5303 -0.4802 -0.9002
  903MOL0     H21893  11.716   3.319   6.499  1.8845 -0.8899 -2.9371
  903MOL0     H21894  11.875   3.258   6.540 -1.8650  0.4104 -2.7778
  903MOL0     H21895  11.877   3.407   6.735  1.0050 -1.3963 -0.3284
  903MOL0     H21896  11.723   3.474   6.685  1.5710  1.0123  1.3410
  903MOL0     H21897  11.819   3.511   6.444  0.8907 -0.6737 -0.6799
  903MOL0     H21898  11.971   3.458   6.507 -1.8397 -1.6010 -2.5169
  903MOL0     H21899  11.807   3.700   6.583  0.2369  2.2796 -1.2368
  903MOL0     H21900  11.950   3.661   6.683 -0.0893 -1.5955  0.0828
  903MOL0     H21901  12.085   3.853   6.329  2.1072 -1.4134  1.1170
  903MOL0     H21902  11.710   3.117   6.922 -0.7411  2.5634  1.2210
  903MOL0     H21903  11.426   3.161   7.142 -0.1808  0.0351  0.6321
  903MOL0     H21904  11.464   2.993   7.073  3.5109 -1.0968 -2.2027
  903MOL0     H21905  11.596   3.083   7.123  1.4245 -0.0043 -3.2076
  904MOL0     O21906  10.699  11.121  10.420 -0.0727  0.2410  1.1390
  904MOL0     C21907  10.795  11.138  10.349 -0.6881  0.3560  0.3583
  904MOL0     O21908  10.899  11.221  10.370  0.3692 -0.1749  0.2543
  904MOL0     C21909  10.914  11.272  10.496  0.8562 -0.1933 -0.3292
  904MOL0     C21910  11.041  11.288  10.537  0.5361  0.6512 -0.1648
  904MOL0     C21911  11.078  11.357  10.648 -0.1848  0.1058 -0.1792
  904MOL0     C21912  10.990  11.426  10.731 -0.3134 -0.1110  0.3016
  904MOL0     O21913  11.028  11.501  10.838  0.2384 -0.1068 -0.0766
  904MOL0     C21914  11.083  11.435  10.944 -0.4551  0.0917 -0.2193
  904MOL0     C21915  10.996  11.324  11.006 -0.0441  0.6111  0.5997
  904MOL0     C21916  11.054  11.298  11.146  0.6967  0.5568  0.5058
  904MOL0     C21917  11.210  11.259  11.168  0.5819 -0.3859  0.3844
  904MOL0     C21918  11.239  11.276  11.317  0.8357 -0.9870 -0.2775
  904MOL0     C21919  11.373  11.227  11.369 -0.8032  0.6892 -0.0617
  904MOL0     C21920  11.497  11.290  11.295 -0.1023  0.2269 -0.7192
  904MOL0     C21921  11.623  11.214  11.324  0.2137  0.0574  0.0128
  904MOL0     N21922  11.643  11.204  11.472 -0.1169 -0.5465  0.9639
  904MOL0     C21923  11.656  11.311  11.551  0.4447 -0.7648 -0.4070
  904MOL0     C21924  11.686  11.261  11.668 -0.6956  0.0971 -0.2375
  904MOL0     C21925  11.728  11.334  11.795  0.7236 -0.1069  0.3076
  904MOL0     C21926  11.887  11.318  11.818 -0.9913  1.0191 -0.4699
  904MOL0     C21927  11.942  11.382  11.950  0.0600 -0.1356 -0.3176
  904MOL0     C21928  11.923  11.535  11.970 -0.0837 -0.3991 -0.1502
  904MOL0     O21929  11.779  11.547  11.994  0.5837 -0.4086 -0.3110
  904MOL0     C21930  11.711  11.538  12.117 -0.5227  0.2278  0.1725
  904MOL0     C21931  11.768  11.497  12.241  0.7500 -0.5536  0.3578
  904MOL0     C21932  11.692  11.520  12.357 -0.0569  0.7863  0.9911
  904MOL0     C21933  11.562  11.554  12.354  0.6471  1.0571  0.1908
  904MOL0     C21934  11.493  11.578  12.484 -0.2342 -0.4754  0.5410
  904MOL0     O21935  11.542  11.497  12.583  0.9681 -0.4602 -0.1678
  904MOL0     C21936  11.513  11.524  12.722 -0.7780  1.0966 -0.2667
  904MOL0     C21937  11.499  11.651  12.777  0.5845 -0.0202 -0.0021
  904MOL0     C21938  11.504  11.678  12.913  0.4493  1.1163  0.0671
  904MOL0     C21939  11.501  11.560  12.999  0.1674  0.1107 -0.5433
  904MOL0     O21940  11.488  11.563  13.135 -0.7289 -1.0602  0.0555
  904MOL0     C21941  11.434  11.678  13.197  0.9832 -0.3717 -0.5699
  904MOL0     C21942  11.381  11.638  13.333 -0.1751  0.0242 -0.6320
  904MOL0     C21943  11.414  11.760  13.422 -0.0868  0.4766 -0.4624
  904MOL0     C21944  11.353  11.733  13.559 -0.1179  0.8002 -0.0212
  904MOL0     C21945  11.374  11.860  13.652  0.8302  0.1737  0.1549
  904MOL0     C21946  11.314  11.817  13.784 -0.4733  0.8464 -0.5602
  904MOL0     C21947  11.334  11.898  13.914  0.4824 -0.4743 -0.2259
  904MOL0     C21948  11.318  11.801  14.030 -0.3241  0.5716 -0.0659
  904MOL0    Cl21949  11.155  11.747  14.075 -0.0631 -0.0597 -0.3071
  904MOL0     C21950  11.527  11.434  12.951 -1.0705 -0.1586  0.2223
  904MOL0     C21951  11.530  11.414  12.812  0.1441 -0.0048 -0.0067
  904MOL0     O21952  11.395  11.653  12.489 -0.1304 -0.0234  0.1483
  904MOL0     C21953  11.496  11.570  12.231 -0.9173  0.3112 -0.8189
  904MOL0     C21954  11.570  11.564  12.111  0.0264 -1.2863 -0.1009
  904MOL0     N21955  11.687  11.121  11.665 -1.1482  0.4149 -0.3775
  904MOL0     N21956  11.653  11.088  11.539  0.0031  0.6472 -0.9679
  904MOL0     C21957  10.855  11.414  10.690  0.0265 -0.6274  0.6484
  904MOL0     C21958  10.819  11.344  10.569 -0.1991  0.4718  0.4103
  904MOL0     C21959  10.807  11.062  10.211 -0.3571 -0.2353  0.2873
  904MOL0     C21960  10.922  11.085  10.125  0.6579 -0.6412  0.0532
  904MOL0     C21961  10.933  11.022   9.999  0.2758  0.2604 -0.2462
  904MOL0     C21962  10.836  10.926   9.961 -0.4192  0.6582 -0.0343
  904MOL0     O21963  10.843  10.858   9.836 -0.1006 -0.4254  0.4880
  904MOL0     C21964  10.976  10.810   9.798 -0.6093  0.4129  0.3781
  904MOL0     C21965  10.967  10.719   9.671  0.2797 -0.9296 -1.2304
  904MOL0     C21966  10.954  10.578   9.710 -0.1131 -0.0872 -0.2090
  904MOL0     C21967  10.897  10.499   9.603 -0.2314  1.1991  0.1203
  904MOL0     C21968  10.891  10.359   9.645 -0.2423  0.0206 -0.1967
  904MOL0     C21969  10.893  10.245   9.675 -0.5596 -0.2802 -0.7540
  904MOL0     C21970  10.721  10.911  10.041 -1.4602 -0.1989 -0.2610
  904MOL0     C21971  10.703  10.973  10.169 -0.3417 -0.1473 -0.1998
  904MOL0     C21972  10.575  10.955  10.251  0.9064  0.3294  0.5443
  904MOL0     H21973  11.121  11.246  10.477 -0.1143 -1.5142  0.3921
  904MOL0     H21974  11.184  11.363  10.672 -0.4162 -0.0454  0.9483
  904MOL0     H21975  11.178  11.391  10.911  0.0186  1.9238 -1.4154
  904MOL0     H21976  11.110  11.509  11.019 -1.8115  0.4144 -0.0240
  904MOL0     H21977  10.993  11.234  10.945 -0.5555  1.3391 -0.4657
  904MOL0     H21978  10.903  11.382  11.011  1.6267  3.4504  1.2687
  904MOL0     H21979  11.005  11.210  11.189 -1.6443  1.8573  0.6501
  904MOL0     H21980  11.014  11.374  11.213  2.7887  0.9924  1.3214
  904MOL0     H21981  11.238  11.164  11.121  2.5581  0.0973  0.5178
  904MOL0     H21982  11.280  11.323  11.114  2.0139  0.7913  3.3999
  904MOL0     H21983  11.226  11.384  11.329 -2.7488 -1.4014  0.6272
  904MOL0     H21984  11.155  11.243  11.379 -0.5371  3.2818  0.4135
  904MOL0     H21985  11.385  11.264  11.471 -1.2841  0.5465  0.0462
  904MOL0     H21986  11.379  11.118  11.362  3.4834  0.8043 -1.3688
  904MOL0     H21987  11.507  11.396  11.322 -0.9859  0.1381 -0.0040
  904MOL0     H21988  11.480  11.290  11.187 -3.2506 -1.3695 -0.3215
  904MOL0     H21989  11.618  11.113  11.283 -0.6598 -0.3245  0.9950
  904MOL0     H21990  11.700  11.260  11.262  0.2697 -1.0834 -0.7981
  904MOL0     H21991  11.672  11.414  11.522 -0.0929 -1.4567 -3.5338
  904MOL0     H21992  11.688  11.435  11.786 -2.1002 -1.1378  0.2751
  904MOL0     H21993  11.680  11.287  11.882 -0.6912  1.4457  0.4134
  904MOL0     H21994  11.911  11.212  11.809  1.4653  1.6739 -3.5874
  904MOL0     H21995  11.939  11.359  11.730 -0.1559 -0.6536 -0.7971
  904MOL0     H21996  12.050  11.366  11.960 -0.0135  0.9014  3.5616
  904MOL0     H21997  11.892  11.324  12.028 -1.7902 -1.7780 -2.5683
  904MOL0     H21998  11.962  11.598  11.889  1.8442  0.2614  1.2184
  904MOL0     H21999  11.978  11.567  12.059  0.7889  3.0491 -1.7565
  904MOL0     H22000  11.871  11.464  12.239  0.4621 -1.5686 -2.6466
  904MOL0     H22001  11.757  11.511  12.443  0.9754  2.9038  0.5004
  904MOL0     H22002  11.509  11.739  12.715  1.9205  1.4118  2.1300
  904MOL0     H22003  11.498  11.781  12.944 -0.6097  1.1239 -0.1327
  904MOL0     H22004  11.504  11.761  13.204  0.0312  0.4517 -0.6898
  904MOL0     H22005  11.345  11.715  13.146  0.5170  1.3525  1.3864
  904MOL0     H22006  11.271  11.636  13.336 -0.4176  4.4706 -0.0756
  904MOL0     H22007  11.426  11.551  13.380  2.7974  0.6670 -2.0853
  904MOL0     H22008  11.521  11.776  13.436 -0.3929  1.9389  0.4580
  904MOL0     H22009  11.384  11.854  13.377  1.2411  0.9981 -0.3169
  904MOL0     H22010  11.389  11.638  13.600 -1.9908 -0.1899 -0.5763
  904MOL0     H22011  11.246  11.723  13.539  0.1495  0.6429 -1.4944
  904MOL0     H22012  11.313  11.946  13.624  1.4588 -0.6974 -4.8914
  904MOL0     H22013  11.479  11.892  13.653  1.2962 -1.2685  0.2134
  904MOL0     H22014  11.209  11.794  13.764  0.1154 -0.4191 -2.4483
  904MOL0     H22015  11.377  11.729  13.802 -2.4406 -0.1705  1.7774
  904MOL0     H22016  11.263  11.978  13.933  0.5287 -0.6903  0.9388
  904MOL0     H22017  11.433  11.945  13.909  1.2128 -2.0528 -1.8564
  904MOL0     H22018  11.376  11.709  14.023 -0.4741  0.0836  3.3380
  904MOL0     H22019  11.364  11.855  14.113 -0.3844  0.3169  0.1339
  904MOL0     H22020  11.550  11.357  13.025  0.0304  1.0101  1.1278
  904MOL0     H22021  11.542  11.311  12.781 -1.1870  0.7980 -3.7348
  904MOL0     H22022  11.391  11.597  12.226 -0.5581  2.2239  0.6607
  904MOL0     H22023  11.525  11.575  12.012  1.1352  1.6186 -0.3694
  904MOL0     H22024  10.773  11.468  10.736  1.3523  3.0939 -0.9912
  904MOL0     H22025  10.717  11.347  10.531 -1.3231  0.0893  3.1873
  904MOL0     H22026  11.003  11.148  10.160 -1.0745  1.1084  1.1010
  904MOL0     H22027  11.013  11.051   9.932 -0.3333  1.1407 -0.6092
  904MOL0     H22028  11.022  10.754   9.880 -3.4607 -1.8204  0.6091
  904MOL0     H22029  11.038  10.897   9.775  1.3555 -0.9621  0.2629
  904MOL0     H22030  11.064  10.740   9.626 -0.0244  0.4870 -1.2923
  904MOL0     H22031  10.882  10.751   9.609 -0.0528  1.1160  0.1696
  904MOL0     H22032  10.881  10.570   9.791 -0.3961 -0.4724 -0.4989
  904MOL0     H22033  11.050  10.547   9.754 -1.2889 -1.8018  1.2861
  904MOL0     H22034  10.795  10.537   9.593 -0.8416 -0.5160 -0.5675
  904MOL0     H22035  10.949  10.496   9.506  0.3304 -4.7686  0.2464
  904MOL0     H22036  10.900  10.138   9.686  5.0906 -0.2616 -1.0825
  904MOL0     H22037  10.656  10.829  10.015  0.3761 -2.4261  1.6766
  904MOL0     H22038  10.501  10.895  10.198  0.3662 -1.9900  3.6102
  904MOL0     H22039  10.598  10.898  10.342  1.4696  4.3550  3.2029
  904MOL0     H22040  10.528  11.052  10.271 -1.2924  0.1315 -2.7805
  905MOL0     O22041  10.381   8.565  11.458  0.4271  0.2299  0.0067
  905MOL0     C22042  10.419   8.484  11.539 -0.0652 -0.3304 -0.2670
  905MOL0     O22043  10.533   8.408  11.524 -0.2224 -0.7063 -0.4344
  905MOL0     C22044  10.653   8.468  11.504  0.5350 -0.1224  0.0485
  905MOL0     C22045  10.763   8.389  11.490  0.6961  0.6083  0.9400
  905MOL0     C22046  10.892   8.435  11.495  0.5410  0.4191  0.7026
  905MOL0     C22047  10.921   8.569  11.510 -0.2829  0.1313 -0.4439
  905MOL0     O22048  11.056   8.601  11.535 -0.2330 -0.1578  0.8482
  905MOL0     C22049  11.089   8.739  11.522 -1.0496  0.8618  1.1293
  905MOL0     C22050  11.087   8.797  11.378  0.3797 -0.1089 -0.4601
  905MOL0     C22051  11.163   8.717  11.273  1.1132 -0.0106  0.0887
  905MOL0     C22052  11.066   8.616  11.201 -0.4683 -0.2269  0.3494
  905MOL0     C22053  11.144   8.512  11.127 -0.3085 -0.4252  0.0095
  905MOL0     C22054  11.089   8.404  11.038  0.3039 -0.4018 -0.6418
  905MOL0     C22055  10.983   8.319  11.110 -1.0238  0.2084  0.8738
  905MOL0     C22056  10.914   8.207  11.025  0.6923 -0.0017 -0.5342
  905MOL0     N22057  10.818   8.125  11.109 -0.1672  0.0063 -0.4198
  905MOL0     C22058  10.698   8.166  11.163  0.3954  0.2678 -0.0072
  905MOL0     C22059  10.654   8.053  11.236 -0.8891 -0.2361  0.4324
  905MOL0     C22060  10.533   8.051  11.321  0.1827 -0.7564 -0.5856
  905MOL0     C22061  10.411   7.993  11.242  0.7013 -1.0134 -0.3933
  905MOL0     C22062  10.395   8.016  11.083 -0.5590 -0.1914  0.2501
  905MOL0     C22063  10.294   7.914  11.024  0.4274 -0.6566 -0.3689
  905MOL0     O22064  10.370   7.798  10.988  0.1717  0.0655 -0.2127
  905MOL0     C22065  10.291   7.689  10.958  0.3270 -0.7040  0.5333
  905MOL0     C22066  10.366   7.583  10.906 -0.6444 -0.0068 -0.6930
  905MOL0     C22067  10.305   7.456  10.882 -0.2003 -0.7312  0.5161
  905MOL0     C22068  10.179   7.417  10.939 -0.3612  0.8528  0.1888
  905MOL0     C22069  10.120   7.281  10.925  0.6414  0.8626  1.3386
  905MOL0     O22070   9.988   7.275  10.961 -0.1946 -0.3542 -0.6725
  905MOL0     C22071   9.919   7.153  10.950  0.0563 -0.1177  0.2736
  905MOL0     C22072   9.923   7.072  10.838  1.3214  0.2987 -0.0472
  905MOL0     C22073   9.832   6.967  10.831 -0.3570  0.5175 -0.8021
  905MOL0     C22074   9.753   6.930  10.937  0.0512 -0.0952 -0.4013
  905MOL0     O22075   9.672   6.825  10.923  0.6596  0.3355 -0.1427
  905MOL0     C22076   9.737   6.698  10.942 -0.5551  0.3038  0.3711
  905MOL0     C22077   9.659   6.612  11.042  0.5413  0.4081 -0.5877
  905MOL0     C22078   9.661   6.682  11.185  0.0779 -0.0057 -0.0084
  905MOL0     C22079   9.556   6.619  11.288 -0.1635 -0.0370 -0.1741
  905MOL0     C22080   9.565   6.689  11.430  0.0845  0.4302 -0.3169
  905MOL0     C22081   9.463   6.627  11.527 -0.3023  0.7473  0.5533
  905MOL0     C22082   9.503   6.486  11.583  0.2092  0.1140 -1.0476
  905MOL0     C22083   9.388   6.422  11.660  0.2449 -0.0009 -1.1682
  905MOL0    Cl22084   9.324   6.532  11.797  0.4469 -0.1261 -0.0840
  905MOL0     C22085   9.744   7.017  11.050 -0.1491  0.0140 -0.3901
  905MOL0     C22086   9.822   7.134  11.046 -0.2514  0.7032  0.1143
  905MOL0     O22087  10.188   7.193  10.871  0.1710 -0.6657 -0.1265
  905MOL0     C22088  10.102   7.526  10.988  0.1069 -0.6055  0.7997
  905MOL0     C22089  10.154   7.663  10.985 -0.5314 -0.0971 -0.2560
  905MOL0     N22090  10.751   7.956  11.233 -0.5248  0.0865  0.4489
  905MOL0     N22091  10.847   7.998  11.152 -0.4567 -0.3901 -0.2449
  905MOL0     C22092  10.811   8.654  11.511  0.5822  0.7920  0.5395
  905MOL0     C22093  10.675   8.607  11.513 -1.3398 -0.1514  0.9667
  905MOL0     C22094  10.319   8.459  11.655 -0.5184 -1.4370 -0.6675
  905MOL0     C22095  10.186   8.492  11.629 -1.2217 -0.1115 -0.5639
  905MOL0     C22096  10.083   8.477  11.724 -0.1048 -0.4866 -0.1060
  905MOL0     C22097  10.114   8.423  11.850 -0.3589 -0.5684 -0.1429
  905MOL0     O22098  10.048   8.399  11.961  0.6549 -0.0232  0.7017
  905MOL0     C22099   9.913   8.448  11.976  0.3153  0.8294  0.5839
  905MOL0     C22100   9.874   8.411  12.122  1.2317 -0.0401 -1.0905
  905MOL0     C22101   9.740   8.473  12.160  0.2221 -0.4867  0.1810
  905MOL0     C22102   9.701   8.432  12.307  0.2261 -1.2177  0.2114
  905MOL0     C22103   9.642   8.296  12.326 -0.0349  0.5405  0.1373
  905MOL0     C22104   9.577   8.185  12.347 -0.1287  0.3480  0.3569
  905MOL0     C22105  10.251   8.376  11.872 -1.1698 -1.3341  0.9304
  905MOL0     C22106  10.355   8.396  11.772 -0.2115 -0.6747 -0.5910
  905MOL0     C22107  10.505   8.358  11.791  0.1585 -0.1861  0.1084
  905MOL0     H22108  10.764   8.280  11.492  2.3998  0.5749 -0.0883
  905MOL0     H22109  10.972   8.362  11.495  2.9930  2.9032 -1.2548
  905MOL0     H22110  11.014   8.802  11.570 -1.8153 -0.9861  2.4875
  905MOL0     H22111  11.182   8.743  11.579  0.5634 -2.6171 -0.9143
  905MOL0     H22112  11.134   8.894  11.393 -0.3500  0.2147 -0.2348
  905MOL0     H22113  10.982   8.814  11.352  0.2844 -1.1915 -0.8338
  905MOL0     H22114  11.249   8.659  11.308 -0.0628 -2.3732 -0.7949
  905MOL0     H22115  11.197   8.783  11.193  2.1181 -3.5852 -2.6258
  905MOL0     H22116  10.996   8.560  11.264 -1.3043  0.4369  0.0354
  905MOL0     H22117  11.011   8.680  11.131  0.3558  2.3849  1.9174
  905MOL0     H22118  11.195   8.571  11.050 -2.3630  3.9866  1.7264
  905MOL0     H22119  11.221   8.472  11.194 -0.1983  1.0232  0.7905
  905MOL0     H22120  11.041   8.456  10.955 -0.8229  0.7249  0.6626
  905MOL0     H22121  11.171   8.345  10.996 -0.7604 -2.5218  0.0840
  905MOL0     H22122  10.905   8.383  11.153 -0.3878  1.6949 -0.0740
  905MOL0     H22123  11.040   8.272  11.191 -0.8160  0.7124  1.0291
  905MOL0     H22124  10.864   8.250  10.938 -0.7233  0.0479  0.2757
  905MOL0     H22125  10.986   8.140  10.979 -1.4696 -3.1804  0.3626
  905MOL0     H22126  10.647   8.261  11.150 -0.1783  0.5360  3.2301
  905MOL0     H22127  10.548   8.003  11.418 -2.4494  0.4641  0.5111
  905MOL0     H22128  10.500   8.153  11.344  1.3647 -0.9582  2.5167
  905MOL0     H22129  10.418   7.887  11.265  1.2798 -0.7953  0.4864
  905MOL0     H22130  10.320   8.036  11.284  1.3760  0.2057 -0.1159
  905MOL0     H22131  10.491   7.994  11.034 -0.1416 -1.4951  1.5678
  905MOL0     H22132  10.356   8.116  11.068  2.2248  1.2622  1.8275
  905MOL0     H22133  10.248   7.961  10.937  0.2393 -2.9294 -1.5680
  905MOL0     H22134  10.217   7.893  11.099  1.0991  1.3463  0.9933
  905MOL0     H22135  10.469   7.596  10.876 -0.4562  2.7629  0.8980
  905MOL0     H22136  10.355   7.381  10.822 -0.7018  0.3124 -1.3082
  905MOL0     H22137   9.983   7.090  10.749 -0.5654 -1.2241 -1.7320
  905MOL0     H22138   9.838   6.898  10.748  1.1132  0.4761 -0.6832
  905MOL0     H22139   9.737   6.632  10.854 -2.4866  0.0880  0.4855
  905MOL0     H22140   9.842   6.706  10.972 -0.3801 -1.1105  0.1852
  905MOL0     H22141   9.556   6.592  11.011  0.2597  0.9256 -0.0039
  905MOL0     H22142   9.712   6.517  11.048  0.5472  0.5219  3.1946
  905MOL0     H22143   9.763   6.693  11.222  1.4157 -3.7543 -2.0716
  905MOL0     H22144   9.619   6.782  11.167 -2.0299 -1.3786 -3.9740
  905MOL0     H22145   9.564   6.510  11.285  0.4271  0.0098 -0.4043
  905MOL0     H22146   9.452   6.639  11.262 -0.0804 -2.7363 -3.2484
  905MOL0     H22147   9.542   6.795  11.434 -1.0350  0.2513 -1.3415
  905MOL0     H22148   9.671   6.679  11.458  0.0844 -1.5171 -0.8627
  905MOL0     H22149   9.448   6.696  11.610 -3.1917 -0.5437  1.2179
  905MOL0     H22150   9.361   6.621  11.486  0.1292  0.4175 -0.5305
  905MOL0     H22151   9.582   6.497  11.658 -0.9320  0.2301  0.1760
  905MOL0     H22152   9.538   6.411  11.512  0.8140 -0.2277 -0.4068
  905MOL0     H22153   9.319   6.400  11.578  1.3198 -2.6119 -1.4392
  905MOL0     H22154   9.412   6.327  11.707  0.4712 -0.6981 -2.6575
  905MOL0     H22155   9.658   7.008  11.115 -0.5852 -0.5252 -1.0306
  905MOL0     H22156   9.810   7.209  11.124 -0.8189  1.0573 -0.3018
  905MOL0     H22157  10.004   7.498  11.026 -0.1093 -0.4049  0.3907
  905MOL0     H22158  10.101   7.747  11.029  0.9847  1.5507 -1.4752
  905MOL0     H22159  10.819   8.762  11.520 -0.3529  0.7639  2.0937
  905MOL0     H22160  10.599   8.685  11.517 -0.3983  0.8815 -0.3062
  905MOL0     H22161  10.140   8.531  11.539 -1.1098 -1.6115 -1.3178
  905MOL0     H22162   9.983   8.502  11.691  0.6772  0.4934 -1.8282
  905MOL0     H22163   9.852   8.401  11.898  0.6930  2.0724 -0.5086
  905MOL0     H22164   9.903   8.556  11.962  0.2333  0.8930  1.1111
  905MOL0     H22165   9.935   8.457  12.200 -1.8521 -1.9063  2.7739
  905MOL0     H22166   9.877   8.304  12.144  0.8744  0.0365 -0.6501
  905MOL0     H22167   9.652   8.455  12.098 -2.5589  0.8684  3.3910
  905MOL0     H22168   9.758   8.581  12.165  1.9939 -0.7906  1.9816
  905MOL0     H22169   9.784   8.435  12.378 -0.1027 -0.3985  0.5765
  905MOL0     H22170   9.635   8.508  12.351  1.3390 -0.5404  0.7430
  905MOL0     H22171   9.538   8.086  12.354  1.8676 -1.0300 -4.3499
  905MOL0     H22172  10.279   8.336  11.968 -0.1892  3.3543  2.8785
  905MOL0     H22173  10.574   8.442  11.776  0.3222 -0.4646 -0.7567
  905MOL0     H22174  10.510   8.321  11.893 -2.8154 -0.1170  0.3693
  905MOL0     H22175  10.533   8.276  11.724 -0.8659 -0.1158 -0.4210
  906MOL0     O22176   3.655  11.402   1.246 -0.0515  0.6772 -0.4701
  906MOL0     C22177   3.612  11.456   1.145  0.1947  0.8952  0.2100
  906MOL0     O22178   3.559  11.389   1.043  0.0348 -0.7313  0.1857
  906MOL0     C22179   3.490  11.270   1.064 -0.2805  0.8402  0.3805
  906MOL0     C22180   3.499  11.174   0.962 -0.3725  0.0588  0.0513
  906MOL0     C22181   3.420  11.067   0.955 -0.4043 -1.0081 -0.1519
  906MOL0     C22182   3.303  11.064   1.039 -0.4157  0.1406  0.0321
  906MOL0     O22183   3.210  10.958   1.037  0.3411 -0.3442 -1.0479
  906MOL0     C22184   3.236  10.839   0.972  0.1142 -0.2948 -0.6348
  906MOL0     C22185   3.346  10.762   1.050  0.7228 -0.4879  1.2101
  906MOL0     C22186   3.318  10.618   1.018  0.2193  0.8947 -0.4376
  906MOL0     C22187   3.225  10.551   1.113  0.9954 -0.9895  0.0558
  906MOL0     C22188   3.211  10.400   1.071 -0.2173 -0.0239 -0.5522
  906MOL0     C22189   3.330  10.309   1.115 -0.1166 -0.0460  0.3059
  906MOL0     C22190   3.278  10.161   1.109 -0.4413 -0.0479 -1.0293
  906MOL0     C22191   3.396  10.062   1.109 -0.3878 -0.6875  0.1692
  906MOL0     N22192   3.377   9.918   1.086 -0.2278 -0.8129  0.7983
  906MOL0     C22193   3.261   9.845   1.070  0.3890  0.7087  0.1707
  906MOL0     C22194   3.308   9.717   1.050 -0.8029 -0.0515 -0.4306
  906MOL0     C22195   3.235   9.594   1.023 -0.3179  0.5660  0.1525
  906MOL0     C22196   3.118   9.621   0.925 -0.2334 -0.0872  0.5907
  906MOL0     C22197   3.051   9.484   0.889 -0.4637  0.7358 -0.4788
  906MOL0     C22198   2.937   9.494   0.790 -0.1216 -0.1604  0.6051
  906MOL0     O22199   2.980   9.542   0.662 -0.3755  0.2322  0.2796
  906MOL0     C22200   2.911   9.508   0.552  0.1585 -0.3656  0.3807
  906MOL0     C22201   2.794   9.420   0.555 -0.2062  0.8494 -0.2632
  906MOL0     C22202   2.716   9.413   0.439 -0.0186 -0.3536  0.0410
  906MOL0     C22203   2.763   9.464   0.320 -0.1647  0.0765 -0.2846
  906MOL0     C22204   2.681   9.440   0.203  0.6484 -0.6010 -0.7584
  906MOL0     O22205   2.571   9.346   0.204 -0.9549 -0.7178  0.0039
  906MOL0     C22206   2.467   9.341   0.112  0.5725 -0.0020 -0.1684
  906MOL0     C22207   2.343   9.306   0.160  1.1082  0.1209  0.0316
  906MOL0     C22208   2.238   9.286   0.073  0.2972  0.6193  0.4777
  906MOL0     C22209   2.254   9.295  -0.071 -0.5852 -0.2625 -0.4352
  906MOL0     O22210   2.150   9.271  -0.154  0.0292  0.5749 -0.3681
  906MOL0     C22211   2.175   9.185  -0.264 -0.2595  1.0643 -0.5723
  906MOL0     C22212   2.085   9.059  -0.258  0.8616  0.9726 -0.5395
  906MOL0     C22213   2.122   8.962  -0.147  1.2452  0.0349  0.4853
  906MOL0     C22214   2.036   8.949  -0.024  0.5613 -0.2449 -0.7451
  906MOL0     C22215   2.090   8.831   0.061  0.0844 -0.7817  0.7557
  906MOL0     C22216   2.008   8.788   0.186  0.6276  0.0651  0.1005
  906MOL0     C22217   1.866   8.755   0.153  0.0896  0.2260  0.2241
  906MOL0     C22218   1.786   8.687   0.262 -0.4236  0.8434  0.8013
  906MOL0    Cl22219   1.711   8.827   0.343  0.2896 -0.2994 -0.0469
  906MOL0     C22220   2.385   9.320  -0.107  0.5408  1.0743  0.2250
  906MOL0     C22221   2.494   9.342  -0.021 -0.2755 -0.8455  0.5418
  906MOL0     O22222   2.709   9.521   0.113 -0.3961  0.2526 -0.4147
  906MOL0     C22223   2.889   9.535   0.315  0.3498 -0.6055 -0.2624
  906MOL0     C22224   2.960   9.555   0.428  0.4205  0.1472 -0.0982
  906MOL0     N22225   3.451   9.724   1.063 -0.1215  0.0966 -1.1335
  906MOL0     N22226   3.483   9.845   1.092 -1.1494  0.4603  0.1209
  906MOL0     C22227   3.296  11.154   1.147  0.7827  0.5700  0.1515
  906MOL0     C22228   3.385  11.256   1.153  0.1955 -0.9446 -0.0085
  906MOL0     C22229   3.666  11.593   1.120  0.8766  0.6602 -0.6302
  906MOL0     C22230   3.688  11.622   0.985  0.9357 -0.4131 -0.0980
  906MOL0     C22231   3.739  11.741   0.947 -0.0747 -0.2511 -0.4338
  906MOL0     C22232   3.766  11.842   1.038  0.0879  0.5489  0.1374
  906MOL0     O22233   3.810  11.967   0.997 -0.1045  0.8391  0.4912
  906MOL0     C22234   3.819  12.079   1.086 -0.2049  0.6451 -0.2264
  906MOL0     C22235   3.862  12.197   1.000 -0.0728 -0.6848 -0.4576
  906MOL0     C22236   3.941  12.315   1.078  0.7001  0.6175 -0.0515
  906MOL0     C22237   4.024  12.413   0.987  0.2239  0.4594 -0.1743
  906MOL0     C22238   3.938  12.487   0.901  0.5300  0.3541 -0.1657
  906MOL0     C22239   3.875  12.574   0.843  1.1647  0.4621 -0.9357
  906MOL0     C22240   3.733  11.816   1.174 -0.0595  0.0094  0.4711
  906MOL0     C22241   3.685  11.690   1.215 -0.8681  1.1677  0.8367
  906MOL0     C22242   3.658  11.678   1.355  0.0803 -0.2501 -0.9424
  906MOL0     H22243   3.570  11.197   0.884 -0.8662  0.3553 -0.3200
  906MOL0     H22244   3.450  10.996   0.879 -1.4448 -1.3265 -0.2776
  906MOL0     H22245   3.140  10.787   0.963 -0.4650  0.8444 -1.1872
  906MOL0     H22246   3.280  10.868   0.876  0.6455 -0.1060 -0.3395
  906MOL0     H22247   3.356  10.770   1.159 -0.2161  1.5614  1.1914
  906MOL0     H22248   3.440  10.790   1.002  1.3581 -2.3338  1.2934
  906MOL0     H22249   3.417  10.575   1.030 -0.8986 -1.4058  1.2762
  906MOL0     H22250   3.284  10.603   0.915 -0.2599 -1.0351 -0.0414
  906MOL0     H22251   3.250  10.575   1.217 -3.2505  2.2770  0.6245
  906MOL0     H22252   3.130  10.604   1.097  3.0604  2.2472 -3.0358
  906MOL0     H22253   3.129  10.378   1.139 -0.5130  1.4582 -0.3998
  906MOL0     H22254   3.185  10.375   0.968  2.4473  0.0823 -1.3173
  906MOL0     H22255   3.426  10.305   1.063  0.0271 -0.4679  0.5944
  906MOL0     H22256   3.350  10.335   1.220 -2.3952  3.3699  0.0572
  906MOL0     H22257   3.222  10.145   1.017  0.7293 -0.5281 -1.6805
  906MOL0     H22258   3.204  10.142   1.188 -1.1579  0.7032 -1.5022
  906MOL0     H22259   3.468  10.092   1.032 -0.3449  1.4089  0.9613
  906MOL0     H22260   3.447  10.075   1.205  0.5337  2.2270 -0.6188
  906MOL0     H22261   3.159   9.882   1.067  0.1341 -0.0319 -0.7542
  906MOL0     H22262   3.315   9.535   0.976 -1.8992 -0.4954 -1.3154
  906MOL0     H22263   3.192   9.543   1.109 -0.5173  1.9674  0.9050
  906MOL0     H22264   3.045   9.693   0.964  1.3811  0.6364  2.4699
  906MOL0     H22265   3.177   9.664   0.843 -0.3077 -1.1733 -0.0541
  906MOL0     H22266   3.010   9.434   0.977 -2.5178 -0.2288 -1.9098
  906MOL0     H22267   3.122   9.414   0.844 -0.8434 -0.2945  0.4939
  906MOL0     H22268   2.861   9.562   0.830 -0.7948  0.9319 -2.2764
  906MOL0     H22269   2.904   9.390   0.783  1.1283 -0.6924  2.0480
  906MOL0     H22270   2.760   9.379   0.649  1.5505 -0.1077 -0.0127
  906MOL0     H22271   2.623   9.357   0.445 -0.4004  0.2004 -0.5798
  906MOL0     H22272   2.325   9.307   0.267 -3.2831  1.1515 -0.5216
  906MOL0     H22273   2.137   9.267   0.109  0.0119 -0.7662 -0.9114
  906MOL0     H22274   2.162   9.238  -0.359  0.1060 -0.1590 -1.3329
  906MOL0     H22275   2.280   9.153  -0.261 -0.3196  0.9204  1.6192
  906MOL0     H22276   1.979   9.083  -0.252 -0.2633 -3.1043 -0.6772
  906MOL0     H22277   2.088   9.000  -0.351  1.0334  2.5049 -1.5453
  906MOL0     H22278   2.134   8.862  -0.189  1.4439  1.5770 -3.6008
  906MOL0     H22279   2.223   8.993  -0.120  1.7704  0.6882 -1.9649
  906MOL0     H22280   1.936   8.921  -0.059 -0.5523  0.5510  1.5856
  906MOL0     H22281   2.026   9.043   0.031 -1.2475 -0.6621 -0.2789
  906MOL0     H22282   2.192   8.860   0.085  0.4944 -1.4920 -0.0472
  906MOL0     H22283   2.090   8.741  -0.001 -2.0418 -1.2608  1.3638
  906MOL0     H22284   2.051   8.701   0.237  2.6348  1.3140  0.6732
  906MOL0     H22285   2.008   8.863   0.266  0.0484 -1.4494  1.6009
  906MOL0     H22286   1.860   8.678   0.075  0.4123 -0.3485  0.7518
  906MOL0     H22287   1.822   8.849   0.118 -0.1627  0.4444  1.1177
  906MOL0     H22288   1.711   8.613   0.232 -3.1557  2.6025  2.8251
  906MOL0     H22289   1.855   8.622   0.317  0.3591  0.2501 -0.8202
  906MOL0     H22290   2.410   9.321  -0.212 -2.2061  4.4732 -0.5882
  906MOL0     H22291   2.598   9.358  -0.048 -0.1182 -3.4726 -0.8103
  906MOL0     H22292   2.931   9.574   0.223 -0.5698 -2.9447 -1.7870
  906MOL0     H22293   3.052   9.613   0.421  0.8296 -0.6633 -2.8564
  906MOL0     H22294   3.214  11.152   1.218 -0.1846 -0.5022 -0.9562
  906MOL0     H22295   3.380  11.331   1.231  1.9694 -0.7331 -0.0559
  906MOL0     H22296   3.669  11.552   0.904  1.0977 -0.6223  0.0462
  906MOL0     H22297   3.758  11.761   0.842 -1.5529 -1.0084 -0.8743
  906MOL0     H22298   3.891  12.061   1.167 -0.9562 -3.2349 -0.2464
  906MOL0     H22299   3.721  12.104   1.127  1.0987  4.5726  0.9484
  906MOL0     H22300   3.774  12.239   0.949 -0.0350  2.2517  1.6338
  906MOL0     H22301   3.922  12.143   0.925 -0.8122 -4.1766  1.2777
  906MOL0     H22302   4.006  12.270   1.153 -2.5061 -0.6956  2.1978
  906MOL0     H22303   3.864  12.369   1.134 -0.9956  0.2407 -1.8942
  906MOL0     H22304   4.094  12.470   1.048  0.6695 -0.6507  0.3908
  906MOL0     H22305   4.090  12.361   0.917 -1.7188 -0.6136 -1.3131
  906MOL0     H22306   3.835  12.652   0.783 -1.9643 -1.9713 -2.2978
  906MOL0     H22307   3.742  11.890   1.253 -0.2515 -0.9962  1.4549
  906MOL0     H22308   3.742  11.720   1.411 -0.4077 -1.6901  0.9897
  906MOL0     H22309   3.568  11.738   1.375 -0.3858 -2.2045  4.3886
  906MOL0     H22310   3.634  11.582   1.401 -0.3243  0.5683  0.6334
  907MOL0     O22311   7.238   1.003   4.601  0.6772 -0.6191  0.4585
  907MOL0     C22312   7.259   1.102   4.526  0.2361  0.1697  0.1769
  907MOL0     O22313   7.173   1.154   4.430  0.4313 -0.5023  0.1016
  907MOL0     C22314   7.042   1.102   4.420  0.3232 -0.7126 -0.5451
  907MOL0     C22315   6.992   1.079   4.295  0.3184  0.0137 -0.1713
  907MOL0     C22316   6.852   1.036   4.276  0.2688 -0.2529 -0.2016
  907MOL0     C22317   6.766   1.021   4.381  0.2314  0.0598  0.2969
  907MOL0     O22318   6.637   0.965   4.361 -0.0733  0.6420  0.3707
  907MOL0     C22319   6.532   0.996   4.462  0.1906 -0.1468  0.0618
  907MOL0     C22320   6.393   1.021   4.405  0.4751 -0.5064  1.2497
  907MOL0     C22321   6.271   1.046   4.485 -0.0437 -0.7144 -0.3560
  907MOL0     C22322   6.139   0.992   4.424 -0.5149  0.3749 -0.0697
  907MOL0     C22323   6.006   1.071   4.447  0.5579  0.9321  0.1292
  907MOL0     C22324   5.974   1.056   4.599  1.5105 -0.4432  0.5475
  907MOL0     C22325   5.853   1.156   4.625  0.8424 -0.1575  0.0904
  907MOL0     C22326   5.775   1.128   4.757 -0.5749 -0.0309 -0.0117
  907MOL0     N22327   5.654   1.208   4.776  0.1094  0.4786 -0.4362
  907MOL0     C22328   5.646   1.339   4.812 -0.1647  0.2996  0.3181
  907MOL0     C22329   5.511   1.361   4.822  0.4035  0.6706 -0.5671
  907MOL0     C22330   5.433   1.479   4.869 -0.2543 -0.6955  0.9920
  907MOL0     C22331   5.430   1.586   4.752  0.7811  1.2904  0.5996
  907MOL0     C22332   5.327   1.701   4.778 -0.4737  0.6493 -0.4769
  907MOL0     C22333   5.318   1.799   4.662  0.1680 -0.3949 -0.4500
  907MOL0     O22334   5.282   1.922   4.720  0.1474 -0.5360 -0.5748
  907MOL0     C22335   5.159   1.922   4.792 -0.1439  0.0686 -0.7506
  907MOL0     C22336   5.165   1.984   4.918  0.7945 -0.4357 -0.5665
  907MOL0     C22337   5.046   1.977   4.993 -0.2929 -1.4997  0.6154
  907MOL0     C22338   4.935   1.902   4.950 -0.0098 -0.1021  0.7528
  907MOL0     C22339   4.815   1.895   5.029  0.5623 -0.0343  0.4198
  907MOL0     O22340   4.800   1.967   5.144 -0.3477 -0.3105 -0.4237
  907MOL0     C22341   4.682   1.983   5.201  1.0536  0.4616  0.2327
  907MOL0     C22342   4.608   1.878   5.255  0.9148  0.0958 -0.4324
  907MOL0     C22343   4.478   1.911   5.291 -0.0184  0.5476 -0.5854
  907MOL0     C22344   4.428   2.042   5.300  0.5391 -0.4328  0.2129
  907MOL0     O22345   4.304   2.049   5.350 -1.3901  0.8254  0.5416
  907MOL0     C22346   4.248   2.173   5.354  0.3770 -0.9891  0.1287
  907MOL0     C22347   4.125   2.157   5.435  0.0888  0.3500  0.1886
  907MOL0     C22348   4.020   2.269   5.403  0.0585  0.4410 -1.1625
  907MOL0     C22349   3.881   2.243   5.460 -0.0252 -0.7860  0.3345
  907MOL0     C22350   3.786   2.360   5.434  0.6891  0.1825  1.2054
  907MOL0     C22351   3.666   2.352   5.526  0.8068  0.5248 -0.1445
  907MOL0     C22352   3.551   2.446   5.484  0.7574  0.8195  0.0728
  907MOL0     C22353   3.590   2.588   5.505  0.4075 -1.0026 -1.0092
  907MOL0    Cl22354   3.474   2.699   5.433 -0.3287 -0.0394  0.0637
  907MOL0     C22355   4.515   2.147   5.256  0.2074  0.1100 -0.7144
  907MOL0     C22356   4.645   2.117   5.209  0.0046 -0.2596 -0.1674
  907MOL0     O22357   4.725   1.826   4.985 -0.4709 -1.0394  0.6638
  907MOL0     C22358   4.940   1.849   4.819 -0.1444 -0.0267 -0.7284
  907MOL0     C22359   5.050   1.864   4.735 -1.2652 -0.5986  0.1647
  907MOL0     N22360   5.447   1.245   4.780  0.3346 -0.2635 -0.6969
  907MOL0     N22361   5.533   1.154   4.760 -1.1218 -0.4119  0.0684
  907MOL0     C22362   6.820   1.049   4.504 -0.5919 -0.0342  0.1805
  907MOL0     C22363   6.959   1.095   4.529  0.7097 -0.0050  0.5347
  907MOL0     C22364   7.395   1.159   4.527  0.5393 -0.8472  0.3132
  907MOL0     C22365   7.469   1.172   4.642 -0.2209  0.7450 -0.7830
  907MOL0     C22366   7.600   1.226   4.641 -0.1570  0.1929 -0.0022
  907MOL0     C22367   7.651   1.271   4.524  0.1795 -0.4477  0.8128
  907MOL0     O22368   7.773   1.327   4.523  0.1944  0.1155  1.1746
  907MOL0     C22369   7.762   1.470   4.549  1.0651  0.3683 -0.5107
  907MOL0     C22370   7.890   1.489   4.630 -0.3357 -0.2104  0.7959
  907MOL0     C22371   7.901   1.411   4.766  0.3132  0.6801  0.7400
  907MOL0     C22372   8.033   1.418   4.823 -0.4807 -0.5206  0.2811
  907MOL0     C22373   8.027   1.345   4.952  0.1558 -0.7422 -0.4357
  907MOL0     C22374   8.036   1.277   5.050 -0.7381 -0.0909 -0.2182
  907MOL0     C22375   7.586   1.239   4.404  0.6362 -0.4396 -0.2924
  907MOL0     C22376   7.463   1.171   4.402  0.1089  0.4237  0.2789
  907MOL0     C22377   7.411   1.136   4.258  0.9548  0.6544 -0.2646
  907MOL0     H22378   7.066   1.108   4.222 -1.6965  0.2674 -2.2081
  907MOL0     H22379   6.825   1.041   4.171  1.6356 -0.4374 -0.5779
  907MOL0     H22380   6.541   0.926   4.546  1.1940  0.3219  0.3699
  907MOL0     H22381   6.552   1.092   4.511 -1.4388  1.2174 -1.8013
  907MOL0     H22382   6.366   0.926   4.357  3.1726 -2.8619  4.0357
  907MOL0     H22383   6.406   1.099   4.329 -3.1597  2.5077  3.3290
  907MOL0     H22384   6.268   1.155   4.498  4.0859 -0.5945  0.8102
  907MOL0     H22385   6.297   1.004   4.582 -3.3676 -1.3258  0.3985
  907MOL0     H22386   6.158   0.998   4.317  2.1958  3.1003  0.3981
  907MOL0     H22387   6.135   0.886   4.450 -0.8171  0.0668 -1.3226
  907MOL0     H22388   6.024   1.177   4.424  3.3297  0.2040 -1.4805
  907MOL0     H22389   5.923   1.033   4.387 -0.5468 -1.8122  3.0822
  907MOL0     H22390   5.944   0.951   4.610  0.3718 -0.1548  0.3248
  907MOL0     H22391   6.059   1.079   4.663  1.5321  0.1022  0.3292
  907MOL0     H22392   5.783   1.149   4.541  1.4701 -1.3232 -0.3633
  907MOL0     H22393   5.884   1.260   4.634 -0.5768  0.5813 -2.5778
  907MOL0     H22394   5.749   1.022   4.752 -0.4297 -0.1444  1.3253
  907MOL0     H22395   5.839   1.134   4.845  0.1858 -1.6432 -0.4208
  907MOL0     H22396   5.728   1.408   4.825 -1.4714  2.0865 -0.4732
  907MOL0     H22397   5.331   1.460   4.902 -0.2699  1.5647  2.5114
  907MOL0     H22398   5.484   1.523   4.956 -1.3364 -0.4630  1.5209
  907MOL0     H22399   5.529   1.633   4.754  1.3856  0.2969 -2.0053
  907MOL0     H22400   5.409   1.535   4.657  1.5139 -1.2964  1.7350
  907MOL0     H22401   5.363   1.750   4.868 -2.1313  0.8946  0.0832
  907MOL0     H22402   5.225   1.666   4.797 -0.4681  2.3819  3.7354
  907MOL0     H22403   5.243   1.766   4.590  0.8565  2.5094 -2.6796
  907MOL0     H22404   5.414   1.809   4.610  0.4778  1.8309  0.4262
  907MOL0     H22405   5.261   2.013   4.957  0.6303 -3.5221  2.6563
  907MOL0     H22406   5.041   2.019   5.094 -3.1393  2.4548 -0.9034
  907MOL0     H22407   4.645   1.777   5.270  1.2426  0.1238 -1.0047
  907MOL0     H22408   4.407   1.831   5.308 -2.1195  2.1761 -1.3556
  907MOL0     H22409   4.296   2.253   5.412 -1.0021  0.1009 -0.1885
  907MOL0     H22410   4.226   2.225   5.261 -0.6688 -1.1721  0.2616
  907MOL0     H22411   4.068   2.065   5.416 -2.0678  1.3402  1.5290
  907MOL0     H22412   4.156   2.147   5.540  2.9848 -2.8858 -0.7731
  907MOL0     H22413   4.055   2.363   5.446 -2.0963  0.1695  1.4487
  907MOL0     H22414   4.008   2.274   5.294 -1.5189 -1.2798 -1.1200
  907MOL0     H22415   3.895   2.235   5.568 -1.3449  0.4955  0.6348
  907MOL0     H22416   3.832   2.157   5.414  2.0523 -1.1441 -1.3977
  907MOL0     H22417   3.748   2.338   5.334  1.2745 -2.6627  1.5401
  907MOL0     H22418   3.838   2.456   5.432  0.9310  0.1697 -3.7751
  907MOL0     H22419   3.633   2.248   5.529 -0.2711  0.8487 -0.4142
  907MOL0     H22420   3.695   2.374   5.629  2.1645 -1.6929  0.0033
  907MOL0     H22421   3.459   2.440   5.544 -1.1751  0.9271 -2.6862
  907MOL0     H22422   3.524   2.421   5.381 -0.1786 -1.1193  0.7347
  907MOL0     H22423   3.583   2.605   5.613 -1.5455 -3.4470 -0.6338
  907MOL0     H22424   3.690   2.617   5.474  1.4801 -1.3756  1.8117
  907MOL0     H22425   4.496   2.253   5.261  1.1586  0.2417  1.0884
  907MOL0     H22426   4.703   2.187   5.150  1.7975 -3.2731 -2.2674
  907MOL0     H22427   4.850   1.801   4.783 -2.2556  3.0376  0.0709
  907MOL0     H22428   5.049   1.830   4.632  3.5254  0.9681 -0.6448
  907MOL0     H22429   6.757   1.033   4.591  1.5772  1.0094  2.0760
  907MOL0     H22430   7.003   1.124   4.624  1.0253  0.0251  0.3807
  907MOL0     H22431   7.432   1.164   4.744  1.8638  2.7498  0.2190
  907MOL0     H22432   7.651   1.253   4.733 -0.0487 -1.0214  0.3118
  907MOL0     H22433   7.670   1.501   4.600 -1.3924 -0.9372 -3.7700
  907MOL0     H22434   7.762   1.537   4.462  0.2644  1.9720  0.6544
  907MOL0     H22435   7.890   1.598   4.646 -2.4762 -0.2864  1.6492
  907MOL0     H22436   7.971   1.468   4.559  0.6545 -0.6383  2.0165
  907MOL0     H22437   7.876   1.306   4.752  0.5795  0.5776  1.0340
  907MOL0     H22438   7.830   1.458   4.835 -0.8871  1.7307 -1.1056
  907MOL0     H22439   8.115   1.373   4.767 -2.3986 -1.0806 -2.2478
  907MOL0     H22440   8.067   1.518   4.853 -3.0022  0.0053  1.6579
  907MOL0     H22441   8.078   1.207   5.120  0.4459 -0.6420 -1.4288
  907MOL0     H22442   7.630   1.267   4.309 -0.5608 -0.1102 -0.7610
  907MOL0     H22443   7.490   1.090   4.198  0.6423 -5.7243  3.2960
  907MOL0     H22444   7.327   1.067   4.269 -0.9599  2.7716 -0.9115
  907MOL0     H22445   7.373   1.222   4.202 -0.4257 -0.0572 -0.4770
  908MOL0     O22446   2.336   6.454   0.591  0.8465  1.2013 -0.4795
  908MOL0     C22447   2.444   6.407   0.552 -0.4401  0.9022  0.9202
  908MOL0     O22448   2.494   6.417   0.428  0.4493 -0.3179 -0.3621
  908MOL0     C22449   2.429   6.494   0.334 -0.9109  0.4906  0.6363
  908MOL0     C22450   2.466   6.625   0.301  0.4490  0.5269 -0.4169
  908MOL0     C22451   2.390   6.686   0.198 -0.1751 -0.7207 -0.7983
  908MOL0     C22452   2.294   6.609   0.121 -0.4864 -1.0936 -0.5237
  908MOL0     O22453   2.235   6.671   0.010 -0.1515  0.3860 -0.4584
  908MOL0     C22454   2.291   6.790  -0.057  0.8480  0.2035  0.0413
  908MOL0     C22455   2.227   6.816  -0.202 -0.2706  1.1291  0.0970
  908MOL0     C22456   2.255   6.715  -0.307  0.2756  0.5831 -0.6624
  908MOL0     C22457   2.162   6.591  -0.304 -0.1201  0.5345  0.1691
  908MOL0     C22458   2.179   6.503  -0.426  0.8595  0.4362 -0.7304
  908MOL0     C22459   2.108   6.560  -0.551  0.0593  1.3313  0.0945
  908MOL0     C22460   2.084   6.444  -0.640 -0.4696 -0.9146  0.8774
  908MOL0     C22461   2.007   6.487  -0.765 -0.1573  0.7065 -0.8187
  908MOL0     N22462   2.015   6.378  -0.857 -0.3008 -0.5324 -0.4428
  908MOL0     C22463   1.911   6.290  -0.889 -0.3672 -0.0335  0.0255
  908MOL0     C22464   1.967   6.213  -0.987  1.1866 -0.7164  0.3082
  908MOL0     C22465   1.889   6.104  -1.052  0.6156  0.3343  0.4801
  908MOL0     C22466   1.983   5.981  -1.058 -0.4303  0.3054 -0.6656
  908MOL0     C22467   2.043   5.936  -0.919  0.2344 -0.0891  0.2921
  908MOL0     C22468   2.160   5.830  -0.946  0.7061 -0.4538 -0.2592
  908MOL0     O22469   2.225   5.790  -0.820  0.1682 -0.1871  0.1669
  908MOL0     C22470   2.149   5.726  -0.727 -0.2053  0.9725 -0.1968
  908MOL0     C22471   2.202   5.740  -0.596 -0.0648  0.1369 -0.5659
  908MOL0     C22472   2.126   5.689  -0.488 -0.8051  0.5721 -0.4410
  908MOL0     C22473   2.001   5.625  -0.501 -0.0417 -0.3171  0.3830
  908MOL0     C22474   1.917   5.583  -0.383  0.7382  0.0583  0.4046
  908MOL0     O22475   1.975   5.587  -0.265 -0.6770 -0.5880  0.1242
  908MOL0     C22476   1.944   5.522  -0.151 -0.7627  0.0076  0.2136
  908MOL0     C22477   2.006   5.566  -0.033 -0.6067  0.4360 -0.0707
  908MOL0     C22478   2.000   5.497   0.089 -0.1910  0.0550 -0.7172
  908MOL0     C22479   1.921   5.379   0.104  0.2161 -0.3337 -0.1802
  908MOL0     O22480   1.907   5.312   0.219  0.3594 -0.4685 -0.6754
  908MOL0     C22481   1.946   5.382   0.339  0.3578  0.1854  0.2644
  908MOL0     C22482   1.999   5.282   0.445  0.0819  0.2343 -0.1025
  908MOL0     C22483   2.038   5.355   0.577  0.7079  0.7205  0.0493
  908MOL0     C22484   2.046   5.258   0.700 -0.1270  0.3440 -0.1623
  908MOL0     C22485   2.087   5.352   0.824  0.2975  0.5112 -0.6753
  908MOL0     C22486   2.076   5.276   0.959 -0.2657 -1.0265  0.8821
  908MOL0     C22487   2.108   5.384   1.060  0.4692  0.1526 -1.7462
  908MOL0     C22488   2.102   5.307   1.207 -0.8069 -0.8392  0.9137
  908MOL0    Cl22489   1.928   5.278   1.248  0.5099  0.0319 -0.1455
  908MOL0     C22490   1.861   5.334  -0.013  0.7766  0.2581 -0.7000
  908MOL0     C22491   1.875   5.397  -0.139  0.6550 -0.2299  0.4462
  908MOL0     O22492   1.803   5.546  -0.407 -0.5726  0.0690 -0.6859
  908MOL0     C22493   1.960   5.608  -0.632 -0.0441 -0.8340 -0.3835
  908MOL0     C22494   2.028   5.658  -0.744  0.1521 -0.6784 -0.6946
  908MOL0     N22495   2.090   6.261  -1.024 -0.5896  0.0530 -0.3459
  908MOL0     N22496   2.116   6.357  -0.951  0.3097 -0.1308  0.5165
  908MOL0     C22497   2.258   6.480   0.156 -0.2712  0.5580  0.4177
  908MOL0     C22498   2.332   6.409   0.258 -0.9299  0.5331 -0.1018
  908MOL0     C22499   2.519   6.331   0.650 -0.5593  0.6190 -0.0848
  908MOL0     C22500   2.658   6.361   0.653  0.8155 -0.2911 -0.6432
  908MOL0     C22501   2.747   6.286   0.738 -0.4685 -0.5180 -0.4105
  908MOL0     C22502   2.697   6.174   0.815 -0.2176 -0.3402  0.7750
  908MOL0     O22503   2.777   6.080   0.861 -0.6884 -0.1328 -0.2553
  908MOL0     C22504   2.784   6.083   1.000 -0.2995  0.2435  0.0725
  908MOL0     C22505   2.864   5.972   1.062 -0.4445  0.1614  0.4776
  908MOL0     C22506   3.019   5.991   1.063 -0.7797 -0.0297 -0.7539
  908MOL0     C22507   3.071   6.081   1.179 -0.8672  0.4490  0.6123
  908MOL0     C22508   3.051   6.018   1.305 -0.8499  0.2460 -0.8878
  908MOL0     C22509   3.046   5.980   1.419 -0.3909 -0.4663  0.2595
  908MOL0     C22510   2.561   6.158   0.798  0.7694  0.2526  0.0508
  908MOL0     C22511   2.468   6.233   0.733  0.4703  0.7864 -0.2108
  908MOL0     C22512   2.316   6.216   0.759  0.5159  0.4078  0.1877
  908MOL0     H22513   2.545   6.673   0.357  1.3852 -2.3676  0.9892
  908MOL0     H22514   2.401   6.791   0.175  0.9589 -0.1878  1.7992
  908MOL0     H22515   2.275   6.881   0.000  0.7231 -0.8832  1.8014
  908MOL0     H22516   2.400   6.781  -0.065  0.8410  0.6857 -0.7320
  908MOL0     H22517   2.270   6.908  -0.243  3.4798 -0.7801 -0.7184
  908MOL0     H22518   2.119   6.823  -0.188 -0.2477 -0.3903  1.3581
  908MOL0     H22519   2.347   6.664  -0.278 -1.7431 -3.0318  0.0140
  908MOL0     H22520   2.259   6.753  -0.410 -2.7388 -0.1399 -1.1399
  908MOL0     H22521   2.184   6.532  -0.215  0.9732  0.2269 -0.2766
  908MOL0     H22522   2.055   6.609  -0.301 -0.3106 -0.4036 -0.4820
  908MOL0     H22523   2.287   6.489  -0.435  1.0218 -1.4452  2.4818
  908MOL0     H22524   2.136   6.406  -0.398 -1.2416  1.3791 -0.5443
  908MOL0     H22525   2.022   6.622  -0.525 -3.2751 -2.7935  0.0086
  908MOL0     H22526   2.182   6.615  -0.608  0.1480 -1.7766 -3.1681
  908MOL0     H22527   2.037   6.358  -0.592 -1.6709  1.4558  4.3767
  908MOL0     H22528   2.186   6.418  -0.672 -0.4992  1.5720 -1.6493
  908MOL0     H22529   1.904   6.507  -0.736 -0.0285 -0.8625  0.9404
  908MOL0     H22530   2.055   6.576  -0.809  0.0943  0.9173 -0.1323
  908MOL0     H22531   1.806   6.291  -0.861 -1.1960 -2.7004 -2.4945
  908MOL0     H22532   1.794   6.085  -1.001  0.0524  0.1019 -0.6244
  908MOL0     H22533   1.868   6.133  -1.155  1.5003  0.0884  0.2283
  908MOL0     H22534   1.936   5.897  -1.111  0.3605  0.0182 -0.9242
  908MOL0     H22535   2.072   6.016  -1.110  0.1770 -1.6741 -1.0607
  908MOL0     H22536   1.959   5.896  -0.862 -0.4943 -0.2020 -0.8234
  908MOL0     H22537   2.078   6.027  -0.870 -0.2061  0.4755 -0.4244
  908MOL0     H22538   2.240   5.885  -0.996  2.8332 -1.1060  2.1678
  908MOL0     H22539   2.137   5.736  -0.998  0.2877 -2.0977  2.6597
  908MOL0     H22540   2.298   5.789  -0.577 -1.9857  3.6376  1.0942
  908MOL0     H22541   2.178   5.698  -0.393 -0.4923  2.2090 -0.7362
  908MOL0     H22542   2.070   5.652  -0.046 -0.1925  0.1875  0.2730
  908MOL0     H22543   2.080   5.519   0.159  0.9578  0.7530 -2.1902
  908MOL0     H22544   2.017   5.464   0.328  0.5784  0.2165  1.7105
  908MOL0     H22545   1.865   5.449   0.369  1.6917  2.7380 -1.4645
  908MOL0     H22546   1.927   5.201   0.462  0.5772  0.2524  2.5538
  908MOL0     H22547   2.086   5.228   0.406 -0.3932 -1.0205  0.5337
  908MOL0     H22548   2.130   5.413   0.575  0.6359  1.1285  3.4641
  908MOL0     H22549   1.956   5.423   0.601 -0.5573 -0.4079 -0.8726
  908MOL0     H22550   2.121   5.179   0.703  1.0947  1.4708  0.3520
  908MOL0     H22551   1.949   5.211   0.717  0.5825 -1.1817 -0.1935
  908MOL0     H22552   2.044   5.452   0.826  1.0273  0.9522 -3.1337
  908MOL0     H22553   2.192   5.379   0.811 -0.0517  1.7821 -0.9608
  908MOL0     H22554   1.975   5.235   0.966 -1.8840  2.2305 -0.8673
  908MOL0     H22555   2.156   5.202   0.966  0.8459  0.3030  3.6714
  908MOL0     H22556   2.041   5.470   1.054  0.3434  0.0350 -2.0488
  908MOL0     H22557   2.208   5.423   1.044  1.0444 -0.9401 -0.9507
  908MOL0     H22558   2.158   5.213   1.213  2.8926  1.2281  2.3681
  908MOL0     H22559   2.146   5.373   1.282 -0.1900  0.8577 -0.8545
  908MOL0     H22560   1.808   5.240  -0.000  0.7736  0.5137  1.6670
  908MOL0     H22561   1.830   5.343  -0.222  1.5146 -5.4626  2.9582
  908MOL0     H22562   1.878   5.537  -0.642  0.1403 -1.3531  1.4714
  908MOL0     H22563   1.972   5.655  -0.837 -4.9352  1.1820  1.9005
  908MOL0     H22564   2.186   6.421   0.101  0.2635  0.0545  0.2483
  908MOL0     H22565   2.323   6.301   0.260  0.1954  0.2674 -3.4457
  908MOL0     H22566   2.683   6.443   0.587  0.0825 -1.0456 -1.8970
  908MOL0     H22567   2.853   6.308   0.748 -0.7321  0.0265  1.4129
  908MOL0     H22568   2.690   6.081   1.057  0.3061 -0.6421  1.0819
  908MOL0     H22569   2.849   6.166   1.029  2.2847 -1.9809  1.0847
  908MOL0     H22570   2.843   5.885   0.999  0.2775  0.7812 -0.6685
  908MOL0     H22571   2.833   5.964   1.166  2.4041  0.0140  1.4074
  908MOL0     H22572   3.051   6.022   0.963  0.3841 -2.2305 -1.1286
  908MOL0     H22573   3.055   5.889   1.079  0.0700  0.7457  3.5660
  908MOL0     H22574   3.175   6.095   1.149 -1.1108 -1.9301 -1.6141
  908MOL0     H22575   3.020   6.178   1.185 -3.8128 -0.9411 -0.4117
  908MOL0     H22576   3.048   5.972   1.525 -0.2466 -0.9720  0.2222
  908MOL0     H22577   2.513   6.071   0.842 -1.7888  0.6945 -1.6651
  908MOL0     H22578   2.291   6.165   0.853  2.0332  0.6223  0.7264
  908MOL0     H22579   2.252   6.304   0.747 -1.5424 -1.0862 -0.3597
  908MOL0     H22580   2.287   6.154   0.674  3.6017  0.9222 -1.3693
  909MOL0     O22581   7.156   3.288   9.619 -0.1032 -0.1456 -0.0597
  909MOL0     C22582   7.278   3.266   9.631  0.6813  0.2178 -0.7785
  909MOL0     O22583   7.341   3.158   9.697 -0.0155  0.4096 -0.5904
  909MOL0     C22584   7.302   3.088   9.811 -1.0641  0.4870 -0.3190
  909MOL0     C22585   7.199   3.126   9.890 -0.0763 -0.0659  0.1753
  909MOL0     C22586   7.145   3.041   9.984  0.8300  0.4695  0.5407
  909MOL0     C22587   7.210   2.925  10.017  1.3514 -0.4102 -0.1215
  909MOL0     O22588   7.149   2.853  10.122 -0.0964  0.5117 -0.0843
  909MOL0     C22589   7.200   2.728  10.173 -0.7840 -0.5346 -0.0300
  909MOL0     C22590   7.307   2.759  10.274 -0.1783 -0.0713  0.1668
  909MOL0     C22591   7.402   2.634  10.294 -0.7286  0.5011  0.4384
  909MOL0     C22592   7.366   2.531  10.408 -0.1562 -0.4269 -0.3521
  909MOL0     C22593   7.476   2.483  10.496  1.2011  0.5480  0.2537
  909MOL0     C22594   7.434   2.401  10.614 -0.3337  0.1012 -0.5900
  909MOL0     C22595   7.487   2.253  10.614 -0.6097 -0.0459  0.9725
  909MOL0     C22596   7.430   2.169  10.496  0.1855 -0.0420  0.4837
  909MOL0     N22597   7.299   2.123  10.532  0.4370  0.1418 -0.7385
  909MOL0     C22598   7.184   2.109  10.456 -0.4288  0.3353 -0.4774
  909MOL0     C22599   7.077   2.081  10.536  0.3958 -0.4823 -0.3421
  909MOL0     C22600   6.933   2.075  10.505  0.6885 -0.3829 -0.6425
  909MOL0     C22601   6.893   2.161  10.372 -0.0698 -0.3158 -0.3050
  909MOL0     C22602   6.893   2.313  10.401 -0.2732  0.7243 -0.4074
  909MOL0     C22603   6.907   2.402  10.286 -0.3265  0.4046  0.5055
  909MOL0     O22604   6.898   2.535  10.335 -0.5908 -0.5159  0.0478
  909MOL0     C22605   6.852   2.633  10.248 -0.5166 -0.9426  0.2299
  909MOL0     C22606   6.805   2.619  10.114  0.3816  0.2093 -0.1515
  909MOL0     C22607   6.766   2.714  10.024 -0.3451 -0.1548  1.5279
  909MOL0     C22608   6.794   2.842  10.059 -0.2474 -0.1695  0.0324
  909MOL0     C22609   6.764   2.940   9.952 -0.5131 -0.5312  0.4894
  909MOL0     O22610   6.811   3.063   9.987 -1.2094  0.1855  0.0508
  909MOL0     C22611   6.826   3.157   9.893 -0.3189 -0.8545  0.4994
  909MOL0     C22612   6.839   3.134   9.760  0.1851  0.7040  0.1200
  909MOL0     C22613   6.845   3.235   9.660 -0.0290  1.2356  0.4569
  909MOL0     C22614   6.847   3.370   9.704 -0.1625  0.5195 -0.9300
  909MOL0     O22615   6.854   3.457   9.598  0.7412 -0.8060 -0.4457
  909MOL0     C22616   6.866   3.594   9.633  0.4514  0.3775 -0.4786
  909MOL0     C22617   6.867   3.670   9.492  0.0419  0.7700  1.3410
  909MOL0     C22618   6.982   3.632   9.404  1.0359 -0.5325  0.0253
  909MOL0     C22619   6.960   3.684   9.260  0.0009 -0.3275 -0.2390
  909MOL0     C22620   7.076   3.655   9.167  0.0597 -0.1621 -0.3260
  909MOL0     C22621   7.049   3.727   9.033  0.2552 -0.7050  0.3529
  909MOL0     C22622   7.171   3.686   8.946  0.2051 -1.2763  0.0825
  909MOL0     C22623   7.189   3.786   8.839 -0.4550 -0.4766 -0.6878
  909MOL0    Cl22624   7.282   3.922   8.889  0.3076  0.0733  0.0222
  909MOL0     C22625   6.850   3.397   9.843 -0.5241 -0.0796 -0.0938
  909MOL0     C22626   6.832   3.293   9.945 -0.1203 -0.2148 -0.1508
  909MOL0     O22627   6.687   2.914   9.864  0.9355  0.6691  0.7986
  909MOL0     C22628   6.837   2.870  10.185 -0.7049  1.1366  0.1052
  909MOL0     C22629   6.862   2.773  10.283  0.0344 -0.1000 -0.6073
  909MOL0     N22630   7.129   2.068  10.656  0.5071  0.2531  0.1073
  909MOL0     N22631   7.258   2.072  10.653  0.5791  0.0522 -0.7495
  909MOL0     C22632   7.327   2.888   9.946  0.3001  0.6130  0.4492
  909MOL0     C22633   7.367   2.972   9.838 -0.1126 -0.4002 -0.1944
  909MOL0     C22634   7.365   3.346   9.546  0.1943 -0.4303  0.2068
  909MOL0     C22635   7.309   3.397   9.424 -1.1239 -0.3810 -0.3148
  909MOL0     C22636   7.396   3.484   9.346  0.4674  0.1777  0.1033
  909MOL0     C22637   7.515   3.526   9.389 -0.5582  0.1986  0.6804
  909MOL0     O22638   7.598   3.597   9.310 -0.0230  0.1860  0.0787
  909MOL0     C22639   7.558   3.643   9.187  0.3988 -0.8687 -0.0741
  909MOL0     C22640   7.666   3.726   9.120  0.4769  0.0503  0.1791
  909MOL0     C22641   7.611   3.844   9.033 -0.0960  0.2715  0.9130
  909MOL0     C22642   7.726   3.936   8.975 -0.3579  1.0837 -0.6222
  909MOL0     C22643   7.676   4.031   8.876  0.1284 -0.1403  0.7753
  909MOL0     C22644   7.650   4.085   8.772 -0.3539  0.1513  0.1874
  909MOL0     C22645   7.557   3.488   9.521 -0.2228 -0.0501  0.4830
  909MOL0     C22646   7.493   3.389   9.598  0.0108 -0.0741  0.8221
  909MOL0     C22647   7.552   3.353   9.727  1.0914  0.5873 -0.5233
  909MOL0     H22648   7.152   3.221   9.865 -2.3872 -1.1678  0.0470
  909MOL0     H22649   7.055   3.075  10.035  0.1426 -1.2698  0.5480
  909MOL0     H22650   7.117   2.682  10.228 -2.2240 -0.9214 -2.4145
  909MOL0     H22651   7.222   2.656  10.095 -1.0956 -0.7856  0.1101
  909MOL0     H22652   7.270   2.778  10.375 -0.3284 -0.1396  0.1248
  909MOL0     H22653   7.364   2.847  10.241 -2.0339  1.5065  0.9767
  909MOL0     H22654   7.498   2.673  10.329 -0.6063  1.4999 -0.9351
  909MOL0     H22655   7.417   2.579  10.201  0.9375 -1.5336  1.8133
  909MOL0     H22656   7.288   2.578  10.469 -0.8591 -1.2479 -0.5889
  909MOL0     H22657   7.305   2.446  10.377 -4.0067  2.4276 -1.4175
  909MOL0     H22658   7.548   2.429  10.434 -0.2057 -2.4185  1.0499
  909MOL0     H22659   7.527   2.574  10.530 -0.8944  1.8660  0.0814
  909MOL0     H22660   7.479   2.451  10.701 -2.0345  1.3194 -0.3655
  909MOL0     H22661   7.325   2.404  10.621 -0.7512 -4.1378 -2.5828
  909MOL0     H22662   7.486   2.202  10.710  0.0770  1.2556  1.6919
  909MOL0     H22663   7.593   2.275  10.597 -0.0775  0.3354  4.2609
  909MOL0     H22664   7.418   2.241  10.414 -2.1148 -0.8144  0.0707
  909MOL0     H22665   7.499   2.089  10.466  2.1037  0.8637  2.2018
  909MOL0     H22666   7.172   2.143  10.353 -0.8329 -1.0192 -0.9062
  909MOL0     H22667   6.899   1.971  10.509 -0.7749  0.0952  2.3203
  909MOL0     H22668   6.882   2.120  10.591  1.3871  0.1950 -0.5323
  909MOL0     H22669   6.964   2.131  10.295 -4.6913 -4.0460 -3.7339
  909MOL0     H22670   6.791   2.137  10.341 -0.1216  0.1885 -0.5403
  909MOL0     H22671   6.980   2.339  10.463  0.6566 -4.2877  0.7800
  909MOL0     H22672   6.798   2.320  10.455 -0.2603 -1.5926  0.0183
  909MOL0     H22673   6.835   2.377  10.208 -0.0406  0.4202  0.2324
  909MOL0     H22674   7.004   2.386  10.237  0.4211  1.8558  1.4357
  909MOL0     H22675   6.792   2.518  10.075 -1.6202  0.1133  0.6491
  909MOL0     H22676   6.742   2.686   9.921  0.6727 -1.0332  1.5180
  909MOL0     H22677   6.837   3.032   9.722 -0.8923 -0.5167  3.1712
  909MOL0     H22678   6.834   3.213   9.554 -0.8403  0.8000  0.6177
  909MOL0     H22679   6.783   3.638   9.689  1.8159  0.7629  1.3556
  909MOL0     H22680   6.955   3.625   9.689 -0.3479 -1.6272  2.1053
  909MOL0     H22681   6.777   3.634   9.441  0.3916 -2.6071  2.8373
  909MOL0     H22682   6.869   3.778   9.512 -0.4565  0.8215  1.1344
  909MOL0     H22683   7.075   3.676   9.442  2.0677 -4.9316  3.4010
  909MOL0     H22684   6.987   3.522   9.400  0.9754 -0.5035 -1.2511
  909MOL0     H22685   6.942   3.792   9.265 -0.8623 -0.5010  0.7797
  909MOL0     H22686   6.865   3.641   9.229  0.1491 -1.3481  0.6680
  909MOL0     H22687   7.088   3.549   9.141 -1.3113 -0.2830 -0.5197
  909MOL0     H22688   7.175   3.681   9.206  1.2141 -4.6210  0.2690
  909MOL0     H22689   6.951   3.705   8.990 -2.1252  2.3814  3.6741
  909MOL0     H22690   7.050   3.830   9.070  1.9007 -0.6285  0.1901
  909MOL0     H22691   7.154   3.583   8.914 -4.1476 -1.7168  2.9721
  909MOL0     H22692   7.264   3.667   9.001 -0.6967 -2.8674  1.1346
  909MOL0     H22693   7.243   3.735   8.759 -0.4686 -0.1174 -0.9274
  909MOL0     H22694   7.101   3.838   8.799  2.2892  2.9143 -2.9462
  909MOL0     H22695   6.865   3.499   9.877  1.2818 -0.0037 -0.9646
  909MOL0     H22696   6.832   3.294  10.053  2.8361 -3.5101  0.0542
  909MOL0     H22697   6.864   2.975  10.197  1.4446  0.6283  0.0808
  909MOL0     H22698   6.885   2.809  10.383 -0.6096  2.1533 -1.2287
  909MOL0     H22699   7.376   2.792   9.956 -1.8634 -0.5911  0.2586
  909MOL0     H22700   7.449   2.940   9.774 -1.5286 -4.2981 -0.3537
  909MOL0     H22701   7.212   3.370   9.384 -0.8858  0.8484 -1.8057
  909MOL0     H22702   7.354   3.516   9.250 -0.8656 -1.6286  0.0253
  909MOL0     H22703   7.468   3.704   9.199  3.9760  5.7912 -2.0117
  909MOL0     H22704   7.532   3.554   9.130 -3.0604  0.1761 -0.3274
  909MOL0     H22705   7.733   3.659   9.066  2.8666  1.9509  0.6397
  909MOL0     H22706   7.724   3.773   9.199  1.1292  1.7636 -1.2453
  909MOL0     H22707   7.540   3.909   9.085 -1.3788  0.8040 -1.4008
  909MOL0     H22708   7.542   3.811   8.956 -1.0439  1.7620  1.0855
  909MOL0     H22709   7.779   3.987   9.056  1.1713 -0.6004 -0.4781
  909MOL0     H22710   7.797   3.866   8.930 -0.8237 -0.2947  0.6970
  909MOL0     H22711   7.641   4.137   8.679 -0.1924 -1.9503 -1.0787
  909MOL0     H22712   7.653   3.517   9.562 -0.0806 -0.9234  0.7921
  909MOL0     H22713   7.474   3.348   9.803  0.5592 -0.8710 -1.1285
  909MOL0     H22714   7.612   3.262   9.721  0.6820  0.3511 -5.0532
  909MOL0     H22715   7.624   3.428   9.763  2.8598 -0.1007 -2.3999
  910MOL0     O22716   0.236   0.123   3.519 -0.0530  0.4040  0.3675
  910MOL0     C22717   0.186   0.023   3.461  0.4288 -0.7726  0.6899
  910MOL0     O22718   0.108  -0.071   3.516  0.2441  0.5390 -0.7976
  910MOL0     C22719   0.091  -0.065   3.653 -0.1042 -0.1331  0.1921
  910MOL0     C22720   0.069  -0.191   3.711  0.5639  0.1292 -0.4071
  910MOL0     C22721   0.050  -0.209   3.854  0.1941 -0.5898  0.6760
  910MOL0     C22722   0.037  -0.090   3.929 -1.0276 -0.0374 -0.7441
  910MOL0     O22723   0.035  -0.093   4.069  0.8237  0.6316  0.2193
  910MOL0     C22724   0.053   0.020   4.152 -0.0011  0.5456 -1.0475
  910MOL0     C22725   0.039  -0.020   4.299  0.5747  0.4704 -0.7947
  910MOL0     C22726   0.129  -0.135   4.342 -0.1212 -0.5226  0.4474
  910MOL0     C22727   0.131  -0.133   4.490 -0.5916 -0.0441 -0.4344
  910MOL0     C22728   0.157  -0.277   4.547  0.0953 -0.5062 -0.3808
  910MOL0     C22729   0.150  -0.268   4.699  0.3662  0.2008  0.1887
  910MOL0     C22730   0.122  -0.399   4.766  0.0416  0.7702  0.7331
  910MOL0     C22731   0.255  -0.484   4.779  0.4079 -0.4923 -0.4228
  910MOL0     N22732   0.346  -0.435   4.881  0.4378  0.5978  0.0842
  910MOL0     C22733   0.325  -0.412   5.014 -0.0862 -1.1658  0.2142
  910MOL0     C22734   0.444  -0.366   5.059 -0.2447  0.1280 -1.0744
  910MOL0     C22735   0.495  -0.341   5.198 -0.0605  0.2023 -0.5904
  910MOL0     C22736   0.609  -0.241   5.199  0.3713 -0.1672 -0.3432
  910MOL0     C22737   0.634  -0.210   5.345 -0.6457  0.6601 -0.4269
  910MOL0     C22738   0.529  -0.119   5.404 -0.2114 -0.0156 -0.5675
  910MOL0     O22739   0.541  -0.145   5.544  0.0486 -0.8941  0.1527
  910MOL0     C22740   0.648  -0.081   5.609 -0.0681  0.0579  0.7003
  910MOL0     C22741   0.762  -0.016   5.556  0.8880 -0.0823 -0.3627
  910MOL0     C22742   0.856   0.032   5.638 -0.1507  0.5404 -0.7746
  910MOL0     C22743   0.852   0.022   5.781 -0.0121  0.6981  0.5189
  910MOL0     C22744   0.958   0.071   5.870  0.1512  0.7474  0.9045
  910MOL0     O22745   1.041   0.165   5.814 -0.7947  0.4366 -0.4522
  910MOL0     C22746   1.136   0.241   5.880  0.5006 -0.4250 -0.1616
  910MOL0     C22747   1.198   0.216   6.008 -0.0725  0.2245  0.1360
  910MOL0     C22748   1.286   0.305   6.066  0.0491  0.2765  0.0651
  910MOL0     C22749   1.317   0.421   6.008  0.1159 -0.0850  0.7358
  910MOL0     O22750   1.400   0.515   6.069 -0.2375 -0.3585  0.8199
  910MOL0     C22751   1.539   0.494   6.054 -0.3259 -0.1821 -0.3308
  910MOL0     C22752   1.591   0.521   6.197 -0.3694 -0.2560  0.1018
  910MOL0     C22753   1.625   0.387   6.276 -0.7116 -0.1625  0.8477
  910MOL0     C22754   1.776   0.353   6.250  0.2770  1.0150 -0.3799
  910MOL0     C22755   1.815   0.218   6.304  1.2060 -0.1999  0.2639
  910MOL0     C22756   1.760   0.193   6.446  0.2700 -0.7660  0.2366
  910MOL0     C22757   1.820   0.064   6.510  0.1872 -0.3687  0.0019
  910MOL0     C22758   1.744   0.034   6.643 -0.0746 -1.0868  0.0156
  910MOL0    Cl22759   1.750  -0.143   6.682 -0.1859  0.0160 -0.0154
  910MOL0     C22760   1.243   0.460   5.896 -0.1551 -0.6402 -0.1939
  910MOL0     C22761   1.150   0.370   5.824 -0.7477  1.2183  0.3888
  910MOL0     O22762   0.974   0.018   5.982 -0.4401 -0.6240 -0.2639
  910MOL0     C22763   0.739  -0.046   5.830 -0.9109  0.2211  0.3425
  910MOL0     C22764   0.636  -0.090   5.747 -0.8225  1.2979 -0.4365
  910MOL0     N22765   0.532  -0.344   4.956  0.5978 -0.1291 -0.2589
  910MOL0     N22766   0.474  -0.395   4.855 -0.6081 -0.3912  0.7882
  910MOL0     C22767   0.044   0.043   3.864 -0.0689  0.0281  0.6159
  910MOL0     C22768   0.072   0.054   3.725  0.7204 -0.1238  0.2630
  910MOL0     C22769   0.226  -0.014   3.322  0.6158 -0.3595  0.2891
  910MOL0     C22770   0.243  -0.145   3.295 -0.2982  0.9330  0.5384
  910MOL0     C22771   0.280  -0.194   3.166 -0.0063  0.9173 -0.5736
  910MOL0     C22772   0.298  -0.110   3.056 -0.5134 -0.0764 -0.5581
  910MOL0     O22773   0.329  -0.169   2.932 -0.3703 -0.2002 -0.0382
  910MOL0     C22774   0.362  -0.072   2.823 -0.6540 -0.4121 -0.3747
  910MOL0     C22775   0.372  -0.165   2.694 -0.6777 -0.3195  0.2770
  910MOL0     C22776   0.237  -0.218   2.652  0.3332  0.3289 -0.0802
  910MOL0     C22777   0.251  -0.337   2.555  0.6352 -0.0234 -0.2534
  910MOL0     C22778   0.137  -0.345   2.464 -0.8003 -0.4023 -1.4193
  910MOL0     C22779   0.051  -0.343   2.379  0.3902 -0.2576  0.0283
  910MOL0     C22780   0.287   0.029   3.087  0.0917  0.0624 -0.2929
  910MOL0     C22781   0.248   0.076   3.212  1.0588  0.0432 -0.7472
  910MOL0     C22782   0.228   0.233   3.241 -0.8126 -0.6951  0.6730
  910MOL0     H22783   0.088  -0.271   3.640 -3.0521  0.2794 -1.7553
  910MOL0     H22784   0.045  -0.306   3.904 -1.6935 -0.7069  0.3655
  910MOL0     H22785   0.144   0.074   4.125 -1.0264  1.3276 -3.2138
  910MOL0     H22786  -0.033   0.086   4.134  0.2538  0.9781 -0.6842
  910MOL0     H22787  -0.062  -0.054   4.322  1.6846 -1.5314  1.6488
  910MOL0     H22788   0.064   0.072   4.352  0.4739 -0.5556  1.1407
  910MOL0     H22789   0.230  -0.130   4.300 -0.2290 -0.4092  0.2010
  910MOL0     H22790   0.079  -0.230   4.322  0.1854 -1.4555  3.5592
  910MOL0     H22791   0.203  -0.056   4.516 -0.3246  0.6979 -3.0605
  910MOL0     H22792   0.039  -0.096   4.536 -0.6060 -2.4419  1.7147
  910MOL0     H22793   0.084  -0.348   4.507  2.2219 -1.8710 -2.0836
  910MOL0     H22794   0.254  -0.322   4.525  0.9005 -2.9018  6.0384
  910MOL0     H22795   0.244  -0.231   4.741 -1.3977  3.1810  1.8830
  910MOL0     H22796   0.071  -0.199   4.728  0.2600  0.1588 -0.0023
  910MOL0     H22797   0.055  -0.453   4.699 -0.0756  0.9507  0.7037
  910MOL0     H22798   0.078  -0.396   4.866 -2.8717 -3.1914 -0.1933
  910MOL0     H22799   0.224  -0.582   4.818 -0.6158  1.0338  2.9873
  910MOL0     H22800   0.308  -0.488   4.684  1.6890  0.2211  0.2407
  910MOL0     H22801   0.236  -0.428   5.075  0.3625 -0.3677  1.1120
  910MOL0     H22802   0.410  -0.313   5.260  0.8907 -1.0546  1.4039
  910MOL0     H22803   0.526  -0.442   5.228  4.9944  0.9773 -2.2524
  910MOL0     H22804   0.702  -0.292   5.173  1.0326  0.7424  0.1358
  910MOL0     H22805   0.592  -0.149   5.141  0.5107 -0.9781 -1.7067
  910MOL0     H22806   0.732  -0.163   5.339 -0.3468 -0.1616 -2.5946
  910MOL0     H22807   0.662  -0.291   5.414  0.6315  0.7153 -0.8619
  910MOL0     H22808   0.425  -0.116   5.367 -0.6056  3.1566  0.4606
  910MOL0     H22809   0.559  -0.014   5.390 -1.0123  0.5162  1.3494
  910MOL0     H22810   0.772   0.009   5.451 -0.4561 -1.6866 -0.9232
  910MOL0     H22811   0.952   0.075   5.610  0.7546  0.9161  2.4515
  910MOL0     H22812   1.188   0.115   6.045 -0.6431 -0.4413 -1.7104
  910MOL0     H22813   1.328   0.286   6.164 -1.5283  0.5971  0.8342
  910MOL0     H22814   1.563   0.391   6.026 -4.0951 -1.9603  2.1608
  910MOL0     H22815   1.582   0.561   5.979  2.3299  0.9753  2.0651
  910MOL0     H22816   1.683   0.579   6.191 -0.2342 -0.3794  0.8913
  910MOL0     H22817   1.530   0.594   6.251  0.1652  3.4819 -3.8263
  910MOL0     H22818   1.612   0.401   6.384 -0.1720 -2.7382  1.3061
  910MOL0     H22819   1.563   0.307   6.235  4.0703 -2.6518 -2.4436
  910MOL0     H22820   1.835   0.431   6.298  1.1200  0.7947 -1.0476
  910MOL0     H22821   1.789   0.360   6.142 -0.9987 -0.9959 -0.7252
  910MOL0     H22822   1.922   0.198   6.294  1.3990  1.7227 -3.0237
  910MOL0     H22823   1.768   0.143   6.240 -0.6309  1.3032 -0.2354
  910MOL0     H22824   1.782   0.274   6.516 -1.9606  0.3265 -0.2400
  910MOL0     H22825   1.651   0.183   6.444  0.1989  0.0965 -0.5754
  910MOL0     H22826   1.928   0.070   6.520  0.9617 -3.1197 -4.1121
  910MOL0     H22827   1.816  -0.019   6.438  1.8962  0.0466 -0.6221
  910MOL0     H22828   1.788   0.090   6.726  0.1483  2.0048 -2.0270
  910MOL0     H22829   1.641   0.070   6.634  0.9207  1.8485 -0.8424
  910MOL0     H22830   1.277   0.554   5.853  2.4911  0.9565  4.6371
  910MOL0     H22831   1.106   0.388   5.727 -1.3543  1.6897  0.7473
  910MOL0     H22832   0.729  -0.050   5.938  2.2540 -1.0020  0.7004
  910MOL0     H22833   0.542  -0.132   5.779 -0.3788 -0.5616 -1.3554
  910MOL0     H22834   0.026   0.138   3.914  2.3843  0.5699  0.5951
  910MOL0     H22835   0.076   0.155   3.686  0.9306 -0.2650 -0.0856
  910MOL0     H22836   0.220  -0.219   3.371 -1.1514 -1.5106 -1.8826
  910MOL0     H22837   0.299  -0.300   3.152  3.9091  1.2939  0.8044
  910MOL0     H22838   0.455  -0.018   2.841  0.2053 -2.1343  0.6200
  910MOL0     H22839   0.281   0.001   2.811 -0.7000 -0.3458  0.3034
  910MOL0     H22840   0.439  -0.244   2.727 -1.3695 -0.4681  1.3753
  910MOL0     H22841   0.418  -0.110   2.611 -1.4118 -2.4280 -1.6201
  910MOL0     H22842   0.180  -0.138   2.603 -1.0583 -1.4302 -1.4859
  910MOL0     H22843   0.188  -0.244   2.747 -1.6723 -1.7024 -1.5558
  910MOL0     H22844   0.347  -0.325   2.504  0.2488 -1.5406 -1.4030
  910MOL0     H22845   0.262  -0.427   2.617 -0.2879  0.1608  0.1919
  910MOL0     H22846  -0.030  -0.356   2.310  0.4576 -4.3295  0.4817
  910MOL0     H22847   0.304   0.108   3.015 -3.8398  1.6803  0.2881
  910MOL0     H22848   0.304   0.275   3.307 -0.4865 -3.1617  1.9576
  910MOL0     H22849   0.234   0.283   3.144  4.8030  0.2197  1.1379
  910MOL0     H22850   0.133   0.265   3.284 -1.5723  1.6192 -2.3406
  911MOL0     O22851   5.807   2.916   5.244 -0.7847  0.7250  0.1048
  911MOL0     C22852   5.879   2.822   5.198  0.9785 -0.7513 -0.4023
  911MOL0     O22853   5.877   2.776   5.068  0.1801 -0.5982 -0.6543
  911MOL0     C22854   5.760   2.785   4.991 -0.6381  0.9095 -0.8333
  911MOL0     C22855   5.638   2.731   5.032  0.8167 -0.1753  0.7573
  911MOL0     C22856   5.530   2.728   4.944 -0.0650  0.3674  0.6316
  911MOL0     C22857   5.548   2.750   4.810  0.4686  0.5845  0.2274
  911MOL0     O22858   5.457   2.741   4.719  0.6696  0.3956 -0.5537
  911MOL0     C22859   5.383   2.612   4.720 -0.5378 -0.6644  0.0032
  911MOL0     C22860   5.455   2.504   4.637 -0.3121  0.0755  0.2489
  911MOL0     C22861   5.477   2.538   4.487 -0.3520  0.2864  0.7004
  911MOL0     C22862   5.569   2.662   4.477  0.7000 -0.6358 -0.1304
  911MOL0     C22863   5.625   2.680   4.332 -0.4476 -0.6026  0.4497
  911MOL0     C22864   5.741   2.790   4.329  0.0462 -0.1145 -0.4152
  911MOL0     C22865   5.670   2.923   4.338 -0.4042  0.9345 -0.5950
  911MOL0     C22866   5.761   3.033   4.295  1.3042 -0.2376 -0.2671
  911MOL0     N22867   5.832   3.018   4.165 -0.6055 -0.9212  0.3413
  911MOL0     C22868   5.801   3.082   4.045 -0.0489  0.6064  0.4515
  911MOL0     C22869   5.901   3.049   3.965 -0.6555  0.7858  1.3047
  911MOL0     C22870   5.924   3.092   3.822  0.1465 -1.1301 -0.0763
  911MOL0     C22871   5.979   2.976   3.744  0.8075  1.2705 -0.3038
  911MOL0     C22872   6.134   2.969   3.731  0.3247  0.2486 -0.0236
  911MOL0     C22873   6.194   2.829   3.707  0.3040  0.2346  0.1546
  911MOL0     O22874   6.150   2.783   3.576  0.2164 -0.0376 -0.2038
  911MOL0     C22875   6.221   2.684   3.527 -0.3497  1.4260  0.1482
  911MOL0     C22876   6.312   2.720   3.426  0.1676  0.0143 -0.3461
  911MOL0     C22877   6.399   2.632   3.370 -0.6559  0.0245  0.1314
  911MOL0     C22878   6.406   2.500   3.411 -0.6092 -0.7172 -0.7594
  911MOL0     C22879   6.492   2.396   3.353 -0.2320  0.1517  0.1739
  911MOL0     O22880   6.550   2.302   3.437 -0.5867 -0.3057 -0.2272
  911MOL0     C22881   6.659   2.232   3.392 -0.3187 -0.4968 -0.1248
  911MOL0     C22882   6.645   2.149   3.280  0.3366 -0.5787  0.8262
  911MOL0     C22883   6.752   2.072   3.237  0.0018  0.5071  0.0567
  911MOL0     C22884   6.874   2.077   3.304  0.3208 -0.5266  0.3905
  911MOL0     O22885   6.965   1.986   3.263 -0.5701  0.0766  0.3110
  911MOL0     C22886   7.097   2.041   3.252 -0.6260  0.5763 -0.5394
  911MOL0     C22887   7.167   1.998   3.127 -0.0794  0.0117  0.9919
  911MOL0     C22888   7.162   1.842   3.098  0.7403  0.1761  0.7479
  911MOL0     C22889   7.191   1.754   3.220 -0.4640 -0.5421  1.2795
  911MOL0     C22890   7.178   1.599   3.203 -0.7095  0.2496  0.1854
  911MOL0     C22891   7.182   1.520   3.330 -0.3481 -0.5388  0.1919
  911MOL0     C22892   7.163   1.365   3.315  0.3789  0.3381  0.4509
  911MOL0     C22893   7.189   1.289   3.448  0.2153 -0.0147  0.1777
  911MOL0    Cl22894   7.236   1.121   3.400  0.0545 -0.2427  0.1620
  911MOL0     C22895   6.888   2.163   3.413 -0.3477 -0.2519 -0.1147
  911MOL0     C22896   6.782   2.244   3.453  1.6058 -0.4650  1.0185
  911MOL0     O22897   6.521   2.399   3.234  0.1534  0.0794 -0.6750
  911MOL0     C22898   6.313   2.461   3.515  0.2128 -0.8494  0.5077
  911MOL0     C22899   6.221   2.552   3.574 -0.7404  0.1948 -0.7845
  911MOL0     N22900   5.998   2.967   4.033 -0.5130  0.1056 -0.5051
  911MOL0     N22901   5.951   2.962   4.154 -0.0079 -0.0246  0.7798
  911MOL0     C22902   5.671   2.804   4.770 -0.6416 -0.3096 -0.0122
  911MOL0     C22903   5.774   2.831   4.856 -0.4059  0.3858  0.5844
  911MOL0     C22904   5.988   2.779   5.288 -0.0501 -0.8123  0.5307
  911MOL0     C22905   6.079   2.678   5.243  0.1400 -0.3834 -0.1034
  911MOL0     C22906   6.177   2.620   5.328  0.6031 -0.5474  0.6509
  911MOL0     C22907   6.191   2.656   5.464 -0.2550  1.0668 -0.3051
  911MOL0     O22908   6.287   2.582   5.541 -0.7269 -0.9305  0.0775
  911MOL0     C22909   6.274   2.587   5.677  0.4123 -0.2906 -0.0052
  911MOL0     C22910   6.346   2.468   5.737  0.3569 -0.3731  0.9617
  911MOL0     C22911   6.329   2.431   5.884 -0.2152  0.3523 -0.0373
  911MOL0     C22912   6.399   2.529   5.981  0.3509  0.2609 -0.1293
  911MOL0     C22913   6.527   2.489   6.027 -0.7961  0.0475  0.6776
  911MOL0     C22914   6.640   2.463   6.068  1.2118 -1.0285  0.3329
  911MOL0     C22915   6.116   2.768   5.508 -0.4348  0.0660  0.9579
  911MOL0     C22916   6.014   2.831   5.424  0.3989  0.8126  0.0165
  911MOL0     C22917   5.939   2.938   5.496  1.1481 -0.2061  0.2302
  911MOL0     H22918   5.626   2.687   5.130  0.6589 -0.7469  0.4803
  911MOL0     H22919   5.435   2.688   4.979 -0.2097  0.4732  0.3565
  911MOL0     H22920   5.365   2.562   4.816 -2.3481 -3.3230 -1.6100
  911MOL0     H22921   5.286   2.634   4.674 -0.3527 -1.4203 -0.7751
  911MOL0     H22922   5.392   2.415   4.641  0.0763 -0.2302 -0.3782
  911MOL0     H22923   5.551   2.474   4.681  1.8445  0.9430 -3.4234
  911MOL0     H22924   5.387   2.549   4.425  0.2387 -0.9594 -0.4319
  911MOL0     H22925   5.526   2.454   4.436 -2.0097  0.0233 -0.5500
  911MOL0     H22926   5.514   2.754   4.499  1.6358  0.3116 -1.5423
  911MOL0     H22927   5.643   2.663   4.557  1.2805 -1.1967 -0.6484
  911MOL0     H22928   5.675   2.585   4.314 -2.2942 -2.4409  3.9774
  911MOL0     H22929   5.548   2.699   4.256  1.7123 -1.5911 -2.1386
  911MOL0     H22930   5.816   2.787   4.409 -0.7295 -1.0725  0.3100
  911MOL0     H22931   5.793   2.788   4.233  0.9961 -1.2171  0.0936
  911MOL0     H22932   5.638   2.933   4.442  1.9210  1.8150  0.0973
  911MOL0     H22933   5.583   2.911   4.272 -0.8393 -4.0536  0.4918
  911MOL0     H22934   5.711   3.130   4.290  1.2937 -0.2160  0.1806
  911MOL0     H22935   5.835   3.028   4.376  0.4210 -0.1687  0.5541
  911MOL0     H22936   5.726   3.156   4.021 -2.4190 -2.8838 -4.8186
  911MOL0     H22937   5.826   3.109   3.776 -0.1510 -1.8280  0.2770
  911MOL0     H22938   5.985   3.181   3.808 -1.0085 -0.5880 -2.2223
  911MOL0     H22939   5.947   2.885   3.795 -1.8169  1.0655 -2.1169
  911MOL0     H22940   5.933   2.956   3.647 -1.2467  0.8433  0.7055
  911MOL0     H22941   6.183   3.008   3.821  0.1436  1.3156 -0.3744
  911MOL0     H22942   6.157   3.042   3.653  1.9564 -1.7840 -1.5595
  911MOL0     H22943   6.161   2.751   3.776  1.5210 -0.2800  0.1923
  911MOL0     H22944   6.304   2.831   3.713  0.3642 -2.5202  1.7407
  911MOL0     H22945   6.320   2.824   3.397 -1.6536 -0.8210 -4.5867
  911MOL0     H22946   6.457   2.666   3.285  0.6455 -1.3395  0.4382
  911MOL0     H22947   6.558   2.146   3.215  1.3916 -2.5479 -0.6039
  911MOL0     H22948   6.751   1.996   3.159  0.6583 -1.8880  2.2414
  911MOL0     H22949   7.108   2.149   3.240  1.4541  0.3872 -0.6788
  911MOL0     H22950   7.152   2.004   3.339  0.1136 -1.9312 -1.9696
  911MOL0     H22951   7.130   2.050   3.039  3.2312 -1.5296 -1.5214
  911MOL0     H22952   7.274   2.022   3.126 -0.2693  1.0989  2.4262
  911MOL0     H22953   7.061   1.817   3.064  0.2943  2.1875  0.4459
  911MOL0     H22954   7.233   1.820   3.018  2.1732  2.6366  1.2234
  911MOL0     H22955   7.131   1.780   3.307 -0.4573 -0.5549  1.2887
  911MOL0     H22956   7.296   1.776   3.241  0.1655  0.3925 -2.2192
  911MOL0     H22957   7.260   1.561   3.141  0.0192  0.2672  1.1128
  911MOL0     H22958   7.088   1.575   3.147  0.8080 -0.2049 -2.2058
  911MOL0     H22959   7.281   1.530   3.376 -1.0499 -0.7589  1.7994
  911MOL0     H22960   7.099   1.550   3.393 -0.8269 -0.2178 -0.5764
  911MOL0     H22961   7.232   1.328   3.239  1.4241  2.5409  0.2469
  911MOL0     H22962   7.064   1.348   3.272  1.2137  1.0855 -1.9794
  911MOL0     H22963   7.273   1.344   3.491  1.4275  0.5773 -2.7097
  911MOL0     H22964   7.097   1.293   3.508  0.0184 -1.2686 -0.0281
  911MOL0     H22965   6.980   2.175   3.469 -1.1718  1.5548  0.9554
  911MOL0     H22966   6.795   2.318   3.532 -0.0688  0.2197  0.7095
  911MOL0     H22967   6.316   2.362   3.559  0.1395 -1.0811 -0.0029
  911MOL0     H22968   6.164   2.513   3.657  1.2008 -1.6431 -0.2240
  911MOL0     H22969   5.683   2.839   4.668 -0.1878  1.2946  0.5675
  911MOL0     H22970   5.852   2.877   4.796 -0.8051 -0.2254 -0.4343
  911MOL0     H22971   6.068   2.645   5.141 -1.9308  2.1151 -0.7967
  911MOL0     H22972   6.246   2.547   5.288  0.7820  1.5610 -3.4183
  911MOL0     H22973   6.172   2.587   5.718  0.4014  1.4476  0.0405
  911MOL0     H22974   6.313   2.680   5.719 -2.9621  1.6395 -0.7992
  911MOL0     H22975   6.453   2.492   5.728  1.0079 -3.4764 -0.9491
  911MOL0     H22976   6.326   2.380   5.675 -1.3172  1.3925 -1.1847
  911MOL0     H22977   6.362   2.329   5.908  2.1939  1.2488  0.7607
  911MOL0     H22978   6.222   2.439   5.907  0.0874 -0.8761  2.0405
  911MOL0     H22979   6.390   2.632   5.947 -1.1782 -0.6324 -2.6757
  911MOL0     H22980   6.338   2.523   6.072  0.2173 -1.5137 -0.2891
  911MOL0     H22981   6.733   2.448   6.120  0.9809  0.8890  1.3818
  911MOL0     H22982   6.114   2.802   5.612 -1.4896  0.2859  0.8774
  911MOL0     H22983   5.969   2.968   5.597 -0.8871 -0.7713  1.0509
  911MOL0     H22984   5.944   3.022   5.426  0.7559 -2.7160 -3.0190
  911MOL0     H22985   5.837   2.904   5.515  1.7376 -1.1851  1.8423
  912MOL0     O22986   8.233   3.884   4.043 -0.1090  0.4926 -0.4572
  912MOL0     C22987   8.350   3.919   4.034 -0.1788 -0.1687  0.1546
  912MOL0     O22988   8.450   3.871   4.125  0.2043  0.4724  0.0734
  912MOL0     C22989   8.416   3.803   4.243 -0.1836  0.2768 -0.0258
  912MOL0     C22990   8.491   3.695   4.274  0.1431  0.4999  0.2968
  912MOL0     C22991   8.488   3.642   4.404 -0.3456 -0.3070  0.3536
  912MOL0     C22992   8.396   3.695   4.503 -0.5625  0.0583 -0.5818
  912MOL0     O22993   8.408   3.653   4.637  0.1823 -0.3825 -0.5492
  912MOL0     C22994   8.547   3.663   4.686  0.2222  0.3643  0.2921
  912MOL0     C22995   8.551   3.758   4.800  0.1068  0.5081 -0.5775
  912MOL0     C22996   8.441   3.721   4.905 -0.9540 -0.4750  0.1235
  912MOL0     C22997   8.474   3.781   5.047 -0.4331  0.2638  0.4034
  912MOL0     C22998   8.371   3.804   5.150 -0.7132 -0.0084 -1.0124
  912MOL0     C22999   8.429   3.856   5.286  1.1925  0.0497  0.2053
  912MOL0     C23000   8.468   3.999   5.286 -0.7059 -0.1308  0.5289
  912MOL0     C23001   8.365   4.110   5.242  0.0805  0.7582 -0.0904
  912MOL0     N23002   8.435   4.235   5.260 -0.0339 -0.4081 -1.2766
  912MOL0     C23003   8.529   4.281   5.353  0.3111 -0.1326 -0.2024
  912MOL0     C23004   8.554   4.411   5.325 -0.5922 -0.5730  0.5618
  912MOL0     C23005   8.655   4.498   5.383 -1.7927 -0.3518 -0.1261
  912MOL0     C23006   8.600   4.611   5.465  0.0064 -0.1639  0.0686
  912MOL0     C23007   8.536   4.728   5.376 -0.4498  0.9161  0.2794
  912MOL0     C23008   8.466   4.827   5.466 -0.0612 -0.7042  0.1828
  912MOL0     O23009   8.562   4.933   5.492  0.2689 -0.2854  0.6712
  912MOL0     C23010   8.575   5.040   5.410 -0.2445  0.7397 -0.5452
  912MOL0     C23011   8.487   5.143   5.390  1.1152 -0.6236  0.6893
  912MOL0     C23012   8.528   5.244   5.296 -0.3920 -0.3111  0.5558
  912MOL0     C23013   8.656   5.247   5.242 -0.0770  0.4502  0.7215
  912MOL0     C23014   8.694   5.352   5.145 -0.9265  0.5405  0.9441
  912MOL0     O23015   8.619   5.465   5.144  0.2734  0.0843  1.1224
  912MOL0     C23016   8.650   5.559   5.050  0.0261 -0.9580  0.5101
  912MOL0     C23017   8.550   5.630   4.993 -0.4542 -0.1436 -0.3498
  912MOL0     C23018   8.560   5.743   4.909 -0.8836  0.0925 -0.5868
  912MOL0     C23019   8.693   5.779   4.875 -0.6347  0.6444  0.1095
  912MOL0     O23020   8.693   5.870   4.779 -0.0304  0.5237  0.0867
  912MOL0     C23021   8.819   5.923   4.741 -0.6206  0.2565 -0.2814
  912MOL0     C23022   8.780   6.039   4.658 -0.7570  0.0685  0.2016
  912MOL0     C23023   8.901   6.133   4.627 -0.1034  0.6290  0.6820
  912MOL0     C23024   8.857   6.269   4.566 -0.5511 -0.1675 -0.7398
  912MOL0     C23025   8.925   6.304   4.426 -0.1652 -0.2572 -0.5694
  912MOL0     C23026   8.887   6.224   4.301  0.9106  0.1861  0.0422
  912MOL0     C23027   8.741   6.244   4.276 -0.3488  0.4009 -0.2186
  912MOL0     C23028   8.681   6.214   4.136  0.0950 -0.2409 -0.6533
  912MOL0    Cl23029   8.769   6.069   4.060  0.1558  0.4833 -0.3908
  912MOL0     C23030   8.805   5.716   4.938  1.0776 -0.5102 -0.2827
  912MOL0     C23031   8.778   5.611   5.024  0.8398 -0.4888  0.2897
  912MOL0     O23032   8.787   5.329   5.070 -0.3793 -0.2493 -0.3609
  912MOL0     C23033   8.746   5.148   5.278  0.1330  0.8585  0.5203
  912MOL0     C23034   8.706   5.042   5.360  0.3534  0.0299  0.0937
  912MOL0     N23035   8.462   4.445   5.227  0.3890  0.9892  0.7032
  912MOL0     N23036   8.394   4.340   5.196 -0.2072 -0.3316  0.8338
  912MOL0     C23037   8.311   3.798   4.465  0.1503  0.4243 -0.0667
  912MOL0     C23038   8.327   3.856   4.334  0.4237 -0.3902  0.8791
  912MOL0     C23039   8.389   4.023   3.935 -0.2457 -0.0149  0.1620
  912MOL0     C23040   8.524   4.068   3.939 -0.2225  0.4456  0.9289
  912MOL0     C23041   8.568   4.174   3.862  0.1564  0.5234 -0.2135
  912MOL0     C23042   8.487   4.238   3.775 -0.2325  0.1645  0.4217
  912MOL0     O23043   8.523   4.341   3.698 -0.7750 -0.7253 -0.2780
  912MOL0     C23044   8.656   4.405   3.705 -0.2564  2.2130 -0.1337
  912MOL0     C23045   8.661   4.530   3.621 -1.1034  0.3828 -1.1144
  912MOL0     C23046   8.625   4.653   3.700 -0.1447  0.7352 -0.6561
  912MOL0     C23047   8.482   4.698   3.730 -0.4409  0.6517 -0.8069
  912MOL0     C23048   8.398   4.605   3.804  0.0445  0.3907 -0.4462
  912MOL0     C23049   8.321   4.519   3.847  0.9244  0.1477  0.0682
  912MOL0     C23050   8.361   4.185   3.763 -0.0045 -0.5458  0.0993
  912MOL0     C23051   8.305   4.098   3.849 -0.5362 -0.3007  0.1669
  912MOL0     C23052   8.164   4.060   3.836  0.0314 -0.2565  0.0318
  912MOL0     H23053   8.558   3.658   4.197 -0.0373 -3.3896  1.7705
  912MOL0     H23054   8.540   3.551   4.432  0.3076 -0.6357 -1.7505
  912MOL0     H23055   8.573   3.563   4.721 -2.4553 -0.6334 -0.2982
  912MOL0     H23056   8.623   3.695   4.614  1.9730 -1.0240  1.4618
  912MOL0     H23057   8.544   3.862   4.767  1.5057  0.9153  0.3328
  912MOL0     H23058   8.652   3.759   4.842  0.5977  1.0917 -1.7286
  912MOL0     H23059   8.453   3.612   4.908 -4.5516 -0.9579  1.6796
  912MOL0     H23060   8.344   3.759   4.872  0.0942  3.5052  1.0308
  912MOL0     H23061   8.548   3.713   5.090 -0.1987 -1.2711 -2.2100
  912MOL0     H23062   8.533   3.870   5.022 -1.6919  0.6453 -1.5144
  912MOL0     H23063   8.302   3.881   5.116 -2.9589 -1.8809 -0.9027
  912MOL0     H23064   8.322   3.709   5.171 -0.2138  0.3187  2.1711
  912MOL0     H23065   8.350   3.843   5.361  1.4282 -1.3937  0.2390
  912MOL0     H23066   8.518   3.799   5.315  1.1218  0.5000  1.3892
  912MOL0     H23067   8.550   4.018   5.216 -1.1593  0.9989  0.2807
  912MOL0     H23068   8.512   4.010   5.385  2.6061  3.6312 -1.0732
  912MOL0     H23069   8.320   4.104   5.142 -1.6828 -3.5663  0.7282
  912MOL0     H23070   8.276   4.102   5.304  1.5356  0.6764  2.0927
  912MOL0     H23071   8.562   4.224   5.439 -0.5569  0.9761  0.8953
  912MOL0     H23072   8.716   4.440   5.453 -3.5192 -2.7926 -0.5172
  912MOL0     H23073   8.717   4.543   5.304 -0.3303  0.7097  1.5517
  912MOL0     H23074   8.527   4.565   5.531  2.1135 -0.7810  2.1173
  912MOL0     H23075   8.679   4.665   5.518  0.5916 -0.9635  0.0337
  912MOL0     H23076   8.466   4.681   5.307  2.0586 -2.3015 -0.3632
  912MOL0     H23077   8.610   4.771   5.308 -1.8837 -0.0867 -2.0175
  912MOL0     H23078   8.433   4.777   5.557  0.2225 -2.3416 -0.5851
  912MOL0     H23079   8.383   4.868   5.408  0.3623 -3.0271 -2.2075
  912MOL0     H23080   8.383   5.141   5.421  0.4929  0.0186 -1.1851
  912MOL0     H23081   8.461   5.324   5.269 -0.3380 -0.1988  0.7499
  912MOL0     H23082   8.448   5.607   5.020  0.5802 -1.9166  2.4080
  912MOL0     H23083   8.476   5.795   4.864 -0.2277  1.9704  0.2510
  912MOL0     H23084   8.880   5.945   4.829  0.4004  1.5688 -1.2858
  912MOL0     H23085   8.880   5.849   4.689  0.7656  0.2690  1.2640
  912MOL0     H23086   8.730   6.007   4.567  0.9422  1.6003 -1.3505
  912MOL0     H23087   8.706   6.100   4.710 -0.0159  2.2302 -1.1294
  912MOL0     H23088   8.969   6.141   4.712  3.2936 -3.1400 -1.3476
  912MOL0     H23089   8.960   6.075   4.555 -3.6282 -0.8566 -1.2395
  912MOL0     H23090   8.892   6.348   4.632  1.8210 -2.5637  1.0890
  912MOL0     H23091   8.749   6.281   4.556 -0.4584  1.9658  0.3974
  912MOL0     H23092   9.033   6.296   4.440 -0.0968  0.6501 -0.4803
  912MOL0     H23093   8.901   6.409   4.406  0.0212 -0.0803  0.0867
  912MOL0     H23094   8.945   6.255   4.213 -1.0124 -0.1114 -1.4211
  912MOL0     H23095   8.930   6.125   4.315  1.5987  0.5942  0.8545
  912MOL0     H23096   8.729   6.352   4.292  0.4488  0.3885  0.5502
  912MOL0     H23097   8.690   6.188   4.355  2.2173 -0.2733  1.0710
  912MOL0     H23098   8.575   6.196   4.152  0.1964  0.1593  0.6356
  912MOL0     H23099   8.702   6.296   4.067  2.3711 -0.7615 -0.6647
  912MOL0     H23100   8.904   5.760   4.925  0.0518  1.2711 -3.0699
  912MOL0     H23101   8.868   5.571   5.071  0.1604 -0.9840  1.2197
  912MOL0     H23102   8.846   5.153   5.235  0.8697 -0.2566  2.0125
  912MOL0     H23103   8.775   4.960   5.376 -0.9927 -1.6511 -2.1161
  912MOL0     H23104   8.244   3.860   4.523 -0.9935 -0.1532 -0.7406
  912MOL0     H23105   8.271   3.940   4.296  1.6236  0.9803  2.0223
  912MOL0     H23106   8.598   4.022   4.004  0.8997  2.0592  0.8623
  912MOL0     H23107   8.666   4.218   3.881 -0.3322  0.5620  2.6247
  912MOL0     H23108   8.725   4.325   3.677 -0.7343  1.3517  1.0442
  912MOL0     H23109   8.685   4.430   3.807 -0.9476  1.0571  0.3671
  912MOL0     H23110   8.600   4.512   3.532  1.2996  1.5745 -3.1204
  912MOL0     H23111   8.764   4.537   3.585 -0.5435  0.3480  0.4219
  912MOL0     H23112   8.673   4.736   3.647  1.1115  0.1909 -0.4148
  912MOL0     H23113   8.667   4.647   3.801  1.3391 -0.1822 -1.2855
  912MOL0     H23114   8.487   4.796   3.778 -1.1973  0.9269 -1.2745
  912MOL0     H23115   8.432   4.705   3.633 -1.8674 -0.9589 -0.2418
  912MOL0     H23116   8.277   4.428   3.882 -3.6810  1.4081 -1.7734
  912MOL0     H23117   8.302   4.236   3.688 -1.3692 -1.5142  0.4818
  912MOL0     H23118   8.122   4.122   3.756  1.4119 -0.2762 -0.7232
  912MOL0     H23119   8.149   3.960   3.794 -2.7138 -0.7054  1.8267
  912MOL0     H23120   8.106   4.079   3.927 -2.2315 -2.2303 -0.8790
  913MOL0     O23121   8.352   9.225  11.189  0.0316  0.1277  0.1563
  913MOL0     C23122   8.468   9.266  11.158  0.4422  0.3009 -0.1749
  913MOL0     O23123   8.582   9.203  11.176  0.4629 -0.4987 -0.4075
  913MOL0     C23124   8.576   9.088  11.250 -0.1723 -0.5222  0.2010
  913MOL0     C23125   8.605   8.962  11.198 -0.6703 -0.3677 -0.2095
  913MOL0     C23126   8.618   8.851  11.273  0.5196 -0.5526  0.1464
  913MOL0     C23127   8.579   8.853  11.405 -0.3300  0.3313  0.6666
  913MOL0     O23128   8.571   8.724  11.469  0.0751  0.3233 -0.4315
  913MOL0     C23129   8.540   8.726  11.608 -0.8802 -0.2711 -1.0804
  913MOL0     C23130   8.555   8.592  11.681  0.2769 -0.3844  0.6042
  913MOL0     C23131   8.537   8.613  11.828  0.7219 -0.6865 -0.2891
  913MOL0     C23132   8.501   8.476  11.898  0.7387  0.2540 -0.0461
  913MOL0     C23133   8.643   8.406  11.928  0.4508 -0.3447 -0.1520
  913MOL0     C23134   8.626   8.257  11.963  0.6490  0.0179  0.4980
  913MOL0     C23135   8.725   8.212  12.068  0.7686 -1.0181  0.7234
  913MOL0     C23136   8.858   8.181  12.000  0.2405  0.0072  0.0165
  913MOL0     N23137   8.955   8.139  12.104  0.9492  0.2360 -0.1046
  913MOL0     C23138   9.019   8.224  12.189  0.7291 -0.4605 -0.5592
  913MOL0     C23139   9.092   8.148  12.272 -0.1182  1.1789  0.6468
  913MOL0     C23140   9.186   8.178  12.381  0.6989  0.6975 -0.4903
  913MOL0     C23141   9.123   8.254  12.503 -0.2164  0.8323  0.4505
  913MOL0     C23142   9.048   8.171  12.613  0.0327  0.5007 -0.0762
  913MOL0     C23143   9.120   8.034  12.645 -0.2432  0.3875 -0.1180
  913MOL0     O23144   9.089   7.993  12.779 -0.4454 -0.0210 -0.6020
  913MOL0     C23145   8.953   7.979  12.812 -0.6114 -0.1836 -0.6850
  913MOL0     C23146   8.849   7.959  12.726  0.1122 -0.2759 -0.3024
  913MOL0     C23147   8.713   7.971  12.769  0.3193  0.8482 -0.1312
  913MOL0     C23148   8.687   7.978  12.912  0.6038  0.1663 -0.5377
  913MOL0     C23149   8.540   7.975  12.962 -0.1274  0.2722  0.8119
  913MOL0     O23150   8.514   7.968  13.098  0.3773 -0.1337  0.8703
  913MOL0     C23151   8.382   7.979  13.113  0.5814 -0.9264 -0.2380
  913MOL0     C23152   8.333   8.108  13.157  0.7044 -0.3655  0.5678
  913MOL0     C23153   8.202   8.130  13.208 -0.2031  0.2821  0.7524
  913MOL0     C23154   8.110   8.023  13.198  1.0782 -0.1300  0.3228
  913MOL0     O23155   7.994   8.036  13.265  0.5858  0.1958  0.0443
  913MOL0     C23156   7.870   8.028  13.183 -1.3307 -1.2149 -0.0781
  913MOL0     C23157   7.740   8.026  13.264  0.0565 -0.3392  0.7481
  913MOL0     C23158   7.703   8.163  13.305  0.4097 -1.0314  0.4611
  913MOL0     C23159   7.606   8.166  13.419 -0.1996 -0.1424 -0.6742
  913MOL0     C23160   7.538   8.301  13.432 -0.5696  0.6171  0.5089
  913MOL0     C23161   7.451   8.334  13.552 -1.1121  0.9667 -0.1114
  913MOL0     C23162   7.301   8.289  13.543  0.3048  0.9717  0.2430
  913MOL0     C23163   7.221   8.369  13.433  0.6458  0.3426 -0.0739
  913MOL0    Cl23164   7.263   8.538  13.432 -0.0495  0.5879 -0.3861
  913MOL0     C23165   8.146   7.903  13.136 -0.1793  0.2234  0.4628
  913MOL0     C23166   8.282   7.877  13.101 -0.0839  0.3982  0.7016
  913MOL0     O23167   8.462   8.011  12.877 -0.3387 -0.3423 -0.1861
  913MOL0     C23168   8.802   7.969  12.999  0.0609 -0.7033  0.3525
  913MOL0     C23169   8.929   7.984  12.949  0.1831 -0.5932 -0.1334
  913MOL0     N23170   9.046   8.021  12.254  0.0058  0.1846  0.3050
  913MOL0     N23171   8.969   8.014  12.152 -0.1721 -0.3577 -0.2057
  913MOL0     C23172   8.552   8.975  11.468  0.2266 -0.0954  0.6989
  913MOL0     C23173   8.552   9.093  11.386 -0.0980  0.0307  0.4787
  913MOL0     C23174   8.461   9.390  11.088 -0.4178 -0.1185  0.1301
  913MOL0     C23175   8.381   9.390  10.971  0.8641  0.3358 -0.0490
  913MOL0     C23176   8.382   9.500  10.890  0.9716  0.8219  0.3648
  913MOL0     C23177   8.452   9.617  10.918 -0.2248  0.8305 -0.0896
  913MOL0     O23178   8.414   9.715  10.835  0.3923  0.0549  0.0275
  913MOL0     C23179   8.453   9.839  10.882  0.2300 -0.5213  0.8059
  913MOL0     C23180   8.356   9.897  10.988  0.1620 -0.3249  0.3713
  913MOL0     C23181   8.325  10.048  10.978 -0.4356  0.2467 -0.2920
  913MOL0     C23182   8.195  10.082  10.901  0.8030 -1.4578  0.9386
  913MOL0     C23183   8.130  10.192  10.973 -0.5576 -0.2097 -0.5667
  913MOL0     C23184   8.068  10.273  11.044  0.7136 -0.3557  0.4971
  913MOL0     C23185   8.523   9.616  11.042  0.8217 -0.2264  0.9544
  913MOL0     C23186   8.544   9.497  11.121 -0.0431  0.4304  0.2203
  913MOL0     C23187   8.636   9.503  11.244 -0.6488 -0.0625 -0.2520
  913MOL0     H23188   8.626   8.956  11.092  1.7862 -0.8649  0.2421
  913MOL0     H23189   8.651   8.767  11.213  0.9900 -1.2300  1.3210
  913MOL0     H23190   8.612   8.791  11.659 -1.5081 -1.7027  1.8413
  913MOL0     H23191   8.439   8.764  11.627 -0.2622 -0.2558  3.3235
  913MOL0     H23192   8.659   8.565  11.660 -0.1870 -2.4302  0.6970
  913MOL0     H23193   8.480   8.532  11.627  0.1283  1.2181 -1.0755
  913MOL0     H23194   8.453   8.680  11.846  1.1538 -0.7434  2.3393
  913MOL0     H23195   8.624   8.666  11.867  0.6470 -0.5377 -0.3257
  913MOL0     H23196   8.438   8.501  11.984 -1.8376 -0.2708 -1.6590
  913MOL0     H23197   8.438   8.415  11.833  0.9570  0.6486 -0.6381
  913MOL0     H23198   8.697   8.421  11.835 -3.4058 -0.1400 -2.5743
  913MOL0     H23199   8.709   8.458  11.999  1.3463 -2.5574  0.7364
  913MOL0     H23200   8.523   8.241  11.998  0.0967 -0.2760 -1.2016
  913MOL0     H23201   8.639   8.190  11.878 -1.4878 -0.9357  0.8380
  913MOL0     H23202   8.691   8.121  12.117  2.7881 -2.0781  0.2743
  913MOL0     H23203   8.730   8.289  12.146 -1.9400 -3.4492  3.5332
  913MOL0     H23204   8.854   8.099  11.928  2.1781  0.8062 -1.0818
  913MOL0     H23205   8.896   8.273  11.954 -2.7344  0.3556 -2.0097
  913MOL0     H23206   9.015   8.332  12.185 -1.7700 -0.4583  0.2713
  913MOL0     H23207   9.238   8.085  12.405 -1.8997 -0.2543  1.9024
  913MOL0     H23208   9.257   8.252  12.341  0.4226  0.3313 -1.6948
  913MOL0     H23209   9.192   8.320  12.556 -1.6401  2.5117  0.2872
  913MOL0     H23210   9.054   8.323  12.452  1.0975  0.5416 -1.8455
  913MOL0     H23211   8.942   8.149  12.593 -0.1127  0.1712  0.9984
  913MOL0     H23212   9.042   8.236  12.700 -0.4596  1.0909 -0.5410
  913MOL0     H23213   9.229   8.041  12.636 -0.2367  4.3119  1.4717
  913MOL0     H23214   9.079   7.964  12.572  1.1230  2.9975 -3.6892
  913MOL0     H23215   8.862   7.955  12.619  1.2327  0.6222 -0.2254
  913MOL0     H23216   8.632   7.950  12.700  0.4112 -2.1892  0.5284
  913MOL0     H23217   8.411   8.171  13.200  1.1679 -1.7235  1.7810
  913MOL0     H23218   8.167   8.220  13.257  1.0273  1.4694 -0.4856
  913MOL0     H23219   7.878   8.106  13.107  3.1930 -3.4359 -2.2677
  913MOL0     H23220   7.874   7.929  13.136 -2.7280 -1.3560  0.0608
  913MOL0     H23221   7.665   7.987  13.195  1.2627 -2.1501  0.3668
  913MOL0     H23222   7.743   7.958  13.350  1.4411  0.0002  1.0083
  913MOL0     H23223   7.786   8.226  13.337  1.3781 -1.3196 -1.3712
  913MOL0     H23224   7.661   8.214  13.218  1.3194 -0.1269  0.5423
  913MOL0     H23225   7.666   8.156  13.509  0.2220  1.0289 -0.8003
  913MOL0     H23226   7.540   8.079  13.417  0.9682 -1.0588 -2.4364
  913MOL0     H23227   7.482   8.324  13.341 -1.3618  0.4269  0.9318
  913MOL0     H23228   7.617   8.376  13.436  0.2140 -0.0197 -1.5953
  913MOL0     H23229   7.500   8.298  13.643  2.9498  1.0006 -2.0778
  913MOL0     H23230   7.460   8.442  13.566  1.7304  0.9489 -1.2931
  913MOL0     H23231   7.247   8.317  13.633 -0.4718  1.5921 -0.4043
  913MOL0     H23232   7.306   8.188  13.503 -1.1153  1.1702 -0.4925
  913MOL0     H23233   7.246   8.342  13.330  0.7314  0.6054 -0.1243
  913MOL0     H23234   7.115   8.344  13.431  0.9299 -1.5222  2.7192
  913MOL0     H23235   8.076   7.821  13.124  0.3603  0.1925 -4.2207
  913MOL0     H23236   8.313   7.782  13.059  1.1560  0.8566  0.5381
  913MOL0     H23237   8.800   7.977  13.108 -1.6676 -1.0079  0.3684
  913MOL0     H23238   8.998   8.005  13.029 -0.7043  0.0613  0.4815
  913MOL0     H23239   8.532   8.988  11.574 -1.6559 -0.0801  0.3878
  913MOL0     H23240   8.534   9.185  11.441 -0.5424  0.5269 -0.4714
  913MOL0     H23241   8.339   9.303  10.920 -2.1359  1.9880 -0.5944
  913MOL0     H23242   8.323   9.500  10.798 -0.0438  1.5517  0.9942
  913MOL0     H23243   8.443   9.908  10.797  0.1427 -2.2465 -0.6662
  913MOL0     H23244   8.557   9.847  10.913 -0.2329  1.4632  2.0222
  913MOL0     H23245   8.396   9.874  11.088  2.5797 -2.6180 -1.0126
  913MOL0     H23246   8.255   9.864  10.962 -0.1616  3.0071 -3.4569
  913MOL0     H23247   8.402  10.113  10.934 -0.3449  1.4957  1.5924
  913MOL0     H23248   8.330  10.074  11.084 -2.5130  1.2160 -0.3829
  913MOL0     H23249   8.211  10.135  10.807 -1.9625  0.9111  1.6675
  913MOL0     H23250   8.126  10.000  10.882  0.7927 -1.1779 -0.3270
  913MOL0     H23251   8.033  10.340  11.120  3.2833 -0.5798  2.0275
  913MOL0     H23252   8.581   9.703  11.071 -3.7701  3.7230 -0.3586
  913MOL0     H23253   8.726   9.443  11.228 -0.0488  0.6444  0.4408
  913MOL0     H23254   8.666   9.606  11.265 -1.8203  1.2103 -4.0024
  913MOL0     H23255   8.573   9.455  11.319 -2.5451  1.3375 -0.8721
  914MOL0     O23256   9.589  10.903   4.428  0.3919 -1.3251  0.2888
  914MOL0     C23257   9.704  10.897   4.392 -0.3598  0.2959 -0.4633
  914MOL0     O23258   9.797  10.998   4.385 -0.9040  0.1713  1.1983
  914MOL0     C23259   9.772  11.133   4.383 -0.1712  0.8915  0.6190
  914MOL0     C23260   9.883  11.213   4.367 -0.6079 -0.4579 -0.9248
  914MOL0     C23261   9.883  11.349   4.397  0.3383 -0.4601  1.0951
  914MOL0     C23262   9.762  11.415   4.425 -0.1892  1.1788 -0.1428
  914MOL0     O23263   9.747  11.542   4.456  0.4702 -0.1787  0.6703
  914MOL0     C23264   9.821  11.646   4.396 -0.2732 -1.1757  0.4319
  914MOL0     C23265   9.743  11.768   4.452  1.3852  0.4361  0.6599
  914MOL0     C23266   9.768  11.904   4.379  0.6295  0.2172  0.5906
  914MOL0     C23267   9.872  11.996   4.448  0.3161  0.7567  0.4882
  914MOL0     C23268   9.881  12.126   4.373  0.8272  0.4442 -0.2176
  914MOL0     C23269   9.854  12.246   4.457  0.2466  0.0083 -0.1394
  914MOL0     C23270   9.958  12.270   4.568 -0.3257  0.1722 -0.2990
  914MOL0     C23271   9.928  12.412   4.614  0.1203 -0.5553 -0.3430
  914MOL0     N23272  10.004  12.450   4.733 -0.5808  0.2492  1.0843
  914MOL0     C23273  10.126  12.493   4.741  0.5237  0.6475  0.1288
  914MOL0     C23274  10.156  12.473   4.870  0.1043  0.6282  0.0620
  914MOL0     C23275  10.291  12.501   4.941  1.2132  0.1960 -0.4769
  914MOL0     C23276  10.291  12.608   5.049  0.2727 -0.0859  0.6844
  914MOL0     C23277  10.440  12.653   5.074 -1.0595 -0.5416 -0.0972
  914MOL0     C23278  10.475  12.656   5.223 -1.2836  0.2705 -0.2854
  914MOL0     O23279  10.603  12.728   5.230 -0.1510  0.0045 -0.6434
  914MOL0     C23280  10.676  12.732   5.348  0.6364 -0.4182  0.9353
  914MOL0     C23281  10.794  12.806   5.327 -0.2406 -0.1185 -0.4656
  914MOL0     C23282  10.879  12.834   5.432  0.1027  0.1051 -0.3502
  914MOL0     C23283  10.847  12.800   5.568 -0.5183  0.0848 -0.4088
  914MOL0     C23284  10.939  12.842   5.676 -0.1053 -0.1168 -0.4214
  914MOL0     O23285  10.970  12.758   5.777  1.0257  0.1206  0.6907
  914MOL0     C23286  11.043  12.817   5.876 -0.3270  1.2919 -0.1841
  914MOL0     C23287  10.985  12.897   5.967  0.0131 -0.2478  0.0421
  914MOL0     C23288  11.051  12.944   6.079  0.7439 -0.3953  0.1090
  914MOL0     C23289  11.183  12.923   6.088 -0.9996  0.3544 -0.5109
  914MOL0     O23290  11.244  12.983   6.201 -0.2674 -0.2070 -0.4483
  914MOL0     C23291  11.365  12.937   6.257 -0.1277 -0.1814 -0.7706
  914MOL0     C23292  11.445  13.030   6.354 -0.2611 -1.0163  0.3002
  914MOL0     C23293  11.359  13.074   6.462 -0.1924 -0.1322 -0.1839
  914MOL0     C23294  11.428  13.175   6.567  0.2012 -0.0908  0.3643
  914MOL0     C23295  11.325  13.223   6.663  0.2918 -0.1554 -1.2051
  914MOL0     C23296  11.393  13.296   6.781  0.6355 -0.4443  1.0774
  914MOL0     C23297  11.295  13.308   6.894  0.7246  0.2039  0.2365
  914MOL0     C23298  11.235  13.449   6.900  0.0180  0.3674 -0.2464
  914MOL0    Cl23299  11.135  13.461   6.747  0.0179  0.1804  0.1881
  914MOL0     C23300  11.256  12.848   5.992  0.4073  0.1575 -0.4550
  914MOL0     C23301  11.182  12.786   5.888 -0.8416 -0.0800 -0.0511
  914MOL0     O23302  10.966  12.959   5.669 -0.1193 -0.4493  0.4811
  914MOL0     C23303  10.733  12.719   5.576  0.0715  0.0520 -0.1173
  914MOL0     C23304  10.642  12.689   5.476  0.5476 -0.4896  0.3719
  914MOL0     N23305  10.047  12.423   4.935 -1.0770 -0.3562  0.5863
  914MOL0     N23306   9.955  12.418   4.850 -0.7116  0.6240 -0.5925
  914MOL0     C23307   9.649  11.330   4.436 -1.1224 -0.5963 -0.6893
  914MOL0     C23308   9.653  11.198   4.404  0.0671  1.4313 -0.1458
  914MOL0     C23309   9.761  10.767   4.355  0.6367 -0.5135 -0.1814
  914MOL0     C23310   9.877  10.764   4.265  0.2322  1.3265 -0.0664
  914MOL0     C23311   9.943  10.638   4.241 -0.3807 -0.4565  0.1985
  914MOL0     C23312   9.881  10.509   4.290  0.2478 -0.0974 -0.0268
  914MOL0     O23313   9.930  10.382   4.269 -0.0324  0.1265 -0.2221
  914MOL0     C23314  10.006  10.363   4.147 -0.2109 -1.2387  0.0270
  914MOL0     C23315  10.155  10.385   4.137 -0.2685  0.3159 -0.1098
  914MOL0     C23316  10.220  10.429   4.012 -0.8111 -0.3543  0.4781
  914MOL0     C23317  10.215  10.318   3.901  0.2114  0.1470 -0.4291
  914MOL0     C23318  10.149  10.355   3.777  0.4761  1.3378  0.8131
  914MOL0     C23319  10.111  10.398   3.664  0.3606 -0.4730 -0.5051
  914MOL0     C23320   9.777  10.519   4.381  0.0136  0.4570  0.4293
  914MOL0     C23321   9.725  10.644   4.419 -0.2039  0.1447 -0.5214
  914MOL0     C23322   9.626  10.637   4.539  0.1300  0.7000  0.5154
  914MOL0     H23323   9.983  11.179   4.339  0.0089 -0.7648  1.4226
  914MOL0     H23324   9.975  11.405   4.379  1.4824 -2.5469  0.0510
  914MOL0     H23325   9.921  11.656   4.439 -1.4280  0.7810  2.9156
  914MOL0     H23326   9.819  11.645   4.286  1.4742 -1.1265  0.3671
  914MOL0     H23327   9.756  11.770   4.561 -3.1600 -3.1660  1.5374
  914MOL0     H23328   9.639  11.742   4.434  1.8326 -2.2430  1.4890
  914MOL0     H23329   9.672  11.954   4.364  1.6002  1.8939 -0.2448
  914MOL0     H23330   9.791  11.870   4.278 -1.9959 -0.0545  0.0192
  914MOL0     H23331   9.849  12.009   4.554  1.1667  1.0958  0.6348
  914MOL0     H23332   9.966  11.940   4.442  0.2329  0.7537 -0.9622
  914MOL0     H23333   9.980  12.130   4.328  0.5387 -1.2478 -1.0680
  914MOL0     H23334   9.802  12.121   4.298  0.1183  0.0503  0.5387
  914MOL0     H23335   9.840  12.326   4.384 -0.8001 -0.9800 -1.0445
  914MOL0     H23336   9.759  12.218   4.503  0.0605  1.0250  0.1136
  914MOL0     H23337  10.055  12.260   4.519 -0.5926 -1.7286 -0.4843
  914MOL0     H23338   9.949  12.207   4.657  2.0476 -0.9407 -0.7587
  914MOL0     H23339   9.962  12.484   4.538  0.8396  1.2727  1.6303
  914MOL0     H23340   9.821  12.425   4.632  0.3053 -1.0601  1.1914
  914MOL0     H23341  10.185  12.536   4.660  0.3248 -0.1775 -0.4615
  914MOL0     H23342  10.327  12.409   4.987  0.0109 -0.3623 -0.6074
  914MOL0     H23343  10.355  12.530   4.857  0.3383  0.8781 -0.9354
  914MOL0     H23344  10.234  12.698   5.027 -1.1357 -1.0715  0.1877
  914MOL0     H23345  10.249  12.564   5.140 -1.2302  0.5073  0.3050
  914MOL0     H23346  10.464  12.752   5.035  0.8164 -1.4517 -1.4206
  914MOL0     H23347  10.516  12.591   5.026 -0.0156  1.2540 -0.8369
  914MOL0     H23348  10.492  12.554   5.258 -0.7296  0.6267  0.4852
  914MOL0     H23349  10.400  12.704   5.286 -0.0726  0.5886  0.9436
  914MOL0     H23350  10.822  12.831   5.225 -0.7110  2.3132 -0.0497
  914MOL0     H23351  10.963  12.903   5.427 -1.7685  2.4566 -2.9242
  914MOL0     H23352  10.881  12.929   5.959 -0.3515 -1.1646  0.9799
  914MOL0     H23353  11.020  13.035   6.131  2.9795  1.7314 -2.0103
  914MOL0     H23354  11.335  12.844   6.305 -0.2019 -0.2928 -1.0281
  914MOL0     H23355  11.441  12.911   6.181  0.3984  1.9883 -1.0454
  914MOL0     H23356  11.531  12.974   6.391 -0.0576 -1.8717 -1.3661
  914MOL0     H23357  11.472  13.123   6.303 -2.6114 -0.9712 -1.0054
  914MOL0     H23358  11.289  13.130   6.399  0.8252 -1.1866 -2.3697
  914MOL0     H23359  11.302  12.991   6.503 -1.6696 -1.1493 -3.8529
  914MOL0     H23360  11.478  13.261   6.520 -1.8637  0.1589 -1.5388
  914MOL0     H23361  11.498  13.113   6.625 -2.5968 -3.3538  0.5769
  914MOL0     H23362  11.272  13.135   6.701  1.2029 -0.7851 -1.3622
  914MOL0     H23363  11.255  13.294   6.618  0.2866 -0.6761 -2.0290
  914MOL0     H23364  11.486  13.242   6.803  0.4450 -0.1276  2.7939
  914MOL0     H23365  11.412  13.398   6.746 -0.3510 -0.7881 -0.6075
  914MOL0     H23366  11.356  13.290   6.982  0.8668  3.7643  1.0320
  914MOL0     H23367  11.219  13.229   6.885  0.7997  0.3480 -3.1774
  914MOL0     H23368  11.180  13.456   6.995  2.2971 -1.0467  1.2846
  914MOL0     H23369  11.310  13.528   6.894 -0.5553  0.8837 -0.7150
  914MOL0     H23370  11.365  12.844   5.986  0.3424 -0.2377 -1.8536
  914MOL0     H23371  11.234  12.734   5.808  0.3991  0.4948  0.3558
  914MOL0     H23372  10.714  12.684   5.677 -1.4037 -2.7349 -1.2303
  914MOL0     H23373  10.546  12.642   5.497  0.9797 -1.3054  0.5591
  914MOL0     H23374   9.553  11.363   4.474 -0.3192 -0.7215  1.6369
  914MOL0     H23375   9.555  11.155   4.422  0.2811 -0.3970 -2.7903
  914MOL0     H23376   9.915  10.856   4.222 -1.0174  1.4366 -0.9781
  914MOL0     H23377  10.030  10.634   4.177  0.2319 -0.9882  1.0440
  914MOL0     H23378   9.957  10.439   4.086  0.1433 -1.1665 -0.1759
  914MOL0     H23379   9.995  10.263   4.104 -2.7925  0.3678 -3.5225
  914MOL0     H23380  10.200  10.288   4.160 -0.2725 -0.1635 -1.9914
  914MOL0     H23381  10.187  10.456   4.215  1.8031 -1.4507  0.7496
  914MOL0     H23382  10.326  10.445   4.030  0.3494 -0.6052 -4.6472
  914MOL0     H23383  10.186  10.528   3.979 -0.6739 -0.0276  1.3014
  914MOL0     H23384  10.319  10.286   3.889 -0.4673 -2.2051 -0.5053
  914MOL0     H23385  10.162  10.231   3.941 -0.6474  1.8131  2.3822
  914MOL0     H23386  10.094  10.416   3.559 -4.3865 -0.2157  0.0958
  914MOL0     H23387   9.733  10.428   4.419  1.4489 -0.6447 -0.4415
  914MOL0     H23388   9.652  10.553   4.604  0.1513  0.5060  0.2569
  914MOL0     H23389   9.621  10.730   4.597  1.5735  0.9387  0.2910
  914MOL0     H23390   9.523  10.617   4.508  0.1783  1.1299  0.0572
  915MOL0     O23391  10.165   0.595   8.976 -0.3863  0.5407  0.4187
  915MOL0     C23392  10.074   0.635   9.050  0.7898  0.4623  0.2666
  915MOL0     O23393   9.960   0.571   9.069  0.2185  0.3816 -0.7055
  915MOL0     C23394   9.951   0.460   8.995  0.1275 -0.3848  1.0901
  915MOL0     C23395   9.872   0.473   8.881  0.6375  0.3679  0.3839
  915MOL0     C23396   9.858   0.357   8.796  0.4426  0.8972 -0.3170
  915MOL0     C23397   9.902   0.233   8.849 -0.4713  0.6938  0.1238
  915MOL0     O23398   9.894   0.111   8.793 -0.0383 -0.0247  0.3553
  915MOL0     C23399   9.827   0.107   8.667  0.5124  0.2619  0.2933
  915MOL0     C23400   9.800  -0.033   8.626 -0.0362  0.0898 -0.2706
  915MOL0     C23401   9.668  -0.040   8.549 -0.6995 -0.9776  0.2448
  915MOL0     C23402   9.553  -0.027   8.647 -0.4448 -0.3057 -0.5234
  915MOL0     C23403   9.422  -0.040   8.570  0.5978  0.6345  0.9224
  915MOL0     C23404   9.300  -0.030   8.661  0.3700 -0.7618  0.0476
  915MOL0     C23405   9.173  -0.021   8.586 -0.5072  0.9222  0.7199
  915MOL0     C23406   9.133  -0.154   8.531  0.1199  0.0189  1.0466
  915MOL0     N23407   9.079  -0.274   8.602 -0.6162  0.1876 -0.6217
  915MOL0     C23408   9.016  -0.267   8.725 -0.9917  0.6823  0.0329
  915MOL0     C23409   9.007  -0.396   8.763  0.6807  0.0102  0.0956
  915MOL0     C23410   8.920  -0.460   8.872  0.5214 -0.1037 -1.0380
  915MOL0     C23411   8.769  -0.486   8.829 -0.5370  0.0613 -0.0689
  915MOL0     C23412   8.707  -0.601   8.896  0.5936 -0.3831 -0.1919
  915MOL0     C23413   8.551  -0.600   8.861 -0.1471  0.0625 -0.8828
  915MOL0     O23414   8.495  -0.491   8.937  0.1970  0.2222  1.0202
  915MOL0     C23415   8.425  -0.517   9.053  0.0769 -0.2225 -0.0740
  915MOL0     C23416   8.328  -0.422   9.091 -0.3386  1.1814  0.7419
  915MOL0     C23417   8.244  -0.453   9.197 -0.3742  0.5977 -0.1437
  915MOL0     C23418   8.257  -0.566   9.276 -0.1450 -0.4785 -0.3209
  915MOL0     C23419   8.165  -0.597   9.396  0.6577  0.0492  0.1481
  915MOL0     O23420   8.040  -0.536   9.395  0.5171  0.0090  0.5819
  915MOL0     C23421   7.967  -0.499   9.509 -0.6193  0.2992  0.3162
  915MOL0     C23422   7.994  -0.555   9.641  0.7579  0.5284  1.1688
  915MOL0     C23423   7.905  -0.511   9.739 -1.1701  1.0650 -0.2117
  915MOL0     C23424   7.786  -0.431   9.714  0.0145  0.0407  0.1661
  915MOL0     O23425   7.678  -0.425   9.806 -0.4145  0.3597  0.2565
  915MOL0     C23426   7.718  -0.384   9.939  0.2881  0.4522  0.7472
  915MOL0     C23427   7.617  -0.281   9.973  0.5650 -1.0911  0.1650
  915MOL0     C23428   7.608  -0.180   9.859  1.1087  0.1826  0.0301
  915MOL0     C23429   7.561  -0.043   9.908  0.2563 -0.3657  0.5778
  915MOL0     C23430   7.401  -0.027   9.928  0.2916  0.2628  0.7750
  915MOL0     C23431   7.351   0.085  10.020 -0.9861  1.0671 -0.2910
  915MOL0     C23432   7.416   0.222   9.991 -0.3481 -0.7286 -0.3026
  915MOL0     C23433   7.401   0.301  10.131 -0.2097  0.6657  0.2535
  915MOL0    Cl23434   7.529   0.244  10.231 -0.3691  0.2778  0.2882
  915MOL0     C23435   7.778  -0.372   9.589 -0.0995 -0.5281 -0.1777
  915MOL0     C23436   7.859  -0.408   9.487 -0.0254 -0.4025  1.0621
  915MOL0     O23437   8.209  -0.662   9.487  0.1691 -0.9285 -0.1055
  915MOL0     C23438   8.361  -0.659   9.245 -0.4415 -0.2056  1.1153
  915MOL0     C23439   8.449  -0.628   9.134  0.1479  0.0545 -0.7279
  915MOL0     N23440   9.061  -0.474   8.657 -0.6276  0.6810  0.2391
  915MOL0     N23441   9.110  -0.395   8.567  0.3166 -0.1961  0.0152
  915MOL0     C23442   9.966   0.221   8.967 -0.0649  0.2369  0.5560
  915MOL0     C23443   9.994   0.335   9.038 -0.4076  0.5014  0.0225
  915MOL0     C23444  10.107   0.745   9.143  0.5101 -0.4831 -0.8447
  915MOL0     C23445  10.013   0.774   9.238 -0.2834  0.1423 -0.5537
  915MOL0     C23446  10.024   0.858   9.342 -0.4921 -0.1054 -0.1775
  915MOL0     C23447  10.148   0.919   9.354 -0.2652 -0.2265 -0.8529
  915MOL0     O23448  10.185   1.003   9.455 -0.0481 -0.5609 -0.3677
  915MOL0     C23449  10.100   1.008   9.573  0.6261  0.3687  0.3042
  915MOL0     C23450  10.148   1.089   9.690  0.2516 -0.0032  1.6129
  915MOL0     C23451  10.292   1.063   9.731  0.4646 -1.1619  0.6937
  915MOL0     C23452  10.348   1.180   9.813 -0.4410 -0.3422  0.4369
  915MOL0     C23453  10.286   1.173   9.943 -0.1589  0.5954 -0.3678
  915MOL0     C23454  10.243   1.151  10.050 -0.1080  0.1571  0.1277
  915MOL0     C23455  10.246   0.903   9.262 -0.0290 -0.0699  0.5256
  915MOL0     C23456  10.231   0.807   9.166 -0.6826 -0.1617  0.8165
  915MOL0     C23457  10.359   0.774   9.080  0.3418 -0.0895 -0.0384
  915MOL0     H23458   9.855   0.573   8.843  3.8373  0.2977 -1.6024
  915MOL0     H23459   9.811   0.382   8.701 -0.8155  3.4192  0.8573
  915MOL0     H23460   9.737   0.170   8.672  0.0191 -0.4947  1.2395
  915MOL0     H23461   9.897   0.155   8.598  1.8347  3.4977  3.5647
  915MOL0     H23462   9.789  -0.090   8.718 -2.1734  1.8335  0.6397
  915MOL0     H23463   9.887  -0.070   8.571 -0.4476  2.2545 -2.5529
  915MOL0     H23464   9.655  -0.139   8.503  2.8529 -0.8618 -1.2629
  915MOL0     H23465   9.673   0.035   8.470  0.3484  1.3139  2.3646
  915MOL0     H23466   9.553  -0.095   8.733  0.2989  1.7098  1.1536
  915MOL0     H23467   9.566   0.069   8.698  0.9628 -0.3582 -0.7454
  915MOL0     H23468   9.416   0.025   8.483  0.0746 -0.4106  0.1624
  915MOL0     H23469   9.429  -0.137   8.519  5.7015  2.8160 -3.4530
  915MOL0     H23470   9.298  -0.121   8.723  0.2202 -0.1567  0.9516
  915MOL0     H23471   9.313   0.059   8.723  0.5583 -0.9542  0.2879
  915MOL0     H23472   9.184   0.058   8.511  2.0191 -0.4105 -0.4522
  915MOL0     H23473   9.091   0.010   8.651 -2.9538  1.9977 -2.5947
  915MOL0     H23474   9.039  -0.134   8.478  0.6835 -2.0256 -0.8741
  915MOL0     H23475   9.209  -0.188   8.461 -0.6356 -3.3175  1.6694
  915MOL0     H23476   8.998  -0.172   8.775  0.9707  1.6104 -0.9146
  915MOL0     H23477   8.973  -0.551   8.903  2.1245  0.4133 -2.1395
  915MOL0     H23478   8.924  -0.395   8.960 -1.5268 -0.5463 -0.5729
  915MOL0     H23479   8.716  -0.390   8.836  1.1206  0.9961  0.2059
  915MOL0     H23480   8.764  -0.500   8.721  0.7115 -0.1255 -0.1157
  915MOL0     H23481   8.727  -0.587   9.003  0.1522  0.8160 -0.2508
  915MOL0     H23482   8.744  -0.699   8.866 -1.6029 -1.2471 -0.2431
  915MOL0     H23483   8.508  -0.700   8.873 -0.2744 -0.1673 -2.8442
  915MOL0     H23484   8.533  -0.572   8.757 -1.3614  0.2383 -0.6485
  915MOL0     H23485   8.312  -0.332   9.032  0.4685 -0.3192 -1.9572
  915MOL0     H23486   8.168  -0.383   9.230 -2.0314 -0.4081 -1.6506
  915MOL0     H23487   8.071  -0.630   9.658  2.7285  1.7644 -1.6672
  915MOL0     H23488   7.931  -0.556   9.835  2.4944  0.6709 -1.2244
  915MOL0     H23489   7.706  -0.472  10.004 -0.5998 -0.3771 -0.5013
  915MOL0     H23490   7.818  -0.343   9.954  0.7159  0.1933 -1.1092
  915MOL0     H23491   7.518  -0.319   9.999 -0.7352  1.9203  0.0342
  915MOL0     H23492   7.656  -0.222  10.057  1.0563 -1.5251  0.2446
  915MOL0     H23493   7.697  -0.169   9.797 -0.8109 -0.2720 -2.9955
  915MOL0     H23494   7.527  -0.224   9.800  2.0772  0.0442 -1.2244
  915MOL0     H23495   7.574   0.038   9.836 -1.4517  0.3959  1.0712
  915MOL0     H23496   7.621  -0.007   9.992  1.6348 -1.8954  0.2994
  915MOL0     H23497   7.370  -0.121   9.975  0.5939  2.0187  4.9498
  915MOL0     H23498   7.354  -0.018   9.830  0.6003 -0.2468  0.5761
  915MOL0     H23499   7.247   0.091   9.986 -1.6712  0.2036  1.4896
  915MOL0     H23500   7.341   0.063  10.127 -0.2235  1.6878 -0.0866
  915MOL0     H23501   7.360   0.273   9.911 -1.5776 -1.1557  0.2545
  915MOL0     H23502   7.522   0.213   9.969 -0.3360 -3.8174  0.5270
  915MOL0     H23503   7.423   0.407  10.124  2.9481  0.2217  1.5789
  915MOL0     H23504   7.305   0.273  10.177  0.7682  1.7132  3.1400
  915MOL0     H23505   7.698  -0.301   9.566  1.2864  1.3004  0.3769
  915MOL0     H23506   7.850  -0.377   9.383  2.4458 -4.5914 -0.6428
  915MOL0     H23507   8.363  -0.753   9.301  0.6231 -0.5861  0.4766
  915MOL0     H23508   8.529  -0.700   9.119  1.3978  0.5877  2.5839
  915MOL0     H23509   9.985   0.121   9.004  0.0138 -0.3930 -1.1030
  915MOL0     H23510  10.047   0.323   9.133  0.3225 -4.0988 -0.7341
  915MOL0     H23511   9.916   0.726   9.239 -0.3793  0.1207 -3.3684
  915MOL0     H23512   9.944   0.870   9.415 -2.7831 -2.2437 -2.1482
  915MOL0     H23513  10.083   0.907   9.612  2.0831  0.7814  2.1738
  915MOL0     H23514  10.003   1.049   9.542  0.5918  1.6609  1.9507
  915MOL0     H23515  10.092   1.071   9.782  1.1870 -0.2600  2.1400
  915MOL0     H23516  10.157   1.192   9.655 -0.3183 -0.3963  0.2286
  915MOL0     H23517  10.360   1.063   9.646 -0.5361 -0.7513 -0.1329
  915MOL0     H23518  10.290   0.971   9.789  1.2554 -0.2327  2.2584
  915MOL0     H23519  10.455   1.171   9.833 -0.5117 -0.2979  0.8577
  915MOL0     H23520  10.336   1.276   9.762  2.4207 -1.0790 -1.8540
  915MOL0     H23521  10.197   1.103  10.134 -0.5284  0.3880  0.0295
  915MOL0     H23522  10.344   0.945   9.280  0.0730 -0.9147  2.1422
  915MOL0     H23523  10.429   0.859   9.075 -1.9312  1.8507 -1.4688
  915MOL0     H23524  10.408   0.685   9.121  0.4457  1.0405  2.4893
  915MOL0     H23525  10.325   0.761   8.977  1.8942  1.0772 -0.7446
  916MOL0     O23526   8.938   8.546   3.343 -0.3569  0.2548  0.0831
  916MOL0     C23527   8.888   8.550   3.453 -0.8270  1.1731  1.2736
  916MOL0     O23528   8.881   8.668   3.520 -0.3000  0.7539  0.0928
  916MOL0     C23529   8.896   8.790   3.446 -0.7062  0.4669  0.1086
  916MOL0     C23530   8.785   8.875   3.424 -0.5691  0.3360  0.3265
  916MOL0     C23531   8.806   8.998   3.364 -0.3534  0.8068 -1.1123
  916MOL0     C23532   8.935   9.039   3.341  1.0186 -0.3789  0.0827
  916MOL0     O23533   8.938   9.163   3.293  0.1557 -0.1248 -0.2412
  916MOL0     C23534   9.057   9.223   3.252 -0.2007  1.1095 -1.1967
  916MOL0     C23535   9.026   9.359   3.188 -0.4547  0.2659 -0.2791
  916MOL0     C23536   9.149   9.426   3.152 -0.0426 -0.8954 -0.3281
  916MOL0     C23537   9.253   9.351   3.083  0.6990 -0.1323  0.0141
  916MOL0     C23538   9.365   9.439   3.033 -0.4398 -0.1680  0.2307
  916MOL0     C23539   9.481   9.351   2.988 -0.1005  0.4407 -0.6227
  916MOL0     C23540   9.575   9.432   2.900 -0.9892  0.5967 -0.5678
  916MOL0     C23541   9.659   9.365   2.790 -0.9128 -0.1207  0.7100
  916MOL0     N23542   9.744   9.464   2.717 -0.5931  0.0239  1.2862
  916MOL0     C23543   9.827   9.549   2.766 -0.8578  0.1491 -1.1194
  916MOL0     C23544   9.876   9.612   2.666  0.0677 -0.9521 -0.3158
  916MOL0     C23545  10.004   9.701   2.679  0.3797  1.1092  0.2034
  916MOL0     C23546  10.028   9.784   2.560  0.6382  0.4744  1.0000
  916MOL0     C23547   9.915   9.874   2.510 -0.6611  0.3718  0.2454
  916MOL0     C23548   9.844   9.954   2.616 -0.6689  0.8141  0.4867
  916MOL0     O23549   9.791  10.080   2.555 -0.0845  0.0180  0.5009
  916MOL0     C23550   9.755  10.180   2.639  0.0887  0.0002 -0.6605
  916MOL0     C23551   9.716  10.157   2.777 -0.1186 -0.4938 -0.1360
  916MOL0     C23552   9.703  10.275   2.861  0.2469  0.5471 -0.2029
  916MOL0     C23553   9.721  10.406   2.818 -0.5479  0.4005 -0.0738
  916MOL0     C23554   9.693  10.521   2.909  0.0013 -0.5649 -0.8444
  916MOL0     O23555   9.720  10.648   2.861 -0.1058  0.5469 -0.2540
  916MOL0     C23556   9.644  10.755   2.920 -1.0605 -0.4219 -0.6406
  916MOL0     C23557   9.707  10.886   2.952  0.1138 -0.2717  0.4195
  916MOL0     C23558   9.625  10.991   2.997  0.6120  1.0936  0.2214
  916MOL0     C23559   9.492  10.985   3.010  0.1662  0.9143 -0.8823
  916MOL0     O23560   9.426  11.094   3.057 -1.0206  0.1453 -0.4234
  916MOL0     C23561   9.304  11.084   3.126 -0.0273 -0.5017 -0.1271
  916MOL0     C23562   9.286  11.212   3.215 -0.7962  1.0221  1.2825
  916MOL0     C23563   9.177  11.178   3.322 -0.2184  0.5623  0.8885
  916MOL0     C23564   9.155  11.295   3.417  0.0700  1.4107  1.3193
  916MOL0     C23565   9.029  11.251   3.503  1.0864 -0.7558 -0.4661
  916MOL0     C23566   8.986  11.376   3.597 -0.6823 -0.1277  0.4116
  916MOL0     C23567   8.883  11.329   3.695 -0.8711 -0.6108 -0.1580
  916MOL0     C23568   8.806  11.424   3.784 -0.0835 -0.0263 -0.2581
  916MOL0    Cl23569   8.694  11.515   3.676  0.0273  0.1610 -0.8356
  916MOL0     C23570   9.426  10.862   2.972 -0.5129  0.0696 -0.2011
  916MOL0     C23571   9.511  10.744   2.944  0.1577 -0.3276  0.1822
  916MOL0     O23572   9.643  10.492   3.019  0.4565  0.5721 -0.2741
  916MOL0     C23573   9.775  10.423   2.687 -0.2120  0.7119  0.2048
  916MOL0     C23574   9.779  10.316   2.600 -0.5473 -0.1461  0.5763
  916MOL0     N23575   9.815   9.580   2.550 -0.5413  0.4206  0.3914
  916MOL0     N23576   9.725   9.489   2.589  0.7952  0.3126  0.3429
  916MOL0     C23577   9.044   8.955   3.367  0.6689 -0.9900  0.0433
  916MOL0     C23578   9.027   8.825   3.416  0.4759  0.3509 -0.1588
  916MOL0     C23579   8.848   8.425   3.527  0.3154 -0.8667 -0.0208
  916MOL0     C23580   8.833   8.305   3.449 -0.2790  0.2288  0.7443
  916MOL0     C23581   8.772   8.190   3.503  0.9653  0.4405  0.0746
  916MOL0     C23582   8.752   8.173   3.640  0.3476  0.1561 -0.2385
  916MOL0     O23583   8.693   8.067   3.699 -0.0924 -0.1270 -0.0230
  916MOL0     C23584   8.783   7.959   3.732 -0.1345  0.3312  0.2360
  916MOL0     C23585   8.725   7.828   3.685 -0.9750 -1.0924  0.4517
  916MOL0     C23586   8.792   7.714   3.750  0.8147  0.2898  0.3899
  916MOL0     C23587   8.739   7.580   3.700 -0.1515 -0.1247 -0.6581
  916MOL0     C23588   8.640   7.524   3.792  0.3364 -0.5700 -0.4011
  916MOL0     C23589   8.557   7.482   3.881 -0.1265 -0.2535  0.2972
  916MOL0     C23590   8.773   8.290   3.720  0.2424  0.1913  0.4099
  916MOL0     C23591   8.824   8.415   3.665 -0.6721  0.1376 -0.0888
  916MOL0     C23592   8.841   8.537   3.759  0.7059  0.3719 -1.2513
  916MOL0     H23593   8.689   8.834   3.455 -1.1550  1.5476  0.1646
  916MOL0     H23594   8.738   9.081   3.348 -0.0283  1.1468 -0.7468
  916MOL0     H23595   9.120   9.229   3.341 -3.1312 -2.7979  1.4660
  916MOL0     H23596   9.102   9.153   3.181  2.6885  1.6721 -0.0662
  916MOL0     H23597   8.979   9.435   3.251 -1.1807 -0.4020  0.0022
  916MOL0     H23598   8.959   9.343   3.104  0.8691 -1.4130 -1.0631
  916MOL0     H23599   9.190   9.459   3.248  3.7460 -1.1682 -1.6605
  916MOL0     H23600   9.109   9.498   3.080  4.4725 -0.2317 -2.5394
  916MOL0     H23601   9.294   9.274   3.149 -0.5934 -0.0607  0.9353
  916MOL0     H23602   9.216   9.300   2.994  2.6630  1.3584 -1.7505
  916MOL0     H23603   9.316   9.489   2.949 -0.2573 -0.7903 -0.2504
  916MOL0     H23604   9.394   9.504   3.116  1.2662  0.9760 -1.1663
  916MOL0     H23605   9.539   9.315   3.073 -1.9643  0.6382  0.7924
  916MOL0     H23606   9.430   9.266   2.942 -2.4577  1.9914 -1.0833
  916MOL0     H23607   9.638   9.487   2.971  0.2210  0.7827 -1.7478
  916MOL0     H23608   9.520   9.510   2.846  1.2308  2.5877 -0.1539
  916MOL0     H23609   9.724   9.290   2.837  0.9369  1.8376  1.4660
  916MOL0     H23610   9.587   9.324   2.720 -0.0259 -2.0709  0.8731
  916MOL0     H23611   9.848   9.547   2.873 -0.1600 -0.7184 -1.2632
  916MOL0     H23612   9.991   9.773   2.760 -0.2295 -0.7711  1.8540
  916MOL0     H23613  10.094   9.639   2.686 -1.7903 -2.2106  1.2759
  916MOL0     H23614  10.115   9.849   2.579 -0.4709  3.1043 -1.9211
  916MOL0     H23615  10.065   9.736   2.469  1.2354  0.9933  0.9568
  916MOL0     H23616   9.846   9.812   2.453 -0.1370  0.1275 -0.1272
  916MOL0     H23617   9.951   9.945   2.434 -0.3786  1.5919  1.4626
  916MOL0     H23618   9.915   9.976   2.697  0.3006  3.8372 -1.0445
  916MOL0     H23619   9.767   9.885   2.652  2.1046 -1.5181  2.4207
  916MOL0     H23620   9.708  10.064   2.832 -1.1486  1.6914  3.7502
  916MOL0     H23621   9.677  10.262   2.966  4.4331  3.1546  1.4055
  916MOL0     H23622   9.813  10.889   2.931 -0.0829 -1.1953 -0.8245
  916MOL0     H23623   9.675  11.084   3.023  1.2326  0.5786  0.8936
  916MOL0     H23624   9.217  11.069   3.061 -2.2128  0.2671  2.3842
  916MOL0     H23625   9.302  11.000   3.196 -3.9368 -0.3243  0.2255
  916MOL0     H23626   9.380  11.246   3.258 -0.4754 -0.1956  1.5702
  916MOL0     H23627   9.258  11.295   3.149  1.2553  0.8131  0.0757
  916MOL0     H23628   9.089  11.163   3.259  0.5718  3.3262 -1.0804
  916MOL0     H23629   9.200  11.087   3.377  0.8042  0.5998  0.5487
  916MOL0     H23630   9.120  11.388   3.372 -1.8550  1.2643  2.4147
  916MOL0     H23631   9.250  11.300   3.471  0.8316 -2.4474  0.6080
  916MOL0     H23632   9.049  11.166   3.568  1.6732 -2.2653 -2.5054
  916MOL0     H23633   8.949  11.222   3.434  0.2871 -2.1091  0.9895
  916MOL0     H23634   9.069  11.431   3.642  0.4980 -0.3792 -1.3706
  916MOL0     H23635   8.952  11.459   3.534  2.3215  0.3350 -0.7455
  916MOL0     H23636   8.933  11.269   3.773  3.0855  0.2898 -1.7373
  916MOL0     H23637   8.820  11.260   3.639  0.9931 -0.9305 -2.0043
  916MOL0     H23638   8.762  11.362   3.862  4.4548 -0.8505  1.9990
  916MOL0     H23639   8.865  11.498   3.839  0.2893  1.6697 -2.7747
  916MOL0     H23640   9.321  10.839   2.989 -0.3172 -3.1375 -2.3939
  916MOL0     H23641   9.455  10.652   2.932  2.2821 -1.4272 -2.2273
  916MOL0     H23642   9.808  10.521   2.654  3.0536  0.9919  3.5850
  916MOL0     H23643   9.783  10.343   2.495  2.6015  2.3889  1.1840
  916MOL0     H23644   9.138   8.995   3.329 -0.9947  1.8183 -1.4101
  916MOL0     H23645   9.111   8.763   3.448 -0.4057 -1.5746 -1.3663
  916MOL0     H23646   8.848   8.309   3.342 -1.1949  2.3099  0.6465
  916MOL0     H23647   8.751   8.108   3.436 -2.9554  2.7881 -1.9259
  916MOL0     H23648   8.785   7.963   3.842 -0.7757  2.9058  0.2237
  916MOL0     H23649   8.875   7.971   3.676 -0.0394 -1.3422  0.0058
  916MOL0     H23650   8.724   7.817   3.576 -0.1261  0.9167  0.1926
  916MOL0     H23651   8.618   7.821   3.709 -1.5413  2.7808 -0.2856
  916MOL0     H23652   8.774   7.721   3.858 -3.3793  0.9612 -0.1753
  916MOL0     H23653   8.898   7.726   3.725  0.6312  1.7079  0.2011
  916MOL0     H23654   8.691   7.586   3.602 -2.1954 -1.8563  0.1571
  916MOL0     H23655   8.834   7.527   3.688  1.4461  2.7266 -1.6944
  916MOL0     H23656   8.507   7.445   3.968  1.5929  1.6039  2.2011
  916MOL0     H23657   8.741   8.288   3.823 -1.2845 -2.1945 -0.0534
  916MOL0     H23658   8.940   8.584   3.755  1.8122 -1.2384  2.5757
  916MOL0     H23659   8.763   8.599   3.714  0.0064 -0.4910 -1.2501
  916MOL0     H23660   8.806   8.516   3.860  0.1126  0.5519 -1.4152
  917MOL0     O23661  10.462   0.779  10.203  0.0145 -0.4302 -0.6935
  917MOL0     C23662  10.506   0.815  10.098 -0.3509  0.4649  0.5959
  917MOL0     O23663  10.618   0.891  10.077  0.4606  0.9187  0.7209
  917MOL0     C23664  10.698   0.924  10.180  0.5022 -0.5129  0.1555
  917MOL0     C23665  10.725   1.054  10.187 -0.3145 -0.8058 -0.5982
  917MOL0     C23666  10.802   1.113  10.292  0.2324  0.5337  0.5506
  917MOL0     C23667  10.852   1.031  10.388  0.1771 -0.6197  0.7530
  917MOL0     O23668  10.923   1.084  10.490 -0.5366  0.1890 -0.8525
  917MOL0     C23669  10.947   1.219  10.511 -0.7953  0.8151 -0.0974
  917MOL0     C23670  11.067   1.267  10.438  0.3758  0.9943  0.1585
  917MOL0     C23671  11.188   1.184  10.448  0.3752  0.3140 -0.3784
  917MOL0     C23672  11.295   1.204  10.333 -0.3964 -0.5455  0.2283
  917MOL0     C23673  11.368   1.338  10.348 -0.3882 -0.2770 -0.3374
  917MOL0     C23674  11.493   1.322  10.437  0.6096 -0.4502 -0.6130
  917MOL0     C23675  11.562   1.458  10.435 -0.3590 -0.3159  0.1818
  917MOL0     C23676  11.669   1.455  10.536 -0.0889  0.3840 -0.5167
  917MOL0     N23677  11.762   1.567  10.520  0.5907 -0.0930 -0.1043
  917MOL0     C23678  11.722   1.694  10.475  0.5159  0.2108 -0.5182
  917MOL0     C23679  11.838   1.763  10.481 -0.1514 -0.1426 -0.8571
  917MOL0     C23680  11.852   1.908  10.457  0.4137  0.4786  0.4784
  917MOL0     C23681  11.739   1.967  10.363 -0.3122  1.2213 -0.8381
  917MOL0     C23682  11.761   1.892  10.222 -0.7113 -0.2342 -0.3152
  917MOL0     C23683  11.645   1.926  10.121 -0.3435 -0.4160 -0.0189
  917MOL0     O23684  11.612   2.062  10.089  0.5393 -0.4284  0.1979
  917MOL0     C23685  11.484   2.090  10.035  0.2520 -0.1021 -0.1393
  917MOL0     C23686  11.425   2.216  10.071  0.5697  0.2392  0.3036
  917MOL0     C23687  11.309   2.257  10.018  0.1848 -0.2512  0.2529
  917MOL0     C23688  11.242   2.171   9.921 -0.2330  0.3284  0.5877
  917MOL0     C23689  11.130   2.211   9.842 -0.9002  0.2556 -1.0610
  917MOL0     O23690  11.058   2.314   9.893  0.3493  0.0661 -0.1028
  917MOL0     C23691  10.998   2.416   9.809 -0.0463  0.2047  0.5198
  917MOL0     C23692  10.877   2.390   9.737  0.1025 -0.7779 -0.7610
  917MOL0     C23693  10.806   2.501   9.690 -0.4100  0.4343  0.1145
  917MOL0     C23694  10.851   2.634   9.687  0.9278 -0.3894  0.3619
  917MOL0     O23695  10.780   2.742   9.638  0.5123 -0.4439  0.6769
  917MOL0     C23696  10.660   2.776   9.716 -0.9615 -0.3490  0.6364
  917MOL0     C23697  10.536   2.712   9.669 -0.5569  0.6176  0.0381
  917MOL0     C23698  10.514   2.728   9.516  1.0040 -0.1521 -0.9254
  917MOL0     C23699  10.389   2.636   9.469  0.7093 -0.2260  0.0883
  917MOL0     C23700  10.369   2.628   9.316  0.2769 -0.3414 -0.3143
  917MOL0     C23701  10.271   2.508   9.272  0.1951  1.0039  0.7039
  917MOL0     C23702  10.237   2.510   9.124 -0.7489 -0.2730  0.8708
  917MOL0     C23703  10.173   2.379   9.078 -0.0199 -0.1754  0.5811
  917MOL0    Cl23704   9.994   2.379   9.131 -0.1756 -0.4636 -0.3874
  917MOL0     C23705  10.970   2.656   9.760 -0.0857  0.2520 -0.1586
  917MOL0     C23706  11.041   2.550   9.822  0.8074  0.1327  0.0991
  917MOL0     O23707  11.108   2.155   9.737 -0.5640 -0.2456 -0.4130
  917MOL0     C23708  11.297   2.047   9.903  0.1094 -0.0326 -0.3067
  917MOL0     C23709  11.414   2.002   9.962  0.8127 -0.0350 -0.2698
  917MOL0     N23710  11.940   1.672  10.486  0.1118  0.0718 -0.5173
  917MOL0     N23711  11.895   1.554  10.524 -0.0728 -0.1676 -0.3460
  917MOL0     C23712  10.816   0.892  10.391  1.1401 -0.1847 -0.4864
  917MOL0     C23713  10.750   0.831  10.281  0.1418 -0.5770 -0.5284
  917MOL0     C23714  10.417   0.755   9.993 -0.6773  0.5384  0.0359
  917MOL0     C23715  10.282   0.760  10.010  0.2949  0.8932  0.4354
  917MOL0     C23716  10.188   0.723   9.907  0.9752 -0.2914 -0.6093
  917MOL0     C23717  10.246   0.677   9.789  0.3924  0.4674  0.9125
  917MOL0     O23718  10.152   0.643   9.692 -0.3757 -0.0175 -0.8068
  917MOL0     C23719  10.077   0.527   9.739  0.3718 -0.0720  0.2983
  917MOL0     C23720  10.032   0.438   9.619  0.7898  0.3491 -0.1448
  917MOL0     C23721   9.936   0.522   9.523 -0.2745  0.2506  0.5993
  917MOL0     C23722   9.891   0.440   9.398 -0.3994 -0.0725 -1.4990
  917MOL0     C23723   9.776   0.359   9.437  1.2273 -0.1301 -0.3253
  917MOL0     C23724   9.677   0.299   9.485 -0.4693 -0.0882  0.1556
  917MOL0     C23725  10.388   0.668   9.773 -0.2246 -0.8283  0.4939
  917MOL0     C23726  10.473   0.716   9.867  0.2168 -0.1524  0.3034
  917MOL0     C23727  10.624   0.720   9.828  0.8534  0.1659  0.3329
  917MOL0     H23728  10.686   1.119  10.110 -0.1004 -1.4532 -1.2602
  917MOL0     H23729  10.834   1.217  10.283  0.7061  0.2519 -1.7963
  917MOL0     H23730  10.868   1.288  10.479 -1.6802  0.0920  0.4995
  917MOL0     H23731  10.955   1.241  10.617 -0.0520  3.1051 -0.5793
  917MOL0     H23732  11.087   1.368  10.474 -2.3766  2.2396 -1.5044
  917MOL0     H23733  11.033   1.272  10.334 -0.3328  4.0811  0.4562
  917MOL0     H23734  11.162   1.077  10.453  0.6069  0.3217  1.5075
  917MOL0     H23735  11.227   1.202  10.548 -0.8474 -0.3200  0.2333
  917MOL0     H23736  11.373   1.127  10.329  0.4533  0.2637  0.7325
  917MOL0     H23737  11.251   1.211  10.233 -0.4850  1.3031  0.3612
  917MOL0     H23738  11.403   1.372  10.251 -1.7901 -1.2332 -1.2143
  917MOL0     H23739  11.301   1.414  10.392  0.0835  0.3762 -0.7321
  917MOL0     H23740  11.460   1.285  10.535 -1.8583 -0.9210 -1.5456
  917MOL0     H23741  11.568   1.250  10.404  0.7932 -0.3015 -0.5237
  917MOL0     H23742  11.492   1.537  10.463 -0.5969 -0.0049 -1.2047
  917MOL0     H23743  11.605   1.486  10.338 -1.6869 -1.7134 -0.8726
  917MOL0     H23744  11.624   1.459  10.636 -2.1961  0.3565 -1.4379
  917MOL0     H23745  11.725   1.361  10.528  0.1358 -0.2077  4.6227
  917MOL0     H23746  11.621   1.726  10.450  0.3888  0.6534  0.5010
  917MOL0     H23747  11.856   1.968  10.548  0.7444  1.4857 -0.1804
  917MOL0     H23748  11.948   1.926  10.408  0.5571 -1.6844 -0.1434
  917MOL0     H23749  11.640   1.939  10.403  0.3048  1.2168  0.7748
  917MOL0     H23750  11.751   2.076  10.364  4.6252  0.8873 -1.7732
  917MOL0     H23751  11.756   1.784  10.234 -2.0619 -0.5219 -2.8196
  917MOL0     H23752  11.858   1.921  10.182  0.0729  0.5506  2.0150
  917MOL0     H23753  11.559   1.868  10.154  0.6040 -1.2878  1.0258
  917MOL0     H23754  11.681   1.882  10.028  0.0429  0.1329 -0.1355
  917MOL0     H23755  11.474   2.288  10.135  2.0348 -0.9243  0.5538
  917MOL0     H23756  11.253   2.347  10.040  1.7186  1.2340 -1.5209
  917MOL0     H23757  10.828   2.293   9.729  0.9810 -1.5023  1.5725
  917MOL0     H23758  10.710   2.486   9.643  0.3486  0.7836 -1.6362
  917MOL0     H23759  10.682   2.754   9.821  1.3904 -2.6735 -0.2085
  917MOL0     H23760  10.635   2.882   9.713 -0.0261  0.0040  2.8994
  917MOL0     H23761  10.537   2.611   9.710 -0.3194 -1.0387 -3.7071
  917MOL0     H23762  10.443   2.755   9.708  0.0758  1.2126  0.9502
  917MOL0     H23763  10.491   2.835   9.509  0.0188  0.0856  3.2769
  917MOL0     H23764  10.599   2.701   9.453 -0.2825  1.8346 -3.7071
  917MOL0     H23765  10.299   2.676   9.516  0.3276 -0.6018 -0.3112
  917MOL0     H23766  10.408   2.533   9.498  0.6827  0.1225  1.3936
  917MOL0     H23767  10.469   2.608   9.275  1.0083  0.4488  1.0248
  917MOL0     H23768  10.334   2.725   9.280  3.6714  1.1433  0.0289
  917MOL0     H23769  10.325   2.416   9.298 -0.8756  0.5986  1.5684
  917MOL0     H23770  10.183   2.505   9.337  0.9381  2.2056  1.8023
  917MOL0     H23771  10.336   2.525   9.079 -1.4134  1.2457 -0.1817
  917MOL0     H23772  10.174   2.595   9.098  0.7553  1.0835  1.4790
  917MOL0     H23773  10.175   2.381   8.969  0.2690  0.3968  0.5936
  917MOL0     H23774  10.224   2.289   9.114  0.9510  1.2523  2.9920
  917MOL0     H23775  11.000   2.760   9.767  0.3689  0.1669 -0.7564
  917MOL0     H23776  11.122   2.570   9.891 -0.4731  1.3173  1.3199
  917MOL0     H23777  11.254   1.985   9.825 -1.4430  0.6539 -0.0429
  917MOL0     H23778  11.448   1.900   9.946 -0.7457 -0.3743 -1.7911
  917MOL0     H23779  10.846   0.838  10.481 -1.4526  1.4726  1.5143
  917MOL0     H23780  10.713   0.729  10.289 -2.0422  0.3118  2.3125
  917MOL0     H23781  10.234   0.792  10.102  0.4175  4.3529 -0.5650
  917MOL0     H23782  10.080   0.725   9.916  0.9827 -0.3394 -0.5055
  917MOL0     H23783   9.999   0.559   9.808 -0.0195 -1.3314  0.4559
  917MOL0     H23784  10.149   0.473   9.800 -0.3427 -3.3297 -1.5158
  917MOL0     H23785   9.989   0.341   9.648  0.5857  1.1053  2.3012
  917MOL0     H23786  10.122   0.405   9.566  0.8920  0.9262 -0.3379
  917MOL0     H23787  10.008   0.596   9.488  3.7709 -1.5623  4.1547
  917MOL0     H23788   9.849   0.565   9.575  0.3797  0.0634  1.9000
  917MOL0     H23789   9.871   0.497   9.307  1.9354 -0.8852 -2.5900
  917MOL0     H23790   9.978   0.380   9.370  2.9406  3.1391  0.8945
  917MOL0     H23791   9.590   0.243   9.509 -0.5164  0.1080  0.4481
  917MOL0     H23792  10.430   0.628   9.681  1.3268 -0.6004  1.0695
  917MOL0     H23793  10.698   0.698   9.905  0.7456  1.3910  0.8144
  917MOL0     H23794  10.646   0.663   9.737  0.6809  0.7447 -0.0784
  917MOL0     H23795  10.657   0.815   9.785 -0.1269 -0.9969 -3.4044
  918MOL0     O23796   9.182   8.408   4.428  0.3840 -0.1119 -0.4969
  918MOL0     C23797   9.079   8.453   4.488  0.8443  0.1277  0.7108
  918MOL0     O23798   9.073   8.524   4.606 -0.2062  0.0326  0.2383
  918MOL0     C23799   9.159   8.503   4.709 -0.5006 -0.0609  0.2900
  918MOL0     C23800   9.180   8.376   4.747  0.0689  1.0026  0.5786
  918MOL0     C23801   9.289   8.351   4.843  1.1439 -0.4037  0.5440
  918MOL0     C23802   9.361   8.457   4.894 -1.0955 -0.0866  0.4672
  918MOL0     O23803   9.466   8.437   4.978 -0.1128 -0.0221 -0.4168
  918MOL0     C23804   9.591   8.470   4.920  0.3946  1.1159 -0.3533
  918MOL0     C23805   9.685   8.518   5.025 -0.2679 -0.3183  1.1307
  918MOL0     C23806   9.668   8.659   5.062 -1.5317  0.0177 -0.5603
  918MOL0     C23807   9.559   8.680   5.169 -0.1353 -0.6267  0.1422
  918MOL0     C23808   9.543   8.833   5.193  0.0073  0.3057 -0.7704
  918MOL0     C23809   9.415   8.853   5.285 -0.2718 -0.3209 -0.1300
  918MOL0     C23810   9.390   9.003   5.301 -0.4920  0.0491  0.6813
  918MOL0     C23811   9.267   9.028   5.377 -0.0093  0.4338 -0.3306
  918MOL0     N23812   9.272   9.170   5.401  0.1046 -0.0947 -0.0299
  918MOL0     C23813   9.321   9.229   5.518 -0.5251  0.1454  0.5981
  918MOL0     C23814   9.311   9.359   5.483 -0.7521  0.5255 -0.2311
  918MOL0     C23815   9.362   9.475   5.559 -0.6823 -0.1691 -0.4984
  918MOL0     C23816   9.469   9.542   5.472  0.8686  1.0490  0.7813
  918MOL0     C23817   9.544   9.666   5.524 -0.2363  0.9812 -0.0888
  918MOL0     C23818   9.467   9.790   5.493 -1.0514  0.9806 -0.5173
  918MOL0     O23819   9.511   9.831   5.363 -0.7185  0.1820  0.3729
  918MOL0     C23820   9.434   9.928   5.303  0.5874  0.2372 -0.9474
  918MOL0     C23821   9.414   9.907   5.166 -0.2351 -0.0730  0.6860
  918MOL0     C23822   9.337   9.995   5.093  0.7765 -0.1866 -0.1322
  918MOL0     C23823   9.271  10.100   5.158  0.2810  0.5556  0.2535
  918MOL0     C23824   9.198  10.188   5.074 -0.1907 -0.4664  0.9421
  918MOL0     O23825   9.189  10.174   4.939 -1.3114 -0.2767  0.0446
  918MOL0     C23826   9.092  10.243   4.867 -0.6498  0.3638 -0.9785
  918MOL0     C23827   9.027  10.177   4.760  0.3347  0.3328  0.4045
  918MOL0     C23828   8.936  10.235   4.672 -0.1339 -0.2734  0.0444
  918MOL0     C23829   8.903  10.365   4.707 -0.2272 -0.6644 -0.1239
  918MOL0     O23830   8.806  10.429   4.635  0.0611  0.2630 -0.4458
  918MOL0     C23831   8.690  10.481   4.712  0.1161  1.2023  0.3461
  918MOL0     C23832   8.689  10.631   4.761  0.0167  0.2855 -0.1308
  918MOL0     C23833   8.720  10.715   4.635  0.1854 -1.2734 -0.5977
  918MOL0     C23834   8.678  10.859   4.655 -0.0587  0.1946  0.3771
  918MOL0     C23835   8.726  10.948   4.533  0.5725 -0.3374  0.2505
  918MOL0     C23836   8.715  11.085   4.585 -0.0415 -1.3052  0.7345
  918MOL0     C23837   8.788  11.183   4.489  0.0978 -0.0304  0.1122
  918MOL0     C23838   8.778  11.321   4.527  0.4279 -0.1431  0.0097
  918MOL0    Cl23839   8.775  11.362   4.700  0.8824  0.3452  0.2149
  918MOL0     C23840   8.979  10.444   4.792  0.9644 -0.1122  0.2901
  918MOL0     C23841   9.068  10.381   4.879 -0.1568 -0.0274 -0.6307
  918MOL0     O23842   9.131  10.266   5.133  1.1553 -0.3474  0.5495
  918MOL0     C23843   9.286  10.119   5.300 -1.2605 -0.7692 -0.1321
  918MOL0     C23844   9.360  10.021   5.370 -0.3379  0.3515  0.3931
  918MOL0     N23845   9.256   9.370   5.364 -0.2856  0.3600  0.2328
  918MOL0     N23846   9.252   9.259   5.308  0.2170 -0.1639 -0.6380
  918MOL0     C23847   9.342   8.587   4.849 -0.0845  0.1067  0.1320
  918MOL0     C23848   9.239   8.605   4.759 -0.7313 -0.2229  0.0167
  918MOL0     C23849   8.964   8.429   4.405  0.7383 -0.1710 -0.1535
  918MOL0     C23850   8.885   8.536   4.385  0.3323  0.0598  1.0179
  918MOL0     C23851   8.775   8.533   4.308  0.2393 -0.8494 -0.2510
  918MOL0     C23852   8.738   8.411   4.260 -0.3137  0.0570 -0.2879
  918MOL0     O23853   8.619   8.401   4.191  0.7670 -0.0398 -0.2854
  918MOL0     C23854   8.628   8.390   4.047  0.3708  0.7623 -0.5643
  918MOL0     C23855   8.522   8.292   3.984 -1.1432 -0.8546  0.7683
  918MOL0     C23856   8.564   8.146   4.013  0.4374  0.7403 -0.2249
  918MOL0     C23857   8.468   8.049   3.952 -0.1352 -0.3158 -0.2046
  918MOL0     C23858   8.503   7.905   3.980  0.0528 -0.3654 -0.5190
  918MOL0     C23859   8.526   7.794   4.007 -0.1556 -0.3581 -0.6594
  918MOL0     C23860   8.814   8.297   4.284 -0.1476 -0.7577 -0.7426
  918MOL0     C23861   8.937   8.303   4.363  0.1368 -0.1151 -0.0693
  918MOL0     C23862   9.008   8.167   4.395  0.6022 -0.0544  0.0010
  918MOL0     H23863   9.114   8.294   4.720 -0.2022  2.0454 -2.3604
  918MOL0     H23864   9.301   8.250   4.879 -0.1541 -0.9945 -0.5898
  918MOL0     H23865   9.625   8.378   4.872 -1.1882 -0.5420  1.5140
  918MOL0     H23866   9.590   8.539   4.835 -1.3654  2.3958  0.6456
  918MOL0     H23867   9.783   8.508   4.977  0.4269  0.3606  2.3382
  918MOL0     H23868   9.674   8.453   5.113 -4.9443 -0.7699  0.4408
  918MOL0     H23869   9.638   8.714   4.972 -3.7156 -2.6637 -1.6152
  918MOL0     H23870   9.765   8.692   5.100 -1.8286  1.7302 -1.1880
  918MOL0     H23871   9.471   8.649   5.111 -2.0912  0.4119  2.3977
  918MOL0     H23872   9.574   8.636   5.268  3.8714 -0.1885 -0.1114
  918MOL0     H23873   9.628   8.887   5.236 -0.5212 -0.8410  1.9513
  918MOL0     H23874   9.531   8.876   5.093 -1.2243  0.3946 -0.5985
  918MOL0     H23875   9.335   8.807   5.226 -1.2730  0.9190  0.2161
  918MOL0     H23876   9.433   8.807   5.383  0.8300  0.7735  0.2186
  918MOL0     H23877   9.384   9.052   5.204  2.0019 -0.2363  0.3076
  918MOL0     H23878   9.480   9.046   5.346 -0.6858  1.0914  0.0791
  918MOL0     H23879   9.181   8.999   5.317  0.1263  1.6374 -1.1256
  918MOL0     H23880   9.271   8.973   5.472 -1.3619  1.5327  0.3973
  918MOL0     H23881   9.363   9.192   5.611 -1.4102  2.7677  2.1581
  918MOL0     H23882   9.284   9.546   5.590 -0.2250  0.2536 -0.3096
  918MOL0     H23883   9.417   9.457   5.652  0.8114  4.1010 -0.3343
  918MOL0     H23884   9.545   9.464   5.456 -3.1932 -3.2829  0.4681
  918MOL0     H23885   9.424   9.566   5.376 -0.9111 -1.8728  0.7730
  918MOL0     H23886   9.640   9.681   5.474 -0.9606  4.7164 -0.6319
  918MOL0     H23887   9.554   9.669   5.633  2.3717  0.4578 -0.2692
  918MOL0     H23888   9.498   9.864   5.568 -0.1989 -0.5797  0.7408
  918MOL0     H23889   9.360   9.773   5.508 -0.7669 -0.3467  0.1213
  918MOL0     H23890   9.467   9.822   5.123  0.8882  0.9364  0.0067
  918MOL0     H23891   9.330   9.984   4.985 -2.6445  1.7051 -0.2759
  918MOL0     H23892   9.052  10.077   4.728 -0.8674  0.4758 -1.0702
  918MOL0     H23893   8.900  10.192   4.579 -0.3991 -1.4189  0.6572
  918MOL0     H23894   8.615  10.462   4.635 -0.3329  2.6011  0.4151
  918MOL0     H23895   8.667  10.417   4.798  1.2945  1.7928  1.1334
  918MOL0     H23896   8.589  10.656   4.797 -1.0500 -1.4750 -1.7024
  918MOL0     H23897   8.769  10.650   4.835  0.2006  0.1089 -0.2836
  918MOL0     H23898   8.828  10.717   4.616  0.0368  0.3162 -1.4384
  918MOL0     H23899   8.677  10.667   4.546  1.3665 -2.3218 -0.6327
  918MOL0     H23900   8.727  10.896   4.746 -2.6777  2.7727  0.8853
  918MOL0     H23901   8.569  10.871   4.653 -0.2245 -1.1370 -1.4362
  918MOL0     H23902   8.658  10.935   4.448  1.9604 -2.0366 -0.6991
  918MOL0     H23903   8.830  10.932   4.502  0.1981 -4.9960  0.6126
  918MOL0     H23904   8.613  11.123   4.590  0.3181 -0.1172 -0.3293
  918MOL0     H23905   8.757  11.095   4.685  2.5259  0.2792 -0.3789
  918MOL0     H23906   8.757  11.168   4.385  1.1983 -0.2239 -0.2004
  918MOL0     H23907   8.892  11.150   4.500  1.6356  3.9980 -0.7930
  918MOL0     H23908   8.861  11.372   4.476  3.0674 -0.5653  3.4443
  918MOL0     H23909   8.688  11.367   4.485 -0.0149 -2.0700 -1.2398
  918MOL0     H23910   8.958  10.551   4.790  2.0049  0.1101  0.3936
  918MOL0     H23911   9.111  10.447   4.954 -0.1254 -1.5550  0.7701
  918MOL0     H23912   9.248  10.202   5.359  2.0309  1.0757 -0.3838
  918MOL0     H23913   9.378  10.040   5.475  0.1201 -0.2252  0.4250
  918MOL0     H23914   9.399   8.665   4.897  1.9052 -1.5478  0.6174
  918MOL0     H23915   9.221   8.703   4.715 -1.3714 -1.0979 -1.7594
  918MOL0     H23916   8.915   8.635   4.420 -0.3251  1.9705 -3.1994
  918MOL0     H23917   8.716   8.621   4.282 -1.8189 -2.3613 -0.9627
  918MOL0     H23918   8.727   8.347   4.029 -1.3808 -5.0106  1.3621
  918MOL0     H23919   8.627   8.494   4.014  1.0087  0.3485 -1.9443
  918MOL0     H23920   8.535   8.298   3.875 -1.0474 -2.4838  0.6587
  918MOL0     H23921   8.415   8.309   3.999 -1.9390 -0.1749 -3.9839
  918MOL0     H23922   8.575   8.133   4.120  1.5233 -0.6912 -0.4893
  918MOL0     H23923   8.659   8.115   3.970 -0.7309 -3.9576  0.0306
  918MOL0     H23924   8.372   8.073   3.998 -0.3864 -0.8086 -0.4680
  918MOL0     H23925   8.461   8.072   3.846 -0.6297  1.1385  0.1209
  918MOL0     H23926   8.563   7.695   4.028  1.4973  0.8572  3.1080
  918MOL0     H23927   8.780   8.200   4.248  0.4908 -2.0870  1.9258
  918MOL0     H23928   9.061   8.161   4.491 -0.0490  1.6804  0.5013
  918MOL0     H23929   8.931   8.090   4.387  1.1511 -0.4080 -3.5426
  918MOL0     H23930   9.085   8.136   4.324 -0.1683 -1.3772 -0.2838
  919MOL0     O23931   4.650   9.397   9.497 -0.0468  0.1743  0.3338
  919MOL0     C23932   4.735   9.322   9.444 -0.1088  0.1303  0.0400
  919MOL0     O23933   4.769   9.189   9.482 -0.1982 -0.0814 -0.1803
  919MOL0     C23934   4.702   9.136   9.592  0.6284 -0.3158 -0.8902
  919MOL0     C23935   4.566   9.094   9.593  0.7986  0.2633 -0.3911
  919MOL0     C23936   4.495   9.063   9.713 -0.5364 -0.4337 -0.3786
  919MOL0     C23937   4.572   9.051   9.827  0.3606 -0.0728  0.3323
  919MOL0     O23938   4.521   9.014   9.951 -0.3121  0.5374 -0.1698
  919MOL0     C23939   4.384   9.042   9.983 -0.0051 -0.1070 -0.3495
  919MOL0     C23940   4.386   9.023  10.137  0.2517 -0.1614 -0.2797
  919MOL0     C23941   4.243   9.057  10.193 -0.8255 -0.2705 -0.8417
  919MOL0     C23942   4.246   9.050  10.335 -0.5626 -0.1792 -0.0029
  919MOL0     C23943   4.111   9.024  10.407 -0.5682 -0.1116 -0.1015
  919MOL0     C23944   4.125   9.043  10.559 -0.0081 -0.1184  0.0272
  919MOL0     C23945   4.007   9.007  10.652  0.8313 -0.4105  0.1964
  919MOL0     C23946   4.045   9.018  10.795  0.2100  0.0033 -0.9617
  919MOL0     N23947   3.931   9.045  10.886  0.3140 -0.6875  0.1980
  919MOL0     C23948   3.873   9.169  10.903  0.1805  0.3072 -0.1246
  919MOL0     C23949   3.772   9.145  10.989 -0.3318  0.5067 -0.8979
  919MOL0     C23950   3.664   9.243  11.025 -0.8608 -0.5530 -0.4451
  919MOL0     C23951   3.550   9.239  10.934  0.3728  0.3377  0.8056
  919MOL0     C23952   3.452   9.354  10.955  0.1259 -1.0665 -0.0490
  919MOL0     C23953   3.324   9.354  10.859  0.9909  0.1009  0.0707
  919MOL0     O23954   3.373   9.392  10.725 -0.4198  0.5171 -0.0890
  919MOL0     C23955   3.270   9.403  10.637  0.5057 -0.3313 -1.1253
  919MOL0     C23956   3.168   9.306  10.621  0.4450 -0.0087 -0.3111
  919MOL0     C23957   3.054   9.324  10.525  0.7771 -0.5615 -0.1093
  919MOL0     C23958   3.041   9.441  10.454  0.0866  0.5182  0.2663
  919MOL0     C23959   2.934   9.463  10.357 -1.0888  0.3927  0.4560
  919MOL0     O23960   2.897   9.349  10.283  0.7909 -0.0025 -0.1041
  919MOL0     C23961   2.784   9.348  10.205  0.4166 -1.0227 -0.0305
  919MOL0     C23962   2.749   9.456  10.118  0.8046  0.5736  0.3426
  919MOL0     C23963   2.629   9.445  10.045  0.4732  0.5487 -1.2228
  919MOL0     C23964   2.545   9.333  10.063  0.1643  0.4516  0.5565
  919MOL0     O23965   2.435   9.306   9.977  0.2750  0.1765  0.3295
  919MOL0     C23966   2.350   9.426   9.950  0.4358  0.9825 -0.6165
  919MOL0     C23967   2.246   9.374   9.848  0.1758 -0.4498  0.1565
  919MOL0     C23968   2.141   9.474   9.827 -0.3604 -0.4784 -0.4543
  919MOL0     C23969   2.178   9.591   9.730 -0.0664  1.5314  0.0622
  919MOL0     C23970   2.079   9.617   9.613  0.3329 -0.1193 -1.2169
  919MOL0     C23971   1.991   9.746   9.618  1.1940  0.6349 -0.7891
  919MOL0     C23972   2.073   9.872   9.636  0.2288 -0.2851 -0.4163
  919MOL0     C23973   2.033   9.956   9.760 -0.4982  0.5623  0.7575
  919MOL0    Cl23974   1.881  10.052   9.731 -0.5939 -0.0581 -0.3188
  919MOL0     C23975   2.593   9.230  10.141 -0.1238  0.6610  0.6150
  919MOL0     C23976   2.706   9.231  10.219  0.8688 -0.1712  0.0954
  919MOL0     O23977   2.888   9.578  10.347  0.3414 -0.6216 -0.0990
  919MOL0     C23978   3.146   9.529  10.475 -0.1679 -0.0659  0.2010
  919MOL0     C23979   3.253   9.512  10.564  0.5413  0.2054  0.3957
  919MOL0     N23980   3.769   9.005  11.023  0.6552 -1.2556 -0.1011
  919MOL0     N23981   3.867   8.947  10.963  0.6676 -0.5498  0.1118
  919MOL0     C23982   4.713   9.073   9.824 -0.3334 -0.3457  0.1781
  919MOL0     C23983   4.776   9.130   9.713 -0.5598  0.1836  0.7988
  919MOL0     C23984   4.822   9.371   9.333 -0.2207 -0.0998  0.4892
  919MOL0     C23985   4.872   9.278   9.238 -0.1465  0.2297 -0.8727
  919MOL0     C23986   4.943   9.310   9.123  0.0818  0.3759  0.4786
  919MOL0     C23987   4.966   9.449   9.105 -0.1528 -0.6413 -0.2780
  919MOL0     O23988   5.029   9.511   8.994  0.4498  0.2425  0.0255
  919MOL0     C23989   5.065   9.425   8.893 -0.1465  0.4488  0.2677
  919MOL0     C23990   5.208   9.353   8.908 -0.3554 -1.2183  0.0891
  919MOL0     C23991   5.314   9.467   8.925 -0.0241  0.5690  0.5951
  919MOL0     C23992   5.404   9.462   8.794  0.9824  0.0945 -0.0544
  919MOL0     C23993   5.337   9.501   8.672  0.0893  0.1088  0.6462
  919MOL0     C23994   5.297   9.545   8.565 -0.2903 -0.7515  0.1154
  919MOL0     C23995   4.907   9.545   9.194  0.7917  0.4509 -1.1261
  919MOL0     C23996   4.834   9.507   9.308 -0.2311 -0.0352  1.1394
  919MOL0     C23997   4.797   9.628   9.398  0.2097 -0.9083  0.2002
  919MOL0     H23998   4.514   9.113   9.500 -1.9460  2.2851  1.4089
  919MOL0     H23999   4.389   9.045   9.721 -0.7056 -0.8648 -2.6646
  919MOL0     H24000   4.350   9.142   9.957  0.4904  0.9695  2.7190
  919MOL0     H24001   4.311   8.969   9.947 -0.4470  0.0609  0.1796
  919MOL0     H24002   4.451   9.100  10.180 -0.9314  1.5872 -1.5251
  919MOL0     H24003   4.410   8.928  10.187 -1.1266  1.0829  3.0488
  919MOL0     H24004   4.173   8.986  10.146 -0.7486 -1.3503  0.6300
  919MOL0     H24005   4.209   9.153  10.153 -2.8606 -1.2424 -1.6085
  919MOL0     H24006   4.319   8.974  10.365  0.9026  0.0144 -2.7289
  919MOL0     H24007   4.297   9.141  10.370  0.5339 -0.5719 -0.5162
  919MOL0     H24008   4.039   9.102  10.380  1.0527  0.9836 -1.5170
  919MOL0     H24009   4.074   8.923  10.388  1.1851 -1.2349  1.9477
  919MOL0     H24010   4.206   8.979  10.594  1.6219  1.6439 -0.4014
  919MOL0     H24011   4.155   9.148  10.563 -2.8489  0.9600 -2.6957
  919MOL0     H24012   3.970   8.904  10.640  1.3767 -0.6022  0.1577
  919MOL0     H24013   3.925   9.076  10.633  1.0953  0.1075  0.9103
  919MOL0     H24014   4.088   8.922  10.824 -0.3908 -0.4204 -1.4446
  919MOL0     H24015   4.123   9.095  10.798  1.2616 -1.0089 -1.4805
  919MOL0     H24016   3.890   9.265  10.856 -2.4579  0.4574 -0.9096
  919MOL0     H24017   3.638   9.238  11.131 -3.2146 -1.0856 -0.9900
  919MOL0     H24018   3.699   9.343  10.998 -1.8903 -0.5642 -1.9418
  919MOL0     H24019   3.589   9.241  10.832 -0.9246  0.4356  0.2872
  919MOL0     H24020   3.490   9.151  10.959  1.3579 -0.7227 -0.4241
  919MOL0     H24021   3.497   9.451  10.931 -0.4995 -1.1959 -1.9028
  919MOL0     H24022   3.410   9.354  11.056 -1.6007 -1.5397 -0.7411
  919MOL0     H24023   3.244   9.418  10.896 -0.5748 -0.4384 -2.1442
  919MOL0     H24024   3.290   9.250  10.861 -0.4541  0.3672 -3.2956
  919MOL0     H24025   3.187   9.217  10.679 -0.5624  0.5516  0.9129
  919MOL0     H24026   2.975   9.250  10.511 -1.1285  0.6373  3.2688
  919MOL0     H24027   2.815   9.541  10.104  4.1800 -1.8932 -0.1139
  919MOL0     H24028   2.594   9.514   9.968 -1.6761 -0.6445 -1.3816
  919MOL0     H24029   2.308   9.474  10.038  0.6633  1.5020 -0.7869
  919MOL0     H24030   2.405   9.508   9.903 -0.2699  1.8831  0.1034
  919MOL0     H24031   2.292   9.344   9.754 -1.1090 -0.1085 -0.6055
  919MOL0     H24032   2.178   9.293   9.876 -2.7567  2.3202  1.7245
  919MOL0     H24033   2.049   9.436   9.780 -3.2133  2.2132  2.4393
  919MOL0     H24034   2.108   9.516   9.922  0.9334 -0.1570 -0.1243
  919MOL0     H24035   2.275   9.560   9.692 -0.2959 -0.3985  0.9241
  919MOL0     H24036   2.190   9.685   9.785 -0.7331  0.4930  2.0734
  919MOL0     H24037   2.019   9.527   9.597  0.6868 -0.4357 -0.8163
  919MOL0     H24038   2.133   9.632   9.519  0.9108 -3.6536 -1.5842
  919MOL0     H24039   1.931   9.760   9.527 -0.0156  3.4706  0.3215
  919MOL0     H24040   1.916   9.741   9.697  2.9180 -1.6287  0.8411
  919MOL0     H24041   2.053   9.932   9.547  1.8368  0.6256 -0.2104
  919MOL0     H24042   2.182   9.860   9.639  0.2725  0.1600 -0.1963
  919MOL0     H24043   2.021   9.884   9.841 -1.9961 -3.0213 -2.3801
  919MOL0     H24044   2.110  10.034   9.771  1.8512 -1.2981 -1.1581
  919MOL0     H24045   2.535   9.138  10.139 -0.2063  0.6916  1.3313
  919MOL0     H24046   2.730   9.148  10.284  0.8349 -0.1804  0.0962
  919MOL0     H24047   3.147   9.626  10.426  2.3511 -0.4152 -0.5791
  919MOL0     H24048   3.322   9.596  10.575 -2.0616  2.3914  1.2657
  919MOL0     H24049   4.766   9.086   9.918 -3.3569 -3.1351  2.4742
  919MOL0     H24050   4.879   9.163   9.724 -1.7011  3.5688  2.7005
  919MOL0     H24051   4.865   9.171   9.252 -0.7432  0.3303 -0.3763
  919MOL0     H24052   4.969   9.236   9.048 -1.1188 -1.7019  2.0106
  919MOL0     H24053   5.077   9.480   8.799 -0.2357  1.2328  0.7033
  919MOL0     H24054   4.999   9.344   8.862  0.9571  0.4463 -2.3865
  919MOL0     H24055   5.228   9.276   8.832  2.8621 -0.1957 -0.2699
  919MOL0     H24056   5.203   9.294   8.999  2.3569 -2.7861 -0.6473
  919MOL0     H24057   5.385   9.449   9.007  1.8318 -2.7483 -1.5161
  919MOL0     H24058   5.261   9.562   8.929 -1.3239  0.0807 -2.6088
  919MOL0     H24059   5.484   9.537   8.802  0.0265  1.0961  0.4034
  919MOL0     H24060   5.455   9.366   8.786 -0.2652 -0.4714 -1.5447
  919MOL0     H24061   5.260   9.576   8.469  0.2252  0.4608  0.2925
  919MOL0     H24062   4.936   9.648   9.177  1.2168  1.0472  2.3594
  919MOL0     H24063   4.702   9.624   9.452 -0.3656  0.7041 -0.6196
  919MOL0     H24064   4.865   9.647   9.481 -0.9883  1.9986  0.6372
  919MOL0     H24065   4.801   9.724   9.346  0.8280  0.4608  2.6389
  920MOL0     O24066   7.802   1.685   1.095 -0.5174  0.1097  0.0690
  920MOL0     C24067   7.788   1.677   0.969 -0.8039 -0.8001 -0.0908
  920MOL0     O24068   7.698   1.738   0.894  0.4247  0.7855 -0.4016
  920MOL0     C24069   7.577   1.766   0.951  0.0567  0.4635 -0.5019
  920MOL0     C24070   7.478   1.673   0.921  0.0039 -0.3368  1.3125
  920MOL0     C24071   7.355   1.689   0.975 -0.6388 -0.2927 -0.5597
  920MOL0     C24072   7.332   1.795   1.071 -0.4339  0.0967  0.3282
  920MOL0     O24073   7.216   1.813   1.146  0.0901 -0.2182  0.6114
  920MOL0     C24074   7.102   1.729   1.117 -0.0112  0.0304 -0.0098
  920MOL0     C24075   7.005   1.767   1.227 -1.0462  0.8846  0.3788
  920MOL0     C24076   6.880   1.675   1.231  0.1763 -0.0909 -0.7500
  920MOL0     C24077   6.830   1.655   1.372 -0.3786  0.8240 -0.8037
  920MOL0     C24078   6.709   1.566   1.389  0.4575 -0.2210 -0.0692
  920MOL0     C24079   6.709   1.421   1.336 -0.4882 -0.9342 -0.4106
  920MOL0     C24080   6.565   1.357   1.364 -0.1832  0.7180  0.2950
  920MOL0     C24081   6.551   1.232   1.277  0.2890  0.2374 -0.3727
  920MOL0     N24082   6.527   1.251   1.132 -0.6186 -0.0963  0.7692
  920MOL0     C24083   6.419   1.316   1.080 -1.1634 -0.0390  0.4720
  920MOL0     C24084   6.434   1.283   0.946  0.3727 -0.4254 -0.3139
  920MOL0     C24085   6.347   1.328   0.840  0.8008  0.1383 -0.1665
  920MOL0     C24086   6.346   1.476   0.801 -0.3197  0.5905 -0.2133
  920MOL0     C24087   6.211   1.518   0.748 -0.1522 -0.1766 -0.0189
  920MOL0     C24088   6.118   1.585   0.852 -0.4748 -0.5235 -0.2075
  920MOL0     O24089   6.153   1.721   0.873  0.8485 -0.6129 -0.7483
  920MOL0     C24090   6.143   1.818   0.776 -0.4163  0.0396  0.9326
  920MOL0     C24091   6.072   1.812   0.658  0.5698 -0.4514 -0.3386
  920MOL0     C24092   6.090   1.897   0.555 -0.8425 -0.9053 -0.4270
  920MOL0     C24093   6.161   2.021   0.574  0.4127 -0.8572  0.0422
  920MOL0     C24094   6.182   2.128   0.477 -0.1565  0.3639  0.6742
  920MOL0     O24095   6.279   2.222   0.502 -0.5040 -0.1805  0.3922
  920MOL0     C24096   6.324   2.308   0.402  0.0430  0.7543 -0.1191
  920MOL0     C24097   6.260   2.427   0.384  0.1400  0.0657  0.3932
  920MOL0     C24098   6.290   2.498   0.272 -0.6508 -0.5691 -0.4080
  920MOL0     C24099   6.385   2.463   0.173 -0.0389  0.0520  0.2358
  920MOL0     O24100   6.409   2.518   0.054  0.0942 -0.0568 -0.1733
  920MOL0     C24101   6.340   2.645   0.013 -0.5475  0.2226 -0.6001
  920MOL0     C24102   6.419   2.718  -0.089  0.6299  0.3559  0.2853
  920MOL0     C24103   6.352   2.852  -0.126 -1.1253  1.1343  0.7301
  920MOL0     C24104   6.358   2.895  -0.264  0.7034  0.4567 -1.1518
  920MOL0     C24105   6.313   3.042  -0.267  0.3023 -0.3840  0.0360
  920MOL0     C24106   6.348   3.090  -0.414  0.2275 -1.0393  0.2019
  920MOL0     C24107   6.259   3.220  -0.458  0.4311  0.1349 -0.5101
  920MOL0     C24108   6.228   3.323  -0.351 -0.6527  0.3411  0.1783
  920MOL0    Cl24109   6.176   3.481  -0.419  0.1232 -0.1843  0.4500
  920MOL0     C24110   6.448   2.342   0.195 -0.6506  0.0033 -0.5629
  920MOL0     C24111   6.416   2.262   0.307  0.5200  0.4968  0.5502
  920MOL0     O24112   6.114   2.121   0.371 -1.1232 -0.1628 -0.2360
  920MOL0     C24113   6.216   2.036   0.704 -0.0514  0.0906  0.0589
  920MOL0     C24114   6.219   1.934   0.798  0.3767 -0.0757  0.0955
  920MOL0     N24115   6.543   1.192   0.922 -0.1401  0.1417  0.0601
  920MOL0     N24116   6.593   1.178   1.037 -0.0924  0.1945  0.2008
  920MOL0     C24117   7.435   1.894   1.098  0.0769 -0.5314  1.2062
  920MOL0     C24118   7.552   1.879   1.035 -0.0385  1.2890 -0.0352
  920MOL0     C24119   7.877   1.569   0.902 -0.4086 -0.0553  0.5118
  920MOL0     C24120   7.992   1.509   0.971 -0.3217 -0.6415 -0.5451
  920MOL0     C24121   8.079   1.419   0.904  0.9490 -0.2106  0.3600
  920MOL0     C24122   8.061   1.392   0.763  0.2511  1.6908  0.0354
  920MOL0     O24123   8.149   1.323   0.678 -0.9134 -0.5495  0.7242
  920MOL0     C24124   8.270   1.273   0.726  0.1351  0.4294 -0.0391
  920MOL0     C24125   8.249   1.133   0.793 -0.5014 -0.9951 -0.1422
  920MOL0     C24126   8.383   1.073   0.833 -1.0366 -0.8316 -0.0948
  920MOL0     C24127   8.459   1.014   0.716 -0.1680  0.2551 -0.3069
  920MOL0     C24128   8.388   0.885   0.676 -0.2988 -1.1532  0.1923
  920MOL0     C24129   8.327   0.784   0.657  0.5272 -0.5859 -0.5280
  920MOL0     C24130   7.962   1.460   0.701  1.0053  0.6386 -0.0096
  920MOL0     C24131   7.863   1.544   0.763  0.1044  0.2859  0.5751
  920MOL0     C24132   7.745   1.583   0.668  0.0518  0.3209  0.5584
  920MOL0     H24133   7.503   1.585   0.862 -2.5183  0.7795 -1.7068
  920MOL0     H24134   7.282   1.609   0.964  0.5420 -1.9388  2.3826
  920MOL0     H24135   7.070   1.735   1.013  2.5956  0.7734 -0.8606
  920MOL0     H24136   7.135   1.626   1.127 -0.1778 -0.4977 -3.5528
  920MOL0     H24137   6.977   1.873   1.220  2.3519  1.7879 -1.5440
  920MOL0     H24138   7.060   1.753   1.320  0.8529  1.2312 -0.6489
  920MOL0     H24139   6.885   1.591   1.162  4.3827 -0.4550 -0.2984
  920MOL0     H24140   6.791   1.730   1.199 -1.5841 -2.0938  0.4492
  920MOL0     H24141   6.905   1.599   1.429 -1.0452 -0.1537 -0.8667
  920MOL0     H24142   6.808   1.746   1.429  1.7276 -1.4028  4.2661
  920MOL0     H24143   6.683   1.567   1.495 -1.0644 -2.5267 -0.3251
  920MOL0     H24144   6.632   1.617   1.331 -0.3373 -1.7590 -0.4283
  920MOL0     H24145   6.737   1.410   1.231  0.4290  0.5042 -0.3539
  920MOL0     H24146   6.783   1.368   1.396 -1.5894  1.0007  2.9362
  920MOL0     H24147   6.489   1.422   1.319 -0.8252 -0.4006 -0.2823
  920MOL0     H24148   6.541   1.335   1.469  1.6644  1.5537  0.9348
  920MOL0     H24149   6.641   1.171   1.286  1.3850  1.8486  0.0718
  920MOL0     H24150   6.476   1.164   1.319  1.7853 -0.1164  1.8901
  920MOL0     H24151   6.345   1.375   1.133  0.0568  2.2156 -0.2352
  920MOL0     H24152   6.380   1.287   0.745 -0.2561  1.7359 -1.2748
  920MOL0     H24153   6.245   1.295   0.866  0.6367  1.3746  0.8833
  920MOL0     H24154   6.371   1.528   0.894 -1.6851  1.0244 -0.0713
  920MOL0     H24155   6.438   1.478   0.741 -0.9699 -6.3870 -2.3652
  920MOL0     H24156   6.154   1.444   0.691  1.1123 -0.6254 -0.7418
  920MOL0     H24157   6.240   1.597   0.677 -0.4540  1.4709  1.6033
  920MOL0     H24158   6.123   1.536   0.950 -3.4018  1.1489  0.9022
  920MOL0     H24159   6.020   1.563   0.809 -1.0066 -2.2686  1.7295
  920MOL0     H24160   6.015   1.721   0.642 -0.6226 -0.4154  3.0243
  920MOL0     H24161   6.046   1.894   0.456 -1.7544  3.3398 -0.3640
  920MOL0     H24162   6.176   2.477   0.432  1.1302  0.8503  1.3573
  920MOL0     H24163   6.218   2.577   0.256  1.5442  1.8386  0.7106
  920MOL0     H24164   6.240   2.620  -0.022 -1.4273  1.4999  0.8683
  920MOL0     H24165   6.335   2.713   0.099  0.1747 -1.9821  1.2730
  920MOL0     H24166   6.517   2.740  -0.045 -1.0916 -0.9290  5.4903
  920MOL0     H24167   6.428   2.652  -0.176  2.4428 -1.1969  1.5730
  920MOL0     H24168   6.248   2.854  -0.092 -0.7420 -0.4835  2.1818
  920MOL0     H24169   6.409   2.924  -0.067 -2.4005  1.8338  1.1624
  920MOL0     H24170   6.300   2.840  -0.337  0.0159  1.9711 -1.7912
  920MOL0     H24171   6.462   2.880  -0.294  1.7698  2.4922  1.1167
  920MOL0     H24172   6.362   3.109  -0.196 -0.9476 -0.7364  1.2688
  920MOL0     H24173   6.204   3.048  -0.265  0.1206 -2.8403 -0.0094
  920MOL0     H24174   6.454   3.117  -0.410 -0.3330  1.5935 -0.6803
  920MOL0     H24175   6.351   3.014  -0.492  1.8461 -0.1049 -0.7227
  920MOL0     H24176   6.166   3.189  -0.508  0.0989  0.0713  0.1318
  920MOL0     H24177   6.319   3.275  -0.530  4.2698  0.1089  2.3620
  920MOL0     H24178   6.152   3.275  -0.289  0.5264 -1.5468  0.2303
  920MOL0     H24179   6.319   3.343  -0.293 -1.2378  0.2475  1.1496
  920MOL0     H24180   6.519   2.309   0.121 -2.5462  1.7234 -3.3407
  920MOL0     H24181   6.455   2.161   0.310  0.2391  0.4224  2.4006
  920MOL0     H24182   6.265   2.126   0.739 -1.1570  0.3343  1.0050
  920MOL0     H24183   6.269   1.946   0.893 -0.5072  0.1583  0.5397
  920MOL0     H24184   7.403   1.983   1.151 -1.3009  0.0425 -0.5050
  920MOL0     H24185   7.623   1.954   1.068  2.3068 -1.7728  2.5426
  920MOL0     H24186   8.021   1.529   1.074  2.0560  1.4973 -1.5324
  920MOL0     H24187   8.167   1.389   0.959  0.3580 -1.1493  0.8177
  920MOL0     H24188   8.311   1.342   0.801  1.6356  0.5500 -0.9360
  920MOL0     H24189   8.328   1.262   0.634 -1.9690 -0.3786 -1.3516
  920MOL0     H24190   8.202   1.069   0.718 -1.5717 -1.0791  0.5881
  920MOL0     H24191   8.190   1.145   0.884 -0.1630  3.2289 -0.3019
  920MOL0     H24192   8.378   1.001   0.915  3.1322 -0.3099  0.8690
  920MOL0     H24193   8.450   1.151   0.870  0.6670 -0.9559 -2.7053
  920MOL0     H24194   8.477   1.070   0.624 -2.0296  1.0803 -0.2077
  920MOL0     H24195   8.555   0.987   0.762 -1.3352  0.2521  2.3165
  920MOL0     H24196   8.277   0.690   0.642  1.0868 -0.8845 -0.5817
  920MOL0     H24197   7.956   1.433   0.596  2.8580 -2.0773  0.4928
  920MOL0     H24198   7.744   1.691   0.649  1.9292  0.2093 -0.4428
  920MOL0     H24199   7.750   1.524   0.577  1.4959 -0.5044  1.1247
  920MOL0     H24200   7.659   1.536   0.716 -0.8016  0.8964 -0.4003
  921MOL0     O24201  10.313   9.925  10.665 -0.6274  0.0441  0.0868
  921MOL0     C24202  10.248   9.828  10.633  0.3993  0.4087 -0.5768
  921MOL0     O24203  10.285   9.726  10.548 -0.5888  0.2844  0.6814
  921MOL0     C24204  10.421   9.711  10.537 -0.0112 -0.2390 -0.2580
  921MOL0     C24205  10.478   9.761  10.415 -1.3011  0.1164 -0.3959
  921MOL0     C24206  10.624   9.757  10.409  0.3723 -0.2685  0.9545
  921MOL0     C24207  10.712   9.709  10.511  0.4872 -1.0673  0.5790
  921MOL0     O24208  10.848   9.733  10.493 -0.0418 -0.3211 -0.5418
  921MOL0     C24209  10.930   9.635  10.550  0.7923  0.4212  0.4929
  921MOL0     C24210  11.066   9.648  10.480 -0.4963  0.3034 -0.8774
  921MOL0     C24211  11.108   9.790  10.435 -0.1164  0.6471 -0.1242
  921MOL0     C24212  11.250   9.800  10.379  0.2089  0.7880  0.1331
  921MOL0     C24213  11.287   9.954  10.361  0.1094  0.7933  0.1403
  921MOL0     C24214  11.307   9.974  10.211 -0.4652  0.5351  0.3773
  921MOL0     C24215  11.314  10.111  10.174 -0.0022 -0.3250  0.8113
  921MOL0     C24216  11.314  10.134  10.023  0.0813 -0.4093 -0.9879
  921MOL0     N24217  11.303  10.274   9.986 -0.8524 -0.8506  0.6202
  921MOL0     C24218  11.357  10.319   9.870 -0.3201 -0.1913  0.1689
  921MOL0     C24219  11.311  10.446   9.869  0.6190 -1.0954  0.3658
  921MOL0     C24220  11.359  10.542   9.764  0.0794  0.1409  0.9434
  921MOL0     C24221  11.444  10.669   9.811 -0.0410 -0.3677  0.0962
  921MOL0     C24222  11.575  10.644   9.877 -0.5550 -0.6391  0.3159
  921MOL0     C24223  11.620  10.763   9.962 -0.4912 -0.0745  0.1603
  921MOL0     O24224  11.524  10.781  10.071  0.4878  0.2208 -0.4264
  921MOL0     C24225  11.521  10.905  10.123  0.2898 -0.7293 -0.0403
  921MOL0     C24226  11.398  10.953  10.170 -0.5654  1.1866 -0.6258
  921MOL0     C24227  11.380  11.074  10.239 -0.4567  0.7443 -0.1693
  921MOL0     C24228  11.499  11.148  10.266  0.8867 -0.6302  0.3577
  921MOL0     C24229  11.483  11.271  10.348  0.2059 -0.7167  0.9287
  921MOL0     O24230  11.597  11.314  10.412 -0.1862  0.3929 -0.6210
  921MOL0     C24231  11.607  11.437  10.464 -1.0348 -0.0523  0.0473
  921MOL0     C24232  11.735  11.488  10.454 -0.6495 -1.4777 -0.1158
  921MOL0     C24233  11.761  11.617  10.503 -0.7079  0.3088  0.9141
  921MOL0     C24234  11.658  11.692  10.564 -0.2869  0.3427 -0.4501
  921MOL0     O24235  11.662  11.816  10.622 -0.5028 -0.7239 -1.1069
  921MOL0     C24236  11.770  11.908  10.602 -0.5839  0.2395 -0.3952
  921MOL0     C24237  11.748  12.029  10.701  0.1486  0.6224  0.8813
  921MOL0     C24238  11.766  11.988  10.845  0.2420  0.0299  0.3907
  921MOL0     C24239  11.781  12.128  10.916  0.4329  0.2303  0.0098
  921MOL0     C24240  11.850  12.100  11.053  0.9670 -0.3063 -0.6267
  921MOL0     C24241  11.748  12.049  11.159 -0.0823 -0.4417 -1.0078
  921MOL0     C24242  11.814  12.025  11.292  0.3732  0.3640 -0.2418
  921MOL0     C24243  11.707  12.007  11.402 -0.4507  0.6432  0.1989
  921MOL0    Cl24244  11.635  12.161  11.465  0.0239 -0.2878  0.2548
  921MOL0     C24245  11.528  11.648  10.563  0.8270  0.8208 -0.0848
  921MOL0     C24246  11.498  11.523  10.507  0.8043  0.4135 -0.8083
  921MOL0     O24247  11.374  11.332  10.345 -0.6302  0.1477  0.2687
  921MOL0     C24248  11.624  11.108  10.216  0.6397  0.3683 -0.0881
  921MOL0     C24249  11.643  10.975  10.145  0.3556 -0.4371 -0.0178
  921MOL0     N24250  11.226  10.472   9.981  0.0644 -0.9798 -0.0194
  921MOL0     N24251  11.211  10.360  10.045  0.1010  0.0835  0.0645
  921MOL0     C24252  10.648   9.644  10.619  0.1664 -0.7966  0.5151
  921MOL0     C24253  10.505   9.641  10.633  0.5899  0.2745  0.4815
  921MOL0     C24254  10.105   9.827  10.667 -0.2704 -0.8819  1.3833
  921MOL0     C24255  10.010   9.802  10.570 -0.4309 -0.3034  0.1423
  921MOL0     C24256   9.868   9.790  10.599 -0.2986 -0.3914  0.0641
  921MOL0     C24257   9.816   9.781  10.728 -0.2849 -0.3094 -0.0662
  921MOL0     O24258   9.677   9.779  10.750  0.0443 -0.2013 -0.6262
  921MOL0     C24259   9.586   9.802  10.646  0.2824 -0.6208 -0.0414
  921MOL0     C24260   9.579   9.943  10.590 -0.0915 -0.0996  0.3687
  921MOL0     C24261   9.577  10.050  10.700 -0.2983  0.7194  0.2213
  921MOL0     C24262   9.577  10.192  10.638  0.1666  0.6395  0.3535
  921MOL0     C24263   9.648  10.279  10.729  0.3109  0.3801  0.0821
  921MOL0     C24264   9.697  10.364  10.799 -0.2357 -0.0106  0.2646
  921MOL0     C24265   9.919   9.795  10.829  0.5656  0.0555  0.3689
  921MOL0     C24266  10.054   9.817  10.803  0.9628 -0.9179  0.2702
  921MOL0     C24267  10.134   9.827  10.925  0.0435 -0.1465 -0.1953
  921MOL0     H24268  10.412   9.782  10.333  0.4434  0.2298 -1.8320
  921MOL0     H24269  10.661   9.810  10.322 -1.1500 -1.0057 -0.1871
  921MOL0     H24270  10.941   9.658  10.656 -0.9874  2.2828  0.3363
  921MOL0     H24271  10.893   9.532  10.546 -3.6547  1.6279  3.2485
  921MOL0     H24272  11.064   9.588  10.389 -1.3355 -1.9157  0.5296
  921MOL0     H24273  11.141   9.597  10.541 -0.1994  0.9460 -0.6951
  921MOL0     H24274  11.093   9.860  10.518 -3.1519  2.3859 -1.9595
  921MOL0     H24275  11.044   9.833  10.357  2.1816  1.0379 -1.8816
  921MOL0     H24276  11.322   9.775  10.457  1.0647 -0.0714 -0.8990
  921MOL0     H24277  11.266   9.735  10.292 -0.3035  0.2171  0.4599
  921MOL0     H24278  11.208  10.018  10.403 -3.5432 -0.2737 -4.3724
  921MOL0     H24279  11.379   9.974  10.416  2.4268 -3.7591 -1.5937
  921MOL0     H24280  11.395   9.932  10.163  0.8636  0.6296  2.5693
  921MOL0     H24281  11.219   9.931  10.163  0.5244 -1.4734  0.2795
  921MOL0     H24282  11.407  10.149  10.218  1.2754 -2.0729 -0.2745
  921MOL0     H24283  11.227  10.155  10.223  0.1252 -0.5680  1.2604
  921MOL0     H24284  11.399  10.087   9.974  2.2819  0.0589  2.1452
  921MOL0     H24285  11.228  10.079   9.983 -1.5163 -1.9296  3.8236
  921MOL0     H24286  11.432  10.281   9.801 -2.4802 -1.6845 -1.4867
  921MOL0     H24287  11.424  10.486   9.696 -0.2037 -0.0443  0.8260
  921MOL0     H24288  11.275  10.582   9.707 -1.7713 -1.2361  2.5726
  921MOL0     H24289  11.463  10.725   9.719 -1.3456 -3.6854 -2.3974
  921MOL0     H24290  11.379  10.724   9.879  1.4125  0.0957  1.1710
  921MOL0     H24291  11.647  10.618   9.799 -2.4135  0.3144 -1.8547
  921MOL0     H24292  11.563  10.550   9.932 -2.0965 -0.7158 -0.0999
  921MOL0     H24293  11.637  10.855   9.905 -1.1355 -0.4568 -0.6540
  921MOL0     H24294  11.718  10.748  10.009 -0.9713  1.0467  1.6289
  921MOL0     H24295  11.307  10.894  10.162  2.1238 -3.7725  0.9561
  921MOL0     H24296  11.285  11.105  10.282 -0.6851  1.0004 -0.8514
  921MOL0     H24297  11.821  11.435  10.415  2.0541  2.0181  0.5263
  921MOL0     H24298  11.861  11.658  10.514  0.2643 -2.2315  2.2858
  921MOL0     H24299  11.866  11.856  10.611  0.2406  0.4297 -5.2026
  921MOL0     H24300  11.767  11.943  10.498  0.8266 -1.1249 -0.9281
  921MOL0     H24301  11.823  12.106  10.678  1.1086 -0.6711 -0.5575
  921MOL0     H24302  11.654  12.075  10.672  0.6128  0.5281 -0.9172
  921MOL0     H24303  11.683  11.929  10.886  0.8194 -0.3843  0.9739
  921MOL0     H24304  11.857  11.928  10.856  0.0612 -0.1315  1.0851
  921MOL0     H24305  11.679  12.164  10.934 -0.6387 -2.3842 -0.3404
  921MOL0     H24306  11.846  12.196  10.861  0.8676 -1.5182 -1.7894
  921MOL0     H24307  11.880  12.193  11.104 -2.0724 -0.1090  1.0157
  921MOL0     H24308  11.933  12.030  11.040  0.4025 -1.3856  1.1689
  921MOL0     H24309  11.671  12.124  11.176  0.2793  0.0267 -1.4048
  921MOL0     H24310  11.690  11.958  11.137 -3.7391  1.4496  0.0791
  921MOL0     H24311  11.880  12.109  11.316  3.9257 -1.8866 -1.3820
  921MOL0     H24312  11.877  11.936  11.295  1.1521  0.8212  4.3446
  921MOL0     H24313  11.640  11.924  11.380  0.5878  0.7208 -3.9112
  921MOL0     H24314  11.762  11.979  11.492  1.8354  1.8019 -0.7498
  921MOL0     H24315  11.448  11.704  10.612 -3.2248 -3.1450 -1.4404
  921MOL0     H24316  11.394  11.494  10.508 -0.8921  5.2593  2.2886
  921MOL0     H24317  11.713  11.163  10.245  0.8247  0.8044 -1.4277
  921MOL0     H24318  11.742  10.946  10.113  1.8797  1.7382  2.3689
  921MOL0     H24319  10.706   9.601  10.700 -2.2518 -0.8335  2.3565
  921MOL0     H24320  10.465   9.605  10.727 -1.4672  0.0303 -0.4403
  921MOL0     H24321  10.041   9.796  10.466 -1.3941  0.0176 -0.1758
  921MOL0     H24322   9.803   9.793  10.513 -0.7630 -0.4854  0.4085
  921MOL0     H24323   9.484   9.775  10.676  0.7612 -2.6712 -0.1525
  921MOL0     H24324   9.601   9.728  10.567  3.6449 -0.5771  0.3998
  921MOL0     H24325   9.487   9.955  10.532  0.1819  0.9251  0.1372
  921MOL0     H24326   9.660   9.956  10.519  1.8331  1.3693  2.6688
  921MOL0     H24327   9.654  10.035  10.776  1.5905  1.0093 -1.5489
  921MOL0     H24328   9.480  10.035  10.749 -1.0860  0.5236 -1.3303
  921MOL0     H24329   9.632  10.189  10.544  0.6481 -2.2030  0.6386
  921MOL0     H24330   9.473  10.221  10.618  0.6604  0.0556 -3.7655
  921MOL0     H24331   9.749  10.437  10.859  0.5358  0.4614 -0.9307
  921MOL0     H24332   9.896   9.770  10.932 -0.4176 -0.6232 -0.0038
  921MOL0     H24333  10.074   9.874  11.004  0.1611  0.5649 -0.5239
  921MOL0     H24334  10.166   9.724  10.939  1.4105 -0.1612 -2.8778
  921MOL0     H24335  10.223   9.883  10.896 -0.0342  1.1191  1.8092
  922MOL0     O24336  11.210   1.389   8.991  0.2012 -0.1435  0.4257
  922MOL0     C24337  11.111   1.412   9.060  0.9235 -0.0620 -0.4939
  922MOL0     O24338  11.079   1.353   9.175  0.7200 -0.4543 -0.3962
  922MOL0     C24339  11.178   1.323   9.276  0.0216 -0.0096  0.3246
  922MOL0     C24340  11.315   1.343   9.273  0.5346 -0.5290  0.2143
  922MOL0     C24341  11.386   1.309   9.394 -0.0229  0.2022  0.3969
  922MOL0     C24342  11.327   1.263   9.510 -0.5796 -0.0137 -0.0114
  922MOL0     O24343  11.398   1.229   9.627 -0.1098 -0.0065  0.2323
  922MOL0     C24344  11.511   1.313   9.656  0.4888 -0.1943  0.6012
  922MOL0     C24345  11.592   1.295   9.788 -0.1605 -0.2924 -0.5884
  922MOL0     C24346  11.661   1.160   9.804  0.4914 -0.1754  0.0122
  922MOL0     C24347  11.786   1.158   9.895  0.0719 -0.5579 -0.0397
  922MOL0     C24348  11.836   1.013   9.928  0.2745 -0.0662 -0.7388
  922MOL0     C24349  11.918   1.015  10.054  0.6289  0.0680  0.5175
  922MOL0     C24350  12.015   0.897  10.054 -0.2911 -0.1487 -0.5557
  922MOL0     C24351  12.120   0.895   9.942  0.0905  0.2832  0.8015
  922MOL0     N24352  12.135   0.752   9.918 -0.1772 -0.1191 -0.6794
  922MOL0     C24353  12.152   0.700   9.793 -1.1055  0.1230  0.0284
  922MOL0     C24354  12.166   0.567   9.808 -0.6238 -0.1889  0.0822
  922MOL0     C24355  12.195   0.467   9.697 -1.0288 -0.6555 -0.3692
  922MOL0     C24356  12.167   0.322   9.750  1.1510  1.0105 -0.4358
  922MOL0     C24357  12.208   0.217   9.646  0.1623  0.1263  0.1171
  922MOL0     C24358  12.122   0.225   9.507  0.4329 -0.8177 -0.2957
  922MOL0     O24359  12.224   0.229   9.414 -0.2371  0.5351  0.6227
  922MOL0     C24360  12.282   0.118   9.367  0.3252  1.3736 -0.6486
  922MOL0     C24361  12.246  -0.011   9.401  0.4296  0.9147  0.9326
  922MOL0     C24362  12.311  -0.129   9.346 -0.6176  0.7184 -0.0961
  922MOL0     C24363  12.424  -0.112   9.269  0.6798 -0.0119  0.3623
  922MOL0     C24364  12.489  -0.224   9.198  0.2401  0.2994  0.4983
  922MOL0     O24365  12.580  -0.177   9.108  0.3514 -0.2163  1.0398
  922MOL0     C24366  12.644  -0.262   9.022  0.1209 -0.1092 -0.2062
  922MOL0     C24367  12.748  -0.350   9.065 -0.9249  0.3510  0.0145
  922MOL0     C24368  12.800  -0.436   8.967  0.3091 -0.3752 -0.1787
  922MOL0     C24369  12.771  -0.429   8.832  0.1318  0.5152  0.5516
  922MOL0     O24370  12.812  -0.509   8.731  0.7421  0.1735  0.0021
  922MOL0     C24371  12.878  -0.634   8.767 -0.2638 -0.8925 -0.1290
  922MOL0     C24372  12.849  -0.715   8.637  0.0193  0.2792  0.8083
  922MOL0     C24373  12.920  -0.852   8.640  0.0306  0.3890 -0.7965
  922MOL0     C24374  12.974  -0.912   8.513 -0.1091 -0.0531  0.0565
  922MOL0     C24375  12.998  -1.067   8.539  0.1774  0.2000  0.6363
  922MOL0     C24376  13.064  -1.152   8.427 -0.8764  0.4397  0.5534
  922MOL0     C24377  12.968  -1.184   8.315  0.8611 -0.4551 -0.5256
  922MOL0     C24378  13.036  -1.280   8.218  0.6066  0.4920  0.1756
  922MOL0    Cl24379  13.173  -1.191   8.136 -0.2207  0.1858  0.2487
  922MOL0     C24380  12.674  -0.332   8.791 -0.3511  0.1136 -1.0347
  922MOL0     C24381  12.609  -0.249   8.883 -0.0096 -0.5217 -0.4489
  922MOL0     O24382  12.445  -0.335   9.207  0.0309 -0.2475 -0.0943
  922MOL0     C24383  12.465   0.023   9.234 -0.6447 -1.5967  0.2908
  922MOL0     C24384  12.392   0.131   9.285 -0.8805  0.6483  0.1060
  922MOL0     N24385  12.145   0.539   9.944 -0.0963 -0.5779  0.8696
  922MOL0     N24386  12.144   0.655  10.008  0.2014 -0.3949 -0.0163
  922MOL0     C24387  11.186   1.243   9.513 -0.6155  0.0334 -0.3198
  922MOL0     C24388  11.117   1.264   9.389  0.5236 -0.4512 -0.4184
  922MOL0     C24389  11.016   1.515   9.011  0.1234 -1.0898  0.0109
  922MOL0     C24390  10.876   1.504   9.048 -0.2107 -1.1830 -0.2570
  922MOL0     C24391  10.777   1.593   8.997 -0.7600  0.3308 -0.6416
  922MOL0     C24392  10.815   1.695   8.907 -0.4525  0.0181 -0.8770
  922MOL0     O24393  10.725   1.771   8.840  0.0170  0.5681 -1.3024
  922MOL0     C24394  10.594   1.805   8.890  0.1230 -0.3551 -0.8672
  922MOL0     C24395  10.539   1.930   8.822  0.1209 -0.6530  1.1800
  922MOL0     C24396  10.464   2.031   8.915  0.0846  0.7102  0.9558
  922MOL0     C24397  10.390   2.137   8.831  0.3354 -0.8786  0.4426
  922MOL0     C24398  10.240   2.129   8.828  0.0148 -1.2691  0.0526
  922MOL0     C24399  10.124   2.144   8.820 -0.8834 -1.1882 -1.2907
  922MOL0     C24400  10.949   1.708   8.875 -0.9186  0.0509 -0.0358
  922MOL0     C24401  11.050   1.622   8.918 -0.1955 -0.4875  0.3470
  922MOL0     C24402  11.196   1.635   8.881 -0.3121  0.0707 -0.0085
  922MOL0     H24403  11.358   1.378   9.180  0.0577 -2.2698 -0.7101
  922MOL0     H24404  11.490   1.342   9.392  0.2595  0.2052 -5.8436
  922MOL0     H24405  11.590   1.309   9.580  1.5539  0.4022  1.6429
  922MOL0     H24406  11.481   1.418   9.654 -0.1915 -0.1794  4.3374
  922MOL0     H24407  11.535   1.336   9.873 -0.5830 -2.5149  0.2587
  922MOL0     H24408  11.669   1.372   9.793 -1.4674  1.3850 -3.6569
  922MOL0     H24409  11.697   1.117   9.711  3.0837  1.0391  0.3719
  922MOL0     H24410  11.589   1.094   9.855 -1.0479  2.0352  0.8544
  922MOL0     H24411  11.858   1.213   9.834 -0.3830  0.9957  0.7655
  922MOL0     H24412  11.770   1.202   9.994 -1.5477 -0.5436 -0.2900
  922MOL0     H24413  11.748   0.949   9.942 -1.0647  1.0899 -3.1655
  922MOL0     H24414  11.875   0.975   9.833 -0.5125 -0.7986 -0.7828
  922MOL0     H24415  11.982   1.103  10.064  2.5126 -1.2245  0.4322
  922MOL0     H24416  11.848   1.009  10.137 -1.8951 -0.5096 -1.5297
  922MOL0     H24417  11.949   0.810  10.060  0.3910 -0.6658 -0.3431
  922MOL0     H24418  12.063   0.922  10.149 -2.1944  5.2221 -0.6442
  922MOL0     H24419  12.077   0.945   9.855 -0.0125 -1.3061 -0.0957
  922MOL0     H24420  12.209   0.943   9.983  0.2267 -1.6946  3.0391
  922MOL0     H24421  12.155   0.762   9.704 -1.5410  0.4899  0.2635
  922MOL0     H24422  12.128   0.493   9.614  0.7912  1.6923 -1.2288
  922MOL0     H24423  12.294   0.477   9.652 -0.6410  0.0708  0.6294
  922MOL0     H24424  12.224   0.301   9.841  1.0333 -1.7808 -0.9402
  922MOL0     H24425  12.066   0.306   9.788  2.1509 -2.1167  1.2242
  922MOL0     H24426  12.196   0.122   9.698 -1.0351  1.3499  2.2117
  922MOL0     H24427  12.315   0.232   9.627 -0.5662  2.7587 -2.8987
  922MOL0     H24428  12.067   0.319   9.495  3.0166  0.9043  0.3912
  922MOL0     H24429  12.058   0.137   9.507 -1.4379  0.4071  2.0759
  922MOL0     H24430  12.150  -0.037   9.445  0.7510 -3.0120 -0.2901
  922MOL0     H24431  12.250  -0.217   9.365  0.1376  0.8233  3.4042
  922MOL0     H24432  12.760  -0.355   9.172 -3.4841  1.4597  0.4379
  922MOL0     H24433  12.877  -0.508   8.995  1.0873  1.0991  1.7268
  922MOL0     H24434  12.979  -0.602   8.791 -1.1948 -0.1443  3.2678
  922MOL0     H24435  12.834  -0.691   8.849  0.6207 -0.0119  0.9726
  922MOL0     H24436  12.740  -0.721   8.638  0.0550 -1.8885 -0.3439
  922MOL0     H24437  12.873  -0.663   8.543 -3.3755 -3.5759 -2.6131
  922MOL0     H24438  13.009  -0.835   8.702  1.6783  0.6986 -3.1133
  922MOL0     H24439  12.855  -0.931   8.676 -0.8977 -0.7292 -4.5017
  922MOL0     H24440  13.062  -0.857   8.481 -0.6915  1.9162  1.6898
  922MOL0     H24441  12.906  -0.900   8.428  2.6565  0.1305 -2.2938
  922MOL0     H24442  12.904  -1.116   8.564  0.0360  1.1675  2.0656
  922MOL0     H24443  13.074  -1.087   8.616 -0.0545  0.5429  0.9538
  922MOL0     H24444  13.154  -1.102   8.390 -0.6359 -1.9508 -2.4451
  922MOL0     H24445  13.090  -1.249   8.470  2.2595 -0.1615 -2.2978
  922MOL0     H24446  12.935  -1.100   8.252 -0.5678 -1.0874 -0.6758
  922MOL0     H24447  12.880  -1.235   8.356  1.4472  0.9074  2.6982
  922MOL0     H24448  13.076  -1.371   8.264  2.0313  1.1943  0.3681
  922MOL0     H24449  12.962  -1.311   8.144  3.5646  0.6200 -3.1199
  922MOL0     H24450  12.641  -0.325   8.688 -0.0781  0.5208 -1.0988
  922MOL0     H24451  12.536  -0.179   8.843  0.2970 -2.4570 -4.9431
  922MOL0     H24452  12.535   0.044   9.154 -0.9230  0.0409  0.4565
  922MOL0     H24453  12.402   0.236   9.260 -2.2602  1.0181  0.9831
  922MOL0     H24454  11.137   1.209   9.603  0.9404  1.4587  1.1533
  922MOL0     H24455  11.009   1.259   9.394  0.3076  2.4291 -0.6540
  922MOL0     H24456  10.837   1.428   9.115 -1.5890 -1.6590 -1.5415
  922MOL0     H24457  10.674   1.559   9.004 -1.7841  2.9425 -1.8018
  922MOL0     H24458  10.596   1.813   8.999  1.9453  6.3294 -0.9712
  922MOL0     H24459  10.516   1.734   8.861  1.4751 -2.0320 -0.5579
  922MOL0     H24460  10.471   1.898   8.743 -1.8067  2.2479  1.5092
  922MOL0     H24461  10.627   1.986   8.789 -0.9880  0.9169  0.7650
  922MOL0     H24462  10.528   2.066   8.996 -0.6878 -0.9101  2.3311
  922MOL0     H24463  10.387   1.978   8.973 -0.4609 -0.2458 -0.5876
  922MOL0     H24464  10.431   2.225   8.881 -2.4998  1.1557 -0.5493
  922MOL0     H24465  10.422   2.150   8.727 -0.7924  1.2608  0.2985
  922MOL0     H24466  10.017   2.148   8.822 -1.2402 -1.6398  5.8946
  922MOL0     H24467  10.978   1.787   8.807 -1.0386  0.1836  0.0673
  922MOL0     H24468  11.216   1.737   8.848  0.5552 -0.4853 -1.3202
  922MOL0     H24469  11.268   1.627   8.963  0.0426  0.8213 -0.2384
  922MOL0     H24470  11.215   1.567   8.797  0.4339 -0.2066  0.3774
  923MOL0     O24471   2.882   5.469   6.027  0.3330  0.0005  0.5354
  923MOL0     C24472   2.971   5.542   6.078  0.0897 -0.4522 -0.0214
  923MOL0     O24473   2.990   5.572   6.216  0.4751  0.5804 -0.1833
  923MOL0     C24474   2.893   5.567   6.315  0.3134  0.7463 -0.2323
  923MOL0     C24475   2.758   5.568   6.280  1.0944 -0.2161 -0.8399
  923MOL0     C24476   2.655   5.572   6.385  0.1553 -0.8789  1.0102
  923MOL0     C24477   2.693   5.578   6.515 -0.2714  0.6620 -0.0753
  923MOL0     O24478   2.607   5.576   6.623  0.0705 -0.4150  0.4360
  923MOL0     C24479   2.488   5.493   6.610  0.3459  0.7414  0.2319
  923MOL0     C24480   2.422   5.487   6.753  0.8350  0.1251  0.6348
  923MOL0     C24481   2.520   5.448   6.858 -0.7517  0.2242  0.8796
  923MOL0     C24482   2.485   5.482   6.999 -0.3017 -0.7934 -0.6852
  923MOL0     C24483   2.601   5.489   7.097 -0.6917 -0.7521 -0.6363
  923MOL0     C24484   2.552   5.508   7.236  0.1413 -0.7228  0.3837
  923MOL0     C24485   2.665   5.515   7.345 -1.0883  0.0798 -0.3850
  923MOL0     C24486   2.616   5.502   7.490  0.6296 -0.0429  0.5740
  923MOL0     N24487   2.726   5.536   7.586 -0.1059 -0.4141 -0.6639
  923MOL0     C24488   2.837   5.610   7.558 -0.2683  0.2638 -0.4421
  923MOL0     C24489   2.894   5.639   7.679  0.3161  0.0208 -0.3637
  923MOL0     C24490   3.011   5.726   7.702  0.1365  0.1011 -0.3587
  923MOL0     C24491   2.976   5.874   7.752  0.0943  0.0582 -1.5641
  923MOL0     C24492   2.965   5.889   7.912  1.1443 -0.9416  0.0718
  923MOL0     C24493   2.956   6.037   7.964 -0.3418 -0.1307 -1.0929
  923MOL0     O24494   2.843   6.097   7.898 -0.3391  0.4664 -0.4324
  923MOL0     C24495   2.847   6.225   7.859 -0.0320 -1.6162  0.7102
  923MOL0     C24496   2.949   6.321   7.852  0.5527  0.5112 -0.3610
  923MOL0     C24497   2.921   6.453   7.813  0.0048  0.3801  0.2633
  923MOL0     C24498   2.801   6.497   7.757 -0.0222 -0.1938 -0.0629
  923MOL0     C24499   2.777   6.640   7.722 -1.8905  0.7325 -0.3775
  923MOL0     O24500   2.865   6.733   7.781  0.2899 -0.8247  0.6911
  923MOL0     C24501   2.839   6.867   7.761  0.4433 -0.8367 -0.2647
  923MOL0     C24502   2.815   6.926   7.640 -0.0246  0.4831  0.8782
  923MOL0     C24503   2.791   7.060   7.627 -0.6274 -0.0370 -0.6904
  923MOL0     C24504   2.792   7.147   7.751  0.0748 -0.4687  0.4959
  923MOL0     O24505   2.737   7.276   7.768  0.0791  0.2910 -0.0131
  923MOL0     C24506   2.675   7.333   7.652 -0.1414 -0.0630  0.3598
  923MOL0     C24507   2.542   7.265   7.629  0.1927  0.3437  0.8613
  923MOL0     C24508   2.445   7.358   7.544  0.2333  0.5086 -0.0707
  923MOL0     C24509   2.330   7.279   7.476  0.3929  0.4994 -0.0412
  923MOL0     C24510   2.252   7.344   7.369 -0.6240  0.0552  0.2227
  923MOL0     C24511   2.139   7.261   7.304  0.2999  0.7611  0.6015
  923MOL0     C24512   2.078   7.342   7.185 -0.3645  0.1428  0.1336
  923MOL0     C24513   1.962   7.264   7.123  0.3248  0.1866  0.1518
  923MOL0    Cl24514   1.824   7.313   7.223  0.5062  0.2566 -0.1325
  923MOL0     C24515   2.834   7.084   7.869  0.3700  0.4021  0.5020
  923MOL0     C24516   2.854   6.947   7.881 -0.9400 -0.0586  0.4362
  923MOL0     O24517   2.703   6.659   7.631 -0.1883  0.5019  0.1727
  923MOL0     C24518   2.705   6.403   7.742 -0.4937  0.4475 -0.5040
  923MOL0     C24519   2.728   6.268   7.796  0.1817  0.1433  0.6194
  923MOL0     N24520   2.826   5.569   7.772 -1.1715  0.1562 -0.0033
  923MOL0     N24521   2.739   5.504   7.723 -0.4445 -0.0204 -0.2318
  923MOL0     C24522   2.826   5.575   6.543 -0.4038 -0.4040 -0.1049
  923MOL0     C24523   2.923   5.575   6.455 -0.8378  0.3034  0.4310
  923MOL0     C24524   3.079   5.606   5.990 -0.3371  0.3723 -0.6895
  923MOL0     C24525   3.086   5.740   5.974 -0.5283 -0.7593 -0.4416
  923MOL0     C24526   3.187   5.796   5.890  0.4511 -0.4484  0.5009
  923MOL0     C24527   3.266   5.713   5.814  0.7066 -0.4532  0.2647
  923MOL0     O24528   3.344   5.753   5.706  0.4259 -0.3781  0.4216
  923MOL0     C24529   3.373   5.894   5.677 -0.5802  0.7608  1.0591
  923MOL0     C24530   3.498   5.887   5.595 -0.4539  0.2076  0.1375
  923MOL0     C24531   3.462   5.849   5.452  0.7995  0.4073 -0.5417
  923MOL0     C24532   3.558   5.923   5.364 -0.0039  0.0745  0.4825
  923MOL0     C24533   3.704   5.884   5.378 -0.2234  0.3562 -0.1370
  923MOL0     C24534   3.818   5.844   5.395 -0.3860  0.4252  0.1583
  923MOL0     C24535   3.252   5.580   5.828  0.5543 -0.5245 -0.8402
  923MOL0     C24536   3.165   5.526   5.922  0.6931  0.9002  0.4252
  923MOL0     C24537   3.169   5.373   5.940  0.1282 -0.8108  0.5601
  923MOL0     H24538   2.732   5.581   6.175  1.8667  2.2467 -0.7830
  923MOL0     H24539   2.549   5.573   6.365 -0.0712 -2.4935  1.9352
  923MOL0     H24540   2.420   5.531   6.533  0.0304 -0.9908 -0.4062
  923MOL0     H24541   2.529   5.394   6.586 -0.4215 -0.7979  4.4740
  923MOL0     H24542   2.344   5.412   6.742 -0.3958  1.5135 -0.5026
  923MOL0     H24543   2.380   5.585   6.778 -0.6165 -0.8113  2.0628
  923MOL0     H24544   2.610   5.505   6.837 -1.0791  1.0321  1.6101
  923MOL0     H24545   2.543   5.343   6.841  0.2959  0.5363  0.2798
  923MOL0     H24546   2.442   5.582   6.996 -3.1909 -1.9517 -0.6304
  923MOL0     H24547   2.400   5.421   7.030  1.0581 -3.0066 -1.0252
  923MOL0     H24548   2.656   5.395   7.095  0.9393  0.1666 -1.2643
  923MOL0     H24549   2.655   5.582   7.073 -0.5604 -0.8552 -0.7415
  923MOL0     H24550   2.497   5.602   7.247  2.8341  0.8576  1.4594
  923MOL0     H24551   2.488   5.423   7.260 -1.7359  0.6452  0.4710
  923MOL0     H24552   2.702   5.617   7.330 -3.2420  1.0432  0.4768
  923MOL0     H24553   2.736   5.433   7.328 -2.4393 -2.5189  4.7361
  923MOL0     H24554   2.529   5.568   7.501 -2.2390 -3.3569 -0.1152
  923MOL0     H24555   2.590   5.399   7.514 -0.4705  0.3711  1.2726
  923MOL0     H24556   2.856   5.666   7.468  0.0097 -0.5302 -0.8857
  923MOL0     H24557   3.079   5.680   7.774 -1.5204 -2.2765 -0.1844
  923MOL0     H24558   3.056   5.744   7.605  1.8601  0.1159  0.4106
  923MOL0     H24559   3.052   5.948   7.725  0.5847  0.5339  0.8256
  923MOL0     H24560   2.875   5.889   7.714 -1.5805 -4.2811  0.4384
  923MOL0     H24561   3.059   5.858   7.958  0.6521  0.7105  2.4177
  923MOL0     H24562   2.884   5.830   7.957 -1.3320  0.4599 -2.2400
  923MOL0     H24563   3.050   6.081   7.931 -1.8438  2.3696 -2.3435
  923MOL0     H24564   2.946   6.048   8.073 -0.5136 -0.4758 -1.0738
  923MOL0     H24565   3.044   6.280   7.886  0.5475 -0.2274 -1.2235
  923MOL0     H24566   2.997   6.530   7.811  0.6071 -0.2137 -1.2366
  923MOL0     H24567   2.819   6.864   7.552 -3.8691 -0.3574  1.1516
  923MOL0     H24568   2.767   7.103   7.530  1.2678 -1.6464 -1.9335
  923MOL0     H24569   2.664   7.440   7.671 -2.3449  0.1553 -1.6670
  923MOL0     H24570   2.737   7.317   7.563 -0.3566 -0.8445  0.3427
  923MOL0     H24571   2.555   7.173   7.572 -1.8209 -0.2813  1.3461
  923MOL0     H24572   2.495   7.250   7.726 -0.4778 -0.5389  0.4051
  923MOL0     H24573   2.406   7.421   7.625 -0.6047  1.5659 -1.2711
  923MOL0     H24574   2.504   7.435   7.493 -0.3331  1.5739  0.8181
  923MOL0     H24575   2.258   7.254   7.555  1.9178  0.7048  1.4648
  923MOL0     H24576   2.369   7.185   7.436  1.5279 -1.3710  4.8163
  923MOL0     H24577   2.319   7.389   7.295  0.8077  1.7097  2.4076
  923MOL0     H24578   2.211   7.434   7.415  0.7704  0.3298  0.9808
  923MOL0     H24579   2.181   7.162   7.285  1.8774  1.3639  0.7565
  923MOL0     H24580   2.074   7.260   7.392 -1.6610  1.9950 -0.7499
  923MOL0     H24581   2.158   7.362   7.113 -1.8377  2.8769 -0.8764
  923MOL0     H24582   2.036   7.434   7.227 -2.2665 -1.4874  2.0241
  923MOL0     H24583   1.946   7.294   7.019  3.0489 -2.2154 -1.1035
  923MOL0     H24584   1.987   7.157   7.121 -0.3985  0.0118 -0.0166
  923MOL0     H24585   2.834   7.152   7.954 -0.8625  1.9466 -0.6496
  923MOL0     H24586   2.863   6.899   7.978  3.1635  0.1141  0.3222
  923MOL0     H24587   2.603   6.420   7.710 -1.3275 -1.5352  0.8616
  923MOL0     H24588   2.653   6.191   7.809  0.0979  0.0594 -0.3098
  923MOL0     H24589   2.844   5.580   6.650  2.9189 -1.5343 -0.4982
  923MOL0     H24590   3.029   5.591   6.473  0.4671 -3.6124 -2.4665
  923MOL0     H24591   3.011   5.800   6.024 -2.0226 -0.4458 -2.9063
  923MOL0     H24592   3.197   5.903   5.876  4.9148 -0.9204 -1.6082
  923MOL0     H24593   3.402   5.941   5.771  2.4727 -0.6377  0.9637
  923MOL0     H24594   3.296   5.953   5.626 -0.3050 -1.4499 -2.2781
  923MOL0     H24595   3.576   5.820   5.631 -0.6089 -0.9908 -1.6431
  923MOL0     H24596   3.540   5.988   5.600 -2.8218  1.5109 -2.7654
  923MOL0     H24597   3.365   5.867   5.404  0.5287  1.0257  0.2089
  923MOL0     H24598   3.483   5.742   5.459 -3.1040 -0.4872  0.4183
  923MOL0     H24599   3.548   5.897   5.259 -0.3192 -3.2261  1.2352
  923MOL0     H24600   3.538   6.031   5.363 -0.4334  0.0365  2.0238
  923MOL0     H24601   3.916   5.838   5.438 -0.4544 -1.7092  0.1204
  923MOL0     H24602   3.324   5.516   5.777  1.9345  0.8593 -0.7085
  923MOL0     H24603   3.185   5.348   6.045  1.8590  0.8353  0.7660
  923MOL0     H24604   3.076   5.336   5.897 -0.2772  0.4144  0.3431
  923MOL0     H24605   3.240   5.324   5.873 -1.8947 -2.0199 -0.7950
  924MOL0     O24606  10.206  10.977   4.553  0.1065 -0.6850  0.0236
  924MOL0     C24607  10.151  10.872   4.517  0.2217  0.4813  0.5023
  924MOL0     O24608  10.190  10.797   4.406 -0.1956 -0.2159 -0.1066
  924MOL0     C24609  10.287  10.838   4.314 -0.0350 -0.3477  0.3833
  924MOL0     C24610  10.276  10.961   4.248  0.2875  0.0109 -0.0094
  924MOL0     C24611  10.368  10.987   4.143 -0.0343 -0.4256  0.7114
  924MOL0     C24612  10.459  10.892   4.100  0.1990  0.2754 -0.6740
  924MOL0     O24613  10.535  10.935   3.988  0.7088 -0.4591 -0.1052
  924MOL0     C24614  10.667  10.875   3.965  0.3648 -0.4338  0.0242
  924MOL0     C24615  10.768  10.932   4.070 -1.2060 -0.0033 -0.0666
  924MOL0     C24616  10.814  11.074   4.040 -0.0207  0.2309  0.0213
  924MOL0     C24617  10.918  11.085   3.924  0.4806 -0.0004  0.1302
  924MOL0     C24618  10.947  11.237   3.900 -0.1256  0.7330 -1.2192
  924MOL0     C24619  10.819  11.304   3.848  0.4166 -1.3020 -0.7065
  924MOL0     C24620  10.843  11.441   3.785  0.6001  0.1140 -0.4610
  924MOL0     C24621  10.706  11.519   3.742  0.4364 -0.1397  0.6589
  924MOL0     N24622  10.731  11.642   3.669 -0.3841 -0.2467  0.3029
  924MOL0     C24623  10.784  11.648   3.542 -0.1431 -0.7822 -1.0650
  924MOL0     C24624  10.783  11.782   3.504 -0.5863 -0.2653  0.3007
  924MOL0     C24625  10.855  11.833   3.383 -0.4622 -0.1435  0.2305
  924MOL0     C24626  10.762  11.828   3.253 -0.8565 -0.6904  0.0451
  924MOL0     C24627  10.807  11.932   3.147  0.4382 -0.9903  0.0713
  924MOL0     C24628  10.761  12.081   3.186 -0.0595  0.1007 -0.4998
  924MOL0     O24629  10.856  12.188   3.150  0.2811 -0.3399  0.3103
  924MOL0     C24630  10.919  12.180   3.030  0.8697 -0.7848 -0.1135
  924MOL0     C24631  11.054  12.171   3.028 -0.6132 -0.0763 -0.2299
  924MOL0     C24632  11.126  12.179   2.902 -1.1484  1.1410  0.6477
  924MOL0     C24633  11.053  12.191   2.783 -0.9011 -0.2467  0.0591
  924MOL0     C24634  11.122  12.221   2.655  0.2540 -0.3908  0.3187
  924MOL0     O24635  11.054  12.298   2.568  0.1296 -0.0019 -0.2690
  924MOL0     C24636  11.107  12.289   2.439 -0.2174  1.2367 -0.1161
  924MOL0     C24637  11.204  12.384   2.408  0.2252  0.9837 -0.5041
  924MOL0     C24638  11.272  12.357   2.282 -0.7125 -0.3405 -0.3149
  924MOL0     C24639  11.244  12.250   2.192  0.3606 -0.4931  1.1944
  924MOL0     O24640  11.305  12.226   2.077  0.0691  0.0225 -0.1187
  924MOL0     C24641  11.338  12.337   1.995  0.9122 -0.2070 -0.2008
  924MOL0     C24642  11.424  12.264   1.881 -1.1108 -0.0414 -0.4864
  924MOL0     C24643  11.455  12.374   1.776 -0.2232 -0.0451 -0.6524
  924MOL0     C24644  11.554  12.330   1.661  1.4159  0.2606 -0.0717
  924MOL0     C24645  11.624  12.460   1.595 -1.0387  0.3684 -0.9870
  924MOL0     C24646  11.522  12.557   1.538 -0.2088  0.1587  0.7160
  924MOL0     C24647  11.606  12.661   1.466  0.4248  0.1432  0.7676
  924MOL0     C24648  11.519  12.747   1.377 -0.3615  0.0133  0.0185
  924MOL0    Cl24649  11.600  12.914   1.379  0.0919  0.1281  0.5409
  924MOL0     C24650  11.153  12.154   2.228  0.0442 -0.0838  0.0201
  924MOL0     C24651  11.086  12.167   2.358  0.0029 -0.6523 -0.1220
  924MOL0     O24652  11.236  12.170   2.637 -0.1181 -0.9975  0.7327
  924MOL0     C24653  10.917  12.195   2.792  0.5807 -0.3400 -1.0172
  924MOL0     C24654  10.852  12.195   2.908  0.2462  0.3592 -0.9334
  924MOL0     N24655  10.728  11.850   3.614  0.0501 -0.0871  0.4422
  924MOL0     N24656  10.706  11.770   3.710  0.3316 -0.3491  0.0822
  924MOL0     C24657  10.457  10.765   4.159  0.6370  0.4589  0.1483
  924MOL0     C24658  10.368  10.739   4.263 -0.6138  0.8490  0.8229
  924MOL0     C24659  10.056  10.791   4.614 -0.0864  0.2873 -0.4180
  924MOL0     C24660  10.045  10.656   4.598 -0.0035 -0.6910 -0.9728
  924MOL0     C24661   9.966  10.585   4.694  0.5343 -0.4748  0.6710
  924MOL0     C24662   9.920  10.649   4.809  0.1613  0.4872 -0.8805
  924MOL0     O24663   9.860  10.594   4.924  0.3355 -0.0494  0.1986
  924MOL0     C24664   9.848  10.463   4.927  0.2027  0.0720 -0.2595
  924MOL0     C24665   9.767  10.413   5.050 -0.1112 -0.8325 -0.6346
  924MOL0     C24666   9.626  10.482   5.055 -0.2217  1.2993 -0.2460
  924MOL0     C24667   9.516  10.418   5.152  0.2864  0.1395  1.3943
  924MOL0     C24668   9.565  10.379   5.290 -0.7610 -0.0633  0.1506
  924MOL0     C24669   9.576  10.353   5.410 -0.0781  0.3084 -0.1892
  924MOL0     C24670   9.915  10.792   4.808  0.7647  0.2252 -0.1260
  924MOL0     C24671   9.979  10.857   4.702 -0.8197  0.3345 -0.7202
  924MOL0     C24672   9.967  11.008   4.706 -0.7790 -0.4818 -0.9272
  924MOL0     H24673  10.198  11.031   4.277 -0.2192 -0.7299  0.4617
  924MOL0     H24674  10.360  11.081   4.090 -2.5985 -1.1767 -0.4103
  924MOL0     H24675  10.656  10.767   3.972 -1.8137 -0.2620  0.1682
  924MOL0     H24676  10.698  10.907   3.865  3.3090 -1.6571  0.4695
  924MOL0     H24677  10.852  10.863   4.080 -2.1641 -0.9970  1.8768
  924MOL0     H24678  10.727  10.926   4.172  0.2581 -2.7711  0.4502
  924MOL0     H24679  10.856  11.124   4.128 -0.0429  1.6612 -0.7548
  924MOL0     H24680  10.731  11.141   4.018  0.3135  0.8270  0.5562
  924MOL0     H24681  11.004  11.020   3.937  0.4395  0.1118  1.0481
  924MOL0     H24682  10.865  11.057   3.833  0.0679 -0.1152  0.4013
  924MOL0     H24683  10.972  11.284   3.995  3.2593 -0.7429 -1.2535
  924MOL0     H24684  11.035  11.248   3.836 -0.1966  4.7102 -0.9114
  924MOL0     H24685  10.773  11.244   3.769 -4.2609  0.1338  0.6083
  924MOL0     H24686  10.746  11.318   3.928  0.5111  1.1317 -0.9541
  924MOL0     H24687  10.916  11.433   3.703  2.4791 -0.0748  1.1430
  924MOL0     H24688  10.898  11.501   3.858  0.6529  0.6368 -0.9249
  924MOL0     H24689  10.642  11.460   3.676  0.8657 -1.2032  1.1648
  924MOL0     H24690  10.653  11.527   3.838  0.6234 -1.7685  0.9303
  924MOL0     H24691  10.840  11.569   3.492 -0.0748 -0.3299 -1.7191
  924MOL0     H24692  10.896  11.933   3.401  3.0211 -1.3791 -0.0560
  924MOL0     H24693  10.944  11.772   3.365  0.6833  1.7942 -1.1197
  924MOL0     H24694  10.778  11.731   3.206 -2.2305 -0.0856 -1.7578
  924MOL0     H24695  10.659  11.837   3.290 -0.2436 -1.1933  2.0179
  924MOL0     H24696  10.757  11.904   3.053 -0.4838  0.9918 -0.0750
  924MOL0     H24697  10.915  11.935   3.131  0.8015  0.1004  2.4263
  924MOL0     H24698  10.735  12.089   3.292 -0.2623  2.4456 -0.6698
  924MOL0     H24699  10.667  12.108   3.137 -2.0695  1.6353  3.7402
  924MOL0     H24700  11.117  12.161   3.116  0.3395  0.0731 -0.8758
  924MOL0     H24701  11.234  12.191   2.903 -0.7891 -1.2976 -0.6332
  924MOL0     H24702  11.222  12.465   2.478  0.7245  1.9169 -1.6749
  924MOL0     H24703  11.349  12.426   2.248 -1.7622  0.5737 -0.8879
  924MOL0     H24704  11.245  12.370   1.949 -1.6853 -3.8541  1.9118
  924MOL0     H24705  11.394  12.419   2.042 -2.3257  1.0812  1.7418
  924MOL0     H24706  11.508  12.221   1.937 -2.8884 -4.1449 -0.5696
  924MOL0     H24707  11.373  12.177   1.838  1.4829 -1.7498 -0.3153
  924MOL0     H24708  11.361  12.408   1.733 -0.2575 -2.0627 -2.3629
  924MOL0     H24709  11.506  12.460   1.820  0.2739 -0.0126 -1.2748
  924MOL0     H24710  11.516  12.267   1.580 -1.5477 -0.7226  1.9277
  924MOL0     H24711  11.636  12.277   1.709 -0.3602  0.3673  3.4556
  924MOL0     H24712  11.699  12.430   1.522  2.4562  0.3197  2.2944
  924MOL0     H24713  11.688  12.500   1.675 -1.5299 -2.1566  0.8097
  924MOL0     H24714  11.462  12.509   1.460 -1.3263 -0.1764  1.7448
  924MOL0     H24715  11.448  12.602   1.606 -4.3236  0.9428 -3.7885
  924MOL0     H24716  11.683  12.615   1.404  0.4721 -1.0114  1.6460
  924MOL0     H24717  11.650  12.734   1.534  0.1473  0.3676  0.7087
  924MOL0     H24718  11.531  12.710   1.275 -0.1384 -1.3388  0.5154
  924MOL0     H24719  11.419  12.747   1.420  0.1467 -3.3108  1.5235
  924MOL0     H24720  11.118  12.077   2.161  1.2708 -0.6411 -0.0002
  924MOL0     H24721  11.027  12.082   2.389  0.4658 -0.8496  0.2309
  924MOL0     H24722  10.864  12.206   2.698  0.0658  0.3714 -0.6469
  924MOL0     H24723  10.744  12.199   2.910  0.1674 -0.9297 -1.2035
  924MOL0     H24724  10.520  10.687   4.115 -1.0986 -0.5456 -0.6677
  924MOL0     H24725  10.361  10.637   4.298 -1.0735  0.1265 -1.2510
  924MOL0     H24726  10.107  10.610   4.522  4.3087  1.0881  1.1366
  924MOL0     H24727   9.953  10.479   4.677 -0.2151 -0.1278 -1.1476
  924MOL0     H24728   9.951  10.429   4.944 -0.2115 -1.0382  0.1286
  924MOL0     H24729   9.808  10.419   4.835 -0.7810 -0.5186  0.4271
  924MOL0     H24730   9.826  10.434   5.139  5.3356 -0.1912 -3.9366
  924MOL0     H24731   9.751  10.305   5.047 -3.9120 -0.5078  1.0298
  924MOL0     H24732   9.578  10.473   4.957  0.0483 -3.7986 -0.2115
  924MOL0     H24733   9.629  10.589   5.077 -2.1983  0.9221  2.2743
  924MOL0     H24734   9.445  10.500   5.164 -2.4065 -1.4185 -1.9852
  924MOL0     H24735   9.456  10.339   5.105  0.9456  2.1714 -3.4059
  924MOL0     H24736   9.564  10.338   5.515  1.9579 -0.9430 -0.0862
  924MOL0     H24737   9.868  10.843   4.891 -2.1676 -2.3037 -0.0476
  924MOL0     H24738   9.884  11.043   4.767 -0.3663  1.5033 -1.4221
  924MOL0     H24739  10.059  11.057   4.740 -1.5528 -0.4559  1.2374
  924MOL0     H24740   9.943  11.050   4.607 -1.4369  0.4898 -0.3689
  925MOL0     O24741   2.464   0.848   6.759 -0.4738 -0.1470 -0.4925
  925MOL0     C24742   2.376   0.765   6.757  0.5654 -0.5777  0.4650
  925MOL0     O24743   2.392   0.641   6.804  0.3586 -0.1823  0.0112
  925MOL0     C24744   2.525   0.618   6.857  0.1815  0.3250 -0.2827
  925MOL0     C24745   2.628   0.556   6.787 -0.4004 -0.8107  0.4518
  925MOL0     C24746   2.749   0.525   6.850 -0.5424 -0.3591  0.6843
  925MOL0     C24747   2.768   0.563   6.981 -0.7253 -0.2433 -0.8545
  925MOL0     O24748   2.893   0.548   7.038 -0.0132  0.3781  0.2117
  925MOL0     C24749   2.979   0.435   6.989  0.5610 -0.1086  1.1178
  925MOL0     C24750   3.080   0.406   7.106  0.3722 -0.3891  0.2666
  925MOL0     C24751   3.022   0.309   7.225 -0.2776  0.3159  0.7355
  925MOL0     C24752   2.976   0.391   7.347  0.6952 -0.0132  0.1433
  925MOL0     C24753   2.897   0.299   7.435  0.0087 -0.0009  0.5184
  925MOL0     C24754   2.834   0.382   7.552 -0.0006 -0.7435  1.4567
  925MOL0     C24755   2.746   0.282   7.624 -0.6291 -0.0017 -0.6489
  925MOL0     C24756   2.827   0.199   7.735 -0.7807  0.1522 -0.9434
  925MOL0     N24757   2.722   0.140   7.812  0.1654  0.1921  0.1948
  925MOL0     C24758   2.667   0.009   7.788 -0.3282  0.0543 -0.2151
  925MOL0     C24759   2.590  -0.006   7.900 -0.3978 -0.5873  0.5674
  925MOL0     C24760   2.527  -0.145   7.923 -0.1664 -0.9502 -1.1142
  925MOL0     C24761   2.556  -0.188   8.066 -0.2141  0.4780 -0.6701
  925MOL0     C24762   2.523  -0.339   8.101  0.8667  0.2438  0.3137
  925MOL0     C24763   2.616  -0.434   8.014  0.8307 -0.6944  0.0693
  925MOL0     O24764   2.749  -0.379   8.003 -0.0851 -0.3579 -0.3174
  925MOL0     C24765   2.835  -0.477   7.960  1.0164  0.1343  0.5250
  925MOL0     C24766   2.971  -0.462   7.997  1.2644  0.2239 -0.4098
  925MOL0     C24767   3.059  -0.567   7.974  0.2953 -0.9251  0.1302
  925MOL0     C24768   3.022  -0.681   7.912 -0.4622  0.7092  0.7117
  925MOL0     C24769   3.120  -0.794   7.907 -0.7720  0.3463 -0.6045
  925MOL0     O24770   3.241  -0.782   7.974  0.4352 -0.2541  0.4265
  925MOL0     C24771   3.333  -0.885   7.967  0.8837  0.4889  0.0416
  925MOL0     C24772   3.379  -0.943   8.077 -0.0928  1.0450 -0.6248
  925MOL0     C24773   3.481  -1.033   8.072 -0.1621  0.1014 -0.3370
  925MOL0     C24774   3.543  -1.070   7.952  0.5752 -0.4973 -0.2099
  925MOL0     O24775   3.638  -1.163   7.956  0.5391  0.4840  0.4195
  925MOL0     C24776   3.740  -1.172   7.860 -0.0822 -0.6141 -0.5663
  925MOL0     C24777   3.718  -1.301   7.776  0.0057 -0.5991 -0.7786
  925MOL0     C24778   3.729  -1.425   7.858  0.0513  0.4632  0.1272
  925MOL0     C24779   3.696  -1.549   7.778 -0.0792  1.0726 -0.1518
  925MOL0     C24780   3.670  -1.675   7.863 -0.5569  0.2816  0.1887
  925MOL0     C24781   3.810  -1.737   7.928  0.4706 -0.7526  0.0098
  925MOL0     C24782   3.775  -1.850   8.025  0.5784  0.9205 -0.6171
  925MOL0     C24783   3.888  -1.891   8.107 -0.7581 -0.0918  1.2033
  925MOL0    Cl24784   3.905  -1.764   8.229  0.0091 -0.0544  0.5655
  925MOL0     C24785   3.495  -1.019   7.833  0.2111 -0.9638  0.0905
  925MOL0     C24786   3.386  -0.933   7.843 -0.1879 -0.4696 -0.5941
  925MOL0     O24787   3.076  -0.900   7.868  0.1674  0.4361 -1.0396
  925MOL0     C24788   2.893  -0.688   7.863  0.3723 -0.3730 -0.2908
  925MOL0     C24789   2.797  -0.590   7.884 -0.0068 -0.5315 -0.1113
  925MOL0     N24790   2.587   0.108   7.982 -0.5720  0.4563 -0.1249
  925MOL0     N24791   2.676   0.183   7.927 -0.1215  0.2195 -0.0815
  925MOL0     C24792   2.667   0.623   7.061 -0.8720  0.2988  0.8190
  925MOL0     C24793   2.543   0.652   6.998 -0.0485  0.0388  0.5608
  925MOL0     C24794   2.247   0.781   6.665 -0.4268 -1.2173 -0.4895
  925MOL0     C24795   2.205   0.664   6.602 -0.2242 -0.7610 -0.3637
  925MOL0     C24796   2.084   0.671   6.531  0.7795 -0.1564  0.0126
  925MOL0     C24797   2.025   0.789   6.510 -0.1661 -0.1627  0.7492
  925MOL0     O24798   1.905   0.794   6.433 -0.6339  0.4092 -0.1704
  925MOL0     C24799   1.800   0.695   6.470 -0.4019 -0.6557  0.4450
  925MOL0     C24800   1.663   0.776   6.448  0.9867 -0.1792 -1.2925
  925MOL0     C24801   1.640   0.871   6.564  0.1197 -0.3434 -1.0970
  925MOL0     C24802   1.626   1.011   6.516  0.3589  0.2506  0.1568
  925MOL0     C24803   1.740   1.047   6.434  0.2369  0.2049  0.6731
  925MOL0     C24804   1.836   1.101   6.386  0.1609  0.9179  1.2075
  925MOL0     C24805   2.078   0.909   6.557 -0.1245  0.2907  1.2176
  925MOL0     C24806   2.191   0.908   6.634  0.2886  0.3098  0.7855
  925MOL0     C24807   2.232   1.042   6.690 -0.5744  1.4763 -0.2207
  925MOL0     H24808   2.606   0.508   6.692  2.0795 -1.9688  0.3765
  925MOL0     H24809   2.822   0.476   6.787 -0.0590 -0.0768  1.0205
  925MOL0     H24810   2.918   0.345   6.984  2.6669 -1.6065  0.9187
  925MOL0     H24811   3.027   0.477   6.900 -3.8816  3.7740  0.1952
  925MOL0     H24812   3.124   0.493   7.155 -0.2637 -0.6593  1.3545
  925MOL0     H24813   3.166   0.350   7.068  2.0067 -0.0024  3.1327
  925MOL0     H24814   3.114   0.257   7.255  1.2734  0.7689 -2.6845
  925MOL0     H24815   2.948   0.241   7.182  1.2703  1.0388 -3.6590
  925MOL0     H24816   3.073   0.424   7.386  1.2249 -1.9061  0.5540
  925MOL0     H24817   2.913   0.474   7.316 -1.8235 -2.5583 -2.0534
  925MOL0     H24818   2.824   0.242   7.375  3.4562 -3.1789 -1.0678
  925MOL0     H24819   2.966   0.228   7.482  0.4899  1.5774  2.3188
  925MOL0     H24820   2.929   0.406   7.601 -0.7461 -0.0017  2.5881
  925MOL0     H24821   2.779   0.467   7.511 -1.1860 -2.7320 -1.4658
  925MOL0     H24822   2.690   0.216   7.557 -3.5453  0.8458  0.7752
  925MOL0     H24823   2.679   0.348   7.681  1.5073  0.0324  2.0188
  925MOL0     H24824   2.884   0.109   7.710  1.3216  0.9313  0.7220
  925MOL0     H24825   2.874   0.275   7.799 -0.8685 -1.4569  1.1155
  925MOL0     H24826   2.682  -0.052   7.700  1.7846  1.5987 -1.0068
  925MOL0     H24827   2.418  -0.133   7.929 -0.0126 -0.0657  2.5695
  925MOL0     H24828   2.550  -0.224   7.851 -1.8111 -1.8340 -0.7463
  925MOL0     H24829   2.661  -0.167   8.088  0.0466 -0.5482 -0.8742
  925MOL0     H24830   2.498  -0.128   8.137  0.6589  0.3059  0.2172
  925MOL0     H24831   2.418  -0.356   8.076 -0.0769  3.3716  1.6082
  925MOL0     H24832   2.540  -0.378   8.202 -0.9528 -2.2571 -0.2401
  925MOL0     H24833   2.578  -0.450   7.912 -2.1762  3.0053  0.3704
  925MOL0     H24834   2.610  -0.527   8.071 -2.4938 -0.6906 -0.0347
  925MOL0     H24835   2.994  -0.383   8.068 -1.2793 -2.9080  4.4158
  925MOL0     H24836   3.158  -0.556   8.018  0.0103 -0.9459  0.7828
  925MOL0     H24837   3.343  -0.923   8.177 -2.2432 -2.9064 -0.4435
  925MOL0     H24838   3.527  -1.069   8.163  1.5004  1.7333 -0.4812
  925MOL0     H24839   3.735  -1.087   7.791 -0.3594  2.8000  3.2444
  925MOL0     H24840   3.844  -1.163   7.894  0.6026 -4.0835 -1.3928
  925MOL0     H24841   3.616  -1.303   7.735 -0.3271  3.2473 -0.5388
  925MOL0     H24842   3.775  -1.288   7.684  1.6676 -0.8162  0.1809
  925MOL0     H24843   3.834  -1.437   7.886  0.5588  1.4947 -1.2417
  925MOL0     H24844   3.667  -1.423   7.949  2.4649  1.8303  1.8593
  925MOL0     H24845   3.772  -1.566   7.701  1.4680  1.4125  1.2650
  925MOL0     H24846   3.600  -1.530   7.729 -0.2971  0.3406 -0.0201
  925MOL0     H24847   3.637  -1.756   7.797  2.1965 -4.0999  3.6191
  925MOL0     H24848   3.604  -1.655   7.949  0.4902  1.1922  0.8049
  925MOL0     H24849   3.887  -1.778   7.862  0.7644 -2.5027  1.3632
  925MOL0     H24850   3.856  -1.656   7.986 -1.0256  0.9014 -0.9939
  925MOL0     H24851   3.756  -1.937   7.961  3.1755 -0.2311  0.0536
  925MOL0     H24852   3.686  -1.817   8.079  0.4760  5.2098 -2.9561
  925MOL0     H24853   3.869  -1.983   8.163 -3.9936 -1.1905 -1.4041
  925MOL0     H24854   3.970  -1.915   8.038 -1.6730  0.3097 -0.0497
  925MOL0     H24855   3.547  -1.039   7.740  6.2506 -1.6649  3.0762
  925MOL0     H24856   3.353  -0.880   7.754 -1.5560  2.5968  1.5549
  925MOL0     H24857   2.870  -0.779   7.810 -1.8507  2.0286 -3.8847
  925MOL0     H24858   2.701  -0.617   7.842 -0.0234 -2.3767  0.9980
  925MOL0     H24859   2.681   0.636   7.167 -1.3181 -0.2820  0.9525
  925MOL0     H24860   2.468   0.711   7.049 -1.1878 -0.3577 -0.5978
  925MOL0     H24861   2.261   0.571   6.610 -0.0699 -0.6108  0.3662
  925MOL0     H24862   2.056   0.581   6.478  0.7395  2.8805 -6.0093
  925MOL0     H24863   1.797   0.665   6.575  0.7553  1.7967  1.2582
  925MOL0     H24864   1.808   0.607   6.405  1.7730 -0.4816  0.4011
  925MOL0     H24865   1.585   0.701   6.461 -0.6315  1.6793  0.4156
  925MOL0     H24866   1.658   0.809   6.344 -0.4400  0.0853 -1.1602
  925MOL0     H24867   1.719   0.864   6.639 -1.5821 -1.1832  0.7159
  925MOL0     H24868   1.560   0.843   6.633  2.9311 -1.0039  2.1632
  925MOL0     H24869   1.537   1.009   6.453 -0.2292 -1.4987  0.9691
  925MOL0     H24870   1.618   1.082   6.599  1.0529  1.0830 -0.4641
  925MOL0     H24871   1.910   1.155   6.329 -1.2607  1.8196  0.1308
  925MOL0     H24872   2.031   1.005   6.535  3.4700  2.1550  1.0648
  925MOL0     H24873   2.167   1.082   6.768 -1.5918  2.0913 -1.3400
  925MOL0     H24874   2.328   1.042   6.742 -0.1385 -5.7148 -0.0758
  925MOL0     H24875   2.230   1.113   6.607 -1.0099 -0.3067 -1.8145
  926MOL0     O24876   0.876   7.391   0.994  0.1287  0.8976  0.2133
  926MOL0     C24877   0.948   7.423   0.902 -0.6898  0.4261  0.0671
  926MOL0     O24878   0.964   7.548   0.867 -0.5825 -0.0585 -0.0482
  926MOL0     C24879   0.946   7.656   0.957 -0.5851  1.1891  0.4417
  926MOL0     C24880   0.833   7.724   0.966  0.9948  0.3967 -0.3857
  926MOL0     C24881   0.820   7.850   1.015  0.6447 -0.4857 -0.3199
  926MOL0     C24882   0.934   7.895   1.084 -0.0424 -0.6970 -1.0683
  926MOL0     O24883   0.935   8.021   1.147 -0.1723  1.1152  0.7275
  926MOL0     C24884   0.859   8.025   1.268 -0.0405  0.0545  0.1177
  926MOL0     C24885   0.887   8.152   1.329 -0.7625 -0.6849  0.5166
  926MOL0     C24886   0.800   8.192   1.440  0.1697  0.6853  0.2159
  926MOL0     C24887   0.844   8.142   1.586  1.5637  0.0700  0.8665
  926MOL0     C24888   0.784   8.002   1.624 -0.6695  0.3606  1.1042
  926MOL0     C24889   0.847   7.960   1.764  0.3770 -0.5753 -0.7806
  926MOL0     C24890   0.787   7.823   1.798  0.4180 -0.2291  0.8034
  926MOL0     C24891   0.827   7.787   1.945  0.8624 -0.0491  0.7992
  926MOL0     N24892   0.834   7.642   1.980 -0.5600  0.1537  0.4239
  926MOL0     C24893   0.781   7.573   2.086 -0.1777  0.0726 -0.3574
  926MOL0     C24894   0.808   7.444   2.070 -0.0493  0.3120  0.0207
  926MOL0     C24895   0.761   7.334   2.153  0.5621  0.5591 -0.1820
  926MOL0     C24896   0.631   7.271   2.085  0.5420  0.3932 -0.0295
  926MOL0     C24897   0.613   7.124   2.136  0.7787 -0.7798 -0.0055
  926MOL0     C24898   0.501   7.036   2.077 -0.3211 -0.9764  0.3448
  926MOL0     O24899   0.374   7.097   2.065 -0.5719  0.8929  0.0281
  926MOL0     C24900   0.286   7.086   2.166  0.2234  0.1610 -0.1055
  926MOL0     C24901   0.311   7.064   2.299 -0.0740 -1.3943 -0.4775
  926MOL0     C24902   0.204   7.061   2.394  1.1656  0.6230 -0.1861
  926MOL0     C24903   0.076   7.083   2.352 -0.1880 -0.2282 -0.6222
  926MOL0     C24904  -0.040   7.073   2.445  0.4223  0.3512  0.0582
  926MOL0     O24905  -0.165   7.096   2.397 -0.4597  0.4580 -0.5090
  926MOL0     C24906  -0.258   7.139   2.489  0.4615  0.1477 -0.3966
  926MOL0     C24907  -0.359   7.057   2.532 -0.5745 -0.2590  0.3547
  926MOL0     C24908  -0.449   7.092   2.634  0.6442 -0.8668  0.4367
  926MOL0     C24909  -0.429   7.208   2.699  0.3850 -0.7857  0.2264
  926MOL0     O24910  -0.516   7.231   2.802 -0.5491 -0.2200 -0.0368
  926MOL0     C24911  -0.487   7.335   2.900  0.1814  0.0217 -0.2650
  926MOL0     C24912  -0.532   7.293   3.034  1.1935  0.1316 -0.1717
  926MOL0     C24913  -0.688   7.309   3.033 -0.0685 -0.2068  0.7164
  926MOL0     C24914  -0.758   7.445   3.027 -0.0283 -0.9349  0.1091
  926MOL0     C24915  -0.901   7.456   3.092 -0.3708  0.5685  0.4388
  926MOL0     C24916  -1.014   7.404   3.001  0.4153  0.5287 -0.4100
  926MOL0     C24917  -1.146   7.410   3.084  1.0264  0.0327 -0.7375
  926MOL0     C24918  -1.268   7.392   2.998  0.9346 -0.5387 -0.7118
  926MOL0    Cl24919  -1.250   7.240   2.904 -0.0154  0.0259 -0.4319
  926MOL0     C24920  -0.331   7.298   2.662 -1.5301  0.5109  1.2622
  926MOL0     C24921  -0.247   7.263   2.549 -0.0202  0.9168  0.4316
  926MOL0     O24922  -0.015   7.044   2.565  0.0673  1.1237  0.4952
  926MOL0     C24923   0.048   7.115   2.220 -0.2379  0.4601  0.1224
  926MOL0     C24924   0.153   7.119   2.141 -0.5303 -0.2954  0.8407
  926MOL0     N24925   0.892   7.434   1.967  0.4574  0.4276 -0.5586
  926MOL0     N24926   0.883   7.546   1.905 -0.2948  0.5219 -0.5544
  926MOL0     C24927   1.051   7.826   1.088 -0.7983 -0.3692  0.4515
  926MOL0     C24928   1.062   7.713   1.010  0.2595  0.5768 -0.1982
  926MOL0     C24929   1.031   7.316   0.833 -0.3834  0.7109 -0.0442
  926MOL0     C24930   1.073   7.336   0.702 -0.0118 -0.0600 -0.0424
  926MOL0     C24931   1.158   7.244   0.639  0.3377 -0.7917  0.1127
  926MOL0     C24932   1.172   7.114   0.689 -0.6045  0.6820 -0.2209
  926MOL0     O24933   1.246   7.011   0.634  0.5285 -0.0314 -0.6629
  926MOL0     C24934   1.263   7.026   0.493  0.4014  0.0931 -0.4053
  926MOL0     C24935   1.301   6.886   0.440 -0.1909  0.7822  0.7267
  926MOL0     C24936   1.439   6.840   0.458 -1.1430  0.3793 -0.1854
  926MOL0     C24937   1.480   6.790   0.592  0.6693 -0.3703 -0.1144
  926MOL0     C24938   1.475   6.639   0.601  0.5224  0.1227 -0.5300
  926MOL0     C24939   1.472   6.515   0.607  0.0781 -0.7708 -0.2028
  926MOL0     C24940   1.116   7.094   0.802  0.2719  0.4848 -0.2917
  926MOL0     C24941   1.041   7.184   0.882 -0.6847  0.0628 -0.5351
  926MOL0     C24942   0.983   7.132   1.015  0.7845 -1.2398 -0.0190
  926MOL0     H24943   0.747   7.672   0.923  1.0211 -0.9679  1.1295
  926MOL0     H24944   0.728   7.908   1.018  1.3019  0.5550  1.4542
  926MOL0     H24945   0.755   8.008   1.237  0.8159 -1.9285 -1.9050
  926MOL0     H24946   0.885   7.951   1.344  1.5685  2.0291  1.6065
  926MOL0     H24947   0.878   8.223   1.246 -0.6037  0.0336  1.0995
  926MOL0     H24948   0.987   8.146   1.373 -0.0741  1.3866 -0.5891
  926MOL0     H24949   0.699   8.154   1.424  0.9748 -1.3611 -0.2643
  926MOL0     H24950   0.797   8.302   1.443 -2.5081  0.6703  1.4260
  926MOL0     H24951   0.950   8.148   1.610  1.8189  2.2029 -0.5285
  926MOL0     H24952   0.798   8.208   1.660  1.2043  2.3995 -1.3024
  926MOL0     H24953   0.675   8.016   1.632 -0.3111  2.6906  3.1105
  926MOL0     H24954   0.804   7.928   1.546  1.6504  0.0011  1.9750
  926MOL0     H24955   0.956   7.948   1.767  0.1515 -2.8996  0.0635
  926MOL0     H24956   0.812   8.033   1.837  3.3441  2.0902 -1.8086
  926MOL0     H24957   0.829   7.746   1.733  0.2652  1.8033 -1.8511
  926MOL0     H24958   0.677   7.825   1.795  0.4238  0.1657  0.7927
  926MOL0     H24959   0.923   7.837   1.963  0.6780  1.1940 -1.2974
  926MOL0     H24960   0.747   7.829   2.007  1.0523  1.2402  0.2041
  926MOL0     H24961   0.737   7.622   2.173 -2.8462  3.8484 -3.4513
  926MOL0     H24962   0.839   7.259   2.169  1.1784  0.1506 -4.0956
  926MOL0     H24963   0.745   7.369   2.255  0.0360 -1.3620  0.4386
  926MOL0     H24964   0.540   7.330   2.095 -0.4638 -0.6602 -2.3689
  926MOL0     H24965   0.647   7.270   1.977 -1.7150  0.0924 -0.3983
  926MOL0     H24966   0.600   7.131   2.244  3.4412  0.3184  0.3355
  926MOL0     H24967   0.710   7.073   2.135  1.3009 -0.1870  4.0253
  926MOL0     H24968   0.495   6.955   2.150 -0.1082  1.0505  2.7423
  926MOL0     H24969   0.529   6.989   1.982  0.5583  0.7920 -0.3161
  926MOL0     H24970   0.417   7.057   2.324 -0.2266 -0.6412  0.4200
  926MOL0     H24971   0.240   7.039   2.493  1.4491 -0.3212 -0.4946
  926MOL0     H24972  -0.370   6.958   2.488  0.2314 -1.0548  1.8394
  926MOL0     H24973  -0.530   7.030   2.668  0.6445 -0.5758  0.9792
  926MOL0     H24974  -0.382   7.349   2.928 -0.5405 -0.1923  2.9560
  926MOL0     H24975  -0.533   7.431   2.877 -4.8358 -2.4147 -1.8534
  926MOL0     H24976  -0.507   7.188   3.051 -0.9192 -0.1210  1.8086
  926MOL0     H24977  -0.481   7.355   3.108  0.6419  0.9828 -0.4869
  926MOL0     H24978  -0.716   7.250   2.946 -2.0671  1.0633  0.4462
  926MOL0     H24979  -0.726   7.261   3.124  1.4144 -3.0458 -0.0564
  926MOL0     H24980  -0.765   7.480   2.924 -0.9880  0.6807  0.6921
  926MOL0     H24981  -0.713   7.517   3.096 -4.1593 -1.7282  4.1725
  926MOL0     H24982  -0.924   7.560   3.115  1.1916  1.2739 -1.0063
  926MOL0     H24983  -0.896   7.402   3.187 -1.9352  0.4413  0.4781
  926MOL0     H24984  -1.022   7.439   2.898 -0.9586 -2.8991 -1.6061
  926MOL0     H24985  -0.991   7.297   2.995 -3.4355 -0.6991  2.4495
  926MOL0     H24986  -1.148   7.505   3.136 -1.5621 -0.3088 -0.0852
  926MOL0     H24987  -1.165   7.326   3.151  3.5119 -0.9804 -1.1856
  926MOL0     H24988  -1.353   7.381   3.066  1.2004  0.0454 -0.2743
  926MOL0     H24989  -1.273   7.473   2.924  0.6867 -0.6145 -0.7794
  926MOL0     H24990  -0.331   7.397   2.705 -2.4835  0.9231  0.3311
  926MOL0     H24991  -0.164   7.320   2.508  2.1690 -1.3821  1.3936
  926MOL0     H24992  -0.049   7.142   2.179 -0.3232 -1.7410 -1.2340
  926MOL0     H24993   0.140   7.151   2.037  2.6957 -3.0557 -0.6123
  926MOL0     H24994   1.129   7.872   1.148 -1.3277  0.6868  0.3526
  926MOL0     H24995   1.160   7.668   1.016  0.2543  0.7760  2.7736
  926MOL0     H24996   1.047   7.429   0.652  0.5962  0.5138  0.6687
  926MOL0     H24997   1.193   7.288   0.546 -1.3456  1.8729  0.6228
  926MOL0     H24998   1.344   7.094   0.466  0.6465 -0.1656 -0.3200
  926MOL0     H24999   1.165   7.052   0.452 -0.1950 -2.3377 -0.6896
  926MOL0     H25000   1.272   6.883   0.334 -1.7934  0.5437  1.1448
  926MOL0     H25001   1.241   6.798   0.464  1.5610 -1.0503 -1.1772
  926MOL0     H25002   1.511   6.916   0.425 -0.8298  1.9399  3.5136
  926MOL0     H25003   1.451   6.764   0.381  0.4933 -0.6652  1.0124
  926MOL0     H25004   1.574   6.838   0.620 -0.6332  2.2084  0.0890
  926MOL0     H25005   1.411   6.826   0.669  2.4729  3.8405 -0.2070
  926MOL0     H25006   1.477   6.408   0.607  0.3536 -0.7865  1.8597
  926MOL0     H25007   1.131   6.990   0.831 -1.8509 -0.0264 -0.8495
  926MOL0     H25008   1.001   7.203   1.097 -0.5677  2.4091 -2.6155
  926MOL0     H25009   0.874   7.124   1.018  0.7624 -0.8130  0.8547
  926MOL0     H25010   1.023   7.031   1.028 -3.2540 -3.2930 -1.6770
  927MOL0     O25011   9.028  10.450   8.490 -0.0317  0.1897 -0.2992
  927MOL0     C25012   9.152  10.433   8.465  0.0770  0.5638 -0.7337
  927MOL0     O25013   9.254  10.445   8.563 -0.4658 -0.7548 -0.0917
  927MOL0     C25014   9.238  10.545   8.661 -0.0189 -0.3220  0.6020
  927MOL0     C25015   9.152  10.657   8.665 -0.0181 -0.1027  0.2012
  927MOL0     C25016   9.157  10.746   8.764 -0.1393  0.1252 -0.0304
  927MOL0     C25017   9.245  10.729   8.874 -0.0036  0.1177  0.9912
  927MOL0     O25018   9.225  10.812   8.977  1.0800 -0.3179  0.7866
  927MOL0     C25019   9.269  10.776   9.100 -0.0710  0.4554  0.5588
  927MOL0     C25020   9.210  10.881   9.192  0.5136  1.4307 -0.6149
  927MOL0     C25021   9.284  11.020   9.181  0.0107  0.0043 -0.7228
  927MOL0     C25022   9.231  11.119   9.293  0.5946  0.3792  0.7066
  927MOL0     C25023   9.256  11.269   9.258 -0.2534 -0.2737  0.0473
  927MOL0     C25024   9.187  11.313   9.124  0.0996  0.2498 -0.4719
  927MOL0     C25025   9.203  11.470   9.095  0.2707 -0.3618 -0.0097
  927MOL0     C25026   9.119  11.497   8.965  0.1065 -0.1190 -0.1110
  927MOL0     N25027   8.976  11.515   9.008  0.7908  0.6068  0.1074
  927MOL0     C25028   8.911  11.516   9.130 -0.1404  0.1847 -0.7083
  927MOL0     C25029   8.794  11.586   9.107 -0.5258  0.3500 -0.5445
  927MOL0     C25030   8.704  11.636   9.223 -0.2691  0.4621 -0.1707
  927MOL0     C25031   8.654  11.522   9.308  0.7503 -0.1979  0.9224
  927MOL0     C25032   8.542  11.451   9.228  0.0599  2.0420 -0.0213
  927MOL0     C25033   8.464  11.365   9.330 -0.7438 -0.4079  0.2665
  927MOL0     O25034   8.321  11.381   9.322  0.6336  0.6291  0.3472
  927MOL0     C25035   8.252  11.452   9.417 -0.4255 -0.4315  0.2363
  927MOL0     C25036   8.306  11.509   9.532  0.1979 -0.1192  0.0679
  927MOL0     C25037   8.230  11.587   9.625 -0.3472 -0.2996 -0.1619
  927MOL0     C25038   8.095  11.605   9.610 -0.0191  0.2057 -1.3421
  927MOL0     C25039   8.020  11.687   9.710  0.6623  0.1503  0.6881
  927MOL0     O25040   7.886  11.686   9.695  0.0838 -0.8223  0.3641
  927MOL0     C25041   7.831  11.799   9.741 -0.4996  0.1816 -0.6313
  927MOL0     C25042   7.825  11.914   9.660 -0.4942 -0.8366 -0.7725
  927MOL0     C25043   7.786  12.034   9.713 -0.2414  0.0670 -0.2757
  927MOL0     C25044   7.735  12.043   9.848  0.4661 -0.3213  0.6300
  927MOL0     O25045   7.673  12.155   9.893  0.1422 -0.6230 -0.1550
  927MOL0     C25046   7.668  12.182  10.029  0.9641 -0.7169  0.4372
  927MOL0     C25047   7.561  12.293  10.038  0.4953 -0.3628 -0.1830
  927MOL0     C25048   7.417  12.251  10.017  0.3569  0.7649 -0.7799
  927MOL0     C25049   7.324  12.362   9.949  0.0977 -0.3206 -0.2436
  927MOL0     C25050   7.173  12.328   9.936  0.6493  0.7388 -0.4700
  927MOL0     C25051   7.148  12.221   9.831 -0.5214  0.0763 -0.0159
  927MOL0     C25052   7.001  12.188   9.818  1.0513 -0.6561  1.1360
  927MOL0     C25053   6.994  12.051   9.748 -0.1759 -0.2423 -0.0261
  927MOL0    Cl25054   7.095  11.915   9.810  0.4155 -0.6671 -0.3580
  927MOL0     C25055   7.756  11.923   9.931 -0.6245  0.6090  1.1395
  927MOL0     C25056   7.804  11.810   9.876 -0.1399  0.7003  0.3615
  927MOL0     O25057   8.080  11.773   9.781  0.5468 -0.7312 -0.3475
  927MOL0     C25058   8.038  11.547   9.500 -1.2496  0.4927  0.2898
  927MOL0     C25059   8.113  11.471   9.403 -0.1706 -0.1944  1.5267
  927MOL0     N25060   8.791  11.619   8.973  0.1735 -0.1429 -0.6573
  927MOL0     N25061   8.894  11.579   8.914  1.0249  0.8725 -0.0945
  927MOL0     C25062   9.334  10.618   8.871 -0.1221 -0.0591 -0.3460
  927MOL0     C25063   9.335  10.533   8.757  0.9939 -1.2262 -0.8062
  927MOL0     C25064   9.188  10.381   8.322  0.0155  0.9181  0.1070
  927MOL0     C25065   9.095  10.409   8.224  0.1129 -0.3210 -0.4892
  927MOL0     C25066   9.119  10.354   8.101  0.4788 -0.2338 -0.1528
  927MOL0     C25067   9.226  10.288   8.059 -0.6619  0.6040 -1.3643
  927MOL0     O25068   9.240  10.251   7.929  0.1029  0.6356 -0.7775
  927MOL0     C25069   9.376  10.227   7.882 -0.5474  0.4931 -0.7076
  927MOL0     C25070   9.371  10.226   7.730  0.0179 -0.1788  0.8943
  927MOL0     C25071   9.250  10.148   7.668  0.3608  0.1170 -1.1683
  927MOL0     C25072   9.265  10.003   7.726  0.0713 -0.3999 -0.3388
  927MOL0     C25073   9.151   9.913   7.680 -0.9360  0.5400 -0.8932
  927MOL0     C25074   9.054   9.847   7.655  0.2651  0.0086 -0.0244
  927MOL0     C25075   9.335  10.273   8.157  0.5751 -0.1515  1.0607
  927MOL0     C25076   9.313  10.318   8.288 -0.2006 -0.1086  0.5188
  927MOL0     C25077   9.416  10.286   8.390  1.0670 -0.6436 -0.5560
  927MOL0     H25078   9.089  10.674   8.579  0.5316  0.8221 -0.0328
  927MOL0     H25079   9.085  10.826   8.775  2.2409  2.1058  2.4903
  927MOL0     H25080   9.227  10.679   9.125 -0.0551  0.4354  0.5053
  927MOL0     H25081   9.379  10.778   9.094 -0.1149 -0.6283 -2.1955
  927MOL0     H25082   9.223  10.836   9.290 -0.5503 -1.0186 -1.5287
  927MOL0     H25083   9.104  10.879   9.164 -0.1819 -6.7784  0.3087
  927MOL0     H25084   9.259  11.063   9.083 -0.7685  1.1662 -0.0266
  927MOL0     H25085   9.392  11.018   9.195  0.5282  0.1496 -3.8970
  927MOL0     H25086   9.124  11.106   9.311  0.2323 -0.4420 -1.7557
  927MOL0     H25087   9.275  11.088   9.388 -0.6747  1.3970  1.6564
  927MOL0     H25088   9.207  11.329   9.336  0.0165 -1.2496  0.9919
  927MOL0     H25089   9.361  11.302   9.261 -0.6030  1.1928 -2.1834
  927MOL0     H25090   9.233  11.262   9.039 -0.8422  0.3652 -1.0599
  927MOL0     H25091   9.082  11.283   9.119 -0.4707  1.6971  1.5000
  927MOL0     H25092   9.307  11.492   9.070 -0.5401 -0.4835 -4.2504
  927MOL0     H25093   9.173  11.537   9.176  1.5352  0.3470 -0.1009
  927MOL0     H25094   9.150  11.589   8.914 -1.2945 -0.5410 -1.8196
  927MOL0     H25095   9.153  11.417   8.898  1.5319 -1.0835  1.6613
  927MOL0     H25096   8.941  11.473   9.225 -0.8327  1.7152  0.2423
  927MOL0     H25097   8.764  11.703   9.285  0.8976 -1.8540  1.3695
  927MOL0     H25098   8.620  11.682   9.171 -0.1592 -1.5567 -2.3215
  927MOL0     H25099   8.740  11.458   9.326  1.0259 -0.1317 -0.1202
  927MOL0     H25100   8.620  11.560   9.405  0.6874  0.5517  0.6131
  927MOL0     H25101   8.569  11.395   9.139 -3.5450  1.3767 -0.8258
  927MOL0     H25102   8.458  11.513   9.195  0.9885  1.1616 -4.7502
  927MOL0     H25103   8.509  11.372   9.429 -1.4357  2.7022  0.4846
  927MOL0     H25104   8.485  11.259   9.315 -1.6484 -1.2118  3.7287
  927MOL0     H25105   8.409  11.497   9.566  0.1307  0.3403  0.4343
  927MOL0     H25106   8.285  11.631   9.708  0.1971 -1.0094 -0.1367
  927MOL0     H25107   7.850  11.906   9.555  1.3250 -0.8942 -0.3720
  927MOL0     H25108   7.775  12.117   9.645  0.4125  2.3297  2.2285
  927MOL0     H25109   7.631  12.104  10.097 -0.9765  1.8651  2.5663
  927MOL0     H25110   7.764  12.224  10.061  1.0416 -1.1608  0.8000
  927MOL0     H25111   7.569  12.331  10.140 -0.9305 -0.7835  0.1145
  927MOL0     H25112   7.579  12.383   9.978 -2.6389  0.9263  0.6026
  927MOL0     H25113   7.425  12.171   9.942  1.6515  1.1064 -1.0263
  927MOL0     H25114   7.372  12.206  10.106 -1.8775 -0.3988 -2.3735
  927MOL0     H25115   7.375  12.391   9.856  1.5773 -4.1372 -0.8142
  927MOL0     H25116   7.329  12.449  10.015 -2.0956 -0.8672  0.7199
  927MOL0     H25117   7.102  12.408   9.913  0.9868  1.2666  0.2758
  927MOL0     H25118   7.137  12.296  10.035 -0.5425  0.6120 -0.9289
  927MOL0     H25119   7.179  12.262   9.735 -2.0715  0.2717 -0.4641
  927MOL0     H25120   7.211  12.133   9.849 -1.0610  0.2151  3.0580
  927MOL0     H25121   6.952  12.261   9.753  0.4269 -0.0589  2.2442
  927MOL0     H25122   6.952  12.206   9.915  0.7009  1.8234  0.5635
  927MOL0     H25123   6.892  12.017   9.764  0.4786 -0.8196  4.2079
  927MOL0     H25124   7.014  12.063   9.641  2.9290 -2.1311  0.2107
  927MOL0     H25125   7.735  11.923  10.038 -3.3084 -2.4065  0.7536
  927MOL0     H25126   7.822  11.718   9.932  0.2403  0.3251 -0.3631
  927MOL0     H25127   7.930  11.543   9.497 -1.2881 -1.1480  1.7831
  927MOL0     H25128   8.067  11.418   9.320 -1.1937  0.0057  1.9589
  927MOL0     H25129   9.413  10.618   8.945  1.4416  0.6015 -1.9467
  927MOL0     H25130   9.411  10.455   8.755  2.4954  0.1816 -1.4411
  927MOL0     H25131   9.003  10.464   8.243 -0.3184 -1.3375  0.4928
  927MOL0     H25132   9.050  10.361   8.017 -0.0206 -1.1318  0.1684
  927MOL0     H25133   9.432  10.138   7.914  0.8948  1.6786  0.2058
  927MOL0     H25134   9.441  10.310   7.912  2.1241 -0.5757 -3.0504
  927MOL0     H25135   9.465  10.195   7.684 -0.2443  1.7036 -1.0848
  927MOL0     H25136   9.365  10.332   7.701  0.8465  0.1394  1.8124
  927MOL0     H25137   9.254  10.155   7.559 -0.6453 -1.0371 -1.3015
  927MOL0     H25138   9.156  10.200   7.687 -0.3944  0.3913 -4.9358
  927MOL0     H25139   9.358   9.965   7.684 -0.1386 -0.7860 -0.4598
  927MOL0     H25140   9.279  10.003   7.835  0.5091 -0.2272 -0.3935
  927MOL0     H25141   8.963   9.789   7.653  0.1127  0.2225  0.4439
  927MOL0     H25142   9.433  10.233   8.133  0.4094  0.6572 -1.2002
  927MOL0     H25143   9.362  10.250   8.478  2.4207 -1.7364 -0.1359
  927MOL0     H25144   9.482  10.207   8.352  0.3497 -1.6436  0.2257
  927MOL0     H25145   9.460  10.385   8.405 -3.5944  1.5918  0.1338
  928MOL0     O25146   2.569   0.783   2.760 -0.1071 -1.1813 -0.2255
  928MOL0     C25147   2.503   0.792   2.863  0.1484  0.7928 -0.3097
  928MOL0     O25148   2.384   0.854   2.877 -0.4769  0.1913  0.1524
  928MOL0     C25149   2.328   0.911   2.773  0.5599  1.2284  0.2999
  928MOL0     C25150   2.353   1.042   2.760 -2.0784  0.2988  1.0575
  928MOL0     C25151   2.293   1.117   2.646  0.2138 -0.3548 -0.3829
  928MOL0     C25152   2.224   1.047   2.550  0.2097  2.0270  0.0332
  928MOL0     O25153   2.174   1.107   2.441 -0.0367 -0.0536 -0.0626
  928MOL0     C25154   2.074   1.217   2.460 -0.3281 -0.0391 -0.3807
  928MOL0     C25155   1.968   1.216   2.344 -0.6985  0.6288 -0.8478
  928MOL0     C25156   1.921   1.357   2.308  0.1620 -0.7157 -0.0531
  928MOL0     C25157   1.806   1.388   2.412  0.2075  0.0438  0.9528
  928MOL0     C25158   1.776   1.544   2.426 -0.1715  0.8382 -0.1467
  928MOL0     C25159   1.713   1.605   2.304  0.5178  0.2593  0.1262
  928MOL0     C25160   1.587   1.523   2.264  0.2639 -0.7888  0.2470
  928MOL0     C25161   1.527   1.596   2.139  0.2328 -0.0874  0.5274
  928MOL0     N25162   1.401   1.546   2.106 -0.0549 -0.3897  0.1064
  928MOL0     C25163   1.301   1.629   2.063  0.1674  0.3707  0.0421
  928MOL0     C25164   1.215   1.542   2.009  1.1629  0.6087  0.0815
  928MOL0     C25165   1.068   1.577   1.952 -0.0337  0.5644 -0.5159
  928MOL0     C25166   1.054   1.519   1.808  0.4526  0.0803  0.5519
  928MOL0     C25167   0.924   1.574   1.746 -1.2330 -0.3851  0.1450
  928MOL0     C25168   0.913   1.530   1.595  1.2736  0.0051  0.5719
  928MOL0     O25169   1.032   1.554   1.529 -0.4085 -0.9043 -0.5441
  928MOL0     C25170   1.043   1.502   1.399 -0.0296 -1.5140 -0.2819
  928MOL0     C25171   0.948   1.435   1.322 -0.3491  0.0880  0.5596
  928MOL0     C25172   0.981   1.370   1.203  0.5909 -0.3569 -0.1328
  928MOL0     C25173   1.114   1.360   1.159  1.5263  0.0402 -0.3260
  928MOL0     C25174   1.155   1.292   1.041 -0.2151 -0.7353  0.2936
  928MOL0     O25175   1.269   1.331   0.967  0.6020  0.5415 -0.4319
  928MOL0     C25176   1.263   1.305   0.832  0.4639  0.2562  0.2773
  928MOL0     C25177   1.335   1.194   0.774 -0.0087  0.1580 -0.7272
  928MOL0     C25178   1.328   1.165   0.633 -0.2858  0.2445  0.4018
  928MOL0     C25179   1.253   1.242   0.545  0.5646 -0.6512 -0.5224
  928MOL0     O25180   1.259   1.221   0.410  0.0938 -0.0395  0.3259
  928MOL0     C25181   1.290   1.088   0.360 -0.9207 -0.1645 -0.8731
  928MOL0     C25182   1.267   1.104   0.204  0.5729  0.0325 -0.4804
  928MOL0     C25183   1.248   0.969   0.125 -0.1865 -0.5327  0.6862
  928MOL0     C25184   1.232   0.992  -0.024 -0.4896  0.5764 -0.4425
  928MOL0     C25185   1.185   0.861  -0.089 -0.3103 -0.7429 -0.8854
  928MOL0     C25186   1.037   0.840  -0.069  1.3259  0.0003  0.8190
  928MOL0     C25187   0.959   0.960  -0.126 -0.7503 -0.5300  0.6193
  928MOL0     C25188   0.829   0.907  -0.167 -0.6677 -0.2889  0.3436
  928MOL0    Cl25189   0.706   1.019  -0.110 -0.1290 -0.0942 -0.0883
  928MOL0     C25190   1.182   1.346   0.606 -0.7439 -0.1565 -0.1282
  928MOL0     C25191   1.184   1.377   0.741  0.5658  0.1274 -0.8389
  928MOL0     O25192   1.071   1.209   1.005  0.2542 -0.3588  0.4788
  928MOL0     C25193   1.210   1.434   1.227 -0.1909 -0.5599  0.0833
  928MOL0     C25194   1.176   1.504   1.349  0.5032 -0.0044 -0.0033
  928MOL0     N25195   1.266   1.419   2.011 -0.3184  0.3908  0.8146
  928MOL0     N25196   1.381   1.425   2.064 -0.4237  0.4382 -0.4876
  928MOL0     C25197   2.220   0.900   2.563  0.7404  0.2749 -1.3308
  928MOL0     C25198   2.256   0.837   2.680  0.1007 -0.2142 -0.0307
  928MOL0     C25199   2.553   0.713   2.978  0.4154  0.0614 -0.3330
  928MOL0     C25200   2.476   0.609   3.029  0.1998 -0.3361 -0.6787
  928MOL0     C25201   2.534   0.525   3.120 -0.0726  0.0721  0.2373
  928MOL0     C25202   2.664   0.541   3.176  0.4181  0.8185  0.6178
  928MOL0     O25203   2.728   0.457   3.260 -0.2579  0.0099 -0.2679
  928MOL0     C25204   2.656   0.343   3.307 -0.2376  0.5313  0.6080
  928MOL0     C25205   2.748   0.258   3.392  0.2237 -0.3067  0.4392
  928MOL0     C25206   2.865   0.210   3.312 -0.0839 -0.1146 -0.8592
  928MOL0     C25207   2.965   0.140   3.408 -0.6743  1.2694  0.1167
  928MOL0     C25208   2.913   0.013   3.469 -0.4441  0.7793  0.9367
  928MOL0     C25209   2.873  -0.085   3.523  0.1892 -0.0640  0.4685
  928MOL0     C25210   2.734   0.646   3.117 -0.3288  1.2007  0.3697
  928MOL0     C25211   2.687   0.723   3.017 -0.2925 -0.8086 -0.6127
  928MOL0     C25212   2.779   0.828   2.975  0.0848  0.0067 -0.6158
  928MOL0     H25213   2.395   1.090   2.848 -3.1960  1.1735  1.1438
  928MOL0     H25214   2.304   1.225   2.646 -0.0238 -0.2705 -3.1033
  928MOL0     H25215   2.021   1.209   2.556 -0.8312  1.3497 -0.5138
  928MOL0     H25216   2.123   1.315   2.468 -0.4058 -0.1571  3.9262
  928MOL0     H25217   1.884   1.152   2.373  1.0494 -0.9461  1.0143
  928MOL0     H25218   2.014   1.191   2.247 -0.7915 -0.1097 -0.7083
  928MOL0     H25219   1.883   1.353   2.205 -1.5618 -1.8625  0.5813
  928MOL0     H25220   2.005   1.426   2.322 -0.4317 -0.2491  1.3959
  928MOL0     H25221   1.720   1.329   2.378  0.4017 -1.5610  3.0248
  928MOL0     H25222   1.834   1.348   2.509 -0.0360 -0.1759  0.9362
  928MOL0     H25223   1.701   1.555   2.505 -0.3491  0.2978 -0.2393
  928MOL0     H25224   1.870   1.596   2.445 -0.5097  1.0655  0.9776
  928MOL0     H25225   1.670   1.703   2.328 -2.6280 -1.1924  0.8828
  928MOL0     H25226   1.783   1.605   2.220  0.1408 -1.1334 -0.2067
  928MOL0     H25227   1.519   1.539   2.347 -0.8399  0.4684 -0.8556
  928MOL0     H25228   1.596   1.416   2.243 -1.5698 -1.0108  0.4513
  928MOL0     H25229   1.517   1.704   2.158  0.3886  0.7246 -3.1858
  928MOL0     H25230   1.592   1.592   2.051  0.2145  3.7695  0.1456
  928MOL0     H25231   1.297   1.736   2.083 -0.0779  0.9652 -2.7973
  928MOL0     H25232   0.991   1.547   2.024 -1.9022  0.9093 -2.2885
  928MOL0     H25233   1.059   1.686   1.962 -1.7913  0.2406  3.4130
  928MOL0     H25234   1.140   1.539   1.743  0.3092  2.3365  0.9744
  928MOL0     H25235   1.046   1.411   1.827  3.7795 -0.8108 -2.1297
  928MOL0     H25236   0.922   1.683   1.744 -2.1154 -0.4023 -0.3562
  928MOL0     H25237   0.832   1.546   1.799 -0.7248  0.6361  1.6624
  928MOL0     H25238   0.828   1.574   1.542  0.8948 -0.8884  0.4282
  928MOL0     H25239   0.897   1.424   1.615 -4.0783  0.3846 -0.1217
  928MOL0     H25240   0.842   1.424   1.342 -0.1146 -0.1330  1.7451
  928MOL0     H25241   0.897   1.326   1.150 -1.9835  2.0733  1.7143
  928MOL0     H25242   1.391   1.129   0.840 -1.0075 -2.5214 -2.3462
  928MOL0     H25243   1.402   1.100   0.587 -0.0588  1.0811 -0.4562
  928MOL0     H25244   1.395   1.062   0.378 -0.9288  1.4574  2.2737
  928MOL0     H25245   1.222   1.007   0.389 -1.7918  0.8499  0.0288
  928MOL0     H25246   1.173   1.158   0.186  1.2272  1.4470  0.2240
  928MOL0     H25247   1.349   1.152   0.150  1.8008 -1.5113 -0.0665
  928MOL0     H25248   1.327   0.898   0.152  5.0182  3.0952 -2.8815
  928MOL0     H25249   1.151   0.927   0.150 -0.8791  1.4734  1.5876
  928MOL0     H25250   1.336   1.001  -0.058  0.3978 -0.1536  1.8309
  928MOL0     H25251   1.166   1.077  -0.043 -3.0884 -1.8214 -3.3002
  928MOL0     H25252   1.249   0.786  -0.042  0.4700  0.4204 -0.0308
  928MOL0     H25253   1.218   0.863  -0.193  3.4656  3.2516  0.1294
  928MOL0     H25254   1.016   0.751  -0.128  0.8490  0.8823 -0.3897
  928MOL0     H25255   1.009   0.821   0.035 -0.6493  1.0011  0.5132
  928MOL0     H25256   1.003   1.007  -0.214  2.6251 -1.4724  1.6274
  928MOL0     H25257   0.939   1.038  -0.052 -3.2739  3.6678 -3.8656
  928MOL0     H25258   0.824   0.897  -0.276  0.5442 -4.0772  0.5109
  928MOL0     H25259   0.807   0.811  -0.121 -1.3316  0.2200  1.1108
  928MOL0     H25260   1.129   1.409   0.535 -0.9447  1.4311  1.3697
  928MOL0     H25261   1.118   1.458   0.770 -2.5287 -1.6350 -2.4373
  928MOL0     H25262   1.311   1.413   1.194  0.3785 -1.6387  2.3136
  928MOL0     H25263   1.250   1.549   1.415  0.5343 -1.7516  1.2394
  928MOL0     H25264   2.168   0.843   2.488 -0.5683  1.6602 -1.5224
  928MOL0     H25265   2.257   0.729   2.686 -3.0108 -0.2767  1.0376
  928MOL0     H25266   2.379   0.585   2.984  0.8662  0.8580 -2.9225
  928MOL0     H25267   2.481   0.438   3.157  3.1716 -2.6261 -0.9166
  928MOL0     H25268   2.629   0.271   3.228  0.7734  0.9247 -0.1221
  928MOL0     H25269   2.561   0.363   3.357 -0.3528  1.7620 -0.0729
  928MOL0     H25270   2.679   0.182   3.430 -1.5420  1.8813  1.8649
  928MOL0     H25271   2.791   0.320   3.471  2.7978  1.9544 -2.4751
  928MOL0     H25272   2.920   0.284   3.254  1.0796 -0.8659 -0.7575
  928MOL0     H25273   2.829   0.133   3.242  0.8565  1.1048 -2.7526
  928MOL0     H25274   3.057   0.127   3.349 -0.4465  0.6112  0.6112
  928MOL0     H25275   2.997   0.197   3.496  1.8363  3.0893 -1.8003
  928MOL0     H25276   2.840  -0.178   3.564  0.5014 -0.5271 -0.3227
  928MOL0     H25277   2.839   0.649   3.144  0.9115 -2.3459 -3.0632
  928MOL0     H25278   2.874   0.797   3.018 -0.6096 -1.0606  0.2281
  928MOL0     H25279   2.798   0.829   2.867  2.4287 -0.0571 -0.2549
  928MOL0     H25280   2.747   0.927   3.008 -0.2345 -1.3699  3.8115
  929MOL0     O25281  10.178   9.438   7.973 -0.2279 -0.0829 -0.0971
  929MOL0     C25282  10.191   9.484   7.861 -1.1069  0.3387  0.3775
  929MOL0     O25283  10.119   9.592   7.817 -0.7894 -0.5753 -0.2751
  929MOL0     C25284  10.035   9.664   7.904  0.1463 -0.1401  0.3441
  929MOL0     C25285   9.923   9.724   7.855 -0.6909 -0.9838 -0.6425
  929MOL0     C25286   9.841   9.819   7.927  0.1756 -0.1350 -0.5120
  929MOL0     C25287   9.864   9.834   8.067  0.4177 -0.5326  0.0785
  929MOL0     O25288   9.771   9.908   8.139 -0.1476  0.2241 -0.3053
  929MOL0     C25289   9.771   9.897   8.287 -0.3076 -0.2347  1.1677
  929MOL0     C25290   9.656   9.991   8.329  0.9340 -0.8092 -0.9532
  929MOL0     C25291   9.627  10.007   8.480  0.2304  0.5011  0.0679
  929MOL0     C25292   9.726  10.085   8.573  0.0647 -0.3917 -0.2286
  929MOL0     C25293   9.670  10.130   8.709  0.4776 -0.1615  0.5682
  929MOL0     C25294   9.732  10.258   8.768  0.2274  0.5936 -0.0903
  929MOL0     C25295   9.678  10.280   8.908 -1.2757  0.2490 -0.2811
  929MOL0     C25296   9.761  10.384   8.980  0.2433  0.1887 -0.1951
  929MOL0     N25297   9.697  10.463   9.082 -0.4264 -0.4144  0.2992
  929MOL0     C25298   9.712  10.450   9.221 -0.1116  0.8736  0.5315
  929MOL0     C25299   9.653  10.551   9.287  0.0213 -0.1257 -0.6950
  929MOL0     C25300   9.647  10.602   9.428 -0.0360  0.5618  0.8573
  929MOL0     C25301   9.640  10.489   9.521 -0.0570  0.5564 -0.1603
  929MOL0     C25302   9.518  10.395   9.517 -0.0313  0.7314 -0.2157
  929MOL0     C25303   9.385  10.474   9.523 -0.1941  0.8455 -0.3821
  929MOL0     O25304   9.377  10.538   9.658  0.2309 -0.5707  0.5419
  929MOL0     C25305   9.256  10.592   9.701 -0.3572  0.1166  0.1597
  929MOL0     C25306   9.177  10.683   9.629  0.1924 -0.7357  0.0322
  929MOL0     C25307   9.050  10.723   9.683 -0.0222 -0.4490 -0.3297
  929MOL0     C25308   9.012  10.686   9.807  0.5846 -0.6556 -0.2755
  929MOL0     C25309   8.873  10.730   9.868  1.0459 -0.0729  0.3308
  929MOL0     O25310   8.870  10.710   9.997  0.5433 -0.5235 -0.2171
  929MOL0     C25311   8.761  10.743  10.076 -0.3142  0.1048  1.2032
  929MOL0     C25312   8.622  10.739  10.046  0.6966 -1.1054  0.7305
  929MOL0     C25313   8.528  10.767  10.145  0.1437 -1.1001  0.4027
  929MOL0     C25314   8.569  10.806  10.275 -0.3682  0.1834  0.0820
  929MOL0     O25315   8.485  10.840  10.378 -0.6424 -0.4385  0.0115
  929MOL0     C25316   8.425  10.731  10.448 -0.0525  0.3510 -0.7433
  929MOL0     C25317   8.359  10.775  10.575 -0.3136 -0.6766 -0.5586
  929MOL0     C25318   8.459  10.821  10.692  0.5856  0.2683 -0.4692
  929MOL0     C25319   8.360  10.857  10.813 -0.4797 -0.0002 -0.0817
  929MOL0     C25320   8.440  10.917  10.935  0.1644 -0.3103  0.1387
  929MOL0     C25321   8.333  10.936  11.040  0.6030  0.2251  0.8628
  929MOL0     C25322   8.384  11.009  11.166  0.2988  0.1161  0.0050
  929MOL0     C25323   8.273  11.072  11.232 -0.1191 -0.2372  0.4432
  929MOL0    Cl25324   8.331  11.156  11.369  0.0565 -0.2318  0.0363
  929MOL0     C25325   8.703  10.802  10.307 -0.1207 -0.8982 -0.4037
  929MOL0     C25326   8.793  10.778  10.208  0.0714  0.2945  0.0767
  929MOL0     O25327   8.776  10.758   9.794  0.6093  1.0443 -0.2532
  929MOL0     C25328   9.086  10.597   9.874 -0.5009  1.2071 -0.0462
  929MOL0     C25329   9.208  10.546   9.817  0.3164  0.9021  0.2229
  929MOL0     N25330   9.603  10.634   9.184  0.0488  0.5462 -0.2384
  929MOL0     N25331   9.622  10.574   9.073 -0.0876 -0.1686  0.5105
  929MOL0     C25332   9.980   9.773   8.126  0.0372  0.2395 -0.3751
  929MOL0     C25333  10.063   9.691   8.039 -0.1360  0.4952 -0.3175
  929MOL0     C25334  10.288   9.418   7.766  0.6053  0.0945  0.3705
  929MOL0     C25335  10.368   9.314   7.813  0.1733 -0.4664  0.1932
  929MOL0     C25336  10.475   9.266   7.733  0.2052  1.1414 -0.5203
  929MOL0     C25337  10.488   9.307   7.600  0.2150 -0.4413  0.3485
  929MOL0     O25338  10.594   9.280   7.510  0.0728  0.8834  0.0546
  929MOL0     C25339  10.714   9.240   7.569 -0.3802  0.3103 -0.1063
  929MOL0     C25340  10.824   9.195   7.477 -0.2367 -0.2008 -0.7814
  929MOL0     C25341  10.788   9.061   7.404 -0.2779  0.5091  0.3861
  929MOL0     C25342  10.908   9.031   7.312  0.1887  0.2310 -0.3016
  929MOL0     C25343  10.852   8.922   7.227 -0.0209 -0.2109 -0.5200
  929MOL0     C25344  10.783   8.838   7.166  0.2785 -0.2587 -0.6569
  929MOL0     C25345  10.400   9.402   7.550  0.3757  0.1264  0.3586
  929MOL0     C25346  10.297   9.462   7.630 -0.6570 -0.1143  0.5305
  929MOL0     C25347  10.206   9.567   7.560  0.0839 -0.7791 -0.6490
  929MOL0     H25348   9.900   9.722   7.748  0.8852  1.1888 -1.0992
  929MOL0     H25349   9.757   9.857   7.871 -0.3501  1.2376  1.1131
  929MOL0     H25350   9.748   9.792   8.304 -0.1162 -0.5648 -0.4339
  929MOL0     H25351   9.863   9.931   8.335 -0.4383  1.0307  0.5691
  929MOL0     H25352   9.564   9.954   8.282  1.8391 -1.6646 -2.1230
  929MOL0     H25353   9.675  10.083   8.273 -1.3944  0.4366  0.1766
  929MOL0     H25354   9.623   9.906   8.521  2.3454 -1.1126 -3.2032
  929MOL0     H25355   9.528  10.053   8.487 -0.4265 -0.8118 -0.3509
  929MOL0     H25356   9.817  10.026   8.590 -0.9456 -1.6178  1.2090
  929MOL0     H25357   9.744  10.177   8.517  0.4201  0.0930  0.6647
  929MOL0     H25358   9.562  10.145   8.699  0.7593  2.6234  0.9508
  929MOL0     H25359   9.687  10.048   8.779  5.1054  0.4719  0.4745
  929MOL0     H25360   9.840  10.235   8.768 -0.2458 -2.2189 -2.3170
  929MOL0     H25361   9.697  10.340   8.706 -2.1131 -1.0234 -1.0303
  929MOL0     H25362   9.677  10.188   8.967  0.2593  0.6205  0.3703
  929MOL0     H25363   9.577  10.322   8.906 -1.0437  0.8595  0.3896
  929MOL0     H25364   9.845  10.338   9.032  0.2180  1.8736  1.4407
  929MOL0     H25365   9.800  10.457   8.908  0.5892 -1.1902 -1.4607
  929MOL0     H25366   9.776  10.374   9.264  1.5223  2.2341  0.6195
  929MOL0     H25367   9.736  10.663   9.450  0.2788  0.5961 -0.4469
  929MOL0     H25368   9.565  10.674   9.433 -0.6228 -0.0529  0.2144
  929MOL0     H25369   9.730  10.428   9.510 -0.5938 -2.4717  6.9119
  929MOL0     H25370   9.661  10.536   9.618 -0.4455 -1.4131  0.9300
  929MOL0     H25371   9.539  10.329   9.602  4.0310 -0.3186 -1.8110
  929MOL0     H25372   9.516  10.318   9.439 -0.8370  0.8175 -0.2896
  929MOL0     H25373   9.303  10.402   9.517 -0.1852  0.9132 -1.7238
  929MOL0     H25374   9.379  10.544   9.439 -3.0544 -2.3241 -3.1240
  929MOL0     H25375   9.202  10.705   9.526  0.2779 -3.7652 -0.7044
  929MOL0     H25376   8.997  10.799   9.626  1.8257 -1.1658 -3.1931
  929MOL0     H25377   8.579  10.706   9.952  1.8453 -2.6749  0.7158
  929MOL0     H25378   8.420  10.756  10.133  0.2850 -1.5645 -0.5181
  929MOL0     H25379   8.357  10.683  10.378  1.0847 -1.1703 -0.8525
  929MOL0     H25380   8.495  10.647  10.461  2.6476  2.7562  1.9205
  929MOL0     H25381   8.300  10.864  10.551  2.3010  1.2251 -0.3456
  929MOL0     H25382   8.300  10.691  10.613  0.5440 -0.6943  0.7975
  929MOL0     H25383   8.530  10.742  10.718 -0.4386 -0.8817 -1.0286
  929MOL0     H25384   8.515  10.913  10.674 -0.4571  1.6566  2.7043
  929MOL0     H25385   8.319  10.761  10.848 -1.9688 -0.4736 -2.8494
  929MOL0     H25386   8.273  10.913  10.777  0.2104 -0.2156 -2.1944
  929MOL0     H25387   8.483  11.016  10.913 -4.2431  1.5966 -1.0561
  929MOL0     H25388   8.522  10.856  10.974  0.8386  0.5251  0.0654
  929MOL0     H25389   8.242  10.973  10.993  0.5254 -3.2582 -2.1593
  929MOL0     H25390   8.297  10.839  11.075  0.9141  0.2534  1.2706
  929MOL0     H25391   8.453  11.090  11.141  1.0216 -1.2783 -2.8740
  929MOL0     H25392   8.429  10.955  11.250  0.1537  0.4051  0.2734
  929MOL0     H25393   8.211  11.128  11.161 -1.2094 -0.4935  1.1651
  929MOL0     H25394   8.211  10.998  11.283 -1.6850  3.5586  4.7484
  929MOL0     H25395   8.734  10.810  10.410 -2.8249 -1.0137  0.4949
  929MOL0     H25396   8.893  10.804  10.241 -0.4872  1.8874  0.6168
  929MOL0     H25397   9.060  10.564   9.974  0.0051 -2.4586 -0.9927
  929MOL0     H25398   9.266  10.479   9.880 -2.5366  1.3871  3.6877
  929MOL0     H25399  10.014   9.793   8.227 -4.7501  0.9028  1.3670
  929MOL0     H25400  10.145   9.650   8.096 -1.2137  0.5604  1.3190
  929MOL0     H25401  10.342   9.278   7.912 -3.4074 -1.2134 -0.8613
  929MOL0     H25402  10.552   9.205   7.779 -0.2164  1.8217  1.1799
  929MOL0     H25403  10.697   9.161   7.643  1.0623  0.6972  0.6838
  929MOL0     H25404  10.754   9.331   7.614  3.2559 -1.6167  0.9165
  929MOL0     H25405  10.905   9.170   7.547 -0.4226  1.1185 -0.0580
  929MOL0     H25406  10.859   9.274   7.409  0.3773  1.1118  0.9631
  929MOL0     H25407  10.702   9.066   7.337  0.0938 -2.7595 -0.4626
  929MOL0     H25408  10.769   8.991   7.486  0.4551  3.0040  2.8967
  929MOL0     H25409  10.926   9.113   7.241  2.2872  1.3305  1.3696
  929MOL0     H25410  10.999   9.005   7.367 -1.3080 -1.0628  1.6724
  929MOL0     H25411  10.724   8.767   7.112 -1.9237 -0.8101  2.2406
  929MOL0     H25412  10.410   9.437   7.448 -2.5682  2.0417  0.5846
  929MOL0     H25413  10.235   9.576   7.455 -0.6589 -2.4510 -1.0218
  929MOL0     H25414  10.103   9.531   7.564  0.7130 -2.6104  0.1748
  929MOL0     H25415  10.231   9.665   7.600 -1.8383 -0.3143 -0.4668
  930MOL0     O25416   4.369   6.867   2.270 -0.1478  0.8140  0.2597
  930MOL0     C25417   4.438   6.901   2.182 -0.6656 -0.1586  0.8522
  930MOL0     O25418   4.568   6.873   2.164 -0.1096 -0.1476 -0.6321
  930MOL0     C25419   4.630   6.761   2.225  0.4390 -0.6391  0.3640
  930MOL0     C25420   4.751   6.785   2.274 -0.0588  1.2277 -0.6954
  930MOL0     C25421   4.828   6.675   2.334  0.9753 -0.2643 -0.0594
  930MOL0     C25422   4.786   6.544   2.338  0.0141 -0.1608  0.4897
  930MOL0     O25423   4.863   6.434   2.384 -0.1570  0.0716  0.3580
  930MOL0     C25424   4.953   6.449   2.491  0.5172 -0.0425 -0.9700
  930MOL0     C25425   4.983   6.313   2.567 -0.0776 -1.0722 -0.1501
  930MOL0     C25426   4.979   6.341   2.727  0.2991  0.2734  0.3750
  930MOL0     C25427   5.026   6.215   2.794 -0.2407 -0.6547  0.9603
  930MOL0     C25428   4.994   6.196   2.944  0.6620  0.4689 -0.6489
  930MOL0     C25429   4.980   6.039   2.990 -0.3836  0.3689  0.4418
  930MOL0     C25430   4.995   6.025   3.144 -0.0984  0.0906 -0.5094
  930MOL0     C25431   4.932   5.892   3.187 -0.9094  0.1579 -0.4610
  930MOL0     N25432   4.937   5.861   3.335 -0.3206 -0.1289 -0.5189
  930MOL0     C25433   4.887   5.952   3.431  0.2087  0.7450  0.0388
  930MOL0     C25434   4.934   5.894   3.549 -0.8202  0.6685 -0.5047
  930MOL0     C25435   4.944   5.959   3.679 -0.6894  0.5066 -0.2328
  930MOL0     C25436   4.817   5.945   3.757  1.0465  0.6373 -1.4166
  930MOL0     C25437   4.848   5.913   3.903  0.0021  1.0039 -0.3997
  930MOL0     C25438   4.769   5.798   3.961  0.2312  0.0463 -0.1015
  930MOL0     O25439   4.790   5.759   4.097 -0.2777 -0.0144 -0.1868
  930MOL0     C25440   4.915   5.702   4.132  0.1610 -0.3217 -0.2028
  930MOL0     C25441   4.940   5.697   4.272  1.2041  0.7552  0.2513
  930MOL0     C25442   5.058   5.635   4.330  0.3459 -0.3094 -0.9517
  930MOL0     C25443   5.137   5.568   4.241 -0.2549 -0.4725 -0.6197
  930MOL0     C25444   5.254   5.496   4.299 -0.3406 -0.3853 -0.4222
  930MOL0     O25445   5.276   5.508   4.434 -0.0955  0.4767 -0.2451
  930MOL0     C25446   5.368   5.415   4.480 -0.5888  0.7664 -0.4889
  930MOL0     C25447   5.489   5.459   4.534  0.0493 -0.2773 -0.1761
  930MOL0     C25448   5.577   5.369   4.603 -0.1299 -0.4453 -1.0034
  930MOL0     C25449   5.540   5.234   4.620 -0.1338 -0.1627 -1.6051
  930MOL0     O25450   5.612   5.156   4.713  0.7050  0.4796 -0.8394
  930MOL0     C25451   5.725   5.216   4.788  0.1356  0.3105  0.2429
  930MOL0     C25452   5.792   5.101   4.854 -0.6746  0.3255  0.1526
  930MOL0     C25453   5.736   5.015   4.969  0.1106 -0.4592  0.3084
  930MOL0     C25454   5.837   4.889   4.997  0.7008 -0.2963 -0.0623
  930MOL0     C25455   5.786   4.766   4.928 -1.4216  0.3985  0.2563
  930MOL0     C25456   5.670   4.699   5.005  0.7992  0.6472 -0.4502
  930MOL0     C25457   5.548   4.664   4.921 -0.0153 -0.7096 -0.5650
  930MOL0     C25458   5.585   4.566   4.812 -0.2635  0.7541 -0.0558
  930MOL0    Cl25459   5.438   4.493   4.763 -0.5404  0.3996  0.0621
  930MOL0     C25460   5.415   5.192   4.552 -0.0958  0.0657 -0.0080
  930MOL0     C25461   5.327   5.272   4.489 -0.0249  0.1235 -0.4140
  930MOL0     O25462   5.318   5.426   4.219  0.4069  0.0394 -0.2527
  930MOL0     C25463   5.117   5.581   4.103  0.1808 -0.4848 -0.4330
  930MOL0     C25464   5.005   5.650   4.046 -0.4416  0.0144  0.0242
  930MOL0     N25465   4.994   5.768   3.515 -0.5040 -0.1617 -0.1621
  930MOL0     N25466   5.001   5.752   3.392 -0.1065 -0.4138  0.1331
  930MOL0     C25467   4.663   6.522   2.273  0.3820  0.1494 -0.6888
  930MOL0     C25468   4.590   6.628   2.220  0.3894  0.2558  0.7320
  930MOL0     C25469   4.404   7.002   2.079  0.1421 -0.7122  0.1441
  930MOL0     C25470   4.330   7.110   2.124 -0.0597 -0.7763  0.1960
  930MOL0     C25471   4.285   7.210   2.036  0.5138  0.1267  0.4976
  930MOL0     C25472   4.316   7.204   1.903  0.4729 -0.0125  0.2756
  930MOL0     O25473   4.297   7.307   1.812 -0.2782  0.1051  0.0243
  930MOL0     C25474   4.210   7.406   1.845  0.6385 -0.1930  0.4088
  930MOL0     C25475   4.155   7.492   1.721 -0.0883  0.0632  0.1653
  930MOL0     C25476   4.066   7.396   1.629  0.3717 -0.0941 -0.1223
  930MOL0     C25477   4.018   7.444   1.491 -0.5813  0.4643 -0.1927
  930MOL0     C25478   3.941   7.333   1.424  0.8965 -0.1779  0.4024
  930MOL0     C25479   3.875   7.244   1.372 -0.9005 -0.1017 -0.9616
  930MOL0     C25480   4.383   7.081   1.854  0.6828 -0.8926  0.0267
  930MOL0     C25481   4.433   6.990   1.940  0.1825 -0.1322  0.5089
  930MOL0     C25482   4.504   6.859   1.892  0.1364  0.3044  1.3540
  930MOL0     H25483   4.792   6.884   2.255 -0.7141  1.4629 -0.9121
  930MOL0     H25484   4.926   6.704   2.370 -0.9800  1.7786  4.2509
  930MOL0     H25485   5.047   6.482   2.445  1.4833 -3.0985 -1.3798
  930MOL0     H25486   4.919   6.520   2.567 -0.2823  1.2889 -2.4902
  930MOL0     H25487   5.082   6.281   2.532  0.8746  1.8438 -0.3807
  930MOL0     H25488   4.907   6.236   2.546 -0.9057 -0.6617  1.2480
  930MOL0     H25489   4.876   6.361   2.758 -1.0217 -0.7197 -2.8854
  930MOL0     H25490   5.035   6.432   2.748  0.8450 -0.3997  1.9874
  930MOL0     H25491   4.978   6.135   2.738 -0.5464 -1.1481  1.8992
  930MOL0     H25492   5.135   6.215   2.788 -0.2028  3.0860 -0.8574
  930MOL0     H25493   5.070   6.247   3.003  0.9710  0.5389 -1.1033
  930MOL0     H25494   4.895   6.236   2.970 -0.2872 -1.1797 -1.5785
  930MOL0     H25495   4.891   5.988   2.952  0.5149 -2.0979  1.4473
  930MOL0     H25496   5.069   5.991   2.950 -2.2952  0.1129 -4.0440
  930MOL0     H25497   4.940   6.101   3.201 -0.8872  0.0715 -1.2141
  930MOL0     H25498   5.093   6.041   3.190 -0.4158  2.1418 -0.4477
  930MOL0     H25499   4.826   5.892   3.162 -1.0017 -2.5346 -0.2898
  930MOL0     H25500   4.981   5.813   3.130 -1.8593 -1.1244  0.4581
  930MOL0     H25501   4.829   6.042   3.411 -0.1566  0.6281  0.5730
  930MOL0     H25502   5.030   5.910   3.724 -2.8481 -2.4003  1.0673
  930MOL0     H25503   4.965   6.066   3.685  0.8903  0.2858 -1.1327
  930MOL0     H25504   4.749   6.029   3.743 -0.7730 -0.6907 -0.9457
  930MOL0     H25505   4.767   5.859   3.711 -0.3326  0.3568  0.4570
  930MOL0     H25506   4.816   5.997   3.965 -1.9500  0.0579 -0.0507
  930MOL0     H25507   4.951   5.875   3.905 -0.5967 -0.6910  0.7586
  930MOL0     H25508   4.790   5.709   3.901  0.5770  0.8804 -1.2353
  930MOL0     H25509   4.661   5.811   3.949 -0.1482 -1.6991  0.9960
  930MOL0     H25510   4.865   5.740   4.338  0.7254  2.1461 -1.1362
  930MOL0     H25511   5.060   5.634   4.438  3.7228  0.9390 -0.8924
  930MOL0     H25512   5.524   5.562   4.524 -0.8038 -0.0419 -0.8294
  930MOL0     H25513   5.662   5.425   4.641  0.6129  1.6743 -5.1279
  930MOL0     H25514   5.792   5.285   4.736  0.3795 -1.1607 -1.5136
  930MOL0     H25515   5.685   5.278   4.869  2.5495 -0.2126  1.9518
  930MOL0     H25516   5.818   5.028   4.777  3.1582 -0.6979  2.1502
  930MOL0     H25517   5.891   5.140   4.882  0.2608 -1.7317 -0.0964
  930MOL0     H25518   5.732   5.073   5.062  3.5876  0.0654  0.2534
  930MOL0     H25519   5.634   4.991   4.936  0.1920  1.3246 -1.4626
  930MOL0     H25520   5.844   4.854   5.101  1.4787  0.8182  0.2732
  930MOL0     H25521   5.935   4.909   4.954 -1.0521  0.6146 -4.0931
  930MOL0     H25522   5.864   4.690   4.921 -3.0336 -1.1575 -3.5214
  930MOL0     H25523   5.758   4.803   4.828  1.5706  1.5291 -0.2740
  930MOL0     H25524   5.706   4.614   5.062 -1.6849  0.4493  0.9250
  930MOL0     H25525   5.621   4.758   5.082  1.2344 -1.8553  1.8770
  930MOL0     H25526   5.512   4.754   4.871 -1.6077 -0.6701  0.5724
  930MOL0     H25527   5.465   4.626   4.982  0.3807  0.0891  0.5067
  930MOL0     H25528   5.635   4.620   4.731  1.6482  1.7475  1.6720
  930MOL0     H25529   5.652   4.484   4.841 -0.3841  1.1874  1.5670
  930MOL0     H25530   5.398   5.085   4.554 -2.0667  0.1937 -2.9250
  930MOL0     H25531   5.257   5.237   4.413  0.8163  1.3336 -1.8192
  930MOL0     H25532   5.195   5.542   4.038  4.4516  1.1586  3.1913
  930MOL0     H25533   5.012   5.667   3.939  1.5810  0.9817  0.2502
  930MOL0     H25534   4.629   6.419   2.272  0.8417 -0.0153 -0.1479
  930MOL0     H25535   4.491   6.600   2.188  0.7214  0.9143 -0.9290
  930MOL0     H25536   4.299   7.125   2.227  2.7924  3.9218  0.6741
  930MOL0     H25537   4.230   7.295   2.076 -0.1472  1.5841 -3.1529
  930MOL0     H25538   4.267   7.481   1.901  0.3108  0.7072 -0.4398
  930MOL0     H25539   4.119   7.383   1.901 -1.4362 -0.9018 -2.9691
  930MOL0     H25540   4.227   7.526   1.646 -0.0359 -1.1522 -0.3628
  930MOL0     H25541   4.105   7.581   1.762 -0.4522  0.3072 -0.7616
  930MOL0     H25542   3.982   7.386   1.698  1.0582  2.3495  1.1872
  930MOL0     H25543   4.115   7.300   1.612 -4.0100 -2.7912  0.8820
  930MOL0     H25544   3.961   7.537   1.496  1.0111  1.9267 -4.5865
  930MOL0     H25545   4.103   7.465   1.425  1.4850  1.3280  2.5615
  930MOL0     H25546   3.842   7.156   1.321  2.2410 -2.0561  0.0942
  930MOL0     H25547   4.409   7.054   1.752  0.6970 -3.4310  0.6269
  930MOL0     H25548   4.460   6.771   1.940  0.4969 -0.6967 -0.0988
  930MOL0     H25549   4.495   6.844   1.784  3.3394 -0.5572  1.1249
  930MOL0     H25550   4.610   6.860   1.918  0.1983 -1.9746  1.3133
  931MOL0     O25551   6.895   3.856   4.708 -0.2896  0.2453 -0.1168
  931MOL0     C25552   6.917   3.856   4.831 -0.5320 -0.2219 -0.2734
  931MOL0     O25553   7.027   3.815   4.885  0.0047 -0.4548  0.4502
  931MOL0     C25554   7.117   3.764   4.791 -0.5186 -0.2425 -1.0432
  931MOL0     C25555   7.077   3.645   4.724 -0.1522  0.6397  0.6516
  931MOL0     C25556   7.166   3.571   4.645 -0.2865 -0.4810  0.1614
  931MOL0     C25557   7.301   3.610   4.632 -0.7275  0.2964 -0.1372
  931MOL0     O25558   7.394   3.545   4.558  0.0353  0.0492 -0.0903
  931MOL0     C25559   7.521   3.502   4.622 -0.7658  0.4683 -0.5105
  931MOL0     C25560   7.600   3.402   4.545 -0.1706  0.2144 -0.3117
  931MOL0     C25561   7.526   3.262   4.515  0.8136  0.9908  0.6351
  931MOL0     C25562   7.453   3.188   4.627  0.5780 -0.0110 -0.1575
  931MOL0     C25563   7.382   3.052   4.592 -0.0268 -0.3397  0.8577
  931MOL0     C25564   7.325   2.978   4.711  0.7721 -0.2871 -0.9316
  931MOL0     C25565   7.213   2.875   4.683 -0.4033  0.4118 -0.8159
  931MOL0     C25566   7.136   2.826   4.825  0.1888  0.3369  0.5708
  931MOL0     N25567   7.232   2.785   4.928  0.0540 -0.3271  0.3312
  931MOL0     C25568   7.276   2.863   5.032 -0.3290  0.4200  0.5433
  931MOL0     C25569   7.380   2.803   5.086 -0.2736 -0.4614 -0.0963
  931MOL0     C25570   7.442   2.826   5.214  0.8295 -1.0026 -0.3806
  931MOL0     C25571   7.572   2.926   5.205 -0.4511  0.5785  0.1768
  931MOL0     C25572   7.645   2.960   5.332  0.4793  0.4024 -0.0814
  931MOL0     C25573   7.723   2.836   5.366  0.0023 -0.2931 -0.8125
  931MOL0     O25574   7.855   2.845   5.305  0.1322 -0.4903 -0.0788
  931MOL0     C25575   7.952   2.785   5.388 -0.0761 -0.3929  0.4180
  931MOL0     C25576   8.000   2.654   5.368  0.0509 -0.2982  0.1409
  931MOL0     C25577   8.079   2.596   5.463  0.6057 -0.3127 -1.2526
  931MOL0     C25578   8.142   2.671   5.564  0.5205 -0.6372  0.1913
  931MOL0     C25579   8.244   2.623   5.651 -1.3522  0.1419  0.2806
  931MOL0     O25580   8.307   2.502   5.607  0.5268 -0.0277  0.4680
  931MOL0     C25581   8.384   2.425   5.691 -0.5540 -0.2173  0.4998
  931MOL0     C25582   8.486   2.478   5.771 -0.3253 -0.2733 -0.4163
  931MOL0     C25583   8.568   2.396   5.845 -0.2746  0.5625  0.1419
  931MOL0     C25584   8.536   2.258   5.845 -0.7907  0.0304  0.4537
  931MOL0     O25585   8.604   2.173   5.929 -0.7316  0.2824 -0.3059
  931MOL0     C25586   8.572   2.033   5.954  0.0174 -1.3521  0.1009
  931MOL0     C25587   8.635   1.953   6.065 -0.6394 -0.1693 -0.3236
  931MOL0     C25588   8.608   1.812   6.040 -0.8299  0.0964 -0.4085
  931MOL0     C25589   8.665   1.729   6.150  0.7218  0.3253  0.2264
  931MOL0     C25590   8.585   1.596   6.163 -0.7427 -0.4894  0.0495
  931MOL0     C25591   8.641   1.518   6.287  0.2718  0.2497  0.2432
  931MOL0     C25592   8.778   1.447   6.259  0.1188  0.4279  0.1858
  931MOL0     C25593   8.793   1.320   6.347 -0.3669 -0.3418 -0.5524
  931MOL0    Cl25594   8.839   1.368   6.513  0.1650  0.2397 -1.0649
  931MOL0     C25595   8.434   2.206   5.762  0.0665  0.2784 -0.1999
  931MOL0     C25596   8.355   2.290   5.689 -0.5446  0.1607 -0.7826
  931MOL0     O25597   8.273   2.680   5.753 -0.1360 -0.5033 -0.1379
  931MOL0     C25598   8.106   2.805   5.568 -0.2649  0.4615 -0.5931
  931MOL0     C25599   8.005   2.867   5.490 -0.8623  0.4378 -1.0330
  931MOL0     N25600   7.398   2.689   5.005 -0.5704 -0.0983  0.1809
  931MOL0     N25601   7.306   2.672   4.924  0.0703  0.0038 -0.1820
  931MOL0     C25602   7.338   3.730   4.691 -0.8225  0.1646 -0.3970
  931MOL0     C25603   7.259   3.800   4.775  0.6981 -1.2105 -0.4408
  931MOL0     C25604   6.800   3.868   4.935 -0.4961  0.0538  0.4865
  931MOL0     C25605   6.795   3.816   5.070 -0.3411  0.5888 -0.5198
  931MOL0     C25606   6.684   3.824   5.158 -0.4218  0.4985 -0.0642
  931MOL0     C25607   6.572   3.876   5.107 -0.5985  0.3069 -0.9853
  931MOL0     O25608   6.456   3.901   5.171  0.3110 -0.2776 -0.2005
  931MOL0     C25609   6.429   3.830   5.285 -0.0144 -1.1394  0.1553
  931MOL0     C25610   6.285   3.878   5.324 -0.5208  0.7655 -0.1466
  931MOL0     C25611   6.177   3.793   5.251  0.0022 -0.2721  1.2120
  931MOL0     C25612   6.031   3.856   5.246 -1.1370  0.7167 -0.2416
  931MOL0     C25613   5.946   3.768   5.161 -0.0825  0.6235 -0.2259
  931MOL0     C25614   5.874   3.701   5.090  0.1457 -0.2596 -0.1795
  931MOL0     C25615   6.576   3.918   4.976  0.0167  0.3106 -0.4448
  931MOL0     C25616   6.683   3.918   4.892  0.0593  0.2097  0.1666
  931MOL0     C25617   6.651   3.985   4.759  0.3711  0.4991  0.9727
  931MOL0     H25618   6.974   3.610   4.726  0.1245 -0.5817 -2.0406
  931MOL0     H25619   7.139   3.476   4.599 -0.9927 -0.7418  1.0874
  931MOL0     H25620   7.585   3.591   4.627  0.9159 -0.7574  1.8524
  931MOL0     H25621   7.515   3.464   4.725  5.0491  3.8263  1.5793
  931MOL0     H25622   7.693   3.372   4.595  0.3173 -0.4982 -1.6142
  931MOL0     H25623   7.640   3.452   4.457  1.5312  0.8249  0.7517
  931MOL0     H25624   7.595   3.192   4.467  2.6197  2.2180  1.3248
  931MOL0     H25625   7.442   3.277   4.446 -1.6686 -2.6882  2.5454
  931MOL0     H25626   7.531   3.172   4.702  0.6140 -0.7231 -0.3462
  931MOL0     H25627   7.370   3.246   4.668 -1.9903 -2.0198 -2.2298
  931MOL0     H25628   7.304   3.084   4.523 -1.7905  1.6617  3.5712
  931MOL0     H25629   7.448   2.986   4.534 -1.2049  1.5485 -2.9215
  931MOL0     H25630   7.406   2.939   4.774 -2.0936 -2.3241  1.8354
  931MOL0     H25631   7.270   3.054   4.767  1.7351  0.7233 -1.3226
  931MOL0     H25632   7.265   2.789   4.640  0.2256 -0.6460  1.8327
  931MOL0     H25633   7.139   2.909   4.610 -0.3774 -0.6499 -1.3569
  931MOL0     H25634   7.087   2.914   4.868  0.0367  0.3525  0.3678
  931MOL0     H25635   7.079   2.737   4.797 -0.6804  0.3873  2.1149
  931MOL0     H25636   7.242   2.955   5.078 -0.7515 -1.2342  3.8115
  931MOL0     H25637   7.369   2.876   5.279  2.6602 -1.2810  2.0331
  931MOL0     H25638   7.458   2.732   5.267  3.3260 -2.1881 -2.9801
  931MOL0     H25639   7.654   2.884   5.146 -1.6191 -1.8248  0.1441
  931MOL0     H25640   7.551   3.026   5.165  0.9673  0.9579  0.3075
  931MOL0     H25641   7.579   2.990   5.413  1.9499 -1.1884  1.8005
  931MOL0     H25642   7.715   3.044   5.325 -0.5928  1.3753  0.5871
  931MOL0     H25643   7.685   2.756   5.302 -1.7199  1.9324 -2.7569
  931MOL0     H25644   7.705   2.820   5.473  1.4414  1.3809 -0.2755
  931MOL0     H25645   7.960   2.595   5.287 -0.4737 -0.8929  0.8187
  931MOL0     H25646   8.094   2.488   5.461 -0.9777 -0.5566 -1.1934
  931MOL0     H25647   8.503   2.585   5.776 -1.0187 -0.1253  5.5883
  931MOL0     H25648   8.642   2.444   5.909 -0.3667 -0.2861  0.9012
  931MOL0     H25649   8.465   2.044   5.976  0.4662  4.7249  0.9001
  931MOL0     H25650   8.597   1.990   5.857 -0.9812  0.0748 -0.8241
  931MOL0     H25651   8.743   1.966   6.070 -0.3833 -2.2384  0.4530
  931MOL0     H25652   8.597   1.981   6.164  2.8199  2.7811  0.3616
  931MOL0     H25653   8.500   1.800   6.032 -0.8793  0.6965 -0.6919
  931MOL0     H25654   8.661   1.783   5.948  2.9501  0.7858  1.3669
  931MOL0     H25655   8.637   1.777   6.244 -2.0223 -1.7553  0.6145
  931MOL0     H25656   8.770   1.702   6.138 -0.4233 -5.8451  0.5786
  931MOL0     H25657   8.604   1.534   6.075 -1.4837  0.6649 -0.9499
  931MOL0     H25658   8.478   1.609   6.180 -1.0551 -1.6215 -0.8780
  931MOL0     H25659   8.664   1.580   6.374  0.5730 -1.5554  1.4974
  931MOL0     H25660   8.566   1.441   6.310  0.5116  0.2521  1.0517
  931MOL0     H25661   8.871   1.504   6.270  0.6905 -0.7733  2.2778
  931MOL0     H25662   8.771   1.417   6.154  3.1275  2.1547 -0.6295
  931MOL0     H25663   8.711   1.249   6.360  0.7221 -1.7334 -1.0110
  931MOL0     H25664   8.878   1.263   6.307  0.3051  0.3294 -0.1079
  931MOL0     H25665   8.402   2.103   5.778  2.3573 -0.4455  0.0551
  931MOL0     H25666   8.267   2.254   5.637 -1.9241  2.4240 -0.1916
  931MOL0     H25667   8.166   2.870   5.630 -0.8137  1.4775 -1.1035
  931MOL0     H25668   7.968   2.969   5.493 -2.7929 -0.2276  1.9667
  931MOL0     H25669   7.439   3.763   4.670 -1.1718  1.0486 -0.7184
  931MOL0     H25670   7.294   3.891   4.823 -2.6964 -0.6598  1.3319
  931MOL0     H25671   6.883   3.766   5.110  0.1599  2.6300  1.1188
  931MOL0     H25672   6.696   3.787   5.260 -0.2246  0.5842 -0.0567
  931MOL0     H25673   6.491   3.862   5.369 -1.5050  3.1351 -0.1313
  931MOL0     H25674   6.437   3.722   5.270 -0.4436 -1.1732  0.1495
  931MOL0     H25675   6.263   3.984   5.306 -0.7582  0.6247 -0.7169
  931MOL0     H25676   6.272   3.864   5.431 -0.4129 -0.1389 -0.2451
  931MOL0     H25677   6.184   3.694   5.296 -0.5146  0.5325  3.1910
  931MOL0     H25678   6.196   3.789   5.144 -5.5752  2.0768 -0.2612
  931MOL0     H25679   5.983   3.871   5.343 -0.2293 -1.9282  0.7053
  931MOL0     H25680   6.035   3.948   5.187  0.7827 -0.0603 -1.4150
  931MOL0     H25681   5.810   3.636   5.034 -2.1769  1.4596  0.3064
  931MOL0     H25682   6.486   3.960   4.931 -0.7191 -0.1205  0.5707
  931MOL0     H25683   6.736   4.053   4.751  0.3626  0.8257  3.0137
  931MOL0     H25684   6.627   3.911   4.682  2.8205  0.7081 -0.0963
  931MOL0     H25685   6.568   4.056   4.756  1.6097  1.9800 -0.7006
  932MOL0     O25686   6.358  10.164  11.109  0.1398  0.9315 -0.0120
  932MOL0     C25687   6.246  10.123  11.073 -0.4757  0.3225 -0.6591
  932MOL0     O25688   6.227  10.061  10.951  0.2083  0.6539 -0.1217
  932MOL0     C25689   6.343  10.027  10.881 -0.8673 -0.4762 -1.4804
  932MOL0     C25690   6.365  10.088  10.752 -0.4398 -0.0568 -0.2176
  932MOL0     C25691   6.486  10.076  10.678  0.5301  0.2484  1.1128
  932MOL0     C25692   6.595  10.010  10.726  0.3396  0.2517 -0.7078
  932MOL0     O25693   6.723  10.001  10.676 -0.2262 -0.3561 -0.9889
  932MOL0     C25694   6.757  10.054  10.546 -0.0263  0.2336 -0.5876
  932MOL0     C25695   6.903  10.012  10.521 -1.3271  0.3527 -0.2929
  932MOL0     C25696   7.009  10.038  10.641  0.9486  0.4386 -0.0719
  932MOL0     C25697   7.046  10.186  10.642  0.6965  0.1521  0.3720
  932MOL0     C25698   7.137  10.221  10.756 -0.5537 -0.1416  0.1879
  932MOL0     C25699   7.169  10.373  10.751 -0.1643  0.2837  0.3666
  932MOL0     C25700   7.279  10.407  10.843 -0.4354 -0.3560  0.5574
  932MOL0     C25701   7.314  10.549  10.839 -0.3599  0.6215 -0.9557
  932MOL0     N25702   7.423  10.578  10.936 -0.3674 -0.1894 -0.2959
  932MOL0     C25703   7.424  10.540  11.067  0.5831 -0.1806 -0.3259
  932MOL0     C25704   7.551  10.552  11.110 -0.4147  0.3143  0.5862
  932MOL0     C25705   7.595  10.507  11.242  0.2027 -0.0110  0.1458
  932MOL0     C25706   7.679  10.384  11.235 -0.3256  0.4109  0.4761
  932MOL0     C25707   7.653  10.282  11.119 -1.1670 -0.2336 -0.1914
  932MOL0     C25708   7.532  10.195  11.133 -0.6094  0.4310 -0.7338
  932MOL0     O25709   7.496  10.165  11.270  0.1615 -1.1483 -0.0044
  932MOL0     C25710   7.379  10.234  11.318 -0.3463  0.3725  0.5636
  932MOL0     C25711   7.251  10.219  11.261 -0.7213 -0.0879  0.9301
  932MOL0     C25712   7.144  10.276  11.321 -0.4369 -0.9483 -0.4737
  932MOL0     C25713   7.173  10.367  11.431 -0.9884 -0.0747  0.0924
  932MOL0     C25714   7.074  10.471  11.481  0.1194  0.3975  0.8917
  932MOL0     O25715   7.122  10.588  11.528  0.3495  0.2563 -0.8111
  932MOL0     C25716   7.062  10.678  11.606  0.8888 -0.0485  0.4463
  932MOL0     C25717   7.072  10.813  11.570 -0.1236  0.6182  0.6426
  932MOL0     C25718   7.012  10.910  11.647  0.0382 -0.4418 -0.8296
  932MOL0     C25719   6.952  10.876  11.768  0.5175  0.0114  0.3188
  932MOL0     O25720   6.887  10.965  11.851 -0.3810 -0.2845 -0.2157
  932MOL0     C25721   6.807  11.068  11.791  0.0680 -0.2490 -1.0695
  932MOL0     C25722   6.843  11.205  11.848  0.1906 -0.5537 -0.6413
  932MOL0     C25723   6.963  11.267  11.790  0.5199 -0.7893 -0.2508
  932MOL0     C25724   6.996  11.409  11.860 -0.1672 -0.1155  0.7560
  932MOL0     C25725   7.100  11.478  11.766  0.3959 -0.8023  0.7807
  932MOL0     C25726   7.115  11.616  11.821 -0.4372 -0.5058  0.2219
  932MOL0     C25727   7.003  11.719  11.792 -0.4086 -0.3255 -0.1641
  932MOL0     C25728   6.987  11.748  11.640  0.1688  0.1613 -0.0162
  932MOL0    Cl25729   6.839  11.855  11.640 -0.1005 -0.2954 -0.3499
  932MOL0     C25730   6.956  10.746  11.809 -0.0062  0.3732 -0.2724
  932MOL0     C25731   7.005  10.645  11.724  0.1793  0.2046 -0.3687
  932MOL0     O25732   6.957  10.437  11.474 -0.2778 -0.0923 -0.8586
  932MOL0     C25733   7.295  10.366  11.503  0.3898  0.8974 -1.4591
  932MOL0     C25734   7.391  10.291  11.446 -0.4709  1.4165  0.0646
  932MOL0     N25735   7.630  10.618  11.004  0.2678  0.0339 -0.0282
  932MOL0     N25736   7.549  10.626  10.902 -0.0972 -0.9784  0.3258
  932MOL0     C25737   6.581   9.953  10.855  0.8840  0.0553 -0.1067
  932MOL0     C25738   6.454   9.951  10.921 -0.8863 -0.3402  0.4359
  932MOL0     C25739   6.125  10.147  11.156 -1.0530 -0.3331 -0.1762
  932MOL0     C25740   6.140  10.253  11.248 -0.3110 -0.0157 -0.4747
  932MOL0     C25741   6.032  10.304  11.322 -0.3327 -1.1332 -0.3075
  932MOL0     C25742   5.909  10.243  11.326  0.6230 -0.5432 -0.8496
  932MOL0     O25743   5.800  10.288  11.397 -0.5250  0.2668  0.9250
  932MOL0     C25744   5.808  10.391  11.492 -0.8267  0.5391  0.8755
  932MOL0     C25745   5.672  10.442  11.517  0.8288  0.0265 -0.5255
  932MOL0     C25746   5.585  10.490  11.394 -0.0609 -0.4335  0.3276
  932MOL0     C25747   5.666  10.592  11.331 -0.3569  0.0576  0.7782
  932MOL0     C25748   5.666  10.714  11.410  0.1746  0.2420  0.6516
  932MOL0     C25749   5.645  10.818  11.473 -0.8174 -0.4046  0.3170
  932MOL0     C25750   5.900  10.133  11.247 -0.2420  0.0549  1.2773
  932MOL0     C25751   5.997  10.089  11.154 -0.0362  0.3524 -0.2373
  932MOL0     C25752   5.966   9.975  11.067 -0.3430  0.1148  0.2478
  932MOL0     H25753   6.279  10.142  10.715 -1.3919 -1.5668 -0.2899
  932MOL0     H25754   6.481  10.123  10.580  4.6872 -0.8330  0.2199
  932MOL0     H25755   6.693  10.000  10.476 -3.6675  2.0380  1.0529
  932MOL0     H25756   6.748  10.163  10.542 -2.2866  0.0808 -0.5679
  932MOL0     H25757   6.936  10.070  10.435 -1.9603  2.4707  0.8178
  932MOL0     H25758   6.904   9.906  10.492  2.9001 -0.4024  1.8140
  932MOL0     H25759   7.091   9.981  10.596  2.1217  2.7324 -0.9939
  932MOL0     H25760   6.978   9.999  10.739 -0.0426 -0.4660 -0.7184
  932MOL0     H25761   7.089  10.212  10.544 -2.3590 -1.2960 -1.4932
  932MOL0     H25762   6.950  10.237  10.652  0.3303  0.5418 -3.5649
  932MOL0     H25763   7.081  10.205  10.848 -0.3724 -1.0791  0.1477
  932MOL0     H25764   7.231  10.165  10.752 -0.7347 -0.3865 -0.8548
  932MOL0     H25765   7.206  10.405  10.653  1.0481  1.6079  1.2275
  932MOL0     H25766   7.080  10.435  10.767  0.4349  1.2816 -0.0818
  932MOL0     H25767   7.369  10.350  10.815 -1.2855 -0.1043 -3.2324
  932MOL0     H25768   7.238  10.386  10.941 -1.2867 -3.5030 -0.3702
  932MOL0     H25769   7.333  10.591  10.740 -1.1790  1.0363 -0.9400
  932MOL0     H25770   7.224  10.596  10.881  0.0219 -0.3284  1.0936
  932MOL0     H25771   7.334  10.497  11.110  1.0806 -2.7008 -1.6021
  932MOL0     H25772   7.651  10.588  11.291 -0.0178  2.3401 -3.1549
  932MOL0     H25773   7.506  10.492  11.303 -1.3664  0.4901 -1.9269
  932MOL0     H25774   7.779  10.421  11.209 -0.5828 -1.5906 -4.4736
  932MOL0     H25775   7.677  10.331  11.331  3.0134  0.9027  0.9551
  932MOL0     H25776   7.742  10.219  11.120 -0.3198  0.8720 -1.5049
  932MOL0     H25777   7.660  10.332  11.022  1.5318 -1.6514 -0.8212
  932MOL0     H25778   7.550  10.109  11.068  1.0855 -0.6336  1.0227
  932MOL0     H25779   7.457  10.258  11.085 -1.6207  0.0278  0.2898
  932MOL0     H25780   7.232  10.173  11.165 -0.1646  1.6801 -0.0696
  932MOL0     H25781   7.050  10.281  11.268 -1.2663  2.2847  1.0542
  932MOL0     H25782   7.137  10.828  11.485  0.8256 -0.7324  1.1064
  932MOL0     H25783   7.014  11.012  11.611 -3.1222 -0.1194 -0.3717
  932MOL0     H25784   6.833  11.061  11.685 -1.5004 -1.5003 -1.4005
  932MOL0     H25785   6.702  11.051  11.814  0.6419 -0.5305  1.5749
  932MOL0     H25786   6.755  11.266  11.827  2.3569  2.6182 -1.1121
  932MOL0     H25787   6.844  11.201  11.957  0.4352  0.8729 -0.5763
  932MOL0     H25788   7.047  11.197  11.785  2.8221  1.5292  2.2986
  932MOL0     H25789   6.947  11.285  11.684  0.9429 -0.7629 -0.3127
  932MOL0     H25790   7.032  11.404  11.963  3.8277  0.2103 -0.4572
  932MOL0     H25791   6.908  11.474  11.852  0.3302  0.5922  0.9407
  932MOL0     H25792   7.066  11.466  11.663 -1.4436 -2.1499  1.4960
  932MOL0     H25793   7.194  11.422  11.770  0.5149 -0.5773  1.3517
  932MOL0     H25794   7.132  11.612  11.929  1.8303  3.1339  0.1532
  932MOL0     H25795   7.215  11.655  11.800 -0.8123 -0.2296 -1.0916
  932MOL0     H25796   7.028  11.807  11.852  2.1918 -2.1042  1.5241
  932MOL0     H25797   6.905  11.680  11.822 -0.2389 -1.5003 -1.0925
  932MOL0     H25798   7.077  11.796  11.600  1.3864  2.2098  4.5562
  932MOL0     H25799   6.978  11.657  11.580 -0.6062 -0.3996  0.9268
  932MOL0     H25800   6.904  10.728  11.902 -1.5581  1.2764 -0.9126
  932MOL0     H25801   7.036  10.550  11.767 -1.7390 -0.6402 -0.7521
  932MOL0     H25802   7.313  10.426  11.592  1.8573 -2.2423  0.5724
  932MOL0     H25803   7.492  10.269  11.481  0.3390  0.4479 -2.6173
  932MOL0     H25804   6.663   9.904  10.906  0.2821  0.0376  0.8733
  932MOL0     H25805   6.439   9.887  11.007 -1.7384  0.2112  0.7196
  932MOL0     H25806   6.232  10.305  11.272  0.8507 -2.1430  0.0239
  932MOL0     H25807   6.052  10.382  11.395 -2.5035 -1.7499  1.0515
  932MOL0     H25808   5.863  10.481  11.464 -1.9823  0.6046 -1.4396
  932MOL0     H25809   5.853  10.357  11.585 -0.5543  0.2413  0.6373
  932MOL0     H25810   5.677  10.524  11.589  0.2417  2.0926 -2.7403
  932MOL0     H25811   5.621  10.358  11.566  1.9679 -1.4044 -1.7155
  932MOL0     H25812   5.489  10.524  11.436  0.4853  1.4130  0.1653
  932MOL0     H25813   5.578  10.401  11.330  3.1101  0.8722 -2.0549
  932MOL0     H25814   5.766  10.563  11.298 -0.5162  0.5572 -0.1886
  932MOL0     H25815   5.615  10.614  11.237  1.1872  0.0095 -0.1079
  932MOL0     H25816   5.631  10.907  11.530 -0.5634 -1.6902  2.4899
  932MOL0     H25817   5.810  10.076  11.268 -0.9706  1.1734  1.2527
  932MOL0     H25818   5.868   9.927  11.073  0.3170 -1.1369  1.8193
  932MOL0     H25819   5.985  10.012  10.966 -0.3241  1.2573  0.6556
  932MOL0     H25820   6.027   9.885  11.078 -1.7941 -0.9172  0.1616
  933MOL0     O25821   3.950   1.523   4.528 -0.3852  0.1197  0.8527
  933MOL0     C25822   3.909   1.542   4.638  0.2884 -0.2065 -0.6484
  933MOL0     O25823   3.983   1.591   4.741 -0.0556  0.1892 -0.1659
  933MOL0     C25824   4.100   1.655   4.716 -0.1681 -0.3464  0.2620
  933MOL0     C25825   4.116   1.748   4.610 -0.4766 -0.7436 -1.1574
  933MOL0     C25826   4.245   1.794   4.584  0.5290 -0.5851 -0.1224
  933MOL0     C25827   4.350   1.744   4.662 -0.2790  0.1429  1.1411
  933MOL0     O25828   4.463   1.810   4.607  0.8871  0.0259 -0.6411
  933MOL0     C25829   4.578   1.720   4.605 -0.2145 -0.3461  0.5703
  933MOL0     C25830   4.674   1.758   4.496 -0.5514  0.3664  0.0145
  933MOL0     C25831   4.721   1.896   4.501 -1.0109 -0.4222  0.1985
  933MOL0     C25832   4.838   1.915   4.402  0.8480 -0.1867 -0.0188
  933MOL0     C25833   4.829   2.061   4.356  0.5163 -0.1803 -0.8448
  933MOL0     C25834   4.877   2.161   4.453 -0.4407 -0.2740 -0.5073
  933MOL0     C25835   5.035   2.146   4.466  0.7092 -0.2678  0.1188
  933MOL0     C25836   5.104   2.279   4.494 -0.1096 -0.7208  0.3854
  933MOL0     N25837   5.064   2.344   4.619  0.8752  0.0786  0.4033
  933MOL0     C25838   5.104   2.318   4.742 -0.2384  0.2861  0.3837
  933MOL0     C25839   5.056   2.419   4.819  1.4372  0.4629 -0.1450
  933MOL0     C25840   5.086   2.429   4.965  0.7272 -0.7270 -0.7447
  933MOL0     C25841   5.021   2.325   5.064  0.3086  0.1947  0.4916
  933MOL0     C25842   5.005   2.371   5.212  0.1527  0.5888  0.4390
  933MOL0     C25843   4.888   2.464   5.228 -0.0128 -1.0419  0.8227
  933MOL0     O25844   4.782   2.461   5.126 -0.2312 -0.6347  0.1076
  933MOL0     C25845   4.651   2.496   5.160  1.0053  0.6279 -0.2689
  933MOL0     C25846   4.543   2.496   5.069  0.1128 -0.4009  0.4480
  933MOL0     C25847   4.409   2.526   5.099 -1.0441 -0.6977  0.4313
  933MOL0     C25848   4.375   2.568   5.229 -0.1270  0.0893  0.9744
  933MOL0     C25849   4.245   2.619   5.276  0.2632 -0.5362  0.6004
  933MOL0     O25850   4.134   2.587   5.204  0.1960  0.5464  0.9467
  933MOL0     C25851   4.012   2.658   5.211  0.0847 -0.0073  0.1667
  933MOL0     C25852   3.897   2.599   5.164 -0.3135 -0.4472  0.1911
  933MOL0     C25853   3.774   2.673   5.179 -0.1930  0.5464  0.3936
  933MOL0     C25854   3.764   2.791   5.243  1.2245 -0.9503 -0.6113
  933MOL0     O25855   3.637   2.855   5.243 -0.6627 -0.2323  0.4101
  933MOL0     C25856   3.607   2.981   5.309  0.4287  0.2200 -1.5425
  933MOL0     C25857   3.661   3.101   5.226  0.5613  0.6908 -0.7396
  933MOL0     C25858   3.631   3.102   5.078 -0.4122 -0.7463  0.5105
  933MOL0     C25859   3.687   3.233   5.002 -0.0393  0.0507  0.3990
  933MOL0     C25860   3.834   3.242   4.981  0.5468  0.7695  0.0764
  933MOL0     C25861   3.865   3.363   4.900 -0.5710 -0.9343  0.0820
  933MOL0     C25862   4.011   3.354   4.865  0.2523 -0.1383 -0.1042
  933MOL0     C25863   4.062   3.482   4.801 -0.1038 -0.4092  0.2307
  933MOL0    Cl25864   3.985   3.494   4.633  0.0036 -0.6724  0.2556
  933MOL0     C25865   3.876   2.837   5.308  0.4622 -0.4520  0.2781
  933MOL0     C25866   4.000   2.778   5.288 -0.3035  0.1147 -0.5293
  933MOL0     O25867   4.245   2.672   5.388  0.2323 -0.4858  0.3740
  933MOL0     C25868   4.486   2.562   5.323  1.0284 -0.3680 -0.4917
  933MOL0     C25869   4.615   2.534   5.292 -0.5284  0.4224  0.2484
  933MOL0     N25870   4.972   2.490   4.745 -0.1063 -0.0431 -0.3191
  933MOL0     N25871   4.993   2.460   4.615 -0.4628  0.1571 -0.2348
  933MOL0     C25872   4.339   1.641   4.758  0.8597  0.5734 -0.0727
  933MOL0     C25873   4.207   1.606   4.786 -0.1111 -0.4435  0.6016
  933MOL0     C25874   3.766   1.504   4.665  0.8239  0.6299 -0.1207
  933MOL0     C25875   3.673   1.558   4.578 -1.3878  0.1636 -0.7889
  933MOL0     C25876   3.536   1.544   4.598 -0.1495  0.0892 -0.1743
  933MOL0     C25877   3.496   1.467   4.711  0.5226 -0.4413  0.1159
  933MOL0     O25878   3.368   1.437   4.718  0.7463  0.2472 -0.3591
  933MOL0     C25879   3.275   1.546   4.703  0.0001  0.2509  0.7759
  933MOL0     C25880   3.128   1.500   4.737 -0.2064  0.2929  0.4822
  933MOL0     C25881   3.025   1.575   4.649  0.3953  0.6205  0.0752
  933MOL0     C25882   2.878   1.539   4.662  1.1813 -0.2599  0.2807
  933MOL0     C25883   2.823   1.590   4.791  0.0030  0.3346  0.5829
  933MOL0     C25884   2.769   1.628   4.885 -0.5030  0.5834 -0.0544
  933MOL0     C25885   3.584   1.431   4.807  1.1418  1.0053  0.5745
  933MOL0     C25886   3.720   1.446   4.787 -0.2346 -0.1815 -0.0823
  933MOL0     C25887   3.807   1.385   4.891 -0.2453 -0.4719 -1.3137
  933MOL0     H25888   4.037   1.784   4.546  2.5008  5.6027 -2.0159
  933MOL0     H25889   4.247   1.874   4.510 -1.2625  1.9193  2.3413
  933MOL0     H25890   4.623   1.725   4.704  0.5929  0.3839  0.1832
  933MOL0     H25891   4.538   1.619   4.593  1.1384 -0.9241  0.8303
  933MOL0     H25892   4.635   1.737   4.395  3.3618  1.3656 -1.9072
  933MOL0     H25893   4.762   1.694   4.509 -0.5564  0.6801  1.7228
  933MOL0     H25894   4.770   1.918   4.596  0.2767  1.8440 -0.8939
  933MOL0     H25895   4.632   1.960   4.496 -0.4192  0.4810  0.7839
  933MOL0     H25896   4.933   1.882   4.445  1.2939  1.9615  0.8083
  933MOL0     H25897   4.816   1.848   4.319 -1.6681 -1.6703  1.7269
  933MOL0     H25898   4.891   2.074   4.267  2.1212  2.4774  0.5498
  933MOL0     H25899   4.731   2.099   4.326  1.8446  3.9031 -0.4926
  933MOL0     H25900   4.846   2.261   4.423 -0.2286 -0.7866 -2.5779
  933MOL0     H25901   4.836   2.157   4.554  0.9763  0.5454  0.1361
  933MOL0     H25902   5.064   2.098   4.373  2.2122 -0.8888  0.8781
  933MOL0     H25903   5.058   2.074   4.545 -1.5824 -0.8765  0.3058
  933MOL0     H25904   5.209   2.253   4.512 -0.6413 -1.4540  2.7727
  933MOL0     H25905   5.099   2.348   4.409 -0.4121 -3.6006 -2.1018
  933MOL0     H25906   5.171   2.236   4.765 -1.3039 -1.3182 -1.9019
  933MOL0     H25907   5.195   2.420   4.978  1.0921  2.5849 -0.6672
  933MOL0     H25908   5.064   2.534   4.981 -1.4777 -1.0930 -1.1207
  933MOL0     H25909   4.935   2.281   5.012  0.7684  0.3669 -0.4409
  933MOL0     H25910   5.095   2.245   5.076 -0.3954 -0.2831  1.8941
  933MOL0     H25911   5.102   2.401   5.255 -0.0840 -2.0798  3.1499
  933MOL0     H25912   4.975   2.280   5.264  0.0805  0.7720  0.7242
  933MOL0     H25913   4.920   2.568   5.236 -1.6756 -0.6014  2.8773
  933MOL0     H25914   4.859   2.447   5.332  1.3325  0.5672  1.5169
  933MOL0     H25915   4.566   2.457   4.971 -1.1069 -1.1207  0.4304
  933MOL0     H25916   4.328   2.523   5.028  0.5035 -3.6645 -1.3909
  933MOL0     H25917   3.900   2.504   5.112  2.3510 -0.0774 -0.4383
  933MOL0     H25918   3.684   2.626   5.141  0.7217  0.1656 -1.3932
  933MOL0     H25919   3.499   2.980   5.328  0.3716 -0.7270 -1.8812
  933MOL0     H25920   3.659   2.983   5.406 -1.1120  0.0275 -0.6676
  933MOL0     H25921   3.625   3.198   5.261  1.2489  0.8598 -0.4753
  933MOL0     H25922   3.768   3.081   5.236 -0.1099 -3.8705 -0.4870
  933MOL0     H25923   3.676   3.018   5.024  0.4299  0.7894 -1.3043
  933MOL0     H25924   3.522   3.110   5.072 -0.6104 -2.7863  0.5042
  933MOL0     H25925   3.639   3.315   5.055  0.3735 -1.0230  2.5767
  933MOL0     H25926   3.643   3.230   4.902 -1.8332 -0.8628  1.1654
  933MOL0     H25927   3.856   3.159   4.914 -1.2317  0.2244  0.1065
  933MOL0     H25928   3.889   3.231   5.075  1.4658  0.6279 -0.4701
  933MOL0     H25929   3.802   3.352   4.811 -3.7080  1.0878  1.8834
  933MOL0     H25930   3.831   3.454   4.951  0.5891 -0.9541  0.9163
  933MOL0     H25931   4.012   3.266   4.800 -2.8320 -1.9853  2.1020
  933MOL0     H25932   4.072   3.329   4.952 -0.7041  1.8816  1.2063
  933MOL0     H25933   4.030   3.561   4.869  1.4357 -3.1426  4.5275
  933MOL0     H25934   4.170   3.491   4.798 -0.2606  2.1980 -0.0394
  933MOL0     H25935   3.871   2.931   5.362 -2.5093  0.8319 -1.9432
  933MOL0     H25936   4.091   2.818   5.332 -0.8933 -0.0694  0.9209
  933MOL0     H25937   4.471   2.575   5.430  1.4062 -1.7618 -0.2570
  933MOL0     H25938   4.674   2.531   5.383 -0.0602  1.1911 -0.0234
  933MOL0     H25939   4.425   1.606   4.814  0.1556  1.0028  1.3351
  933MOL0     H25940   4.196   1.534   4.867 -0.0914 -1.8309 -0.5701
  933MOL0     H25941   3.714   1.612   4.493  4.9962 -1.0475  0.9899
  933MOL0     H25942   3.465   1.584   4.527 -1.1491 -3.5633 -1.4304
  933MOL0     H25943   3.277   1.591   4.604  1.3549  1.6961  1.4022
  933MOL0     H25944   3.312   1.621   4.775  2.8655 -0.5811  0.3065
  933MOL0     H25945   3.113   1.507   4.845 -0.3920  1.4157  0.3900
  933MOL0     H25946   3.116   1.393   4.714 -0.1648  0.5612 -0.8423
  933MOL0     H25947   3.046   1.567   4.541  0.0080 -1.5035  0.1142
  933MOL0     H25948   3.028   1.684   4.664 -0.3007  0.4429  1.6838
  933MOL0     H25949   2.820   1.572   4.575 -0.3928 -2.9314  0.2207
  933MOL0     H25950   2.883   1.430   4.657 -0.4653 -0.3191 -0.7400
  933MOL0     H25951   2.716   1.637   4.978 -0.7220 -1.5705  0.0988
  933MOL0     H25952   3.540   1.387   4.896 -0.5802  2.9271  0.7632
  933MOL0     H25953   3.835   1.467   4.958 -3.8043  1.6288 -2.1549
  933MOL0     H25954   3.754   1.314   4.955 -0.6862 -0.2590 -1.4341
  933MOL0     H25955   3.896   1.331   4.858  1.8909 -2.1801  5.5176
  934MOL0     O25956   0.182   4.877   9.554 -0.2665  0.1293  0.0056
  934MOL0     C25957   0.072   4.919   9.514  0.0228  0.1965  0.8435
  934MOL0     O25958   0.003   4.865   9.405 -0.2290  0.5859  0.1835
  934MOL0     C25959   0.059   4.770   9.316  0.0459 -0.3488 -0.0653
  934MOL0     C25960   0.022   4.800   9.184 -0.0017  0.1194 -1.0864
  934MOL0     C25961   0.030   4.700   9.086  0.7564 -0.1016 -0.0812
  934MOL0     C25962   0.066   4.570   9.127  0.2215 -0.0692  0.5299
  934MOL0     O25963   0.069   4.473   9.033 -0.0175 -0.5552  0.6104
  934MOL0     C25964  -0.001   4.352   9.057  0.1492 -0.0586  0.2624
  934MOL0     C25965   0.006   4.266   8.935 -0.1544 -0.1654  0.8622
  934MOL0     C25966  -0.088   4.325   8.838 -0.5046  0.0282  0.3859
  934MOL0     C25967  -0.129   4.223   8.732  0.7423  0.2357  0.1762
  934MOL0     C25968  -0.264   4.262   8.664  0.0976 -0.4547 -1.1572
  934MOL0     C25969  -0.302   4.181   8.541  0.3167 -0.2955  0.7904
  934MOL0     C25970  -0.444   4.208   8.486 -1.0833  0.4842  0.3330
  934MOL0     C25971  -0.483   4.131   8.359 -0.0195  0.6252  1.1266
  934MOL0     N25972  -0.387   4.101   8.253  0.9671 -0.8745  0.4354
  934MOL0     C25973  -0.356   4.189   8.149  0.4933  0.5243 -0.1985
  934MOL0     C25974  -0.256   4.125   8.076  0.2981  0.3371  0.0751
  934MOL0     C25975  -0.182   4.173   7.960 -0.3056  0.1284  0.4919
  934MOL0     C25976  -0.258   4.162   7.828 -0.0169 -0.0744  0.1841
  934MOL0     C25977  -0.189   4.217   7.704  0.8908  0.5637  0.3343
  934MOL0     C25978  -0.169   4.373   7.695 -0.3081 -0.1585 -0.1827
  934MOL0     O25979  -0.299   4.439   7.726 -0.6032 -0.1643  0.9987
  934MOL0     C25980  -0.391   4.425   7.617  1.0069 -0.5699 -0.5772
  934MOL0     C25981  -0.498   4.343   7.624  0.2311 -0.2079  0.4367
  934MOL0     C25982  -0.591   4.333   7.519 -0.3763  0.0417 -0.5663
  934MOL0     C25983  -0.587   4.423   7.416 -0.9321  0.7259  1.2217
  934MOL0     C25984  -0.691   4.430   7.315  0.0616 -0.6006  0.6357
  934MOL0     O25985  -0.777   4.321   7.302 -0.3774  0.9184  0.4531
  934MOL0     C25986  -0.854   4.291   7.195  0.8326  0.5493  0.3192
  934MOL0     C25987  -0.932   4.171   7.202  0.4996 -0.8196  0.5368
  934MOL0     C25988  -1.028   4.149   7.099 -0.2336 -0.1004 -0.6797
  934MOL0     C25989  -1.027   4.222   6.986 -0.1619  0.6571 -0.5062
  934MOL0     O25990  -1.120   4.194   6.891  0.4469 -0.1067 -0.1721
  934MOL0     C25991  -1.237   4.275   6.892  0.0761 -0.2810 -0.5539
  934MOL0     C25992  -1.350   4.195   6.834  1.0167  0.3171  0.1393
  934MOL0     C25993  -1.472   4.283   6.823  0.0076  0.3764 -0.4291
  934MOL0     C25994  -1.575   4.208   6.750  0.0989 -0.1954  0.0478
  934MOL0     C25995  -1.674   4.117   6.838  0.3577 -0.0925  0.2261
  934MOL0     C25996  -1.651   3.970   6.822  0.0137  0.3405  0.5629
  934MOL0     C25997  -1.699   3.894   6.946 -0.1456 -0.4258  1.0146
  934MOL0     C25998  -1.840   3.926   6.981  0.6545 -1.0299 -0.1928
  934MOL0    Cl25999  -1.914   3.827   7.101  0.1739 -0.1707 -0.0858
  934MOL0     C26000  -0.948   4.334   6.977 -0.0146 -0.1281  0.1076
  934MOL0     C26001  -0.861   4.367   7.078 -0.5916 -0.7868 -0.0653
  934MOL0     O26002  -0.716   4.547   7.274 -0.4524  0.6739  0.0500
  934MOL0     C26003  -0.473   4.508   7.403 -0.1612  0.2505 -0.4731
  934MOL0     C26004  -0.374   4.506   7.508  0.3100 -0.4380  0.3800
  934MOL0     N26005  -0.230   4.005   8.145  0.1538  0.4661  0.0789
  934MOL0     N26006  -0.314   3.990   8.244 -0.7729  0.3430  0.1138
  934MOL0     C26007   0.111   4.542   9.259 -0.1162 -0.0255  0.6931
  934MOL0     C26008   0.112   4.649   9.354  0.1282  0.5105  0.5811
  934MOL0     C26009   0.023   5.048   9.560  0.2134  0.4708  0.7541
  934MOL0     C26010  -0.049   5.123   9.461  0.1835 -0.2772  0.2777
  934MOL0     C26011  -0.097   5.252   9.500 -0.1226 -0.0019  0.2520
  934MOL0     C26012  -0.072   5.313   9.620 -0.9028  0.1297 -0.4113
  934MOL0     O26013  -0.100   5.445   9.659 -0.1946  0.0997  0.1582
  934MOL0     C26014  -0.098   5.540   9.545  0.0246  0.8343 -0.3335
  934MOL0     C26015  -0.103   5.682   9.599  1.1101 -0.1239  0.2878
  934MOL0     C26016  -0.072   5.784   9.488  0.4720 -0.4703 -0.6932
  934MOL0     C26017  -0.041   5.930   9.549 -0.3937 -0.4590 -0.3339
  934MOL0     C26018   0.079   5.939   9.624 -0.2533 -0.8537  0.5889
  934MOL0     C26019   0.181   5.958   9.696  0.6656  0.6965  0.6218
  934MOL0     C26020  -0.001   5.235   9.714 -0.8852 -0.1019  0.3892
  934MOL0     C26021   0.046   5.106   9.686  0.0533  0.3256  0.5732
  934MOL0     C26022   0.130   5.031   9.790  0.0508 -1.1475 -0.5370
  934MOL0     H26023  -0.045   4.883   9.163 -1.9077 -1.3259 -0.9530
  934MOL0     H26024  -0.004   4.715   8.984  1.0337 -2.7175 -0.6312
  934MOL0     H26025   0.039   4.292   9.140 -0.3187 -0.9292 -0.1244
  934MOL0     H26026  -0.103   4.381   9.082  0.2287  0.4260  0.0245
  934MOL0     H26027  -0.026   4.165   8.964  1.0613  0.1034  3.4306
  934MOL0     H26028   0.101   4.273   8.882  0.4865 -0.0803  1.9922
  934MOL0     H26029  -0.033   4.409   8.794 -1.3840  0.9206  0.9415
  934MOL0     H26030  -0.186   4.343   8.883 -1.2268  0.4826 -1.2807
  934MOL0     H26031  -0.059   4.215   8.649  0.3186  0.0364 -0.1650
  934MOL0     H26032  -0.151   4.126   8.777  1.9185 -0.6221 -1.0613
  934MOL0     H26033  -0.342   4.270   8.740  2.7681 -2.1684  2.0293
  934MOL0     H26034  -0.258   4.367   8.635  1.1462 -0.1969 -0.1224
  934MOL0     H26035  -0.225   4.193   8.463  0.3567  0.6804  0.9717
  934MOL0     H26036  -0.308   4.076   8.569 -0.9671  0.1036  2.0956
  934MOL0     H26037  -0.462   4.312   8.457 -1.0802  1.2843  2.9380
  934MOL0     H26038  -0.513   4.188   8.569  0.9746 -2.6178  1.4973
  934MOL0     H26039  -0.526   4.034   8.383  2.1337 -0.5119  0.6621
  934MOL0     H26040  -0.558   4.193   8.309  0.8611 -0.9750 -2.4622
  934MOL0     H26041  -0.399   4.287   8.132  1.5766  1.3278  1.3638
  934MOL0     H26042  -0.166   4.278   7.987  0.1207  0.4235 -0.8416
  934MOL0     H26043  -0.088   4.119   7.949  0.5649  1.5129  0.9727
  934MOL0     H26044  -0.286   4.060   7.800  0.4733 -0.3127  0.5303
  934MOL0     H26045  -0.352   4.206   7.861  0.2260 -1.2411  2.7166
  934MOL0     H26046  -0.241   4.194   7.610  2.0740  0.5669 -0.3537
  934MOL0     H26047  -0.088   4.176   7.692  0.7827  0.1069  0.9754
  934MOL0     H26048  -0.133   4.397   7.594 -1.0838 -3.9742 -1.5528
  934MOL0     H26049  -0.096   4.401   7.771 -1.4967  1.1606  0.5118
  934MOL0     H26050  -0.515   4.289   7.717 -2.7105  0.4159  0.3573
  934MOL0     H26051  -0.677   4.270   7.538 -0.2991  0.9586  3.8562
  934MOL0     H26052  -0.927   4.094   7.278 -2.5120 -0.7960  0.8751
  934MOL0     H26053  -1.098   4.068   7.111  0.8073 -1.2184 -1.8198
  934MOL0     H26054  -1.265   4.290   6.997 -0.2575  0.6589 -0.7676
  934MOL0     H26055  -1.225   4.376   6.850 -0.4594  0.4982  1.0798
  934MOL0     H26056  -1.323   4.143   6.742 -4.0941 -0.9348 -0.9655
  934MOL0     H26057  -1.368   4.108   6.897  1.1079 -0.6005 -1.0747
  934MOL0     H26058  -1.492   4.327   6.921  2.0908  0.8283 -0.1647
  934MOL0     H26059  -1.455   4.365   6.753 -2.5971  1.4941  0.1293
  934MOL0     H26060  -1.528   4.157   6.666  0.5391  1.4412 -0.7256
  934MOL0     H26061  -1.644   4.278   6.702 -2.6661 -1.8295  1.3273
  934MOL0     H26062  -1.779   4.142   6.821  0.7057  2.8252  1.7100
  934MOL0     H26063  -1.637   4.144   6.937  4.2338 -0.9462 -0.8345
  934MOL0     H26064  -1.714   3.938   6.739 -2.8128  0.5842  2.4686
  934MOL0     H26065  -1.544   3.952   6.809 -0.2634 -0.8784 -0.1863
  934MOL0     H26066  -1.642   3.923   7.035 -1.3699  0.9570  1.3802
  934MOL0     H26067  -1.681   3.786   6.942 -1.4273 -0.6064 -0.6831
  934MOL0     H26068  -1.849   4.034   6.999 -0.9893 -0.5183 -3.3655
  934MOL0     H26069  -1.896   3.930   6.887 -3.7867 -0.9449  2.1913
  934MOL0     H26070  -0.956   4.389   6.884 -3.4148  0.0522  0.3916
  934MOL0     H26071  -0.794   4.450   7.059 -1.3663 -0.9951 -4.6950
  934MOL0     H26072  -0.458   4.577   7.320  0.0867  0.3321 -0.3635
  934MOL0     H26073  -0.282   4.564   7.511  2.4343 -3.4344 -1.4954
  934MOL0     H26074   0.138   4.440   9.283 -1.3050 -0.7461 -0.8242
  934MOL0     H26075   0.131   4.622   9.457  2.4541  1.5645  0.5096
  934MOL0     H26076  -0.064   5.090   9.359 -0.2719 -0.4735  0.4036
  934MOL0     H26077  -0.154   5.310   9.427 -2.4763 -1.1732  1.0546
  934MOL0     H26078  -0.178   5.520   9.472 -1.7528 -2.9852  2.3176
  934MOL0     H26079   0.002   5.526   9.503 -0.8747 -0.1211 -2.3081
  934MOL0     H26080  -0.038   5.689   9.687 -0.7776  0.1315  1.7311
  934MOL0     H26081  -0.210   5.687   9.623  0.2082 -1.4950 -2.9263
  934MOL0     H26082  -0.155   5.802   9.419  0.3716 -0.9114 -0.6908
  934MOL0     H26083   0.013   5.750   9.427  2.7595  2.5901  0.4993
  934MOL0     H26084  -0.033   6.007   9.471  0.3492 -0.3205 -0.1312
  934MOL0     H26085  -0.124   5.960   9.612 -0.7997  1.9339 -1.8751
  934MOL0     H26086   0.266   5.980   9.758  2.4956 -0.0588 -1.4594
  934MOL0     H26087   0.020   5.269   9.814  1.7796 -0.2541 -0.0478
  934MOL0     H26088   0.132   5.070   9.893  0.3633 -1.2469 -0.5025
  934MOL0     H26089   0.082   4.935   9.814 -1.7089  0.4451  3.1894
  934MOL0     H26090   0.235   5.020   9.760 -0.2395 -1.1707 -1.5716
  935MOL0     O26091   6.025  10.573   6.728 -0.6831 -0.7955  0.7251
  935MOL0     C26092   6.141  10.557   6.702 -0.7026 -0.8704 -1.0694
  935MOL0     O26093   6.203  10.589   6.593  0.1899  0.7920  0.2471
  935MOL0     C26094   6.155  10.674   6.493 -1.0176 -0.7783 -0.1604
  935MOL0     C26095   6.051  10.769   6.511 -0.5733 -0.4497 -0.9466
  935MOL0     C26096   6.015  10.848   6.404  0.5091  0.1464  1.3183
  935MOL0     C26097   6.087  10.842   6.279  0.1201  0.4820 -0.6680
  935MOL0     O26098   6.039  10.925   6.181 -0.2386  1.0241 -0.0502
  935MOL0     C26099   6.038  10.869   6.049  0.7842 -0.9870 -0.7760
  935MOL0     C26100   5.943  10.952   5.968  0.3207  0.3869 -1.0211
  935MOL0     C26101   5.979  11.101   5.956  0.0210 -0.3267  0.0691
  935MOL0     C26102   5.885  11.197   6.039  0.1611  0.1459  0.1598
  935MOL0     C26103   5.814  11.303   5.958 -0.1948  0.8940 -0.5122
  935MOL0     C26104   5.703  11.236   5.868 -0.3680  0.6818 -0.3866
  935MOL0     C26105   5.609  11.362   5.821  0.2227 -0.2059  0.5129
  935MOL0     C26106   5.475  11.300   5.760 -1.0183  0.5038 -0.1764
  935MOL0     N26107   5.499  11.200   5.654 -0.6144  0.3096  0.2826
  935MOL0     C26108   5.513  11.244   5.526 -0.6244  0.9301  0.3859
  935MOL0     C26109   5.473  11.146   5.439 -0.1602 -0.0864 -0.8773
  935MOL0     C26110   5.445  11.160   5.298  0.8822  0.0095  0.1484
  935MOL0     C26111   5.523  11.278   5.234 -1.2296  0.5421  0.2949
  935MOL0     C26112   5.649  11.232   5.147 -0.4191  0.1394  0.0337
  935MOL0     C26113   5.758  11.166   5.239  0.4752  0.2825 -0.4945
  935MOL0     O26114   5.781  11.217   5.372 -0.5456  0.2863  0.0604
  935MOL0     C26115   5.841  11.344   5.390 -0.6001 -0.6691 -0.5702
  935MOL0     C26116   5.876  11.367   5.520  0.0057  0.6209  0.2212
  935MOL0     C26117   5.975  11.460   5.558  0.2393 -0.3784 -0.2572
  935MOL0     C26118   6.041  11.543   5.459  0.1103 -0.3933 -0.0424
  935MOL0     C26119   6.130  11.652   5.497 -0.4454 -0.8046  0.1975
  935MOL0     O26120   6.126  11.693   5.632 -0.4623 -0.5143 -0.5485
  935MOL0     C26121   6.194  11.801   5.683  0.0348 -1.0870  1.5370
  935MOL0     C26122   6.318  11.855   5.638  0.1830  0.3561  0.2377
  935MOL0     C26123   6.385  11.965   5.703 -0.0937 -0.2468 -0.1823
  935MOL0     C26124   6.309  12.027   5.799  0.2446  0.0841 -0.4570
  935MOL0     O26125   6.373  12.135   5.858 -0.4982  0.2289  0.0604
  935MOL0     C26126   6.309  12.235   5.939 -0.1110 -0.0266  0.4164
  935MOL0     C26127   6.423  12.314   6.004  0.3589  0.4011  0.6415
  935MOL0     C26128   6.531  12.341   5.893 -0.0898 -0.8297  0.2735
  935MOL0     C26129   6.477  12.434   5.780  0.0423 -0.8508  0.7579
  935MOL0     C26130   6.580  12.487   5.675 -0.4147 -0.2888  0.1135
  935MOL0     C26131   6.660  12.371   5.617 -0.0464  0.3681  0.5121
  935MOL0     C26132   6.788  12.416   5.537  0.3723  0.7158 -0.3947
  935MOL0     C26133   6.773  12.434   5.386  0.2747  0.9881  0.5937
  935MOL0    Cl26134   6.681  12.574   5.352  0.0832 -0.0291 -0.5568
  935MOL0     C26135   6.178  11.982   5.840 -0.1099  2.0124 -0.6418
  935MOL0     C26136   6.128  11.864   5.787  0.1321  0.6044 -1.4129
  935MOL0     O26137   6.195  11.709   5.408  0.4062 -0.3441  0.6172
  935MOL0     C26138   6.000  11.523   5.328 -0.0472 -0.7633  0.0080
  935MOL0     C26139   5.909  11.419   5.297  0.2188 -0.3664  0.0382
  935MOL0     N26140   5.452  11.036   5.518  0.1284  0.0938 -0.7128
  935MOL0     N26141   5.462  11.068   5.647 -0.3129  0.6267  0.2939
  935MOL0     C26142   6.190  10.747   6.263 -0.2650  0.5508 -0.2154
  935MOL0     C26143   6.224  10.662   6.373  0.2364  0.2317  0.4210
  935MOL0     C26144   6.230  10.507   6.804 -0.2597  0.9336 -0.3245
  935MOL0     C26145   6.371  10.536   6.790 -0.1506 -0.4739 -0.6291
  935MOL0     C26146   6.465  10.517   6.893  0.0994 -0.5698  0.2010
  935MOL0     C26147   6.428  10.458   7.004  0.2684  0.1732 -0.4156
  935MOL0     O26148   6.521  10.424   7.109  0.3911  0.4934 -1.0285
  935MOL0     C26149   6.665  10.438   7.079 -0.4858  0.1968  0.1968
  935MOL0     C26150   6.754  10.363   7.178 -0.9219 -0.0472 -0.6183
  935MOL0     C26151   6.694  10.328   7.314 -0.0854  0.9107 -0.5966
  935MOL0     C26152   6.785  10.240   7.411 -0.6306 -0.1896  0.4227
  935MOL0     C26153   6.713  10.219   7.545  0.4951  0.7214 -0.2669
  935MOL0     C26154   6.665  10.225   7.657  0.4913 -0.4116 -0.9123
  935MOL0     C26155   6.299  10.408   7.014 -0.1774 -0.3253  0.4987
  935MOL0     C26156   6.191  10.442   6.924 -0.0448  0.0728  0.3857
  935MOL0     C26157   6.048  10.398   6.947 -0.0461 -0.2475 -0.1048
  935MOL0     H26158   5.999  10.773   6.606  1.0939  0.0456 -0.0174
  935MOL0     H26159   5.939  10.923   6.418  1.0196  0.7613  0.8055
  935MOL0     H26160   6.138  10.871   6.003  0.3847 -0.9180 -1.6639
  935MOL0     H26161   6.003  10.766   6.046  2.3376 -1.6018  0.6789
  935MOL0     H26162   5.841  10.929   6.000 -1.1699  3.2477 -3.3460
  935MOL0     H26163   5.953  10.906   5.869 -1.9793 -2.5341 -0.0494
  935MOL0     H26164   5.970  11.121   5.849  2.5069  2.8030  0.2860
  935MOL0     H26165   6.080  11.129   5.989 -0.9414  1.6821  1.5610
  935MOL0     H26166   5.816  11.136   6.098  0.4685 -1.1057 -0.7290
  935MOL0     H26167   5.949  11.238   6.117 -2.9147  0.4293  2.7163
  935MOL0     H26168   5.766  11.365   6.035 -0.3536  2.6567 -1.9715
  935MOL0     H26169   5.884  11.366   5.904 -0.8160  1.6010 -0.5113
  935MOL0     H26170   5.748  11.175   5.789  0.3060 -1.1045  1.2941
  935MOL0     H26171   5.651  11.159   5.925 -0.6877  1.2979  0.1704
  935MOL0     H26172   5.641  11.413   5.729 -0.0834 -1.0760 -0.0853
  935MOL0     H26173   5.584  11.428   5.905 -1.5937 -3.5942  2.8619
  935MOL0     H26174   5.429  11.239   5.838 -0.1206  1.6316  1.2716
  935MOL0     H26175   5.407  11.376   5.719 -0.1503  2.4053  1.7052
  935MOL0     H26176   5.545  11.340   5.485 -0.8711 -0.2092 -2.7458
  935MOL0     H26177   5.478  11.063   5.260 -0.9233 -0.7112  0.3181
  935MOL0     H26178   5.338  11.167   5.278  0.5528 -1.5192  1.1450
  935MOL0     H26179   5.463  11.320   5.153  1.9135 -0.1944 -2.6614
  935MOL0     H26180   5.551  11.364   5.295 -0.6030 -0.4492  1.4661
  935MOL0     H26181   5.698  11.315   5.096 -0.4545  1.2093  1.6432
  935MOL0     H26182   5.610  11.169   5.067 -3.3967 -2.2888  3.0482
  935MOL0     H26183   5.857  11.140   5.200  0.0383 -2.8967  0.3214
  935MOL0     H26184   5.722  11.064   5.247  3.0641 -1.0775 -3.6122
  935MOL0     H26185   5.827  11.296   5.586  0.0579 -0.6988 -1.1286
  935MOL0     H26186   5.987  11.478   5.664 -2.2739  0.7090 -0.0755
  935MOL0     H26187   6.362  11.801   5.555 -1.4466 -0.4584 -0.1174
  935MOL0     H26188   6.483  12.005   5.676  0.3121 -0.5843  0.7552
  935MOL0     H26189   6.250  12.300   5.873 -2.7349  1.1001  3.6101
  935MOL0     H26190   6.247  12.195   6.021  0.3260 -1.3582  0.1265
  935MOL0     H26191   6.389  12.408   6.049  0.7346  0.9901 -0.2935
  935MOL0     H26192   6.473  12.260   6.085  0.6746  1.2651  1.0345
  935MOL0     H26193   6.611  12.403   5.934 -1.0115  0.0161  0.8426
  935MOL0     H26194   6.565  12.244   5.854  0.8063 -0.8077  0.9712
  935MOL0     H26195   6.421  12.520   5.819 -0.0794 -0.6063  0.0526
  935MOL0     H26196   6.401  12.372   5.731  0.8961 -1.9960  0.8523
  935MOL0     H26197   6.656  12.555   5.715  0.8767 -2.0910  0.8272
  935MOL0     H26198   6.530  12.530   5.587 -2.2121 -0.3610  1.0535
  935MOL0     H26199   6.686  12.299   5.694  0.2841 -1.9605 -1.6416
  935MOL0     H26200   6.590  12.320   5.550 -1.9379  0.7193  2.1498
  935MOL0     H26201   6.853  12.329   5.546  1.3236  1.4605  0.1308
  935MOL0     H26202   6.833  12.508   5.576  2.4605 -0.5591  0.3207
  935MOL0     H26203   6.864  12.435   5.325 -0.3557  0.9096 -0.3754
  935MOL0     H26204   6.727  12.349   5.336 -0.2637  1.4483  0.2842
  935MOL0     H26205   6.124  12.039   5.915  1.4567  1.8748  0.6501
  935MOL0     H26206   6.031  11.825   5.817  1.3046 -1.6190 -0.2766
  935MOL0     H26207   6.046  11.580   5.247 -0.2061 -0.5774  0.0504
  935MOL0     H26208   5.889  11.398   5.192  0.4485 -1.0828  0.1335
  935MOL0     H26209   6.230  10.741   6.162  3.7589  0.5485  1.1678
  935MOL0     H26210   6.293  10.580   6.355 -1.4430 -0.9652 -0.7614
  935MOL0     H26211   6.413  10.577   6.699 -1.2799 -1.5216 -1.6710
  935MOL0     H26212   6.566  10.556   6.882  1.1702 -1.1256  5.4953
  935MOL0     H26213   6.680  10.545   7.097  0.2151  0.2130 -0.4304
  935MOL0     H26214   6.684  10.428   6.972 -0.2143  1.8986  0.0658
  935MOL0     H26215   6.848  10.418   7.184 -2.2099  2.8994 -4.0812
  935MOL0     H26216   6.778  10.269   7.128 -1.1487  1.6848 -4.2400
  935MOL0     H26217   6.606  10.266   7.299  0.7533 -0.6578  0.6022
  935MOL0     H26218   6.659  10.414   7.372 -5.7837 -0.9085 -0.6869
  935MOL0     H26219   6.820  10.149   7.364  0.0203  1.2825 -2.1414
  935MOL0     H26220   6.874  10.294   7.443 -0.6036 -0.1896  0.3459
  935MOL0     H26221   6.613  10.224   7.750  2.8614  0.8918  0.5148
  935MOL0     H26222   6.268  10.354   7.104 -0.9923  0.1872  0.5322
  935MOL0     H26223   5.971  10.471   6.976 -1.4460 -1.6856 -0.0510
  935MOL0     H26224   6.001  10.353   6.859  1.1070 -0.0009 -0.8675
  935MOL0     H26225   6.041  10.315   7.018 -4.1501 -0.2445 -0.2344
  936MOL0     O26226  10.548   9.180   0.823 -0.9768  0.0108 -0.4214
  936MOL0     C26227  10.549   9.287   0.761 -0.2692 -0.6867 -0.0635
  936MOL0     O26228  10.592   9.400   0.816  0.5597  0.1159  0.0560
  936MOL0     C26229  10.630   9.405   0.950  0.1516 -0.0781  0.5068
  936MOL0     C26230  10.755   9.448   0.983  0.6925  0.3554 -0.7376
  936MOL0     C26231  10.807   9.458   1.111  0.8080 -0.7620 -0.9961
  936MOL0     C26232  10.723   9.441   1.222  0.0677  0.3643  0.4922
  936MOL0     O26233  10.768   9.449   1.346 -1.2962 -0.0202 -0.6822
  936MOL0     C26234  10.684   9.502   1.451 -0.0542  0.6658  0.1406
  936MOL0     C26235  10.769   9.613   1.517 -0.4712 -0.0196  0.2054
  936MOL0     C26236  10.777   9.617   1.668 -0.0210 -0.1430 -1.0393
  936MOL0     C26237  10.677   9.733   1.714  0.0681 -0.4598  0.1073
  936MOL0     C26238  10.644   9.714   1.865 -0.5253 -0.4661 -0.2819
  936MOL0     C26239  10.512   9.635   1.885  0.0372 -0.9229 -0.1899
  936MOL0     C26240  10.520   9.590   2.031  0.2801  0.8277  1.0650
  936MOL0     C26241  10.533   9.710   2.126 -0.2222 -0.3853 -1.6412
  936MOL0     N26242  10.486   9.666   2.266 -0.0357 -0.3038  0.9565
  936MOL0     C26243  10.492   9.546   2.315 -0.6824  1.0433  0.0350
  936MOL0     C26244  10.427   9.557   2.434  0.5225 -0.5582  0.2107
  936MOL0     C26245  10.404   9.457   2.536 -0.6971 -0.5557 -0.1232
  936MOL0     C26246  10.263   9.395   2.537 -0.0735  0.8197  0.0033
  936MOL0     C26247  10.205   9.370   2.388 -0.2508  0.6678 -1.2299
  936MOL0     C26248  10.074   9.293   2.375 -0.5095  0.1728 -0.7429
  936MOL0     O26249  10.098   9.149   2.395  0.4556 -0.2750 -0.2753
  936MOL0     C26250   9.981   9.074   2.414 -0.2998 -0.6480  0.5693
  936MOL0     C26251   9.853   9.112   2.377 -0.5048  0.1122  0.2111
  936MOL0     C26252   9.756   9.015   2.381  0.4002 -0.7063  0.2892
  936MOL0     C26253   9.777   8.878   2.406 -0.7391  0.4295 -0.3029
  936MOL0     C26254   9.671   8.781   2.394 -0.0905  0.2176  0.2193
  936MOL0     O26255   9.689   8.656   2.456 -0.2512 -0.1088  0.2734
  936MOL0     C26256   9.581   8.582   2.458  1.4484  0.6403 -0.4668
  936MOL0     C26257   9.605   8.445   2.467 -0.4367  1.0887  0.5414
  936MOL0     C26258   9.495   8.358   2.473 -0.4700 -0.7214  0.2531
  936MOL0     C26259   9.360   8.399   2.484 -0.2860  0.0486  0.3462
  936MOL0     O26260   9.268   8.294   2.481 -0.0213 -0.8495 -0.6988
  936MOL0     C26261   9.199   8.270   2.605 -0.1243  0.5233 -0.2823
  936MOL0     C26262   9.079   8.170   2.581 -0.1531  1.4381 -0.3616
  936MOL0     C26263   9.005   8.152   2.714 -0.0117  0.1479 -0.1419
  936MOL0     C26264   8.863   8.215   2.715 -0.4637  0.2767  0.9296
  936MOL0     C26265   8.802   8.207   2.846  0.1953 -1.0295  0.6714
  936MOL0     C26266   8.678   8.295   2.844 -0.5583 -0.0345  0.6242
  936MOL0     C26267   8.682   8.425   2.933 -0.3786  0.1692  0.9644
  936MOL0     C26268   8.596   8.416   3.065 -0.1561  0.3232 -0.0201
  936MOL0    Cl26269   8.655   8.288   3.176 -0.2324 -0.1774  0.1056
  936MOL0     C26270   9.341   8.531   2.477  0.5931  0.5442 -1.0339
  936MOL0     C26271   9.446   8.619   2.477 -0.5867 -0.4579  0.2492
  936MOL0     O26272   9.574   8.820   2.327 -0.4861  0.0325  0.0005
  936MOL0     C26273   9.906   8.844   2.450 -0.1705 -0.8972  0.9623
  936MOL0     C26274  10.005   8.943   2.460  0.1136 -0.0172  0.1666
  936MOL0     N26275  10.378   9.690   2.444 -0.9196 -0.5211 -0.6664
  936MOL0     N26276  10.411   9.751   2.340  0.2418 -0.1612  0.8749
  936MOL0     C26277  10.595   9.388   1.192 -0.3667  0.0091 -0.1293
  936MOL0     C26278  10.547   9.378   1.058 -0.3295  0.5884  0.3732
  936MOL0     C26279  10.511   9.290   0.604 -0.5223 -0.0837 -0.2336
  936MOL0     C26280  10.462   9.170   0.566 -0.2498 -0.4587 -0.0624
  936MOL0     C26281  10.434   9.151   0.438  0.3883 -0.6439 -0.5341
  936MOL0     C26282  10.451   9.253   0.340  0.8665  0.3570  0.0377
  936MOL0     O26283  10.443   9.214   0.211  0.3916  0.9305  0.3888
  936MOL0     C26284  10.350   9.119   0.164  0.2079 -0.2886 -0.3891
  936MOL0     C26285  10.375   9.086   0.013 -0.4425  0.6751  0.7892
  936MOL0     C26286  10.251   9.040  -0.056  0.7977  0.0460 -0.4609
  936MOL0     C26287  10.226   8.892  -0.028 -0.5369 -0.5861  0.4252
  936MOL0     C26288  10.110   8.843  -0.106 -0.5192 -0.4862 -0.4219
  936MOL0     C26289  10.029   8.795  -0.177  0.9051  0.2537  0.0746
  936MOL0     C26290  10.512   9.374   0.377  0.9384  0.0129  0.4413
  936MOL0     C26291  10.547   9.390   0.514  0.5652 -0.6980  0.5297
  936MOL0     C26292  10.602   9.524   0.545  0.3769 -0.5415 -0.6614
  936MOL0     H26293  10.824   9.475   0.903 -1.4377  1.7012 -2.2481
  936MOL0     H26294  10.909   9.493   1.123 -0.0027  1.7773 -0.9392
  936MOL0     H26295  10.598   9.565   1.426  1.6000  3.9596  2.0382
  936MOL0     H26296  10.659   9.413   1.511 -1.0981  2.0405  1.8496
  936MOL0     H26297  10.745   9.706   1.465 -0.3206  0.4128  0.8963
  936MOL0     H26298  10.871   9.577   1.506 -0.3698 -0.6690  2.7434
  936MOL0     H26299  10.883   9.634   1.691 -0.3058 -1.5674  1.8421
  936MOL0     H26300  10.747   9.520   1.708 -0.0622 -0.2093 -1.2329
  936MOL0     H26301  10.724   9.829   1.692  2.7764 -0.9353  2.9915
  936MOL0     H26302  10.588   9.730   1.651  2.8500  0.2989 -4.3066
  936MOL0     H26303  10.728   9.680   1.925 -2.0723 -3.5169  0.3238
  936MOL0     H26304  10.625   9.816   1.901 -0.3667  1.0412 -4.0004
  936MOL0     H26305  10.418   9.686   1.863 -0.2655 -0.8277  1.2461
  936MOL0     H26306  10.520   9.547   1.820  1.5505  0.4918 -2.0315
  936MOL0     H26307  10.612   9.533   2.040  0.0292  0.4660  1.3549
  936MOL0     H26308  10.441   9.521   2.063 -1.2660  1.3796 -1.3007
  936MOL0     H26309  10.631   9.747   2.155  0.5342 -3.7040  0.5530
  936MOL0     H26310  10.454   9.781   2.099 -2.2866 -2.1265 -0.4976
  936MOL0     H26311  10.528   9.457   2.264 -3.4904  0.9116 -1.9536
  936MOL0     H26312  10.475   9.374   2.519  1.0264  1.0171 -0.9798
  936MOL0     H26313  10.428   9.514   2.626 -1.2133  1.3979 -1.1748
  936MOL0     H26314  10.278   9.301   2.589 -1.2415  0.4235 -0.3329
  936MOL0     H26315  10.201   9.460   2.601  1.1971  0.6170  1.4860
  936MOL0     H26316  10.283   9.322   2.329 -0.3502  1.6080 -2.1640
  936MOL0     H26317  10.189   9.468   2.343  2.0438  1.6690 -0.0231
  936MOL0     H26318  10.034   9.303   2.273  1.8964  1.8196 -1.6105
  936MOL0     H26319  10.006   9.334   2.450 -0.3350 -1.7037  0.5028
  936MOL0     H26320   9.823   9.211   2.343 -0.6371  0.2005  0.5743
  936MOL0     H26321   9.657   9.039   2.344 -0.0355 -3.1073 -0.2926
  936MOL0     H26322   9.709   8.415   2.457 -0.6418  0.5936 -0.2162
  936MOL0     H26323   9.524   8.254   2.481 -1.5820 -0.9431  2.3637
  936MOL0     H26324   9.261   8.227   2.684  1.5506  0.7708 -1.4139
  936MOL0     H26325   9.153   8.356   2.655 -0.8010 -1.0690  2.0207
  936MOL0     H26326   9.019   8.223   2.507 -1.0779  1.2757  0.2461
  936MOL0     H26327   9.113   8.073   2.543  0.6096 -0.2360  3.9458
  936MOL0     H26328   8.986   8.045   2.712 -0.5725  0.2506 -2.0606
  936MOL0     H26329   9.068   8.182   2.799  1.8577  2.2438 -2.1247
  936MOL0     H26330   8.803   8.161   2.641  0.6975 -2.1751  1.6846
  936MOL0     H26331   8.871   8.323   2.698 -1.7683  0.4118  1.0860
  936MOL0     H26332   8.872   8.247   2.920  1.7290 -1.1122 -0.6644
  936MOL0     H26333   8.791   8.103   2.876 -1.4801 -0.7460  1.1069
  936MOL0     H26334   8.648   8.316   2.741  2.4944  2.5839  0.1256
  936MOL0     H26335   8.605   8.224   2.882  0.3761 -0.8587  0.9209
  936MOL0     H26336   8.645   8.508   2.872 -3.1676 -1.2614  0.5552
  936MOL0     H26337   8.789   8.442   2.951  0.5165 -1.9104 -1.7011
  936MOL0     H26338   8.572   8.511   3.114 -2.0740 -0.8289  1.4108
  936MOL0     H26339   8.504   8.380   3.019  0.7920 -2.1483 -0.1601
  936MOL0     H26340   9.241   8.570   2.489  1.1845  1.7576  0.2823
  936MOL0     H26341   9.419   8.724   2.487 -1.1593 -0.5349 -0.4330
  936MOL0     H26342   9.934   8.744   2.483  1.7001 -0.6193  0.3190
  936MOL0     H26343  10.097   8.923   2.514  0.1636  0.4011  0.2410
  936MOL0     H26344  10.521   9.358   1.265 -2.5627  5.1447  0.1852
  936MOL0     H26345  10.447   9.344   1.033 -0.6658  1.6984  0.1380
  936MOL0     H26346  10.437   9.094   0.639 -2.8801  0.5101  0.1456
  936MOL0     H26347  10.417   9.048   0.409 -0.0031 -0.2524 -1.7220
  936MOL0     H26348  10.255   9.170   0.181 -0.1744  0.6047 -4.2268
  936MOL0     H26349  10.351   9.020   0.210  3.5169 -1.8040 -3.2678
  936MOL0     H26350  10.453   9.010   0.011  0.1832  1.1512  3.4339
  936MOL0     H26351  10.398   9.181  -0.035 -1.9784  0.7049  0.0412
  936MOL0     H26352  10.255   9.036  -0.165 -4.9371  1.3332 -1.0765
  936MOL0     H26353  10.168   9.103  -0.021  2.1725  0.6593  1.9180
  936MOL0     H26354  10.314   8.836  -0.060 -1.9100 -0.3356 -4.7290
  936MOL0     H26355  10.218   8.863   0.078  1.4584 -1.0404  0.4932
  936MOL0     H26356   9.976   8.748  -0.257  2.6003 -0.4078 -0.7306
  936MOL0     H26357  10.549   9.444   0.302 -0.0676  0.0437 -0.0326
  936MOL0     H26358  10.562   9.603   0.480  0.4686  1.5740  1.7377
  936MOL0     H26359  10.567   9.556   0.643 -1.5358  0.0444 -1.4923
  936MOL0     H26360  10.711   9.516   0.536  0.5157 -2.4861  1.7687
  937MOL0     O26361   3.969   5.338   3.091 -0.7916  0.1261 -0.1235
  937MOL0     C26362   4.002   5.286   3.200  0.4097  0.3625  0.1526
  937MOL0     O26363   4.069   5.343   3.299 -0.1931  0.4325  0.2724
  937MOL0     C26364   4.146   5.456   3.271  0.3074 -0.7127 -0.1129
  937MOL0     C26365   4.287   5.463   3.303  0.6739 -0.0506 -0.3587
  937MOL0     C26366   4.359   5.587   3.287  0.8703 -0.2303 -0.6856
  937MOL0     C26367   4.290   5.701   3.235 -0.7186 -0.4194  0.1774
  937MOL0     O26368   4.369   5.806   3.201 -0.1733 -0.1892 -0.1336
  937MOL0     C26369   4.320   5.901   3.111  0.1458  0.5428  0.5430
  937MOL0     C26370   4.424   5.986   3.035 -0.7146 -0.4891  0.0316
  937MOL0     C26371   4.368   6.132   2.987  0.0353  0.8375 -1.0238
  937MOL0     C26372   4.461   6.195   2.879  0.0258 -0.4011  0.1907
  937MOL0     C26373   4.414   6.340   2.843  0.2555 -0.5472  0.0969
  937MOL0     C26374   4.478   6.390   2.716 -0.3556 -0.8262  0.2253
  937MOL0     C26375   4.482   6.549   2.708 -0.2943  0.1196 -0.2765
  937MOL0     C26376   4.343   6.614   2.714  0.1448 -0.1383 -0.5809
  937MOL0     N26377   4.360   6.753   2.714  0.9829  0.4607 -0.4846
  937MOL0     C26378   4.392   6.829   2.606 -0.8027  0.2388  0.0271
  937MOL0     C26379   4.394   6.957   2.656  0.1267 -0.0525 -0.1477
  937MOL0     C26380   4.431   7.062   2.551  0.1569 -1.1299 -0.3927
  937MOL0     C26381   4.422   7.203   2.609  0.5758 -0.3266 -0.8152
  937MOL0     C26382   4.283   7.262   2.598 -0.2124 -0.5998  0.7444
  937MOL0     C26383   4.265   7.391   2.670  0.3832  0.4807 -0.0559
  937MOL0     O26384   4.221   7.375   2.806 -0.4254  0.2746 -0.1367
  937MOL0     C26385   4.100   7.317   2.838  0.3072 -0.0616 -0.9702
  937MOL0     C26386   4.096   7.251   2.965  0.2247  0.9224 -0.3007
  937MOL0     C26387   3.982   7.192   3.010  0.3789 -0.5113 -0.2517
  937MOL0     C26388   3.862   7.193   2.929 -0.0779  0.2027 -0.1766
  937MOL0     C26389   3.742   7.120   2.959  0.5245  0.2359 -0.3796
  937MOL0     O26390   3.751   7.012   3.047  0.3500 -0.6984  0.6244
  937MOL0     C26391   3.649   6.915   3.038  0.1830 -1.1891 -0.7439
  937MOL0     C26392   3.632   6.845   2.910  0.0532  0.2317 -0.8551
  937MOL0     C26393   3.536   6.745   2.914  0.2609 -0.6725  0.3409
  937MOL0     C26394   3.463   6.706   3.024 -0.0434 -0.3032  0.5601
  937MOL0     O26395   3.381   6.598   3.001 -0.2457  0.3215 -0.7382
  937MOL0     C26396   3.276   6.555   3.090 -0.4241 -0.9050 -0.0941
  937MOL0     C26397   3.257   6.406   3.050 -0.0094 -0.4997  0.2634
  937MOL0     C26398   3.131   6.353   3.101 -0.2906 -0.2097 -0.2078
  937MOL0     C26399   3.091   6.213   3.056 -0.2154  0.7011  0.1705
  937MOL0     C26400   2.948   6.184   3.115 -0.2368  0.2396  0.1491
  937MOL0     C26401   2.879   6.056   3.076  0.5406 -0.3495 -0.0398
  937MOL0     C26402   2.741   6.047   3.141 -0.3581 -0.2934  1.0514
  937MOL0     C26403   2.677   5.915   3.109  0.1673  0.1434 -0.0710
  937MOL0    Cl26404   2.510   5.919   3.150  0.0841  0.2809  0.0012
  937MOL0     C26405   3.477   6.773   3.142 -0.4324  0.7844 -0.4723
  937MOL0     C26406   3.567   6.882   3.148 -0.3031 -0.3345 -0.7301
  937MOL0     O26407   3.640   7.151   2.898 -0.6025 -0.5197  0.8151
  937MOL0     C26408   3.873   7.242   2.806  0.2137 -1.4034  0.5733
  937MOL0     C26409   3.985   7.311   2.757  0.3654 -0.6630 -1.4580
  937MOL0     N26410   4.360   6.966   2.796 -0.2998 -0.1701 -0.5081
  937MOL0     N26411   4.360   6.839   2.818  0.2340 -0.4307 -0.8898
  937MOL0     C26412   4.149   5.701   3.214 -0.0499 -0.7164  0.2320
  937MOL0     C26413   4.084   5.577   3.228 -0.2645 -0.0841 -0.0086
  937MOL0     C26414   3.961   5.142   3.209 -0.1660  0.6609 -0.7074
  937MOL0     C26415   4.041   5.036   3.164 -0.7528 -0.1770  0.0282
  937MOL0     C26416   4.004   4.908   3.206 -0.0288 -0.3533  0.3995
  937MOL0     C26417   3.882   4.884   3.292  0.2857 -0.3341  0.1304
  937MOL0     O26418   3.851   4.759   3.340 -0.4014  0.0118  0.3252
  937MOL0     C26419   3.928   4.647   3.300 -0.0844  0.3329 -0.2260
  937MOL0     C26420   4.043   4.617   3.388 -0.1511 -0.4612  0.4035
  937MOL0     C26421   3.997   4.608   3.531  0.7907 -0.4416 -0.2497
  937MOL0     C26422   4.109   4.615   3.640 -0.1560  0.1361 -0.0034
  937MOL0     C26423   4.073   4.572   3.778 -0.3475 -0.1347 -0.9767
  937MOL0     C26424   4.046   4.542   3.891 -0.0374  0.8231 -0.8269
  937MOL0     C26425   3.804   4.995   3.332  0.4399  0.5552 -0.6326
  937MOL0     C26426   3.841   5.122   3.286 -0.9518  0.1075 -0.3441
  937MOL0     C26427   3.756   5.239   3.322  0.6836 -0.6187 -0.0428
  937MOL0     H26428   4.344   5.375   3.331  0.9076  0.2448  0.1059
  937MOL0     H26429   4.466   5.587   3.302  0.6066  0.2115  1.5610
  937MOL0     H26430   4.255   5.864   3.031 -0.7753  0.4783  1.3086
  937MOL0     H26431   4.264   5.968   3.176 -3.8151  0.1935 -2.2065
  937MOL0     H26432   4.471   5.942   2.947  1.1118 -3.0958  2.1358
  937MOL0     H26433   4.511   6.006   3.099 -0.0887  2.1013 -1.4891
  937MOL0     H26434   4.344   6.206   3.064 -3.0843 -1.3665  0.3504
  937MOL0     H26435   4.271   6.112   2.940  0.4469 -2.5631 -0.6452
  937MOL0     H26436   4.564   6.202   2.915  0.1923  2.1673 -0.6161
  937MOL0     H26437   4.461   6.133   2.789  2.5000 -0.6231  0.2738
  937MOL0     H26438   4.306   6.336   2.827  0.1965  1.3916 -0.2788
  937MOL0     H26439   4.446   6.416   2.915  2.8242 -0.4649 -1.0199
  937MOL0     H26440   4.579   6.350   2.709  0.1799  0.7399 -1.7036
  937MOL0     H26441   4.422   6.348   2.632 -0.6238  1.3619 -0.7567
  937MOL0     H26442   4.528   6.580   2.613 -2.1088 -2.0299 -1.9907
  937MOL0     H26443   4.545   6.595   2.784  0.6687  1.2211 -1.6831
  937MOL0     H26444   4.287   6.571   2.631 -2.7178  0.1950  1.0210
  937MOL0     H26445   4.303   6.584   2.812  1.1404 -1.1504 -0.4705
  937MOL0     H26446   4.418   6.797   2.506 -2.2405 -0.9126 -0.0193
  937MOL0     H26447   4.530   7.037   2.511  0.6941  2.6329 -1.8417
  937MOL0     H26448   4.361   7.073   2.468  0.4359 -0.7123 -0.5723
  937MOL0     H26449   4.446   7.210   2.715 -2.3151  0.0890 -0.0884
  937MOL0     H26450   4.492   7.265   2.552 -0.9042  2.1329 -0.1076
  937MOL0     H26451   4.212   7.184   2.627 -0.3920 -0.7994 -0.2207
  937MOL0     H26452   4.255   7.279   2.494 -2.1745 -0.6705  1.2222
  937MOL0     H26453   4.185   7.450   2.623  0.0266  1.3317  1.5472
  937MOL0     H26454   4.359   7.446   2.673  1.6826 -1.7120  1.1454
  937MOL0     H26455   4.183   7.237   3.028  0.5608  4.9658  0.3873
  937MOL0     H26456   3.987   7.132   3.101  1.0028 -1.4787 -0.8954
  937MOL0     H26457   3.680   6.874   2.817  0.9723 -0.0416 -0.4805
  937MOL0     H26458   3.521   6.693   2.820  3.3008  4.0268 -3.1923
  937MOL0     H26459   3.301   6.563   3.196 -2.7433  2.4969  0.3520
  937MOL0     H26460   3.188   6.617   3.069  1.6113  2.4226  0.4915
  937MOL0     H26461   3.253   6.379   2.944 -6.7681 -2.2949  0.5207
  937MOL0     H26462   3.338   6.340   3.081  2.0316  0.8103 -1.9033
  937MOL0     H26463   3.133   6.354   3.210  0.2093  0.4360 -0.2133
  937MOL0     H26464   3.054   6.421   3.062 -1.5468 -0.9539  0.9030
  937MOL0     H26465   3.165   6.134   3.072 -0.7556 -0.2855 -1.8693
  937MOL0     H26466   3.070   6.210   2.949  3.1394  1.6487 -0.6144
  937MOL0     H26467   2.883   6.268   3.088  1.3243  2.1238  1.8398
  937MOL0     H26468   2.960   6.185   3.224 -1.4431 -0.4640  0.3150
  937MOL0     H26469   2.875   6.048   2.967  1.4338 -0.3316 -0.0793
  937MOL0     H26470   2.947   5.973   3.099  1.2135  0.4205  0.7761
  937MOL0     H26471   2.688   6.132   3.099  2.6783  1.5932  0.7665
  937MOL0     H26472   2.730   6.060   3.249 -1.6185  1.8666  0.7218
  937MOL0     H26473   2.677   5.889   3.003  3.6592 -1.3391  0.1441
  937MOL0     H26474   2.743   5.843   3.159  2.6637  1.4899 -1.2328
  937MOL0     H26475   3.423   6.760   3.235 -2.1082  0.7397 -1.4266
  937MOL0     H26476   3.587   6.937   3.239  1.6433  1.0058 -1.9017
  937MOL0     H26477   3.802   7.223   2.726  1.1608 -3.0135  0.0728
  937MOL0     H26478   3.980   7.347   2.655  0.7460  0.6138 -1.0388
  937MOL0     H26479   4.083   5.782   3.185  1.8365  1.7929  2.5292
  937MOL0     H26480   3.976   5.569   3.219 -0.3919 -1.4201  2.1165
  937MOL0     H26481   4.129   5.044   3.101  0.4800 -2.2534  1.3544
  937MOL0     H26482   4.075   4.832   3.174  2.8070  3.5689 -3.8775
  937MOL0     H26483   3.953   4.649   3.194 -0.6934 -2.5812 -0.5109
  937MOL0     H26484   3.864   4.558   3.294 -1.7711  1.4647  0.2144
  937MOL0     H26485   4.113   4.700   3.373 -1.5668  0.4546 -1.3601
  937MOL0     H26486   4.102   4.528   3.363  2.2678  0.1029  3.3534
  937MOL0     H26487   3.935   4.518   3.538 -1.9374  1.4318  2.1498
  937MOL0     H26488   3.934   4.694   3.557  1.3336 -0.0123 -0.3525
  937MOL0     H26489   4.190   4.550   3.608 -0.8851 -0.2652 -1.0952
  937MOL0     H26490   4.140   4.716   3.668 -1.4726  0.8961 -1.1671
  937MOL0     H26491   3.997   4.521   3.984 -2.3235 -0.3853 -2.2236
  937MOL0     H26492   3.725   4.991   3.406  1.1252 -0.1590  0.0906
  937MOL0     H26493   3.663   5.204   3.369  0.6913  0.0038  0.4480
  937MOL0     H26494   3.806   5.307   3.392  0.3319  3.8931 -3.7091
  937MOL0     H26495   3.734   5.307   3.239  0.2292  3.1152  2.8281
  938MOL0     O26496   4.122   5.831   0.949 -0.0840  0.5130  0.5733
  938MOL0     C26497   4.121   5.812   0.833  0.7631  0.7423  0.4512
  938MOL0     O26498   4.230   5.806   0.759  0.2664 -1.0948 -0.3585
  938MOL0     C26499   4.356   5.826   0.820 -0.0410  0.3583  0.2361
  938MOL0     C26500   4.392   5.917   0.927 -0.7243  0.3923  0.0670
  938MOL0     C26501   4.529   5.918   0.966  0.5921  0.4250 -0.6956
  938MOL0     C26502   4.630   5.843   0.910 -0.9762  0.0160  0.1835
  938MOL0     O26503   4.762   5.864   0.937  0.1642  0.0642  0.0545
  938MOL0     C26504   4.831   5.748   0.983 -0.5198  1.0455  0.3374
  938MOL0     C26505   4.957   5.725   0.891 -0.2899 -0.7217  0.2128
  938MOL0     C26506   5.011   5.581   0.878 -0.5545  0.9192 -0.2792
  938MOL0     C26507   5.155   5.582   0.839  0.1712 -0.7605 -0.5568
  938MOL0     C26508   5.197   5.441   0.793  0.6060  0.4955  0.7806
  938MOL0     C26509   5.347   5.440   0.793  1.6130  0.1744  0.7490
  938MOL0     C26510   5.410   5.329   0.693  0.4891 -0.4575  0.0623
  938MOL0     C26511   5.566   5.310   0.702 -0.4116 -0.4679 -0.0353
  938MOL0     N26512   5.639   5.435   0.713  0.0082  0.6932  0.7762
  938MOL0     C26513   5.676   5.524   0.609 -0.1277 -0.1045 -0.0378
  938MOL0     C26514   5.744   5.623   0.673  0.1648  0.2862 -0.0711
  938MOL0     C26515   5.812   5.742   0.620 -0.3508 -0.4585  0.2435
  938MOL0     C26516   5.766   5.793   0.480 -0.3389 -0.2701 -0.7751
  938MOL0     C26517   5.800   5.939   0.478  0.2878  0.8655 -0.4457
  938MOL0     C26518   5.953   5.959   0.503 -0.1954  0.4226 -1.1533
  938MOL0     O26519   5.990   6.079   0.428 -0.7809  0.3673  0.4805
  938MOL0     C26520   6.124   6.123   0.438  1.0034  0.5081 -0.0609
  938MOL0     C26521   6.237   6.040   0.458  0.2775  0.2368 -0.0556
  938MOL0     C26522   6.364   6.091   0.476  0.5534  0.0243  0.8247
  938MOL0     C26523   6.388   6.231   0.462 -0.2494 -0.4439  0.2880
  938MOL0     C26524   6.527   6.286   0.471 -0.5189 -0.0837 -0.7733
  938MOL0     O26525   6.541   6.410   0.429  0.3255 -0.7146  0.2674
  938MOL0     C26526   6.654   6.480   0.465  1.4480  0.4906 -0.3124
  938MOL0     C26527   6.715   6.554   0.370  0.4448 -0.4110 -0.4111
  938MOL0     C26528   6.822   6.638   0.407  0.5909  1.0060  0.9900
  938MOL0     C26529   6.868   6.653   0.541  0.5146 -0.5998  0.7789
  938MOL0     O26530   6.990   6.713   0.571  0.4972 -0.1518 -0.2969
  938MOL0     C26531   7.023   6.813   0.481  0.3759 -1.0336  0.0915
  938MOL0     C26532   7.156   6.851   0.534 -0.4753 -1.6117 -0.1387
  938MOL0     C26533   7.173   6.940   0.658 -0.3342 -0.7808 -0.0549
  938MOL0     C26534   7.287   7.060   0.648  0.3214  0.5395 -0.3611
  938MOL0     C26535   7.319   7.123   0.790 -0.7374 -1.1451  0.6353
  938MOL0     C26536   7.422   7.237   0.779 -0.6760  0.8737  0.3030
  938MOL0     C26537   7.346   7.353   0.737 -0.2467  0.2319 -0.3556
  938MOL0     C26538   7.417   7.492   0.735 -0.3292 -1.1329 -0.3533
  938MOL0    Cl26539   7.305   7.600   0.659 -0.0253 -0.0806 -0.1074
  938MOL0     C26540   6.788   6.602   0.639  0.5221  0.2915 -0.0266
  938MOL0     C26541   6.678   6.511   0.601 -0.0925  0.7116  0.4225
  938MOL0     O26542   6.623   6.221   0.517 -1.0292 -0.4839  0.7019
  938MOL0     C26543   6.283   6.315   0.428 -0.2507  0.2593  0.4154
  938MOL0     C26544   6.150   6.262   0.416 -0.2697  0.4306  0.4303
  938MOL0     N26545   5.759   5.583   0.804  0.6049  0.3803  0.2783
  938MOL0     N26546   5.706   5.474   0.824  0.3763 -0.5598 -0.1312
  938MOL0     C26547   4.592   5.761   0.806 -0.0101  0.5124  0.6936
  938MOL0     C26548   4.457   5.753   0.758 -0.4390 -0.0960  0.2856
  938MOL0     C26549   3.991   5.791   0.768 -0.2086  1.0547  0.3506
  938MOL0     C26550   3.993   5.785   0.622  0.1003 -0.2721 -0.5254
  938MOL0     C26551   3.878   5.737   0.551  1.1613  0.8720  0.2705
  938MOL0     C26552   3.760   5.731   0.623  1.0793 -0.1151 -0.2068
  938MOL0     O26553   3.640   5.711   0.549 -0.1613 -0.5223  0.4435
  938MOL0     C26554   3.533   5.809   0.586  0.0637 -0.0206 -0.0311
  938MOL0     C26555   3.415   5.729   0.637  0.1176  0.8268  0.2172
  938MOL0     C26556   3.282   5.810   0.643 -0.3893 -0.8287  0.1696
  938MOL0     C26557   3.289   5.946   0.721 -0.2053 -0.1423  0.1994
  938MOL0     C26558   3.359   5.940   0.848  0.8165 -0.2585  0.2744
  938MOL0     C26559   3.427   5.956   0.941  0.2720 -0.4753  0.2227
  938MOL0     C26560   3.758   5.747   0.766 -0.2773 -0.6858 -0.2657
  938MOL0     C26561   3.868   5.782   0.845  0.2142  0.7161 -0.1318
  938MOL0     C26562   3.850   5.806   0.994  0.4756 -0.7159 -0.3536
  938MOL0     H26563   4.329   5.969   0.997 -2.2615 -1.9744  0.5574
  938MOL0     H26564   4.545   5.996   1.040 -0.8484 -1.0242  1.2530
  938MOL0     H26565   4.860   5.763   1.088 -2.4968 -6.0668  2.4983
  938MOL0     H26566   4.775   5.654   0.983 -1.3238  1.4497  2.5515
  938MOL0     H26567   5.034   5.795   0.925  0.5004 -2.1552  1.5273
  938MOL0     H26568   4.936   5.761   0.790 -2.1400  2.6950  1.6296
  938MOL0     H26569   4.946   5.539   0.801 -1.7573  2.4666 -0.1584
  938MOL0     H26570   5.009   5.528   0.973  1.2848 -0.9112 -1.1866
  938MOL0     H26571   5.170   5.660   0.764 -2.4010  1.2995  0.8895
  938MOL0     H26572   5.203   5.610   0.933 -1.7717 -0.9336  0.5446
  938MOL0     H26573   5.163   5.365   0.864 -1.6893  0.8843  0.1685
  938MOL0     H26574   5.150   5.411   0.699 -0.8128 -0.1225  1.6610
  938MOL0     H26575   5.379   5.540   0.762 -0.4661  0.8660  0.6636
  938MOL0     H26576   5.383   5.434   0.896 -1.3862 -0.9683  1.8401
  938MOL0     H26577   5.379   5.354   0.592  1.2915 -1.0812 -0.3486
  938MOL0     H26578   5.366   5.232   0.717 -0.2468 -0.8100 -2.4412
  938MOL0     H26579   5.590   5.248   0.788 -1.1434 -1.0979 -0.2692
  938MOL0     H26580   5.608   5.257   0.616 -1.3217  1.6667 -1.9311
  938MOL0     H26581   5.642   5.512   0.506  0.9044  0.7296 -0.4900
  938MOL0     H26582   5.784   5.818   0.694  0.0713  0.0417 -0.1098
  938MOL0     H26583   5.920   5.725   0.623 -0.7312 -3.3429  0.5311
  938MOL0     H26584   5.802   5.721   0.405  0.1590 -1.8812  0.9298
  938MOL0     H26585   5.657   5.789   0.480 -0.3309 -3.1408 -0.2047
  938MOL0     H26586   5.726   5.995   0.536 -0.4143  0.0940 -0.5788
  938MOL0     H26587   5.782   5.969   0.374 -4.0417  0.2621 -0.0591
  938MOL0     H26588   6.019   5.877   0.473  1.5739  0.1365  2.8917
  938MOL0     H26589   5.973   5.964   0.610  1.8927  4.3560 -1.5157
  938MOL0     H26590   6.222   5.933   0.470 -0.5892  0.3539 -0.0215
  938MOL0     H26591   6.443   6.021   0.504  2.2501  0.5754 -2.2104
  938MOL0     H26592   6.677   6.542   0.269 -1.4994  1.3975  0.0327
  938MOL0     H26593   6.864   6.698   0.326  4.2048 -2.4275 -0.0214
  938MOL0     H26594   7.035   6.781   0.377 -1.6488  2.5726 -1.4473
  938MOL0     H26595   6.950   6.894   0.495  1.2483 -0.1839 -0.1875
  938MOL0     H26596   7.212   6.757   0.546  0.6913 -0.7305  1.7806
  938MOL0     H26597   7.208   6.894   0.448 -3.5316 -3.3851 -3.1050
  938MOL0     H26598   7.075   6.988   0.657 -1.2710 -2.3986  3.0160
  938MOL0     H26599   7.199   6.874   0.741  0.6541 -0.9486 -0.4902
  938MOL0     H26600   7.239   7.131   0.581 -5.0084  1.3921  3.6882
  938MOL0     H26601   7.383   7.024   0.610  2.1157  1.0745  3.2034
  938MOL0     H26602   7.368   7.048   0.853 -1.2163 -2.0091 -0.0053
  938MOL0     H26603   7.236   7.158   0.853 -1.3580 -0.9452 -0.2691
  938MOL0     H26604   7.469   7.240   0.877  1.5158 -0.3392 -0.6485
  938MOL0     H26605   7.505   7.215   0.711  0.3112  1.8265  1.1472
  938MOL0     H26606   7.251   7.370   0.788 -1.4517  0.9082 -2.6895
  938MOL0     H26607   7.320   7.341   0.632  3.1756  0.2226 -1.3249
  938MOL0     H26608   7.425   7.543   0.831  0.4624  1.3858 -1.6410
  938MOL0     H26609   7.506   7.496   0.671  0.2728 -3.0531  0.2962
  938MOL0     H26610   6.822   6.624   0.739 -2.5705 -0.5371  1.3314
  938MOL0     H26611   6.603   6.460   0.661  0.4391  1.5013  1.8323
  938MOL0     H26612   6.293   6.421   0.410 -1.8945  0.1880 -1.1999
  938MOL0     H26613   6.079   6.337   0.383  1.1242  0.6979 -2.2297
  938MOL0     H26614   4.670   5.706   0.755 -0.0663  1.4658 -0.4835
  938MOL0     H26615   4.431   5.683   0.680 -2.2695 -0.3225  1.0396
  938MOL0     H26616   4.092   5.801   0.579  0.9548  0.7441  1.7106
  938MOL0     H26617   3.870   5.712   0.446 -1.8832 -2.1258  1.0424
  938MOL0     H26618   3.504   5.868   0.499 -3.3180  0.3942  1.2561
  938MOL0     H26619   3.556   5.884   0.663 -2.6619  1.4634 -0.5604
  938MOL0     H26620   3.442   5.689   0.735 -1.0729 -4.3299 -1.2463
  938MOL0     H26621   3.389   5.645   0.572  0.1571 -0.5334  1.8910
  938MOL0     H26622   3.202   5.745   0.679 -3.3213 -0.4526 -4.7313
  938MOL0     H26623   3.255   5.823   0.537 -1.1050 -0.8791  0.3376
  938MOL0     H26624   3.350   6.015   0.662 -1.5044 -1.6679 -3.1539
  938MOL0     H26625   3.191   5.990   0.739 -0.3202 -0.6139  0.7689
  938MOL0     H26626   3.495   5.967   1.023 -0.6850  0.2499  0.9396
  938MOL0     H26627   3.660   5.739   0.812  0.0889  1.6231  1.0594
  938MOL0     H26628   3.902   5.901   1.007 -0.0265 -0.0193 -2.8928
  938MOL0     H26629   3.743   5.818   1.017  0.7682 -0.3239  0.9137
  938MOL0     H26630   3.891   5.722   1.050  0.5836 -2.1184 -2.4297
  939MOL0     O26631   4.383   9.885   9.545  0.4328 -0.0877 -0.3191
  939MOL0     C26632   4.299   9.873   9.631 -0.2712  0.4284  0.5825
  939MOL0     O26633   4.328   9.861   9.756 -0.5669 -0.1720 -1.0160
  939MOL0     C26634   4.450   9.806   9.794  0.4176  0.2982 -1.1435
  939MOL0     C26635   4.490   9.804   9.933 -0.5051 -0.3225 -0.0585
  939MOL0     C26636   4.605   9.739   9.978 -0.7270  0.7161 -0.2943
  939MOL0     C26637   4.686   9.667   9.898 -0.8624 -0.3033 -0.1721
  939MOL0     O26638   4.795   9.616   9.959 -0.9542 -0.4402 -0.1931
  939MOL0     C26639   4.905   9.573   9.872 -0.7676 -0.4493 -0.2591
  939MOL0     C26640   5.016   9.502   9.953  1.2607 -1.0276  0.5666
  939MOL0     C26641   5.080   9.571  10.065 -1.0609 -1.2516 -0.4554
  939MOL0     C26642   5.093   9.474  10.184 -0.1713 -0.7543 -0.0386
  939MOL0     C26643   5.172   9.539  10.293 -0.5465 -0.6276  0.6023
  939MOL0     C26644   5.159   9.452  10.419 -0.8287  0.1578  0.6130
  939MOL0     C26645   5.273   9.486  10.525  0.2273 -0.2844  0.5656
  939MOL0     C26646   5.253   9.392  10.631  0.3764 -0.4823  0.1934
  939MOL0     N26647   5.286   9.449  10.765 -0.1359 -0.2793  0.3186
  939MOL0     C26648   5.222   9.555  10.826 -0.1796 -0.3591  0.4529
  939MOL0     C26649   5.309   9.600  10.916 -0.0105  0.4589 -0.0271
  939MOL0     C26650   5.309   9.715  11.019 -0.9152 -0.4785  0.3039
  939MOL0     C26651   5.171   9.774  11.043  0.4419 -0.2147  0.6007
  939MOL0     C26652   5.073   9.699  11.124 -0.8463 -0.2181 -0.4292
  939MOL0     C26653   4.947   9.784  11.150  0.0851 -0.5592  0.1364
  939MOL0     O26654   4.876   9.822  11.029 -0.2207  0.0808  0.2368
  939MOL0     C26655   4.736   9.846  11.041  0.5197  0.2083 -0.5654
  939MOL0     C26656   4.659   9.854  10.926  0.5015  0.4741  1.0453
  939MOL0     C26657   4.523   9.861  10.920 -0.1954  0.1353  0.3698
  939MOL0     C26658   4.445   9.880  11.030 -0.9142  0.5928  0.7857
  939MOL0     C26659   4.302   9.895  11.017 -0.4664 -0.3189  0.0004
  939MOL0     O26660   4.252   9.950  10.904 -0.3758 -0.2826 -0.3485
  939MOL0     C26661   4.117   9.966  10.892 -0.2228  0.6268 -0.1594
  939MOL0     C26662   4.031   9.869  10.836 -0.4009 -0.1748  0.0663
  939MOL0     C26663   3.896   9.904  10.815  0.3544  0.4544 -0.1858
  939MOL0     C26664   3.854  10.032  10.842  1.2049 -1.2968 -0.1274
  939MOL0     O26665   3.732  10.079  10.795  0.9829  0.6189  0.7088
  939MOL0     C26666   3.651  10.161  10.885  0.7298 -1.0236 -0.9267
  939MOL0     C26667   3.500  10.118  10.858 -0.7345  0.3079  0.1196
  939MOL0     C26668   3.400  10.179  10.950 -0.9264 -0.0517  0.3505
  939MOL0     C26669   3.417  10.124  11.091 -0.0588 -0.8744 -0.8589
  939MOL0     C26670   3.303  10.159  11.192 -0.0347  0.1036  0.4737
  939MOL0     C26671   3.199  10.052  11.178  0.0150 -0.7083  0.3649
  939MOL0     C26672   3.066  10.088  11.248  0.1793  0.7254 -0.7237
  939MOL0     C26673   2.958   9.990  11.233  0.1155 -0.2627 -1.0049
  939MOL0    Cl26674   2.900   9.989  11.073 -0.6737 -0.0746 -0.4102
  939MOL0     C26675   3.944  10.126  10.902  0.0456  0.4343 -0.3551
  939MOL0     C26676   4.072  10.086  10.930 -0.3402 -0.7803  1.4507
  939MOL0     O26677   4.228   9.846  11.107 -0.2891 -0.6951  0.2533
  939MOL0     C26678   4.516   9.869  11.154 -0.2770  0.3413 -0.1863
  939MOL0     C26679   4.656   9.843  11.152  0.0463 -0.0812 -0.7838
  939MOL0     N26680   5.423   9.530  10.905  0.0480  0.7861 -0.4107
  939MOL0     N26681   5.414   9.437  10.819  0.8386 -0.4590  0.6742
  939MOL0     C26682   4.641   9.649   9.765  0.8100  1.1546 -0.5555
  939MOL0     C26683   4.528   9.719   9.721 -0.3976 -0.6428  1.0853
  939MOL0     C26684   4.158   9.875   9.578 -0.0048  0.2056  0.4533
  939MOL0     C26685   4.128   9.810   9.464 -0.0395  0.7906 -0.1312
  939MOL0     C26686   4.003   9.818   9.398  0.3292 -0.2849  0.3006
  939MOL0     C26687   3.897   9.890   9.468 -0.4496 -0.5834 -1.1017
  939MOL0     O26688   3.768   9.900   9.421 -0.7069  0.7922 -0.8633
  939MOL0     C26689   3.701   9.783   9.379 -0.0385 -0.3768  1.2425
  939MOL0     C26690   3.697   9.665   9.478 -0.0541  0.5410 -0.0013
  939MOL0     C26691   3.598   9.541   9.448 -0.5102 -0.4269 -0.5446
  939MOL0     C26692   3.444   9.579   9.446 -0.3561  0.1985 -0.0096
  939MOL0     C26693   3.348   9.471   9.466  0.2519 -0.0663  0.2576
  939MOL0     C26694   3.279   9.372   9.480  0.6945 -0.3908  0.5575
  939MOL0     C26695   3.929   9.958   9.590  0.5733  1.0305 -0.1677
  939MOL0     C26696   4.053   9.944   9.646  0.6097 -0.8536 -0.0967
  939MOL0     C26697   4.074  10.033   9.765  0.2077  0.1007  0.0281
  939MOL0     H26698   4.429   9.856  10.007 -1.9957 -1.1744 -0.6244
  939MOL0     H26699   4.624   9.739  10.085 -1.1367  2.4184 -0.1906
  939MOL0     H26700   4.878   9.507   9.789  0.2482  1.0209 -1.8063
  939MOL0     H26701   4.948   9.658   9.819 -1.1256 -1.1153 -1.6473
  939MOL0     H26702   5.087   9.484   9.872  1.2570 -0.3469  0.4132
  939MOL0     H26703   4.965   9.411   9.989 -2.5989 -0.6939 -3.2687
  939MOL0     H26704   5.031   9.656  10.112  5.5959  0.9836  4.0028
  939MOL0     H26705   5.181   9.605  10.038 -1.8983  1.8777 -0.0168
  939MOL0     H26706   4.996   9.449  10.229 -1.1830  4.0726  0.9885
  939MOL0     H26707   5.134   9.374  10.164  0.5092 -0.4128 -0.3617
  939MOL0     H26708   5.276   9.551  10.262 -1.2850 -1.2298 -2.4624
  939MOL0     H26709   5.144   9.635  10.336 -1.7645 -1.3886  1.5992
  939MOL0     H26710   5.062   9.460  10.471 -0.9320 -2.3263  0.9477
  939MOL0     H26711   5.151   9.346  10.392 -5.7077  0.7416 -1.2910
  939MOL0     H26712   5.252   9.592  10.542  1.6801  0.2030 -0.5115
  939MOL0     H26713   5.376   9.488  10.490 -0.4713 -1.1319 -1.7311
  939MOL0     H26714   5.150   9.357  10.621  0.3276  0.1786 -2.2852
  939MOL0     H26715   5.325   9.310  10.623  1.4773  0.5777 -1.1083
  939MOL0     H26716   5.127   9.600  10.801 -0.9008 -1.5530  0.9384
  939MOL0     H26717   5.352   9.693  11.117 -2.7113 -0.7879  1.0508
  939MOL0     H26718   5.370   9.792  10.970 -3.1091  0.4512 -1.0709
  939MOL0     H26719   5.189   9.867  11.098  1.3686 -0.4425  0.6896
  939MOL0     H26720   5.140   9.798  10.941  0.3482  1.5636  1.0049
  939MOL0     H26721   5.124   9.667  11.216 -3.0632 -0.2816  0.8433
  939MOL0     H26722   5.050   9.609  11.066 -1.5199 -0.5588  0.3517
  939MOL0     H26723   4.990   9.879  11.182  2.1507 -0.8070 -1.6017
  939MOL0     H26724   4.886   9.738  11.227  0.4130 -1.5357 -0.1688
  939MOL0     H26725   4.713   9.855  10.832 -0.7701  0.2175  0.2906
  939MOL0     H26726   4.477   9.873  10.822  3.1113  0.1184 -1.3429
  939MOL0     H26727   4.079   9.773  10.826 -0.6215 -0.0483 -3.3619
  939MOL0     H26728   3.829   9.830  10.771 -0.0569  1.9592 -2.2446
  939MOL0     H26729   3.674  10.141  10.990 -1.2979 -0.8841 -0.4297
  939MOL0     H26730   3.662  10.270  10.882  0.3835 -0.9955 -1.1449
  939MOL0     H26731   3.489  10.145  10.753  0.2432 -0.2205 -0.1367
  939MOL0     H26732   3.498  10.009  10.870  1.0201  0.1397 -0.7110
  939MOL0     H26733   3.386  10.288  10.954 -1.2099 -0.0515 -0.4440
  939MOL0     H26734   3.305  10.150  10.905 -0.0716  0.4225 -1.9006
  939MOL0     H26735   3.500  10.182  11.131 -0.2512  0.2476 -2.0213
  939MOL0     H26736   3.447  10.019  11.091 -4.4935 -2.3684 -1.2377
  939MOL0     H26737   3.257  10.249  11.150  2.5274  1.2973  0.0440
  939MOL0     H26738   3.342  10.171  11.293  1.5276  0.5909 -0.1584
  939MOL0     H26739   3.174  10.030  11.073 -2.8253  0.4580  0.7048
  939MOL0     H26740   3.236   9.958  11.219  2.7318  0.8608  1.7937
  939MOL0     H26741   3.042  10.184  11.201 -2.3927  1.2889  1.4605
  939MOL0     H26742   3.074  10.099  11.357  1.6292 -2.1901 -0.4559
  939MOL0     H26743   2.995   9.891  11.261  0.4525 -1.5626 -5.2250
  939MOL0     H26744   2.874  10.003  11.302  1.4103  0.2281  0.5276
  939MOL0     H26745   3.913  10.230  10.908  0.5085  0.5506  0.1436
  939MOL0     H26746   4.145  10.156  10.968  1.2722  0.3459 -3.0689
  939MOL0     H26747   4.452   9.876  11.242 -2.7897  1.4302 -1.9942
  939MOL0     H26748   4.690   9.810  11.250 -2.3828  0.2127  0.2191
  939MOL0     H26749   4.707   9.593   9.699  1.9442  1.2572  0.4524
  939MOL0     H26750   4.505   9.698   9.617  2.8859 -2.0517  0.5279
  939MOL0     H26751   4.206   9.759   9.407 -0.3716 -0.9552  0.9050
  939MOL0     H26752   3.983   9.781   9.299 -0.6972  3.2280 -0.9749
  939MOL0     H26753   3.745   9.744   9.287 -2.0800 -0.3703  0.1945
  939MOL0     H26754   3.599   9.814   9.352  0.0010 -1.4681 -0.3000
  939MOL0     H26755   3.672   9.692   9.582 -0.7628  1.4816 -0.4014
  939MOL0     H26756   3.797   9.619   9.476 -1.0267 -1.6972 -0.2797
  939MOL0     H26757   3.603   9.474   9.535 -1.2400  0.4918  0.2365
  939MOL0     H26758   3.632   9.478   9.366 -2.2835 -2.0694 -0.0959
  939MOL0     H26759   3.430   9.657   9.521  1.2879  2.9652 -2.3342
  939MOL0     H26760   3.421   9.632   9.353 -0.0087  0.3734  0.0007
  939MOL0     H26761   3.207   9.295   9.500  1.5391 -1.8446 -1.5702
  939MOL0     H26762   3.853  10.018   9.638  1.7984  3.8933 -1.4911
  939MOL0     H26763   4.029   9.999   9.859 -0.7143  1.7117  0.2016
  939MOL0     H26764   4.177  10.046   9.799 -0.0079  1.8283  0.1015
  939MOL0     H26765   4.040  10.137   9.754 -1.7490 -0.4242  0.6581
  940MOL0     O26766   4.074  10.805  10.869 -0.0838  0.2930  0.0598
  940MOL0     C26767   3.990  10.729  10.817  0.2249  0.1103  0.3508
  940MOL0     O26768   3.861  10.734  10.847  0.0157  0.1324  0.5014
  940MOL0     C26769   3.823  10.806  10.957 -0.8161  0.0575  1.0949
  940MOL0     C26770   3.755  10.928  10.929  0.2258 -0.2478 -0.5521
  940MOL0     C26771   3.686  10.988  11.035 -0.1241 -0.5290 -0.7180
  940MOL0     C26772   3.714  10.957  11.166 -0.1431 -0.5727 -0.6526
  940MOL0     O26773   3.661  11.031  11.271  0.1164  1.2304 -0.9603
  940MOL0     C26774   3.745  11.130  11.330 -0.0434 -0.2899  0.4362
  940MOL0     C26775   3.797  11.055  11.458 -0.8025  1.1968 -0.5827
  940MOL0     C26776   3.795  11.135  11.584  0.5303 -0.1434 -0.7105
  940MOL0     C26777   3.922  11.233  11.599 -0.4128 -0.4511  0.1240
  940MOL0     C26778   3.913  11.359  11.507  0.1085  0.4615  0.4822
  940MOL0     C26779   4.034  11.458  11.541 -0.5036 -0.5079  1.4912
  940MOL0     C26780   3.996  11.598  11.483 -0.3072  0.4679 -0.6627
  940MOL0     C26781   4.129  11.681  11.476 -0.4120  1.3745 -0.5088
  940MOL0     N26782   4.105  11.807  11.418  0.0549 -0.3419  0.2834
  940MOL0     C26783   3.995  11.846  11.344 -0.2709  0.5098  0.5949
  940MOL0     C26784   4.019  11.968  11.294 -0.6878  0.4192 -0.1436
  940MOL0     C26785   3.923  12.031  11.198 -0.3402 -0.7495  0.0547
  940MOL0     C26786   3.957  12.010  11.048 -0.4218  0.0097  0.0568
  940MOL0     C26787   4.112  11.999  11.005 -0.5070 -0.0654 -1.0488
  940MOL0     C26788   4.195  12.130  11.040 -0.0986  0.0952  0.3116
  940MOL0     O26789   4.230  12.189  10.914 -0.0477 -0.9369 -0.5655
  940MOL0     C26790   4.309  12.297  10.912  0.0448 -0.6193  0.4613
  940MOL0     C26791   4.356  12.338  10.787 -0.3245  0.3746  0.7821
  940MOL0     C26792   4.438  12.451  10.770  0.0045  0.2575 -0.3707
  940MOL0     C26793   4.479  12.512  10.883  0.2191  0.4393  0.5837
  940MOL0     C26794   4.590  12.615  10.860  0.2017  0.1457 -0.2138
  940MOL0     O26795   4.666  12.605  10.744 -0.3957 -0.4733  0.5086
  940MOL0     C26796   4.753  12.707  10.720  0.6903  0.0557 -0.3204
  940MOL0     C26797   4.882  12.707  10.777 -0.2263  0.3862 -1.5372
  940MOL0     C26798   4.968  12.812  10.756  0.2983  0.8488  0.4460
  940MOL0     C26799   4.918  12.928  10.694 -0.7377 -0.0886 -0.0883
  940MOL0     O26800   4.996  13.039  10.673  0.4839  0.0253 -0.4037
  940MOL0     C26801   5.124  13.053  10.733 -0.1838  0.8476 -0.2817
  940MOL0     C26802   5.145  13.205  10.743 -0.6695 -0.6506 -0.1282
  940MOL0     C26803   5.166  13.268  10.603 -0.3168 -0.0512 -0.7423
  940MOL0     C26804   5.212  13.415  10.593  0.3492  0.5726 -0.3172
  940MOL0     C26805   5.103  13.521  10.595 -0.1155  0.0043  0.3243
  940MOL0     C26806   5.169  13.663  10.606 -0.5159  0.1309 -0.7565
  940MOL0     C26807   5.191  13.709  10.747 -0.2287  0.3302 -1.4129
  940MOL0     C26808   5.229  13.851  10.772 -0.2758 -0.3049 -0.2764
  940MOL0    Cl26809   5.387  13.863  10.695  0.3423  0.2196  0.1181
  940MOL0     C26810   4.792  12.927  10.637 -0.3777  0.4748 -0.4356
  940MOL0     C26811   4.714  12.819  10.645  0.1195  0.1221 -0.3824
  940MOL0     O26812   4.608  12.695  10.948  0.3254  0.1678 -0.6160
  940MOL0     C26813   4.431  12.478  11.009  0.4957 -0.1897 -0.3698
  940MOL0     C26814   4.341  12.380  11.024 -0.8760  0.9429 -0.9440
  940MOL0     N26815   4.152  12.007  11.342 -0.0895 -0.5431  0.3060
  940MOL0     N26816   4.196  11.915  11.417  0.8867  0.7141 -0.2710
  940MOL0     C26817   3.789  10.846  11.182  0.8549  0.2654 -0.7553
  940MOL0     C26818   3.841  10.769  11.081  0.7240  0.5864  0.5234
  940MOL0     C26819   4.037  10.629  10.715 -0.7628  0.1990 -0.3192
  940MOL0     C26820   4.174  10.639  10.677  0.0730 -1.5911  0.6400
  940MOL0     C26821   4.223  10.583  10.557  0.6554  0.0909  0.2087
  940MOL0     C26822   4.133  10.514  10.483  0.7268  0.2109 -0.2888
  940MOL0     O26823   4.163  10.449  10.373  0.2770  0.2932  0.7618
  940MOL0     C26824   4.297  10.461  10.312  0.0264  0.2961  0.9054
  940MOL0     C26825   4.322  10.372  10.185  0.8740 -0.0997  0.1115
  940MOL0     C26826   4.284  10.221  10.220 -0.1208 -0.1982  0.3047
  940MOL0     C26827   4.296  10.129  10.091 -0.1412 -0.4744  0.0583
  940MOL0     C26828   4.407  10.152   9.997 -0.0087  0.0481  1.5225
  940MOL0     C26829   4.506  10.183   9.927 -0.6311  0.4150 -0.2740
  940MOL0     C26830   4.004  10.489  10.521  0.6551  1.1110 -0.4630
  940MOL0     C26831   3.947  10.547  10.640 -0.5161  0.1526 -0.1866
  940MOL0     C26832   3.816  10.498  10.670  0.1423  0.0012 -0.2794
  940MOL0     H26833   3.740  10.964  10.828  0.7301 -1.7890 -1.2065
  940MOL0     H26834   3.610  11.064  11.021 -0.5453 -0.6206  0.9251
  940MOL0     H26835   3.826  11.157  11.263 -0.3743 -2.3625 -0.8770
  940MOL0     H26836   3.691  11.219  11.365 -0.9721 -1.2327  1.4872
  940MOL0     H26837   3.896  11.016  11.429 -0.5498  0.9822  0.5264
  940MOL0     H26838   3.738  10.967  11.485  1.3011 -0.4970 -1.1433
  940MOL0     H26839   3.798  11.061  11.665  2.0021  1.7012  1.0192
  940MOL0     H26840   3.702  11.191  11.594  0.8651  0.2289  0.4835
  940MOL0     H26841   3.903  11.266  11.702 -3.0498  0.8488 -0.6933
  940MOL0     H26842   4.023  11.194  11.583  1.0057  1.1254  3.8973
  940MOL0     H26843   3.916  11.318  11.406 -0.7715  1.6458 -0.0416
  940MOL0     H26844   3.817  11.407  11.526 -1.1110 -1.2196 -1.0836
  940MOL0     H26845   4.058  11.467  11.647 -0.1384  0.9154  1.3182
  940MOL0     H26846   4.131  11.438  11.494  0.6883  2.0633  2.6215
  940MOL0     H26847   3.913  11.638  11.543  0.7951  0.3659  0.9885
  940MOL0     H26848   3.964  11.584  11.380  0.7427 -1.1528 -0.7881
  940MOL0     H26849   4.184  11.695  11.570  3.0354  2.2890 -2.4967
  940MOL0     H26850   4.198  11.623  11.415  0.2423 -0.1883  1.5904
  940MOL0     H26851   3.900  11.794  11.337 -0.8796  1.4797  1.3529
  940MOL0     H26852   3.824  11.991  11.220 -0.9256  0.9275  0.6805
  940MOL0     H26853   3.909  12.137  11.222 -1.8622 -0.4530 -1.9336
  940MOL0     H26854   3.902  11.920  11.020 -0.5714  1.0983 -3.5625
  940MOL0     H26855   3.909  12.092  10.994 -1.8938  0.0693  1.3661
  940MOL0     H26856   4.103  11.987  10.897  0.7409  3.1847 -1.6446
  940MOL0     H26857   4.164  11.917  11.056  0.5519  0.1247 -1.7966
  940MOL0     H26858   4.288  12.114  11.096  1.0515  0.2493 -1.4853
  940MOL0     H26859   4.127  12.194  11.098  1.2051  1.9614 -0.1466
  940MOL0     H26860   4.315  12.279  10.705  2.0790  1.5527 -1.3930
  940MOL0     H26861   4.469  12.476  10.669 -0.6393 -0.4958 -0.7667
  940MOL0     H26862   4.914  12.627  10.843 -0.1669  2.5990  1.3189
  940MOL0     H26863   5.068  12.820  10.798  3.0198  0.1364 -5.1005
  940MOL0     H26864   5.133  13.006  10.831 -2.6744  3.5036  1.3729
  940MOL0     H26865   5.205  13.020  10.666  0.3146  1.6708 -0.1028
  940MOL0     H26866   5.047  13.237  10.782 -1.1354 -2.3049  0.1405
  940MOL0     H26867   5.226  13.222  10.814 -2.9206 -1.2741  2.8045
  940MOL0     H26868   5.230  13.209  10.537  0.7651  2.2190 -1.8206
  940MOL0     H26869   5.069  13.264  10.552 -0.7644 -1.1610  0.1605
  940MOL0     H26870   5.263  13.439  10.498  1.9172 -0.5655  0.1928
  940MOL0     H26871   5.292  13.427  10.667 -0.6163 -3.6881  1.7051
  940MOL0     H26872   5.046  13.498  10.685  0.3594  1.0212  0.8958
  940MOL0     H26873   5.031  13.513  10.512 -0.2135 -0.5431  0.4548
  940MOL0     H26874   5.266  13.673  10.556  0.7718 -2.2653  1.0429
  940MOL0     H26875   5.092  13.728  10.564 -4.0394 -2.7454  0.6666
  940MOL0     H26876   5.276  13.647  10.776  2.2134  2.9929 -2.4335
  940MOL0     H26877   5.098  13.706  10.804  2.3889  4.3266  3.8056
  940MOL0     H26878   5.160  13.926  10.735  1.8282  0.9223 -1.9245
  940MOL0     H26879   5.244  13.866  10.879  1.0494  0.0033 -0.4828
  940MOL0     H26880   4.760  13.010  10.574  2.8001 -0.9578 -4.3984
  940MOL0     H26881   4.615  12.826  10.602 -0.9824  0.2747  2.0549
  940MOL0     H26882   4.453  12.548  11.089 -0.1840  1.8978 -1.9146
  940MOL0     H26883   4.305  12.352  11.123 -0.7672  1.5689 -0.7210
  940MOL0     H26884   3.819  10.827  11.285 -1.5735  1.0093  0.1488
  940MOL0     H26885   3.903  10.681  11.092 -0.6114 -0.3529  0.7460
  940MOL0     H26886   4.245  10.708  10.722  0.6466 -0.8236 -1.3061
  940MOL0     H26887   4.325  10.598  10.523 -0.1687  0.7922 -2.1902
  940MOL0     H26888   4.371  10.441  10.390  2.4022 -2.7896 -1.8205
  940MOL0     H26889   4.309  10.563  10.276 -0.7744 -0.2559 -1.0524
  940MOL0     H26890   4.423  10.394  10.149  0.8050  0.1147  0.0482
  940MOL0     H26891   4.258  10.408  10.105 -1.4061 -1.2451  1.3033
  940MOL0     H26892   4.192  10.206  10.276 -0.0421 -0.5603  0.3364
  940MOL0     H26893   4.356  10.196  10.299  1.6325 -0.0084 -1.1597
  940MOL0     H26894   4.307  10.025  10.122 -0.4417 -0.1678  1.2446
  940MOL0     H26895   4.195  10.132  10.049 -0.5073 -0.9831  0.8619
  940MOL0     H26896   4.586  10.228   9.873  1.8268 -2.9960  0.1828
  940MOL0     H26897   3.948  10.418  10.459 -1.0843 -0.1943  2.4066
  940MOL0     H26898   3.745  10.574  10.636  0.3251  0.8974  1.2363
  940MOL0     H26899   3.789  10.402  10.625  1.6932 -0.7284  0.2913
  940MOL0     H26900   3.806  10.496  10.779 -0.4224 -0.6326 -0.3342
  941MOL0     O26901   1.077   3.921   2.431 -0.0416  0.4268 -0.2375
  941MOL0     C26902   1.173   3.950   2.360 -0.0885  0.2408 -0.8803
  941MOL0     O26903   1.290   3.874   2.351 -0.4446 -0.4890  0.4007
  941MOL0     C26904   1.320   3.762   2.430  0.1055 -0.6684  0.0561
  941MOL0     C26905   1.437   3.766   2.497  0.6290  0.2728  0.8127
  941MOL0     C26906   1.485   3.660   2.571 -0.0859  0.9879  0.7023
  941MOL0     C26907   1.415   3.536   2.587 -0.2773  0.1756 -0.4540
  941MOL0     O26908   1.460   3.437   2.670 -0.4765 -0.1119  0.3890
  941MOL0     C26909   1.372   3.356   2.740 -0.5902 -0.0959  0.4371
  941MOL0     C26910   1.433   3.331   2.875 -0.2420 -0.3203 -0.1146
  941MOL0     C26911   1.461   3.449   2.962  0.3484 -0.3409  0.3193
  941MOL0     C26912   1.331   3.519   2.997 -0.8874  0.7060 -0.3792
  941MOL0     C26913   1.355   3.601   3.126 -0.5235  0.6547  0.6234
  941MOL0     C26914   1.344   3.529   3.254  0.0191 -0.7793 -0.4388
  941MOL0     C26915   1.341   3.634   3.366 -0.8450  0.8919 -0.1463
  941MOL0     C26916   1.204   3.696   3.403  0.5198 -0.1292  0.3623
  941MOL0     N26917   1.109   3.596   3.441  0.4678  0.6562  0.4242
  941MOL0     C26918   1.001   3.565   3.355 -0.1037  0.3973  0.1366
  941MOL0     C26919   0.898   3.511   3.433 -0.0472 -0.2375 -0.0830
  941MOL0     C26920   0.777   3.450   3.360 -0.1854  0.3846  0.2595
  941MOL0     C26921   0.641   3.503   3.419  0.3472 -0.4607 -0.2488
  941MOL0     C26922   0.601   3.424   3.547 -0.5730 -0.2368  0.8380
  941MOL0     C26923   0.513   3.503   3.642  0.5928 -0.0359  0.3388
  941MOL0     O26924   0.394   3.542   3.576 -0.5381 -0.4679 -0.1538
  941MOL0     C26925   0.293   3.449   3.562  0.4809  0.7580  0.2874
  941MOL0     C26926   0.189   3.495   3.484 -0.4393 -0.6216  0.2845
  941MOL0     C26927   0.073   3.417   3.454  0.0552 -0.0022 -0.3535
  941MOL0     C26928   0.056   3.291   3.498 -0.0783  1.4208  0.6293
  941MOL0     C26929  -0.033   3.193   3.424  0.8172  0.1712 -0.0360
  941MOL0     O26930  -0.092   3.244   3.306 -0.7620  0.0547  0.5455
  941MOL0     C26931  -0.193   3.200   3.230  0.2212  0.6130  0.9855
  941MOL0     C26932  -0.290   3.124   3.289  0.2886 -0.7520 -0.5971
  941MOL0     C26933  -0.392   3.070   3.207  0.1922 -0.4311 -0.1843
  941MOL0     C26934  -0.395   3.101   3.069 -0.6765 -0.1286  1.2183
  941MOL0     O26935  -0.484   3.047   2.975  0.3726 -0.4782  0.7498
  941MOL0     C26936  -0.564   2.936   3.031  0.6332 -0.8675 -0.0982
  941MOL0     C26937  -0.608   2.835   2.933 -0.3062 -0.0825  0.5122
  941MOL0     C26938  -0.476   2.781   2.865 -0.3544 -0.2497  0.6820
  941MOL0     C26939  -0.478   2.637   2.836 -0.5618  0.4967 -0.5457
  941MOL0     C26940  -0.359   2.579   2.747  0.4234 -0.2957 -0.4920
  941MOL0     C26941  -0.338   2.436   2.772 -1.0153 -0.5811 -0.6115
  941MOL0     C26942  -0.222   2.378   2.681  0.0373 -1.1597 -0.3944
  941MOL0     C26943  -0.086   2.451   2.694  0.0737 -0.3294 -0.7223
  941MOL0    Cl26944  -0.019   2.413   2.858  0.7489  0.1774  0.7221
  941MOL0     C26945  -0.298   3.189   3.020  0.6590  0.7399  0.5980
  941MOL0     C26946  -0.193   3.240   3.097 -0.3895 -0.1521  0.0144
  941MOL0     O26947  -0.055   3.084   3.479  0.0767 -0.5282 -0.2736
  941MOL0     C26948   0.159   3.245   3.587 -0.1411  0.0573  0.3445
  941MOL0     C26949   0.273   3.320   3.623 -1.0147  0.3691  0.9126
  941MOL0     N26950   0.948   3.508   3.568 -0.0523 -0.0680  0.0751
  941MOL0     N26951   1.061   3.569   3.571 -2.0938  0.9995  0.4590
  941MOL0     C26952   1.297   3.529   2.519  0.2949 -0.6604 -0.4413
  941MOL0     C26953   1.245   3.645   2.443 -0.7105  0.8896 -0.8836
  941MOL0     C26954   1.146   4.079   2.287  0.3491 -0.6054  0.2086
  941MOL0     C26955   1.039   4.152   2.322  0.2684  0.8905 -0.1972
  941MOL0     C26956   0.998   4.268   2.256 -0.0196  0.0212  0.0501
  941MOL0     C26957   1.079   4.308   2.145 -0.1443 -0.6644 -0.8048
  941MOL0     O26958   1.056   4.425   2.076  0.3127  0.2633  0.3535
  941MOL0     C26959   0.928   4.472   2.037  0.7588 -0.4607 -0.0399
  941MOL0     C26960   0.868   4.408   1.919 -0.3897  0.2262 -0.1095
  941MOL0     C26961   0.954   4.431   1.787 -0.2128  0.5931 -0.7007
  941MOL0     C26962   0.898   4.358   1.664  0.3603 -0.3382 -0.0415
  941MOL0     C26963   0.770   4.427   1.628  0.3061 -0.5451 -0.6298
  941MOL0     C26964   0.662   4.473   1.593 -0.0802  0.6517 -1.1379
  941MOL0     C26965   1.188   4.234   2.115 -0.5322 -0.9334 -0.5409
  941MOL0     C26966   1.228   4.126   2.180  0.3213 -0.5636  0.2463
  941MOL0     C26967   1.345   4.046   2.124 -0.8264 -0.4012  0.7563
  941MOL0     H26968   1.500   3.851   2.473  0.9849 -0.6052 -1.7300
  941MOL0     H26969   1.584   3.668   2.614  0.4254  2.1941 -0.6153
  941MOL0     H26970   1.276   3.405   2.759 -0.0651  0.6996  1.1169
  941MOL0     H26971   1.355   3.265   2.682 -0.4968  0.7581 -0.9679
  941MOL0     H26972   1.531   3.288   2.852 -0.8214 -0.2886 -2.9141
  941MOL0     H26973   1.369   3.258   2.926  1.1623 -2.5027 -1.3361
  941MOL0     H26974   1.533   3.511   2.907  2.0037 -2.6127 -0.2189
  941MOL0     H26975   1.506   3.420   3.058  0.7663  0.1611  0.2835
  941MOL0     H26976   1.289   3.574   2.912 -0.3680 -2.5813 -3.0090
  941MOL0     H26977   1.265   3.437   3.027  0.4074  0.0434  0.7587
  941MOL0     H26978   1.452   3.651   3.113 -1.3023  1.7501 -1.3124
  941MOL0     H26979   1.270   3.670   3.123 -0.6001  0.5210 -1.0557
  941MOL0     H26980   1.261   3.458   3.260  0.0004 -0.6346  1.7947
  941MOL0     H26981   1.436   3.472   3.267  0.2362 -0.0083  1.8278
  941MOL0     H26982   1.411   3.715   3.345  1.7884 -1.2245 -0.0738
  941MOL0     H26983   1.377   3.576   3.452 -4.0801 -3.0339 -1.1024
  941MOL0     H26984   1.212   3.767   3.486 -0.1903  2.9178 -1.9773
  941MOL0     H26985   1.188   3.759   3.315  2.5832 -0.2132 -0.1194
  941MOL0     H26986   0.995   3.580   3.248  1.7873 -0.6871 -0.1749
  941MOL0     H26987   0.779   3.488   3.258 -3.3749  3.3134  1.0551
  941MOL0     H26988   0.766   3.341   3.352  2.2861  0.1959 -1.5469
  941MOL0     H26989   0.659   3.609   3.442  1.0227 -1.1798  3.1870
  941MOL0     H26990   0.564   3.502   3.342  2.4856  0.2862 -2.5393
  941MOL0     H26991   0.692   3.391   3.597  0.5804  1.6280  0.0670
  941MOL0     H26992   0.554   3.331   3.514  0.3591 -0.2431 -0.5923
  941MOL0     H26993   0.568   3.589   3.680 -0.8461  0.6458  0.9624
  941MOL0     H26994   0.488   3.429   3.719 -0.9944  0.1681  0.0624
  941MOL0     H26995   0.201   3.596   3.446 -1.9408 -1.0070 -1.3176
  941MOL0     H26996   0.002   3.447   3.378 -2.9065 -4.4308  0.2732
  941MOL0     H26997  -0.287   3.095   3.394  2.0142 -2.6336 -1.0930
  941MOL0     H26998  -0.475   3.019   3.255  0.9756 -0.9406  0.6489
  941MOL0     H26999  -0.505   2.886   3.109  1.4485 -1.4331 -1.0601
  941MOL0     H27000  -0.656   2.973   3.076  0.5061  0.2336 -1.2318
  941MOL0     H27001  -0.653   2.751   2.987 -0.4715  0.3543  1.0575
  941MOL0     H27002  -0.680   2.870   2.859 -2.2018  0.7926  2.6788
  941MOL0     H27003  -0.465   2.817   2.762  0.5137 -0.3439  0.7315
  941MOL0     H27004  -0.381   2.792   2.919 -0.2229  1.6153  0.1449
  941MOL0     H27005  -0.575   2.618   2.790 -0.4349 -1.3801 -0.1203
  941MOL0     H27006  -0.493   2.583   2.929 -0.4738 -0.7777 -1.2503
  941MOL0     H27007  -0.270   2.643   2.749 -0.1716  0.9133 -4.4686
  941MOL0     H27008  -0.395   2.597   2.645  0.2242 -1.8196 -0.7136
  941MOL0     H27009  -0.317   2.422   2.879  0.4885 -0.3956 -0.8609
  941MOL0     H27010  -0.435   2.385   2.770 -0.9864 -0.8695  1.9562
  941MOL0     H27011  -0.250   2.389   2.576  1.3819  1.4758 -0.5561
  941MOL0     H27012  -0.220   2.269   2.691 -3.1105 -1.5804 -2.8876
  941MOL0     H27013  -0.021   2.418   2.612  2.0272  1.7374 -0.0997
  941MOL0     H27014  -0.090   2.558   2.672  3.2515  0.0485 -0.0455
  941MOL0     H27015  -0.295   3.211   2.914  1.7836 -2.2053 -0.0759
  941MOL0     H27016  -0.123   3.310   3.051 -0.6188 -1.6572 -2.8416
  941MOL0     H27017   0.167   3.142   3.620  1.5925 -0.2555 -0.9085
  941MOL0     H27018   0.342   3.262   3.684 -0.5032 -0.3923 -0.3526
  941MOL0     H27019   1.238   3.439   2.528  0.0387 -0.6545 -1.9593
  941MOL0     H27020   1.145   3.639   2.402 -0.1867 -0.5654 -2.0295
  941MOL0     H27021   0.991   4.112   2.410  1.6767 -2.4724 -0.8036
  941MOL0     H27022   0.921   4.335   2.294 -0.3242 -1.1759  1.6695
  941MOL0     H27023   0.935   4.579   2.021  0.1256 -0.3588  0.3172
  941MOL0     H27024   0.862   4.467   2.124 -2.0441  1.2576 -1.8884
  941MOL0     H27025   0.768   4.443   1.892 -0.2996  0.3351 -0.3080
  941MOL0     H27026   0.872   4.302   1.944  4.6864 -0.0247 -0.8807
  941MOL0     H27027   1.051   4.388   1.814  0.0616  1.9364  0.5560
  941MOL0     H27028   0.978   4.536   1.770  2.2599  1.1300  4.2773
  941MOL0     H27029   0.970   4.376   1.583 -1.4437 -0.5020 -1.7542
  941MOL0     H27030   0.888   4.251   1.684  2.4304 -0.4159  0.9398
  941MOL0     H27031   0.579   4.520   1.546 -0.2774 -1.5500 -3.1922
  941MOL0     H27032   1.243   4.282   2.035  0.7481 -1.8212 -0.2110
  941MOL0     H27033   1.411   4.091   2.050  0.1079  0.2664  1.9606
  941MOL0     H27034   1.417   4.011   2.198  0.4393 -2.3345 -1.2490
  941MOL0     H27035   1.296   3.956   2.085  0.6206 -1.9125  2.2316
  942MOL0     O27036   9.610   2.298   6.180  0.7319 -0.8150 -0.4819
  942MOL0     C27037   9.599   2.317   6.304 -0.6832  1.1177 -0.5528
  942MOL0     O27038   9.696   2.315   6.392  0.0492  0.5091 -0.5285
  942MOL0     C27039   9.828   2.338   6.333  1.4426 -0.7028  1.1516
  942MOL0     C27040   9.853   2.454   6.259  0.2096  0.2533 -0.9534
  942MOL0     C27041   9.985   2.486   6.210  0.9380 -1.1099  0.0744
  942MOL0     C27042  10.095   2.393   6.230 -0.1540 -0.6191  0.1026
  942MOL0     O27043  10.219   2.397   6.164 -0.0587  0.2248 -0.3108
  942MOL0     C27044  10.287   2.523   6.187 -1.1032 -0.1166  0.5216
  942MOL0     C27045  10.417   2.524   6.107 -0.7544 -0.3198 -0.7492
  942MOL0     C27046  10.498   2.659   6.074 -0.5044  0.4138 -0.2117
  942MOL0     C27047  10.605   2.635   5.966  0.9038  0.0281 -0.1903
  942MOL0     C27048  10.670   2.768   5.913 -0.3841  0.3511  1.0657
  942MOL0     C27049  10.708   2.860   6.019  0.0089 -0.2454  0.3702
  942MOL0     C27050  10.819   2.815   6.114 -0.7474  0.3242 -0.7217
  942MOL0     C27051  10.772   2.813   6.262 -0.7059 -0.6213  0.0983
  942MOL0     N27052  10.886   2.817   6.350 -0.0207  0.8860 -0.5950
  942MOL0     C27053  10.985   2.916   6.346  1.0112 -0.5572 -0.7328
  942MOL0     C27054  11.083   2.872   6.433  0.2071  0.3584  1.1391
  942MOL0     C27055  11.202   2.950   6.466 -0.2307  0.1991 -0.4567
  942MOL0     C27056  11.330   2.895   6.396  0.5571 -0.7691  0.2363
  942MOL0     C27057  11.336   2.894   6.243  0.7951  0.1847 -0.3382
  942MOL0     C27058  11.470   2.842   6.201 -0.2066 -0.1055  0.0042
  942MOL0     O27059  11.495   2.872   6.057  0.3107 -0.0129  0.3692
  942MOL0     C27060  11.622   2.828   6.020  0.4530 -0.2238 -0.6032
  942MOL0     C27061  11.656   2.693   6.022 -0.1127  0.4917  0.3595
  942MOL0     C27062  11.782   2.633   5.990 -0.2337 -0.3202  0.8651
  942MOL0     C27063  11.883   2.735   5.943  0.3243 -0.1929  0.6837
  942MOL0     C27064  12.013   2.690   5.875  0.2310  0.8228 -0.4670
  942MOL0     O27065  12.076   2.783   5.800  0.1257 -0.0842 -0.4028
  942MOL0     C27066  12.191   2.760   5.723  1.5263 -1.3204  0.7068
  942MOL0     C27067  12.276   2.871   5.703  0.3476  0.0505  0.7837
  942MOL0     C27068  12.385   2.858   5.613 -0.2201  0.1303  0.0574
  942MOL0     C27069  12.410   2.746   5.536  0.2080 -0.3760  0.3039
  942MOL0     O27070  12.505   2.757   5.442  0.4736 -0.0253  0.1321
  942MOL0     C27071  12.460   2.716   5.318  0.8618 -0.7060  0.7956
  942MOL0     C27072  12.549   2.753   5.199  0.4628 -0.6461 -0.2189
  942MOL0     C27073  12.539   2.907   5.160 -0.5498  0.6078  0.2102
  942MOL0     C27074  12.639   2.947   5.052 -0.2186  0.1702  0.0628
  942MOL0     C27075  12.653   3.097   5.055 -0.0467  0.2100 -0.3342
  942MOL0     C27076  12.722   3.139   4.916 -0.4229 -0.2037  0.4410
  942MOL0     C27077  12.616   3.136   4.803 -0.0057  0.1639  0.5433
  942MOL0     C27078  12.653   3.016   4.697  0.4875  0.4392  0.2767
  942MOL0    Cl27079  12.528   2.968   4.577  0.0186  0.2085  0.2309
  942MOL0     C27080  12.328   2.635   5.570 -0.3487  0.5964 -0.4343
  942MOL0     C27081  12.213   2.643   5.649 -0.4426 -0.0688  0.9702
  942MOL0     O27082  12.042   2.573   5.895 -0.1274  0.5728 -0.3705
  942MOL0     C27083  11.852   2.871   5.947  0.1312 -0.4717  0.1543
  942MOL0     C27084  11.723   2.915   5.980  0.1693 -0.4569 -0.4530
  942MOL0     N27085  11.039   2.758   6.506  0.1088  0.1379  0.3124
  942MOL0     N27086  10.917   2.725   6.452 -0.1861  0.0277  0.8545
  942MOL0     C27087  10.059   2.275   6.300  0.0701 -0.0763  0.5176
  942MOL0     C27088   9.934   2.253   6.354  1.0112 -0.7373  0.3194
  942MOL0     C27089   9.471   2.337   6.374 -0.3581 -0.0244 -0.1730
  942MOL0     C27090   9.457   2.451   6.445 -0.0562  0.1908  0.5100
  942MOL0     C27091   9.338   2.498   6.496  0.5643  0.8697  0.1306
  942MOL0     C27092   9.224   2.411   6.494  0.2260  0.0420  0.1669
  942MOL0     O27093   9.112   2.446   6.555 -0.0673  0.4185 -0.3602
  942MOL0     C27094   9.115   2.444   6.703  0.3070  0.0591  0.5573
  942MOL0     C27095   9.145   2.578   6.762 -0.1490  0.7650  0.3258
  942MOL0     C27096   9.056   2.701   6.727  0.6433 -0.3053  0.4289
  942MOL0     C27097   9.085   2.821   6.803  0.5070 -0.5463 -0.0659
  942MOL0     C27098   9.058   2.825   6.945  0.1201  0.6578 -0.6404
  942MOL0     C27099   9.051   2.842   7.071  0.0829  0.1445  0.4974
  942MOL0     C27100   9.241   2.283   6.441  0.3362  0.2904 -0.3377
  942MOL0     C27101   9.362   2.243   6.378 -0.2157 -0.8395 -0.1206
  942MOL0     C27102   9.360   2.107   6.315 -0.2803 -0.0247 -0.0170
  942MOL0     H27103   9.774   2.527   6.249 -0.4108 -0.5159 -1.9134
  942MOL0     H27104  10.003   2.578   6.155  2.5136  0.0697  2.3856
  942MOL0     H27105  10.230   2.609   6.152 -1.6741 -2.2725 -4.8250
  942MOL0     H27106  10.305   2.529   6.295  0.9898 -2.4040  0.4118
  942MOL0     H27107  10.388   2.480   6.011 -3.2564 -2.1641  0.7432
  942MOL0     H27108  10.488   2.458   6.158 -1.3585  0.2337  0.8706
  942MOL0     H27109  10.534   2.695   6.171 -0.3438 -1.9144  0.6732
  942MOL0     H27110  10.427   2.725   6.024 -0.2048  0.6047 -0.3852
  942MOL0     H27111  10.680   2.568   6.009  0.0661 -0.1861  1.0220
  942MOL0     H27112  10.565   2.583   5.878  3.2351  0.0954 -1.3487
  942MOL0     H27113  10.760   2.733   5.860  0.1159  2.6156  0.3204
  942MOL0     H27114  10.604   2.818   5.842  2.4010 -0.7078 -2.5876
  942MOL0     H27115  10.747   2.956   5.984  2.7584 -1.7443 -0.9492
  942MOL0     H27116  10.610   2.886   6.060 -1.5330 -1.4660 -2.2617
  942MOL0     H27117  10.913   2.868   6.098  0.6468 -1.4270  1.0547
  942MOL0     H27118  10.852   2.711   6.104  3.6145  1.1596  2.1665
  942MOL0     H27119  10.726   2.911   6.275 -1.4438 -0.7935 -1.0725
  942MOL0     H27120  10.709   2.726   6.286  1.4435 -1.9700  1.2710
  942MOL0     H27121  10.998   3.011   6.295  2.4672 -0.9810 -1.2086
  942MOL0     H27122  11.195   3.056   6.441 -0.4329 -0.3565 -3.1534
  942MOL0     H27123  11.218   2.943   6.574  1.9995 -0.6248 -0.8041
  942MOL0     H27124  11.419   2.954   6.423 -0.7806  0.4624  2.2095
  942MOL0     H27125  11.346   2.789   6.417  2.1735 -0.7305 -0.5930
  942MOL0     H27126  11.319   2.995   6.204 -3.9327  0.9077  2.7676
  942MOL0     H27127  11.253   2.828   6.213 -2.4623  4.3990 -1.6010
  942MOL0     H27128  11.482   2.735   6.223 -1.8973 -0.5861 -1.2500
  942MOL0     H27129  11.549   2.888   6.262 -0.1369 -0.4271  0.1588
  942MOL0     H27130  11.579   2.627   6.061  3.0070 -3.5824  0.1872
  942MOL0     H27131  11.824   2.533   5.996  2.2041  0.7158  3.4412
  942MOL0     H27132  12.257   2.965   5.753 -2.2593  1.1537 -1.9579
  942MOL0     H27133  12.452   2.943   5.609 -0.9748  0.6750 -1.2163
  942MOL0     H27134  12.441   2.609   5.304  2.1344 -0.5319 -5.5851
  942MOL0     H27135  12.369   2.771   5.291 -1.1285 -2.6160  3.1862
  942MOL0     H27136  12.647   2.740   5.246 -0.0853  0.3848  1.2976
  942MOL0     H27137  12.536   2.685   5.115  0.4600 -0.0693 -0.6865
  942MOL0     H27138  12.442   2.946   5.126 -0.5353 -1.0075 -1.9485
  942MOL0     H27139  12.569   2.959   5.251  1.4623  0.4772 -0.3400
  942MOL0     H27140  12.595   2.914   4.957  3.9732  0.7388 -2.3226
  942MOL0     H27141  12.741   2.909   5.058 -0.1151  0.6005  1.1450
  942MOL0     H27142  12.727   3.125   5.131 -1.7951  0.9141  1.1730
  942MOL0     H27143  12.564   3.156   5.077 -0.4566  0.0727 -1.5583
  942MOL0     H27144  12.769   3.237   4.930 -1.6459  0.1368  2.5578
  942MOL0     H27145  12.805   3.069   4.902 -1.8160 -1.7339 -0.5109
  942MOL0     H27146  12.606   3.233   4.753 -2.4605  0.8590  2.2075
  942MOL0     H27147  12.523   3.114   4.856 -1.3310 -2.5492 -2.5784
  942MOL0     H27148  12.739   3.043   4.635  1.3639 -0.8365  0.8954
  942MOL0     H27149  12.679   2.916   4.732  0.8528 -1.3258 -4.2835
  942MOL0     H27150  12.346   2.538   5.523  2.6059 -0.5320  2.6419
  942MOL0     H27151  12.142   2.563   5.664 -0.4705  0.0848  1.7218
  942MOL0     H27152  11.931   2.938   5.913  1.2515 -1.0854  1.4080
  942MOL0     H27153  11.709   3.023   5.983  0.2966 -0.4423 -0.3654
  942MOL0     H27154  10.132   2.197   6.321  0.4102  0.3806  1.0592
  942MOL0     H27155   9.917   2.165   6.415  0.8664 -3.5680 -3.4532
  942MOL0     H27156   9.539   2.522   6.440 -2.5427  3.2708 -3.7289
  942MOL0     H27157   9.329   2.597   6.540  0.5440  0.9063  0.0448
  942MOL0     H27158   9.187   2.366   6.729 -0.8484 -1.5826 -0.9548
  942MOL0     H27159   9.015   2.407   6.728 -1.3413  1.8277 -2.7566
  942MOL0     H27160   9.241   2.607   6.718 -0.8121  0.6752 -1.2312
  942MOL0     H27161   9.160   2.558   6.869  1.3477 -0.8796 -0.1323
  942MOL0     H27162   8.955   2.672   6.757 -0.3052  1.0375 -1.2703
  942MOL0     H27163   9.049   2.721   6.619 -1.6674 -0.9504  0.4001
  942MOL0     H27164   9.189   2.852   6.785 -0.1323  0.6505 -2.0193
  942MOL0     H27165   9.023   2.899   6.760 -0.1040 -1.9649 -1.8999
  942MOL0     H27166   9.058   2.857   7.177  1.5621  1.9143  0.1835
  942MOL0     H27167   9.167   2.206   6.463  0.0784 -0.3977 -3.1740
  942MOL0     H27168   9.256   2.099   6.283 -0.2803  2.2848 -0.7739
  942MOL0     H27169   9.441   2.090   6.243  1.2799  2.5504  0.9932
  942MOL0     H27170   9.383   2.032   6.391  0.0297 -3.0600 -2.8550
  943MOL0     O27171   3.090   8.061   5.815 -0.4760 -0.2078  0.6202
  943MOL0     C27172   3.157   7.959   5.787  0.2871 -0.3280 -0.0022
  943MOL0     O27173   3.200   7.864   5.876 -0.1459  0.0145 -0.1866
  943MOL0     C27174   3.185   7.875   6.012  0.1708 -0.5224 -0.5994
  943MOL0     C27175   3.147   7.981   6.089  0.4546  0.0834 -0.5052
  943MOL0     C27176   3.142   7.966   6.229 -0.2785  0.1685  0.2648
  943MOL0     C27177   3.171   7.847   6.295  0.1214 -0.1894  0.0185
  943MOL0     O27178   3.168   7.832   6.434 -0.1083 -0.3288  0.1645
  943MOL0     C27179   3.056   7.886   6.500  1.0757  0.7296 -0.4052
  943MOL0     C27180   2.930   7.806   6.488  0.8554 -0.2504 -0.3570
  943MOL0     C27181   2.828   7.864   6.584 -0.0952  0.0886 -0.1561
  943MOL0     C27182   2.699   7.790   6.612 -0.2495  1.2538 -0.0877
  943MOL0     C27183   2.597   7.854   6.726  0.2862  0.2902 -0.1453
  943MOL0     C27184   2.666   7.909   6.864 -0.1024  0.1354 -0.5840
  943MOL0     C27185   2.568   7.990   6.948  0.1678 -0.1648 -0.0470
  943MOL0     C27186   2.625   7.971   7.091 -0.5841 -1.1289 -0.1535
  943MOL0     N27187   2.748   8.040   7.111 -0.0801  0.4015  0.6265
  943MOL0     C27188   2.877   7.998   7.086  0.2228 -0.3216 -0.0013
  943MOL0     C27189   2.956   8.074   7.165 -0.8970 -0.1399 -0.1807
  943MOL0     C27190   3.099   8.050   7.154  0.9597  0.0999  0.7367
  943MOL0     C27191   3.158   7.996   7.289 -1.2951 -0.8134  0.3652
  943MOL0     C27192   3.200   8.124   7.382  0.0748  1.3045 -0.4657
  943MOL0     C27193   3.259   8.063   7.515 -0.4479 -1.2302 -0.7969
  943MOL0     O27194   3.161   7.983   7.581  0.3775  0.3580 -0.1743
  943MOL0     C27195   3.176   7.958   7.721  1.4463  0.6781  1.3538
  943MOL0     C27196   3.302   7.934   7.785  0.3384  0.0808  0.6792
  943MOL0     C27197   3.307   7.931   7.924  0.3076  0.4779  0.0984
  943MOL0     C27198   3.193   7.934   7.998 -0.2427  0.0563  0.1530
  943MOL0     C27199   3.197   7.950   8.154  0.0891  1.1337  0.1033
  943MOL0     O27200   3.089   8.004   8.199 -0.1099 -0.2761 -0.5492
  943MOL0     C27201   3.075   8.028   8.332  0.0307 -0.1813 -0.2696
  943MOL0     C27202   3.091   7.927   8.432 -0.2309 -0.3392  1.0072
  943MOL0     C27203   3.054   7.949   8.559 -0.9837  0.2219  0.2545
  943MOL0     C27204   3.012   8.075   8.609 -0.6684  0.9605  0.1747
  943MOL0     O27205   3.003   8.081   8.744  0.3029  0.4066 -0.6040
  943MOL0     C27206   2.958   8.200   8.808 -0.1056  0.4029 -0.1475
  943MOL0     C27207   2.924   8.183   8.961  0.3972 -0.2762 -0.6768
  943MOL0     C27208   3.043   8.133   9.039  0.4842 -0.4427 -0.0550
  943MOL0     C27209   3.168   8.233   9.053  0.1523  0.5606  0.1559
  943MOL0     C27210   3.155   8.345   9.159 -0.2957  0.4922 -0.6550
  943MOL0     C27211   3.098   8.297   9.287  0.7044  0.8101  0.2863
  943MOL0     C27212   3.115   8.409   9.401  0.9249 -0.0853  0.8221
  943MOL0     C27213   3.001   8.512   9.403 -0.1796  0.2788 -0.8857
  943MOL0    Cl27214   2.854   8.446   9.481 -0.0095 -0.1456  0.0900
  943MOL0     C27215   2.998   8.179   8.512 -0.2668  0.8874  0.5985
  943MOL0     C27216   3.030   8.157   8.372  0.1747 -0.4806  1.1186
  943MOL0     O27217   3.308   7.925   8.211 -0.1250  0.0394  0.8694
  943MOL0     C27218   3.068   7.933   7.932  0.2473  0.3218  0.3433
  943MOL0     C27219   3.058   7.945   7.791 -0.6382  0.2702  0.6110
  943MOL0     N27220   2.877   8.170   7.228 -0.6265 -0.0785  0.7091
  943MOL0     N27221   2.756   8.149   7.198 -0.1236 -0.0920  0.1824
  943MOL0     C27222   3.196   7.736   6.210  1.0990 -0.6631 -0.4736
  943MOL0     C27223   3.212   7.752   6.075  0.5294 -0.1780  0.8042
  943MOL0     C27224   3.198   7.944   5.634  0.7716  0.6206  0.6057
  943MOL0     C27225   3.163   8.046   5.549  0.0327  0.3431 -0.2750
  943MOL0     C27226   3.178   8.030   5.417  0.5962  0.0766 -0.2817
  943MOL0     C27227   3.253   7.929   5.358  0.5626 -0.4720 -0.3815
  943MOL0     O27228   3.276   7.943   5.225  0.2362 -0.5197  0.4707
  943MOL0     C27229   3.308   7.831   5.147 -0.3171  0.3170  0.4007
  943MOL0     C27230   3.194   7.734   5.152  0.0368  0.4943  0.0193
  943MOL0     C27231   3.188   7.616   5.045 -0.6532 -0.7757 -0.4368
  943MOL0     C27232   3.320   7.548   5.023  0.0789  0.1957 -0.1405
  943MOL0     C27233   3.342   7.439   5.122  0.3718 -0.3540 -0.2003
  943MOL0     C27234   3.366   7.345   5.195  0.1116  0.2106  0.6808
  943MOL0     C27235   3.302   7.828   5.439  0.4626  0.4712  0.7553
  943MOL0     C27236   3.268   7.833   5.575  1.3265  0.5509 -0.6923
  943MOL0     C27237   3.276   7.699   5.653 -0.3301  0.2446 -1.0098
  943MOL0     H27238   3.139   8.077   6.039  1.7592 -0.2301 -1.3597
  943MOL0     H27239   3.135   8.053   6.293 -0.6261 -0.1459  0.6595
  943MOL0     H27240   3.081   7.892   6.606 -1.6628 -1.4879  0.5053
  943MOL0     H27241   3.033   7.989   6.471 -3.2808  0.4259  1.1926
  943MOL0     H27242   2.952   7.704   6.523 -1.8617 -1.0230 -0.6936
  943MOL0     H27243   2.903   7.799   6.382  2.7056  0.3454 -0.9013
  943MOL0     H27244   2.803   7.965   6.552 -2.0419 -0.1553  0.4713
  943MOL0     H27245   2.873   7.869   6.684 -1.3843  0.3357  0.4267
  943MOL0     H27246   2.636   7.762   6.527 -0.1343 -1.9328  0.7289
  943MOL0     H27247   2.728   7.691   6.649 -2.0742  0.4050 -0.8024
  943MOL0     H27248   2.546   7.938   6.678 -0.0440  0.4551  0.4889
  943MOL0     H27249   2.523   7.777   6.746  0.1387  0.3565 -0.4198
  943MOL0     H27250   2.695   7.819   6.920  0.5013  1.1354  0.7647
  943MOL0     H27251   2.752   7.972   6.839 -2.1648  3.2406 -0.3989
  943MOL0     H27252   2.476   7.930   6.943  0.0177  0.0479  0.1607
  943MOL0     H27253   2.552   8.091   6.910  2.3547 -0.3213 -1.5785
  943MOL0     H27254   2.544   8.016   7.150  1.4369  1.5065  0.7874
  943MOL0     H27255   2.632   7.868   7.125  1.1031 -2.3402 -3.6951
  943MOL0     H27256   2.904   7.916   7.021  2.8925 -1.1902  2.0309
  943MOL0     H27257   3.114   7.964   7.088 -1.5347 -0.8632  1.3155
  943MOL0     H27258   3.138   8.146   7.119  0.4414  0.8558  2.1509
  943MOL0     H27259   3.096   7.925   7.343 -0.4008 -2.9356 -1.2487
  943MOL0     H27260   3.249   7.945   7.254  1.1140  2.7962  0.8138
  943MOL0     H27261   3.117   8.188   7.413 -0.7593  0.3543 -0.6702
  943MOL0     H27262   3.280   8.185   7.339  0.0130  2.5989  1.1483
  943MOL0     H27263   3.288   8.149   7.576 -3.2930  0.1020 -1.1495
  943MOL0     H27264   3.341   7.995   7.490 -0.1564 -1.3967  0.5309
  943MOL0     H27265   3.394   7.949   7.730 -0.1562 -1.9287 -0.8388
  943MOL0     H27266   3.397   7.937   7.984 -1.0982 -0.5106  2.4433
  943MOL0     H27267   3.140   7.836   8.396  0.4231  0.1042  0.7548
  943MOL0     H27268   3.063   7.868   8.631  0.1505  0.9337  0.9410
  943MOL0     H27269   3.029   8.281   8.790 -0.1860  0.2651 -1.1686
  943MOL0     H27270   2.868   8.239   8.760  1.6199  1.9936 -2.3532
  943MOL0     H27271   2.887   8.277   9.004 -1.9942 -0.5203 -2.0112
  943MOL0     H27272   2.852   8.102   8.973  1.0035 -1.0119 -1.8399
  943MOL0     H27273   3.002   8.093   9.132 -2.5400  0.8152 -0.7302
  943MOL0     H27274   3.081   8.045   8.987  0.1748 -1.2257  1.0009
  943MOL0     H27275   3.191   8.267   8.952  1.5629 -2.2654 -0.5695
  943MOL0     H27276   3.245   8.164   9.088  1.9068  0.0355 -4.1173
  943MOL0     H27277   3.091   8.428   9.125 -1.5937  0.4921  1.6000
  943MOL0     H27278   3.254   8.390   9.172  0.1357 -0.5653 -0.1699
  943MOL0     H27279   2.993   8.267   9.278  0.9382  0.2369 -0.6419
  943MOL0     H27280   3.134   8.199   9.317 -1.4199 -0.6537 -1.5980
  943MOL0     H27281   3.215   8.453   9.399  2.0176 -2.4295  0.0926
  943MOL0     H27282   3.109   8.354   9.496  0.6244 -2.3133 -0.4214
  943MOL0     H27283   3.038   8.608   9.441 -0.7239  1.0633 -2.2823
  943MOL0     H27284   2.965   8.534   9.302 -0.6735  1.4500 -0.4781
  943MOL0     H27285   2.994   8.285   8.533  1.5116  1.4344 -1.3750
  943MOL0     H27286   3.021   8.244   8.308  0.5408  1.6895  3.8588
  943MOL0     H27287   2.970   7.934   7.980 -0.3884  2.3007 -0.8832
  943MOL0     H27288   2.968   7.939   7.732  1.4842  1.7868 -3.0862
  943MOL0     H27289   3.205   7.639   6.257  0.1873 -0.2248  0.6448
  943MOL0     H27290   3.243   7.670   6.012 -0.9565  0.2114 -0.5042
  943MOL0     H27291   3.097   8.121   5.591  0.3715 -0.4820  1.8657
  943MOL0     H27292   3.129   8.096   5.346 -0.7064 -1.1919 -0.6282
  943MOL0     H27293   3.402   7.785   5.180 -0.5654 -1.2731 -0.9619
  943MOL0     H27294   3.326   7.878   5.049  0.8064 -0.1448  0.3685
  943MOL0     H27295   3.102   7.792   5.142 -0.8888 -0.3817  2.6561
  943MOL0     H27296   3.180   7.688   5.250  1.4138  0.4605  0.2112
  943MOL0     H27297   3.142   7.659   4.955 -4.3198 -1.7850  0.8170
  943MOL0     H27298   3.109   7.547   5.075 -0.4302 -1.7874 -2.0453
  943MOL0     H27299   3.328   7.501   4.924 -0.8024  4.0854 -2.2754
  943MOL0     H27300   3.401   7.623   5.022 -0.6315  1.0554 -3.1890
  943MOL0     H27301   3.401   7.266   5.258  1.0543 -0.1955 -0.3185
  943MOL0     H27302   3.363   7.751   5.393 -0.2012  0.8734 -0.8598
  943MOL0     H27303   3.339   7.630   5.596 -1.8118 -0.6361 -1.6442
  943MOL0     H27304   3.326   7.725   5.747 -3.5558  0.1135  0.8945
  943MOL0     H27305   3.179   7.658   5.682  0.6665 -1.5868 -0.0747
  944MOL0     O27306   0.054   1.688   1.917 -0.3841 -1.3698  0.2677
  944MOL0     C27307   0.078   1.600   1.839 -0.0330 -0.4628 -0.3457
  944MOL0     O27308   0.055   1.610   1.701 -0.6085  0.0479  0.1431
  944MOL0     C27309  -0.002   1.725   1.642 -0.8633 -0.5237 -0.0250
  944MOL0     C27310  -0.126   1.777   1.692  0.9808  0.0574 -0.3091
  944MOL0     C27311  -0.169   1.902   1.629 -0.4847 -1.1235 -0.4428
  944MOL0     C27312  -0.114   1.947   1.510 -0.1999 -0.4509  0.1775
  944MOL0     O27313  -0.163   2.071   1.457  0.1378  0.6058  0.1432
  944MOL0     C27314  -0.095   2.156   1.361 -0.0405  0.2560  0.5507
  944MOL0     C27315  -0.198   2.227   1.270  0.7849 -0.0247 -0.4155
  944MOL0     C27316  -0.189   2.379   1.285 -0.8334 -0.9033 -0.4478
  944MOL0     C27317  -0.287   2.447   1.191 -0.1387 -0.1089  0.2241
  944MOL0     C27318  -0.277   2.590   1.218  0.2410 -0.5915  0.0233
  944MOL0     C27319  -0.338   2.675   1.106  0.5416 -0.5308  0.2234
  944MOL0     C27320  -0.385   2.611   0.975  0.2029 -0.2912  1.1688
  944MOL0     C27321  -0.263   2.605   0.879 -0.2579 -0.0258  0.1904
  944MOL0     N27322  -0.255   2.722   0.796 -0.2637 -0.2987 -0.0637
  944MOL0     C27323  -0.231   2.857   0.828  1.0345 -1.3609 -0.9429
  944MOL0     C27324  -0.253   2.918   0.717  0.5375 -0.0833 -0.6082
  944MOL0     C27325  -0.225   3.067   0.700  0.4274  0.4762 -0.3367
  944MOL0     C27326  -0.096   3.100   0.607  0.9016  0.2276 -0.2017
  944MOL0     C27327   0.025   3.020   0.649  0.0729  0.5503 -0.0487
  944MOL0     C27328   0.150   3.047   0.569  0.3413  0.7776  0.1131
  944MOL0     O27329   0.188   3.189   0.563 -0.3836  0.4565 -0.5428
  944MOL0     C27330   0.210   3.239   0.689  0.5135 -0.6428 -0.1043
  944MOL0     C27331   0.151   3.361   0.724  0.2236  0.8127  0.1828
  944MOL0     C27332   0.198   3.439   0.833 -0.6710  0.1861 -0.6515
  944MOL0     C27333   0.300   3.393   0.917  0.3010 -1.2755 -0.2768
  944MOL0     C27334   0.349   3.468   1.044  0.1110 -0.5765 -0.0716
  944MOL0     O27335   0.453   3.414   1.112 -0.2287 -0.3147 -0.1099
  944MOL0     C27336   0.471   3.440   1.251 -0.3304  0.8914  0.1104
  944MOL0     C27337   0.365   3.495   1.333  0.7999 -0.5524 -0.4238
  944MOL0     C27338   0.382   3.514   1.469 -0.1412 -1.1962  0.3663
  944MOL0     C27339   0.501   3.480   1.538 -0.0602 -0.3385 -0.6724
  944MOL0     O27340   0.510   3.522   1.663 -0.5101  0.2009 -0.2748
  944MOL0     C27341   0.636   3.523   1.730 -0.0920 -0.9772 -0.0815
  944MOL0     C27342   0.632   3.567   1.881 -0.5948  0.6148 -0.4380
  944MOL0     C27343   0.566   3.456   1.970  0.4960  0.2605 -0.0522
  944MOL0     C27344   0.549   3.516   2.114 -0.4907 -0.4767 -0.2268
  944MOL0     C27345   0.492   3.416   2.221  0.0800  0.7382  0.8900
  944MOL0     C27346   0.342   3.388   2.184 -0.5217  0.3570  0.2646
  944MOL0     C27347   0.277   3.305   2.283  0.0848 -0.0098 -0.4361
  944MOL0     C27348   0.123   3.291   2.250 -0.7485  0.3902  0.1610
  944MOL0    Cl27349   0.035   3.249   2.397  0.3575  0.7138 -0.3470
  944MOL0     C27350   0.611   3.427   1.460 -0.1248 -0.1467  0.8480
  944MOL0     C27351   0.592   3.413   1.321 -0.0870  1.1441 -0.0099
  944MOL0     O27352   0.316   3.587   1.055  0.4513  0.5218  0.2938
  944MOL0     C27353   0.352   3.268   0.893 -0.1694 -0.4921  0.4251
  944MOL0     C27354   0.317   3.195   0.775 -0.5028 -0.0723  1.1878
  944MOL0     N27355  -0.278   2.832   0.610 -0.4300  0.2795  0.6024
  944MOL0     N27356  -0.281   2.713   0.665 -0.5379 -0.7014 -0.2913
  944MOL0     C27357   0.000   1.893   1.463 -0.3458  0.1479  1.2087
  944MOL0     C27358   0.057   1.784   1.531 -0.3706  0.2219  0.2980
  944MOL0     C27359   0.129   1.471   1.885  0.1563  0.4413 -0.4187
  944MOL0     C27360   0.205   1.404   1.795  0.2899  0.3303 -0.0089
  944MOL0     C27361   0.246   1.271   1.812  0.1220 -0.0223  0.0681
  944MOL0     C27362   0.224   1.210   1.938 -0.0347 -0.0584 -0.2484
  944MOL0     O27363   0.265   1.082   1.964 -0.6148  1.0835 -0.2507
  944MOL0     C27364   0.270   1.042   2.100 -0.6379  0.4493 -0.0741
  944MOL0     C27365   0.370   0.929   2.098 -0.4879  0.7497  0.0880
  944MOL0     C27366   0.332   0.805   2.026  0.5756 -0.4006  0.0186
  944MOL0     C27367   0.384   0.803   1.881  0.2891  0.6263  0.0049
  944MOL0     C27368   0.415   0.661   1.845 -0.0991  0.2028  0.6731
  944MOL0     C27369   0.466   0.554   1.804 -0.1747 -0.3024 -0.0988
  944MOL0     C27370   0.151   1.283   2.030  0.0052  0.2801  0.0874
  944MOL0     C27371   0.096   1.410   2.005 -0.5002  0.1196  0.4628
  944MOL0     C27372   0.005   1.477   2.096  0.1485 -0.0676 -0.1211
  944MOL0     H27373  -0.177   1.737   1.779 -0.5324  0.3659 -1.0240
  944MOL0     H27374  -0.258   1.954   1.664 -2.1704 -3.2149 -1.4262
  944MOL0     H27375  -0.033   2.235   1.405  1.2705 -0.0021 -0.7397
  944MOL0     H27376  -0.021   2.095   1.308 -1.0705 -0.5815  0.0430
  944MOL0     H27377  -0.297   2.189   1.297  1.6614 -1.0330  1.6503
  944MOL0     H27378  -0.163   2.202   1.170  0.6178  1.8147 -0.9787
  944MOL0     H27379  -0.089   2.419   1.267 -0.3313 -2.5176 -1.5057
  944MOL0     H27380  -0.218   2.404   1.387  0.1511 -1.3829 -0.0456
  944MOL0     H27381  -0.263   2.409   1.091  0.9607 -1.8251  1.0907
  944MOL0     H27382  -0.392   2.424   1.215 -0.0226  1.1670  2.1056
  944MOL0     H27383  -0.315   2.612   1.318  2.0538  3.4050  0.0482
  944MOL0     H27384  -0.172   2.621   1.217 -0.5095  2.3025 -0.7916
  944MOL0     H27385  -0.430   2.717   1.149 -1.3385 -2.2128 -1.9008
  944MOL0     H27386  -0.269   2.758   1.086  0.6968 -1.1557 -2.1557
  944MOL0     H27387  -0.464   2.670   0.929 -0.7671  0.1480  3.2834
  944MOL0     H27388  -0.422   2.509   0.987 -0.7027  0.0064  0.9816
  944MOL0     H27389  -0.170   2.608   0.938 -1.1061  1.7927  1.5394
  944MOL0     H27390  -0.261   2.523   0.807  1.3515  1.5331 -1.6431
  944MOL0     H27391  -0.187   2.912   0.910  0.9815  0.6999 -2.2228
  944MOL0     H27392  -0.316   3.110   0.657 -0.8959  0.1083  1.9025
  944MOL0     H27393  -0.208   3.101   0.802  1.5359  0.5431 -0.5310
  944MOL0     H27394  -0.131   3.084   0.505 -1.5054  2.3775  0.1860
  944MOL0     H27395  -0.069   3.204   0.626 -1.7412  0.8068  0.8665
  944MOL0     H27396  -0.002   2.915   0.640 -0.5337 -0.0136  5.3994
  944MOL0     H27397   0.054   3.039   0.753  3.9831  1.0203 -1.0737
  944MOL0     H27398   0.134   3.013   0.466 -0.5309 -2.3056  1.1434
  944MOL0     H27399   0.232   2.991   0.615 -0.8979 -1.4357 -0.2209
  944MOL0     H27400   0.080   3.414   0.661  1.5405 -0.5327 -2.6577
  944MOL0     H27401   0.171   3.543   0.849 -0.3618 -0.1375  2.4792
  944MOL0     H27402   0.269   3.521   1.290  1.1623  0.7314 -0.4911
  944MOL0     H27403   0.306   3.571   1.522  0.5092  0.3663 -0.3306
  944MOL0     H27404   0.688   3.427   1.736  2.0739  0.1120 -0.3304
  944MOL0     H27405   0.702   3.597   1.682 -2.8823  1.5355 -0.3536
  944MOL0     H27406   0.734   3.593   1.908 -0.9374  3.2616 -1.4042
  944MOL0     H27407   0.572   3.658   1.886  1.2288  2.0355 -2.5617
  944MOL0     H27408   0.471   3.432   1.921  0.8350  0.3784 -0.7697
  944MOL0     H27409   0.619   3.361   1.964 -3.0974 -2.2566  3.0461
  944MOL0     H27410   0.492   3.610   2.106 -0.0433  0.0112  1.7856
  944MOL0     H27411   0.651   3.534   2.148 -1.0066 -0.7715  1.6039
  944MOL0     H27412   0.489   3.450   2.325  1.6213 -2.0010  1.9423
  944MOL0     H27413   0.533   3.314   2.216 -2.6311 -0.4060 -2.5867
  944MOL0     H27414   0.287   3.483   2.188  2.7546  2.4416  0.0714
  944MOL0     H27415   0.334   3.342   2.085  0.0321 -2.1303  1.2952
  944MOL0     H27416   0.292   3.356   2.379  2.1641  0.3409 -0.9054
  944MOL0     H27417   0.330   3.209   2.279 -2.8327 -2.0854  3.2817
  944MOL0     H27418   0.077   3.378   2.203  3.3843  2.0339 -1.2761
  944MOL0     H27419   0.123   3.218   2.168  2.5733 -0.7238  0.9770
  944MOL0     H27420   0.703   3.392   1.505 -0.1467 -2.1690 -0.5719
  944MOL0     H27421   0.674   3.368   1.265 -0.3046  0.9357 -0.1630
  944MOL0     H27422   0.432   3.235   0.959  1.7495  0.8285 -1.1155
  944MOL0     H27423   0.368   3.101   0.757 -0.4898 -0.5238  3.3242
  944MOL0     H27424   0.052   1.946   1.384 -1.8255  1.3072  0.9739
  944MOL0     H27425   0.146   1.732   1.496 -0.8037 -1.3751  1.4523
  944MOL0     H27426   0.232   1.452   1.702  0.7903  0.3643  0.1507
  944MOL0     H27427   0.314   1.229   1.739  0.3284 -0.2562  0.3908
  944MOL0     H27428   0.171   1.011   2.133  0.0372 -0.6152  1.0615
  944MOL0     H27429   0.299   1.125   2.165  0.1820 -0.7798  1.1900
  944MOL0     H27430   0.373   0.895   2.203 -0.8682 -0.1008 -0.1659
  944MOL0     H27431   0.471   0.959   2.069  0.0975  0.2442  1.4890
  944MOL0     H27432   0.225   0.784   2.017  0.4404 -0.0669  0.7629
  944MOL0     H27433   0.375   0.722   2.083  2.4031  0.5534  0.1423
  944MOL0     H27434   0.315   0.849   1.809  0.3487 -1.2581 -1.3313
  944MOL0     H27435   0.481   0.852   1.871  1.8594 -1.8492  2.1908
  944MOL0     H27436   0.524   0.470   1.773 -1.4620 -1.6488  1.0077
  944MOL0     H27437   0.118   1.235   2.122  3.8317  0.1105  1.5579
  944MOL0     H27438  -0.035   1.405   2.169 -2.6699 -0.1951 -1.6571
  944MOL0     H27439   0.065   1.558   2.139  0.0452 -0.4600  0.8054
  944MOL0     H27440  -0.085   1.508   2.043 -0.4224 -1.4052  0.0263
  945MOL0     O27441   3.231   5.146   7.406 -0.0698 -0.0561 -0.4861
  945MOL0     C27442   3.251   5.255   7.461  0.1981  1.0789 -0.4727
  945MOL0     O27443   3.308   5.370   7.404 -0.0067  0.5405  1.1280
  945MOL0     C27444   3.390   5.369   7.292 -0.9001  0.5194  0.4077
  945MOL0     C27445   3.376   5.474   7.195  0.3513 -0.0320 -0.0925
  945MOL0     C27446   3.455   5.471   7.084 -0.5988  0.1383 -0.6213
  945MOL0     C27447   3.535   5.360   7.049  0.0494 -1.0402 -1.0144
  945MOL0     O27448   3.601   5.365   6.928 -0.3013  0.2294 -0.5038
  945MOL0     C27449   3.747   5.356   6.941  0.5503  0.3416 -0.5732
  945MOL0     C27450   3.811   5.363   6.808  0.5071 -0.4033 -0.9301
  945MOL0     C27451   3.778   5.481   6.715  0.1627  0.3934  0.2614
  945MOL0     C27452   3.754   5.610   6.791  0.7974  0.0876 -0.2300
  945MOL0     C27453   3.758   5.742   6.710  1.4044  0.2384 -0.2835
  945MOL0     C27454   3.729   5.867   6.784  0.3609 -0.2297 -0.6296
  945MOL0     C27455   3.622   5.864   6.900  0.8293 -0.1043 -0.0818
  945MOL0     C27456   3.470   5.846   6.849  0.3777  0.0865 -1.1021
  945MOL0     N27457   3.434   5.961   6.775  0.3569  1.2557  1.2324
  945MOL0     C27458   3.432   5.974   6.631 -0.5927  0.5829 -0.3854
  945MOL0     C27459   3.368   6.090   6.604  0.4955  0.3104 -0.3924
  945MOL0     C27460   3.307   6.144   6.471 -0.0652 -0.6100  1.0818
  945MOL0     C27461   3.312   6.034   6.351 -0.0756 -0.4634 -0.4220
  945MOL0     C27462   3.212   5.920   6.377  0.0573 -0.1682 -0.6475
  945MOL0     C27463   3.264   5.799   6.295  0.3092 -0.3940  0.3263
  945MOL0     O27464   3.393   5.756   6.346  0.7432 -0.4519  0.0661
  945MOL0     C27465   3.439   5.641   6.295  0.8214  0.9264 -0.0933
  945MOL0     C27466   3.570   5.632   6.341 -0.1519 -0.6993  0.6971
  945MOL0     C27467   3.655   5.527   6.291  1.4446 -0.4694  1.1244
  945MOL0     C27468   3.601   5.433   6.207 -0.0087  0.4157 -0.2017
  945MOL0     C27469   3.684   5.326   6.146 -0.0734  0.4484  0.4221
  945MOL0     O27470   3.635   5.254   6.045 -1.0063  0.0376 -0.0233
  945MOL0     C27471   3.703   5.151   6.001  0.4800  0.1782 -1.6202
  945MOL0     C27472   3.746   5.147   5.870 -0.1689  0.4565 -0.4702
  945MOL0     C27473   3.808   5.034   5.812  0.8798 -0.6824 -0.4038
  945MOL0     C27474   3.826   4.919   5.897  0.0672  0.6555  0.8022
  945MOL0     O27475   3.894   4.810   5.854 -0.5230 -1.0276 -0.3336
  945MOL0     C27476   4.002   4.765   5.938 -0.3733  0.2828  0.0213
  945MOL0     C27477   4.090   4.668   5.872 -0.6925 -0.0337 -0.2338
  945MOL0     C27478   4.040   4.528   5.849  0.7746  0.4278  0.7237
  945MOL0     C27479   3.893   4.496   5.782  0.1427  0.2400 -0.6321
  945MOL0     C27480   3.904   4.517   5.637 -0.2900  0.7813 -0.4455
  945MOL0     C27481   3.777   4.489   5.549  0.1044  0.5820  0.2198
  945MOL0     C27482   3.733   4.342   5.561  0.3109  0.2711  1.1062
  945MOL0     C27483   3.811   4.235   5.488 -0.2279 -0.3786  0.2483
  945MOL0    Cl27484   3.774   4.084   5.570  0.1823 -0.0177 -0.0825
  945MOL0     C27485   3.774   4.926   6.024 -0.7621 -0.2876 -0.1864
  945MOL0     C27486   3.714   5.037   6.083 -0.3862 -0.0255  0.3090
  945MOL0     O27487   3.795   5.308   6.196 -0.2157  0.0157  0.4042
  945MOL0     C27488   3.462   5.440   6.165 -0.5843  0.0979  0.7846
  945MOL0     C27489   3.388   5.539   6.218  0.6679 -0.9401 -0.7025
  945MOL0     N27490   3.329   6.141   6.733  0.3880  0.7119 -0.9009
  945MOL0     N27491   3.364   6.064   6.833  0.0226  0.6801  0.0623
  945MOL0     C27492   3.539   5.253   7.137  0.0244  0.2406  0.1929
  945MOL0     C27493   3.468   5.255   7.256 -0.3706  0.1651  0.7505
  945MOL0     C27494   3.207   5.251   7.606 -0.0658  0.0962  0.6067
  945MOL0     C27495   3.146   5.366   7.656 -0.1247  0.5003 -0.1902
  945MOL0     C27496   3.131   5.383   7.789  0.5415  0.4697  0.3444
  945MOL0     C27497   3.168   5.285   7.884 -0.4068  0.1116  0.2536
  945MOL0     O27498   3.148   5.305   8.018 -0.4094 -0.4917 -0.3160
  945MOL0     C27499   3.062   5.409   8.071  0.6825  0.2724 -1.0576
  945MOL0     C27500   3.135   5.520   8.153  0.6678  0.8332 -0.1668
  945MOL0     C27501   3.216   5.465   8.269 -0.0452 -0.4263  0.0265
  945MOL0     C27502   3.128   5.389   8.382  0.8325 -0.6697  0.2902
  945MOL0     C27503   3.242   5.361   8.471  0.4871  0.1250  0.0692
  945MOL0     C27504   3.322   5.337   8.562 -0.1710 -0.5678 -0.7234
  945MOL0     C27505   3.217   5.168   7.833  0.3159 -0.9989 -0.4063
  945MOL0     C27506   3.233   5.155   7.699  0.6701 -0.4936  0.6690
  945MOL0     C27507   3.309   5.023   7.659 -0.0935 -0.7755 -0.4604
  945MOL0     H27508   3.295   5.547   7.201  1.1468  1.0929 -2.0556
  945MOL0     H27509   3.450   5.546   7.005  0.3119  1.1290  0.2329
  945MOL0     H27510   3.773   5.433   7.014  1.9413 -1.3357  0.7925
  945MOL0     H27511   3.773   5.268   7.000  0.6897  1.6642  1.4373
  945MOL0     H27512   3.797   5.261   6.772  1.8853  0.1174 -3.1201
  945MOL0     H27513   3.917   5.374   6.833 -0.4615  2.4954  2.8231
  945MOL0     H27514   3.688   5.478   6.653  0.3020  5.8510 -0.6700
  945MOL0     H27515   3.848   5.482   6.631  0.6705  0.0460  0.6713
  945MOL0     H27516   3.669   5.601   6.859 -0.4771  4.1046 -1.0618
  945MOL0     H27517   3.842   5.633   6.852  1.4138  1.5772 -1.6060
  945MOL0     H27518   3.853   5.757   6.657 -0.6502  3.9168 -3.4391
  945MOL0     H27519   3.685   5.724   6.630  1.0733  1.1420 -0.1993
  945MOL0     H27520   3.811   5.925   6.825 -0.5276  2.1153 -2.0185
  945MOL0     H27521   3.688   5.942   6.717 -0.9866  0.0713  0.4769
  945MOL0     H27522   3.606   5.961   6.948 -2.3765  0.7676 -2.5210
  945MOL0     H27523   3.649   5.802   6.986  1.9928  1.9812  1.1251
  945MOL0     H27524   3.468   5.752   6.794 -0.4254  0.4646 -1.7380
  945MOL0     H27525   3.414   5.855   6.943  0.5724  2.0462 -1.1331
  945MOL0     H27526   3.463   5.901   6.556 -1.5851 -1.3242  0.9858
  945MOL0     H27527   3.207   6.182   6.496 -0.6561 -0.0327 -1.8588
  945MOL0     H27528   3.363   6.231   6.437  0.1989 -0.7030  1.2805
  945MOL0     H27529   3.293   6.081   6.254 -3.8846  0.2511  0.5260
  945MOL0     H27530   3.413   5.995   6.332 -0.6067 -2.0697 -0.1640
  945MOL0     H27531   3.114   5.955   6.344  1.4345  1.7007 -3.0051
  945MOL0     H27532   3.213   5.889   6.482 -2.0933  1.4032 -0.1011
  945MOL0     H27533   3.275   5.814   6.188 -1.3650 -0.1205  0.1634
  945MOL0     H27534   3.186   5.725   6.315  1.4160 -1.8287 -0.4985
  945MOL0     H27535   3.605   5.702   6.416 -3.3429 -1.1859  2.8257
  945MOL0     H27536   3.758   5.528   6.326  1.8415 -1.7128  0.0846
  945MOL0     H27537   3.728   5.228   5.800 -0.9377  1.8085  1.2293
  945MOL0     H27538   3.843   5.027   5.710 -0.9305  1.5931 -1.2542
  945MOL0     H27539   4.058   4.855   5.965 -0.7022  0.1621  1.1543
  945MOL0     H27540   3.962   4.706   6.021  0.8376  0.3977  0.6917
  945MOL0     H27541   4.120   4.709   5.775 -2.0422 -0.3512 -0.8033
  945MOL0     H27542   4.178   4.654   5.936 -0.6366  0.8793 -0.1054
  945MOL0     H27543   4.117   4.474   5.794 -0.3604 -1.1596  0.6124
  945MOL0     H27544   4.039   4.473   5.944  2.3909 -2.2857 -0.6989
  945MOL0     H27545   3.804   4.548   5.817  1.0184  0.2313  1.8257
  945MOL0     H27546   3.863   4.392   5.798 -0.9517  0.6756  0.2184
  945MOL0     H27547   3.984   4.447   5.610 -2.3210 -2.0302  0.4085
  945MOL0     H27548   3.939   4.617   5.610  1.5348  0.2425 -0.2542
  945MOL0     H27549   3.696   4.554   5.582  1.2687  1.3206  1.7493
  945MOL0     H27550   3.778   4.523   5.445 -2.4815  1.0799  0.3114
  945MOL0     H27551   3.630   4.330   5.528 -0.7922 -0.8612  4.5228
  945MOL0     H27552   3.731   4.306   5.664 -1.8474 -0.0301  0.9954
  945MOL0     H27553   3.777   4.225   5.384 -1.3891 -3.9787  0.8568
  945MOL0     H27554   3.916   4.264   5.497  0.1504 -1.4129 -0.5477
  945MOL0     H27555   3.798   4.841   6.088 -0.3512 -0.6989 -0.8641
  945MOL0     H27556   3.680   5.035   6.186 -1.3789 -0.2559 -0.0191
  945MOL0     H27557   3.411   5.366   6.103 -2.1377 -0.8567  3.0446
  945MOL0     H27558   3.282   5.534   6.197  0.3151  1.5803  0.1640
  945MOL0     H27559   3.588   5.161   7.107 -2.9671 -1.1532 -0.7685
  945MOL0     H27560   3.487   5.169   7.320 -0.1681 -0.7340 -0.4788
  945MOL0     H27561   3.141   5.439   7.576 -1.7438  1.6501  0.9006
  945MOL0     H27562   3.107   5.480   7.831  2.6923  0.3387  2.0661
  945MOL0     H27563   2.986   5.366   8.136 -0.1459  0.0042 -2.1805
  945MOL0     H27564   2.994   5.452   7.996 -3.3404  0.8343  2.5550
  945MOL0     H27565   3.070   5.602   8.185  3.1894  2.3777  1.3422
  945MOL0     H27566   3.201   5.570   8.081  0.5379 -1.5279 -2.0311
  945MOL0     H27567   3.270   5.550   8.312 -1.7927  0.8054 -0.1179
  945MOL0     H27568   3.296   5.401   8.231 -0.1529 -1.3702  1.3195
  945MOL0     H27569   3.042   5.441   8.426 -1.4685 -2.5610 -1.6676
  945MOL0     H27570   3.092   5.299   8.332 -2.0533 -0.2207  1.3832
  945MOL0     H27571   3.394   5.306   8.635 -1.6627 -0.5680  0.8244
  945MOL0     H27572   3.232   5.099   7.916 -0.0332  1.0575  1.4707
  945MOL0     H27573   3.245   4.977   7.583 -1.3963 -1.0655  0.7685
  945MOL0     H27574   3.404   5.039   7.607  0.9990  4.3875  2.3948
  945MOL0     H27575   3.339   4.954   7.738  1.4033  0.2173 -0.1237
  946MOL0     O27576   6.580   3.969   2.265  0.7433 -0.4526 -0.0276
  946MOL0     C27577   6.654   4.062   2.290 -0.9063 -0.6330 -0.3636
  946MOL0     O27578   6.661   4.145   2.408  0.0554  0.5808 -0.7005
  946MOL0     C27579   6.577   4.105   2.508  0.4546  0.5057  0.0430
  946MOL0     C27580   6.442   4.132   2.494 -0.1986 -1.1977  0.0501
  946MOL0     C27581   6.359   4.121   2.610  0.6114 -0.7127  0.9566
  946MOL0     C27582   6.400   4.063   2.733 -0.0272 -0.8962  0.4477
  946MOL0     O27583   6.316   4.059   2.841  0.8836  0.4852 -0.3155
  946MOL0     C27584   6.365   4.025   2.971 -0.0582 -0.0129 -0.6766
  946MOL0     C27585   6.435   4.149   3.034  0.7144 -0.8269  0.4611
  946MOL0     C27586   6.380   4.291   3.024  0.4221 -0.1086 -0.2592
  946MOL0     C27587   6.489   4.398   3.068  0.8455 -0.7059  0.2763
  946MOL0     C27588   6.474   4.433   3.205  0.2272  0.1579  0.0256
  946MOL0     C27589   6.549   4.560   3.248 -1.0005 -0.2784 -0.3051
  946MOL0     C27590   6.604   4.559   3.405  1.0588 -0.1368  0.6321
  946MOL0     C27591   6.503   4.601   3.510 -0.5057 -0.1717  0.1111
  946MOL0     N27592   6.523   4.736   3.549 -0.1099 -0.5263  0.4080
  946MOL0     C27593   6.599   4.777   3.648 -0.2073 -1.1464 -0.2581
  946MOL0     C27594   6.608   4.912   3.628  0.0292  0.4400  0.1195
  946MOL0     C27595   6.670   5.009   3.733  0.5893  0.3026  1.1440
  946MOL0     C27596   6.570   5.060   3.825 -0.4703 -0.3492 -0.3999
  946MOL0     C27597   6.652   5.129   3.942  0.8032  0.1264 -0.7136
  946MOL0     C27598   6.546   5.150   4.059 -0.5809  0.1754 -0.2903
  946MOL0     O27599   6.457   5.261   4.021 -0.5191  0.7928 -0.3322
  946MOL0     C27600   6.447   5.348   4.122  0.1662  0.2234  0.3571
  946MOL0     C27601   6.537   5.460   4.117  0.1032  0.2787 -0.4981
  946MOL0     C27602   6.515   5.568   4.200  0.3624  0.2065 -0.6821
  946MOL0     C27603   6.421   5.559   4.310  0.6080 -0.2902 -1.1222
  946MOL0     C27604   6.415   5.655   4.420  0.0980 -0.6188 -0.4542
  946MOL0     O27605   6.332   5.639   4.525  0.0262  0.1139  0.0305
  946MOL0     C27606   6.307   5.750   4.617  0.3177  0.1209  0.2438
  946MOL0     C27607   6.358   5.733   4.740 -0.2509  0.5873 -0.3673
  946MOL0     C27608   6.328   5.822   4.842 -1.4656  0.4948  0.2013
  946MOL0     C27609   6.261   5.945   4.817 -0.2124  0.7315  0.1415
  946MOL0     O27610   6.236   6.036   4.915 -0.7198 -0.1012 -0.9601
  946MOL0     C27611   6.134   6.141   4.895 -0.5955  0.5451 -0.3259
  946MOL0     C27612   6.090   6.214   5.019 -0.1938 -0.7944 -0.4945
  946MOL0     C27613   6.167   6.350   5.025  0.4980 -0.2799  0.5569
  946MOL0     C27614   6.140   6.418   5.154 -0.6693  0.1651 -0.4225
  946MOL0     C27615   6.013   6.501   5.147 -0.2659 -0.1742 -0.4957
  946MOL0     C27616   5.964   6.546   5.286 -0.4734 -0.7944  0.0001
  946MOL0     C27617   5.860   6.659   5.272  0.3502  0.0686 -0.6178
  946MOL0     C27618   5.794   6.677   5.415 -0.2092 -0.4418  0.5141
  946MOL0    Cl27619   5.696   6.546   5.494  0.0597  0.3107  0.0687
  946MOL0     C27620   6.219   5.964   4.679  0.3640  0.6812 -0.7917
  946MOL0     C27621   6.234   5.865   4.577  0.2532 -0.9502 -0.2022
  946MOL0     O27622   6.476   5.764   4.387  0.0762  0.1214  0.5746
  946MOL0     C27623   6.347   5.443   4.331  0.1635  0.1533  0.1531
  946MOL0     C27624   6.356   5.338   4.225 -0.0723 -0.0496 -0.1684
  946MOL0     N27625   6.534   4.946   3.517 -0.0932 -0.4540  0.5761
  946MOL0     N27626   6.480   4.838   3.474  0.1222 -1.0599  0.7725
  946MOL0     C27627   6.537   4.035   2.737 -0.2257 -0.3570 -0.1701
  946MOL0     C27628   6.627   4.054   2.630 -0.2977 -0.8411 -0.7634
  946MOL0     C27629   6.738   4.111   2.175  1.1000 -0.1315  0.0377
  946MOL0     C27630   6.680   4.098   2.043  0.2281  0.7885  0.7526
  946MOL0     C27631   6.756   4.125   1.934  0.1960 -0.3477  0.4353
  946MOL0     C27632   6.884   4.181   1.948  0.3387 -1.1275  0.3261
  946MOL0     O27633   6.949   4.213   1.828 -0.0459  0.4507 -0.3353
  946MOL0     C27634   7.088   4.260   1.828 -1.0773  0.4631 -0.4222
  946MOL0     C27635   7.127   4.310   1.688  0.0478 -0.4293  0.2588
  946MOL0     C27636   7.063   4.244   1.564  0.2891  0.0827 -0.4336
  946MOL0     C27637   7.127   4.273   1.433  0.6238 -0.1479  0.8171
  946MOL0     C27638   7.176   4.417   1.415 -0.5833 -0.3344  0.0765
  946MOL0     C27639   7.223   4.529   1.428 -0.6279  0.1063 -0.1161
  946MOL0     C27640   6.937   4.202   2.078 -0.8581  1.2996  0.2925
  946MOL0     C27641   6.870   4.159   2.187  1.0337  0.2696  0.6893
  946MOL0     C27642   6.950   4.144   2.305 -0.3402  0.1097 -0.7511
  946MOL0     H27643   6.400   4.181   2.407 -1.8538 -3.9120 -0.7989
  946MOL0     H27644   6.253   4.139   2.597  0.8651  0.7047  0.6208
  946MOL0     H27645   6.278   3.996   3.030 -0.4036  0.4315 -0.9677
  946MOL0     H27646   6.440   3.945   2.975 -2.1122 -1.9966  2.1794
  946MOL0     H27647   6.535   4.154   2.990  1.1177 -1.4152  1.3056
  946MOL0     H27648   6.439   4.129   3.141  0.5314  0.5301  0.7359
  946MOL0     H27649   6.297   4.303   3.094  1.2677 -0.3803  0.8087
  946MOL0     H27650   6.351   4.318   2.922  2.3892  0.8423 -0.6346
  946MOL0     H27651   6.591   4.364   3.048  1.5270  2.0620 -1.5080
  946MOL0     H27652   6.465   4.481   3.002  1.3199 -1.8644 -1.4109
  946MOL0     H27653   6.370   4.440   3.240 -0.9593 -0.2858 -3.0694
  946MOL0     H27654   6.520   4.353   3.264  0.8851  1.5746  1.5177
  946MOL0     H27655   6.640   4.551   3.189 -1.4791 -0.0289 -1.1038
  946MOL0     H27656   6.504   4.657   3.225  1.2825  1.1233  0.8200
  946MOL0     H27657   6.706   4.600   3.398  1.5640 -1.4601 -0.0300
  946MOL0     H27658   6.623   4.456   3.436  1.1598 -0.3382 -0.0758
  946MOL0     H27659   6.403   4.606   3.465 -1.5455  0.1718  2.3127
  946MOL0     H27660   6.503   4.540   3.601  0.5899  0.4115  0.5149
  946MOL0     H27661   6.639   4.743   3.742 -2.5495  2.4881  2.3387
  946MOL0     H27662   6.754   4.957   3.780  3.3014  1.4571 -2.0050
  946MOL0     H27663   6.706   5.098   3.681 -1.4787  0.7584  0.4176
  946MOL0     H27664   6.494   5.127   3.782 -2.1933 -0.2421  2.5575
  946MOL0     H27665   6.509   4.976   3.860 -0.6207 -0.1961 -0.2908
  946MOL0     H27666   6.700   5.222   3.911  2.3660 -0.2103  0.5144
  946MOL0     H27667   6.738   5.069   3.975 -1.3185 -2.5029  0.3353
  946MOL0     H27668   6.610   5.170   4.146  1.8795 -2.6353 -1.2719
  946MOL0     H27669   6.490   5.056   4.067 -2.8715  1.3649 -1.3463
  946MOL0     H27670   6.619   5.467   4.046  0.1004 -1.8122 -0.7846
  946MOL0     H27671   6.576   5.658   4.195  1.2451 -0.2814  0.7514
  946MOL0     H27672   6.419   5.646   4.763 -3.6321 -1.7720  0.4499
  946MOL0     H27673   6.358   5.810   4.945  1.5388  4.4019  0.0261
  946MOL0     H27674   6.178   6.219   4.832 -1.5906  0.6736 -0.8813
  946MOL0     H27675   6.041   6.110   4.849 -1.1548  5.3931 -3.1872
  946MOL0     H27676   5.983   6.233   5.012  0.2139  1.4205 -1.5065
  946MOL0     H27677   6.120   6.155   5.107  1.2040 -0.7256 -0.8966
  946MOL0     H27678   6.273   6.335   5.006  0.3408 -0.9841  0.1987
  946MOL0     H27679   6.128   6.395   4.933  0.1766 -1.1418  0.2562
  946MOL0     H27680   6.235   6.466   5.180  0.5427 -2.8959  1.2870
  946MOL0     H27681   6.112   6.335   5.220 -3.5580 -1.4942 -3.4083
  946MOL0     H27682   5.930   6.443   5.105 -2.2662  1.8583  0.3742
  946MOL0     H27683   6.022   6.585   5.078  3.3048  1.1234  1.3300
  946MOL0     H27684   5.924   6.457   5.335  1.1369 -0.4558  2.0870
  946MOL0     H27685   6.049   6.587   5.342  0.6226  0.5847 -2.5297
  946MOL0     H27686   5.782   6.622   5.205  0.9594 -2.0121 -0.2516
  946MOL0     H27687   5.893   6.761   5.250  0.6390 -0.0871 -0.9010
  946MOL0     H27688   5.874   6.699   5.487 -1.2998  2.2866  0.9980
  946MOL0     H27689   5.737   6.767   5.389  2.8185  1.0080 -1.6350
  946MOL0     H27690   6.173   6.059   4.655 -0.5360  0.1767 -1.0950
  946MOL0     H27691   6.189   5.873   4.479 -2.2365  2.1856  1.0221
  946MOL0     H27692   6.276   5.426   4.411  0.0628  1.0666  0.2700
  946MOL0     H27693   6.291   5.252   4.226 -0.1457 -0.0236  1.6062
  946MOL0     H27694   6.582   4.013   2.833 -1.3114  2.0738  0.9754
  946MOL0     H27695   6.733   4.039   2.648 -0.5384 -1.7388 -0.0399
  946MOL0     H27696   6.577   4.063   2.037  0.6406 -0.1478 -2.9737
  946MOL0     H27697   6.710   4.120   1.836 -0.5385  1.8519  0.6121
  946MOL0     H27698   7.148   4.171   1.851 -0.7705  0.7375 -0.1405
  946MOL0     H27699   7.115   4.340   1.898  0.6165 -0.1281 -0.3403
  946MOL0     H27700   7.235   4.307   1.669 -0.3761  1.1335 -3.2306
  946MOL0     H27701   7.100   4.416   1.684 -0.1182 -0.4833 -0.1623
  946MOL0     H27702   6.959   4.280   1.564  0.1318 -0.3521 -1.0680
  946MOL0     H27703   7.058   4.136   1.581 -0.8186  0.2965  0.7953
  946MOL0     H27704   7.213   4.205   1.432  2.2661  1.5895  4.4898
  946MOL0     H27705   7.063   4.250   1.347 -1.1342  2.3392  1.3509
  946MOL0     H27706   7.254   4.629   1.451  1.6224 -0.2456 -1.2827
  946MOL0     H27707   7.038   4.238   2.094 -0.2332  0.2533 -1.0558
  946MOL0     H27708   6.934   4.225   2.376 -4.3519 -1.3499  0.2598
  946MOL0     H27709   6.932   4.049   2.356  2.1630 -1.1056 -1.9452
  946MOL0     H27710   7.053   4.134   2.270 -0.9632 -0.5696 -2.5037
  947MOL0     O27711   7.305   3.351   9.056 -0.3802 -0.1128  0.2117
  947MOL0     C27712   7.294   3.275   8.962  0.3992  0.1293  0.7033
  947MOL0     O27713   7.175   3.243   8.905 -0.3357 -0.6004  0.6155
  947MOL0     C27714   7.056   3.278   8.966  0.0211  0.4259  0.2578
  947MOL0     C27715   6.943   3.313   8.889  0.3915 -0.5888  0.8167
  947MOL0     C27716   6.826   3.366   8.940 -0.5006 -0.8195  0.1160
  947MOL0     C27717   6.805   3.357   9.082 -0.6212  0.1584  0.8770
  947MOL0     O27718   6.694   3.404   9.136  0.1109 -0.5331 -0.0687
  947MOL0     C27719   6.682   3.405   9.279  0.8386 -0.6438 -0.0342
  947MOL0     C27720   6.552   3.481   9.334 -1.2750  0.0650  0.4404
  947MOL0     C27721   6.447   3.375   9.348  0.0194  0.0472 -0.3696
  947MOL0     C27722   6.319   3.427   9.393 -0.0392 -0.4749  0.0122
  947MOL0     C27723   6.211   3.327   9.445 -0.3071  0.4517  0.1973
  947MOL0     C27724   6.137   3.259   9.332  0.3036 -0.3909  0.4665
  947MOL0     C27725   6.030   3.161   9.373 -0.4664 -0.6950  0.0407
  947MOL0     C27726   6.071   3.036   9.460 -0.9011 -1.0035  0.4069
  947MOL0     N27727   5.961   2.927   9.457 -1.5128  0.8598 -0.2568
  947MOL0     C27728   5.993   2.797   9.494 -0.1024  0.0814 -0.1898
  947MOL0     C27729   5.875   2.737   9.485  0.1535  0.0861 -0.3953
  947MOL0     C27730   5.858   2.595   9.523  0.7826  0.5172  0.0524
  947MOL0     C27731   5.836   2.568   9.677  0.3217 -0.1951 -0.0957
  947MOL0     C27732   5.973   2.537   9.742 -1.2552 -0.2583 -0.0167
  947MOL0     C27733   6.041   2.410   9.694  0.0664 -0.2223 -0.4166
  947MOL0     O27734   6.181   2.429   9.720 -0.0858 -0.7757  0.2588
  947MOL0     C27735   6.240   2.383   9.838  0.8894  0.2620  0.6472
  947MOL0     C27736   6.168   2.327   9.944  0.0644  0.4301 -0.0273
  947MOL0     C27737   6.231   2.296  10.065 -0.1179 -1.2855  0.1590
  947MOL0     C27738   6.373   2.303  10.070  0.7765  0.0029  0.2883
  947MOL0     C27739   6.452   2.260  10.188  0.6272 -0.4217  0.5073
  947MOL0     O27740   6.376   2.202  10.284 -0.6294 -0.5080 -0.3561
  947MOL0     C27741   6.432   2.145  10.397  0.5258 -0.9158  0.5426
  947MOL0     C27742   6.527   2.042  10.390 -0.3518 -0.7482 -0.3651
  947MOL0     C27743   6.565   1.984  10.514 -1.2689 -0.3701  0.7229
  947MOL0     C27744   6.513   2.021  10.632 -0.0487  0.8785 -0.3642
  947MOL0     O27745   6.582   1.956  10.730  0.7235  0.7324  0.1723
  947MOL0     C27746   6.573   2.005  10.865  0.3676  0.1463  0.0881
  947MOL0     C27747   6.657   1.913  10.947 -0.6560  0.6273 -0.5388
  947MOL0     C27748   6.772   1.837  10.868 -0.4201 -0.7809  0.3537
  947MOL0     C27749   6.825   1.712  10.956  0.1769  0.1629  0.5240
  947MOL0     C27750   6.912   1.757  11.076  0.3977 -0.7272  0.4008
  947MOL0     C27751   6.947   1.649  11.177  0.3391  0.8027 -0.3501
  947MOL0     C27752   6.828   1.568  11.215  0.0503  0.6243  0.9313
  947MOL0     C27753   6.848   1.458  11.321  0.2687  0.3557  0.5427
  947MOL0    Cl27754   6.845   1.516  11.498 -0.2972 -0.3468 -0.0752
  947MOL0     C27755   6.417   2.117  10.644 -0.0967 -0.3674 -0.4208
  947MOL0     C27756   6.374   2.173  10.526  0.4766 -0.4943  0.1073
  947MOL0     O27757   6.575   2.260  10.177 -0.1075 -0.3663 -0.0476
  947MOL0     C27758   6.444   2.360   9.961  0.1083 -1.1715  0.8650
  947MOL0     C27759   6.376   2.411   9.848  0.2237  0.3186 -0.0522
  947MOL0     N27760   5.771   2.822   9.438 -0.5339  0.2769  0.5719
  947MOL0     N27761   5.825   2.937   9.436  0.2588  0.7925 -0.8567
  947MOL0     C27762   6.910   3.301   9.157  0.5130  0.4300 -0.2187
  947MOL0     C27763   7.033   3.274   9.106 -0.5252  0.0848 -0.2374
  947MOL0     C27764   7.415   3.227   8.896 -0.1171 -0.0819  0.2184
  947MOL0     C27765   7.395   3.201   8.760  0.0397 -0.5877  0.4612
  947MOL0     C27766   7.506   3.158   8.675 -0.4307  0.0954  0.0406
  947MOL0     C27767   7.638   3.137   8.730  0.1236  0.1622 -1.6846
  947MOL0     O27768   7.748   3.073   8.677  0.5783 -0.7473  0.2823
  947MOL0     C27769   7.724   2.985   8.569 -0.0041 -0.2317  1.0729
  947MOL0     C27770   7.733   2.842   8.599 -0.0857  0.1766  0.1359
  947MOL0     C27771   7.609   2.788   8.680 -1.4545  0.8855  0.3574
  947MOL0     C27772   7.569   2.645   8.657 -0.8500 -0.6602 -0.7926
  947MOL0     C27773   7.688   2.552   8.645  0.3874 -0.1021 -0.3416
  947MOL0     C27774   7.799   2.492   8.650 -0.0205  0.1072 -0.4021
  947MOL0     C27775   7.654   3.152   8.867 -0.3465  0.2104 -1.0928
  947MOL0     C27776   7.545   3.189   8.952 -0.6181 -0.8203  0.3286
  947MOL0     C27777   7.571   3.209   9.102 -0.1247  0.3649  0.4858
  947MOL0     H27778   6.966   3.320   8.783 -1.7013 -3.6618  0.0259
  947MOL0     H27779   6.750   3.403   8.872 -2.3024 -3.3606  0.5758
  947MOL0     H27780   6.680   3.302   9.316 -1.0167 -1.4787 -2.2111
  947MOL0     H27781   6.769   3.465   9.306 -1.1205  0.8800  3.6395
  947MOL0     H27782   6.522   3.568   9.273  1.7631 -0.5809 -2.2843
  947MOL0     H27783   6.584   3.512   9.434  1.4202  0.0656 -0.3420
  947MOL0     H27784   6.481   3.307   9.426 -0.2543 -0.4039 -0.6408
  947MOL0     H27785   6.421   3.328   9.252 -2.6662  0.7791 -0.0860
  947MOL0     H27786   6.338   3.505   9.468 -2.9303  1.9290 -1.5455
  947MOL0     H27787   6.278   3.488   9.312  2.3765 -0.4046 -1.2563
  947MOL0     H27788   6.248   3.244   9.506 -3.1272 -0.0340  1.4425
  947MOL0     H27789   6.144   3.385   9.510  1.1235  1.5274  0.7455
  947MOL0     H27790   6.086   3.338   9.275 -0.7112 -1.0520  0.4396
  947MOL0     H27791   6.194   3.196   9.264 -1.9210 -2.8695  0.7299
  947MOL0     H27792   5.983   3.115   9.285  3.3505 -1.1539 -1.9516
  947MOL0     H27793   5.968   3.225   9.438  4.2374  1.7416  2.7059
  947MOL0     H27794   6.163   3.004   9.409 -0.9649  0.9763 -1.0803
  947MOL0     H27795   6.097   3.080   9.557 -1.1779  1.5766 -0.5965
  947MOL0     H27796   6.090   2.763   9.529  0.0028 -0.2901 -0.8304
  947MOL0     H27797   5.770   2.562   9.467  2.0648 -0.7863 -1.3095
  947MOL0     H27798   5.940   2.536   9.480 -0.5149 -1.7451  0.5025
  947MOL0     H27799   5.795   2.651   9.736 -2.4995 -2.2074  0.9842
  947MOL0     H27800   5.770   2.481   9.684 -0.1363  0.1552 -0.0036
  947MOL0     H27801   5.961   2.528   9.851  1.7850  1.1827  0.5539
  947MOL0     H27802   6.036   2.625   9.725 -1.4013  0.1589  1.4078
  947MOL0     H27803   6.023   2.395   9.587  0.8045  1.3151 -0.7884
  947MOL0     H27804   5.997   2.320   9.738 -0.1527  0.5150  0.9190
  947MOL0     H27805   6.060   2.310   9.944  0.3529 -3.0945  3.9527
  947MOL0     H27806   6.167   2.260  10.144 -2.5989  0.9794 -0.6721
  947MOL0     H27807   6.580   2.008  10.302 -0.9674 -0.3826 -0.8906
  947MOL0     H27808   6.648   1.913  10.514  0.2498  1.3244  0.2096
  947MOL0     H27809   6.617   2.105  10.876  0.3525 -0.0031  1.9010
  947MOL0     H27810   6.470   1.996  10.902  0.2593  1.2947  0.1113
  947MOL0     H27811   6.716   1.966  11.022  0.2251  2.1455 -2.2238
  947MOL0     H27812   6.595   1.838  10.997 -0.1415 -0.3230 -1.3055
  947MOL0     H27813   6.743   1.799  10.770 -1.3490 -0.5264  0.5122
  947MOL0     H27814   6.851   1.912  10.861 -1.3846  1.0020  4.7367
  947MOL0     H27815   6.876   1.641  10.890 -4.7683 -1.6333 -1.9143
  947MOL0     H27816   6.727   1.666  10.971 -0.4752  0.0053 -3.2595
  947MOL0     H27817   6.842   1.825  11.125  1.9646  0.4000  1.1590
  947MOL0     H27818   7.005   1.807  11.046  1.1858 -2.0020  0.6731
  947MOL0     H27819   7.016   1.576  11.134 -3.5715 -4.4453  1.3308
  947MOL0     H27820   6.983   1.682  11.276 -1.7521 -0.4156  0.8824
  947MOL0     H27821   6.802   1.522  11.119 -1.7253 -0.6269  1.9665
  947MOL0     H27822   6.746   1.637  11.235  1.5762  3.1640 -0.9479
  947MOL0     H27823   6.766   1.390  11.300 -2.0986  3.5741 -1.5820
  947MOL0     H27824   6.939   1.402  11.295 -1.3445 -0.9336 -2.9725
  947MOL0     H27825   6.372   2.140  10.740 -0.1024  1.1083 -0.7462
  947MOL0     H27826   6.291   2.241  10.512  2.4433  2.3694  1.4611
  947MOL0     H27827   6.552   2.346   9.961 -0.2065 -4.4777  0.3404
  947MOL0     H27828   6.419   2.463   9.764 -0.5700  0.7991 -0.1793
  947MOL0     H27829   6.901   3.292   9.264 -2.3223 -0.9874 -0.4936
  947MOL0     H27830   7.105   3.245   9.182 -2.4401  1.0408  2.0545
  947MOL0     H27831   7.294   3.208   8.720 -0.3859 -0.6747  1.4869
  947MOL0     H27832   7.472   3.142   8.573 -0.4770  0.5071 -0.0133
  947MOL0     H27833   7.798   3.010   8.493  0.6320 -2.6158  0.8188
  947MOL0     H27834   7.631   3.013   8.517  0.3596 -2.0137 -0.6659
  947MOL0     H27835   7.827   2.823   8.650 -1.7086  0.5920  3.5728
  947MOL0     H27836   7.726   2.782   8.507  2.9257 -1.3925  0.8260
  947MOL0     H27837   7.521   2.851   8.668 -1.3221  2.3687  5.1433
  947MOL0     H27838   7.633   2.789   8.787  0.2334  0.8427  0.0126
  947MOL0     H27839   7.512   2.601   8.740  0.4811 -0.6282  0.1706
  947MOL0     H27840   7.510   2.647   8.565  0.2457  3.4353 -1.5994
  947MOL0     H27841   7.894   2.444   8.657 -0.1039  0.1627  3.2496
  947MOL0     H27842   7.754   3.127   8.901 -0.0520 -0.4368 -2.4006
  947MOL0     H27843   7.536   3.308   9.132 -1.9181 -0.1865  0.3060
  947MOL0     H27844   7.507   3.141   9.160 -0.6124 -1.8171 -2.3967
  947MOL0     H27845   7.679   3.191   9.115 -0.4055 -2.0245 -0.0601
  948MOL0     O27846   9.739   7.123   4.103  0.0999 -0.5882  0.0025
  948MOL0     C27847   9.672   7.223   4.136 -0.2792  0.6896 -0.2772
  948MOL0     O27848   9.723   7.346   4.137  0.4276 -0.0065 -0.5217
  948MOL0     C27849   9.850   7.377   4.093 -0.0645  1.0002  1.4501
  948MOL0     C27850   9.855   7.468   3.982 -0.3190  0.9669  0.4400
  948MOL0     C27851   9.983   7.508   3.937 -0.5152 -0.5950  0.2418
  948MOL0     C27852  10.104   7.464   3.999  0.2466  0.6831  0.7923
  948MOL0     O27853  10.226   7.514   3.976 -0.3389 -1.1235  0.2866
  948MOL0     C27854  10.246   7.657   3.927 -0.5753  0.4401  0.5731
  948MOL0     C27855  10.389   7.705   3.910  0.3351 -0.2943 -0.4417
  948MOL0     C27856  10.468   7.680   4.046 -0.0033 -0.4418 -0.5674
  948MOL0     C27857  10.601   7.751   4.024  0.6592 -0.0931 -0.0497
  948MOL0     C27858  10.699   7.770   4.146  0.6636 -0.7622 -0.4006
  948MOL0     C27859  10.849   7.810   4.111 -0.0317  0.4639  0.9997
  948MOL0     C27860  10.945   7.803   4.221 -0.5974 -0.7245  0.3052
  948MOL0     C27861  10.915   7.890   4.340  0.1807  0.1688  0.7626
  948MOL0     N27862  11.035   7.949   4.397 -1.0255  0.0399 -0.3706
  948MOL0     C27863  11.150   7.875   4.410  0.3894 -0.5979 -0.4369
  948MOL0     C27864  11.233   7.958   4.470 -1.1856 -0.0248  0.0007
  948MOL0     C27865  11.375   7.912   4.495 -0.0249 -0.0104  0.3034
  948MOL0     C27866  11.450   7.849   4.371 -0.2781 -0.5475  0.0855
  948MOL0     C27867  11.450   7.935   4.240 -0.0083 -0.3982 -0.6517
  948MOL0     C27868  11.476   8.090   4.271  0.8237  1.0773 -0.2259
  948MOL0     O27869  11.506   8.151   4.144  0.5453  0.2165  0.1088
  948MOL0     C27870  11.524   8.290   4.130  0.0238 -0.3736  0.1343
  948MOL0     C27871  11.493   8.376   4.235 -0.2079 -0.8127 -0.0816
  948MOL0     C27872  11.515   8.513   4.216  0.2642  0.2574 -0.0839
  948MOL0     C27873  11.544   8.562   4.085 -0.1959  0.4367  0.0187
  948MOL0     C27874  11.562   8.699   4.070  0.6834 -0.0005  0.8059
  948MOL0     O27875  11.584   8.781   4.187 -0.1987  0.5595  0.9073
  948MOL0     C27876  11.579   8.915   4.170 -0.2177 -1.3844  0.1336
  948MOL0     C27877  11.472   8.991   4.123 -0.5589 -0.1657  0.4660
  948MOL0     C27878  11.500   9.124   4.090  1.1281  0.3231 -0.5123
  948MOL0     C27879  11.623   9.183   4.107  0.0483 -0.5959  0.6030
  948MOL0     O27880  11.655   9.309   4.064 -0.9383  0.0996  0.1402
  948MOL0     C27881  11.556   9.405   4.047  0.5700 -0.2909  0.5128
  948MOL0     C27882  11.624   9.540   4.061  0.5126 -0.0929  0.2327
  948MOL0     C27883  11.683   9.562   4.198 -0.3831 -1.3089 -0.5258
  948MOL0     C27884  11.806   9.649   4.208 -0.3208 -0.1980  0.6032
  948MOL0     C27885  11.774   9.785   4.156 -0.3496  0.3981 -0.6721
  948MOL0     C27886  11.875   9.896   4.184 -0.4021 -1.6348 -0.4063
  948MOL0     C27887  11.896   9.930   4.336  0.4534  0.2960 -0.4365
  948MOL0     C27888  11.993  10.047   4.356  0.8097 -0.3687 -0.7578
  948MOL0    Cl27889  11.902  10.199   4.321 -0.0714 -0.1114  0.2162
  948MOL0     C27890  11.727   9.107   4.158  0.2114 -0.8511 -0.0037
  948MOL0     C27891  11.703   8.977   4.196  0.1933 -1.1216  0.2062
  948MOL0     O27892  11.554   8.739   3.954  0.1516  0.0358 -1.0425
  948MOL0     C27893  11.554   8.472   3.979 -0.8416 -0.4453 -0.1555
  948MOL0     C27894  11.551   8.333   3.997  0.2776  0.1959 -0.1500
  948MOL0     N27895  11.170   8.072   4.493 -0.0316 -0.3505 -0.3205
  948MOL0     N27896  11.048   8.070   4.450 -0.4402 -0.3947  0.0795
  948MOL0     C27897  10.094   7.374   4.113  0.3187 -0.7650  0.1825
  948MOL0     C27898   9.966   7.332   4.151  0.2968  0.2592  0.0073
  948MOL0     C27899   9.521   7.211   4.166  1.0623  0.3471  0.1488
  948MOL0     C27900   9.450   7.326   4.183  0.0794 -0.4350  0.1043
  948MOL0     C27901   9.312   7.322   4.182  0.0311  0.2054 -0.4587
  948MOL0     C27902   9.237   7.212   4.177 -0.6206  0.4505  0.5638
  948MOL0     O27903   9.104   7.209   4.154 -0.4231 -0.1515  0.7417
  948MOL0     C27904   9.030   7.082   4.145 -0.0277  0.2893 -0.5381
  948MOL0     C27905   9.042   7.004   4.009 -0.2471 -0.6716 -0.2614
  948MOL0     C27906   8.991   7.072   3.876  0.3472  0.5341  0.0460
  948MOL0     C27907   9.068   7.194   3.838  0.4203 -0.5002  0.4589
  948MOL0     C27908   9.046   7.228   3.696  0.4586 -0.0776  0.1471
  948MOL0     C27909   9.027   7.256   3.582  0.0431  0.7171  0.3154
  948MOL0     C27910   9.308   7.090   4.174  1.1216  0.0885 -0.1956
  948MOL0     C27911   9.446   7.086   4.168  0.4396 -0.0221 -0.1453
  948MOL0     C27912   9.508   6.945   4.161  0.6581  0.6743  0.9150
  948MOL0     H27913   9.766   7.513   3.939 -1.7180  0.7024  2.8871
  948MOL0     H27914   9.996   7.590   3.866 -1.0630 -2.6579 -2.3878
  948MOL0     H27915  10.197   7.667   3.830 -0.8824  0.4540  0.7284
  948MOL0     H27916  10.197   7.721   4.001 -2.9143 -0.8818  0.2737
  948MOL0     H27917  10.389   7.811   3.882  1.6312  0.5530  2.4022
  948MOL0     H27918  10.436   7.647   3.830 -1.8796 -3.0540  0.1313
  948MOL0     H27919  10.488   7.574   4.063 -0.4262 -0.7120 -1.6532
  948MOL0     H27920  10.412   7.721   4.131  1.5681  0.6510 -0.0121
  948MOL0     H27921  10.650   7.696   3.944  1.2917  0.4695 -0.0549
  948MOL0     H27922  10.577   7.852   3.990  3.4929  1.7667  2.8518
  948MOL0     H27923  10.673   7.839   4.227  1.8907 -0.1751 -0.4845
  948MOL0     H27924  10.701   7.672   4.194  1.6537 -1.7780 -2.3984
  948MOL0     H27925  10.881   7.737   4.037 -0.2212  0.8399  0.5341
  948MOL0     H27926  10.856   7.905   4.057  3.3287  1.7108  3.2882
  948MOL0     H27927  11.044   7.829   4.185 -1.4994  2.3066 -0.2878
  948MOL0     H27928  10.957   7.698   4.248  3.2852 -0.8924 -1.4559
  948MOL0     H27929  10.864   7.975   4.296 -0.2431  0.5915  2.0249
  948MOL0     H27930  10.854   7.838   4.414  1.9488 -1.4787  1.1726
  948MOL0     H27931  11.166   7.770   4.390  2.9369 -0.7510  1.8302
  948MOL0     H27932  11.422   8.006   4.524 -2.4061  1.2954  0.1629
  948MOL0     H27933  11.376   7.847   4.583  1.3784  0.8724  0.9672
  948MOL0     H27934  11.555   7.839   4.400  0.4649  3.0403 -0.8138
  948MOL0     H27935  11.416   7.749   4.344  2.2627 -1.5403  0.2998
  948MOL0     H27936  11.348   7.931   4.200 -0.2906  1.0447 -0.1406
  948MOL0     H27937  11.519   7.889   4.168  1.7958  0.5597  0.4067
  948MOL0     H27938  11.561   8.101   4.339  0.9391 -0.1189 -0.1486
  948MOL0     H27939  11.384   8.131   4.312 -0.8312 -0.1347 -2.5172
  948MOL0     H27940  11.468   8.326   4.328 -3.6364 -1.5172 -1.2106
  948MOL0     H27941  11.500   8.574   4.305  3.1094  1.0477 -0.0577
  948MOL0     H27942  11.385   8.929   4.102  0.5075 -1.1766 -1.2384
  948MOL0     H27943  11.412   9.181   4.061 -0.1268 -0.9072  0.6943
  948MOL0     H27944  11.515   9.411   3.946  2.6691  0.7477 -0.3408
  948MOL0     H27945  11.468   9.402   4.112 -0.9543  0.4813 -1.3904
  948MOL0     H27946  11.714   9.533   3.998 -0.3643  3.7608 -1.7731
  948MOL0     H27947  11.568   9.623   4.018  2.6261  1.6984  0.7708
  948MOL0     H27948  11.610   9.616   4.258  0.3607  1.9192 -2.2768
  948MOL0     H27949  11.717   9.463   4.231  1.5993 -1.2392 -2.0795
  948MOL0     H27950  11.883   9.599   4.148 -0.3875 -1.2160  1.3315
  948MOL0     H27951  11.835   9.645   4.313  0.0149  0.3115  0.5293
  948MOL0     H27952  11.678   9.814   4.200  2.1809  0.6716  5.9564
  948MOL0     H27953  11.774   9.778   4.047 -2.3411  2.5470 -0.8862
  948MOL0     H27954  11.971   9.888   4.131  1.0935  3.9559  0.7779
  948MOL0     H27955  11.824   9.978   4.132 -1.2292 -0.5823  1.9083
  948MOL0     H27956  11.944   9.845   4.386  0.5206 -0.9721 -2.5268
  948MOL0     H27957  11.796   9.955   4.372 -0.4526 -2.3116 -0.9183
  948MOL0     H27958  12.011  10.049   4.464 -3.0336  0.9852  0.0162
  948MOL0     H27959  12.079  10.026   4.291  1.8978  1.4864 -0.0032
  948MOL0     H27960  11.823   9.157   4.174  0.4027 -1.1113 -0.3199
  948MOL0     H27961  11.786   8.927   4.246  0.9932  1.4931  1.6949
  948MOL0     H27962  11.570   8.516   3.881 -1.3199  2.4911  0.9701
  948MOL0     H27963  11.581   8.260   3.922  2.8129  2.7795 -1.8759
  948MOL0     H27964  10.177   7.340   4.174  0.9599 -3.7781 -2.1783
  948MOL0     H27965   9.962   7.274   4.242 -1.2522  0.0428 -0.1702
  948MOL0     H27966   9.486   7.428   4.189 -0.7182 -0.2142  1.8695
  948MOL0     H27967   9.276   7.424   4.187  1.2966  0.7874 -2.3010
  948MOL0     H27968   8.923   7.102   4.144 -0.0803  0.0929 -2.1788
  948MOL0     H27969   9.059   7.013   4.225  0.5067 -1.9746 -2.5683
  948MOL0     H27970   8.980   6.917   4.027 -1.1620  0.6213  3.8836
  948MOL0     H27971   9.144   6.966   4.002  0.5881  0.6526  2.8122
  948MOL0     H27972   8.882   7.078   3.884  0.2965 -0.6514  0.5168
  948MOL0     H27973   9.000   6.990   3.803 -0.6342 -0.5204  1.0557
  948MOL0     H27974   9.006   7.274   3.880  1.2073 -0.9070  2.4918
  948MOL0     H27975   9.171   7.200   3.875  0.7660  0.7329 -0.6462
  948MOL0     H27976   8.999   7.283   3.482  0.3094 -1.6659 -0.4716
  948MOL0     H27977   9.251   6.997   4.184  0.1790  0.9185  3.6169
  948MOL0     H27978   9.607   6.952   4.208 -0.2651 -1.1001  3.3028
  948MOL0     H27979   9.442   6.879   4.217  0.9641  1.1050  1.8151
  948MOL0     H27980   9.517   6.912   4.058 -0.0706  0.9061  0.7702
  949MOL0     O27981   7.906   7.763   0.984 -0.8279  0.3217  0.7261
  949MOL0     C27982   7.841   7.745   1.086  0.6673  0.4966 -0.4707
  949MOL0     O27983   7.824   7.830   1.197 -0.0898 -0.1379 -0.1988
  949MOL0     C27984   7.897   7.945   1.210  0.9599  0.0405  0.4731
  949MOL0     C27985   8.008   7.956   1.284  0.0209  0.9156 -0.1341
  949MOL0     C27986   8.085   8.068   1.283 -0.0629 -0.7154 -0.9691
  949MOL0     C27987   8.053   8.169   1.182  0.3245  0.2334 -0.4438
  949MOL0     O27988   8.113   8.286   1.199 -0.0423  0.4174 -0.7114
  949MOL0     C27989   8.223   8.307   1.109 -0.0566  0.6914 -0.3787
  949MOL0     C27990   8.225   8.450   1.051  0.6146  0.3554 -0.8434
  949MOL0     C27991   8.341   8.481   0.967 -1.5046 -0.8841  0.7322
  949MOL0     C27992   8.300   8.425   0.828  0.6714  0.7418 -0.4927
  949MOL0     C27993   8.415   8.426   0.722 -0.8168  0.8500  0.9450
  949MOL0     C27994   8.546   8.367   0.784 -0.5203 -0.2684 -0.3129
  949MOL0     C27995   8.666   8.462   0.816  0.2729  0.3523  0.2814
  949MOL0     C27996   8.776   8.393   0.888  1.1710 -0.2038  0.5254
  949MOL0     N27997   8.756   8.397   1.036  0.6077  0.4009  0.0197
  949MOL0     C27998   8.662   8.332   1.119 -0.5609 -0.4488 -0.0388
  949MOL0     C27999   8.674   8.397   1.239 -0.1123  0.2924  0.2295
  949MOL0     C28000   8.592   8.365   1.363 -0.6436 -0.5722 -0.0446
  949MOL0     C28001   8.489   8.481   1.379  0.2116  0.2296  0.7565
  949MOL0     C28002   8.373   8.429   1.467  0.3738 -0.6434  0.8301
  949MOL0     C28003   8.241   8.513   1.454 -0.5431 -0.0867 -0.5886
  949MOL0     O28004   8.158   8.462   1.559  0.9542 -0.6165 -0.1141
  949MOL0     C28005   8.025   8.509   1.552  0.0159  0.7076  0.7491
  949MOL0     C28006   7.969   8.620   1.469 -0.2674 -0.0400  0.4332
  949MOL0     C28007   7.844   8.675   1.503  1.0661 -0.1674  0.4390
  949MOL0     C28008   7.764   8.629   1.608  0.5939 -0.5292 -0.8603
  949MOL0     C28009   7.622   8.681   1.648 -0.8715 -0.0944 -0.1489
  949MOL0     O28010   7.576   8.782   1.563 -0.0713  0.5926 -0.3305
  949MOL0     C28011   7.469   8.858   1.590  0.7960 -0.9032 -0.4387
  949MOL0     C28012   7.450   8.961   1.490  0.0482 -0.9203 -1.0102
  949MOL0     C28013   7.331   9.050   1.499 -0.0019  0.1934 -0.7730
  949MOL0     C28014   7.244   9.033   1.613 -0.5344  0.5931  0.7877
  949MOL0     O28015   7.127   9.106   1.622  0.0139  0.8181  0.5388
  949MOL0     C28016   7.146   9.244   1.613 -0.7570 -0.6816 -0.2213
  949MOL0     C28017   7.013   9.305   1.606  0.0372  0.3211  0.4828
  949MOL0     C28018   6.909   9.250   1.705  0.1934  0.3218 -0.1780
  949MOL0     C28019   6.964   9.233   1.851  0.4410  0.4746 -0.9598
  949MOL0     C28020   6.850   9.176   1.940  1.2877  0.2706  0.4439
  949MOL0     C28021   6.884   9.134   2.085  0.5602 -0.0306 -0.2260
  949MOL0     C28022   6.962   9.229   2.176 -0.2778 -0.0665 -0.0431
  949MOL0     C28023   6.869   9.354   2.180  0.4752 -1.2040 -0.4241
  949MOL0    Cl28024   6.930   9.469   2.304 -0.1158  0.4959  0.1717
  949MOL0     C28025   7.270   8.936   1.706 -0.1862  0.0543  0.9543
  949MOL0     C28026   7.378   8.849   1.695  0.3694 -0.1846 -0.7224
  949MOL0     O28027   7.566   8.643   1.754 -0.8667  0.0725  0.6022
  949MOL0     C28028   7.810   8.522   1.678  0.1735 -1.0038  0.5050
  949MOL0     C28029   7.944   8.465   1.650 -0.0362  0.7922 -0.2520
  949MOL0     N28030   8.767   8.498   1.230 -0.5766 -0.0187  0.1426
  949MOL0     N28031   8.824   8.487   1.116  0.4718  0.4533 -0.5998
  949MOL0     C28032   7.932   8.171   1.119  0.5447 -0.0958  1.2145
  949MOL0     C28033   7.858   8.056   1.128 -0.7237 -0.1795  0.4509
  949MOL0     C28034   7.747   7.633   1.089 -0.5830 -0.0127 -0.4079
  949MOL0     C28035   7.613   7.657   1.112  0.2746  0.1277 -0.0993
  949MOL0     C28036   7.523   7.557   1.118  0.6860  0.0087  0.3842
  949MOL0     C28037   7.560   7.418   1.096  0.8900 -0.4039 -0.3271
  949MOL0     O28038   7.474   7.307   1.129 -0.0254 -0.2425  0.0521
  949MOL0     C28039   7.527   7.188   1.200 -0.2499 -0.7257 -0.5446
  949MOL0     C28040   7.493   7.188   1.351 -0.4766 -0.0710 -0.7382
  949MOL0     C28041   7.561   7.075   1.443 -0.5467  0.0953 -0.7748
  949MOL0     C28042   7.464   7.027   1.559 -0.4438 -0.2003  0.0958
  949MOL0     C28043   7.493   7.102   1.677 -0.2083  0.1740 -0.8025
  949MOL0     C28044   7.506   7.175   1.776  0.4477  0.8282  0.3555
  949MOL0     C28045   7.700   7.394   1.038 -0.6846 -0.4422 -0.6226
  949MOL0     C28046   7.794   7.500   1.048  0.4419 -0.4636  0.5927
  949MOL0     C28047   7.939   7.475   1.025  0.5034 -0.9125 -0.6800
  949MOL0     H28048   8.031   7.872   1.348 -0.3298 -0.2608 -1.5137
  949MOL0     H28049   8.159   8.077   1.362 -0.4527  2.9851 -0.8601
  949MOL0     H28050   8.315   8.297   1.167 -0.3023  0.8401  0.0430
  949MOL0     H28051   8.229   8.235   1.027  0.6857 -1.0722  1.1268
  949MOL0     H28052   8.232   8.527   1.128 -1.3472 -1.2426  1.0398
  949MOL0     H28053   8.133   8.464   0.993 -1.7545 -0.7215  2.3819
  949MOL0     H28054   8.432   8.444   1.016  0.8133 -0.9649 -3.1974
  949MOL0     H28055   8.347   8.590   0.967 -0.0004 -0.9247  2.4018
  949MOL0     H28056   8.268   8.321   0.837  0.4204  0.9512  1.4924
  949MOL0     H28057   8.217   8.491   0.801 -2.2130  0.2166  5.4309
  949MOL0     H28058   8.379   8.358   0.644 -1.1549  0.6157  1.2979
  949MOL0     H28059   8.434   8.519   0.668  0.9016 -0.7791 -1.4306
  949MOL0     H28060   8.522   8.304   0.871  0.4930 -0.6604 -0.3042
  949MOL0     H28061   8.570   8.277   0.727  0.8553 -1.6438  2.2297
  949MOL0     H28062   8.629   8.550   0.870  0.7721  0.9617 -0.3584
  949MOL0     H28063   8.703   8.484   0.716  0.2478 -0.3615  0.1069
  949MOL0     H28064   8.787   8.287   0.866  0.8463 -0.3014  0.8287
  949MOL0     H28065   8.871   8.445   0.871  0.7189  0.3821 -0.3025
  949MOL0     H28066   8.590   8.251   1.102 -1.9214  0.6989  0.0611
  949MOL0     H28067   8.533   8.275   1.345  2.2563 -2.0040 -3.9809
  949MOL0     H28068   8.665   8.359   1.444  0.4365 -1.6857 -1.0715
  949MOL0     H28069   8.535   8.573   1.416 -2.4790  1.3634  1.5019
  949MOL0     H28070   8.448   8.504   1.281 -0.2418  1.6503  1.2557
  949MOL0     H28071   8.401   8.439   1.573  2.1138  0.5137  0.2875
  949MOL0     H28072   8.346   8.330   1.429 -1.5682  0.9305 -2.2589
  949MOL0     H28073   8.191   8.508   1.357  1.5484  1.0907 -1.8061
  949MOL0     H28074   8.269   8.613   1.491  0.1342  0.0847 -1.5432
  949MOL0     H28075   8.028   8.669   1.392 -0.7083 -0.6134 -0.2767
  949MOL0     H28076   7.804   8.760   1.448  1.2029 -1.2201 -1.3626
  949MOL0     H28077   7.522   8.961   1.408  2.7370 -0.9599  1.2006
  949MOL0     H28078   7.296   9.109   1.415  1.5022  1.5943 -0.4634
  949MOL0     H28079   7.214   9.271   1.694  1.7607 -1.5401 -1.8935
  949MOL0     H28080   7.201   9.268   1.521  0.7646 -0.9773  0.5643
  949MOL0     H28081   7.029   9.413   1.614  8.2012 -0.0208 -2.1872
  949MOL0     H28082   6.981   9.292   1.503  0.3503 -1.1977  0.5589
  949MOL0     H28083   6.821   9.315   1.703  0.8612  1.2332 -1.1418
  949MOL0     H28084   6.870   9.157   1.663  0.0467  1.0876 -1.8548
  949MOL0     H28085   6.988   9.334   1.885 -2.9328  0.8155  0.9078
  949MOL0     H28086   7.051   9.166   1.853 -1.9426 -2.9091 -0.8240
  949MOL0     H28087   6.803   9.088   1.895  0.2535  0.7505  0.5468
  949MOL0     H28088   6.773   9.254   1.932  1.4183  0.2294 -3.5349
  949MOL0     H28089   6.790   9.109   2.135 -0.5814 -0.8602 -2.6656
  949MOL0     H28090   6.943   9.042   2.091  3.9475  1.8187 -2.0171
  949MOL0     H28091   7.053   9.251   2.119 -1.7753 -2.3538 -3.6309
  949MOL0     H28092   6.977   9.198   2.280  0.3101 -0.1200 -0.1397
  949MOL0     H28093   6.870   9.410   2.086  1.2070  2.5462  1.6327
  949MOL0     H28094   6.763   9.332   2.185  0.0547  0.7273 -0.0245
  949MOL0     H28095   7.208   8.941   1.795  0.7161  2.7795  1.5103
  949MOL0     H28096   7.401   8.773   1.769  1.9735 -0.3567 -1.3635
  949MOL0     H28097   7.750   8.478   1.757 -1.1884  1.0637  0.6771
  949MOL0     H28098   7.977   8.380   1.708  1.2433 -0.1868 -2.3111
  949MOL0     H28099   7.893   8.258   1.068  1.1859 -0.9923 -0.9249
  949MOL0     H28100   7.761   8.048   1.079 -1.0033 -0.7855  1.0835
  949MOL0     H28101   7.584   7.752   1.155  2.3280  0.5903  0.3995
  949MOL0     H28102   7.428   7.586   1.163  1.2807 -1.0630  2.5153
  949MOL0     H28103   7.634   7.194   1.180 -0.4451 -2.7381 -2.5643
  949MOL0     H28104   7.498   7.097   1.145  2.1271 -0.7268 -1.9405
  949MOL0     H28105   7.385   7.178   1.355 -0.6894  2.0480 -0.3231
  949MOL0     H28106   7.510   7.283   1.401  1.1042 -0.5742 -0.2293
  949MOL0     H28107   7.657   7.111   1.480 -1.7009 -0.2272  2.9464
  949MOL0     H28108   7.571   6.986   1.380 -0.8733 -0.4591 -0.0624
  949MOL0     H28109   7.356   7.037   1.547 -0.2990  1.7293  0.0177
  949MOL0     H28110   7.487   6.922   1.579 -1.3902 -0.4108  0.0874
  949MOL0     H28111   7.505   7.251   1.850  0.8225  0.6691  0.5250
  949MOL0     H28112   7.721   7.298   0.992  0.3739 -1.2798  1.4968
  949MOL0     H28113   8.004   7.547   1.074 -0.1627  0.3051 -1.5514
  949MOL0     H28114   7.965   7.379   1.071  2.5677  0.7296  1.8571
  949MOL0     H28115   7.967   7.477   0.919  0.1655  1.5795 -0.7761
  950MOL0     O28116   4.673   9.704   1.578  1.0936  0.2722  0.4382
  950MOL0     C28117   4.569   9.773   1.596  0.7443 -1.0957 -0.3866
  950MOL0     O28118   4.497   9.785   1.717 -0.2622  0.4128 -0.2879
  950MOL0     C28119   4.552   9.710   1.821 -0.0542  0.2612  0.1963
  950MOL0     C28120   4.517   9.569   1.841 -0.6106  0.2255 -0.6716
  950MOL0     C28121   4.589   9.491   1.935  0.6982  0.1938 -0.2697
  950MOL0     C28122   4.684   9.544   2.017  0.5231 -0.3292  0.1520
  950MOL0     O28123   4.776   9.468   2.081 -0.6339  0.2400 -0.5395
  950MOL0     C28124   4.791   9.331   2.038 -0.4104 -0.1535  0.2645
  950MOL0     C28125   4.893   9.269   2.134 -0.4110  0.2177  0.9780
  950MOL0     C28126   4.930   9.144   2.048  0.5754 -0.3041 -0.1583
  950MOL0     C28127   4.960   9.022   2.133  0.0846  0.6121 -0.0809
  950MOL0     C28128   4.842   8.941   2.206 -0.1402 -0.4580  0.1474
  950MOL0     C28129   4.883   8.848   2.318  0.5419 -0.3945 -1.1384
  950MOL0     C28130   4.976   8.732   2.259  0.5114 -0.7090 -1.1297
  950MOL0     C28131   4.978   8.601   2.335 -0.0385  0.5732  0.4444
  950MOL0     N28132   4.868   8.515   2.289  0.3214 -0.0346 -0.0969
  950MOL0     C28133   4.883   8.387   2.231  0.0043  0.4755 -0.2928
  950MOL0     C28134   4.761   8.358   2.168 -0.2084  0.8133 -0.0423
  950MOL0     C28135   4.708   8.234   2.114  0.9108  0.2915 -0.2759
  950MOL0     C28136   4.761   8.216   1.968  0.5302  0.2679 -0.3506
  950MOL0     C28137   4.908   8.165   1.970 -0.0510  0.4297 -0.1689
  950MOL0     C28138   4.970   8.146   1.830 -0.3718 -0.5819  0.8472
  950MOL0     O28139   4.994   8.272   1.755  0.7726 -0.3968 -0.1945
  950MOL0     C28140   5.055   8.264   1.626  0.5180 -0.5236  0.7823
  950MOL0     C28141   5.039   8.371   1.536  0.6776  0.0144  0.1228
  950MOL0     C28142   5.099   8.387   1.414 -0.3319  1.2620 -0.1238
  950MOL0     C28143   5.172   8.276   1.366  0.6198 -0.3681  0.3002
  950MOL0     C28144   5.253   8.273   1.245  0.3340  0.8621 -0.3930
  950MOL0     O28145   5.278   8.390   1.189  0.2953  0.1717 -0.0726
  950MOL0     C28146   5.354   8.393   1.069  0.0751 -0.2762 -0.6125
  950MOL0     C28147   5.489   8.364   1.068 -0.3432 -0.1816  0.4100
  950MOL0     C28148   5.562   8.390   0.950  0.0686  0.6718  1.1865
  950MOL0     C28149   5.503   8.424   0.831  0.3576 -0.2740  0.5102
  950MOL0     O28150   5.590   8.437   0.716  0.1760 -0.0042 -0.7308
  950MOL0     C28151   5.518   8.491   0.605 -0.1451 -0.6762 -0.3198
  950MOL0     C28152   5.608   8.545   0.492  0.2737 -0.0756  0.1019
  950MOL0     C28153   5.580   8.686   0.439 -0.9252 -0.2849  0.1245
  950MOL0     C28154   5.668   8.729   0.320 -0.6445 -0.0093  0.1874
  950MOL0     C28155   5.672   8.881   0.309  0.2208 -0.4395 -0.3021
  950MOL0     C28156   5.531   8.943   0.276  0.1172 -0.0379 -0.2025
  950MOL0     C28157   5.459   8.884   0.150 -0.8234  0.4280  0.7147
  950MOL0     C28158   5.522   8.916   0.018  0.4756 -0.1066  0.3011
  950MOL0    Cl28159   5.545   9.099   0.012 -0.2888 -0.0099  0.1638
  950MOL0     C28160   5.360   8.428   0.827 -0.2464  0.2079 -0.8435
  950MOL0     C28161   5.292   8.403   0.946  0.0686  0.3124 -0.4095
  950MOL0     O28162   5.295   8.168   1.206 -0.2971  0.5750 -0.1018
  950MOL0     C28163   5.172   8.157   1.443  0.5846 -1.0122 -0.5412
  950MOL0     C28164   5.116   8.149   1.578 -0.3284 -0.1683 -0.1842
  950MOL0     N28165   4.677   8.458   2.200 -0.0425 -0.2593  0.0773
  950MOL0     N28166   4.745   8.549   2.264 -0.1357  0.2485 -0.5952
  950MOL0     C28167   4.700   9.682   2.014 -1.3472 -0.0114  0.7577
  950MOL0     C28168   4.650   9.758   1.909  0.9063  0.0114 -0.9260
  950MOL0     C28169   4.523   9.861   1.477  0.0974  0.0909 -0.2506
  950MOL0     C28170   4.388   9.867   1.456 -0.3619 -0.1962 -0.1736
  950MOL0     C28171   4.338   9.944   1.348  0.3630  0.4730  0.1403
  950MOL0     C28172   4.423  10.013   1.258  1.7426 -0.3984 -0.0754
  950MOL0     O28173   4.391  10.086   1.148 -0.3539  0.3617 -0.4115
  950MOL0     C28174   4.261  10.146   1.118 -0.7672  0.1002 -0.4973
  950MOL0     C28175   4.284  10.299   1.155  0.7605  1.1170  0.2183
  950MOL0     C28176   4.371  10.368   1.051 -0.0966  0.5711 -0.4441
  950MOL0     C28177   4.302  10.415   0.928  0.3942  0.3869 -0.0011
  950MOL0     C28178   4.380  10.390   0.808 -0.9248  0.1630 -0.5308
  950MOL0     C28179   4.430  10.382   0.689 -0.3175 -1.3596 -0.6121
  950MOL0     C28180   4.551   9.993   1.271 -0.9587 -0.0128 -1.0594
  950MOL0     C28181   4.608   9.924   1.382  0.8064  0.1991 -1.0051
  950MOL0     C28182   4.760   9.934   1.401 -0.4871  0.1424  0.2268
  950MOL0     H28183   4.446   9.516   1.779  0.7350  1.2137 -3.1846
  950MOL0     H28184   4.552   9.392   1.959  0.7391  0.0598 -0.7506
  950MOL0     H28185   4.698   9.274   2.037 -0.7767  0.4157  1.1971
  950MOL0     H28186   4.837   9.335   1.938 -0.3998 -1.8846  0.1800
  950MOL0     H28187   4.850   9.249   2.232  1.7854  0.6266  2.0764
  950MOL0     H28188   4.979   9.334   2.153 -0.8749  0.2532  3.2485
  950MOL0     H28189   5.013   9.158   1.978  3.5447 -6.3623  1.4450
  950MOL0     H28190   4.837   9.104   2.006  0.5790 -0.4811  0.0025
  950MOL0     H28191   5.005   8.961   2.054 -1.0678 -0.0309 -0.2493
  950MOL0     H28192   5.034   9.040   2.213 -0.4071  3.4733 -0.1412
  950MOL0     H28193   4.787   9.018   2.261  2.3182  0.6619  1.1822
  950MOL0     H28194   4.782   8.889   2.131  1.3675  1.9705 -3.0035
  950MOL0     H28195   4.929   8.905   2.399  0.6533 -2.0331  0.0033
  950MOL0     H28196   4.790   8.801   2.352  0.2977 -0.6335 -2.0920
  950MOL0     H28197   5.077   8.772   2.253  0.4192 -0.4551 -1.0167
  950MOL0     H28198   4.951   8.709   2.155 -0.6840 -1.2838 -0.7387
  950MOL0     H28199   5.069   8.543   2.315  1.1264  3.1210 -2.5723
  950MOL0     H28200   4.978   8.624   2.442  1.7548 -1.7127  1.0211
  950MOL0     H28201   4.970   8.323   2.221  1.5450  1.9834  2.4310
  950MOL0     H28202   4.737   8.147   2.174 -4.4708  0.2640  2.9520
  950MOL0     H28203   4.599   8.235   2.121  1.0244  0.3959  3.6900
  950MOL0     H28204   4.698   8.147   1.913 -1.0246  0.9038  0.5459
  950MOL0     H28205   4.751   8.313   1.919 -0.9419  0.0379 -0.5341
  950MOL0     H28206   4.901   8.077   2.034  0.0851  0.2812 -0.3562
  950MOL0     H28207   4.962   8.243   2.023 -0.3978  0.7077 -0.2205
  950MOL0     H28208   4.900   8.092   1.765  1.3118 -0.8206 -0.8676
  950MOL0     H28209   5.067   8.096   1.840  0.5166 -0.0210 -3.2240
  950MOL0     H28210   4.989   8.465   1.559  0.1353 -0.3421  0.4393
  950MOL0     H28211   5.114   8.478   1.357  0.8404  0.0698 -1.8141
  950MOL0     H28212   5.535   8.339   1.163  0.5028 -0.1126  0.0276
  950MOL0     H28213   5.669   8.372   0.945 -0.0418 -0.4687 -5.0491
  950MOL0     H28214   5.453   8.415   0.562  0.3221 -1.7599  0.8149
  950MOL0     H28215   5.465   8.581   0.638 -0.7172 -1.2113  0.2346
  950MOL0     H28216   5.711   8.535   0.527 -0.6840 -2.7374  2.5847
  950MOL0     H28217   5.591   8.479   0.406 -4.7890  0.8996  0.0152
  950MOL0     H28218   5.475   8.693   0.408 -1.1514  0.1721  0.9779
  950MOL0     H28219   5.580   8.757   0.522  0.4820 -0.9946  0.7544
  950MOL0     H28220   5.651   8.678   0.225 -1.2233  1.7973 -0.7247
  950MOL0     H28221   5.763   8.684   0.351 -1.7107 -3.0972 -0.6912
  950MOL0     H28222   5.742   8.894   0.226  0.9559  3.0093  0.6892
  950MOL0     H28223   5.710   8.931   0.399  3.1188  2.6418 -3.0170
  950MOL0     H28224   5.467   8.922   0.362  2.2866  0.1762  1.5552
  950MOL0     H28225   5.550   9.050   0.262  1.0972 -0.4709 -2.7574
  950MOL0     H28226   5.353   8.912   0.155 -1.2474 -1.1278  0.8681
  950MOL0     H28227   5.464   8.776   0.163 -0.8482  0.4726  1.1021
  950MOL0     H28228   5.623   8.876   0.006  2.3172  4.2443 -0.3896
  950MOL0     H28229   5.457   8.895  -0.068 -1.0135 -1.2112  1.6338
  950MOL0     H28230   5.308   8.438   0.732 -0.1174  1.9660 -0.7676
  950MOL0     H28231   5.184   8.406   0.952 -0.1572 -3.0362 -1.1725
  950MOL0     H28232   5.216   8.069   1.398  0.6012 -0.9447 -0.6551
  950MOL0     H28233   5.128   8.051   1.623  0.0787 -0.7073 -1.4334
  950MOL0     H28234   4.786   9.714   2.072 -0.6450  1.1200 -0.8206
  950MOL0     H28235   4.683   9.861   1.903  1.9585 -0.3539 -1.6939
  950MOL0     H28236   4.328   9.824   1.535 -1.9129  2.0266 -0.0464
  950MOL0     H28237   4.230   9.953   1.338  0.4241  0.2962 -0.7669
  950MOL0     H28238   4.183  10.100   1.180 -0.8975  0.5666 -0.3122
  950MOL0     H28239   4.227  10.140   1.015  1.8609 -0.8464 -1.4102
  950MOL0     H28240   4.322  10.296   1.258 -2.4083 -1.9050  1.5033
  950MOL0     H28241   4.185  10.346   1.161 -0.3870 -0.7827 -2.2417
  950MOL0     H28242   4.460  10.308   1.033 -1.9032 -3.1022  1.5262
  950MOL0     H28243   4.397  10.462   1.100 -0.2489  2.2159 -3.2546
  950MOL0     H28244   4.207  10.361   0.924  0.0755  1.0110 -3.6075
  950MOL0     H28245   4.289  10.523   0.939  3.7888  1.2866 -3.0151
  950MOL0     H28246   4.478  10.392   0.594 -1.7840 -0.2484 -1.2776
  950MOL0     H28247   4.621  10.029   1.197  0.4941  3.7379  1.8339
  950MOL0     H28248   4.787   9.983   1.495  2.1075 -0.9148  0.1086
  950MOL0     H28249   4.818   9.842   1.393  1.8087  1.6407 -2.0805
  950MOL0     H28250   4.797   9.994   1.317 -1.1729 -0.9418 -0.8769
  951MOL0     O28251  11.300   3.359   3.696 -0.0764  0.9133  0.7077
  951MOL0     C28252  11.373   3.435   3.751 -0.0895  0.1869  0.0254
  951MOL0     O28253  11.463   3.400   3.858 -0.0821 -0.2696  0.1685
  951MOL0     C28254  11.481   3.270   3.903  0.8537  0.8037  0.3516
  951MOL0     C28255  11.473   3.160   3.828 -0.4414  1.2625  0.1432
  951MOL0     C28256  11.484   3.034   3.884 -0.2490 -0.6291 -0.1157
  951MOL0     C28257  11.510   3.018   4.022  0.1548 -0.6897  0.2108
  951MOL0     O28258  11.522   2.902   4.096  0.3058 -1.3497  0.7730
  951MOL0     C28259  11.534   2.790   4.011 -0.1427  1.3202 -0.2171
  951MOL0     C28260  11.553   2.669   4.097 -0.6450  1.1671 -0.1931
  951MOL0     C28261  11.435   2.637   4.188 -0.6930  0.5771 -0.3698
  951MOL0     C28262  11.344   2.510   4.156 -0.9345 -0.7746  0.1334
  951MOL0     C28263  11.204   2.508   4.214  0.5863  0.4897  0.3859
  951MOL0     C28264  11.108   2.457   4.109 -0.1807 -0.2344  0.2526
  951MOL0     C28265  11.139   2.310   4.082 -1.4271  0.3778 -0.0714
  951MOL0     C28266  11.031   2.250   3.983 -1.0449 -0.3180 -0.5993
  951MOL0     N28267  11.104   2.175   3.882  0.3162 -0.0550 -1.4302
  951MOL0     C28268  11.114   2.039   3.872 -0.4384  0.3000  0.5274
  951MOL0     C28269  11.181   2.015   3.749  0.3128 -0.0113 -0.9465
  951MOL0     C28270  11.184   1.879   3.675 -0.2281  0.3011 -0.4461
  951MOL0     C28271  11.139   1.890   3.526  0.8182 -0.3751  0.7315
  951MOL0     C28272  11.097   1.752   3.479  0.3251 -0.0077 -0.6739
  951MOL0     C28273  11.223   1.664   3.459 -0.2384  0.3208 -1.4128
  951MOL0     O28274  11.180   1.531   3.478 -0.1916 -0.4791 -0.2216
  951MOL0     C28275  11.113   1.471   3.378  0.2759  0.3592  0.3877
  951MOL0     C28276  11.076   1.516   3.245 -0.2927  0.4457 -1.0333
  951MOL0     C28277  11.000   1.438   3.161 -0.0111  0.0566  0.9547
  951MOL0     C28278  10.955   1.309   3.200  0.7090  0.9932  0.4224
  951MOL0     C28279  10.880   1.229   3.106  0.0391 -0.3383 -0.4385
  951MOL0     O28280  10.825   1.116   3.153 -0.3184  0.4901  1.0617
  951MOL0     C28281  10.727   1.057   3.076  0.2715 -0.0772  0.4274
  951MOL0     C28282  10.756   1.001   2.955 -1.2541  0.0303 -0.9021
  951MOL0     C28283  10.651   0.964   2.866  0.3256  0.8927  0.0368
  951MOL0     C28284  10.522   0.984   2.909 -0.8660  0.3295  0.1523
  951MOL0     O28285  10.418   0.963   2.822  0.0009 -0.4826  0.1304
  951MOL0     C28286  10.430   1.012   2.687 -0.3787  0.1155 -0.0760
  951MOL0     C28287  10.436   0.892   2.592  0.7582 -0.2131 -0.3057
  951MOL0     C28288  10.305   0.885   2.515  0.2458  0.6039 -0.2887
  951MOL0     C28289  10.317   0.948   2.369 -0.8520  0.9611  0.0033
  951MOL0     C28290  10.183   0.911   2.303 -0.4123 -0.0434 -0.1764
  951MOL0     C28291  10.169   0.980   2.169 -0.6312 -0.6087  0.5423
  951MOL0     C28292  10.027   1.006   2.124 -0.2844 -0.1842  0.0050
  951MOL0     C28293  10.006   1.040   1.978 -0.8432  0.0186  1.1396
  951MOL0    Cl28294  10.058   1.204   1.949  0.9097 -0.0613 -0.0313
  951MOL0     C28295  10.491   1.045   3.032  0.3812  0.7225  0.4331
  951MOL0     C28296  10.592   1.071   3.119 -0.6604 -0.1857  0.7146
  951MOL0     O28297  10.870   1.271   2.994  0.5444 -0.5959  0.2625
  951MOL0     C28298  10.978   1.274   3.332  0.0703  0.6091 -0.0205
  951MOL0     C28299  11.057   1.349   3.410  0.7337 -0.4160  0.0920
  951MOL0     N28300  11.210   2.140   3.702  0.3206  0.3348  0.3176
  951MOL0     N28301  11.171   2.231   3.780 -0.2407 -0.2897 -0.9797
  951MOL0     C28302  11.537   3.134   4.091 -0.1141 -1.3333  0.1648
  951MOL0     C28303  11.522   3.263   4.033  0.4924  0.6896  0.8359
  951MOL0     C28304  11.395   3.571   3.693  0.3263 -0.9486 -0.6586
  951MOL0     C28305  11.516   3.632   3.719 -0.1842 -0.4295  0.5673
  951MOL0     C28306  11.553   3.752   3.660  0.1745  0.3024  0.3677
  951MOL0     C28307  11.472   3.820   3.567 -0.3178 -0.1874  0.5360
  951MOL0     O28308  11.511   3.940   3.521  0.2167 -0.4689 -0.7918
  951MOL0     C28309  11.427   4.015   3.423 -1.0646 -0.7064 -0.3934
  951MOL0     C28310  11.442   4.170   3.453 -0.2454 -0.0176 -0.5030
  951MOL0     C28311  11.586   4.211   3.411 -0.3351  0.9105  0.1047
  951MOL0     C28312  11.685   4.197   3.532  0.0019  0.0056 -0.0678
  951MOL0     C28313  11.721   4.326   3.589 -0.5547 -0.3504  0.3039
  951MOL0     C28314  11.748   4.436   3.638 -0.9484 -0.3606 -0.6096
  951MOL0     C28315  11.349   3.756   3.537  0.4446 -0.0449 -0.1986
  951MOL0     C28316  11.307   3.637   3.603 -0.3470 -1.0224  0.3285
  951MOL0     C28317  11.171   3.573   3.576 -0.2460 -0.1127  0.3433
  951MOL0     H28318  11.434   3.164   3.727  2.8013 -0.1641 -1.2990
  951MOL0     H28319  11.467   2.948   3.820 -2.0476  0.4279 -1.1421
  951MOL0     H28320  11.446   2.775   3.948 -0.9937 -0.5952  1.3461
  951MOL0     H28321  11.629   2.796   3.957 -0.0039 -1.8894 -0.4904
  951MOL0     H28322  11.626   2.679   4.178 -1.0897  0.7079  0.2667
  951MOL0     H28323  11.587   2.584   4.037  0.9409  2.5073 -1.2832
  951MOL0     H28324  11.365   2.721   4.184 -0.3691  0.8108 -1.3887
  951MOL0     H28325  11.479   2.633   4.288 -0.6284 -0.9486 -0.4379
  951MOL0     H28326  11.333   2.508   4.047  0.9518  0.8073 -0.1448
  951MOL0     H28327  11.396   2.415   4.172  1.8219  0.6737  0.3032
  951MOL0     H28328  11.192   2.457   4.310  3.3683  0.0784  0.5971
  951MOL0     H28329  11.180   2.610   4.245 -0.1609  0.5212 -0.2432
  951MOL0     H28330  11.007   2.471   4.146 -0.4238 -2.7576  0.7821
  951MOL0     H28331  11.111   2.508   4.013  2.0240 -0.2144  0.2677
  951MOL0     H28332  11.142   2.270   4.184 -2.9834  2.9033  1.0818
  951MOL0     H28333  11.235   2.287   4.035 -2.4813 -2.8583 -0.8944
  951MOL0     H28334  10.953   2.184   4.023 -0.4937 -1.3823 -1.2476
  951MOL0     H28335  10.981   2.335   3.935  0.7187  1.2546  0.2363
  951MOL0     H28336  11.069   1.969   3.942 -0.4254  0.5367  0.7784
  951MOL0     H28337  11.291   1.855   3.675 -0.5090 -1.1638  1.6132
  951MOL0     H28338  11.122   1.803   3.723 -1.1640  0.2535 -1.6845
  951MOL0     H28339  11.046   1.945   3.507 -0.1012 -2.7433 -2.4879
  951MOL0     H28340  11.210   1.937   3.459 -1.0919 -3.0685 -3.6067
  951MOL0     H28341  11.044   1.767   3.385  1.1412 -0.1331 -1.1664
  951MOL0     H28342  11.023   1.714   3.551  4.1405 -3.2178  2.0147
  951MOL0     H28343  11.291   1.683   3.544 -2.3019  0.9655  0.1755
  951MOL0     H28344  11.282   1.705   3.377  1.5007  1.6360  0.3663
  951MOL0     H28345  11.104   1.616   3.215  1.5998  0.5798  0.9071
  951MOL0     H28346  10.978   1.479   3.063  1.0220 -3.7698 -1.0855
  951MOL0     H28347  10.855   0.986   2.913 -0.8266 -2.7331  0.7966
  951MOL0     H28348  10.688   0.907   2.782 -1.7923  0.1272 -0.4180
  951MOL0     H28349  10.353   1.084   2.660  1.2138  0.5362 -4.2282
  951MOL0     H28350  10.524   1.064   2.670 -0.0136 -0.7485 -0.7727
  951MOL0     H28351  10.509   0.904   2.510  1.7000 -1.1592  0.3551
  951MOL0     H28352  10.459   0.804   2.652  0.8695  0.8457  1.2456
  951MOL0     H28353  10.286   0.778   2.512 -1.8589  0.6757  3.6629
  951MOL0     H28354  10.220   0.934   2.564 -0.5646 -1.0221 -0.0036
  951MOL0     H28355  10.396   0.903   2.307 -1.1268 -4.1155  2.7499
  951MOL0     H28356  10.318   1.056   2.385 -0.9867  0.4493  4.6227
  951MOL0     H28357  10.099   0.934   2.370 -0.7495 -0.5403 -0.4158
  951MOL0     H28358  10.173   0.805   2.276 -0.8704  0.2242 -1.0999
  951MOL0     H28359  10.214   1.077   2.194 -0.5162 -0.6383  0.4515
  951MOL0     H28360  10.229   0.939   2.088 -0.8137  1.6514 -0.8135
  951MOL0     H28361   9.986   1.081   2.192  0.3819  2.4830 -2.3426
  951MOL0     H28362   9.963   0.918   2.139 -0.3782  0.2015  2.1915
  951MOL0     H28363  10.069   0.976   1.915  1.6693  3.4731 -0.1818
  951MOL0     H28364   9.904   1.033   1.939  0.4276 -1.4596 -2.2546
  951MOL0     H28365  10.389   1.067   3.063  0.2018 -1.8535  1.9151
  951MOL0     H28366  10.584   1.099   3.224  2.3320  0.4073  0.8740
  951MOL0     H28367  10.939   1.178   3.363  1.7795 -0.2982 -0.5594
  951MOL0     H28368  11.064   1.307   3.510 -0.4415  1.9393  1.2628
  951MOL0     H28369  11.569   3.118   4.193  1.1732 -1.3402 -0.2302
  951MOL0     H28370  11.560   3.353   4.081 -0.8570  0.0610  3.3119
  951MOL0     H28371  11.581   3.584   3.791 -1.0058 -4.9281 -1.4020
  951MOL0     H28372  11.641   3.807   3.693  1.0162 -1.1066  0.5377
  951MOL0     H28373  11.321   3.995   3.441 -1.0364 -2.4266 -1.8561
  951MOL0     H28374  11.454   3.993   3.320 -2.4176  1.6626 -1.3119
  951MOL0     H28375  11.417   4.190   3.557 -1.6339 -2.9460 -0.1709
  951MOL0     H28376  11.362   4.205   3.387  0.8084  1.7045 -0.9306
  951MOL0     H28377  11.597   4.315   3.379 -1.2414  1.4959  1.6101
  951MOL0     H28378  11.634   4.142   3.340 -0.1710  1.3424 -0.2129
  951MOL0     H28379  11.638   4.151   3.620 -3.1644  3.1544  0.1167
  951MOL0     H28380  11.769   4.142   3.489 -1.3387 -1.9969 -0.3043
  951MOL0     H28381  11.762   4.533   3.680  3.1207  1.0084 -4.3065
  951MOL0     H28382  11.270   3.795   3.474  1.3337 -0.5038 -1.6612
  951MOL0     H28383  11.106   3.649   3.529  0.8946  0.6776  0.0111
  951MOL0     H28384  11.190   3.503   3.494 -0.8395  2.2612 -1.9681
  951MOL0     H28385  11.125   3.519   3.659  2.0888 -2.6171  0.1345
  952MOL0     O28386   2.720   1.163   7.911  0.3355 -0.0762 -0.1053
  952MOL0     C28387   2.825   1.157   7.853  0.0902  0.4470  0.7243
  952MOL0     O28388   2.840   1.109   7.729  0.1288 -0.1539 -0.1102
  952MOL0     C28389   2.783   0.992   7.685  0.2367 -0.7703 -1.2189
  952MOL0     C28390   2.708   0.903   7.765 -0.1650  1.2671  1.0365
  952MOL0     C28391   2.650   0.792   7.701  0.2784  0.4117  0.0296
  952MOL0     C28392   2.653   0.774   7.565  0.5519 -0.0060  0.6177
  952MOL0     O28393   2.589   0.675   7.495  0.0578  0.0159 -0.8401
  952MOL0     C28394   2.503   0.589   7.564 -0.0329  0.0796  0.0070
  952MOL0     C28395   2.421   0.507   7.471  0.9866 -0.9581  0.2448
  952MOL0     C28396   2.517   0.415   7.399 -0.0316  1.0463 -0.2375
  952MOL0     C28397   2.450   0.367   7.266  0.6912 -0.2285  0.1950
  952MOL0     C28398   2.553   0.309   7.164 -0.4975  0.2717  0.2829
  952MOL0     C28399   2.496   0.220   7.047 -0.0127 -0.1920 -0.0962
  952MOL0     C28400   2.594   0.155   6.964  0.2112  0.6189  0.0618
  952MOL0     C28401   2.532   0.054   6.867 -1.1027 -0.0968 -0.3341
  952MOL0     N28402   2.619   0.027   6.752  0.0769 -0.4018  0.2916
  952MOL0     C28403   2.623   0.101   6.633 -0.2369  0.3139  0.9437
  952MOL0     C28404   2.701   0.019   6.557 -0.4210  0.1355 -0.3026
  952MOL0     C28405   2.743   0.039   6.419  0.2123  1.2910  0.4523
  952MOL0     C28406   2.759   0.184   6.360  0.8060  0.3510  0.2656
  952MOL0     C28407   2.891   0.264   6.397 -0.2543  0.0376  0.2148
  952MOL0     C28408   2.885   0.413   6.326  0.6824 -0.0456  0.0017
  952MOL0     O28409   2.846   0.399   6.188 -0.6545 -0.2315 -0.1822
  952MOL0     C28410   2.937   0.390   6.084 -0.5184  0.0327 -0.1043
  952MOL0     C28411   3.073   0.368   6.104 -0.8393 -0.0236 -0.0831
  952MOL0     C28412   3.153   0.355   5.997  0.0351  0.1307  0.7306
  952MOL0     C28413   3.104   0.357   5.866  0.3960  0.2864 -0.5726
  952MOL0     C28414   3.194   0.341   5.752  0.7277 -0.7087  0.1710
  952MOL0     O28415   3.133   0.368   5.636 -0.4438 -0.1057 -0.0636
  952MOL0     C28416   3.209   0.337   5.520  0.9049 -0.1600  0.1309
  952MOL0     C28417   3.219   0.206   5.479  0.0317 -1.1076  0.3464
  952MOL0     C28418   3.311   0.166   5.380 -0.3519  0.5193  0.8646
  952MOL0     C28419   3.405   0.265   5.321  0.1497 -0.1710  0.4104
  952MOL0     O28420   3.490   0.228   5.219  0.7744 -0.0097 -0.8534
  952MOL0     C28421   3.595   0.142   5.256 -0.1541  0.9623 -0.1077
  952MOL0     C28422   3.667   0.169   5.390  0.0221  0.0625  0.2293
  952MOL0     C28423   3.739   0.294   5.393  0.3219  0.2179 -0.6614
  952MOL0     C28424   3.801   0.319   5.534  0.7032  0.5125 -0.3681
  952MOL0     C28425   3.901   0.204   5.584 -0.5644 -0.1740 -1.0856
  952MOL0     C28426   3.964   0.226   5.729  0.7895  0.5089 -0.4645
  952MOL0     C28427   4.046   0.359   5.757 -0.4593  0.6585  0.3927
  952MOL0     C28428   4.073   0.387   5.901 -0.1016  0.1351 -0.2098
  952MOL0    Cl28429   4.040   0.247   6.006  0.0756 -0.2222 -0.6463
  952MOL0     C28430   3.384   0.393   5.357 -0.2953 -0.0112 -0.0426
  952MOL0     C28431   3.283   0.436   5.450 -0.1004  0.2083  0.1825
  952MOL0     O28432   3.311   0.293   5.763  0.1959  0.0584 -0.0893
  952MOL0     C28433   2.974   0.405   5.849 -0.1154 -1.1746  0.3967
  952MOL0     C28434   2.891   0.417   5.957 -0.4801 -0.8395 -0.5768
  952MOL0     N28435   2.733  -0.095   6.629  0.5002  0.5877  0.1966
  952MOL0     N28436   2.695  -0.085   6.752  0.2824  0.0194  0.0299
  952MOL0     C28437   2.737   0.861   7.493  0.1074 -0.5026 -0.1381
  952MOL0     C28438   2.801   0.974   7.550  0.1553  1.2851  1.3105
  952MOL0     C28439   2.933   1.238   7.919 -0.4655  0.1080 -0.0288
  952MOL0     C28440   2.999   1.326   7.838 -0.0587  0.4061 -0.5748
  952MOL0     C28441   3.093   1.411   7.907  0.0828  0.3337 -0.5126
  952MOL0     C28442   3.112   1.410   8.046 -1.2404 -1.1174 -0.0504
  952MOL0     O28443   3.205   1.504   8.093  0.1200  0.7771 -0.0389
  952MOL0     C28444   3.176   1.579   8.213 -0.3361  0.5144 -0.4660
  952MOL0     C28445   3.071   1.680   8.194  0.5708  0.1181 -0.4125
  952MOL0     C28446   2.929   1.645   8.243  0.6100 -0.6440  0.3614
  952MOL0     C28447   2.850   1.782   8.244 -0.9341  0.4429 -0.3524
  952MOL0     C28448   2.709   1.783   8.283  0.5253 -1.2196 -0.5519
  952MOL0     C28449   2.596   1.780   8.326  0.3850  0.3814 -0.0416
  952MOL0     C28450   3.032   1.321   8.126 -1.8258 -0.5517  0.2459
  952MOL0     C28451   2.959   1.221   8.063  0.0604  0.4358  0.8310
  952MOL0     C28452   2.899   1.106   8.147 -0.8292 -1.1983  0.2535
  952MOL0     H28453   2.710   0.923   7.871  0.6819  0.3124  1.2191
  952MOL0     H28454   2.592   0.729   7.768  2.0462 -0.0977  1.1627
  952MOL0     H28455   2.549   0.535   7.647  2.4152  0.5037 -1.0103
  952MOL0     H28456   2.424   0.642   7.619 -2.7861 -2.9966 -0.6464
  952MOL0     H28457   2.373   0.578   7.403  3.7672  0.0288 -0.8708
  952MOL0     H28458   2.342   0.441   7.506 -1.0568  0.9268 -0.5879
  952MOL0     H28459   2.545   0.324   7.453  1.9965  1.9118  0.2633
  952MOL0     H28460   2.603   0.477   7.372 -0.1759  2.5692  2.4942
  952MOL0     H28461   2.391   0.287   7.311  1.2879 -0.0361  1.3611
  952MOL0     H28462   2.391   0.446   7.218  2.3306  1.5039  0.8936
  952MOL0     H28463   2.631   0.381   7.135  3.4724 -3.7810 -0.2216
  952MOL0     H28464   2.601   0.240   7.234 -3.6660 -3.1126 -0.6331
  952MOL0     H28465   2.448   0.134   7.096  1.3407 -1.5558 -1.0702
  952MOL0     H28466   2.432   0.285   6.987  1.1063  1.4429  0.4150
  952MOL0     H28467   2.652   0.096   7.034 -1.9216 -1.2409  0.3858
  952MOL0     H28468   2.661   0.224   6.912  1.8943  0.8481  2.3895
  952MOL0     H28469   2.514  -0.043   6.914  0.6768 -0.3562 -0.1140
  952MOL0     H28470   2.444   0.096   6.817 -0.4975 -0.2951 -1.6237
  952MOL0     H28471   2.575   0.196   6.614 -0.0035  0.3783  0.6689
  952MOL0     H28472   2.833  -0.023   6.411 -0.9586 -0.2764 -1.7419
  952MOL0     H28473   2.671  -0.016   6.358  0.3341  2.3148 -0.6457
  952MOL0     H28474   2.755   0.168   6.252  0.5069 -0.6587  0.4190
  952MOL0     H28475   2.681   0.256   6.384  0.3738  0.3147 -0.9489
  952MOL0     H28476   2.981   0.215   6.359 -0.4773  1.7165 -2.7472
  952MOL0     H28477   2.913   0.269   6.504  2.0034  1.7677 -0.2613
  952MOL0     H28478   2.983   0.461   6.332 -0.4410  2.2604  1.0158
  952MOL0     H28479   2.813   0.471   6.384 -0.2081  1.2826 -2.2938
  952MOL0     H28480   3.115   0.357   6.203  0.5599  0.0472 -0.6464
  952MOL0     H28481   3.247   0.306   6.021  1.1429  1.5324 -0.5763
  952MOL0     H28482   3.161   0.120   5.513  0.3446 -2.4648 -2.2873
  952MOL0     H28483   3.318   0.065   5.343  0.2770  0.1927  1.8425
  952MOL0     H28484   3.548   0.048   5.284  2.1065  0.4452  2.2988
  952MOL0     H28485   3.663   0.138   5.171 -2.7986 -0.6437 -2.3047
  952MOL0     H28486   3.597   0.165   5.474 -3.3143  2.4791 -2.1554
  952MOL0     H28487   3.741   0.089   5.398  1.4004  1.1420 -1.0832
  952MOL0     H28488   3.821   0.296   5.321  1.2029 -1.3076  0.2609
  952MOL0     H28489   3.672   0.376   5.364  1.2776  1.1534 -0.3036
  952MOL0     H28490   3.730   0.345   5.614  0.7037 -0.3821 -0.0640
  952MOL0     H28491   3.866   0.407   5.528  1.2542  0.2628  1.2733
  952MOL0     H28492   3.973   0.198   5.502  1.2178  1.1319  0.2946
  952MOL0     H28493   3.855   0.105   5.577 -0.4391 -0.1817 -1.8395
  952MOL0     H28494   3.896   0.213   5.814  1.5881 -1.1597 -0.0513
  952MOL0     H28495   4.025   0.136   5.739 -1.3619 -1.0325 -0.4800
  952MOL0     H28496   3.998   0.452   5.725 -2.5632 -0.5121 -0.0297
  952MOL0     H28497   4.137   0.342   5.699  1.5861 -1.7051  3.9214
  952MOL0     H28498   4.170   0.433   5.917  0.7461 -0.9755 -1.7912
  952MOL0     H28499   4.002   0.457   5.946 -0.4860  0.0757 -0.7059
  952MOL0     H28500   3.445   0.474   5.319 -2.2081  1.4479 -0.1648
  952MOL0     H28501   3.250   0.539   5.459 -0.3011  0.8166 -4.7799
  952MOL0     H28502   2.930   0.416   5.750 -3.2286 -2.2506  1.5470
  952MOL0     H28503   2.790   0.453   5.942  0.2021  1.0515 -0.9300
  952MOL0     H28504   2.749   0.829   7.390 -1.9381  1.9656 -1.2565
  952MOL0     H28505   2.860   1.054   7.505  1.3965  1.2775  2.8716
  952MOL0     H28506   2.980   1.330   7.732  0.3499  0.7841 -0.6382
  952MOL0     H28507   3.165   1.470   7.851 -1.4791  1.8120 -1.0752
  952MOL0     H28508   3.269   1.622   8.252  0.5535  0.2359 -2.1690
  952MOL0     H28509   3.128   1.511   8.284  1.3486 -0.2795 -0.0395
  952MOL0     H28510   3.063   1.695   8.086 -0.3688 -2.2215 -0.7103
  952MOL0     H28511   3.111   1.774   8.234  1.4498 -0.1019 -0.7552
  952MOL0     H28512   2.927   1.607   8.346 -1.7518 -3.8425 -0.6963
  952MOL0     H28513   2.881   1.565   8.186 -2.8282  0.6935  1.1450
  952MOL0     H28514   2.900   1.852   8.312 -0.7152  0.5184 -0.5872
  952MOL0     H28515   2.858   1.831   8.147 -0.3797  2.2981  0.5762
  952MOL0     H28516   2.492   1.800   8.342  0.0477  0.8727 -2.4465
  952MOL0     H28517   3.064   1.298   8.227 -0.1778 -5.9936 -1.1706
  952MOL0     H28518   2.899   1.015   8.085  2.4751 -0.3702 -1.1801
  952MOL0     H28519   2.951   1.092   8.242  1.0886 -0.7154 -0.6796
  952MOL0     H28520   2.794   1.131   8.163 -0.7009  1.4993 -2.2984
  953MOL0     O28521   5.945   7.712   5.601  0.2933 -0.9536  0.1029
  953MOL0     C28522   5.964   7.630   5.514 -1.0914  0.2641  0.2235
  953MOL0     O28523   6.088   7.581   5.475  0.0434 -0.5715 -0.2079
  953MOL0     C28524   6.194   7.625   5.549 -0.4479 -0.1951  0.3066
  953MOL0     C28525   6.262   7.550   5.644 -0.0825 -0.1850 -0.5388
  953MOL0     C28526   6.380   7.594   5.700 -0.7130  1.5230  0.6392
  953MOL0     C28527   6.435   7.724   5.665 -1.0314 -0.3062 -0.3013
  953MOL0     O28528   6.557   7.762   5.728 -0.5411  0.3967  0.2833
  953MOL0     C28529   6.593   7.894   5.747 -0.6145 -0.1907 -0.6053
  953MOL0     C28530   6.743   7.895   5.760  0.1838 -0.8145  0.2315
  953MOL0     C28531   6.801   8.027   5.815  0.3275 -0.4476  0.5440
  953MOL0     C28532   6.805   8.129   5.700 -0.4318 -0.6780 -0.4962
  953MOL0     C28533   6.856   8.267   5.748 -0.2405  0.7547 -0.4591
  953MOL0     C28534   6.766   8.349   5.845  0.3738 -0.3321  0.0329
  953MOL0     C28535   6.818   8.487   5.886  0.4260  0.3422 -0.8339
  953MOL0     C28536   6.729   8.548   5.997  0.3012  0.0227  0.4584
  953MOL0     N28537   6.769   8.677   6.047  0.4185 -1.2532 -0.0790
  953MOL0     C28538   6.786   8.689   6.183  0.0187 -0.3413  0.0749
  953MOL0     C28539   6.844   8.814   6.202  0.1916  0.9912  0.0963
  953MOL0     C28540   6.885   8.878   6.329  0.2855  0.5303  0.0334
  953MOL0     C28541   6.835   9.013   6.352  0.7697 -0.6350 -0.3808
  953MOL0     C28542   6.910   9.079   6.473  0.2067  0.1777 -0.3314
  953MOL0     C28543   6.881   9.224   6.506  0.2360 -0.3774 -0.2505
  953MOL0     O28544   6.918   9.314   6.405  0.2827  0.8193 -0.1426
  953MOL0     C28545   7.045   9.364   6.386  0.6437 -0.2470  1.1930
  953MOL0     C28546   7.158   9.308   6.449 -0.9416  0.5502 -0.1584
  953MOL0     C28547   7.289   9.355   6.413  0.6824  0.7237 -0.7405
  953MOL0     C28548   7.318   9.442   6.317  0.4350 -0.5613  2.2901
  953MOL0     C28549   7.454   9.479   6.278 -1.0985  0.6776  0.6404
  953MOL0     O28550   7.553   9.393   6.318 -0.5025 -0.3609 -0.3814
  953MOL0     C28551   7.681   9.421   6.272 -0.0038 -0.0189  0.4816
  953MOL0     C28552   7.712   9.433   6.137 -0.3549  0.0620 -0.4761
  953MOL0     C28553   7.846   9.472   6.090  0.4193 -1.1676 -0.2920
  953MOL0     C28554   7.949   9.498   6.183  0.2247  0.5054 -0.1133
  953MOL0     O28555   8.075   9.549   6.143 -0.2512 -0.1073 -0.5845
  953MOL0     C28556   8.188   9.558   6.234 -0.1887  0.6137  0.3304
  953MOL0     C28557   8.313   9.545   6.150  0.2352  0.7970  0.2195
  953MOL0     C28558   8.382   9.403   6.179  0.4135  0.3158  1.3122
  953MOL0     C28559   8.522   9.399   6.097 -0.4384 -0.4830 -0.3710
  953MOL0     C28560   8.594   9.267   6.085  0.5407  0.0902 -0.0102
  953MOL0     C28561   8.513   9.139   6.083  0.9930 -0.2375  0.7880
  953MOL0     C28562   8.597   9.007   6.072  0.3185  0.2111 -0.3804
  953MOL0     C28563   8.500   8.886   6.111  0.3361 -0.5076  0.7956
  953MOL0    Cl28564   8.437   8.877   6.278 -0.0471  0.0101 -0.6179
  953MOL0     C28565   7.916   9.480   6.316  0.3779 -1.1690 -0.0901
  953MOL0     C28566   7.786   9.442   6.357 -0.0739  0.2848 -0.7019
  953MOL0     O28567   7.476   9.578   6.215  0.5522 -1.2834 -0.5191
  953MOL0     C28568   7.200   9.497   6.252  0.7739  0.7315 -0.0500
  953MOL0     C28569   7.072   9.446   6.280  0.1054 -0.1755  0.7912
  953MOL0     N28570   6.861   8.875   6.078  0.8391  1.2610 -1.5945
  953MOL0     N28571   6.807   8.792   5.980 -0.0166 -0.0628 -0.0717
  953MOL0     C28572   6.360   7.795   5.572  0.5666 -1.4429  0.3291
  953MOL0     C28573   6.240   7.752   5.521 -0.5183 -0.3311  0.1563
  953MOL0     C28574   5.847   7.601   5.427  0.2760  1.1988 -0.0148
  953MOL0     C28575   5.716   7.635   5.487 -0.6160 -0.3646 -0.2899
  953MOL0     C28576   5.596   7.609   5.434  0.2709  0.2281 -0.4835
  953MOL0     C28577   5.589   7.538   5.314 -0.5117  0.0494 -0.7317
  953MOL0     O28578   5.471   7.499   5.263 -0.5692  0.5786 -0.2504
  953MOL0     C28579   5.376   7.601   5.240  0.0168 -0.1652  0.9939
  953MOL0     C28580   5.358   7.620   5.092  0.0690 -0.2045  0.0571
  953MOL0     C28581   5.293   7.750   5.047  0.3409 -0.0010  0.2590
  953MOL0     C28582   5.163   7.775   5.120  0.0195 -0.0540  0.0827
  953MOL0     C28583   5.109   7.910   5.080 -0.9147 -0.3980  0.0182
  953MOL0     C28584   5.051   8.021   5.062  0.5520  0.8916 -1.1108
  953MOL0     C28585   5.700   7.499   5.250 -1.0914  0.4054 -0.6710
  953MOL0     C28586   5.832   7.527   5.304 -0.6766 -0.7368  0.5808
  953MOL0     C28587   5.954   7.472   5.243 -0.0172 -0.3309  1.1262
  953MOL0     H28588   6.214   7.456   5.666 -2.3825  1.2718  1.0572
  953MOL0     H28589   6.442   7.542   5.773  1.0016 -0.0360 -1.7712
  953MOL0     H28590   6.546   7.957   5.670 -1.5162 -2.2115 -1.7919
  953MOL0     H28591   6.555   7.922   5.845 -2.3318 -0.2186 -1.2249
  953MOL0     H28592   6.787   7.882   5.661  0.0215  1.0850 -0.1302
  953MOL0     H28593   6.781   7.811   5.820 -0.7767 -2.7958 -1.7950
  953MOL0     H28594   6.901   8.014   5.856 -1.0374  0.2395  4.4659
  953MOL0     H28595   6.739   8.067   5.896 -2.7851 -2.8476 -0.4112
  953MOL0     H28596   6.879   8.108   5.622  1.4552  3.2472 -0.0272
  953MOL0     H28597   6.702   8.132   5.663  0.3735  1.0390 -2.8486
  953MOL0     H28598   6.951   8.244   5.796  0.1486  3.1908  0.0501
  953MOL0     H28599   6.872   8.341   5.669 -3.0979  0.2054 -1.7051
  953MOL0     H28600   6.673   8.356   5.788 -0.3521 -1.8170  0.9884
  953MOL0     H28601   6.727   8.304   5.936 -2.2208  1.6649  0.0526
  953MOL0     H28602   6.808   8.565   5.811 -4.4416  1.8678  1.0175
  953MOL0     H28603   6.922   8.495   5.921  1.4785  0.1227 -3.6268
  953MOL0     H28604   6.625   8.567   5.966 -0.3357 -0.6602  2.0567
  953MOL0     H28605   6.702   8.483   6.080  0.6341  0.8210  1.2126
  953MOL0     H28606   6.760   8.622   6.264  1.9374 -2.3458 -0.8584
  953MOL0     H28607   6.857   8.817   6.416 -1.9482 -0.2114 -1.1449
  953MOL0     H28608   6.993   8.894   6.329  0.3064  0.4047  0.2798
  953MOL0     H28609   6.829   9.062   6.255 -3.1634 -3.9151 -2.1084
  953MOL0     H28610   6.732   9.003   6.388  1.0937 -1.7589  0.2982
  953MOL0     H28611   7.017   9.066   6.461  0.4870 -3.5791  3.7727
  953MOL0     H28612   6.875   9.012   6.552 -1.1511 -0.8012 -1.6974
  953MOL0     H28613   6.916   9.246   6.607 -1.5534 -0.5746  0.4350
  953MOL0     H28614   6.772   9.224   6.515  0.0982 -1.4948 -1.5347
  953MOL0     H28615   7.145   9.234   6.528 -0.3006  1.3088  0.6818
  953MOL0     H28616   7.372   9.303   6.460 -0.4293 -0.7479 -0.3118
  953MOL0     H28617   7.638   9.434   6.058  0.4578  2.5378 -1.3065
  953MOL0     H28618   7.868   9.492   5.985  3.1079  0.4971  0.4884
  953MOL0     H28619   8.197   9.661   6.269 -0.1364  1.2551 -1.4763
  953MOL0     H28620   8.207   9.491   6.318 -0.3134  3.0938  2.4457
  953MOL0     H28621   8.291   9.564   6.045  1.4483  1.3033  0.0418
  953MOL0     H28622   8.393   9.616   6.174  2.2968 -1.1668 -0.5207
  953MOL0     H28623   8.402   9.387   6.285  3.8461 -0.4104  0.6626
  953MOL0     H28624   8.312   9.322   6.155  0.2849  0.8340 -0.1689
  953MOL0     H28625   8.586   9.465   6.157 -1.5275  1.7784 -1.5988
  953MOL0     H28626   8.518   9.443   5.997 -0.3108 -1.7611 -0.9628
  953MOL0     H28627   8.660   9.266   6.173  1.4750 -0.8701 -0.6945
  953MOL0     H28628   8.659   9.271   5.997  0.8794  2.8977  0.2777
  953MOL0     H28629   8.445   9.138   6.169 -0.8920 -1.6862 -0.6162
  953MOL0     H28630   8.444   9.135   5.998  2.1780 -3.1867 -0.1829
  953MOL0     H28631   8.683   8.998   6.139  1.3533 -1.8264 -1.8934
  953MOL0     H28632   8.633   8.994   5.970  0.3070  4.1754 -1.0510
  953MOL0     H28633   8.416   8.889   6.040  2.1140 -0.4875 -1.4122
  953MOL0     H28634   8.548   8.792   6.083 -0.3992 -1.2238  1.8767
  953MOL0     H28635   7.978   9.522   6.394  3.1668  0.5569 -2.9957
  953MOL0     H28636   7.760   9.440   6.462  0.8448 -2.1868 -0.4638
  953MOL0     H28637   7.228   9.566   6.172  1.2596  2.0010  1.1739
  953MOL0     H28638   6.992   9.484   6.218 -1.2301 -0.3916  2.2939
  953MOL0     H28639   6.372   7.899   5.543 -0.8550 -2.0424 -2.7033
  953MOL0     H28640   6.172   7.813   5.462 -0.9779  0.0883  1.1045
  953MOL0     H28641   5.714   7.681   5.585  0.6839 -1.5281  0.3206
  953MOL0     H28642   5.509   7.647   5.485  2.4210  3.2283  1.2151
  953MOL0     H28643   5.414   7.698   5.274  0.9498  0.1463 -0.8331
  953MOL0     H28644   5.281   7.581   5.291  0.0946  2.7809  2.5504
  953MOL0     H28645   5.291   7.546   5.048 -1.6447  2.1359 -1.5589
  953MOL0     H28646   5.449   7.598   5.035 -1.9041  0.1101 -3.4845
  953MOL0     H28647   5.281   7.748   4.938  1.2210  0.6304  0.1416
  953MOL0     H28648   5.374   7.824   5.056  1.1221 -1.0633  2.8131
  953MOL0     H28649   5.090   7.699   5.090 -1.0324  1.5311 -1.5641
  953MOL0     H28650   5.172   7.774   5.229  1.2687 -0.3950 -0.0178
  953MOL0     H28651   4.985   8.096   5.024 -0.0247  1.0130  0.0569
  953MOL0     H28652   5.686   7.445   5.157 -3.9522  0.9206 -0.6236
  953MOL0     H28653   5.956   7.363   5.255 -1.5477 -0.4515  0.5263
  953MOL0     H28654   5.951   7.482   5.134  2.3819 -2.7953  0.7319
  953MOL0     H28655   6.046   7.524   5.271 -0.7365  2.5195 -1.2223
  954MOL0     O28656   2.470   6.509   3.668  0.0330  0.2418  0.1454
  954MOL0     C28657   2.446   6.585   3.581  0.3754 -1.8103 -0.5093
  954MOL0     O28658   2.339   6.576   3.496  0.4709 -0.4068  0.3418
  954MOL0     C28659   2.268   6.457   3.479  0.1439 -0.3683  0.7509
  954MOL0     C28660   2.244   6.416   3.345 -0.0826 -0.4164  0.2236
  954MOL0     C28661   2.168   6.301   3.321 -0.7748 -0.2059 -0.6374
  954MOL0     C28662   2.114   6.221   3.424  0.8906 -0.6504 -0.2289
  954MOL0     O28663   2.045   6.105   3.394  0.0503  0.3763  0.5277
  954MOL0     C28664   1.935   6.066   3.473 -0.4984  0.2896  0.9859
  954MOL0     C28665   1.858   5.964   3.394 -0.1949 -0.8153  0.7692
  954MOL0     C28666   1.737   5.906   3.459  0.2022  0.0965  0.1928
  954MOL0     C28667   1.777   5.786   3.550  0.7774  0.7891 -0.9313
  954MOL0     C28668   1.803   5.652   3.490 -0.2538  0.4396 -0.4918
  954MOL0     C28669   1.833   5.535   3.586  0.3482  0.2620 -0.5951
  954MOL0     C28670   1.970   5.545   3.665  0.0690 -0.1263 -0.0490
  954MOL0     C28671   2.061   5.421   3.634 -0.1231  0.3861 -0.3147
  954MOL0     N28672   2.189   5.429   3.711  0.5716  0.0912  1.0917
  954MOL0     C28673   2.223   5.474   3.831 -0.7282 -0.1622  0.9171
  954MOL0     C28674   2.356   5.449   3.840  0.3333  0.7219 -0.5287
  954MOL0     C28675   2.456   5.473   3.956  0.0897 -0.1985 -0.0137
  954MOL0     C28676   2.410   5.389   4.074  0.6159  0.4023 -0.6208
  954MOL0     C28677   2.524   5.392   4.176  0.8867 -0.7134  0.4650
  954MOL0     C28678   2.496   5.290   4.286 -1.1724 -0.1618 -0.0732
  954MOL0     O28679   2.482   5.150   4.250 -0.0469  0.0313 -0.6555
  954MOL0     C28680   2.549   5.054   4.324  0.1430 -0.0634 -0.2572
  954MOL0     C28681   2.691   5.046   4.318 -0.4513  0.7152  0.4995
  954MOL0     C28682   2.748   4.943   4.394  0.4000  0.0407 -0.1021
  954MOL0     C28683   2.676   4.849   4.465  0.7820 -0.3142 -0.0738
  954MOL0     C28684   2.745   4.742   4.534 -0.8762 -0.2645 -0.0002
  954MOL0     O28685   2.676   4.666   4.622 -0.7136 -0.4103  0.3777
  954MOL0     C28686   2.732   4.554   4.675  0.1243  0.7562 -0.1501
  954MOL0     C28687   2.788   4.557   4.804  0.2031  0.5568  0.0736
  954MOL0     C28688   2.836   4.432   4.857  0.0676 -0.4299 -0.0050
  954MOL0     C28689   2.849   4.316   4.784 -0.2284 -0.2567 -0.1532
  954MOL0     O28690   2.906   4.203   4.844  0.9774  0.0583 -0.6527
  954MOL0     C28691   2.953   4.100   4.759  0.6778  0.5567 -0.1405
  954MOL0     C28692   2.989   3.970   4.851 -0.4776 -0.6385  0.0120
  954MOL0     C28693   3.077   4.014   4.970 -0.8947 -0.1284  0.3022
  954MOL0     C28694   3.102   3.888   5.055 -0.2374  0.4214 -0.6415
  954MOL0     C28695   3.148   3.924   5.198 -0.1415  0.3753 -0.5135
  954MOL0     C28696   3.280   4.004   5.200  0.2206 -0.6210  0.4608
  954MOL0     C28697   3.315   4.027   5.343 -0.3033 -0.4045 -0.1906
  954MOL0     C28698   3.445   4.106   5.362 -0.3690 -0.2378  0.4276
  954MOL0    Cl28699   3.446   4.255   5.266  0.2317 -0.1865 -0.0310
  954MOL0     C28700   2.795   4.313   4.654 -0.3577 -0.2559  0.1040
  954MOL0     C28701   2.735   4.434   4.600  0.2266  0.9562 -0.6129
  954MOL0     O28702   2.856   4.713   4.490  0.1698 -0.6245  0.0615
  954MOL0     C28703   2.539   4.859   4.457  0.3483 -0.2390 -0.0630
  954MOL0     C28704   2.470   4.962   4.390 -0.3149 -0.0798 -0.1374
  954MOL0     N28705   2.391   5.386   3.727 -1.0914  0.0310 -0.1551
  954MOL0     N28706   2.297   5.387   3.638 -0.7665 -0.5755 -0.1213
  954MOL0     C28707   2.132   6.264   3.559 -0.0172 -1.1801  0.4042
  954MOL0     C28708   2.216   6.381   3.584 -0.4255  0.5522  0.0184
  954MOL0     C28709   2.541   6.707   3.562 -0.1045 -0.2639 -0.1834
  954MOL0     C28710   2.640   6.710   3.646 -0.4676 -0.1973 -0.1078
  954MOL0     C28711   2.741   6.803   3.638 -0.2972 -0.0546  0.5103
  954MOL0     C28712   2.750   6.906   3.531 -0.7091 -0.0308 -0.6902
  954MOL0     O28713   2.858   6.994   3.506  0.3269 -0.0172 -0.0668
  954MOL0     C28714   2.977   6.974   3.587  1.0854 -0.7106 -0.9612
  954MOL0     C28715   3.081   7.085   3.537  0.0877  0.8528  0.2511
  954MOL0     C28716   3.128   7.059   3.396 -0.0178  0.8670 -0.2329
  954MOL0     C28717   3.245   7.154   3.349  0.7068  0.3104  0.2913
  954MOL0     C28718   3.287   7.131   3.213  0.0042  0.1193 -0.0741
  954MOL0     C28719   3.298   7.103   3.098  0.0332 -0.9081 -0.2872
  954MOL0     C28720   2.639   6.906   3.447  0.0759 -1.0723  0.1401
  954MOL0     C28721   2.527   6.808   3.463  0.7058 -0.8761  1.1058
  954MOL0     C28722   2.420   6.824   3.359 -0.7720  0.0509  0.6195
  954MOL0     H28723   2.294   6.470   3.265  0.3372  3.2423  2.6990
  954MOL0     H28724   2.137   6.273   3.221 -3.6877 -2.0245  0.6679
  954MOL0     H28725   1.977   6.035   3.569 -2.2242  1.7998  2.3061
  954MOL0     H28726   1.882   6.158   3.497  0.9440  0.8075  2.3213
  954MOL0     H28727   1.930   5.883   3.379  2.4826  1.6989 -1.1123
  954MOL0     H28728   1.833   6.002   3.295  0.3872  0.2920  1.0327
  954MOL0     H28729   1.669   5.867   3.383  0.9555  0.1837 -0.5439
  954MOL0     H28730   1.677   5.975   3.519  0.4329 -0.3865  0.9987
  954MOL0     H28731   1.852   5.804   3.627 -0.8080 -1.4078  1.2833
  954MOL0     H28732   1.686   5.752   3.600  1.5979  0.8594  0.6412
  954MOL0     H28733   1.716   5.613   3.437  0.6552 -1.3399 -0.7651
  954MOL0     H28734   1.885   5.681   3.424 -0.9222  0.9778 -1.0956
  954MOL0     H28735   1.752   5.517   3.658  2.1577  0.8154  1.6890
  954MOL0     H28736   1.835   5.438   3.536  3.7502  0.2267 -0.5808
  954MOL0     H28737   1.961   5.558   3.773  0.1635  2.1988 -0.2748
  954MOL0     H28738   2.020   5.636   3.630 -0.1137  0.6331  1.5788
  954MOL0     H28739   2.003   5.336   3.670  1.8664  0.0781  2.4842
  954MOL0     H28740   2.069   5.417   3.525  1.6802  0.7829 -0.2157
  954MOL0     H28741   2.159   5.522   3.904  1.6524  3.8136  0.7237
  954MOL0     H28742   2.554   5.440   3.920  1.7247  2.2168  1.9060
  954MOL0     H28743   2.465   5.579   3.977  1.6488  0.1652 -2.1928
  954MOL0     H28744   2.317   5.429   4.116  0.9127 -0.9194  1.4319
  954MOL0     H28745   2.377   5.287   4.049 -2.6856  1.3372 -0.5680
  954MOL0     H28746   2.525   5.493   4.216 -1.3124 -0.6729  0.5568
  954MOL0     H28747   2.620   5.384   4.124 -0.0389  1.8664 -1.8928
  954MOL0     H28748   2.403   5.326   4.331 -1.2673 -0.1395 -0.2850
  954MOL0     H28749   2.576   5.306   4.359 -1.8020 -1.2267  0.8632
  954MOL0     H28750   2.756   5.114   4.263 -0.1535 -0.5834 -0.8213
  954MOL0     H28751   2.857   4.947   4.389  0.4398 -0.4764  0.3252
  954MOL0     H28752   2.787   4.646   4.866  0.1561  0.0079  0.8764
  954MOL0     H28753   2.866   4.427   4.961  0.6393  2.2787  0.0132
  954MOL0     H28754   2.882   4.065   4.684  2.6114 -0.9677 -1.3657
  954MOL0     H28755   3.048   4.134   4.715  1.0320  0.5091  0.5738
  954MOL0     H28756   2.907   3.926   4.909  1.9007 -2.5365  2.1440
  954MOL0     H28757   3.052   3.899   4.797 -3.1321 -1.2933 -2.4733
  954MOL0     H28758   3.171   4.060   4.937 -1.0129  0.4280  0.7231
  954MOL0     H28759   3.029   4.090   5.032  0.8769 -0.5051  2.2191
  954MOL0     H28760   3.171   3.821   5.003 -1.7158  0.1009 -2.2986
  954MOL0     H28761   3.010   3.829   5.051 -1.3599  2.1330 -0.6929
  954MOL0     H28762   3.166   3.835   5.260  1.4522 -0.6372 -2.3149
  954MOL0     H28763   3.067   3.986   5.235 -0.3489 -0.1374 -0.0931
  954MOL0     H28764   3.355   3.943   5.149 -0.9484 -1.2173 -0.6153
  954MOL0     H28765   3.268   4.097   5.145  1.0690  0.0374  1.3528
  954MOL0     H28766   3.327   3.927   5.386 -2.8160 -0.5992  0.2081
  954MOL0     H28767   3.245   4.094   5.394  0.1830 -1.7444  2.4207
  954MOL0     H28768   3.461   4.142   5.464 -0.3367  0.0696  0.3136
  954MOL0     H28769   3.535   4.046   5.342  0.4021  0.0063  2.8167
  954MOL0     H28770   2.791   4.227   4.588  0.9740 -1.0295  0.9815
  954MOL0     H28771   2.705   4.414   4.497  2.1122 -1.7912 -0.7345
  954MOL0     H28772   2.478   4.790   4.514 -0.0307  1.1524  1.2849
  954MOL0     H28773   2.363   4.953   4.379 -0.2197  1.4563 -3.1465
  954MOL0     H28774   2.117   6.207   3.650  1.5306  0.1399  1.5440
  954MOL0     H28775   2.243   6.408   3.686  0.0231  0.5054 -0.0868
  954MOL0     H28776   2.666   6.643   3.727  1.2339  0.3801 -0.1304
  954MOL0     H28777   2.820   6.776   3.708 -1.0405 -0.9688  1.0100
  954MOL0     H28778   3.014   6.872   3.578  1.0070 -1.0630  1.7740
  954MOL0     H28779   2.955   6.984   3.694  0.7393 -0.7690 -1.0259
  954MOL0     H28780   3.167   7.085   3.605  0.2678 -0.8828  0.0520
  954MOL0     H28781   3.024   7.178   3.541 -1.4789 -0.0059 -0.9957
  954MOL0     H28782   3.036   7.059   3.338  0.1595 -1.5182 -0.6301
  954MOL0     H28783   3.164   6.957   3.412 -1.2108  0.5832  0.8221
  954MOL0     H28784   3.218   7.259   3.361  2.5827  0.8714 -0.1928
  954MOL0     H28785   3.330   7.141   3.417 -0.4074  4.1309  2.6939
  954MOL0     H28786   3.335   7.077   3.001 -2.1496  3.1906 -2.4510
  954MOL0     H28787   2.633   6.976   3.364 -5.1669 -0.8955  0.3194
  954MOL0     H28788   2.438   6.917   3.305  1.5839  1.0416  2.9453
  954MOL0     H28789   2.431   6.737   3.294 -1.9230 -1.2143  2.0409
  954MOL0     H28790   2.325   6.842   3.410 -0.8595 -1.1023  0.9002
  955MOL0     O28791   4.459   0.648   1.013  0.6297  0.1363  0.1598
  955MOL0     C28792   4.426   0.554   0.933 -0.3056 -0.5428 -0.3803
  955MOL0     O28793   4.492   0.512   0.815  0.6941 -0.2467 -0.6401
  955MOL0     C28794   4.583   0.581   0.734  0.3800 -0.3751  0.2879
  955MOL0     C28795   4.617   0.499   0.623 -0.3612 -0.4906  0.0115
  955MOL0     C28796   4.707   0.542   0.529  0.0325  0.8679 -0.1832
  955MOL0     C28797   4.791   0.655   0.559  0.3155 -0.0250 -0.1388
  955MOL0     O28798   4.888   0.681   0.466 -0.1943  0.0154  0.3056
  955MOL0     C28799   5.002   0.755   0.513 -0.2325  0.1227  0.1820
  955MOL0     C28800   5.067   0.688   0.643  0.6124 -0.7219  0.3088
  955MOL0     C28801   5.114   0.804   0.740  0.7845  0.1493  0.2631
  955MOL0     C28802   5.206   0.754   0.856 -0.2561  0.4171 -0.0668
  955MOL0     C28803   5.121   0.763   0.986  0.5022  0.0947 -0.3083
  955MOL0     C28804   4.992   0.681   0.981 -0.4554  0.4828  0.7811
  955MOL0     C28805   4.935   0.656   1.121  0.6762 -0.3122  0.0565
  955MOL0     C28806   4.791   0.578   1.117 -0.8044 -0.2164  1.2073
  955MOL0     N28807   4.722   0.595   1.246  0.0340 -0.4424  0.2482
  955MOL0     C28808   4.625   0.680   1.275  1.0881 -0.5570 -0.6123
  955MOL0     C28809   4.601   0.647   1.403 -0.0706  1.1150  0.2061
  955MOL0     C28810   4.499   0.730   1.484 -0.1038  0.1675 -0.3622
  955MOL0     C28811   4.429   0.653   1.598 -0.8109 -0.1158 -0.2851
  955MOL0     C28812   4.317   0.556   1.559 -0.2460  0.6268 -0.0728
  955MOL0     C28813   4.253   0.519   1.695  0.0389  0.0764  0.3547
  955MOL0     O28814   4.179   0.627   1.743 -0.7695  0.2413 -0.4540
  955MOL0     C28815   4.115   0.599   1.864 -0.6455 -0.1218 -0.4472
  955MOL0     C28816   4.030   0.696   1.914 -0.4563  0.3028 -0.4137
  955MOL0     C28817   3.955   0.675   2.032  0.3445  0.0773  0.2379
  955MOL0     C28818   3.972   0.553   2.106 -0.1080 -0.4156 -0.4590
  955MOL0     C28819   3.911   0.537   2.243  1.3501 -0.1878  0.8849
  955MOL0     O28820   3.912   0.412   2.299 -0.4291  0.2625 -0.4265
  955MOL0     C28821   3.854   0.401   2.424  0.2927  0.1800  0.4116
  955MOL0     C28822   3.715   0.381   2.436 -0.4048  0.1322 -0.6945
  955MOL0     C28823   3.671   0.327   2.555 -0.1714  0.6598 -0.0337
  955MOL0     C28824   3.752   0.316   2.672 -0.3916  0.4388  0.3132
  955MOL0     O28825   3.718   0.243   2.791  0.4273 -0.5393 -0.0824
  955MOL0     C28826   3.656   0.122   2.770  0.0545 -0.1492  0.3201
  955MOL0     C28827   3.745   0.020   2.845  0.0445  0.3905 -0.1030
  955MOL0     C28828   3.872   0.004   2.767 -0.3938  0.6891  0.4367
  955MOL0     C28829   3.858  -0.062   2.628 -0.1676 -1.0478  0.4972
  955MOL0     C28830   3.989  -0.090   2.548  1.0957 -0.2987 -0.3874
  955MOL0     C28831   4.055   0.046   2.496 -0.3680  0.2964 -0.5157
  955MOL0     C28832   4.186   0.039   2.412 -0.3423  0.0259  0.0098
  955MOL0     C28833   4.162  -0.007   2.269  0.1648 -0.4188 -0.7581
  955MOL0    Cl28834   4.198   0.133   2.152 -0.1659 -0.1169 -0.1429
  955MOL0     C28835   3.877   0.369   2.668 -0.7830  0.5728  0.5463
  955MOL0     C28836   3.934   0.393   2.541 -0.1942  0.5438 -0.9357
  955MOL0     O28837   3.875   0.637   2.299 -0.6506 -0.4117  0.9723
  955MOL0     C28838   4.062   0.462   2.063 -0.0755  0.4425  0.4247
  955MOL0     C28839   4.128   0.478   1.940  0.1708  0.5238  0.7929
  955MOL0     N28840   4.682   0.545   1.442  0.0921  0.1691  0.1288
  955MOL0     N28841   4.760   0.518   1.348 -0.5791  0.6262  1.1155
  955MOL0     C28842   4.762   0.734   0.676  0.6569  0.3586 -0.2913
  955MOL0     C28843   4.658   0.693   0.762 -0.7630  0.0882  0.7119
  955MOL0     C28844   4.317   0.452   0.959 -0.1435 -0.2097 -0.1241
  955MOL0     C28845   4.259   0.387   0.851  0.0912  1.0506  1.1132
  955MOL0     C28846   4.166   0.281   0.865 -0.0870  0.1709  0.6458
  955MOL0     C28847   4.132   0.238   0.995  0.7686 -0.6918 -0.4903
  955MOL0     O28848   4.046   0.127   1.003  0.7041  0.4351 -0.6962
  955MOL0     C28849   4.092   0.009   0.936  0.0961  0.0394  0.0888
  955MOL0     C28850   4.056  -0.119   1.033 -0.3769 -0.0235 -0.3051
  955MOL0     C28851   4.137  -0.086   1.159 -0.3453  0.4780  0.2984
  955MOL0     C28852   4.067  -0.156   1.278 -0.3224 -0.3414 -0.0299
  955MOL0     C28853   4.156  -0.133   1.396  0.1292 -0.1091 -0.5127
  955MOL0     C28854   4.233  -0.123   1.484 -0.9355 -0.4751 -0.9995
  955MOL0     C28855   4.180   0.308   1.104  0.2362 -0.0686 -0.4223
  955MOL0     C28856   4.260   0.422   1.087 -0.2719  0.0473 -0.4049
  955MOL0     C28857   4.283   0.499   1.212 -0.2410 -0.5648 -0.1506
  955MOL0     H28858   4.571   0.401   0.617 -1.3914 -0.0903  1.1438
  955MOL0     H28859   4.723   0.485   0.438 -2.5235  3.0867 -2.1876
  955MOL0     H28860   5.083   0.756   0.440 -2.7966  2.1200 -2.8971
  955MOL0     H28861   4.981   0.859   0.540  2.0842  0.3189  1.4679
  955MOL0     H28862   5.163   0.640   0.620  1.4530 -0.0302  2.1350
  955MOL0     H28863   4.998   0.612   0.681 -1.6545 -1.0401 -3.8835
  955MOL0     H28864   5.026   0.860   0.772 -1.3859 -2.6172 -0.4707
  955MOL0     H28865   5.172   0.870   0.675 -1.9167  0.6581 -1.8236
  955MOL0     H28866   5.251   0.658   0.831  3.3258  2.2445 -1.4229
  955MOL0     H28867   5.292   0.821   0.871 -0.4192  0.2363  2.0850
  955MOL0     H28868   5.195   0.726   1.058 -0.1347  0.6040  0.6194
  955MOL0     H28869   5.098   0.866   1.014  1.1947  0.5917 -1.4847
  955MOL0     H28870   4.926   0.733   0.911 -0.1903 -0.2531 -0.0438
  955MOL0     H28871   5.031   0.584   0.947  0.6700  0.6820  1.4385
  955MOL0     H28872   4.934   0.752   1.173  0.3461 -0.1789 -0.1902
  955MOL0     H28873   5.004   0.591   1.176 -0.2338  0.1060  1.7350
  955MOL0     H28874   4.736   0.626   1.036  0.8565  2.1762  1.3975
  955MOL0     H28875   4.806   0.475   1.085 -0.3489  0.6225 -1.4612
  955MOL0     H28876   4.593   0.760   1.208  0.0426  1.4838  2.1470
  955MOL0     H28877   4.545   0.820   1.527 -0.1883  1.0552 -2.0639
  955MOL0     H28878   4.419   0.764   1.418 -2.3794 -1.3935  1.4111
  955MOL0     H28879   4.508   0.602   1.653 -1.1414  1.7219  2.0769
  955MOL0     H28880   4.370   0.727   1.653  0.9929  2.2357 -1.3358
  955MOL0     H28881   4.361   0.474   1.501  1.1999 -0.3291  2.2214
  955MOL0     H28882   4.250   0.608   1.490  1.1808  1.4583 -0.8913
  955MOL0     H28883   4.332   0.487   1.763 -0.5788 -1.7741  0.2602
  955MOL0     H28884   4.176   0.443   1.679  0.6269 -0.0446 -2.3077
  955MOL0     H28885   4.004   0.791   1.868 -2.1822  0.4156  0.7027
  955MOL0     H28886   3.886   0.750   2.069  0.4008  0.7180 -0.8896
  955MOL0     H28887   3.659   0.410   2.348 -1.8708  2.1763  0.7936
  955MOL0     H28888   3.568   0.291   2.558  0.1806 -0.4479 -0.5592
  955MOL0     H28889   3.555   0.124   2.812 -0.0369  1.7855  0.0733
  955MOL0     H28890   3.653   0.095   2.664 -0.2236  1.2699 -0.0510
  955MOL0     H28891   3.771   0.047   2.948 -0.0959 -0.7313  0.2423
  955MOL0     H28892   3.684  -0.071   2.838 -3.8160  2.7671 -0.2253
  955MOL0     H28893   3.915   0.105   2.760 -1.7814  1.2344 -0.9258
  955MOL0     H28894   3.916  -0.076   2.828 -2.5657 -0.9265 -0.0258
  955MOL0     H28895   3.789  -0.006   2.565  2.1765 -1.2847 -2.4913
  955MOL0     H28896   3.810  -0.159   2.644 -0.5780 -0.6549  1.8203
  955MOL0     H28897   3.960  -0.149   2.461  0.8576  0.3484 -0.7553
  955MOL0     H28898   4.054  -0.150   2.613  1.0617  4.3184  4.6773
  955MOL0     H28899   3.966   0.085   2.445 -0.1491  2.2080  0.4633
  955MOL0     H28900   4.075   0.107   2.585 -0.2096 -1.8250  0.9773
  955MOL0     H28901   4.256  -0.031   2.458 -1.1362  0.3561  1.8453
  955MOL0     H28902   4.246   0.130   2.423 -0.5034  0.0038  1.2936
  955MOL0     H28903   4.227  -0.094   2.250  0.0878 -0.5565 -0.4016
  955MOL0     H28904   4.059  -0.030   2.241 -0.0468  0.4423 -0.6985
  955MOL0     H28905   3.941   0.366   2.756 -1.2715 -0.6433  0.8881
  955MOL0     H28906   4.036   0.430   2.540 -1.4185  4.5275  0.5072
  955MOL0     H28907   4.081   0.368   2.113 -1.4225 -2.7729 -4.3833
  955MOL0     H28908   4.201   0.400   1.918  2.6594  2.2576  2.3232
  955MOL0     H28909   4.825   0.817   0.708 -1.8088  2.5651 -0.7849
  955MOL0     H28910   4.631   0.746   0.853  0.5873  0.6156  0.8380
  955MOL0     H28911   4.296   0.397   0.749  0.8320 -2.7606  0.8623
  955MOL0     H28912   4.128   0.229   0.778  2.9282 -0.2729 -0.4959
  955MOL0     H28913   4.198   0.010   0.908 -0.2552 -0.3892 -1.3796
  955MOL0     H28914   4.038   0.008   0.841  2.6782  0.0770 -1.4766
  955MOL0     H28915   4.106  -0.204   0.985  2.7893  1.4411  0.1108
  955MOL0     H28916   3.948  -0.131   1.047 -0.9986  2.9702 -1.6247
  955MOL0     H28917   4.149   0.019   1.189 -0.6554 -0.1303  2.7437
  955MOL0     H28918   4.241  -0.120   1.158  0.5447  1.9210  5.8081
  955MOL0     H28919   3.971  -0.106   1.294 -0.1509 -0.0524  0.1048
  955MOL0     H28920   4.041  -0.261   1.261 -1.0469 -0.6572  2.4929
  955MOL0     H28921   4.310  -0.118   1.558 -0.0058 -1.5025 -1.8656
  955MOL0     H28922   4.144   0.264   1.196  0.0473 -2.6392 -1.6406
  955MOL0     H28923   4.219   0.461   1.293 -2.2147 -0.2360 -1.4752
  955MOL0     H28924   4.386   0.488   1.245 -0.6335  2.5697  2.6648
  955MOL0     H28925   4.267   0.607   1.197  0.7547 -0.8292 -4.2053
  956MOL0     O28926   3.338   6.274   5.591 -0.1983  0.2451 -0.5169
  956MOL0     C28927   3.234   6.338   5.579  1.1389 -0.2855  0.2092
  956MOL0     O28928   3.170   6.359   5.471  0.0784 -0.3945  0.8168
  956MOL0     C28929   3.217   6.298   5.359  0.7189 -0.3108  0.5913
  956MOL0     C28930   3.324   6.357   5.285 -0.0209 -0.6381  0.1426
  956MOL0     C28931   3.384   6.283   5.181 -0.2813 -0.5444  0.9097
  956MOL0     C28932   3.341   6.157   5.146  1.1557  0.1703  0.5281
  956MOL0     O28933   3.390   6.105   5.030 -0.5034  0.3690 -0.0673
  956MOL0     C28934   3.380   5.960   4.994  0.3914  0.7011  0.1848
  956MOL0     C28935   3.503   5.917   4.907  0.5578 -0.6590  0.4302
  956MOL0     C28936   3.639   5.947   4.976  0.4968  0.8692  0.2333
  956MOL0     C28937   3.700   6.076   4.918  0.0049 -0.9981  0.0594
  956MOL0     C28938   3.772   6.162   5.022 -0.6745  0.8111  0.0910
  956MOL0     C28939   3.881   6.081   5.097  0.2498  0.7071 -0.5598
  956MOL0     C28940   3.979   6.008   5.008 -0.6113  0.1023  1.0792
  956MOL0     C28941   4.094   5.966   5.104 -0.1009 -0.7787  0.2014
  956MOL0     N28942   4.181   5.858   5.061  0.4024 -0.5158  0.2669
  956MOL0     C28943   4.307   5.871   5.002  0.0450 -0.2554 -0.0526
  956MOL0     C28944   4.350   5.743   4.981 -0.2050 -0.2845 -0.2120
  956MOL0     C28945   4.483   5.708   4.932  0.4307 -0.4229 -0.6135
  956MOL0     C28946   4.572   5.647   5.051  0.1954  1.0367  0.7625
  956MOL0     C28947   4.709   5.616   4.982 -0.2183 -0.3284 -1.3428
  956MOL0     C28948   4.799   5.519   5.061 -0.4133 -0.2261 -1.0586
  956MOL0     O28949   4.826   5.596   5.183 -0.4124  0.2579  0.8385
  956MOL0     C28950   4.888   5.521   5.281 -0.4176 -0.5475  0.5232
  956MOL0     C28951   4.880   5.559   5.414 -0.0460 -0.8728  0.3077
  956MOL0     C28952   4.957   5.503   5.511  0.0967  0.7995  0.1167
  956MOL0     C28953   5.036   5.395   5.488  0.1053 -0.1619 -0.0362
  956MOL0     C28954   5.118   5.353   5.599  1.1970  0.5238 -1.1575
  956MOL0     O28955   5.102   5.417   5.716 -1.0427 -0.6510  0.9513
  956MOL0     C28956   5.159   5.361   5.824 -0.2360  0.3512 -0.2622
  956MOL0     C28957   5.292   5.378   5.860 -0.7218 -0.6265  0.1695
  956MOL0     C28958   5.331   5.341   5.981 -0.4055 -0.0304 -0.2900
  956MOL0     C28959   5.255   5.255   6.063 -0.5522 -0.1827 -0.1704
  956MOL0     O28960   5.313   5.231   6.189  0.4234 -0.3388  0.2273
  956MOL0     C28961   5.276   5.118   6.265 -0.0035 -0.4317  0.1832
  956MOL0     C28962   5.337   5.127   6.403  1.2030  0.5482 -0.3248
  956MOL0     C28963   5.279   5.253   6.471  0.0605  0.1764 -0.2572
  956MOL0     C28964   5.133   5.271   6.485 -0.5284 -0.3728 -0.1612
  956MOL0     C28965   5.077   5.139   6.557  0.4057  0.4064  0.3515
  956MOL0     C28966   4.987   5.178   6.680  0.6182 -0.7665  0.1073
  956MOL0     C28967   4.938   5.062   6.766 -0.2086  0.1594  0.7177
  956MOL0     C28968   4.873   4.940   6.702 -0.2638  0.1213 -0.7291
  956MOL0    Cl28969   5.011   4.859   6.635 -0.0700 -0.1406 -0.1300
  956MOL0     C28970   5.132   5.212   6.011  0.1651  1.0474 -0.6951
  956MOL0     C28971   5.080   5.274   5.899 -0.1003 -0.6948  0.2116
  956MOL0     O28972   5.200   5.266   5.577 -0.5569 -0.1252 -0.3922
  956MOL0     C28973   5.043   5.340   5.359  0.4611 -0.4577  0.5876
  956MOL0     C28974   4.974   5.408   5.255 -0.4385 -0.0624 -0.5641
  956MOL0     N28975   4.255   5.661   5.036  0.0476 -0.8270  0.3922
  956MOL0     N28976   4.158   5.727   5.071  0.0697 -0.7567 -0.4554
  956MOL0     C28977   3.234   6.103   5.218  0.1911  0.4628 -0.4026
  956MOL0     C28978   3.166   6.170   5.318  1.1121 -1.0812 -0.1711
  956MOL0     C28979   3.163   6.396   5.702 -0.0211  0.6078  0.0654
  956MOL0     C28980   3.016   6.419   5.684  0.0617 -0.4749 -0.3218
  956MOL0     C28981   2.950   6.468   5.790  0.2530  0.4892  0.1802
  956MOL0     C28982   3.001   6.495   5.917  0.7921 -0.0463  0.5101
  956MOL0     O28983   2.927   6.532   6.029  0.5213 -0.4850 -0.4847
  956MOL0     C28984   2.789   6.567   6.009 -0.2298  0.6437 -1.8116
  956MOL0     C28985   2.732   6.632   6.144  0.6958 -0.1810 -0.8782
  956MOL0     C28986   2.661   6.544   6.254  0.0948 -0.0916 -0.1995
  956MOL0     C28987   2.727   6.415   6.297  0.7474  0.0343  0.2270
  956MOL0     C28988   2.872   6.431   6.329 -0.3473 -0.0122  0.2201
  956MOL0     C28989   2.988   6.469   6.363 -0.3400  0.1792 -0.1671
  956MOL0     C28990   3.132   6.452   5.937 -0.0185  0.8462 -0.7480
  956MOL0     C28991   3.216   6.403   5.837  0.3044 -0.8189  0.3677
  956MOL0     C28992   3.361   6.368   5.870 -0.4097 -0.5831  0.5262
  956MOL0     H28993   3.353   6.458   5.311  1.4195 -1.1943  0.8364
  956MOL0     H28994   3.453   6.341   5.122 -2.0891 -0.1981 -0.9737
  956MOL0     H28995   3.369   5.895   5.082 -1.6789  2.3046  1.1918
  956MOL0     H28996   3.297   5.945   4.925 -0.1775 -0.6053  1.0942
  956MOL0     H28997   3.498   5.972   4.812  1.2335 -1.2409  0.0537
  956MOL0     H28998   3.490   5.813   4.876 -0.2144 -0.0215 -1.5065
  956MOL0     H28999   3.707   5.861   4.966 -0.8824 -0.4330  1.5275
  956MOL0     H29000   3.624   5.957   5.083  3.9136  1.8779  0.7381
  956MOL0     H29001   3.772   6.067   4.836  1.2559  1.9492  0.7152
  956MOL0     H29002   3.615   6.137   4.887  0.0894  1.3060  3.7915
  956MOL0     H29003   3.826   6.244   4.974  0.4910  0.5524  0.9097
  956MOL0     H29004   3.708   6.214   5.093 -2.8254  0.7917 -1.6889
  956MOL0     H29005   3.946   6.156   5.142  1.7213 -0.4950 -0.5878
  956MOL0     H29006   3.836   6.018   5.174  2.4495 -0.1450  0.1126
  956MOL0     H29007   4.025   6.066   4.928 -2.3965  0.0623 -0.0346
  956MOL0     H29008   3.933   5.916   4.971 -1.7648  1.2254 -0.4294
  956MOL0     H29009   4.153   6.055   5.130 -1.0111  0.2518 -1.1117
  956MOL0     H29010   4.049   5.938   5.200 -0.3450  0.6882  0.5365
  956MOL0     H29011   4.367   5.960   4.991  0.4223 -0.4935  0.0463
  956MOL0     H29012   4.473   5.648   4.842 -1.1892 -0.1301 -0.6608
  956MOL0     H29013   4.522   5.805   4.901  4.4217 -1.9268 -0.9942
  956MOL0     H29014   4.597   5.718   5.130  1.3556  0.2190  1.1651
  956MOL0     H29015   4.523   5.557   5.088  2.4412  0.8366  3.6697
  956MOL0     H29016   4.753   5.716   4.978 -0.5950  0.0507  1.5052
  956MOL0     H29017   4.685   5.571   4.885 -0.2623  0.5438 -1.7460
  956MOL0     H29018   4.893   5.512   5.006  1.1966  2.6458  1.0357
  956MOL0     H29019   4.747   5.425   5.081  1.8716 -1.1171  1.2487
  956MOL0     H29020   4.813   5.641   5.439 -2.9382 -2.7866 -0.6702
  956MOL0     H29021   4.936   5.535   5.613 -2.5219  1.7141 -0.6127
  956MOL0     H29022   5.358   5.435   5.795 -3.6273  0.6690 -1.8727
  956MOL0     H29023   5.438   5.348   6.001 -0.5789 -0.1134  0.7653
  956MOL0     H29024   5.168   5.099   6.268 -0.2052  0.7177  1.2291
  956MOL0     H29025   5.334   5.032   6.230  2.3832  1.5626 -1.0358
  956MOL0     H29026   5.325   5.027   6.445  2.0396 -0.5616 -2.5832
  956MOL0     H29027   5.445   5.141   6.406  1.2071  0.3485  0.6314
  956MOL0     H29028   5.331   5.270   6.566  1.0042 -2.1095 -0.3012
  956MOL0     H29029   5.314   5.341   6.416 -0.6552  0.8328  0.3054
  956MOL0     H29030   5.093   5.280   6.383 -1.2776  0.1793  0.1702
  956MOL0     H29031   5.131   5.361   6.548 -1.5296  0.9371 -1.9569
  956MOL0     H29032   5.151   5.067   6.593 -1.7783 -0.2513  4.0907
  956MOL0     H29033   5.013   5.094   6.480  0.6397  1.3929 -0.4413
  956MOL0     H29034   5.059   5.242   6.732  1.1815 -1.7636  0.5813
  956MOL0     H29035   4.904   5.239   6.644  2.1862  0.7411 -1.1082
  956MOL0     H29036   4.867   5.109   6.835  2.6348  1.1922  3.1195
  956MOL0     H29037   5.025   5.035   6.825  1.2176  0.9647 -0.9331
  956MOL0     H29038   4.823   4.883   6.781 -0.1958  2.2401  0.9179
  956MOL0     H29039   4.798   4.980   6.633 -3.2814  2.6300  3.4835
  956MOL0     H29040   5.081   5.130   6.060  3.9022 -0.2069  1.4143
  956MOL0     H29041   4.977   5.250   5.873 -0.8186  0.1881  2.0817
  956MOL0     H29042   5.108   5.256   5.333  1.0247  0.3222 -0.5828
  956MOL0     H29043   4.978   5.353   5.161 -1.8816 -1.8801  0.3810
  956MOL0     H29044   3.196   6.007   5.185 -0.2285 -0.1272  1.6615
  956MOL0     H29045   3.072   6.134   5.359 -0.6515  1.6554 -1.4895
  956MOL0     H29046   2.961   6.396   5.594 -0.8431 -1.0239  0.3473
  956MOL0     H29047   2.847   6.492   5.766 -0.0579 -0.5099  0.4565
  956MOL0     H29048   2.731   6.483   5.971  1.0694 -0.4413 -1.4494
  956MOL0     H29049   2.792   6.651   5.939  2.6853  2.6553  0.4946
  956MOL0     H29050   2.661   6.711   6.120  0.9660  0.9855  1.8705
  956MOL0     H29051   2.818   6.683   6.187 -0.0822  1.8487 -1.6054
  956MOL0     H29052   2.558   6.523   6.224  0.1558  1.9850 -2.1791
  956MOL0     H29053   2.663   6.611   6.341 -3.5802  1.5472 -1.1736
  956MOL0     H29054   2.674   6.367   6.380 -2.0378 -2.0497 -2.4817
  956MOL0     H29055   2.720   6.357   6.204  1.1142 -1.3063  1.0178
  956MOL0     H29056   3.087   6.502   6.386  0.9807 -1.8732 -2.5143
  956MOL0     H29057   3.177   6.461   6.036 -0.0304 -1.9296 -0.4225
  956MOL0     H29058   3.388   6.364   5.975 -2.9362  0.0560  1.2769
  956MOL0     H29059   3.384   6.273   5.822  1.3382  1.0979 -2.2505
  956MOL0     H29060   3.432   6.440   5.828  0.5783 -2.0874 -0.4570
  957MOL0     O29061   3.631  10.271   5.236  0.6872 -0.9462 -0.9123
  957MOL0     C29062   3.512  10.278   5.270  0.4268  0.0015 -0.6561
  957MOL0     O29063   3.457  10.386   5.339  0.5789  0.3786 -0.2988
  957MOL0     C29064   3.530  10.494   5.360  0.9055 -1.7518  0.2680
  957MOL0     C29065   3.511  10.614   5.283 -0.4816 -0.0938  0.5610
  957MOL0     C29066   3.561  10.742   5.334  0.5357  0.5928 -0.6892
  957MOL0     C29067   3.630  10.737   5.458  0.9226 -0.2716 -0.1816
  957MOL0     O29068   3.676  10.863   5.488 -0.1904  0.2635 -0.2557
  957MOL0     C29069   3.692  10.894   5.623  0.5333  1.6668  0.4443
  957MOL0     C29070   3.846  10.936   5.630  0.0429  1.0149  0.1813
  957MOL0     C29071   3.890  11.015   5.759  0.6201  0.7293  0.6598
  957MOL0     C29072   4.041  11.039   5.753 -0.5453  0.2278  0.6311
  957MOL0     C29073   4.084  11.087   5.890 -0.6590 -1.1111  0.1867
  957MOL0     C29074   4.236  11.104   5.891  0.0635 -0.1132  0.5860
  957MOL0     C29075   4.298  11.154   6.024 -1.1064 -0.7448 -0.1175
  957MOL0     C29076   4.294  11.062   6.142 -0.3946  0.9730 -0.0122
  957MOL0     N29077   4.392  11.095   6.243 -0.2335 -0.1254  0.1618
  957MOL0     C29078   4.524  11.062   6.254  0.1768 -0.3034  0.4099
  957MOL0     C29079   4.566  11.106   6.371  0.0995  0.4015  0.6809
  957MOL0     C29080   4.693  11.090   6.450 -0.3317 -0.2910  1.2501
  957MOL0     C29081   4.774  11.217   6.482  0.5839  0.2116  0.1470
  957MOL0     C29082   4.794  11.310   6.357 -0.6146  0.2047 -0.0426
  957MOL0     C29083   4.889  11.260   6.245  0.8410 -0.2270 -0.7437
  957MOL0     O29084   4.852  11.144   6.170  0.2837  0.3780  0.5109
  957MOL0     C29085   4.782  11.156   6.055 -0.3646 -1.0619 -0.4910
  957MOL0     C29086   4.764  11.037   5.988 -0.4582  0.8305  0.3816
  957MOL0     C29087   4.692  11.042   5.868  1.0698 -0.1379 -0.8755
  957MOL0     C29088   4.644  11.163   5.813 -0.3300 -0.7790  0.1753
  957MOL0     C29089   4.576  11.167   5.683  0.7349  0.4619 -0.5933
  957MOL0     O29090   4.508  11.051   5.660 -0.5663  0.1372  0.7494
  957MOL0     C29091   4.444  11.042   5.541 -1.0088 -0.3776  0.7456
  957MOL0     C29092   4.330  10.961   5.534 -0.8241  0.2129  0.9252
  957MOL0     C29093   4.266  10.937   5.408 -0.3678  0.4931  0.5757
  957MOL0     C29094   4.317  10.992   5.291  0.2467 -0.0339  0.2799
  957MOL0     O29095   4.240  10.960   5.178  0.4140  0.4492 -0.0507
  957MOL0     C29096   4.315  10.901   5.069  0.0237 -0.5756  0.0972
  957MOL0     C29097   4.228  10.949   4.948 -0.2826  1.0964  0.7425
  957MOL0     C29098   4.283  10.903   4.806 -0.4967  0.3036  0.5048
  957MOL0     C29099   4.429  10.930   4.786 -0.0634 -0.4485  0.4922
  957MOL0     C29100   4.472  10.932   4.627 -0.5867  0.9051 -0.8540
  957MOL0     C29101   4.433  10.804   4.558  0.1823  1.0093 -0.9710
  957MOL0     C29102   4.485  10.819   4.409  0.0386  0.0513  0.3510
  957MOL0     C29103   4.456  10.701   4.317 -0.1251  0.8561 -0.0700
  957MOL0    Cl29104   4.540  10.546   4.348  0.7676 -0.0921 -0.0470
  957MOL0     C29105   4.435  11.068   5.288 -0.0096  0.0567 -0.8650
  957MOL0     C29106   4.498  11.089   5.417 -0.9471 -0.2308  0.4844
  957MOL0     O29107   4.568  11.273   5.619 -0.2070 -0.1431 -0.3608
  957MOL0     C29108   4.669  11.281   5.892 -0.0107  0.8352  0.3318
  957MOL0     C29109   4.734  11.276   6.007 -0.7053  0.0833  0.6238
  957MOL0     N29110   4.457  11.153   6.435 -0.6015 -0.1417  0.2491
  957MOL0     N29111   4.356  11.154   6.366 -0.9358  0.7016  0.5086
  957MOL0     C29112   3.657  10.624   5.530  0.1463 -0.0040  1.0521
  957MOL0     C29113   3.596  10.508   5.482 -0.1883  0.0076  0.5460
  957MOL0     C29114   3.415  10.166   5.243  0.7566  0.8843  0.0653
  957MOL0     C29115   3.288  10.173   5.316  0.1011  0.3961  0.6816
  957MOL0     C29116   3.177  10.085   5.288 -0.0177  0.3864 -0.1187
  957MOL0     C29117   3.188   9.981   5.192  0.4845 -0.5720 -0.3287
  957MOL0     O29118   3.088   9.901   5.162 -0.1651 -0.0334 -0.3491
  957MOL0     C29119   3.111   9.764   5.155 -0.0323 -0.3935 -0.5173
  957MOL0     C29120   2.984   9.685   5.184 -0.0620 -0.2255 -0.4265
  957MOL0     C29121   2.874   9.709   5.080 -0.2176  0.8950  0.4873
  957MOL0     C29122   2.729   9.665   5.112  0.0331 -0.5429 -0.6347
  957MOL0     C29123   2.735   9.529   5.172 -0.2026  0.5314 -0.5622
  957MOL0     C29124   2.725   9.414   5.217  0.1440  0.4446  0.4732
  957MOL0     C29125   3.316   9.961   5.137 -0.0788 -1.0206 -0.0983
  957MOL0     C29126   3.426  10.052   5.151  0.0222  0.1160  0.7368
  957MOL0     C29127   3.561  10.041   5.074  0.0047  0.1873  0.2710
  957MOL0     H29128   3.432  10.617   5.208  0.2265  1.6756 -0.1798
  957MOL0     H29129   3.541  10.831   5.275  1.4633  0.0569 -1.8431
  957MOL0     H29130   3.629  10.978   5.653 -3.5998 -1.1339  0.4068
  957MOL0     H29131   3.678  10.817   5.699 -0.0657  1.4278  0.0921
  957MOL0     H29132   3.845  10.997   5.539 -0.9161  1.4742  0.4894
  957MOL0     H29133   3.906  10.846   5.617 -2.6442 -0.9866  0.9253
  957MOL0     H29134   3.854  10.951   5.840  2.3958 -0.5386  0.4914
  957MOL0     H29135   3.841  11.113   5.762  0.5233  0.7497 -0.9524
  957MOL0     H29136   4.093  10.944   5.741 -1.8769 -0.5071  0.4953
  957MOL0     H29137   4.058  11.112   5.673 -1.6459  1.4024  1.4283
  957MOL0     H29138   4.035  11.184   5.901 -0.4462 -0.8368 -1.0864
  957MOL0     H29139   4.059  11.012   5.965  0.0030 -0.2311  1.3186
  957MOL0     H29140   4.280  11.005   5.877 -4.7230 -2.3023 -0.8967
  957MOL0     H29141   4.254  11.173   5.808 -1.9840  1.6186  1.4620
  957MOL0     H29142   4.259  11.251   6.054 -1.2788 -1.5327  2.4781
  957MOL0     H29143   4.405  11.162   6.003 -1.0549 -0.9520  0.0512
  957MOL0     H29144   4.193  11.060   6.183  0.3588 -2.9489  2.0891
  957MOL0     H29145   4.310  10.958   6.112  0.1448  0.3832  2.1434
  957MOL0     H29146   4.568  11.004   6.174 -2.9043 -0.6010 -1.2230
  957MOL0     H29147   4.657  11.037   6.538 -3.5041 -2.1943 -0.9934
  957MOL0     H29148   4.762  11.017   6.406 -0.0894 -0.2406  1.5444
  957MOL0     H29149   4.714  11.276   6.553 -2.2318  0.3341 -2.1338
  957MOL0     H29150   4.871  11.191   6.525 -0.5925 -2.7871  1.2743
  957MOL0     H29151   4.834  11.406   6.389  2.1339  0.1721 -2.9410
  957MOL0     H29152   4.698  11.338   6.312 -0.7620  0.4057  0.3883
  957MOL0     H29153   4.981  11.237   6.300 -0.1609  0.5781  1.3840
  957MOL0     H29154   4.903  11.348   6.181  0.0447  0.9999  0.7089
  957MOL0     H29155   4.795  10.939   6.023 -3.3619 -1.5202 -2.8415
  957MOL0     H29156   4.687  10.945   5.820 -5.4225 -1.8186  2.1605
  957MOL0     H29157   4.296  10.937   5.634 -1.1359 -0.3339  0.6943
  957MOL0     H29158   4.186  10.864   5.403 -0.6101  0.6994  1.3853
  957MOL0     H29159   4.419  10.933   5.065  0.3606 -1.7273 -2.6089
  957MOL0     H29160   4.308  10.792   5.068 -1.0153 -0.5488  1.4173
  957MOL0     H29161   4.126  10.910   4.956 -0.4883  0.7672 -2.2314
  957MOL0     H29162   4.208  11.056   4.940 -1.5207  0.8195 -0.3978
  957MOL0     H29163   4.258  10.797   4.793 -0.5453  0.5092 -1.2613
  957MOL0     H29164   4.222  10.955   4.731 -3.1607  1.5862  3.3457
  957MOL0     H29165   4.500  10.866   4.840  3.6767  0.9747 -2.2916
  957MOL0     H29166   4.455  11.031   4.818  2.8133 -0.8944 -0.1526
  957MOL0     H29167   4.580  10.950   4.624  0.0500 -2.3419 -1.3408
  957MOL0     H29168   4.426  11.007   4.562 -0.9580 -1.4329 -3.5001
  957MOL0     H29169   4.476  10.711   4.595 -5.0552 -2.4393 -2.4425
  957MOL0     H29170   4.326  10.783   4.566  0.1674  1.5016  0.4156
  957MOL0     H29171   4.592  10.835   4.421  0.5993 -2.8931 -0.0526
  957MOL0     H29172   4.447  10.910   4.361 -0.3209 -0.2862 -0.0037
  957MOL0     H29173   4.347  10.695   4.322 -0.1121  1.8490  2.2277
  957MOL0     H29174   4.492  10.732   4.218  0.4607 -0.0995 -0.1632
  957MOL0     H29175   4.463  11.125   5.200  1.2347  2.8067  1.1377
  957MOL0     H29176   4.591  11.142   5.403 -1.6331  0.9375  0.2892
  957MOL0     H29177   4.634  11.378   5.859 -0.7864  0.2499 -0.5952
  957MOL0     H29178   4.721  11.368   6.063 -1.3531 -0.2844  1.0961
  957MOL0     H29179   3.724  10.605   5.613  1.6140 -2.6781 -0.5840
  957MOL0     H29180   3.593  10.413   5.534  0.2112 -1.7624 -2.4325
  957MOL0     H29181   3.254  10.242   5.393 -2.9064  0.5921 -0.7111
  957MOL0     H29182   3.088  10.079   5.349  1.1318  0.0809  1.5815
  957MOL0     H29183   3.190   9.732   5.224  0.7728 -0.4568 -1.4429
  957MOL0     H29184   3.139   9.738   5.052 -2.5727  1.7261 -1.8666
  957MOL0     H29185   2.948   9.715   5.283  2.5413  2.7087 -0.2235
  957MOL0     H29186   3.024   9.584   5.170  1.1899  0.4057 -1.6152
  957MOL0     H29187   2.906   9.658   4.988  0.2596 -0.6731  1.4955
  957MOL0     H29188   2.860   9.815   5.057  0.5784  0.6126 -1.5057
  957MOL0     H29189   2.693   9.739   5.183  1.8416 -0.5406  0.3477
  957MOL0     H29190   2.662   9.674   5.026 -0.4253  0.2570 -0.2053
  957MOL0     H29191   2.692   9.322   5.263  2.1553  1.0479  3.3602
  957MOL0     H29192   3.338   9.880   5.067  0.5917 -1.6732  0.8348
  957MOL0     H29193   3.591  10.132   5.022  2.0057 -1.2033 -1.1583
  957MOL0     H29194   3.638  10.014   5.147  2.6786  0.3106 -2.3202
  957MOL0     H29195   3.553   9.961   4.999  1.8872  0.1582  0.0587
  958MOL0     O29196   3.871   4.403   6.388 -0.1045 -0.1580  1.0494
  958MOL0     C29197   3.766   4.349   6.360  0.9319 -0.4353 -0.4724
  958MOL0     O29198   3.705   4.249   6.437  0.1056  0.4194  0.0891
  958MOL0     C29199   3.755   4.216   6.562  0.5643 -0.5085 -0.4101
  958MOL0     C29200   3.725   4.082   6.606 -0.1356 -0.0526  0.9841
  958MOL0     C29201   3.780   4.034   6.726 -0.1967 -0.1315  0.3777
  958MOL0     C29202   3.849   4.123   6.798 -0.8135 -0.0195 -0.4692
  958MOL0     O29203   3.910   4.072   6.908 -0.8540 -0.1773 -0.5889
  958MOL0     C29204   3.880   4.127   7.034 -0.1477 -0.7668  0.4582
  958MOL0     C29205   3.925   4.024   7.136  0.6128  0.6990  0.9642
  958MOL0     C29206   4.074   4.013   7.152  1.2828  0.2369 -0.5266
  958MOL0     C29207   4.092   3.909   7.264 -0.3221  0.7548 -0.2501
  958MOL0     C29208   4.244   3.875   7.297  0.2222 -0.3440  0.3699
  958MOL0     C29209   4.267   3.758   7.394  0.3513  0.0231 -0.1502
  958MOL0     C29210   4.276   3.623   7.322  0.7349  0.2170  0.3293
  958MOL0     C29211   4.283   3.509   7.423  0.6973  0.3245 -0.0410
  958MOL0     N29212   4.393   3.516   7.518 -0.3883 -0.0486 -0.3198
  958MOL0     C29213   4.528   3.505   7.484 -0.4449 -0.3007  0.7027
  958MOL0     C29214   4.595   3.521   7.597 -0.8594 -0.3180  0.0456
  958MOL0     C29215   4.739   3.491   7.634  0.4922 -0.8090 -0.1942
  958MOL0     C29216   4.832   3.608   7.631 -0.4326 -0.2468 -0.0162
  958MOL0     C29217   4.826   3.692   7.753  0.0861 -0.3793 -0.1714
  958MOL0     C29218   4.855   3.627   7.891  0.2859 -0.5132 -0.6195
  958MOL0     O29219   4.974   3.551   7.883 -0.0616  0.1879  0.2172
  958MOL0     C29220   5.074   3.577   7.971  0.1762 -0.3605  0.0539
  958MOL0     C29221   5.067   3.539   8.105  0.5238 -0.1824  0.1302
  958MOL0     C29222   5.166   3.572   8.193  0.9232 -1.2662  0.1764
  958MOL0     C29223   5.276   3.639   8.157 -0.8244 -1.0909 -0.1329
  958MOL0     C29224   5.365   3.687   8.269 -0.5233 -0.1084 -0.1558
  958MOL0     O29225   5.328   3.662   8.404  0.0201 -0.2331  0.5819
  958MOL0     C29226   5.399   3.726   8.499 -0.9487 -1.1740  0.4180
  958MOL0     C29227   5.351   3.834   8.572  0.5927  0.5292 -0.3357
  958MOL0     C29228   5.420   3.888   8.674 -0.5617  0.0233 -0.8318
  958MOL0     C29229   5.549   3.842   8.709  0.6838  0.1797  0.9584
  958MOL0     O29230   5.644   3.890   8.794  0.8731  0.1565 -0.4953
  958MOL0     C29231   5.601   4.003   8.882 -0.2591  0.1879  1.0431
  958MOL0     C29232   5.710   4.038   8.986 -0.0268 -0.1452 -0.5733
  958MOL0     C29233   5.834   4.085   8.919 -0.8233  0.5426 -0.7115
  958MOL0     C29234   5.812   4.226   8.879  0.1204  0.5601 -0.3307
  958MOL0     C29235   5.944   4.296   8.872 -0.2051 -0.2182  0.2155
  958MOL0     C29236   5.924   4.440   8.835  0.0591 -0.9450 -0.3699
  958MOL0     C29237   5.842   4.533   8.932  0.4752  1.0254 -0.7657
  958MOL0     C29238   5.906   4.660   8.961 -1.0648 -0.5911  0.0617
  958MOL0    Cl29239   6.055   4.638   9.043 -0.0393  0.6421 -0.1113
  958MOL0     C29240   5.602   3.722   8.655  0.3228 -0.4108 -1.1361
  958MOL0     C29241   5.522   3.671   8.552  0.7142  0.4824  0.0891
  958MOL0     O29242   5.468   3.739   8.240 -0.2481  0.3422 -0.2057
  958MOL0     C29243   5.291   3.686   8.026  0.3159  0.7108  0.1670
  958MOL0     C29244   5.181   3.659   7.934 -0.3010  0.1005  0.1027
  958MOL0     N29245   4.508   3.544   7.695  0.9304 -0.2009 -0.6184
  958MOL0     N29246   4.388   3.549   7.652 -0.2196 -0.4112  0.1057
  958MOL0     C29247   3.871   4.260   6.764 -0.1074  0.4009  0.3310
  958MOL0     C29248   3.815   4.316   6.644  1.0302  1.0852 -0.4386
  958MOL0     C29249   3.693   4.391   6.234 -0.0245 -0.9800 -0.0023
  958MOL0     C29250   3.725   4.519   6.194 -0.6478  0.0434 -0.4049
  958MOL0     C29251   3.677   4.570   6.076  0.0429  0.0978 -0.0932
  958MOL0     C29252   3.576   4.499   5.997 -1.8149  0.3115  0.0276
  958MOL0     O29253   3.532   4.556   5.879 -0.1012  0.4568  0.9802
  958MOL0     C29254   3.401   4.520   5.845  1.0293  0.9425  0.1910
  958MOL0     C29255   3.405   4.454   5.696 -0.0453 -0.5168  0.1079
  958MOL0     C29256   3.314   4.514   5.594  0.1245 -0.3732 -0.6004
  958MOL0     C29257   3.368   4.638   5.527 -0.4152  0.1459 -1.3732
  958MOL0     C29258   3.261   4.689   5.441 -0.0917 -0.1188 -0.3268
  958MOL0     C29259   3.149   4.727   5.394 -0.7885  0.1814  0.1561
  958MOL0     C29260   3.541   4.374   6.049 -0.1671 -0.4589 -0.8774
  958MOL0     C29261   3.603   4.316   6.160 -0.6105 -0.2357 -0.3468
  958MOL0     C29262   3.569   4.170   6.214  0.2445 -0.4501 -0.4073
  958MOL0     H29263   3.674   4.011   6.542 -0.9205 -0.0798  1.6253
  958MOL0     H29264   3.754   3.934   6.761 -0.4048 -0.1320  0.2253
  958MOL0     H29265   3.925   4.224   7.056 -1.2467  0.3733 -1.9800
  958MOL0     H29266   3.773   4.148   7.030  0.4477  2.7992 -2.4631
  958MOL0     H29267   3.888   3.926   7.104  1.3218  0.9579 -0.7805
  958MOL0     H29268   3.876   4.044   7.232  1.0285 -2.8641  2.0508
  958MOL0     H29269   4.131   4.102   7.177  1.2042  0.5363 -1.3814
  958MOL0     H29270   4.118   3.974   7.060  0.3844 -2.7460  0.1963
  958MOL0     H29271   4.049   3.941   7.360 -1.2043 -1.5262  0.1926
  958MOL0     H29272   4.044   3.814   7.237  1.2932  0.0642 -0.7998
  958MOL0     H29273   4.291   3.847   7.203  1.2084 -1.2540  1.1069
  958MOL0     H29274   4.286   3.966   7.341 -1.4626 -0.4869  2.4678
  958MOL0     H29275   4.357   3.776   7.453 -0.0628  0.3999  0.3851
  958MOL0     H29276   4.190   3.745   7.471 -0.8173 -1.4642 -1.5000
  958MOL0     H29277   4.369   3.633   7.264  1.4059 -0.7161  1.2217
  958MOL0     H29278   4.197   3.601   7.250  0.4495 -0.7053  0.9025
  958MOL0     H29279   4.192   3.521   7.481  1.4085 -1.8681  1.6588
  958MOL0     H29280   4.285   3.412   7.372  0.8934  1.4444 -2.2855
  958MOL0     H29281   4.556   3.479   7.382 -1.8405  2.6480 -0.5568
  958MOL0     H29282   4.742   3.442   7.732  1.6400  0.3537  0.3854
  958MOL0     H29283   4.784   3.411   7.575 -0.6439 -2.7971  1.5002
  958MOL0     H29284   4.935   3.573   7.627 -0.2780  0.2844 -2.0396
  958MOL0     H29285   4.802   3.674   7.548 -1.9859  0.2598  0.9039
  958MOL0     H29286   4.727   3.739   7.750 -0.4836 -1.5441 -3.1019
  958MOL0     H29287   4.885   3.783   7.739 -3.8464  2.3829 -0.7320
  958MOL0     H29288   4.774   3.558   7.915 -0.4571  1.0604  1.7824
  958MOL0     H29289   4.862   3.708   7.965 -3.0970 -0.2893 -0.3922
  958MOL0     H29290   4.985   3.480   8.143 -0.2932  0.0040 -1.2567
  958MOL0     H29291   5.138   3.544   8.294 -0.1533 -1.8515 -0.2680
  958MOL0     H29292   5.255   3.876   8.547  0.9161  0.2621 -2.1509
  958MOL0     H29293   5.402   3.985   8.720  3.6068  2.0144 -2.7923
  958MOL0     H29294   5.575   4.097   8.832  0.9087  0.9604  1.8542
  958MOL0     H29295   5.511   3.974   8.938  0.8462 -3.4430  1.1574
  958MOL0     H29296   5.683   4.126   9.045  3.6228 -1.1961  3.1267
  958MOL0     H29297   5.726   3.958   9.058 -0.6022 -0.4560 -0.7799
  958MOL0     H29298   5.922   4.091   8.984 -0.4311 -1.2959 -1.0216
  958MOL0     H29299   5.882   4.022   8.844  0.7981 -2.4727  2.5252
  958MOL0     H29300   5.743   4.281   8.944  0.7808 -1.3187  2.0956
  958MOL0     H29301   5.777   4.228   8.775  3.9313 -0.0695 -1.7960
  958MOL0     H29302   6.001   4.247   8.792 -2.0883  1.2803 -2.1426
  958MOL0     H29303   6.013   4.293   8.957  0.7975 -3.2717 -0.5579
  958MOL0     H29304   6.021   4.487   8.814 -1.3762  3.0478  0.8978
  958MOL0     H29305   5.869   4.427   8.742 -0.1809 -1.0814 -0.2080
  958MOL0     H29306   5.821   4.488   9.030  0.5883 -1.8014 -1.9269
  958MOL0     H29307   5.748   4.568   8.888  0.0579  1.3416  0.3551
  958MOL0     H29308   5.915   4.705   8.862  1.9525  0.1228  0.5528
  958MOL0     H29309   5.847   4.733   9.017  1.2920  2.0975 -0.7218
  958MOL0     H29310   5.697   3.673   8.677  1.2839  1.7816 -0.1451
  958MOL0     H29311   5.548   3.578   8.502 -3.4707 -2.6015  2.8774
  958MOL0     H29312   5.378   3.744   7.996  2.4046 -0.4004  3.5633
  958MOL0     H29313   5.179   3.688   7.830 -0.5913  1.4155  0.4543
  958MOL0     H29314   3.918   4.330   6.833  0.5274  2.9115 -2.4533
  958MOL0     H29315   3.821   4.423   6.631 -1.2889  1.3226  0.0291
  958MOL0     H29316   3.794   4.585   6.246 -0.5544  1.6800 -2.4501
  958MOL0     H29317   3.707   4.670   6.046  1.2910 -0.4074 -0.5803
  958MOL0     H29318   3.334   4.607   5.846  0.5437  0.6642  3.1739
  958MOL0     H29319   3.356   4.438   5.903  0.2184  0.7636 -0.6687
  958MOL0     H29320   3.384   4.347   5.703  2.6575 -1.0537  1.7833
  958MOL0     H29321   3.510   4.455   5.664 -0.0626  0.7130  0.0353
  958MOL0     H29322   3.220   4.536   5.644  0.5419 -1.9764  0.9703
  958MOL0     H29323   3.286   4.438   5.521 -0.0893 -1.6234  0.7459
  958MOL0     H29324   3.392   4.709   5.606 -1.8060 -0.1372 -0.6554
  958MOL0     H29325   3.455   4.612   5.466  1.5637  0.7176  1.0477
  958MOL0     H29326   3.052   4.747   5.354  0.0581  1.5234 -1.3462
  958MOL0     H29327   3.468   4.310   6.001  0.0809 -0.6091 -1.0550
  958MOL0     H29328   3.659   4.118   6.247  1.6993  1.0224 -1.8119
  958MOL0     H29329   3.488   4.163   6.287 -0.4279  1.2197 -0.9388
  958MOL0     H29330   3.524   4.120   6.127 -1.0737 -0.8834  0.4954
  959MOL0     O29331   7.906   1.462   6.701  0.2005 -0.3060 -0.5789
  959MOL0     C29332   7.835   1.410   6.617  0.2354  0.3939  0.5187
  959MOL0     O29333   7.863   1.295   6.553  0.9635  0.2137  0.2480
  959MOL0     C29334   7.762   1.232   6.471 -0.3133  0.6881 -0.3940
  959MOL0     C29335   7.761   1.255   6.332  0.0972 -0.1028  0.1586
  959MOL0     C29336   7.673   1.178   6.255  0.8467  1.0307  0.6322
  959MOL0     C29337   7.578   1.101   6.313  0.6902  0.6008 -0.0965
  959MOL0     O29338   7.502   1.035   6.214  0.9120 -0.5155 -0.0572
  959MOL0     C29339   7.452   0.899   6.232 -0.2156  0.3127  1.0310
  959MOL0     C29340   7.298   0.897   6.223  0.2634  0.3236  0.2717
  959MOL0     C29341   7.246   0.755   6.257 -1.0083  1.1075 -0.0344
  959MOL0     C29342   7.241   0.658   6.138  0.1423  0.3628  0.4134
  959MOL0     C29343   7.132   0.551   6.147  1.1787  0.5388  0.9925
  959MOL0     C29344   7.159   0.428   6.226  0.5618 -0.2732 -0.1237
  959MOL0     C29345   7.033   0.341   6.225  0.8568 -0.1020  0.2733
  959MOL0     C29346   7.058   0.212   6.311 -0.2778 -0.5814  0.5360
  959MOL0     N29347   6.950   0.116   6.309  0.2854  0.0922  0.1575
  959MOL0     C29348   6.823   0.124   6.341  0.6555 -0.4776 -0.1658
  959MOL0     C29349   6.775   0.003   6.320  0.9873 -0.6107  0.6656
  959MOL0     C29350   6.629  -0.041   6.324  1.0331 -0.7868 -0.1654
  959MOL0     C29351   6.592  -0.052   6.469 -0.2295 -0.4391  0.2009
  959MOL0     C29352   6.439  -0.077   6.487 -1.2320 -0.4529  0.1660
  959MOL0     C29353   6.375   0.056   6.535  0.4148 -0.3241 -0.7510
  959MOL0     O29354   6.392   0.058   6.680  1.0250  0.0407  0.4693
  959MOL0     C29355   6.324   0.166   6.731  0.1072  0.0826  0.4369
  959MOL0     C29356   6.373   0.296   6.725 -0.4596 -0.6750  0.7941
  959MOL0     C29357   6.300   0.409   6.754  0.4511 -0.4316 -0.1917
  959MOL0     C29358   6.165   0.390   6.791 -0.0211  0.5865  1.3573
  959MOL0     C29359   6.081   0.512   6.810  0.4723  0.4759 -0.1544
  959MOL0     O29360   5.958   0.497   6.797 -0.3469  0.1831  1.0498
  959MOL0     C29361   5.888   0.612   6.797 -0.0481 -0.4434  0.1961
  959MOL0     C29362   5.836   0.662   6.920  0.4936 -0.4345  0.3129
  959MOL0     C29363   5.738   0.764   6.920 -0.8018  0.3218  0.6001
  959MOL0     C29364   5.697   0.824   6.798 -1.0388 -1.0009 -0.0034
  959MOL0     O29365   5.602   0.919   6.811  0.6723 -0.8803 -0.0903
  959MOL0     C29366   5.557   0.999   6.694 -1.3177  1.1458  0.1395
  959MOL0     C29367   5.657   1.093   6.627 -0.0237 -0.9191 -0.2974
  959MOL0     C29368   5.720   1.189   6.724  0.4339 -0.4592 -0.6205
  959MOL0     C29369   5.802   1.299   6.661  0.4432 -1.4955  0.0495
  959MOL0     C29370   5.814   1.422   6.756  0.1372  0.5113  0.8096
  959MOL0     C29371   5.936   1.409   6.844 -0.3052  0.7854  0.4636
  959MOL0     C29372   5.930   1.522   6.955 -0.3785  0.2563 -0.1599
  959MOL0     C29373   6.045   1.489   7.053 -0.5319 -0.0351  0.0962
  959MOL0    Cl29374   5.991   1.546   7.214 -0.3736 -0.3216  0.1960
  959MOL0     C29375   5.753   0.778   6.676 -0.2414 -0.0739 -0.9946
  959MOL0     C29376   5.849   0.666   6.672  1.0202  0.3871  0.1884
  959MOL0     O29377   6.139   0.625   6.830  0.2966  0.3885 -0.9657
  959MOL0     C29378   6.111   0.258   6.807 -1.4196 -0.4373  0.3510
  959MOL0     C29379   6.191   0.151   6.771 -0.7845  0.6736 -0.1343
  959MOL0     N29380   6.877  -0.072   6.269 -0.5968 -0.7271  0.4359
  959MOL0     N29381   6.967   0.003   6.246 -0.3149  0.1827  1.0669
  959MOL0     C29382   7.575   1.083   6.449 -0.2101 -0.4030 -1.0711
  959MOL0     C29383   7.675   1.134   6.524  0.2019 -0.2914 -0.5537
  959MOL0     C29384   7.726   1.484   6.573 -0.4778  0.1519  0.6690
  959MOL0     C29385   7.747   1.599   6.499 -0.4060  0.1463 -0.0734
  959MOL0     C29386   7.642   1.675   6.436  0.2066 -0.2361 -0.1253
  959MOL0     C29387   7.510   1.641   6.471 -0.0609 -0.1915 -0.1327
  959MOL0     O29388   7.410   1.713   6.399 -0.2734  0.0591  0.1799
  959MOL0     C29389   7.269   1.706   6.412  0.2154 -0.7983 -0.1445
  959MOL0     C29390   7.207   1.606   6.325  0.4253  0.8562 -0.2067
  959MOL0     C29391   7.199   1.649   6.183  0.1287 -0.2957  0.4351
  959MOL0     C29392   7.118   1.539   6.094  0.6105 -0.6432 -0.1030
  959MOL0     C29393   7.194   1.414   6.106 -0.5979 -0.2258 -0.1231
  959MOL0     C29394   7.250   1.304   6.107  0.0009 -0.0584  0.8194
  959MOL0     C29395   7.481   1.528   6.549 -0.0975 -0.0706 -0.0913
  959MOL0     C29396   7.586   1.453   6.603  0.4719 -0.4206 -0.5773
  959MOL0     C29397   7.548   1.363   6.718 -1.0212 -0.7411 -0.5313
  959MOL0     H29398   7.820   1.336   6.289 -2.0617  0.8754 -1.1291
  959MOL0     H29399   7.680   1.188   6.147  3.0710  0.3078  0.6569
  959MOL0     H29400   7.500   0.837   6.156 -1.9106  0.2585 -0.0717
  959MOL0     H29401   7.480   0.860   6.330 -2.6156  1.8685  2.4678
  959MOL0     H29402   7.262   0.927   6.124 -4.2470  1.3624  1.9838
  959MOL0     H29403   7.252   0.965   6.296  0.5517  1.2333 -0.3698
  959MOL0     H29404   7.146   0.764   6.301 -0.5184  0.9198  1.1701
  959MOL0     H29405   7.313   0.705   6.328 -1.5363  0.0416 -0.2758
  959MOL0     H29406   7.220   0.719   6.049  1.0987 -0.5630 -0.4664
  959MOL0     H29407   7.324   0.589   6.123 -0.2142  0.4711 -2.8113
  959MOL0     H29408   7.042   0.596   6.189 -1.0858 -2.3765 -0.4233
  959MOL0     H29409   7.110   0.510   6.048  3.4147 -3.4216  1.9329
  959MOL0     H29410   7.240   0.379   6.171  0.0425  0.8165 -1.9680
  959MOL0     H29411   7.185   0.454   6.329 -0.9013  1.1436 -0.0661
  959MOL0     H29412   7.022   0.320   6.118 -0.4136  2.0880 -0.0833
  959MOL0     H29413   6.948   0.398   6.262  1.3679 -0.6644  2.4400
  959MOL0     H29414   7.146   0.170   6.261  0.6641  3.2908 -1.5352
  959MOL0     H29415   7.085   0.236   6.414 -1.1250 -1.5396  0.9921
  959MOL0     H29416   6.753   0.204   6.359 -1.7028 -1.1292 -4.7310
  959MOL0     H29417   6.569   0.039   6.280  3.2554  0.8138 -0.3966
  959MOL0     H29418   6.628  -0.133   6.264 -0.6101 -0.9378  0.0393
  959MOL0     H29419   6.655  -0.131   6.511  2.1278  0.8816 -0.6475
  959MOL0     H29420   6.615   0.045   6.516 -0.6557  1.3922 -3.0679
  959MOL0     H29421   6.445  -0.148   6.570  0.3015 -1.8186 -1.0476
  959MOL0     H29422   6.379  -0.123   6.408  0.1041 -0.2704 -0.9809
  959MOL0     H29423   6.278   0.054   6.486  1.1001  1.4804 -2.3290
  959MOL0     H29424   6.422   0.149   6.501 -1.0945  1.2642  1.2355
  959MOL0     H29425   6.476   0.312   6.695 -0.2264 -0.6489  1.5956
  959MOL0     H29426   6.348   0.507   6.749  2.4014 -1.3112  0.4993
  959MOL0     H29427   5.878   0.618   7.010  0.0413  0.7149  1.1235
  959MOL0     H29428   5.692   0.808   7.008 -0.5244  1.8016  0.0406
  959MOL0     H29429   5.529   0.941   6.605  0.9238  0.4100 -0.1526
  959MOL0     H29430   5.474   1.065   6.722  2.3835  6.4352 -0.0382
  959MOL0     H29431   5.738   1.046   6.570 -0.2133 -3.6536  1.4676
  959MOL0     H29432   5.598   1.151   6.556 -0.2523 -3.6652 -2.5483
  959MOL0     H29433   5.637   1.233   6.780  1.9320  2.4732 -0.4971
  959MOL0     H29434   5.783   1.137   6.796  1.6317 -0.2320 -1.4711
  959MOL0     H29435   5.757   1.338   6.569 -0.6561  0.9488  1.5470
  959MOL0     H29436   5.895   1.268   6.612 -0.6399  1.1383 -4.2360
  959MOL0     H29437   5.725   1.432   6.819 -0.5519  1.2418 -0.2426
  959MOL0     H29438   5.821   1.519   6.706  0.3574  0.6165  1.0424
  959MOL0     H29439   5.931   1.307   6.882  1.3226  1.2497  2.0907
  959MOL0     H29440   6.029   1.397   6.787  0.1885 -3.7623  1.8502
  959MOL0     H29441   5.832   1.518   7.004  0.6351  1.8961  2.2049
  959MOL0     H29442   5.952   1.611   6.894 -1.4356 -1.1046 -2.6713
  959MOL0     H29443   6.053   1.381   7.072 -1.1303 -0.0230  0.4647
  959MOL0     H29444   6.139   1.541   7.032  0.7063 -1.7086  1.1456
  959MOL0     H29445   5.720   0.825   6.585  1.6111  2.3553 -0.5016
  959MOL0     H29446   5.884   0.627   6.577  0.6190  1.5375 -0.4578
  959MOL0     H29447   6.006   0.240   6.827 -2.0595 -0.9682 -2.8929
  959MOL0     H29448   6.155   0.049   6.779 -0.8279  0.7818  1.2387
  959MOL0     H29449   7.496   1.026   6.496  0.1139  0.4121  0.5463
  959MOL0     H29450   7.689   1.104   6.627 -0.8291 -1.9746 -0.8593
  959MOL0     H29451   7.848   1.610   6.461 -0.4944 -0.8806 -0.6410
  959MOL0     H29452   7.659   1.759   6.370  0.4356  0.1615  0.4300
  959MOL0     H29453   7.237   1.803   6.371  3.0403  0.7126  0.9580
  959MOL0     H29454   7.253   1.701   6.520 -0.6623  0.1969 -0.2144
  959MOL0     H29455   7.105   1.588   6.360 -0.5412  0.1900 -3.1588
  959MOL0     H29456   7.256   1.508   6.325  0.3512  0.8005 -1.6586
  959MOL0     H29457   7.302   1.661   6.149 -0.4968 -1.7726 -2.2493
  959MOL0     H29458   7.147   1.745   6.180  0.1019 -0.2274  2.0905
  959MOL0     H29459   7.019   1.535   6.141  1.9688  0.7281  3.1281
  959MOL0     H29460   7.111   1.568   5.988  3.7054  1.8835  0.2424
  959MOL0     H29461   7.293   1.206   6.112 -0.6512 -0.4573 -0.8371
  959MOL0     H29462   7.375   1.505   6.560 -0.5354  2.2546  1.1013
  959MOL0     H29463   7.637   1.313   6.756  0.1246  1.1520 -0.6134
  959MOL0     H29464   7.501   1.410   6.805  0.5543  0.9708 -0.5538
  959MOL0     H29465   7.473   1.287   6.692 -4.9636  1.0286  4.0173
  960MOL0     O29466   7.734   3.896   7.929 -0.0709  0.5427  0.5280
  960MOL0     C29467   7.720   3.964   7.827  1.0708  0.6100 -0.0151
  960MOL0     O29468   7.635   3.935   7.732  0.3242 -0.4107 -0.3954
  960MOL0     C29469   7.515   3.884   7.762  0.3307  0.3825  0.6296
  960MOL0     C29470   7.440   3.900   7.881  0.5954  0.7165  0.0253
  960MOL0     C29471   7.320   3.833   7.906  0.5390 -0.1852 -0.5066
  960MOL0     C29472   7.267   3.756   7.794  0.2736  0.2657  0.0540
  960MOL0     O29473   7.146   3.681   7.789  1.0812  0.4929 -0.1671
  960MOL0     C29474   7.096   3.631   7.910  0.8575  0.4637 -0.2654
  960MOL0     C29475   6.959   3.549   7.882  0.1131 -0.2647  0.0100
  960MOL0     C29476   6.955   3.415   7.959  0.7326 -0.7527  0.1507
  960MOL0     C29477   6.820   3.354   7.916 -0.4470  0.5087 -0.5313
  960MOL0     C29478   6.798   3.211   7.982  0.5083 -0.3958 -0.2854
  960MOL0     C29479   6.863   3.096   7.899 -0.1344  0.7070  0.1949
  960MOL0     C29480   6.761   3.045   7.791 -0.0690 -0.4073 -0.6849
  960MOL0     C29481   6.663   2.933   7.846  1.2448 -0.8546 -0.4898
  960MOL0     N29482   6.562   2.982   7.950  0.0691 -0.0044  0.1145
  960MOL0     C29483   6.452   3.052   7.909  0.1405 -0.2358 -0.1950
  960MOL0     C29484   6.388   3.074   8.028  1.0457  0.5089  0.2774
  960MOL0     C29485   6.262   3.167   8.035 -0.4890 -0.0669  0.1517
  960MOL0     C29486   6.300   3.312   8.018  0.3368 -0.2283 -0.0542
  960MOL0     C29487   6.193   3.420   8.054 -0.1322  0.8159  0.1742
  960MOL0     C29488   6.260   3.562   8.070  0.0170 -0.1055 -0.9976
  960MOL0     O29489   6.317   3.605   7.951 -0.1681  0.4650 -0.2837
  960MOL0     C29490   6.426   3.682   7.949 -0.4505 -0.2523  0.6337
  960MOL0     C29491   6.449   3.761   7.834  0.6092 -0.1636  0.6404
  960MOL0     C29492   6.562   3.836   7.819 -1.5509  0.1680 -0.8646
  960MOL0     C29493   6.663   3.833   7.918  0.9039  0.8279  0.6096
  960MOL0     C29494   6.783   3.909   7.899 -0.2176  1.0312 -0.5687
  960MOL0     O29495   6.777   4.037   7.861 -0.4769 -0.8341  0.9494
  960MOL0     C29496   6.893   4.114   7.874 -0.1264 -0.0577 -0.1320
  960MOL0     C29497   6.938   4.141   8.003 -0.2532 -0.6011 -0.1168
  960MOL0     C29498   7.057   4.201   8.023 -1.2515  1.1796  0.0126
  960MOL0     C29499   7.128   4.245   7.912  0.6590  0.1228  0.0895
  960MOL0     O29500   7.249   4.320   7.929 -0.6170  0.2239 -0.1910
  960MOL0     C29501   7.347   4.264   7.833 -0.2431  0.5869 -0.1038
  960MOL0     C29502   7.489   4.288   7.883  0.7351  0.1192 -0.2568
  960MOL0     C29503   7.507   4.439   7.907 -0.0389 -0.1353  0.7911
  960MOL0     C29504   7.649   4.461   7.963 -0.4293 -0.6238  0.4540
  960MOL0     C29505   7.667   4.618   7.977 -0.5261  0.5094  0.1976
  960MOL0     C29506   7.611   4.663   8.108 -1.3616  1.1920  0.9827
  960MOL0     C29507   7.660   4.799   8.173  0.6441  0.3884  0.0827
  960MOL0     C29508   7.578   4.919   8.120  1.2966 -0.4927  0.3001
  960MOL0    Cl29509   7.572   4.946   7.935 -0.2758 -0.2507 -0.1037
  960MOL0     C29510   7.078   4.226   7.782  0.1998 -0.3605 -0.6345
  960MOL0     C29511   6.946   4.171   7.765 -1.0141  0.6888  0.8372
  960MOL0     O29512   6.876   3.853   7.954 -0.0856  0.0824  0.3328
  960MOL0     C29513   6.640   3.768   8.036 -0.3314  0.6835 -0.1608
  960MOL0     C29514   6.528   3.686   8.056  0.0498  0.4075  0.5340
  960MOL0     N29515   6.468   3.032   8.133 -0.3378  0.9423 -0.0024
  960MOL0     N29516   6.573   2.968   8.086  0.9304  0.2065 -0.4497
  960MOL0     C29517   7.327   3.763   7.667  0.1490 -0.4486 -0.3930
  960MOL0     C29518   7.454   3.818   7.655  0.7367  0.2473  0.9964
  960MOL0     C29519   7.838   4.050   7.803  0.8872 -0.1579 -0.2005
  960MOL0     C29520   7.876   4.089   7.679  0.6049 -1.0260  0.4557
  960MOL0     C29521   7.975   4.185   7.657 -0.3783 -0.8510  0.4466
  960MOL0     C29522   8.043   4.247   7.771 -0.3065  0.1951  0.7105
  960MOL0     O29523   8.149   4.340   7.763  0.0574  0.8263  0.3568
  960MOL0     C29524   8.149   4.426   7.652  0.1723 -0.4323  0.2086
  960MOL0     C29525   8.224   4.546   7.660  0.4262 -1.3198 -0.2052
  960MOL0     C29526   8.382   4.534   7.629 -0.2397  0.8388 -0.6252
  960MOL0     C29527   8.462   4.660   7.606 -0.6050  0.2135 -0.4772
  960MOL0     C29528   8.518   4.722   7.735 -0.5289  1.5114  0.7737
  960MOL0     C29529   8.546   4.781   7.835 -0.0746 -0.4343 -0.4254
  960MOL0     C29530   7.991   4.213   7.892 -1.4537  0.8440  0.0222
  960MOL0     C29531   7.892   4.118   7.916  0.2637 -0.6530  0.2458
  960MOL0     C29532   7.857   4.107   8.068 -0.0495  0.1810  0.5454
  960MOL0     H29533   7.497   3.955   7.956  1.0242 -1.0189  1.0206
  960MOL0     H29534   7.264   3.834   7.998  1.0332  0.3741 -0.2095
  960MOL0     H29535   7.175   3.561   7.940 -0.8958 -1.9592 -0.9505
  960MOL0     H29536   7.077   3.713   7.980 -2.2774 -2.5145  2.7422
  960MOL0     H29537   6.951   3.523   7.776 -4.2881 -0.5325  0.2091
  960MOL0     H29538   6.879   3.613   7.921 -0.5754 -1.9586  1.5112
  960MOL0     H29539   6.960   3.430   8.067  0.8198  1.4165 -0.1163
  960MOL0     H29540   7.044   3.358   7.931  2.8287  2.4341 -0.2326
  960MOL0     H29541   6.739   3.420   7.948 -1.7367 -0.1562 -2.2706
  960MOL0     H29542   6.817   3.348   7.807  1.3213 -0.1657 -0.5764
  960MOL0     H29543   6.832   3.223   8.086 -6.2866  3.3971  2.1720
  960MOL0     H29544   6.692   3.200   8.009 -0.2426  3.4045 -1.1792
  960MOL0     H29545   6.961   3.116   7.855  0.2177 -1.5465 -0.1238
  960MOL0     H29546   6.879   3.009   7.962  0.4860 -0.9128 -2.0700
  960MOL0     H29547   6.803   3.028   7.692 -2.7362 -2.3215 -1.6073
  960MOL0     H29548   6.688   3.126   7.780 -1.6897 -1.7888 -0.5420
  960MOL0     H29549   6.606   2.897   7.760  1.4966 -3.9558  0.5299
  960MOL0     H29550   6.715   2.850   7.894  1.3961 -0.8121 -0.5813
  960MOL0     H29551   6.427   3.092   7.812  1.2737  1.9690  0.3580
  960MOL0     H29552   6.195   3.125   7.959 -2.3926  0.7184  1.3192
  960MOL0     H29553   6.219   3.164   8.136 -1.2921 -1.2584 -0.2005
  960MOL0     H29554   6.378   3.325   8.093 -1.2568 -0.9883  1.8299
  960MOL0     H29555   6.332   3.327   7.915  2.4836 -4.4180 -0.1827
  960MOL0     H29556   6.142   3.399   8.148  0.1552 -2.5919 -0.3106
  960MOL0     H29557   6.113   3.417   7.980  0.7967 -1.3532 -0.8608
  960MOL0     H29558   6.326   3.563   8.157 -0.3538 -1.1771 -0.6833
  960MOL0     H29559   6.204   3.654   8.088  2.1630  0.7865  1.9201
  960MOL0     H29560   6.374   3.770   7.755 -1.8874  0.1941  2.8836
  960MOL0     H29561   6.573   3.886   7.724 -1.0843 -2.8402 -2.5050
  960MOL0     H29562   6.880   4.098   8.084  2.0015 -2.0510  0.8215
  960MOL0     H29563   7.100   4.217   8.122 -1.9577 -1.1147  0.7452
  960MOL0     H29564   7.333   4.156   7.822 -1.0346  0.7841 -1.1019
  960MOL0     H29565   7.339   4.315   7.737  0.2560 -0.6463 -0.8267
  960MOL0     H29566   7.502   4.230   7.975 -0.5041  0.8439  0.3869
  960MOL0     H29567   7.556   4.233   7.816 -2.3174 -2.2797 -1.5798
  960MOL0     H29568   7.484   4.488   7.811  0.8193  0.0308  0.6568
  960MOL0     H29569   7.430   4.484   7.970 -1.2098  2.3382 -2.1353
  960MOL0     H29570   7.727   4.427   7.894 -0.7547 -0.6762  0.1055
  960MOL0     H29571   7.663   4.416   8.061  5.4336 -1.1269 -0.2746
  960MOL0     H29572   7.611   4.669   7.898  2.0924  0.6655 -1.6815
  960MOL0     H29573   7.770   4.652   7.965 -0.9732  1.2341 -2.0834
  960MOL0     H29574   7.504   4.647   8.090 -0.7629 -1.1148 -1.1714
  960MOL0     H29575   7.630   4.587   8.184 -2.1497  1.5327  1.5328
  960MOL0     H29576   7.767   4.813   8.157  1.2369 -0.1406  3.0633
  960MOL0     H29577   7.651   4.796   8.282  2.5180  0.8660  0.2941
  960MOL0     H29578   7.472   4.917   8.148 -0.1799  0.5210 -4.4664
  960MOL0     H29579   7.622   5.006   8.170 -2.2229  0.1215  2.6821
  960MOL0     H29580   7.109   4.278   7.692 -1.4061  0.5218 -0.7120
  960MOL0     H29581   6.914   4.154   7.663  3.9975  1.3688 -1.1831
  960MOL0     H29582   6.713   3.775   8.116  2.5571 -0.8496 -2.4437
  960MOL0     H29583   6.530   3.627   8.146 -0.4140  0.8772  0.8593
  960MOL0     H29584   7.279   3.720   7.580 -1.8817  1.4041 -0.2736
  960MOL0     H29585   7.502   3.812   7.558 -0.0890 -2.7972  0.6901
  960MOL0     H29586   7.816   4.057   7.595  1.7983  2.6151 -2.0242
  960MOL0     H29587   8.006   4.203   7.554 -0.0703 -0.0958  0.6636
  960MOL0     H29588   8.046   4.462   7.642 -0.1501 -1.8912 -2.7784
  960MOL0     H29589   8.180   4.368   7.565  2.9575  0.5360  0.4443
  960MOL0     H29590   8.199   4.572   7.763 -1.6459 -1.8161 -0.5419
  960MOL0     H29591   8.181   4.623   7.595  3.1663  1.1063  0.6487
  960MOL0     H29592   8.395   4.467   7.543 -2.3173 -0.0854 -0.2759
  960MOL0     H29593   8.441   4.478   7.703  1.5207  2.0139 -1.0720
  960MOL0     H29594   8.556   4.637   7.555  0.0066  0.3750  0.5626
  960MOL0     H29595   8.404   4.722   7.537 -1.9906 -0.7403 -0.2031
  960MOL0     H29596   8.561   4.859   7.907 -1.3595 -0.2064 -0.3875
  960MOL0     H29597   8.033   4.265   7.977  0.9355  1.5363 -1.4924
  960MOL0     H29598   7.759   4.151   8.089 -0.2778 -0.4313  0.7732
  960MOL0     H29599   7.853   4.003   8.101  0.3234  0.1985  0.6459
  960MOL0     H29600   7.932   4.151   8.134 -0.0444 -2.0043  2.1088
  961MOL0     O29601   3.514   9.173   8.484  0.3403  0.4515  0.4509
  961MOL0     C29602   3.491   9.125   8.376  0.5084  0.3595 -0.5797
  961MOL0     O29603   3.381   9.039   8.353 -0.0600  0.3274 -0.4953
  961MOL0     C29604   3.339   8.967   8.465 -0.3267 -0.3629  0.4679
  961MOL0     C29605   3.207   8.937   8.459 -0.6046 -0.7312 -0.9239
  961MOL0     C29606   3.152   8.870   8.566  0.3201  0.0638  0.5311
  961MOL0     C29607   3.229   8.808   8.672 -0.6080  0.2720  0.0410
  961MOL0     O29608   3.176   8.748   8.787 -0.2182 -0.0102  0.1559
  961MOL0     C29609   3.043   8.730   8.802  0.4527  0.2745  1.4190
  961MOL0     C29610   3.010   8.658   8.933  0.2883  0.1113  0.0530
  961MOL0     C29611   2.867   8.598   8.924 -1.2707  0.1398 -0.3603
  961MOL0     C29612   2.780   8.633   9.039  0.5892 -0.5380 -0.3916
  961MOL0     C29613   2.706   8.769   9.041  0.1186 -0.7156  0.3016
  961MOL0     C29614   2.623   8.796   8.911  0.3607  0.0459 -1.0909
  961MOL0     C29615   2.543   8.924   8.929  0.7187 -0.0929  0.5737
  961MOL0     C29616   2.615   9.050   8.978 -0.9078 -0.5361 -0.3306
  961MOL0     N29617   2.718   9.096   8.885  0.2434 -0.5886  0.3847
  961MOL0     C29618   2.799   9.198   8.924 -0.0775 -1.1202 -0.2776
  961MOL0     C29619   2.884   9.219   8.818 -0.3484 -0.1843 -0.3768
  961MOL0     C29620   2.993   9.318   8.805  0.8570 -0.8923 -0.0669
  961MOL0     C29621   3.119   9.250   8.761  0.1481 -0.0392  0.8566
  961MOL0     C29622   3.238   9.353   8.781 -0.1130  0.1825  1.0185
  961MOL0     C29623   3.362   9.293   8.837 -0.4618 -0.6355 -0.9549
  961MOL0     O29624   3.368   9.295   8.981 -0.5143 -0.5982 -0.7863
  961MOL0     C29625   3.341   9.180   9.049  1.0778  1.1241 -1.1362
  961MOL0     C29626   3.348   9.201   9.184 -1.0942  0.2469  0.4801
  961MOL0     C29627   3.345   9.092   9.282  0.3716  0.0799  0.9905
  961MOL0     C29628   3.305   8.963   9.235 -0.3650 -0.3985  0.2070
  961MOL0     C29629   3.311   8.851   9.329  0.6567  0.1819  0.1326
  961MOL0     O29630   3.410   8.860   9.433  0.0552 -0.0388  0.2789
  961MOL0     C29631   3.407   8.763   9.534 -0.5288  0.3858  0.5160
  961MOL0     C29632   3.456   8.635   9.517  0.0142  0.8445  0.5554
  961MOL0     C29633   3.443   8.531   9.609 -0.0405  0.8566  0.1642
  961MOL0     C29634   3.400   8.566   9.736  0.4092  0.9811  0.0408
  961MOL0     O29635   3.417   8.469   9.830 -0.3219 -0.1695 -1.1304
  961MOL0     C29636   3.326   8.468   9.942 -0.1709  0.2733  0.5195
  961MOL0     C29637   3.295   8.328   9.992 -0.7984 -0.4524  0.1719
  961MOL0     C29638   3.401   8.277  10.090 -0.0798 -0.8257 -0.0112
  961MOL0     C29639   3.374   8.145  10.163 -0.1046  0.3415  0.2752
  961MOL0     C29640   3.490   8.085  10.267 -0.7293 -0.3133  0.5623
  961MOL0     C29641   3.623   8.072  10.181 -0.3701 -0.4645  0.1645
  961MOL0     C29642   3.716   7.965  10.244 -0.4075 -0.8685 -0.1128
  961MOL0     C29643   3.766   8.006  10.387 -0.6120  0.2174 -0.2097
  961MOL0    Cl29644   3.856   8.153  10.375 -0.0908 -0.5387  0.0891
  961MOL0     C29645   3.356   8.694   9.760 -0.4334 -0.4828 -0.0541
  961MOL0     C29646   3.354   8.793   9.656 -0.6161 -0.0034 -0.9364
  961MOL0     O29647   3.247   8.751   9.298 -0.4546 -0.4833 -0.3485
  961MOL0     C29648   3.285   8.952   9.096  0.3025  0.3207 -0.1188
  961MOL0     C29649   3.294   9.057   9.007  1.2632  0.1904 -0.2654
  961MOL0     N29650   2.849   9.117   8.720 -0.3301 -0.4279 -0.6670
  961MOL0     N29651   2.749   9.051   8.760 -0.1481 -0.9616  0.0303
  961MOL0     C29652   3.371   8.832   8.664 -0.0693  0.8931  0.7213
  961MOL0     C29653   3.424   8.909   8.560 -0.5506 -0.1691  0.6164
  961MOL0     C29654   3.565   9.169   8.261  0.3581  0.5986  0.2941
  961MOL0     C29655   3.515   9.118   8.141 -0.1555 -1.1110  0.3652
  961MOL0     C29656   3.571   9.149   8.017 -0.9985  0.3275  0.0366
  961MOL0     C29657   3.682   9.234   8.019 -0.2157 -0.5840  0.0133
  961MOL0     O29658   3.762   9.272   7.911 -0.3320 -0.2264  0.9239
  961MOL0     C29659   3.724   9.269   7.775  0.4920 -0.2003 -0.0980
  961MOL0     C29660   3.667   9.408   7.727  0.5519 -0.2852  0.1042
  961MOL0     C29661   3.786   9.506   7.721 -0.1093 -0.8822  0.1486
  961MOL0     C29662   3.853   9.487   7.580 -0.4489 -0.1355  0.4136
  961MOL0     C29663   3.916   9.623   7.546 -0.7631  1.0380  0.0410
  961MOL0     C29664   3.945   9.736   7.520 -0.0060 -0.0338  0.4018
  961MOL0     C29665   3.741   9.282   8.133 -0.9770  0.3226  0.3768
  961MOL0     C29666   3.672   9.259   8.252  1.7210  0.1569  0.2030
  961MOL0     C29667   3.725   9.331   8.380 -1.2101  1.0252 -0.2023
  961MOL0     H29668   3.137   8.978   8.387 -1.9454 -3.2179 -1.1620
  961MOL0     H29669   3.044   8.870   8.577  0.3880  1.4107  1.4437
  961MOL0     H29670   2.985   8.823   8.806  2.6508  1.7976  0.3160
  961MOL0     H29671   3.012   8.657   8.727 -0.9993  1.6090  0.6615
  961MOL0     H29672   3.007   8.729   9.016 -0.1378 -2.3223  2.2670
  961MOL0     H29673   3.081   8.583   8.967  1.1280  0.2622 -1.2744
  961MOL0     H29674   2.883   8.492   8.904 -0.1853  0.6599 -2.5900
  961MOL0     H29675   2.815   8.628   8.832 -1.7381 -1.4202 -0.6268
  961MOL0     H29676   2.691   8.570   9.033  0.1952 -0.5162  3.1429
  961MOL0     H29677   2.820   8.614   9.139 -0.0445  1.3235  0.2674
  961MOL0     H29678   2.651   8.761   9.135  0.2079  1.4822  0.5980
  961MOL0     H29679   2.775   8.853   9.045 -0.8539  0.1337 -0.1785
  961MOL0     H29680   2.691   8.798   8.825  3.8114  3.6667  1.2976
  961MOL0     H29681   2.558   8.709   8.900 -1.9392  1.5222 -0.0083
  961MOL0     H29682   2.470   8.899   9.007 -1.4960  1.5133 -0.8725
  961MOL0     H29683   2.485   8.939   8.837 -0.5285 -1.6841  1.0397
  961MOL0     H29684   2.550   9.137   8.990 -0.7841 -0.5983  1.0097
  961MOL0     H29685   2.659   9.035   9.077 -1.8845  0.6069  0.3072
  961MOL0     H29686   2.813   9.254   9.016  0.8472 -0.1452 -0.9772
  961MOL0     H29687   2.973   9.396   8.732  0.5027  0.6160  1.5591
  961MOL0     H29688   3.011   9.359   8.905  1.9407  1.0531 -0.9959
  961MOL0     H29689   3.126   9.160   8.822 -2.4744 -1.0501 -0.1745
  961MOL0     H29690   3.105   9.233   8.654  0.2360 -2.0042  1.1330
  961MOL0     H29691   3.208   9.438   8.843  1.9319  1.2425  0.6266
  961MOL0     H29692   3.249   9.402   8.684 -2.2007 -2.1139 -0.4920
  961MOL0     H29693   3.443   9.360   8.807 -1.9861  3.0173  2.2887
  961MOL0     H29694   3.385   9.194   8.795 -0.6585 -0.0675 -2.4606
  961MOL0     H29695   3.365   9.304   9.213 -1.1618  0.2973  0.3444
  961MOL0     H29696   3.364   9.111   9.387  1.1012 -0.5616  0.9824
  961MOL0     H29697   3.491   8.602   9.420 -0.6775 -1.3791  0.9832
  961MOL0     H29698   3.465   8.426   9.595  1.4930  1.1028  0.6038
  961MOL0     H29699   3.358   8.533  10.024 -2.1010  1.4239  0.4183
  961MOL0     H29700   3.231   8.493   9.894 -0.6332 -3.7462 -1.1075
  961MOL0     H29701   3.199   8.337  10.044 -0.4553  3.0992  0.4335
  961MOL0     H29702   3.291   8.244   9.921 -1.3012 -1.5163  1.4229
  961MOL0     H29703   3.491   8.248  10.035 -1.4440 -3.0492 -1.2405
  961MOL0     H29704   3.431   8.354  10.162 -1.0239 -2.7850  2.6375
  961MOL0     H29705   3.343   8.070  10.090  1.9928  0.0154 -0.3430
  961MOL0     H29706   3.282   8.174  10.214 -2.2348 -3.9396 -0.6939
  961MOL0     H29707   3.462   7.985  10.300 -0.4707  0.2210  2.5813
  961MOL0     H29708   3.506   8.158  10.348  0.7018  1.2115 -1.0065
  961MOL0     H29709   3.595   8.035  10.082 -0.9010 -0.8754  0.4651
  961MOL0     H29710   3.676   8.165  10.157 -2.9709  0.3180 -3.2402
  961MOL0     H29711   3.809   7.955  10.187  0.8903 -0.8800  1.8869
  961MOL0     H29712   3.668   7.867  10.238 -2.8587  0.3078 -0.5924
  961MOL0     H29713   3.685   8.028  10.458  0.0884  0.6877  0.4509
  961MOL0     H29714   3.816   7.917  10.426  1.2341  1.0256 -0.6686
  961MOL0     H29715   3.321   8.721   9.860 -0.2195  2.0631 -0.6098
  961MOL0     H29716   3.313   8.889   9.685 -1.1413  0.4825 -3.0642
  961MOL0     H29717   3.271   8.852   9.056  1.1044 -0.4398  1.4522
  961MOL0     H29718   3.271   9.029   8.905  0.2123 -2.1986  0.5712
  961MOL0     H29719   3.435   8.798   8.745  0.4021  0.1633  0.0516
  961MOL0     H29720   3.532   8.912   8.548 -0.6935 -3.0885 -3.5390
  961MOL0     H29721   3.429   9.051   8.142 -1.7707  0.8739  1.5627
  961MOL0     H29722   3.533   9.093   7.932 -0.6457  1.7159 -1.0770
  961MOL0     H29723   3.643   9.196   7.762  0.9182 -0.6773 -0.1303
  961MOL0     H29724   3.806   9.248   7.706  0.5101 -2.8603  0.6293
  961MOL0     H29725   3.600   9.457   7.798  1.3297  1.0946 -0.0693
  961MOL0     H29726   3.618   9.402   7.629  0.2588  0.4386  0.1968
  961MOL0     H29727   3.857   9.489   7.803  0.2198 -1.2680 -0.2145
  961MOL0     H29728   3.750   9.608   7.741  1.8015  0.2057 -1.5545
  961MOL0     H29729   3.924   9.404   7.574  0.3348  0.4743  1.1235
  961MOL0     H29730   3.779   9.467   7.501  1.0219 -1.3782 -0.7014
  961MOL0     H29731   3.990   9.831   7.499  1.6058 -0.0686  3.1577
  961MOL0     H29732   3.838   9.331   8.126 -1.3547  0.8608 -1.6121
  961MOL0     H29733   3.778   9.253   8.435 -2.7468 -1.9651 -2.7109
  961MOL0     H29734   3.803   9.404   8.353  0.7713 -0.3477  1.4597
  961MOL0     H29735   3.646   9.383   8.436 -2.6867 -1.9191  0.6290
  962MOL0     O29736   1.973   0.014   4.858 -0.4481 -0.1012  0.3015
  962MOL0     C29737   2.062  -0.064   4.887  0.5210 -0.7331  0.9673
  962MOL0     O29738   2.075  -0.185   4.823 -0.2225 -0.7273 -0.9442
  962MOL0     C29739   1.966  -0.229   4.748 -0.4502  0.1637  0.3627
  962MOL0     C29740   1.986  -0.269   4.626  0.3365 -0.0430  0.7995
  962MOL0     C29741   1.881  -0.310   4.541 -0.3049 -0.7345  0.1412
  962MOL0     C29742   1.750  -0.316   4.588 -0.5506  0.6194 -0.3769
  962MOL0     O29743   1.643  -0.365   4.519  0.4337 -0.1010  0.0970
  962MOL0     C29744   1.651  -0.443   4.401  0.6038 -1.4194 -0.6272
  962MOL0     C29745   1.715  -0.584   4.418  0.1213 -0.5508 -0.1647
  962MOL0     C29746   1.633  -0.686   4.495  0.2393  0.2513  0.2338
  962MOL0     C29747   1.711  -0.785   4.579  0.3160 -0.1263  0.9711
  962MOL0     C29748   1.805  -0.866   4.485  0.2028  0.3539 -0.1746
  962MOL0     C29749   1.885  -0.956   4.569 -0.2067  0.5229  0.1056
  962MOL0     C29750   1.960  -1.061   4.485 -0.7042  0.2008 -0.4328
  962MOL0     C29751   1.886  -1.199   4.486 -0.2536 -0.6936 -0.2048
  962MOL0     N29752   1.941  -1.305   4.388  0.4785 -0.2605 -0.3776
  962MOL0     C29753   2.048  -1.393   4.418  0.6233  0.6380 -0.0590
  962MOL0     C29754   2.056  -1.475   4.306  1.0149 -0.7953 -0.2087
  962MOL0     C29755   2.153  -1.587   4.288  0.2664 -0.1849  0.5307
  962MOL0     C29756   2.298  -1.561   4.334 -0.2046 -0.2914  0.6294
  962MOL0     C29757   2.392  -1.596   4.226 -0.4207 -0.2949  0.2049
  962MOL0     C29758   2.530  -1.547   4.267  1.1147 -0.4630 -0.2277
  962MOL0     O29759   2.631  -1.534   4.167  0.3280 -0.0998 -0.4925
  962MOL0     C29760   2.738  -1.615   4.163  0.7457 -0.6419  1.2609
  962MOL0     C29761   2.798  -1.662   4.275  0.0091  0.4675 -0.9622
  962MOL0     C29762   2.921  -1.736   4.263  0.0175 -0.1751  0.2674
  962MOL0     C29763   2.981  -1.767   4.131 -0.4282  0.1465 -0.0923
  962MOL0     C29764   3.117  -1.844   4.118 -0.1679  0.0805 -0.5631
  962MOL0     O29765   3.186  -1.853   4.242  0.3821 -0.3501 -0.0533
  962MOL0     C29766   3.298  -1.930   4.263  0.6352  0.8771  1.0948
  962MOL0     C29767   3.314  -2.055   4.190 -0.9934  0.0073 -0.2054
  962MOL0     C29768   3.420  -2.139   4.229 -0.8301  0.4785  0.3406
  962MOL0     C29769   3.508  -2.100   4.332  0.9925 -0.1671 -1.5613
  962MOL0     O29770   3.613  -2.174   4.374  0.4849  0.1712  0.1352
  962MOL0     C29771   3.655  -2.293   4.301 -0.3402  0.1595  0.2943
  962MOL0     C29772   3.635  -2.432   4.360  0.3618 -0.0503  0.4814
  962MOL0     C29773   3.670  -2.436   4.504  0.3267  0.3010  0.3877
  962MOL0     C29774   3.657  -2.569   4.565 -0.3074 -0.0777  0.5855
  962MOL0     C29775   3.750  -2.562   4.690 -1.0530  0.3038 -0.3104
  962MOL0     C29776   3.892  -2.613   4.658  0.2178  0.2846 -0.0675
  962MOL0     C29777   3.908  -2.751   4.602 -0.7685  0.0326  0.2519
  962MOL0     C29778   4.060  -2.767   4.548 -0.5486 -0.0254 -0.2971
  962MOL0    Cl29779   4.174  -2.749   4.680 -0.3691 -0.0039 -0.3691
  962MOL0     C29780   3.490  -1.969   4.392 -0.4038  0.3570 -1.6551
  962MOL0     C29781   3.383  -1.886   4.364 -0.6459 -0.5044 -0.0187
  962MOL0     O29782   3.157  -1.880   4.010  0.6354 -0.1793 -0.9732
  962MOL0     C29783   2.910  -1.717   4.020  0.4009 -0.4038 -0.7457
  962MOL0     C29784   2.780  -1.652   4.036 -0.8891  0.8790  0.8179
  962MOL0     N29785   1.956  -1.437   4.219  1.3418  0.0069 -0.6647
  962MOL0     N29786   1.881  -1.348   4.275  0.3449  0.1571 -0.0849
  962MOL0     C29787   1.732  -0.273   4.717  0.6020  1.1029 -0.4360
  962MOL0     C29788   1.840  -0.232   4.795  0.0457 -0.6789  0.4229
  962MOL0     C29789   2.176  -0.016   4.974  0.5142 -0.3017 -0.1735
  962MOL0     C29790   2.146   0.102   5.047 -0.2814  1.1613  0.2976
  962MOL0     C29791   2.241   0.170   5.112  0.2657 -0.1740 -0.9445
  962MOL0     C29792   2.374   0.119   5.115  0.5761  0.4857  0.2084
  962MOL0     O29793   2.463   0.186   5.197  0.2375  0.5810 -0.0475
  962MOL0     C29794   2.590   0.229   5.150 -0.1713  0.1296 -0.2481
  962MOL0     C29795   2.596   0.339   5.057 -0.3905 -0.1459 -0.1951
  962MOL0     C29796   2.741   0.408   5.042  0.6480 -0.5252  1.0796
  962MOL0     C29797   2.742   0.542   5.107  0.1989 -0.3268  1.1238
  962MOL0     C29798   2.874   0.592   5.096  0.2661 -0.2971  0.2215
  962MOL0     C29799   2.992   0.627   5.105 -0.2716 -0.2075 -0.6310
  962MOL0     C29800   2.397  -0.010   5.060 -0.2630  0.1506  0.1184
  962MOL0     C29801   2.306  -0.075   4.988  0.9022  0.7310  1.0232
  962MOL0     C29802   2.338  -0.203   4.918  0.6942 -0.3261 -0.2416
  962MOL0     H29803   2.082  -0.269   4.576 -0.1124  0.8935 -0.1024
  962MOL0     H29804   1.914  -0.350   4.445  2.0821  3.0261 -0.8028
  962MOL0     H29805   1.551  -0.453   4.359  0.5536 -0.6019 -0.7080
  962MOL0     H29806   1.707  -0.382   4.331 -0.5255 -1.0796 -1.2581
  962MOL0     H29807   1.807  -0.570   4.474 -1.1428  0.6655  1.6903
  962MOL0     H29808   1.730  -0.623   4.317  2.8563 -1.9942  0.7068
  962MOL0     H29809   1.581  -0.742   4.416  0.7955  1.3701 -0.9560
  962MOL0     H29810   1.560  -0.638   4.560  0.1008 -0.2149  0.4292
  962MOL0     H29811   1.771  -0.720   4.643 -0.5749 -0.5033  2.2163
  962MOL0     H29812   1.660  -0.852   4.648  0.3845 -1.0247  0.1783
  962MOL0     H29813   1.747  -0.923   4.412 -2.6820 -1.8215  3.4512
  962MOL0     H29814   1.873  -0.797   4.434  1.4458  0.1476  1.1503
  962MOL0     H29815   1.964  -0.903   4.622  0.9946 -0.1108 -0.9775
  962MOL0     H29816   1.825  -1.014   4.639 -0.5595 -1.2203 -1.5280
  962MOL0     H29817   2.060  -1.065   4.529 -0.4988  4.1397 -0.1611
  962MOL0     H29818   1.968  -1.032   4.380  1.2305 -1.5027 -0.8091
  962MOL0     H29819   1.880  -1.241   4.587 -1.0674  0.6095  0.3211
  962MOL0     H29820   1.781  -1.174   4.468 -1.3749 -0.6975  4.8347
  962MOL0     H29821   2.121  -1.400   4.497 -0.1899 -0.4655  0.6226
  962MOL0     H29822   2.115  -1.670   4.349  1.4441 -0.4100  0.9816
  962MOL0     H29823   2.152  -1.608   4.181  2.1153  0.6757  0.3135
  962MOL0     H29824   2.314  -1.457   4.364  2.4407 -0.8518  1.4139
  962MOL0     H29825   2.311  -1.618   4.426  0.1618  0.2467  0.9155
  962MOL0     H29826   2.363  -1.554   4.129  2.2639  4.7118  1.2500
  962MOL0     H29827   2.397  -1.705   4.230 -0.0138 -0.2760  0.2414
  962MOL0     H29828   2.569  -1.605   4.351  2.9850 -0.9353 -1.3553
  962MOL0     H29829   2.506  -1.443   4.292 -2.2325 -1.2434  0.1535
  962MOL0     H29830   2.754  -1.651   4.374  3.6710  0.7908  0.8075
  962MOL0     H29831   2.956  -1.796   4.347  3.7330  0.9411 -0.3080
  962MOL0     H29832   3.236  -2.097   4.128  0.9373 -3.4799 -0.5373
  962MOL0     H29833   3.436  -2.229   4.171 -0.6085  1.5559 -1.3373
  962MOL0     H29834   3.623  -2.289   4.197  0.3344 -0.0581  0.0739
  962MOL0     H29835   3.763  -2.281   4.310 -0.5266  0.6339  2.8043
  962MOL0     H29836   3.531  -2.461   4.344 -0.1193  2.0122 -0.4106
  962MOL0     H29837   3.703  -2.495   4.301  1.8012  1.4916  0.4084
  962MOL0     H29838   3.772  -2.395   4.512  0.4818 -0.0987  0.4606
  962MOL0     H29839   3.607  -2.366   4.559  3.0261  3.0907  0.2020
  962MOL0     H29840   3.683  -2.650   4.496  2.9804  1.7066 -0.4529
  962MOL0     H29841   3.550  -2.578   4.588 -1.2246 -0.9060 -3.2304
  962MOL0     H29842   3.711  -2.626   4.770 -1.2972  3.4243  2.2696
  962MOL0     H29843   3.751  -2.461   4.733 -0.2189 -0.2718  1.1077
  962MOL0     H29844   3.934  -2.537   4.591  1.2832  0.1646  0.4455
  962MOL0     H29845   3.946  -2.599   4.752 -1.1440  3.0012  0.4107
  962MOL0     H29846   3.848  -2.773   4.513 -2.0141  0.8240  0.8722
  962MOL0     H29847   3.880  -2.834   4.667  1.1351 -1.0791 -0.2567
  962MOL0     H29848   4.089  -2.861   4.500 -0.3660  1.1385 -2.6203
  962MOL0     H29849   4.073  -2.687   4.475  1.4625 -0.2628 -0.2427
  962MOL0     H29850   3.561  -1.945   4.471 -1.4208 -3.1455  0.5756
  962MOL0     H29851   3.367  -1.804   4.433  3.2654  1.0130 -0.6677
  962MOL0     H29852   2.955  -1.710   3.922 -1.6334 -2.3561 -1.8800
  962MOL0     H29853   2.732  -1.618   3.945 -1.2812 -2.5625 -0.4095
  962MOL0     H29854   1.627  -0.277   4.746 -0.2195 -0.0295 -3.2008
  962MOL0     H29855   1.823  -0.192   4.895  2.1938  1.5608 -0.0104
  962MOL0     H29856   2.052   0.155   5.044  0.0385  1.7189 -2.1186
  962MOL0     H29857   2.224   0.261   5.169 -1.0854 -1.1765  0.3447
  962MOL0     H29858   2.652   0.142   5.126 -3.6909 -3.1095  1.2357
  962MOL0     H29859   2.634   0.265   5.243  4.2437 -0.6690 -1.7931
  962MOL0     H29860   2.530   0.421   5.087  2.4887  2.3854 -0.3381
  962MOL0     H29861   2.571   0.288   4.964  3.3120 -0.3352 -1.2346
  962MOL0     H29862   2.767   0.428   4.938 -1.4607  2.0550  0.9437
  962MOL0     H29863   2.817   0.336   5.075  2.7462  1.6247  1.1595
  962MOL0     H29864   2.676   0.612   5.054  0.5928  0.2123  1.3350
  962MOL0     H29865   2.711   0.540   5.211 -1.0463  2.8379  0.9197
  962MOL0     H29866   3.090   0.660   5.133 -0.9697 -0.3918  2.4616
  962MOL0     H29867   2.492  -0.056   5.082  1.0423  2.8226  0.5606
  962MOL0     H29868   2.326  -0.191   4.810 -0.1669 -1.4977 -0.2910
  962MOL0     H29869   2.444  -0.230   4.924  1.1366  1.4918  1.3961
  962MOL0     H29870   2.275  -0.282   4.959  1.5285 -3.2435 -4.0504
  963MOL0     O29871   0.204   9.504   1.742  0.4933  0.0952 -1.0808
  963MOL0     C29872   0.085   9.535   1.761 -0.8168 -0.4360  1.7196
  963MOL0     O29873  -0.005   9.563   1.652  1.1243  0.6242  0.0350
  963MOL0     C29874   0.018   9.510   1.530  0.2581 -0.4398  1.2551
  963MOL0     C29875   0.010   9.594   1.421  0.3344 -0.7134  0.2742
  963MOL0     C29876   0.009   9.535   1.296 -0.0552  0.2012 -0.0589
  963MOL0     C29877   0.025   9.397   1.275 -0.1756 -1.0850 -1.1269
  963MOL0     O29878   0.023   9.354   1.144 -0.2280 -0.8226 -0.1251
  963MOL0     C29879   0.060   9.214   1.133  0.1020 -0.1319  0.0928
  963MOL0     C29880   0.119   9.188   0.992 -0.1614 -0.9970  0.3272
  963MOL0     C29881   0.229   9.079   1.012  0.3080  0.1083  0.1028
  963MOL0     C29882   0.184   8.943   1.069 -0.5052  1.3159  0.4434
  963MOL0     C29883   0.070   8.874   1.000  0.2610  0.9911  0.0317
  963MOL0     C29884   0.100   8.837   0.857 -0.3118  0.4711  0.8759
  963MOL0     C29885   0.005   8.732   0.807 -0.8319  0.7645 -0.6597
  963MOL0     C29886  -0.111   8.801   0.747  0.0731  1.6471 -0.4452
  963MOL0     N29887  -0.181   8.897   0.834 -1.3372 -0.1523  0.3175
  963MOL0     C29888  -0.170   9.034   0.830 -0.3531  0.2346  0.4405
  963MOL0     C29889  -0.237   9.077   0.938  0.3795 -0.4059  0.1832
  963MOL0     C29890  -0.292   9.213   0.947  0.3425 -0.9902  0.7979
  963MOL0     C29891  -0.412   9.224   1.048 -0.2276 -0.8634 -0.4351
  963MOL0     C29892  -0.362   9.272   1.186 -0.0094 -0.0850 -0.0244
  963MOL0     C29893  -0.455   9.262   1.306 -0.2951 -0.6154 -0.2944
  963MOL0     O29894  -0.373   9.315   1.419  0.8745  0.1427  0.1671
  963MOL0     C29895  -0.423   9.319   1.547  0.2704 -0.3023  0.8575
  963MOL0     C29896  -0.334   9.347   1.649 -0.0830  0.6848 -0.8007
  963MOL0     C29897  -0.384   9.337   1.788  0.4419  0.4488  0.6273
  963MOL0     C29898  -0.512   9.303   1.821 -0.5850 -0.2856  0.0147
  963MOL0     C29899  -0.552   9.300   1.968  0.2308  0.6587  1.3698
  963MOL0     O29900  -0.680   9.349   2.001 -1.1986 -0.3675  0.9503
  963MOL0     C29901  -0.716   9.362   2.131 -0.1170 -0.7447  0.9650
  963MOL0     C29902  -0.706   9.487   2.194 -0.0975 -0.1650  1.3207
  963MOL0     C29903  -0.712   9.494   2.334 -0.1461  0.3920  0.4002
  963MOL0     C29904  -0.739   9.384   2.413 -0.3469  0.1831 -0.3508
  963MOL0     O29905  -0.734   9.410   2.549  0.0155  0.3201  0.0123
  963MOL0     C29906  -0.717   9.292   2.631 -1.3728 -0.6239 -0.5171
  963MOL0     C29907  -0.735   9.328   2.783 -0.4847 -0.0923 -0.1004
  963MOL0     C29908  -0.884   9.313   2.829 -0.2596  0.3219 -0.4144
  963MOL0     C29909  -0.934   9.175   2.858 -0.4827  0.3777 -0.3883
  963MOL0     C29910  -1.073   9.168   2.915  0.4086  0.6429  0.8702
  963MOL0     C29911  -1.111   9.209   3.054 -0.5675 -0.2588 -0.0827
  963MOL0     C29912  -1.041   9.140   3.169 -0.5648 -0.5239 -1.0859
  963MOL0     C29913  -1.036   9.240   3.286  0.0939  0.1970 -0.4640
  963MOL0    Cl29914  -0.917   9.369   3.267 -0.0294  0.4948  0.6362
  963MOL0     C29915  -0.754   9.261   2.353 -0.5170 -0.1118  0.1609
  963MOL0     C29916  -0.751   9.255   2.211 -0.5768  0.0255 -0.1041
  963MOL0     O29917  -0.469   9.250   2.046 -0.6056  0.9325  0.1182
  963MOL0     C29918  -0.598   9.295   1.716  0.4276  0.0312  0.0668
  963MOL0     C29919  -0.561   9.294   1.577  0.2673 -0.2597 -0.7370
  963MOL0     N29920  -0.284   8.967   1.013  0.7815  0.4527  0.5848
  963MOL0     N29921  -0.242   8.860   0.952 -0.1317 -0.9966  0.7224
  963MOL0     C29922   0.037   9.326   1.391 -0.2791  0.3287 -0.3131
  963MOL0     C29923   0.032   9.381   1.524 -0.8268 -0.5377  0.3563
  963MOL0     C29924   0.048   9.567   1.894 -0.4540  0.5843  0.1069
  963MOL0     C29925  -0.083   9.528   1.931 -0.7177  0.8698  0.1991
  963MOL0     C29926  -0.133   9.560   2.057 -0.3817  1.2724 -0.0025
  963MOL0     C29927  -0.046   9.606   2.161  0.0911 -0.1387  0.0522
  963MOL0     O29928  -0.071   9.621   2.299  0.2881  0.3929  0.6341
  963MOL0     C29929  -0.192   9.558   2.355  0.0325 -0.5871  0.5537
  963MOL0     C29930  -0.200   9.405   2.353  1.1397 -0.4514 -0.1147
  963MOL0     C29931  -0.322   9.356   2.431 -0.0342 -0.0801 -0.8113
  963MOL0     C29932  -0.368   9.207   2.389 -0.7237 -0.3828 -0.4965
  963MOL0     C29933  -0.296   9.094   2.445  0.3405  0.1651  0.2712
  963MOL0     C29934  -0.227   9.002   2.476 -0.9602  0.3659 -0.5212
  963MOL0     C29935   0.089   9.616   2.122  0.2872 -0.1483  0.2294
  963MOL0     C29936   0.131   9.626   1.994 -0.2430 -0.1530  0.4550
  963MOL0     C29937   0.270   9.666   1.977  0.2831 -0.3759 -0.1918
  963MOL0     H29938  -0.004   9.699   1.442  3.0043 -0.0732 -0.7720
  963MOL0     H29939  -0.014   9.600   1.212 -2.9759 -1.0194 -0.3430
  963MOL0     H29940   0.145   9.208   1.201 -0.3331  2.3519  0.9645
  963MOL0     H29941  -0.015   9.136   1.146  0.7477 -0.5122  1.7596
  963MOL0     H29942   0.164   9.273   0.939 -0.6146 -0.1583  1.2718
  963MOL0     H29943   0.046   9.148   0.921  0.7360  1.2571 -2.0657
  963MOL0     H29944   0.309   9.112   1.080  0.6913 -1.7959  0.6435
  963MOL0     H29945   0.277   9.062   0.916 -0.0250  0.8705 -0.2082
  963MOL0     H29946   0.269   8.874   1.064 -3.2684 -2.4271  0.4589
  963MOL0     H29947   0.165   8.931   1.176 -1.1773  0.1691  0.2170
  963MOL0     H29948   0.039   8.786   1.057 -0.3095 -0.8462 -2.8928
  963MOL0     H29949  -0.016   8.938   1.021  0.3117  1.3274 -0.7724
  963MOL0     H29950   0.117   8.922   0.791  3.5154 -1.3270 -0.7904
  963MOL0     H29951   0.204   8.803   0.851  0.0162  1.3912  1.1477
  963MOL0     H29952  -0.027   8.667   0.888 -1.4164  1.3959 -0.3720
  963MOL0     H29953   0.056   8.670   0.733  0.4392 -0.5306  1.2199
  963MOL0     H29954  -0.083   8.848   0.652  1.1054  0.6007 -0.6685
  963MOL0     H29955  -0.179   8.720   0.718  0.1214  3.0932 -5.6043
  963MOL0     H29956  -0.121   9.105   0.764 -0.3516  0.4859  0.7097
  963MOL0     H29957  -0.212   9.286   0.961  0.9168 -0.6803 -3.1042
  963MOL0     H29958  -0.326   9.230   0.845  0.1760  1.9859  1.2640
  963MOL0     H29959  -0.481   9.298   1.005  0.4726  0.1902  0.2152
  963MOL0     H29960  -0.458   9.127   1.071 -0.2447 -0.1464  3.0864
  963MOL0     H29961  -0.343   9.379   1.186  1.9159 -0.3852  1.0366
  963MOL0     H29962  -0.261   9.238   1.211  0.0530 -0.0356 -0.2022
  963MOL0     H29963  -0.476   9.157   1.325 -1.8770  0.0400  2.0446
  963MOL0     H29964  -0.553   9.307   1.286  1.0348  2.4715 -0.4380
  963MOL0     H29965  -0.234   9.377   1.618 -0.8776  2.4659 -1.7302
  963MOL0     H29966  -0.303   9.349   1.858  0.1429  0.4140  0.9820
  963MOL0     H29967  -0.698   9.573   2.130 -1.1192  0.2018  1.6624
  963MOL0     H29968  -0.685   9.582   2.392  1.1415  1.4336 -1.6756
  963MOL0     H29969  -0.786   9.213   2.600 -0.9560 -0.8258 -0.9383
  963MOL0     H29970  -0.612   9.264   2.625 -0.9974 -0.2031  2.4128
  963MOL0     H29971  -0.669   9.260   2.838 -1.5836 -0.1401  1.1881
  963MOL0     H29972  -0.711   9.433   2.800  4.3810 -1.0970  0.8665
  963MOL0     H29973  -0.908   9.370   2.920 -1.9231 -1.6001  0.4273
  963MOL0     H29974  -0.959   9.356   2.763 -1.8350 -1.6826 -0.0146
  963MOL0     H29975  -0.869   9.130   2.934  0.0073 -2.2584 -2.2318
  963MOL0     H29976  -0.938   9.101   2.778 -1.1746  0.4968 -0.4700
  963MOL0     H29977  -1.096   9.060   2.916  3.7570 -0.2001 -0.6395
  963MOL0     H29978  -1.144   9.216   2.848 -1.0079  0.5587  2.2549
  963MOL0     H29979  -1.077   9.312   3.060  0.5265 -0.6469  0.8449
  963MOL0     H29980  -1.216   9.184   3.067 -0.5489 -2.7384 -3.4515
  963MOL0     H29981  -0.947   9.096   3.137 -0.7894 -1.6247 -0.3028
  963MOL0     H29982  -1.097   9.051   3.199  0.6166 -0.4369  1.7273
  963MOL0     H29983  -1.128   9.285   3.324  1.1909 -0.8115  4.0533
  963MOL0     H29984  -1.007   9.178   3.372 -0.6025  1.3151  0.5985
  963MOL0     H29985  -0.758   9.169   2.410 -0.3274  1.8926  3.6726
  963MOL0     H29986  -0.773   9.163   2.159 -0.6649  1.6553 -3.2293
  963MOL0     H29987  -0.699   9.273   1.748  0.4464 -1.0603 -0.5621
  963MOL0     H29988  -0.629   9.275   1.494 -2.8361  3.6226  0.6189
  963MOL0     H29989   0.047   9.219   1.409 -1.0828  0.5723  1.8539
  963MOL0     H29990   0.047   9.315   1.609  1.0962 -1.9073 -0.9796
  963MOL0     H29991  -0.134   9.500   1.840  3.8430 -0.2586 -2.3425
  963MOL0     H29992  -0.240   9.552   2.070 -0.1709  0.1653  1.2567
  963MOL0     H29993  -0.270   9.601   2.291 -1.1675 -0.4249  2.0557
  963MOL0     H29994  -0.210   9.599   2.455 -1.8561 -2.7658  1.2078
  963MOL0     H29995  -0.112   9.365   2.403 -0.0145 -0.4940  2.0307
  963MOL0     H29996  -0.199   9.373   2.248  0.0270  0.8989 -0.5748
  963MOL0     H29997  -0.405   9.428   2.424 -2.5926 -2.7491  0.1173
  963MOL0     H29998  -0.293   9.360   2.537 -1.9097  0.4967 -0.2818
  963MOL0     H29999  -0.471   9.183   2.418 -0.3807 -1.9636 -0.4813
  963MOL0     H30000  -0.370   9.219   2.280 -0.2778  2.5926 -0.2618
  963MOL0     H30001  -0.176   8.919   2.521 -2.5993 -0.3628  0.0607
  963MOL0     H30002   0.167   9.629   2.197  1.4632 -3.4190 -0.2752
  963MOL0     H30003   0.288   9.671   1.870  0.9609  0.7379 -0.0450
  963MOL0     H30004   0.284   9.758   2.034 -0.2179  0.1226 -0.8680
  963MOL0     H30005   0.346   9.594   2.010  3.4805  2.5029 -0.7100
  964MOL0     O30006   2.890  11.052   5.383  0.6139 -1.0619  0.2482
  964MOL0     C30007   2.847  10.941   5.347 -0.9004 -0.7171 -0.3258
  964MOL0     O30008   2.737  10.869   5.406  0.1369  0.1900  0.0925
  964MOL0     C30009   2.637  10.939   5.471  0.6648  1.1613 -0.7086
  964MOL0     C30010   2.652  11.031   5.570  0.6232 -0.6666  0.2437
  964MOL0     C30011   2.552  11.077   5.650  0.1910 -0.8254 -0.0237
  964MOL0     C30012   2.427  11.046   5.608 -0.1474  0.8575 -0.2777
  964MOL0     O30013   2.327  11.090   5.688  0.1593  0.1668 -0.1410
  964MOL0     C30014   2.188  11.084   5.639  0.4873 -0.1502  0.0447
  964MOL0     C30015   2.112  11.187   5.713 -0.4583  0.8550 -0.2321
  964MOL0     C30016   2.080  11.124   5.852  0.1805  1.0055 -0.5780
  964MOL0     C30017   1.991  11.203   5.945 -0.4545 -0.7847  0.3084
  964MOL0     C30018   1.986  11.133   6.084  1.3743 -0.0718  0.7489
  964MOL0     C30019   1.890  11.209   6.184  0.2157  0.0016  0.4368
  964MOL0     C30020   1.895  11.133   6.313 -0.2101  0.3210  0.0868
  964MOL0     C30021   2.026  11.156   6.399  0.2563 -0.0931  0.6677
  964MOL0     N30022   2.029  11.080   6.520  0.7314  0.2617  0.0550
  964MOL0     C30023   1.938  11.091   6.625  0.4764 -0.4121  0.7447
  964MOL0     C30024   1.979  10.992   6.704  0.0007 -0.2521 -0.0414
  964MOL0     C30025   1.885  10.956   6.818  0.3010  0.3191 -0.4604
  964MOL0     C30026   1.945  10.991   6.933  0.1769  0.1877 -1.2207
  964MOL0     C30027   1.858  10.945   7.057  0.0720  0.4761 -0.3314
  964MOL0     C30028   1.908  10.986   7.194  0.5352 -0.3665 -1.3915
  964MOL0     O30029   1.871  11.118   7.234  0.1801  0.0933  0.2955
  964MOL0     C30030   1.943  11.214   7.276 -0.2504 -1.1910  0.7104
  964MOL0     C30031   1.874  11.314   7.346 -0.3237 -0.1448  0.0470
  964MOL0     C30032   1.953  11.421   7.393 -0.9556 -0.9002 -0.0199
  964MOL0     C30033   2.096  11.427   7.375  0.2349 -0.9942  0.5025
  964MOL0     C30034   2.176  11.528   7.439 -0.7624  0.1993 -0.2923
  964MOL0     O30035   2.118  11.598   7.536 -0.1448 -0.4568 -0.0469
  964MOL0     C30036   2.181  11.688   7.620 -0.3332  0.4056 -0.8059
  964MOL0     C30037   2.323  11.708   7.631 -0.3004 -0.0292  0.0109
  964MOL0     C30038   2.372  11.791   7.729  0.3338 -0.5948 -0.4232
  964MOL0     C30039   2.289  11.872   7.808  0.0185  0.5283 -0.5212
  964MOL0     O30040   2.347  11.965   7.888  0.2848 -0.1831  0.1622
  964MOL0     C30041   2.279  12.068   7.951  0.5925 -0.8949 -0.5230
  964MOL0     C30042   2.366  12.183   7.969 -0.2063  0.4983 -0.2208
  964MOL0     C30043   2.478  12.142   8.058 -0.0326 -0.0584 -0.1462
  964MOL0     C30044   2.539  12.265   8.125  0.7796 -0.4457 -0.8144
  964MOL0     C30045   2.614  12.234   8.257  0.3086  0.5448  1.1034
  964MOL0     C30046   2.671  12.353   8.319  1.3573 -0.1003 -0.2216
  964MOL0     C30047   2.753  12.298   8.429  0.7986  0.7477 -0.5313
  964MOL0     C30048   2.808  12.399   8.516  0.0907 -0.1877 -0.0680
  964MOL0    Cl30049   2.927  12.328   8.622 -0.4006 -0.6567 -0.2744
  964MOL0     C30050   2.153  11.844   7.809 -1.2915 -0.5729 -0.2269
  964MOL0     C30051   2.105  11.750   7.716  0.1042 -0.1589  0.3214
  964MOL0     O30052   2.277  11.567   7.384 -0.0190 -0.2105 -0.6721
  964MOL0     C30053   2.155  11.323   7.303  0.5709 -0.3410  0.3458
  964MOL0     C30054   2.084  11.218   7.246 -0.1568 -0.0071  0.2567
  964MOL0     N30055   2.078  10.924   6.651 -0.2812  0.5202 -0.4261
  964MOL0     N30056   2.104  10.973   6.540 -0.3850 -0.5768 -0.4657
  964MOL0     C30057   2.399  10.944   5.516 -0.2046  0.1955 -0.5366
  964MOL0     C30058   2.507  10.891   5.447 -0.5078 -0.0076  0.6975
  964MOL0     C30059   2.906  10.871   5.239  0.2934 -0.1014 -0.1646
  964MOL0     C30060   2.825  10.771   5.177  0.4399 -0.4413  0.3096
  964MOL0     C30061   2.894  10.689   5.090 -0.0341  0.3433  0.4899
  964MOL0     C30062   3.026  10.702   5.044 -0.0073  0.3783  0.0501
  964MOL0     O30063   3.088  10.629   4.936 -0.1145 -0.1808 -0.5304
  964MOL0     C30064   3.025  10.512   4.867  0.1905  0.0416  0.1215
  964MOL0     C30065   2.965  10.549   4.733  0.1711  0.3881  1.1135
  964MOL0     C30066   2.899  10.419   4.684  0.0216 -0.2593  0.1893
  964MOL0     C30067   2.828  10.435   4.545  0.4748  0.3752  1.1222
  964MOL0     C30068   2.766  10.303   4.514 -1.4886 -0.0406  1.1196
  964MOL0     C30069   2.702  10.205   4.477  1.4156 -0.5493  0.1355
  964MOL0     C30070   3.111  10.804   5.114 -0.0942 -1.1026  0.7409
  964MOL0     C30071   3.050  10.889   5.210  0.3269  1.2562  0.4625
  964MOL0     C30072   3.141  11.000   5.255 -0.1213  0.5441 -0.3716
  964MOL0     H30073   2.743  11.085   5.594 -1.1964  2.9838 -0.2829
  964MOL0     H30074   2.566  11.167   5.710  1.4369 -0.0565 -1.4155
  964MOL0     H30075   2.182  11.108   5.532  3.6609  0.0658 -0.1855
  964MOL0     H30076   2.151  10.982   5.647 -0.9071  0.0766 -2.4582
  964MOL0     H30077   2.022  11.216   5.659 -0.9905 -0.4023 -0.0639
  964MOL0     H30078   2.174  11.277   5.716 -1.2581  1.3878  0.8425
  964MOL0     H30079   2.173  11.097   5.904 -0.9906 -1.1845  0.4896
  964MOL0     H30080   2.035  11.026   5.836 -3.2363  2.6813 -2.3052
  964MOL0     H30081   2.034  11.304   5.941 -0.0320 -0.9891 -3.2833
  964MOL0     H30082   1.892  11.212   5.899 -0.2377 -1.8636 -0.3989
  964MOL0     H30083   1.943  11.032   6.072  0.7135  0.4111 -1.4004
  964MOL0     H30084   2.085  11.135   6.131  0.4441  2.1508  2.7833
  964MOL0     H30085   1.922  11.312   6.200 -0.2255  0.5268 -1.6888
  964MOL0     H30086   1.789  11.212   6.143  0.3954 -0.1560 -0.0347
  964MOL0     H30087   1.874  11.026   6.303 -4.8946  0.9334  1.1238
  964MOL0     H30088   1.809  11.158   6.375 -1.0253 -0.8860 -0.5336
  964MOL0     H30089   2.112  11.133   6.337  0.6192 -0.4061  1.2819
  964MOL0     H30090   2.042  11.261   6.426  1.9244  0.1506 -1.1194
  964MOL0     H30091   1.861  11.164   6.649  2.0730  1.9411 -0.9681
  964MOL0     H30092   1.788  11.007   6.815  0.9387  1.5137 -1.4489
  964MOL0     H30093   1.869  10.848   6.811 -2.3990  0.5592  0.7424
  964MOL0     H30094   2.038  10.933   6.934 -0.4868 -1.3889  4.4315
  964MOL0     H30095   1.964  11.098   6.943  0.0752  0.1619 -0.6893
  964MOL0     H30096   1.862  10.836   7.053 -1.6945  0.3081  1.1963
  964MOL0     H30097   1.754  10.977   7.049  0.3312  1.0368 -1.6032
  964MOL0     H30098   2.014  10.959   7.195  1.1789  1.8239 -2.9837
  964MOL0     H30099   1.852  10.930   7.269 -0.7752  0.8255 -1.4379
  964MOL0     H30100   1.769  11.311   7.374  0.0587 -0.8752  1.4599
  964MOL0     H30101   1.895  11.494   7.449 -0.8821  1.4773 -2.8248
  964MOL0     H30102   2.390  11.644   7.574  0.9938 -1.6037  3.0804
  964MOL0     H30103   2.480  11.792   7.741  0.2470 -1.6936  0.6318
  964MOL0     H30104   2.192  12.101   7.893 -1.0821 -4.1231 -0.1113
  964MOL0     H30105   2.240  12.035   8.048 -0.4220  0.3384 -0.4816
  964MOL0     H30106   2.408  12.217   7.874  3.0095 -0.4283  0.7484
  964MOL0     H30107   2.306  12.259   8.020  1.2868  0.7516  1.2237
  964MOL0     H30108   2.441  12.080   8.140  1.3179 -0.6188  0.0659
  964MOL0     H30109   2.555  12.088   8.002 -1.9358 -0.6000 -2.4481
  964MOL0     H30110   2.462  12.340   8.144  0.3954 -1.0051 -0.1210
  964MOL0     H30111   2.602  12.306   8.046 -1.6601 -0.3429 -2.8393
  964MOL0     H30112   2.689  12.158   8.235 -1.1405 -0.4524 -0.7537
  964MOL0     H30113   2.540  12.183   8.318 -0.4236  0.2510  0.0096
  964MOL0     H30114   2.736  12.417   8.258  0.5672  2.1718  1.1730
  964MOL0     H30115   2.593  12.419   8.358  1.2946 -0.4646  0.2748
  964MOL0     H30116   2.828  12.222   8.405  0.8776  0.9261 -0.8653
  964MOL0     H30117   2.674  12.255   8.490  0.6556  0.5745 -0.8330
  964MOL0     H30118   2.861  12.477   8.461  2.8240 -1.1084  1.0893
  964MOL0     H30119   2.738  12.457   8.577 -0.4351 -2.6731  1.8642
  964MOL0     H30120   2.086  11.895   7.877 -0.0073  0.4561  0.3093
  964MOL0     H30121   1.998  11.739   7.702  0.3223 -0.8421 -1.0217
  964MOL0     H30122   2.261  11.314   7.286  1.0474 -1.2090  3.2530
  964MOL0     H30123   2.148  11.140   7.207  2.2756  2.7730 -1.7246
  964MOL0     H30124   2.301  10.907   5.488  0.6238 -1.0179 -1.9986
  964MOL0     H30125   2.474  10.824   5.368  2.0526  0.4022 -0.8621
  964MOL0     H30126   2.719  10.753   5.191  0.3724 -0.0638  0.2980
  964MOL0     H30127   2.842  10.601   5.052  1.4515 -1.0940  1.6377
  964MOL0     H30128   2.948  10.473   4.935 -2.6451  1.7086 -1.9109
  964MOL0     H30129   3.104  10.439   4.848  2.8573  1.7983  3.3865
  964MOL0     H30130   3.037  10.593   4.663 -2.5721  0.9962 -1.5103
  964MOL0     H30131   2.889  10.627   4.727 -1.6613 -1.4281 -2.5609
  964MOL0     H30132   2.824  10.398   4.761 -0.3167  2.0026  0.5485
  964MOL0     H30133   2.975  10.340   4.680 -0.5146 -0.7837  0.2558
  964MOL0     H30134   2.748  10.509   4.553 -0.4849 -0.4088 -0.6673
  964MOL0     H30135   2.890  10.475   4.464 -3.6494 -0.8890 -3.0468
  964MOL0     H30136   2.652  10.115   4.447 -1.4042  0.7454  0.6168
  964MOL0     H30137   3.217  10.810   5.089 -0.8089 -3.0246 -3.7084
  964MOL0     H30138   3.115  11.037   5.354 -0.3147  2.0167 -0.9521
  964MOL0     H30139   3.247  10.978   5.247 -0.3346 -0.3838 -0.8102
  964MOL0     H30140   3.132  11.082   5.183  1.3530 -0.7162 -2.0924
  965MOL0     O30141   8.643   5.232   5.993  0.7114 -0.1686  0.3376
  965MOL0     C30142   8.653   5.140   5.910  0.3707 -0.5658 -0.1882
  965MOL0     O30143   8.660   5.156   5.771 -0.1433 -0.5570 -0.4065
  965MOL0     C30144   8.648   5.275   5.712 -0.2628 -0.0107  0.3046
  965MOL0     C30145   8.536   5.360   5.730 -0.3786 -0.5562 -0.5764
  965MOL0     C30146   8.512   5.475   5.660 -0.1596  0.8427  0.6765
  965MOL0     C30147   8.593   5.514   5.559 -0.9360  0.2230  0.3847
  965MOL0     O30148   8.574   5.623   5.485 -0.1932  0.0130  0.2264
  965MOL0     C30149   8.446   5.670   5.455  1.1163 -0.2552 -0.1807
  965MOL0     C30150   8.447   5.794   5.364 -0.1779  0.0349 -0.1948
  965MOL0     C30151   8.305   5.840   5.333 -0.1122  0.6772 -0.3521
  965MOL0     C30152   8.310   5.966   5.247  0.0769  0.0197  0.6144
  965MOL0     C30153   8.167   6.005   5.211 -0.2598  0.0058  0.2958
  965MOL0     C30154   8.077   5.903   5.141  0.0272 -0.9090  0.4846
  965MOL0     C30155   8.137   5.857   5.005 -0.8057 -0.2830  0.8080
  965MOL0     C30156   8.167   5.967   4.899  0.2868 -0.2479  0.2181
  965MOL0     N30157   8.219   5.901   4.777 -0.0263  0.1284  0.2919
  965MOL0     C30158   8.340   5.935   4.701 -0.3531  0.0292 -0.5958
  965MOL0     C30159   8.324   5.873   4.593  0.9427  0.6643 -0.1706
  965MOL0     C30160   8.416   5.872   4.478  0.1849 -0.6205  0.5820
  965MOL0     C30161   8.485   6.017   4.456 -0.2149  0.8586 -0.4171
  965MOL0     C30162   8.400   6.138   4.406 -0.0115 -0.4755  0.8913
  965MOL0     C30163   8.291   6.186   4.497 -0.4244 -1.6583 -0.4954
  965MOL0     O30164   8.375   6.230   4.610 -0.2078  0.4638  0.7706
  965MOL0     C30165   8.300   6.250   4.728  0.0405 -1.1343 -0.3649
  965MOL0     C30166   8.159   6.252   4.746 -0.0043  0.4014  0.5362
  965MOL0     C30167   8.105   6.288   4.871  0.1859 -0.1689 -0.1894
  965MOL0     C30168   8.182   6.313   4.986 -0.6288 -0.4994  0.3251
  965MOL0     C30169   8.119   6.350   5.117 -0.0891  0.4178 -0.6924
  965MOL0     O30170   7.990   6.384   5.103  0.3581 -0.1245 -0.2200
  965MOL0     C30171   7.929   6.445   5.214 -0.1571 -0.3272  1.1310
  965MOL0     C30172   7.836   6.546   5.183  0.2118 -0.4734  0.0101
  965MOL0     C30173   7.765   6.608   5.280  0.0255 -0.4971  0.0110
  965MOL0     C30174   7.800   6.582   5.418 -0.2287 -0.3857 -0.1476
  965MOL0     O30175   7.729   6.662   5.517 -0.2615  1.0977  0.1613
  965MOL0     C30176   7.817   6.751   5.587 -0.4057 -0.1590  0.5593
  965MOL0     C30177   7.811   6.730   5.740 -0.6172 -0.3384 -0.2576
  965MOL0     C30178   7.862   6.858   5.817  0.5915 -0.0229 -0.4645
  965MOL0     C30179   7.745   6.961   5.836  0.3433  0.1124  0.0648
  965MOL0     C30180   7.787   7.082   5.915 -0.5002  0.4321  0.6398
  965MOL0     C30181   7.837   7.072   6.063  0.3626  0.1914 -0.6979
  965MOL0     C30182   7.874   7.210   6.107  0.3805  0.2483 -0.9408
  965MOL0     C30183   7.937   7.202   6.256  1.0082 -0.7496 -0.8615
  965MOL0    Cl30184   8.103   7.154   6.263  0.0583 -0.3659  0.0254
  965MOL0     C30185   7.887   6.487   5.454 -0.1625  0.5082 -0.5715
  965MOL0     C30186   7.950   6.411   5.351 -0.0925 -0.1641 -1.2403
  965MOL0     O30187   8.190   6.360   5.215  0.3781 -0.6571  0.4882
  965MOL0     C30188   8.316   6.312   4.976  0.3139  0.7940  0.3377
  965MOL0     C30189   8.369   6.295   4.843  0.4518  0.5060  0.2222
  965MOL0     N30190   8.207   5.797   4.595  0.7868 -0.0345 -0.4508
  965MOL0     N30191   8.136   5.814   4.709 -0.3395 -0.1934  0.4583
  965MOL0     C30192   8.700   5.434   5.535 -0.4737  0.2787  1.1492
  965MOL0     C30193   8.737   5.313   5.609 -0.6452 -0.1188  0.5957
  965MOL0     C30194   8.688   5.010   5.964  0.4733  0.1751 -0.1068
  965MOL0     C30195   8.685   4.906   5.874 -0.4873  0.0384  0.1393
  965MOL0     C30196   8.711   4.774   5.922  0.0014 -1.0154  0.2071
  965MOL0     C30197   8.750   4.745   6.050  0.4728 -1.0539 -0.5281
  965MOL0     O30198   8.774   4.613   6.097  0.1218 -0.5125 -0.0293
  965MOL0     C30199   8.797   4.498   6.005  0.0178 -0.2921 -0.2393
  965MOL0     C30200   8.951   4.502   5.985 -0.1372 -0.1188 -0.6288
  965MOL0     C30201   9.032   4.471   6.122  0.7293  0.2565 -0.8755
  965MOL0     C30202   9.174   4.510   6.127  0.2395 -1.1603  0.5057
  965MOL0     C30203   9.247   4.418   6.215 -0.3624 -0.4383 -1.1155
  965MOL0     C30204   9.319   4.341   6.273  0.6238 -0.5326 -0.3930
  965MOL0     C30205   8.760   4.852   6.136 -0.0668  0.4824  0.4415
  965MOL0     C30206   8.728   4.981   6.104  0.4626  0.3129 -0.3786
  965MOL0     C30207   8.748   5.081   6.225 -0.5690  0.0884  0.8148
  965MOL0     H30208   8.464   5.331   5.806 -0.9534 -2.3583 -1.7558
  965MOL0     H30209   8.436   5.550   5.680 -0.2927  1.2732 -1.2743
  965MOL0     H30210   8.385   5.588   5.417 -1.5666  0.7077  1.7317
  965MOL0     H30211   8.402   5.704   5.550  2.5341 -0.5134  0.5949
  965MOL0     H30212   8.504   5.756   5.279  2.3942  1.6693  0.6839
  965MOL0     H30213   8.508   5.879   5.396 -0.9963 -0.0928  1.8419
  965MOL0     H30214   8.252   5.863   5.426 -1.9789 -2.4465 -0.4974
  965MOL0     H30215   8.257   5.749   5.297  0.4035 -1.7030  4.2239
  965MOL0     H30216   8.366   6.039   5.305  0.4787 -1.2985  1.9456
  965MOL0     H30217   8.362   5.944   5.153  0.1920  0.1495  0.6484
  965MOL0     H30218   8.116   6.029   5.305  0.8774  3.9565  0.0743
  965MOL0     H30219   8.155   6.098   5.155 -3.1372 -0.5250 -0.1529
  965MOL0     H30220   8.063   5.812   5.200  0.8509 -0.3795  1.5327
  965MOL0     H30221   7.979   5.946   5.119 -0.1138 -1.9798 -1.1493
  965MOL0     H30222   8.080   5.779   4.954 -2.2591  0.2853  1.5100
  965MOL0     H30223   8.233   5.809   5.022 -0.1382  1.0418  0.9115
  965MOL0     H30224   8.068   6.006   4.873  0.1718  0.2253  1.3077
  965MOL0     H30225   8.232   6.042   4.944  1.0581 -0.5775 -0.3254
  965MOL0     H30226   8.421   5.996   4.741  0.1928 -1.8785  1.4129
  965MOL0     H30227   8.480   5.784   4.486 -0.6167 -1.2881 -0.1586
  965MOL0     H30228   8.363   5.860   4.383  2.3280  1.2324 -0.9625
  965MOL0     H30229   8.541   6.039   4.547  0.4145  2.6584 -1.1969
  965MOL0     H30230   8.551   6.006   4.369  1.6077  2.2208  0.7135
  965MOL0     H30231   8.358   6.116   4.308  1.3703 -2.0774  0.6069
  965MOL0     H30232   8.469   6.223   4.398  0.7336 -0.5103  4.8378
  965MOL0     H30233   8.215   6.114   4.527 -2.5163  0.9297  0.7654
  965MOL0     H30234   8.235   6.270   4.455  1.1143  0.2684  1.1050
  965MOL0     H30235   8.093   6.221   4.666 -1.6491  0.7967  1.7076
  965MOL0     H30236   7.997   6.300   4.872  0.3377  1.5933  1.9205
  965MOL0     H30237   7.828   6.575   5.078  2.5128  0.3581  0.0089
  965MOL0     H30238   7.685   6.672   5.244 -0.0404 -1.5696 -1.8736
  965MOL0     H30239   7.922   6.749   5.556 -1.1604 -1.6490 -2.2233
  965MOL0     H30240   7.796   6.853   5.554 -1.7040 -1.0897 -1.7530
  965MOL0     H30241   7.707   6.713   5.770 -1.0602  2.0768 -0.2165
  965MOL0     H30242   7.852   6.635   5.776 -1.1766 -0.3852  0.2685
  965MOL0     H30243   7.901   6.826   5.914  1.3512  3.4615  0.5023
  965MOL0     H30244   7.949   6.903   5.769  0.8262 -0.5715 -0.5603
  965MOL0     H30245   7.658   6.912   5.880 -1.4023  1.8043 -1.3405
  965MOL0     H30246   7.707   6.994   5.739 -1.6224  0.2498  0.8410
  965MOL0     H30247   7.688   7.130   5.915 -0.6828  0.0607  0.6811
  965MOL0     H30248   7.863   7.140   5.863  0.6594 -0.7600  0.9527
  965MOL0     H30249   7.760   7.038   6.133  0.1406  0.3817 -0.8494
  965MOL0     H30250   7.920   7.002   6.070 -0.4668 -0.9993 -2.0787
  965MOL0     H30251   7.780   7.267   6.106 -0.8433 -1.6629 -1.6406
  965MOL0     H30252   7.951   7.269   6.056  0.0231  1.0116 -0.6143
  965MOL0     H30253   7.922   7.303   6.297 -3.0730 -1.0630 -1.1409
  965MOL0     H30254   7.883   7.132   6.319  0.1831 -0.7028 -1.4986
  965MOL0     H30255   7.913   6.471   5.558  1.9920  0.2310 -1.0964
  965MOL0     H30256   8.027   6.338   5.374 -1.0897 -0.9451 -0.3210
  965MOL0     H30257   8.369   6.316   5.070  1.1605 -0.0122 -0.0928
  965MOL0     H30258   8.476   6.294   4.826  0.8620  3.0696  1.9353
  965MOL0     H30259   8.762   5.479   5.458 -2.9659  0.1573 -1.0757
  965MOL0     H30260   8.820   5.257   5.568 -2.7185 -3.7355  0.9203
  965MOL0     H30261   8.667   4.928   5.770  0.6935 -0.9205 -0.2824
  965MOL0     H30262   8.706   4.702   5.841  1.2025 -0.3080 -0.5322
  965MOL0     H30263   8.751   4.502   5.905  2.1277  2.4010 -1.2074
  965MOL0     H30264   8.755   4.403   6.041 -2.3055  0.5594 -0.5044
  965MOL0     H30265   8.979   4.602   5.952  2.9190 -1.2733 -1.8930
  965MOL0     H30266   8.994   4.442   5.905  4.1233  0.9862  0.5603
  965MOL0     H30267   9.013   4.364   6.137 -2.2183  0.8218  0.0531
  965MOL0     H30268   8.985   4.522   6.205  1.3507 -1.9418  0.9358
  965MOL0     H30269   9.205   4.505   6.022 -4.0301  0.6292 -1.0356
  965MOL0     H30270   9.186   4.611   6.169  0.4681 -2.1147  2.8885
  965MOL0     H30271   9.374   4.281   6.342 -2.5235 -1.3081  1.6775
  965MOL0     H30272   8.801   4.842   6.236 -0.3237 -0.6000  0.4604
  965MOL0     H30273   8.645   5.106   6.250  0.0744  3.0434  0.8464
  965MOL0     H30274   8.801   5.038   6.310  2.0666  0.5053 -0.5027
  965MOL0     H30275   8.805   5.169   6.195  1.4491 -1.0052  1.2787
  966MOL0     O30276   1.983   3.738   8.887 -0.1570  0.1239  0.6017
  966MOL0     C30277   1.937   3.716   8.775  0.3981 -0.2296 -0.5028
  966MOL0     O30278   1.999   3.654   8.673  0.0422  0.6571 -0.3288
  966MOL0     C30279   2.118   3.600   8.695 -0.4282  0.1720  0.0088
  966MOL0     C30280   2.235   3.648   8.646  0.6535  1.2189 -0.0853
  966MOL0     C30281   2.355   3.576   8.658  0.0959  0.9323  0.1691
  966MOL0     C30282   2.349   3.456   8.715 -0.8007  0.1025  0.3475
  966MOL0     O30283   2.465   3.386   8.710 -0.5948 -0.3726  0.0112
  966MOL0     C30284   2.471   3.248   8.740 -0.7251  0.3623 -0.0310
  966MOL0     C30285   2.616   3.206   8.721 -0.2307  0.6958 -0.5829
  966MOL0     C30286   2.717   3.262   8.824  0.0999 -0.3601 -0.1969
  966MOL0     C30287   2.679   3.211   8.968  0.0880  0.8559  0.8660
  966MOL0     C30288   2.793   3.240   9.065 -0.2316  0.1214 -0.2579
  966MOL0     C30289   2.825   3.389   9.069  0.7411 -0.9696  0.0357
  966MOL0     C30290   2.922   3.438   9.185 -0.2714 -0.4862 -0.9439
  966MOL0     C30291   2.922   3.580   9.236 -1.1152  0.5416  1.5832
  966MOL0     N30292   3.053   3.600   9.298 -0.2898 -0.9914  0.1390
  966MOL0     C30293   3.109   3.529   9.397 -0.2566 -0.1248  0.0011
  966MOL0     C30294   3.238   3.564   9.394  0.1192  0.3819 -0.4797
  966MOL0     C30295   3.345   3.493   9.480 -0.3140  0.3370  0.1146
  966MOL0     C30296   3.366   3.555   9.610 -0.2656  0.1577 -0.8157
  966MOL0     C30297   3.493   3.527   9.692  0.4647  0.1313 -0.4791
  966MOL0     C30298   3.477   3.597   9.830  0.6396  0.1241  0.8066
  966MOL0     O30299   3.597   3.571   9.904 -0.2805 -0.1753 -1.1855
  966MOL0     C30300   3.595   3.600  10.043 -1.2177 -0.9952 -0.2896
  966MOL0     C30301   3.509   3.691  10.095 -0.3556 -0.9380 -0.2492
  966MOL0     C30302   3.492   3.726  10.230 -0.4274  0.6584  0.3865
  966MOL0     C30303   3.578   3.672  10.328 -0.8560 -0.4018  0.1167
  966MOL0     C30304   3.566   3.701  10.469 -1.3476 -0.7565 -0.6959
  966MOL0     O30305   3.458   3.758  10.518 -0.1979 -0.4282 -0.0078
  966MOL0     C30306   3.447   3.786  10.648  0.4253  0.0224  0.4600
  966MOL0     C30307   3.435   3.918  10.679 -0.8388 -0.0231  0.6371
  966MOL0     C30308   3.445   3.952  10.814 -0.7356  0.0524 -0.5722
  966MOL0     C30309   3.464   3.859  10.917  0.2540  0.5519 -0.4925
  966MOL0     O30310   3.483   3.893  11.052 -0.0986 -0.0233 -1.0110
  966MOL0     C30311   3.591   3.991  11.076  1.0705 -0.5439  0.0399
  966MOL0     C30312   3.726   3.937  11.074 -0.4741  0.0217  0.2875
  966MOL0     C30313   3.830   4.038  11.027  0.4807  0.5064  0.3158
  966MOL0     C30314   3.836   4.029  10.876 -0.2828 -0.3843 -0.3453
  966MOL0     C30315   3.950   4.126  10.828 -0.1940 -0.6675  0.2659
  966MOL0     C30316   3.991   4.078  10.689  0.2377 -0.1164  0.5556
  966MOL0     C30317   4.102   4.175  10.636  0.1365 -0.2065  0.0101
  966MOL0     C30318   4.094   4.159  10.492 -0.2970 -0.0923  0.0669
  966MOL0    Cl30319   4.248   4.234  10.413 -0.0469  0.0866  0.1987
  966MOL0     C30320   3.464   3.720  10.883  0.9542 -0.9592 -0.2100
  966MOL0     C30321   3.464   3.682  10.747 -0.3357 -0.2386 -0.0799
  966MOL0     O30322   3.657   3.658  10.542  0.1280 -0.4846  0.3901
  966MOL0     C30323   3.665   3.581  10.276 -0.2703  0.3098 -0.0395
  966MOL0     C30324   3.682   3.550  10.138  0.6139 -0.5705  0.6125
  966MOL0     N30325   3.260   3.658   9.304 -0.0054  0.0281 -0.1089
  966MOL0     N30326   3.154   3.682   9.242 -0.8105  0.2424  0.9345
  966MOL0     C30327   2.235   3.412   8.784  0.3950 -0.6005 -1.2439
  966MOL0     C30328   2.118   3.477   8.759  0.0709 -0.7822 -0.7002
  966MOL0     C30329   1.805   3.755   8.744  0.3469 -0.4838 -0.2655
  966MOL0     C30330   1.786   3.832   8.627 -0.5083 -0.6908  0.2143
  966MOL0     C30331   1.669   3.893   8.600 -0.0693 -0.4368 -0.2868
  966MOL0     C30332   1.570   3.884   8.698  0.4198 -0.4520  0.4362
  966MOL0     O30333   1.458   3.960   8.650 -0.4241  0.2350 -0.5111
  966MOL0     C30334   1.347   3.971   8.744 -0.6607  0.8008 -0.0545
  966MOL0     C30335   1.212   4.005   8.680 -0.0279  0.1927  0.4063
  966MOL0     C30336   1.215   4.153   8.629 -0.3792 -0.3497  0.5869
  966MOL0     C30337   1.088   4.209   8.573  0.3761 -0.3579  0.2024
  966MOL0     C30338   1.045   4.139   8.451 -0.0994  0.1146  0.1639
  966MOL0     C30339   1.023   4.090   8.342 -0.0156  0.0285 -0.5101
  966MOL0     C30340   1.581   3.808   8.816 -0.2739 -0.3959  0.7386
  966MOL0     C30341   1.698   3.737   8.836 -0.4602  0.1263  0.4780
  966MOL0     C30342   1.718   3.651   8.960  0.2819  1.0972  0.1107
  966MOL0     H30343   2.224   3.734   8.580  1.3432  0.1073 -1.7224
  966MOL0     H30344   2.448   3.607   8.613  0.5700 -1.3552 -0.5481
  966MOL0     H30345   2.428   3.230   8.839 -3.9187 -5.6291 -1.9879
  966MOL0     H30346   2.424   3.195   8.657  2.2707  0.9829 -2.2754
  966MOL0     H30347   2.639   3.249   8.624 -1.5046 -0.1895 -1.3072
  966MOL0     H30348   2.622   3.098   8.705  0.3339  0.8968 -1.8263
  966MOL0     H30349   2.710   3.371   8.829 -2.5436 -0.5123  2.0305
  966MOL0     H30350   2.816   3.227   8.792 -0.7467 -1.6664 -1.5114
  966MOL0     H30351   2.595   3.265   9.014  0.8065 -0.1964  3.6590
  966MOL0     H30352   2.654   3.105   8.978  0.1468  0.8056  0.4723
  966MOL0     H30353   2.764   3.207   9.166  0.1202  0.8718  0.0979
  966MOL0     H30354   2.880   3.181   9.038  0.4527  0.2499  1.5177
  966MOL0     H30355   2.876   3.414   8.975 -1.2789 -4.8929 -2.4060
  966MOL0     H30356   2.736   3.451   9.073  3.3782  3.0909  1.1394
  966MOL0     H30357   3.024   3.425   9.147  1.3060  3.5682  1.2516
  966MOL0     H30358   2.899   3.391   9.281 -0.9021  1.1629 -0.2424
  966MOL0     H30359   2.933   3.641   9.145  3.8475 -0.0794  1.4810
  966MOL0     H30360   2.833   3.620   9.285 -1.2280  2.9163 -0.3297
  966MOL0     H30361   3.055   3.448   9.446 -1.5558  0.9674  0.4206
  966MOL0     H30362   3.314   3.388   9.478 -0.5242  0.3829 -2.2500
  966MOL0     H30363   3.440   3.488   9.427 -0.0345 -1.1591  0.7107
  966MOL0     H30364   3.357   3.663   9.596 -0.1951 -0.1052 -3.1551
  966MOL0     H30365   3.289   3.513   9.676 -2.8784  0.6940 -3.3538
  966MOL0     H30366   3.585   3.565   9.647  0.3285  0.3588 -0.5661
  966MOL0     H30367   3.502   3.424   9.728 -1.4704  0.7787  2.1968
  966MOL0     H30368   3.393   3.541   9.871  0.0899 -0.0969 -0.5746
  966MOL0     H30369   3.457   3.705   9.822 -0.8663 -0.0078  2.4402
  966MOL0     H30370   3.428   3.744  10.045  0.1730  1.1002  0.9359
  966MOL0     H30371   3.413   3.796  10.257 -1.3895 -0.3458  0.2511
  966MOL0     H30372   3.401   3.985  10.601  2.5541  0.8053 -0.3255
  966MOL0     H30373   3.444   4.057  10.842 -0.3594  0.3205 -1.5156
  966MOL0     H30374   3.577   4.073  11.004 -2.0288 -2.8621 -2.2766
  966MOL0     H30375   3.579   4.026  11.179 -0.0716  1.5338 -0.7334
  966MOL0     H30376   3.754   3.890  11.169 -0.3427  0.9195  0.7049
  966MOL0     H30377   3.725   3.857  11.000 -0.3053 -1.8170  2.1893
  966MOL0     H30378   3.792   4.135  11.058 -1.2529  0.2664 -0.9337
  966MOL0     H30379   3.930   4.011  11.064  0.7663  1.2419  0.0903
  966MOL0     H30380   3.745   4.040  10.817 -2.1076 -2.1109  1.9828
  966MOL0     H30381   3.855   3.923  10.857  0.1377 -1.0123  3.0582
  966MOL0     H30382   4.036   4.135  10.894  0.4134  0.6571 -0.6440
  966MOL0     H30383   3.907   4.227  10.829 -0.0398 -0.6067  0.7111
  966MOL0     H30384   4.020   3.972  10.684  0.9241 -0.1861  3.8208
  966MOL0     H30385   3.899   4.091  10.632 -0.0831  3.2477  1.6389
  966MOL0     H30386   4.202   4.153  10.674  0.4806  0.2753 -0.5909
  966MOL0     H30387   4.073   4.277  10.661  1.5859  0.0495  0.7051
  966MOL0     H30388   4.101   4.053  10.468 -1.4234  0.0639 -1.0462
  966MOL0     H30389   4.005   4.209  10.452  1.0828  2.2577 -0.2715
  966MOL0     H30390   3.477   3.647  10.963 -0.9301 -0.4141  0.6527
  966MOL0     H30391   3.480   3.577  10.726 -1.2723 -0.4570  0.2710
  966MOL0     H30392   3.729   3.534  10.349 -0.4634  1.0814  0.6491
  966MOL0     H30393   3.752   3.476  10.099  0.2642 -0.1150 -0.9552
  966MOL0     H30394   2.259   3.341   8.863  2.5166 -1.4765 -2.5894
  966MOL0     H30395   2.027   3.441   8.807  0.1806  1.5128  1.4460
  966MOL0     H30396   1.866   3.848   8.555 -0.3416  5.8146  1.2551
  966MOL0     H30397   1.660   3.943   8.504 -0.6755 -1.0547 -0.5580
  966MOL0     H30398   1.376   4.025   8.834  0.7294 -0.1869  0.1238
  966MOL0     H30399   1.337   3.869   8.784 -0.8565  0.2480 -1.4421
  966MOL0     H30400   1.129   3.998   8.750  1.2037 -0.5139  1.8372
  966MOL0     H30401   1.205   3.934   8.596  0.6064  1.8401 -1.1034
  966MOL0     H30402   1.294   4.144   8.554 -0.8292 -0.9394  0.1755
  966MOL0     H30403   1.242   4.217   8.714 -4.1379  0.0972  1.6453
  966MOL0     H30404   1.009   4.204   8.649 -1.3351 -4.4645 -1.5179
  966MOL0     H30405   1.094   4.315   8.546  2.1908 -0.4623  0.1102
  966MOL0     H30406   1.008   4.056   8.242 -0.4331  2.3009 -1.2804
  966MOL0     H30407   1.518   3.798   8.904  1.0186 -0.3539  1.7019
  966MOL0     H30408   1.797   3.577   8.947  0.6265  1.8932 -3.1214
  966MOL0     H30409   1.738   3.716   9.045 -3.2769  1.2480  1.0071
  966MOL0     H30410   1.630   3.589   8.981  1.3679 -0.0442  1.4312
  967MOL0     O30411   2.061   3.898   4.487 -0.2385 -0.4033 -0.8319
  967MOL0     C30412   2.028   3.782   4.454 -0.0512  0.4824  0.4160
  967MOL0     O30413   2.037   3.737   4.318 -0.1217  0.1248  0.1716
  967MOL0     C30414   2.035   3.833   4.229 -0.5257  0.6711  0.5084
  967MOL0     C30415   1.921   3.867   4.163  0.6174  0.0456 -0.5271
  967MOL0     C30416   1.924   3.977   4.073 -0.5609  0.0702  0.1323
  967MOL0     C30417   2.038   4.057   4.042  0.1808 -0.0884 -0.5732
  967MOL0     O30418   2.035   4.167   3.960  0.1559  0.6249 -1.4474
  967MOL0     C30419   2.073   4.290   4.014  0.8755  0.0506 -0.8005
  967MOL0     C30420   2.056   4.388   3.900 -1.2993  0.0641 -0.1778
  967MOL0     C30421   1.907   4.402   3.852  0.2410  0.4651  0.6686
  967MOL0     C30422   1.880   4.460   3.708  0.4746 -0.6536  0.4005
  967MOL0     C30423   1.740   4.441   3.655 -0.4313  0.2892 -0.2854
  967MOL0     C30424   1.723   4.392   3.516  0.6074 -0.7881 -0.1256
  967MOL0     C30425   1.590   4.416   3.443 -0.0550  0.0136  0.5617
  967MOL0     C30426   1.606   4.437   3.290 -0.1161  0.3035  1.4685
  967MOL0     N30427   1.488   4.415   3.212  0.0350 -0.7360  0.1439
  967MOL0     C30428   1.363   4.442   3.250  0.5101  0.0821  1.2251
  967MOL0     C30429   1.291   4.365   3.169 -0.5197 -1.6493 -0.9292
  967MOL0     C30430   1.145   4.326   3.186  0.2242 -0.0999 -0.7440
  967MOL0     C30431   1.049   4.349   3.068 -0.3869  0.2683  1.2227
  967MOL0     C30432   1.041   4.229   2.968 -0.1289  0.6463  0.3357
  967MOL0     C30433   0.938   4.272   2.860  0.6876  0.1579 -0.1398
  967MOL0     O30434   0.918   4.170   2.763 -0.0094 -0.6188  0.3808
  967MOL0     C30435   0.809   4.079   2.786 -0.5907  0.3088 -0.4440
  967MOL0     C30436   0.839   3.957   2.723 -0.8615 -0.7511  1.2639
  967MOL0     C30437   0.750   3.854   2.725  0.6969  0.2718  0.3150
  967MOL0     C30438   0.619   3.871   2.794 -0.2644  0.3458 -0.0916
  967MOL0     C30439   0.509   3.770   2.792 -1.0533 -0.1607  1.0384
  967MOL0     O30440   0.488   3.701   2.677 -0.3133  0.2464  0.0693
  967MOL0     C30441   0.432   3.580   2.686  0.6265  0.2391  0.0009
  967MOL0     C30442   0.297   3.562   2.677 -0.0190  0.6346 -0.6812
  967MOL0     C30443   0.243   3.435   2.690 -0.1729  0.2883 -0.1730
  967MOL0     C30444   0.324   3.321   2.715 -0.0049 -0.4148 -0.0491
  967MOL0     O30445   0.257   3.198   2.719 -0.5841  0.2459 -0.1747
  967MOL0     C30446   0.330   3.086   2.770 -0.3523  0.6904 -0.1404
  967MOL0     C30447   0.251   2.950   2.740 -0.7148 -0.3723  0.3996
  967MOL0     C30448   0.235   2.914   2.587 -0.0590  0.1154  0.1129
  967MOL0     C30449   0.171   2.772   2.574 -0.1144  0.0593  0.1888
  967MOL0     C30450   0.156   2.747   2.423  0.1245  0.3679  0.3500
  967MOL0     C30451   0.164   2.593   2.388 -0.1953  0.0228  0.4316
  967MOL0     C30452   0.118   2.577   2.236 -0.5376  0.6057 -0.1825
  967MOL0     C30453   0.148   2.441   2.161 -0.9734 -0.4201 -0.4097
  967MOL0    Cl30454   0.322   2.401   2.143 -0.4231 -0.3782  0.0328
  967MOL0     C30455   0.468   3.354   2.714 -0.6762  0.7525 -0.2926
  967MOL0     C30456   0.526   3.482   2.694  0.3830  0.7089 -0.2266
  967MOL0     O30457   0.435   3.773   2.886  0.2686 -0.0533  0.1575
  967MOL0     C30458   0.598   3.988   2.875 -0.1838  0.0551 -1.1142
  967MOL0     C30459   0.684   4.096   2.854 -0.3306  0.2628 -0.8574
  967MOL0     N30460   1.374   4.311   3.067 -0.3857  0.8493 -0.3014
  967MOL0     N30461   1.497   4.337   3.096 -0.4118 -0.9234 -0.1432
  967MOL0     C30462   2.151   3.998   4.089 -0.7904 -0.0516  0.3656
  967MOL0     C30463   2.151   3.893   4.182 -0.1742 -0.6822  0.4549
  967MOL0     C30464   1.971   3.692   4.558  0.0736  0.3559 -0.7237
  967MOL0     C30465   1.932   3.561   4.519 -0.5890  0.2200  0.2248
  967MOL0     C30466   1.895   3.462   4.600 -1.0838 -0.3439 -0.6558
  967MOL0     C30467   1.881   3.496   4.741 -0.6078 -1.2339 -0.4167
  967MOL0     O30468   1.840   3.412   4.835 -0.8791 -0.0796 -0.1885
  967MOL0     C30469   1.748   3.311   4.795  0.2384 -0.0439  0.2013
  967MOL0     C30470   1.684   3.237   4.911  0.9325  0.0794  0.2445
  967MOL0     C30471   1.624   3.309   5.024  0.3882  0.3420 -0.2098
  967MOL0     C30472   1.550   3.219   5.132 -0.2858  1.3395  0.3373
  967MOL0     C30473   1.649   3.158   5.224  0.8591 -0.2452 -0.0886
  967MOL0     C30474   1.718   3.116   5.314 -1.4295  0.1996 -0.8497
  967MOL0     C30475   1.907   3.623   4.789 -0.7674 -0.2431  0.6052
  967MOL0     C30476   1.960   3.720   4.699  0.1215  0.0591 -0.5172
  967MOL0     C30477   1.997   3.846   4.767 -0.2835 -0.3926 -0.2603
  967MOL0     H30478   1.827   3.813   4.168 -2.2931  4.7275  0.4759
  967MOL0     H30479   1.838   4.023   4.026  0.3625  0.8822 -0.8179
  967MOL0     H30480   2.011   4.323   4.098  1.5198 -2.8438  0.9545
  967MOL0     H30481   2.180   4.285   4.036  0.4383  0.4261  1.7405
  967MOL0     H30482   2.116   4.352   3.815 -1.1607 -0.1820  0.0199
  967MOL0     H30483   2.092   4.485   3.935 -0.2029 -0.5189  0.3889
  967MOL0     H30484   1.868   4.469   3.929 -0.0302  0.7415  0.2933
  967MOL0     H30485   1.849   4.310   3.862 -0.6807  0.2993 -3.9316
  967MOL0     H30486   1.906   4.566   3.700  0.3869 -0.5392  1.4702
  967MOL0     H30487   1.947   4.418   3.633 -0.5158  0.9600 -1.4721
  967MOL0     H30488   1.691   4.373   3.725 -0.7053 -2.8825 -3.2722
  967MOL0     H30489   1.687   4.536   3.665 -0.1042  0.1942  4.5281
  967MOL0     H30490   1.808   4.416   3.451  0.4517 -1.4895 -0.6044
  967MOL0     H30491   1.727   4.283   3.519 -0.7447 -0.8796 -0.7842
  967MOL0     H30492   1.535   4.503   3.482  0.7996 -0.6447  3.5020
  967MOL0     H30493   1.525   4.328   3.444  1.2403 -0.9672  2.2325
  967MOL0     H30494   1.626   4.541   3.262  0.0434 -0.8100 -3.4953
  967MOL0     H30495   1.690   4.377   3.254 -0.3876  0.6488  0.1993
  967MOL0     H30496   1.337   4.493   3.342  1.7134  2.7304  0.1849
  967MOL0     H30497   1.135   4.222   3.219 -4.1221 -0.9889 -3.9905
  967MOL0     H30498   1.108   4.392   3.265  2.5782 -1.0551  1.2863
  967MOL0     H30499   0.949   4.378   3.104 -1.0320  2.1370 -1.7254
  967MOL0     H30500   1.089   4.434   3.013  0.3696 -1.6072 -1.3130
  967MOL0     H30501   0.997   4.148   3.027  2.5689 -1.2114 -0.0007
  967MOL0     H30502   1.131   4.193   2.916 -0.3031 -0.5851  0.8487
  967MOL0     H30503   0.973   4.362   2.809  0.7376 -0.5105 -1.3144
  967MOL0     H30504   0.847   4.293   2.918  1.8219 -1.1990  2.2887
  967MOL0     H30505   0.936   3.929   2.684 -1.2207 -0.3919  0.0712
  967MOL0     H30506   0.761   3.767   2.662  1.3517  0.8728 -0.4289
  967MOL0     H30507   0.226   3.643   2.664 -1.4987  0.0194  2.5919
  967MOL0     H30508   0.136   3.423   2.680  0.0334 -1.3424 -0.7107
  967MOL0     H30509   0.423   3.074   2.714 -1.8220 -3.1653 -2.1194
  967MOL0     H30510   0.339   3.089   2.879 -1.2885 -0.9034  0.0233
  967MOL0     H30511   0.312   2.877   2.795  1.2887  0.1519 -1.0178
  967MOL0     H30512   0.156   2.957   2.794 -0.0947 -0.5259  1.5408
  967MOL0     H30513   0.170   2.982   2.530  0.1138 -0.1835 -0.4512
  967MOL0     H30514   0.328   2.911   2.530  0.0764  1.6409  0.2228
  967MOL0     H30515   0.077   2.766   2.629  0.5918  0.5952  1.5051
  967MOL0     H30516   0.229   2.690   2.617 -2.6281 -1.4210  0.9598
  967MOL0     H30517   0.234   2.804   2.372  0.7530 -0.6792  0.1189
  967MOL0     H30518   0.058   2.789   2.399 -1.6823 -1.6531  3.4931
  967MOL0     H30519   0.267   2.560   2.404 -0.1245  0.3897  0.7368
  967MOL0     H30520   0.095   2.531   2.446 -1.0946 -1.9248 -2.4871
  967MOL0     H30521   0.168   2.652   2.174  1.2282  1.8156  2.4927
  967MOL0     H30522   0.010   2.591   2.227 -0.1866  2.1235 -3.4417
  967MOL0     H30523   0.099   2.367   2.224  1.1731 -0.4835  1.2772
  967MOL0     H30524   0.089   2.454   2.069 -3.3601 -1.9939  0.7949
  967MOL0     H30525   0.538   3.274   2.736 -1.8544 -0.9218 -2.2607
  967MOL0     H30526   0.633   3.500   2.707  0.9701 -3.2624  2.0299
  967MOL0     H30527   0.502   4.001   2.924  0.7374 -2.9701  1.9033
  967MOL0     H30528   0.668   4.189   2.908 -1.1080 -0.1254 -0.3998
  967MOL0     H30529   2.248   4.046   4.087 -0.2474 -1.0014  2.0031
  967MOL0     H30530   2.242   3.851   4.224 -0.9977 -2.5692  0.4914
  967MOL0     H30531   1.937   3.534   4.414  0.0798  0.0065  0.3085
  967MOL0     H30532   1.883   3.361   4.562 -0.5257 -0.5530 -0.2991
  967MOL0     H30533   1.792   3.235   4.729 -4.8274 -0.4441 -3.2774
  967MOL0     H30534   1.678   3.353   4.723  3.8778  0.0902 -3.6687
  967MOL0     H30535   1.751   3.161   4.953 -0.0075  1.2169  4.3457
  967MOL0     H30536   1.618   3.161   4.868  2.2758 -0.0101 -1.7897
  967MOL0     H30537   1.556   3.383   4.981  2.2993  4.0497  2.5690
  967MOL0     H30538   1.709   3.361   5.069  3.5225 -0.5509 -4.4674
  967MOL0     H30539   1.476   3.280   5.185 -4.4105 -2.0229 -0.9928
  967MOL0     H30540   1.487   3.139   5.092 -1.2098  2.0735  0.2966
  967MOL0     H30541   1.781   3.075   5.390 -2.0402 -1.7163 -1.3160
  967MOL0     H30542   1.907   3.639   4.897  0.6988 -0.8534  0.7131
  967MOL0     H30543   1.909   3.910   4.756 -1.5744 -1.1874  3.8982
  967MOL0     H30544   2.017   3.829   4.873  3.9426  3.4656 -0.1371
  967MOL0     H30545   2.091   3.893   4.735  0.0583  0.8117  2.3005
  968MOL0     O30546   3.064   2.357   8.860  0.8463 -0.7210 -0.1218
  968MOL0     C30547   3.043   2.440   8.951 -0.3569 -0.3746  0.7064
  968MOL0     O30548   3.029   2.576   8.940 -0.4682 -0.4976 -0.2780
  968MOL0     C30549   3.081   2.622   8.821 -0.3737  0.1849  0.1744
  968MOL0     C30550   3.215   2.616   8.785  1.1139  1.5192 -0.3322
  968MOL0     C30551   3.253   2.665   8.655 -0.9444  0.5401 -0.1253
  968MOL0     C30552   3.163   2.717   8.569 -0.9332  0.0490  0.4629
  968MOL0     O30553   3.208   2.757   8.445 -1.2881  0.2687  0.6342
  968MOL0     C30554   3.117   2.722   8.328  0.0409 -0.4874 -0.0898
  968MOL0     C30555   3.128   2.571   8.296 -0.2530  0.3143  0.2356
  968MOL0     C30556   3.002   2.528   8.227  0.7159 -0.2304 -0.7083
  968MOL0     C30557   3.006   2.401   8.144 -0.4792  0.5976 -1.4397
  968MOL0     C30558   2.864   2.345   8.121 -0.3228  0.5035  0.2132
  968MOL0     C30559   2.856   2.208   8.057  0.5182  0.1513 -0.1057
  968MOL0     C30560   2.855   2.232   7.917  0.2459  1.1140 -0.2227
  968MOL0     C30561   2.880   2.101   7.830 -0.4275 -0.4739  0.0592
  968MOL0     N30562   2.761   2.015   7.833  0.2878 -0.6803 -0.2491
  968MOL0     C30563   2.772   1.873   7.855 -0.3155 -0.4900 -0.0419
  968MOL0     C30564   2.651   1.826   7.839  0.5628 -1.0927  0.0247
  968MOL0     C30565   2.611   1.681   7.837  0.5391 -0.4488  0.0208
  968MOL0     C30566   2.658   1.624   7.970 -0.4028 -0.3392  0.0787
  968MOL0     C30567   2.560   1.519   8.021 -0.3293  0.3905 -0.3978
  968MOL0     C30568   2.629   1.460   8.151 -0.5480  1.2725  0.1790
  968MOL0     O30569   2.546   1.359   8.206  0.0978 -0.1290  0.4942
  968MOL0     C30570   2.578   1.319   8.334  0.6334  0.7994 -0.1819
  968MOL0     C30571   2.483   1.220   8.384 -0.1421  0.7540  0.5860
  968MOL0     C30572   2.492   1.192   8.523  0.4587  0.1582 -0.2030
  968MOL0     C30573   2.591   1.250   8.609 -0.7996 -0.0609 -0.3120
  968MOL0     C30574   2.591   1.223   8.760 -0.4228 -0.4413  1.0139
  968MOL0     O30575   2.576   1.089   8.809 -0.1735  0.4701 -0.1311
  968MOL0     C30576   2.573   1.045   8.939  0.0919 -1.0763 -0.4331
  968MOL0     C30577   2.588   1.121   9.061 -0.3935 -0.8234 -0.1345
  968MOL0     C30578   2.591   1.077   9.193 -0.1874  0.5843 -0.3670
  968MOL0     C30579   2.550   0.942   9.209  0.2215  0.4190 -0.9935
  968MOL0     O30580   2.559   0.881   9.332  0.8606 -0.3169  0.6588
  968MOL0     C30581   2.576   0.964   9.445  0.7392  0.1690 -0.1750
  968MOL0     C30582   2.549   0.887   9.579  0.1296  0.4646  0.1663
  968MOL0     C30583   2.417   0.823   9.599  0.9421 -0.2100  0.5524
  968MOL0     C30584   2.298   0.914   9.565  0.0498  0.6315 -0.1351
  968MOL0     C30585   2.266   1.018   9.672  1.1195 -0.7940 -0.5741
  968MOL0     C30586   2.124   1.072   9.688 -0.0126  0.4721 -0.1738
  968MOL0     C30587   2.125   1.173   9.810  0.0924 -0.6077  0.1451
  968MOL0     C30588   1.999   1.252   9.845  0.3927  0.1080  0.3918
  968MOL0    Cl30589   1.871   1.166   9.918  0.3028 -0.5076 -0.1126
  968MOL0     C30590   2.524   0.864   9.094 -0.3208  0.8196 -0.0561
  968MOL0     C30591   2.535   0.918   8.965 -0.2140 -0.2677 -0.6303
  968MOL0     O30592   2.619   1.327   8.822  0.5644 -0.1735  0.3687
  968MOL0     C30593   2.691   1.327   8.553  0.7089 -0.2645  0.3005
  968MOL0     C30594   2.687   1.359   8.416  0.0359 -0.8253  0.4395
  968MOL0     N30595   2.565   1.934   7.825  0.5362  0.1656 -0.3101
  968MOL0     N30596   2.632   2.046   7.815  0.6667  0.2380 -0.4971
  968MOL0     C30597   3.026   2.723   8.605  0.0427 -1.1457 -0.5754
  968MOL0     C30598   2.986   2.682   8.732 -0.8531 -0.4213 -0.8423
  968MOL0     C30599   3.009   2.392   9.085  0.0408 -0.2438  0.5650
  968MOL0     C30600   3.101   2.420   9.190  0.3636  0.5290 -0.6532
  968MOL0     C30601   3.078   2.377   9.319 -0.8663 -0.3326 -0.6515
  968MOL0     C30602   2.971   2.292   9.347  0.4615 -1.1271  0.1940
  968MOL0     O30603   2.941   2.274   9.481 -0.6516  0.4892 -0.0383
  968MOL0     C30604   2.831   2.194   9.529 -0.3984 -0.0031  0.8432
  968MOL0     C30605   2.698   2.253   9.506  0.9133 -0.4632 -0.2720
  968MOL0     C30606   2.688   2.398   9.529  0.3686  0.4519  0.7198
  968MOL0     C30607   2.726   2.470   9.653 -1.8659 -0.1662  0.3972
  968MOL0     C30608   2.681   2.386   9.761  0.0055  0.8839  0.9180
  968MOL0     C30609   2.638   2.322   9.857 -0.5112  0.0796 -0.2625
  968MOL0     C30610   2.884   2.246   9.242  0.0969 -0.3587  0.2244
  968MOL0     C30611   2.901   2.305   9.110 -0.2697  0.6771  0.0605
  968MOL0     C30612   2.800   2.267   9.008  0.7103  0.2742  0.0736
  968MOL0     H30613   3.292   2.573   8.849  1.0160  1.3958 -0.2962
  968MOL0     H30614   3.359   2.673   8.633 -0.9750 -1.7101 -1.4002
  968MOL0     H30615   3.015   2.762   8.330  0.4509  0.7971 -2.2483
  968MOL0     H30616   3.164   2.768   8.241  5.0128 -2.1513  1.3524
  968MOL0     H30617   3.126   2.516   8.391 -1.8176  2.8405  1.7834
  968MOL0     H30618   3.223   2.539   8.253  0.2769  2.2361 -0.1021
  968MOL0     H30619   2.956   2.608   8.168 -4.2674 -1.0408  1.5686
  968MOL0     H30620   2.922   2.505   8.297  1.0568  1.6661  0.3631
  968MOL0     H30621   3.057   2.412   8.048  0.6321 -1.7671 -1.1931
  968MOL0     H30622   3.065   2.325   8.196 -1.0816  0.3674 -1.0815
  968MOL0     H30623   2.821   2.331   8.221  5.3425  0.9447  3.1486
  968MOL0     H30624   2.805   2.417   8.065  0.6537 -0.3637 -2.0943
  968MOL0     H30625   2.949   2.154   8.080  1.4328  0.4405 -2.7591
  968MOL0     H30626   2.761   2.171   8.098 -0.9399  2.7986 -0.9116
  968MOL0     H30627   2.940   2.298   7.897  2.4619 -1.9594 -1.8317
  968MOL0     H30628   2.759   2.277   7.889  0.6856  1.4341 -1.2582
  968MOL0     H30629   2.900   2.134   7.728 -1.4055  1.4358  0.4379
  968MOL0     H30630   2.969   2.047   7.864 -2.2932 -2.2407  2.5065
  968MOL0     H30631   2.861   1.812   7.872 -0.5486 -0.5056  1.2651
  968MOL0     H30632   2.502   1.680   7.833  0.5145  1.3157 -2.7355
  968MOL0     H30633   2.643   1.629   7.745 -2.6830  4.0146 -4.1307
  968MOL0     H30634   2.762   1.592   7.972  0.6520  2.8378  1.1234
  968MOL0     H30635   2.653   1.699   8.049  2.0739 -0.3279  0.3008
  968MOL0     H30636   2.545   1.439   7.948  0.7269 -1.4469  1.2929
  968MOL0     H30637   2.476   1.580   8.056 -1.4514 -2.0516  1.5339
  968MOL0     H30638   2.647   1.540   8.224 -2.0389  2.4101 -0.6434
  968MOL0     H30639   2.714   1.406   8.110 -1.2376 -0.6032  1.1155
  968MOL0     H30640   2.405   1.170   8.326 -0.8244  1.3031  1.0110
  968MOL0     H30641   2.425   1.121   8.569 -0.0715 -0.3144 -1.6585
  968MOL0     H30642   2.606   1.228   9.048  2.6024 -1.1234  0.8628
  968MOL0     H30643   2.620   1.159   9.258 -3.3687  1.4673  0.1018
  968MOL0     H30644   2.676   1.008   9.443  0.5013  0.8587  1.5360
  968MOL0     H30645   2.502   1.045   9.433 -0.3257 -0.5545  1.2423
  968MOL0     H30646   2.620   0.807   9.598 -1.4723 -0.3318  3.5510
  968MOL0     H30647   2.551   0.960   9.660 -4.4106 -0.3476  1.2804
  968MOL0     H30648   2.411   0.734   9.536 -0.1898 -0.0323  0.3934
  968MOL0     H30649   2.409   0.780   9.699 -1.3455  0.5686  0.7586
  968MOL0     H30650   2.211   0.850   9.549  0.7466  0.1122 -2.0944
  968MOL0     H30651   2.315   0.972   9.474 -1.7687  2.9356  0.8793
  968MOL0     H30652   2.340   1.099   9.667 -1.6399  1.9073 -0.6692
  968MOL0     H30653   2.282   0.975   9.771 -1.2158  2.6175  1.4990
  968MOL0     H30654   2.089   1.131   9.603  0.5846  2.4101  0.8700
  968MOL0     H30655   2.055   0.991   9.716 -0.7142  1.5135  1.2629
  968MOL0     H30656   2.214   1.233   9.790 -0.2524 -0.7623 -2.0848
  968MOL0     H30657   2.146   1.123   9.905  2.3579 -0.7897 -0.4127
  968MOL0     H30658   2.035   1.323   9.920  1.1287 -2.1593  2.3195
  968MOL0     H30659   1.951   1.292   9.756  1.2020 -1.3077 -0.7295
  968MOL0     H30660   2.499   0.759   9.105  3.5527 -0.1780  0.8744
  968MOL0     H30661   2.508   0.851   8.884  1.9851 -0.7991 -0.9933
  968MOL0     H30662   2.766   1.377   8.613 -0.4437 -0.5017  2.0445
  968MOL0     H30663   2.765   1.424   8.376 -0.3450  1.1927  2.6771
  968MOL0     H30664   2.952   2.777   8.546  1.1930  1.7053  0.4219
  968MOL0     H30665   2.888   2.705   8.773  1.1858  1.3332  3.5659
  968MOL0     H30666   3.191   2.476   9.169  0.8627  0.8743  1.9678
  968MOL0     H30667   3.133   2.419   9.402 -1.3306  2.2536 -1.5716
  968MOL0     H30668   2.843   2.170   9.635 -0.7316  3.2295  1.7198
  968MOL0     H30669   2.826   2.094   9.484  1.4666 -0.1978  0.9934
  968MOL0     H30670   2.634   2.193   9.573  1.7029 -1.3413 -0.2795
  968MOL0     H30671   2.669   2.229   9.403 -1.8047 -0.6453  0.4515
  968MOL0     H30672   2.582   2.423   9.515  0.0301 -0.6432  1.1800
  968MOL0     H30673   2.735   2.454   9.448 -2.6230  2.0593 -0.0650
  968MOL0     H30674   2.828   2.506   9.667 -2.0775  0.1503  1.1711
  968MOL0     H30675   2.668   2.563   9.655 -3.1923 -0.4947 -5.2708
  968MOL0     H30676   2.609   2.270   9.946 -1.2477  1.0687  0.0994
  968MOL0     H30677   2.796   2.183   9.253 -1.7900  2.3516  1.9237
  968MOL0     H30678   2.833   2.167   8.981  0.7019 -0.4999  2.6462
  968MOL0     H30679   2.695   2.263   9.040  0.4291 -0.8528 -0.9157
  968MOL0     H30680   2.797   2.328   8.918  0.8993 -1.7181 -1.3372
  969MOL0     O30681   5.336   5.746   1.560  0.5163  0.4714  0.4506
  969MOL0     C30682   5.285   5.685   1.650 -0.9823  0.5016 -0.2470
  969MOL0     O30683   5.218   5.743   1.750  0.7849 -0.9419 -0.3948
  969MOL0     C30684   5.203   5.882   1.756 -0.2716 -0.1318  1.4200
  969MOL0     C30685   5.293   5.966   1.834  0.3139  0.3464 -0.6326
  969MOL0     C30686   5.276   6.111   1.835 -0.4799  0.3096  0.5278
  969MOL0     C30687   5.168   6.168   1.760  0.2051 -0.8169 -0.1514
  969MOL0     O30688   5.135   6.296   1.782 -0.5741 -0.3145  0.5285
  969MOL0     C30689   5.238   6.388   1.762 -0.8368 -0.7924 -0.0762
  969MOL0     C30690   5.266   6.410   1.615  0.6680  1.2457  0.0171
  969MOL0     C30691   5.352   6.529   1.590 -1.3924 -0.8939 -0.5153
  969MOL0     C30692   5.497   6.517   1.660  0.5493  0.0698  0.4142
  969MOL0     C30693   5.599   6.627   1.621  0.4071  0.3498  0.1832
  969MOL0     C30694   5.551   6.768   1.645 -0.1869 -0.6220 -0.1752
  969MOL0     C30695   5.662   6.864   1.662  0.0074  0.3245  0.6777
  969MOL0     C30696   5.769   6.851   1.772  0.6632  0.0275 -0.0811
  969MOL0     N30697   5.823   6.983   1.799 -1.0159  0.5827 -0.0747
  969MOL0     C30698   5.953   7.021   1.764 -0.0538 -0.2938 -0.1609
  969MOL0     C30699   5.981   7.137   1.843  0.2306  1.1697  0.4342
  969MOL0     C30700   6.113   7.220   1.839 -0.4019  0.1193 -0.1345
  969MOL0     C30701   6.228   7.130   1.900  0.1655  0.0748 -0.0308
  969MOL0     C30702   6.367   7.189   1.880 -0.1904 -0.4271  0.2319
  969MOL0     C30703   6.373   7.324   1.943 -0.1069  0.1327  0.8319
  969MOL0     O30704   6.508   7.359   1.943 -0.2973  0.1362 -0.3349
  969MOL0     C30705   6.601   7.322   2.043  0.8333  0.1498 -0.2055
  969MOL0     C30706   6.566   7.237   2.151 -0.7220  0.5085  0.6309
  969MOL0     C30707   6.655   7.228   2.258 -0.9141  0.0084 -0.4336
  969MOL0     C30708   6.779   7.292   2.252  0.7930 -0.3118  0.1521
  969MOL0     C30709   6.883   7.276   2.350 -0.0002 -0.2144  0.0036
  969MOL0     O30710   6.996   7.352   2.329  0.0600 -0.0127 -0.3223
  969MOL0     C30711   7.108   7.339   2.411  0.1578 -0.6963  0.4753
  969MOL0     C30712   7.098   7.362   2.549 -0.0396  0.2204 -0.2576
  969MOL0     C30713   7.219   7.363   2.631 -0.0602  0.8661  0.2295
  969MOL0     C30714   7.346   7.339   2.576  0.7328  0.1274 -0.0382
  969MOL0     O30715   7.456   7.325   2.648  0.7887 -0.7476 -0.4885
  969MOL0     C30716   7.476   7.414   2.761 -0.4317 -0.2440  0.6049
  969MOL0     C30717   7.615   7.368   2.829 -0.8442  0.4643 -0.7976
  969MOL0     C30718   7.618   7.405   2.984  0.7972  0.5469 -0.6195
  969MOL0     C30719   7.752   7.369   3.053  0.3512 -0.4648 -0.2915
  969MOL0     C30720   7.845   7.491   3.064  0.6097 -0.7057  0.5363
  969MOL0     C30721   7.973   7.477   3.143 -0.0443  0.4644  0.9515
  969MOL0     C30722   8.037   7.608   3.206 -0.3006  0.8132  0.4096
  969MOL0     C30723   8.100   7.703   3.100 -0.0731  0.0524  0.2983
  969MOL0    Cl30724   8.240   7.638   3.015  0.3162 -0.3815 -0.3010
  969MOL0     C30725   7.351   7.314   2.442 -0.1359  0.4382 -0.8628
  969MOL0     C30726   7.239   7.318   2.360 -0.1650 -0.4142 -0.8673
  969MOL0     O30727   6.862   7.204   2.450 -1.0472  0.3517 -0.6855
  969MOL0     C30728   6.813   7.373   2.138  0.3756  0.1471 -0.0005
  969MOL0     C30729   6.728   7.385   2.037  0.5371 -1.0126  0.4684
  969MOL0     N30730   5.867   7.164   1.914 -0.2469  1.1549 -0.0407
  969MOL0     N30731   5.772   7.074   1.889  0.1055  0.0753 -0.3417
  969MOL0     C30732   5.086   6.083   1.693 -0.4196 -0.6841 -0.5187
  969MOL0     C30733   5.093   5.941   1.682 -1.2163 -0.5906 -0.1829
  969MOL0     C30734   5.310   5.541   1.643  0.4446 -1.3291 -0.3452
  969MOL0     C30735   5.443   5.501   1.632  0.4725 -0.8134  1.1809
  969MOL0     C30736   5.484   5.366   1.634  0.9545 -0.0154  0.8563
  969MOL0     C30737   5.384   5.271   1.646  0.1676  0.5351 -0.3325
  969MOL0     O30738   5.419   5.139   1.624  0.6661 -0.1010  0.4816
  969MOL0     C30739   5.526   5.083   1.699  0.0443  0.2644 -0.3443
  969MOL0     C30740   5.488   4.996   1.829 -0.3899 -0.1356  0.4397
  969MOL0     C30741   5.446   4.858   1.797 -0.2024 -0.5924  0.6411
  969MOL0     C30742   5.393   4.771   1.915 -0.9480 -0.2215 -0.1807
  969MOL0     C30743   5.254   4.799   1.922  0.2267  0.0581  0.2773
  969MOL0     C30744   5.136   4.820   1.925  0.0099 -0.1255 -0.1582
  969MOL0     C30745   5.245   5.304   1.667  0.0010  0.2281 -0.0592
  969MOL0     C30746   5.207   5.438   1.671 -0.1392  0.5274 -0.6317
  969MOL0     C30747   5.070   5.466   1.716 -0.5088 -0.7963  1.0401
  969MOL0     H30748   5.361   5.929   1.910  1.0525  3.9268  0.6579
  969MOL0     H30749   5.350   6.159   1.898 -0.0287  0.8683 -0.4057
  969MOL0     H30750   5.216   6.483   1.813  0.0310 -1.0018  0.7291
  969MOL0     H30751   5.329   6.355   1.814 -1.3271 -0.4874  1.0195
  969MOL0     H30752   5.175   6.410   1.555  1.1423  0.9178 -0.7210
  969MOL0     H30753   5.322   6.328   1.569  1.7746  1.5586  0.7545
  969MOL0     H30754   5.307   6.621   1.630  2.3625  0.5997  0.7230
  969MOL0     H30755   5.369   6.543   1.483  1.5230 -0.3524 -0.0705
  969MOL0     H30756   5.484   6.511   1.768  2.2201 -1.8980  0.5879
  969MOL0     H30757   5.541   6.420   1.634 -2.3200 -0.7119 -2.0491
  969MOL0     H30758   5.683   6.599   1.686 -0.9561 -0.4134  1.6713
  969MOL0     H30759   5.633   6.623   1.517  1.2913 -3.8632  0.4768
  969MOL0     H30760   5.496   6.798   1.556 -0.4723  0.5115  0.3599
  969MOL0     H30761   5.479   6.779   1.727 -1.5761 -3.3426 -0.9215
  969MOL0     H30762   5.607   6.958   1.672  0.9412  1.0219 -0.4585
  969MOL0     H30763   5.718   6.860   1.568  2.5960 -1.8364  2.1650
  969MOL0     H30764   5.718   6.802   1.856  0.2827 -1.2809 -1.0324
  969MOL0     H30765   5.856   6.795   1.736  0.7964  0.7169 -0.8499
  969MOL0     H30766   6.023   6.977   1.694 -0.3552 -5.7858  2.5000
  969MOL0     H30767   6.146   7.256   1.742  1.0547  1.0120  0.6595
  969MOL0     H30768   6.095   7.311   1.898 -0.5232 -0.0841  0.1476
  969MOL0     H30769   6.225   7.127   2.009  1.0656 -2.1950 -0.0048
  969MOL0     H30770   6.221   7.025   1.868 -1.4822  0.3786 -0.7768
  969MOL0     H30771   6.385   7.213   1.774  1.2895  0.9010  0.7366
  969MOL0     H30772   6.439   7.116   1.918  1.5075  0.1868 -1.6014
  969MOL0     H30773   6.309   7.332   2.031 -2.1681  0.2320 -0.5935
  969MOL0     H30774   6.323   7.396   1.877 -0.1022  1.7141  2.4984
  969MOL0     H30775   6.467   7.195   2.155 -0.3100 -0.4911  4.1410
  969MOL0     H30776   6.627   7.167   2.344  1.5205 -1.7150 -0.7688
  969MOL0     H30777   7.001   7.376   2.595  0.6864 -0.2589  1.5143
  969MOL0     H30778   7.210   7.351   2.738  0.0376 -0.9266  0.0652
  969MOL0     H30779   7.496   7.515   2.724 -1.2870  0.8680  2.9555
  969MOL0     H30780   7.393   7.396   2.830  0.9478 -1.8643  1.9663
  969MOL0     H30781   7.622   7.259   2.826 -1.6761  0.1663  2.7444
  969MOL0     H30782   7.704   7.405   2.777  0.2999 -0.2338  0.5684
  969MOL0     H30783   7.606   7.514   2.991  1.1000  0.5741 -0.5198
  969MOL0     H30784   7.544   7.346   3.038  1.3751  0.0632 -0.3436
  969MOL0     H30785   7.799   7.287   2.998  0.1056 -1.4225  0.8815
  969MOL0     H30786   7.741   7.340   3.158  1.7012 -0.1425 -0.0495
  969MOL0     H30787   7.785   7.573   3.106  1.9733  1.5933 -1.6482
  969MOL0     H30788   7.867   7.528   2.963 -0.3280 -2.7768 -0.4838
  969MOL0     H30789   7.958   7.406   3.225  2.4780 -1.5543 -0.1797
  969MOL0     H30790   8.050   7.420   3.091 -1.0253 -0.8706  0.9074
  969MOL0     H30791   8.107   7.587   3.287  1.1539  1.1108 -0.7184
  969MOL0     H30792   7.958   7.676   3.236  0.4630  3.1750 -2.3992
  969MOL0     H30793   8.025   7.737   3.028  0.1855 -1.0714 -0.5273
  969MOL0     H30794   8.130   7.791   3.159  0.3475  0.4904 -0.5456
  969MOL0     H30795   7.444   7.290   2.390 -1.2117 -0.2140 -2.5968
  969MOL0     H30796   7.262   7.297   2.256  6.5014  2.0533 -0.4275
  969MOL0     H30797   6.911   7.418   2.123  0.7055 -0.9211 -1.2200
  969MOL0     H30798   6.760   7.445   1.953  1.9885 -2.3458  0.0205
  969MOL0     H30799   5.001   6.136   1.653 -0.6407 -0.1977  0.5446
  969MOL0     H30800   5.022   5.875   1.633  0.2376 -1.0596 -1.7565
  969MOL0     H30801   5.509   5.587   1.624  0.3064 -0.6878  1.1448
  969MOL0     H30802   5.585   5.344   1.602  1.3102  1.0485  1.2079
  969MOL0     H30803   5.601   5.158   1.725 -1.2520  1.7178 -0.6001
  969MOL0     H30804   5.573   5.002   1.643 -1.5125 -1.3056  0.5153
  969MOL0     H30805   5.409   5.043   1.889  0.5063  1.7725  0.1896
  969MOL0     H30806   5.570   4.999   1.900  0.3842 -0.4724 -0.4199
  969MOL0     H30807   5.532   4.818   1.743 -0.2410  1.7592 -1.3277
  969MOL0     H30808   5.360   4.865   1.729 -2.4503 -0.8551  3.2595
  969MOL0     H30809   5.400   4.667   1.882  0.1206  0.0839 -0.9657
  969MOL0     H30810   5.439   4.780   2.014  2.2090 -0.7623 -1.4964
  969MOL0     H30811   5.029   4.823   1.923 -0.2225 -3.6591  0.2330
  969MOL0     H30812   5.180   5.221   1.692 -1.2063  1.1938  0.0598
  969MOL0     H30813   5.019   5.371   1.699 -0.6022 -0.5376 -0.2561
  969MOL0     H30814   5.080   5.480   1.824  2.2849 -0.7160  0.8558
  969MOL0     H30815   5.023   5.553   1.671  2.4039 -0.2727 -1.3438
  970MOL0     O30816   1.571   8.855   2.304  0.3868  0.2345  0.2941
  970MOL0     C30817   1.688   8.876   2.320  0.1360  0.0158  0.7320
  970MOL0     O30818   1.752   8.995   2.315  0.4962 -1.1817  0.4930
  970MOL0     C30819   1.678   9.103   2.264 -1.2595  0.5414 -1.0200
  970MOL0     C30820   1.639   9.110   2.137  0.4355  0.8498  0.9525
  970MOL0     C30821   1.572   9.217   2.083  0.1336 -1.1335  0.6248
  970MOL0     C30822   1.549   9.333   2.168 -0.3905  0.1892  0.0451
  970MOL0     O30823   1.514   9.451   2.108 -0.1496 -0.0592 -0.1486
  970MOL0     C30824   1.385   9.462   2.056  0.0493 -0.6310  0.5265
  970MOL0     C30825   1.273   9.488   2.159  0.1697  0.3343 -0.2035
  970MOL0     C30826   1.292   9.632   2.220 -0.0888  0.6409 -0.3292
  970MOL0     C30827   1.206   9.741   2.150 -0.7348  0.1480  0.6353
  970MOL0     C30828   1.192   9.859   2.250  0.4184 -0.0072 -0.6663
  970MOL0     C30829   1.125   9.983   2.185 -0.6195  0.2518 -0.8470
  970MOL0     C30830   1.126  10.092   2.293 -0.5016  0.7708  0.5817
  970MOL0     C30831   1.006  10.078   2.393  0.1002  0.3363 -0.0026
  970MOL0     N30832   1.025  10.168   2.507 -0.0448 -0.2146 -0.4207
  970MOL0     C30833   1.095  10.290   2.501 -0.0856  0.2533  0.0624
  970MOL0     C30834   1.085  10.343   2.627  0.8947  0.4158  0.5614
  970MOL0     C30835   1.133  10.478   2.671  0.3882  0.5505 -0.4239
  970MOL0     C30836   1.202  10.464   2.807 -0.1621  0.2196 -0.5681
  970MOL0     C30837   1.247  10.600   2.866  0.3084  0.3176 -0.9370
  970MOL0     C30838   1.351  10.661   2.774  0.1523  0.4209 -0.7376
  970MOL0     O30839   1.468  10.583   2.763  0.1793 -0.2476  0.3027
  970MOL0     C30840   1.570  10.594   2.859 -1.5410  1.8060  0.0858
  970MOL0     C30841   1.562  10.683   2.962 -2.1558 -0.1499 -0.2233
  970MOL0     C30842   1.670  10.708   3.047  1.4420 -1.2349  0.1420
  970MOL0     C30843   1.778  10.627   3.044  0.1928  0.9455 -1.0013
  970MOL0     C30844   1.887  10.651   3.136 -1.0562  1.0840 -0.7440
  970MOL0     O30845   2.000  10.560   3.125  0.0924 -0.9645 -0.3091
  970MOL0     C30846   2.115  10.600   3.196  0.2950  0.3514  0.2794
  970MOL0     C30847   2.194  10.495   3.231 -1.1854  1.2139  0.3316
  970MOL0     C30848   2.301  10.521   3.325  0.1710  0.9691 -0.1902
  970MOL0     C30849   2.333  10.648   3.368 -0.1984  0.2572  0.5228
  970MOL0     O30850   2.428  10.666   3.467  0.4434  0.4591  0.7367
  970MOL0     C30851   2.434  10.575   3.580  0.0335  0.6572 -0.1281
  970MOL0     C30852   2.291  10.547   3.649  0.7720  0.7251 -0.0486
  970MOL0     C30853   2.225  10.659   3.728  0.4461  0.8569 -0.2572
  970MOL0     C30854   2.309  10.727   3.837 -0.3467 -0.2474 -0.3840
  970MOL0     C30855   2.381  10.626   3.926  0.6625 -0.4029 -0.2894
  970MOL0     C30856   2.430  10.682   4.061 -0.0614 -0.3649  0.1009
  970MOL0     C30857   2.533  10.591   4.141 -0.0123 -0.2705  0.0055
  970MOL0     C30858   2.462  10.461   4.173  0.7238 -0.6276 -0.3613
  970MOL0    Cl30859   2.298  10.463   4.245  0.4885  0.9021 -1.1171
  970MOL0     C30860   2.268  10.757   3.311 -0.1416 -0.1884  0.2681
  970MOL0     C30861   2.152  10.733   3.231  0.2118 -0.1385 -0.0363
  970MOL0     O30862   1.864  10.730   3.235 -0.4374  0.8977  0.8900
  970MOL0     C30863   1.784  10.515   2.959  0.3451  0.0821  0.7905
  970MOL0     C30864   1.683  10.505   2.861  0.8524 -1.0777  0.1352
  970MOL0     N30865   1.007  10.258   2.704 -0.1102  1.2213 -0.0482
  970MOL0     N30866   0.982  10.151   2.636  0.9368 -0.2509 -0.1460
  970MOL0     C30867   1.593   9.332   2.305  0.2329  0.0429 -0.7271
  970MOL0     C30868   1.652   9.217   2.356 -0.3507  0.0554  0.0298
  970MOL0     C30869   1.775   8.753   2.326  0.3564 -0.1878 -1.2796
  970MOL0     C30870   1.906   8.769   2.300  0.0136  0.5867  0.1444
  970MOL0     C30871   1.990   8.660   2.312 -0.0747  0.5762  0.7611
  970MOL0     C30872   1.952   8.530   2.351 -1.2303  0.7319  0.3251
  970MOL0     O30873   2.027   8.414   2.378  0.6315 -0.4011  0.7551
  970MOL0     C30874   2.163   8.426   2.373 -0.4398 -0.5175 -0.3579
  970MOL0     C30875   2.221   8.482   2.492  0.1709  0.2967 -0.4753
  970MOL0     C30876   2.221   8.375   2.609  1.1319 -0.2679 -0.1865
  970MOL0     C30877   2.287   8.439   2.722  0.3482 -0.3952  0.0246
  970MOL0     C30878   2.218   8.541   2.791  0.2539 -0.1623  0.1627
  970MOL0     C30879   2.147   8.618   2.853  0.3679  0.6124  0.3738
  970MOL0     C30880   1.824   8.514   2.390  0.2174 -0.7199 -0.5705
  970MOL0     C30881   1.737   8.624   2.381  0.5038  0.7311  0.1417
  970MOL0     C30882   1.600   8.604   2.440  0.0172  0.4991  0.0142
  970MOL0     H30883   1.657   9.033   2.062 -1.2127  0.6455  0.7264
  970MOL0     H30884   1.538   9.242   1.983 -1.2228  4.1751  2.0739
  970MOL0     H30885   1.392   9.542   1.981  0.9725 -0.5117  0.7219
  970MOL0     H30886   1.348   9.369   2.012  1.1297 -0.9352  0.2132
  970MOL0     H30887   1.273   9.420   2.245 -3.0764  0.8765  0.3685
  970MOL0     H30888   1.181   9.481   2.100  2.0422 -0.4518 -3.2406
  970MOL0     H30889   1.397   9.662   2.215  0.7597 -2.1355 -0.9610
  970MOL0     H30890   1.258   9.623   2.323 -0.8974 -2.2772 -0.7436
  970MOL0     H30891   1.265   9.766   2.061 -0.4458 -1.7112  0.2743
  970MOL0     H30892   1.105   9.713   2.121 -0.1102 -2.2346  0.6036
  970MOL0     H30893   1.129   9.821   2.331  0.6740  0.0742 -0.4270
  970MOL0     H30894   1.288   9.887   2.294  0.3970  0.8675 -1.1493
  970MOL0     H30895   1.171  10.019   2.093  0.5092 -1.7366 -1.1279
  970MOL0     H30896   1.021   9.957   2.164 -0.2409 -2.1360 -0.1458
  970MOL0     H30897   1.118  10.185   2.236  2.0116 -0.0889 -1.3699
  970MOL0     H30898   1.223  10.083   2.343 -0.0043  1.1958 -0.2904
  970MOL0     H30899   0.902  10.078   2.359  0.9480  1.0279 -2.8853
  970MOL0     H30900   1.023   9.977   2.432  1.0908  0.8500  0.9583
  970MOL0     H30901   1.154  10.342   2.426  0.4811  4.3716  3.0119
  970MOL0     H30902   1.192  10.511   2.586  3.3095 -0.1729  1.1899
  970MOL0     H30903   1.039  10.534   2.677  0.1762  0.2441 -0.7947
  970MOL0     H30904   1.142  10.405   2.878 -0.4567  0.9077 -0.2378
  970MOL0     H30905   1.281  10.389   2.796 -1.6598 -2.4514  3.9022
  970MOL0     H30906   1.292  10.586   2.964 -3.5825 -3.2792  0.6556
  970MOL0     H30907   1.159  10.665   2.874  0.0012 -0.0741 -1.0979
  970MOL0     H30908   1.380  10.765   2.796 -1.3643  0.6415  0.3753
  970MOL0     H30909   1.310  10.666   2.672 -2.3891  2.3390  0.2667
  970MOL0     H30910   1.487  10.761   2.969 -0.1797  1.6942  1.5810
  970MOL0     H30911   1.654  10.789   3.118  2.7059 -0.2941 -0.5937
  970MOL0     H30912   2.175  10.394   3.196  0.8091 -0.5442  3.8012
  970MOL0     H30913   2.368  10.448   3.370 -0.1933  1.9424  2.1050
  970MOL0     H30914   2.485  10.483   3.548 -0.8588  0.3980 -0.8358
  970MOL0     H30915   2.501  10.619   3.655  0.7546  0.8742 -0.8893
  970MOL0     H30916   2.220  10.508   3.575  1.1582  2.4900 -1.4318
  970MOL0     H30917   2.311  10.475   3.729 -2.2333  2.0734  2.1057
  970MOL0     H30918   2.197  10.739   3.659 -2.3054 -0.6773 -1.0617
  970MOL0     H30919   2.134  10.618   3.773  1.9994 -3.1890 -0.4026
  970MOL0     H30920   2.245  10.791   3.897  0.5896  0.3199  0.0388
  970MOL0     H30921   2.381  10.789   3.782 -1.4333  2.0013  0.5975
  970MOL0     H30922   2.471  10.585   3.880  1.4339  0.3358  0.5178
  970MOL0     H30923   2.321  10.536   3.946  0.7419 -0.1848  1.0461
  970MOL0     H30924   2.486  10.776   4.050  2.4198 -1.6214  1.1859
  970MOL0     H30925   2.340  10.697   4.122 -2.2220 -1.4464 -2.6019
  970MOL0     H30926   2.579  10.648   4.223  0.2893 -0.4758 -0.0162
  970MOL0     H30927   2.620  10.560   4.082  0.1760  0.3809 -0.0767
  970MOL0     H30928   2.453  10.400   4.082 -1.7428 -0.8513 -0.0197
  970MOL0     H30929   2.524  10.404   4.243 -3.6052 -2.7351  2.1525
  970MOL0     H30930   2.289  10.858   3.344 -3.3111  0.5825  0.2904
  970MOL0     H30931   2.104  10.819   3.185  0.1544  0.3547  0.9278
  970MOL0     H30932   1.861  10.438   2.961 -1.3306 -1.6690  1.7948
  970MOL0     H30933   1.678  10.424   2.788 -0.8910 -0.5436 -0.3903
  970MOL0     H30934   1.585   9.415   2.375  1.3114 -0.1609 -0.3290
  970MOL0     H30935   1.688   9.217   2.458  0.4132 -0.6574 -0.2224
  970MOL0     H30936   1.944   8.861   2.257 -0.5376  0.4256 -0.6998
  970MOL0     H30937   2.097   8.678   2.303  0.6084 -2.1379  2.2460
  970MOL0     H30938   2.190   8.486   2.287  2.0378 -0.8406  0.1300
  970MOL0     H30939   2.217   8.333   2.352 -0.9352 -1.2102  1.2212
  970MOL0     H30940   2.168   8.572   2.524  0.5816  1.1798 -2.1481
  970MOL0     H30941   2.322   8.510   2.462  1.0106 -1.4860  0.5320
  970MOL0     H30942   2.272   8.283   2.579 -1.7859 -1.3991 -2.2231
  970MOL0     H30943   2.118   8.355   2.640  1.5898 -1.1540  0.8192
  970MOL0     H30944   2.296   8.363   2.801  1.5884  0.8870  1.1933
  970MOL0     H30945   2.385   8.471   2.685 -1.0474  3.6254 -0.7022
  970MOL0     H30946   2.088   8.687   2.910  0.3627  4.3584 -3.5733
  970MOL0     H30947   1.803   8.413   2.423  1.1887 -0.9712 -0.6916
  970MOL0     H30948   1.560   8.676   2.512  1.6116 -0.3142  1.7950
  970MOL0     H30949   1.538   8.602   2.350  1.2842 -1.8354 -0.8815
  970MOL0     H30950   1.580   8.505   2.484 -0.0645  0.6847  0.3991
  971MOL0     O30951   1.167   7.379   0.043  0.0115  0.0613 -0.2857
  971MOL0     C30952   1.221   7.389   0.148 -0.4946  0.4104 -0.3847
  971MOL0     O30953   1.328   7.316   0.184 -0.3945  0.6249  0.2780
  971MOL0     C30954   1.367   7.213   0.096 -0.5415  0.5761 -0.1336
  971MOL0     C30955   1.489   7.211   0.027 -0.1981  0.0043 -0.2443
  971MOL0     C30956   1.517   7.104  -0.048  0.0040  0.6753  0.9657
  971MOL0     C30957   1.425   7.002  -0.071 -0.7959  0.3280  0.0883
  971MOL0     O30958   1.449   6.894  -0.155 -0.4983 -0.7213  0.3015
  971MOL0     C30959   1.444   6.928  -0.295 -0.2599 -0.6545  0.7384
  971MOL0     C30960   1.439   6.798  -0.379 -0.2748  0.5933 -0.0191
  971MOL0     C30961   1.325   6.794  -0.476  0.1464 -0.5359  0.5479
  971MOL0     C30962   1.309   6.650  -0.526  0.1464 -0.2712 -1.1181
  971MOL0     C30963   1.203   6.639  -0.642  0.0891 -0.6533  0.1740
  971MOL0     C30964   1.135   6.496  -0.656 -0.0724  0.1798 -0.1218
  971MOL0     C30965   1.083   6.479  -0.802  0.0594  0.0373 -1.0478
  971MOL0     C30966   0.952   6.566  -0.818  0.8988 -0.7431  0.0319
  971MOL0     N30967   0.882   6.549  -0.949 -0.0456 -0.0188 -0.3320
  971MOL0     C30968   0.924   6.480  -1.056  0.9588  0.7040  0.4108
  971MOL0     C30969   0.821   6.484  -1.152  0.1676  0.3807 -0.5463
  971MOL0     C30970   0.808   6.432  -1.289  0.8106 -0.3818  0.9887
  971MOL0     C30971   0.727   6.507  -1.396  0.7690  0.1814  0.2519
  971MOL0     C30972   0.770   6.649  -1.429 -0.4552  0.0495 -0.5980
  971MOL0     C30973   0.649   6.747  -1.412  0.5082 -0.3622  0.0131
  971MOL0     O30974   0.593   6.797  -1.543 -0.0051  0.2319 -0.9869
  971MOL0     C30975   0.522   6.906  -1.509 -0.2498  0.3076 -0.1032
  971MOL0     C30976   0.587   7.028  -1.514  0.5866 -0.2656  0.2908
  971MOL0     C30977   0.528   7.146  -1.473 -0.2306 -0.0228  0.1266
  971MOL0     C30978   0.399   7.152  -1.449  0.2413 -0.5148 -0.0911
  971MOL0     C30979   0.341   7.280  -1.419 -0.2904 -0.0666 -1.2649
  971MOL0     O30980   0.208   7.278  -1.393  0.0487 -0.2023 -0.8062
  971MOL0     C30981   0.127   7.394  -1.379 -0.3482  0.3553  0.3772
  971MOL0     C30982  -0.007   7.373  -1.404  0.6408 -0.7316  0.0693
  971MOL0     C30983  -0.106   7.480  -1.397 -1.0573  0.2110  1.1788
  971MOL0     C30984  -0.062   7.616  -1.376  1.2322  0.3886  0.2229
  971MOL0     O30985  -0.135   7.726  -1.363 -0.1303 -0.2473 -0.3673
  971MOL0     C30986  -0.277   7.738  -1.342  0.1576 -0.8368  0.4341
  971MOL0     C30987  -0.324   7.883  -1.319  0.2951  0.0719  0.4089
  971MOL0     C30988  -0.481   7.893  -1.327 -0.6758 -0.5226  0.6783
  971MOL0     C30989  -0.530   8.035  -1.327  0.4759 -0.3150 -0.3054
  971MOL0     C30990  -0.476   8.113  -1.208  0.4369 -0.5084 -0.1019
  971MOL0     C30991  -0.491   8.053  -1.069 -0.2538  0.0338  0.0678
  971MOL0     C30992  -0.473   8.158  -0.963  0.8534  0.1959 -0.4570
  971MOL0     C30993  -0.325   8.183  -0.949  0.5127  0.5940 -0.1858
  971MOL0    Cl30994  -0.290   8.227  -0.785 -0.2541 -0.0552 -0.0715
  971MOL0     C30995   0.074   7.634  -1.365  0.0698 -0.8700 -0.8230
  971MOL0     C30996   0.168   7.529  -1.356  0.4565  0.3473  0.2395
  971MOL0     O30997   0.411   7.384  -1.421  0.1726 -0.5458 -0.7943
  971MOL0     C30998   0.327   7.035  -1.462  0.3561 -0.2780  0.2876
  971MOL0     C30999   0.386   6.906  -1.490  0.6963 -0.0073 -0.4104
  971MOL0     N31000   0.725   6.567  -1.092 -0.0926 -0.5555 -0.4224
  971MOL0     N31001   0.764   6.616  -0.978 -0.0440  0.2268 -0.2315
  971MOL0     C31002   1.302   7.017  -0.008 -0.4263  0.5711  0.4240
  971MOL0     C31003   1.275   7.110   0.080  0.3767  0.0960  0.3247
  971MOL0     C31004   1.172   7.494   0.242 -1.1290 -0.5747  0.4937
  971MOL0     C31005   1.268   7.562   0.314  0.2018  0.5518 -0.1744
  971MOL0     C31006   1.246   7.674   0.393 -0.5284 -0.2047 -0.2767
  971MOL0     C31007   1.107   7.726   0.398 -0.8160 -0.1085  0.7460
  971MOL0     O31008   1.079   7.839   0.478  0.1770  0.4745 -0.1607
  971MOL0     C31009   1.004   7.829   0.599 -0.4277 -0.6556 -0.7385
  971MOL0     C31010   1.084   7.898   0.715 -0.0860  0.3728  0.3801
  971MOL0     C31011   1.214   7.824   0.745 -0.7279 -0.0592 -0.4117
  971MOL0     C31012   1.305   7.874   0.856 -0.4672  0.6913  0.1111
  971MOL0     C31013   1.362   8.008   0.829 -0.0574 -0.2934 -0.1665
  971MOL0     C31014   1.428   8.109   0.813  0.4673  0.2668  0.0687
  971MOL0     C31015   1.009   7.654   0.324  0.4814 -0.4401  0.0283
  971MOL0     C31016   1.042   7.540   0.244 -0.1703 -0.4927 -0.5104
  971MOL0     C31017   0.921   7.493   0.163  0.0858 -0.1624 -0.8397
  971MOL0     H31018   1.554   7.297   0.040 -1.4915  0.7543  1.8366
  971MOL0     H31019   1.612   7.095  -0.100 -1.0510 -2.3373 -0.6470
  971MOL0     H31020   1.354   6.988  -0.313  1.0699  1.3504  0.4683
  971MOL0     H31021   1.534   6.981  -0.327 -1.9517  1.4579 -0.8925
  971MOL0     H31022   1.455   6.713  -0.313 -0.8264 -1.2306 -2.1190
  971MOL0     H31023   1.538   6.806  -0.425  0.4708  0.0673  1.4381
  971MOL0     H31024   1.346   6.854  -0.565  0.4978  0.0711  1.0389
  971MOL0     H31025   1.234   6.827  -0.426  0.5728  0.8469  0.4310
  971MOL0     H31026   1.406   6.612  -0.559 -0.9018 -3.9967 -0.4041
  971MOL0     H31027   1.270   6.583  -0.449 -2.5787  0.2979 -1.8772
  971MOL0     H31028   1.119   6.702  -0.610 -1.4654 -2.2119 -0.6981
  971MOL0     H31029   1.244   6.676  -0.736  2.3227  2.5411  2.1777
  971MOL0     H31030   1.214   6.427  -0.625 -1.5068 -0.1890  3.1756
  971MOL0     H31031   1.052   6.481  -0.587 -0.2308 -0.8672 -0.5291
  971MOL0     H31032   1.061   6.374  -0.819  0.5024 -0.0208 -1.2650
  971MOL0     H31033   1.158   6.499  -0.879  2.8167 -2.3158  0.8591
  971MOL0     H31034   0.879   6.544  -0.740 -0.0394 -2.9932 -1.3909
  971MOL0     H31035   0.995   6.667  -0.815 -2.7123  1.0769 -2.1874
  971MOL0     H31036   1.015   6.425  -1.075  0.4462  0.1497 -0.5380
  971MOL0     H31037   0.910   6.417  -1.327  0.5695 -3.1483  1.2516
  971MOL0     H31038   0.760   6.334  -1.280 -3.9885  1.5502 -0.2575
  971MOL0     H31039   0.745   6.440  -1.481  4.4806  0.7732  0.4153
  971MOL0     H31040   0.619   6.503  -1.378  0.3859  0.3558 -1.7602
  971MOL0     H31041   0.816   6.655  -1.528 -1.5692 -0.6432 -1.1740
  971MOL0     H31042   0.843   6.674  -1.351 -2.2117 -1.1537  1.5528
  971MOL0     H31043   0.689   6.827  -1.349  3.4783 -2.9632  1.6781
  971MOL0     H31044   0.567   6.702  -1.355 -0.5947  2.2390  0.6389
  971MOL0     H31045   0.689   7.021  -1.551 -0.0632  1.0768 -1.9447
  971MOL0     H31046   0.598   7.228  -1.463  1.8265 -1.3416 -2.0463
  971MOL0     H31047  -0.047   7.273  -1.420  2.2299 -1.5550  1.0119
  971MOL0     H31048  -0.213   7.463  -1.407 -0.9418 -0.1293  0.4723
  971MOL0     H31049  -0.327   7.706  -1.434 -1.4481  1.3463  0.4786
  971MOL0     H31050  -0.300   7.672  -1.258  0.5407  0.2684  1.4355
  971MOL0     H31051  -0.284   7.921  -1.224  0.0661  1.7670 -0.1454
  971MOL0     H31052  -0.294   7.947  -1.402 -1.1254  0.7784  0.4170
  971MOL0     H31053  -0.503   7.841  -1.420  1.8353 -0.2903 -0.1153
  971MOL0     H31054  -0.532   7.833  -1.251  0.4497 -0.8693  1.1914
  971MOL0     H31055  -0.638   8.026  -1.320  0.3670  1.0541  0.0161
  971MOL0     H31056  -0.500   8.081  -1.421  2.2538  1.9134  1.2239
  971MOL0     H31057  -0.522   8.212  -1.215  0.4876 -0.5855 -2.5008
  971MOL0     H31058  -0.371   8.136  -1.230 -0.1687  1.2423 -1.4501
  971MOL0     H31059  -0.580   7.994  -1.045  0.4735 -0.5334  1.4921
  971MOL0     H31060  -0.412   7.978  -1.059  1.4891  1.7210 -0.5837
  971MOL0     H31061  -0.508   8.122  -0.865  1.5423  1.3171  0.2152
  971MOL0     H31062  -0.510   8.257  -0.992 -1.8156 -1.5455 -3.8429
  971MOL0     H31063  -0.267   8.098  -0.986 -2.7254 -0.5504 -3.1396
  971MOL0     H31064  -0.302   8.273  -1.008  1.4068  2.1680  2.3791
  971MOL0     H31065   0.116   7.734  -1.361  1.4351 -1.3549  3.9920
  971MOL0     H31066   0.273   7.558  -1.356  0.4167  0.4915  0.2744
  971MOL0     H31067   0.221   7.046  -1.440 -0.5173 -2.3182 -2.3199
  971MOL0     H31068   0.325   6.817  -1.494 -1.8687  1.6698 -0.8343
  971MOL0     H31069   1.235   6.943  -0.050  0.7152 -0.7036  0.7799
  971MOL0     H31070   1.173   7.110   0.117  1.2196 -1.8142  2.9860
  971MOL0     H31071   1.368   7.521   0.307  0.2534  0.0737  2.3939
  971MOL0     H31072   1.329   7.717   0.448  0.2990  0.0930 -1.6965
  971MOL0     H31073   0.993   7.725   0.633 -0.3814  0.1395  1.9320
  971MOL0     H31074   0.907   7.881   0.595 -0.3012 -0.4072 -0.5602
  971MOL0     H31075   1.018   7.895   0.802  1.1952  0.3696  1.3994
  971MOL0     H31076   1.110   8.003   0.701 -0.1296  0.8957  3.4538
  971MOL0     H31077   1.266   7.832   0.649 -0.2050 -1.9051 -0.3262
  971MOL0     H31078   1.204   7.715   0.749  0.0504 -0.1072  0.5408
  971MOL0     H31079   1.241   7.882   0.944  2.3400 -0.7208  2.4549
  971MOL0     H31080   1.385   7.800   0.866 -1.3930 -0.3137  0.3254
  971MOL0     H31081   1.484   8.200   0.800  0.8669 -0.1405 -1.2740
  971MOL0     H31082   0.908   7.695   0.328  1.0639  0.9537  1.5122
  971MOL0     H31083   0.895   7.387   0.173  0.4258 -0.6413 -4.0113
  971MOL0     H31084   0.830   7.548   0.192 -0.0190  0.3626 -2.0881
  971MOL0     H31085   0.934   7.515   0.057 -1.5739 -0.3683 -1.1127
  972MOL0     O31086   3.721   9.028   6.292 -0.0075  0.2627  0.6718
  972MOL0     C31087   3.635   8.953   6.242 -0.4388 -0.4269 -0.3915
  972MOL0     O31088   3.649   8.884   6.133 -1.1105 -1.3356 -0.1562
  972MOL0     C31089   3.776   8.900   6.070  0.3950  0.7170  0.1805
  972MOL0     C31090   3.867   8.792   6.076  0.1671 -0.4360 -0.3750
  972MOL0     C31091   3.987   8.815   6.005  1.0227  0.2396 -0.3206
  972MOL0     C31092   4.013   8.923   5.927 -1.0178 -0.0712 -0.2753
  972MOL0     O31093   4.131   8.912   5.857 -0.7207 -0.0162  0.2114
  972MOL0     C31094   4.128   8.968   5.724 -0.0391  0.8061  0.6467
  972MOL0     C31095   4.231   8.905   5.629  0.0330 -0.2573 -0.4459
  972MOL0     C31096   4.234   8.969   5.485  0.2898  0.5411  0.6887
  972MOL0     C31097   4.379   8.994   5.454  0.0069 -0.0705  0.0112
  972MOL0     C31098   4.398   9.085   5.333  0.4788 -0.3056  0.4145
  972MOL0     C31099   4.533   9.069   5.251  0.5829  0.4933  0.5441
  972MOL0     C31100   4.525   8.950   5.151 -0.0546 -0.7014  0.9756
  972MOL0     C31101   4.618   8.955   5.028 -0.3698 -0.1736 -0.0244
  972MOL0     N31102   4.569   9.025   4.912 -0.4228  0.3135  0.0326
  972MOL0     C31103   4.459   9.004   4.845  1.6275  0.7188 -0.5818
  972MOL0     C31104   4.450   9.099   4.748  0.7785  0.3044  0.3750
  972MOL0     C31105   4.334   9.131   4.652  0.1801  0.0712 -0.1067
  972MOL0     C31106   4.204   9.158   4.728 -0.4164  0.1132 -0.5924
  972MOL0     C31107   4.217   9.282   4.829 -0.3453  0.7778 -0.2679
  972MOL0     C31108   4.090   9.291   4.907  0.3073  0.4132 -1.2892
  972MOL0     O31109   4.093   9.175   4.999 -0.3301  0.2549  0.2595
  972MOL0     C31110   4.018   9.181   5.110  0.2290 -0.5350  0.5710
  972MOL0     C31111   3.924   9.272   5.147  0.1522  0.7141  0.0415
  972MOL0     C31112   3.834   9.256   5.259 -0.3657  0.5956 -0.6135
  972MOL0     C31113   3.867   9.154   5.354  0.1668 -0.7390 -0.1155
  972MOL0     C31114   3.783   9.137   5.483 -0.2011 -0.5864 -0.8762
  972MOL0     O31115   3.689   9.238   5.507 -0.2161  0.3727  0.5167
  972MOL0     C31116   3.600   9.258   5.604 -1.1768 -0.0968 -0.2964
  972MOL0     C31117   3.530   9.385   5.600  0.7795 -0.5413 -0.6026
  972MOL0     C31118   3.449   9.413   5.706  0.7516 -0.2627 -0.2116
  972MOL0     C31119   3.427   9.330   5.819 -0.1090 -0.2353 -0.0482
  972MOL0     O31120   3.344   9.381   5.921 -0.3807  0.1118  1.0920
  972MOL0     C31121   3.347   9.327   6.059  0.0442 -0.7112 -0.6893
  972MOL0     C31122   3.258   9.393   6.152  0.4048 -0.5914  0.4529
  972MOL0     C31123   3.113   9.343   6.148  0.5955 -0.4453 -0.0110
  972MOL0     C31124   3.024   9.389   6.264 -0.3432  0.1153 -1.9555
  972MOL0     C31125   2.877   9.365   6.219 -0.2341  0.2720  0.4529
  972MOL0     C31126   2.768   9.385   6.323  0.0637  0.1430 -0.1339
  972MOL0     C31127   2.634   9.355   6.252  1.1329 -0.5435 -0.9391
  972MOL0     C31128   2.616   9.213   6.199  0.0930 -0.5719  0.7292
  972MOL0    Cl31129   2.439   9.195   6.165  0.2335  0.7159 -0.0051
  972MOL0     C31130   3.508   9.220   5.829 -0.3886 -0.4346  0.0167
  972MOL0     C31131   3.589   9.179   5.722 -0.2170  0.7633 -0.5511
  972MOL0     O31132   3.795   9.035   5.556 -0.0197  0.4858  0.6073
  972MOL0     C31133   3.972   9.066   5.330  1.0100  0.2676  0.2215
  972MOL0     C31134   4.038   9.077   5.203  0.8295  0.2592  0.3450
  972MOL0     N31135   4.578   9.147   4.732  0.4081  0.7448  0.0885
  972MOL0     N31136   4.641   9.114   4.836  0.6048  0.2696  0.2579
  972MOL0     C31137   3.930   9.037   5.941  0.0359  1.1556  0.4705
  972MOL0     C31138   3.807   9.016   6.002 -0.2564 -0.6529  0.5232
  972MOL0     C31139   3.497   8.950   6.304 -0.2072 -0.2123 -0.2764
  972MOL0     C31140   3.386   8.942   6.217  1.0976  0.6974 -0.1927
  972MOL0     C31141   3.259   8.944   6.268 -0.4954  0.9999 -1.3028
  972MOL0     C31142   3.227   8.942   6.410 -0.1842  0.3504 -0.2623
  972MOL0     O31143   3.100   8.923   6.460 -0.6147  0.3980  0.3093
  972MOL0     C31144   2.999   8.987   6.384  0.3368  0.0410 -0.8394
  972MOL0     C31145   2.864   8.928   6.442 -0.1465 -0.2842  0.8232
  972MOL0     C31146   2.847   8.782   6.422 -0.3461  0.3727  0.3237
  972MOL0     C31147   2.705   8.727   6.377  1.3758  0.3954  0.2000
  972MOL0     C31148   2.661   8.803   6.256 -1.1476 -0.0458 -0.0776
  972MOL0     C31149   2.630   8.874   6.159  0.0153 -0.9179  0.1348
  972MOL0     C31150   3.341   8.934   6.492 -0.4518 -0.0861 -0.1839
  972MOL0     C31151   3.466   8.957   6.441  0.2570 -0.4766 -1.3454
  972MOL0     C31152   3.569   8.973   6.547 -0.0141  0.3148  0.4416
  972MOL0     H31153   3.867   8.701   6.135  1.6059 -1.4819 -1.8909
  972MOL0     H31154   4.072   8.751   6.026  0.7638  0.5177  1.8506
  972MOL0     H31155   4.032   8.943   5.677  0.8964  0.8634 -1.3936
  972MOL0     H31156   4.141   9.076   5.717  0.2792  0.6969 -1.0751
  972MOL0     H31157   4.203   8.799   5.621  1.9650 -0.8423  0.1147
  972MOL0     H31158   4.330   8.907   5.674 -0.6742  1.9701  1.2358
  972MOL0     H31159   4.184   9.066   5.485 -2.6992 -0.8465 -0.6687
  972MOL0     H31160   4.196   8.895   5.413  1.6836  1.1900 -0.7703
  972MOL0     H31161   4.433   9.029   5.542 -2.1635  1.8464  0.6757
  972MOL0     H31162   4.429   8.899   5.434  0.3585 -0.2472  1.6183
  972MOL0     H31163   4.320   9.084   5.256  0.1780 -0.5054  0.7176
  972MOL0     H31164   4.395   9.187   5.374  0.7582 -0.7823  1.6576
  972MOL0     H31165   4.549   9.163   5.197 -2.8161 -0.1486 -1.9230
  972MOL0     H31166   4.621   9.066   5.317  0.6265 -1.7285  0.4517
  972MOL0     H31167   4.425   8.932   5.111  1.0648 -1.0648 -1.9300
  972MOL0     H31168   4.555   8.858   5.202  1.8132 -1.8641 -1.9459
  972MOL0     H31169   4.710   8.993   5.074 -0.0995 -3.8793  3.0063
  972MOL0     H31170   4.629   8.849   5.002 -0.3294  0.5599 -3.4684
  972MOL0     H31171   4.384   8.927   4.861  0.6479  1.4838 -1.3291
  972MOL0     H31172   4.353   9.222   4.594 -1.2101  0.7597  0.4653
  972MOL0     H31173   4.318   9.041   4.592  1.9038 -2.4232  2.8495
  972MOL0     H31174   4.122   9.179   4.659 -1.9990 -1.9299  0.5607
  972MOL0     H31175   4.184   9.063   4.779  2.9365 -0.0802  0.6580
  972MOL0     H31176   4.236   9.376   4.777 -2.3559  3.6800  3.7055
  972MOL0     H31177   4.300   9.263   4.898 -2.5454 -0.7432  2.1664
  972MOL0     H31178   4.002   9.284   4.842  0.1178 -3.9229 -0.8853
  972MOL0     H31179   4.093   9.388   4.957 -0.8305  0.8810 -2.0893
  972MOL0     H31180   3.911   9.349   5.071  2.8944 -0.4426 -1.7506
  972MOL0     H31181   3.770   9.342   5.277  1.1858  1.2447  2.4639
  972MOL0     H31182   3.542   9.460   5.523 -1.8766  1.2375  0.5871
  972MOL0     H31183   3.386   9.501   5.701 -2.8765 -2.6041 -0.0634
  972MOL0     H31184   3.312   9.224   6.070  0.0293 -0.3971  4.0228
  972MOL0     H31185   3.440   9.352   6.110 -0.7103  0.1554  0.3045
  972MOL0     H31186   3.287   9.368   6.254  0.1004 -1.3506  0.3603
  972MOL0     H31187   3.259   9.501   6.130 -2.1058 -0.1323  2.1868
  972MOL0     H31188   3.064   9.366   6.053 -1.4057  0.1717  1.1072
  972MOL0     H31189   3.106   9.235   6.161 -3.5535 -0.0300  3.4119
  972MOL0     H31190   3.038   9.493   6.296 -0.1186 -0.2188 -0.9366
  972MOL0     H31191   3.033   9.333   6.357 -0.7623  1.5033 -1.0518
  972MOL0     H31192   2.878   9.263   6.180 -0.0015  0.9493 -1.4288
  972MOL0     H31193   2.859   9.436   6.138  0.3691  0.0518  0.1181
  972MOL0     H31194   2.783   9.307   6.398  0.4767 -2.9276 -3.1662
  972MOL0     H31195   2.766   9.487   6.361  1.0773  0.2282 -0.2656
  972MOL0     H31196   2.636   9.443   6.186  2.4539  1.4187  1.5270
  972MOL0     H31197   2.546   9.373   6.315 -1.6672 -2.0342 -4.0478
  972MOL0     H31198   2.662   9.194   6.102 -1.5499  2.6553 -0.8134
  972MOL0     H31199   2.649   9.148   6.281  1.3446  0.7828  1.3288
  972MOL0     H31200   3.492   9.151   5.911 -2.1012 -1.3245 -1.0103
  972MOL0     H31201   3.646   9.087   5.722 -0.5493  0.5577 -0.7732
  972MOL0     H31202   3.993   8.983   5.397  1.3752  0.6501  0.5828
  972MOL0     H31203   4.123   9.009   5.202  2.4510  2.1733  0.9596
  972MOL0     H31204   3.939   9.118   5.869 -0.9235 -1.1237 -2.4298
  972MOL0     H31205   3.739   9.099   5.992  2.2711  2.0487  3.3745
  972MOL0     H31206   3.402   8.937   6.110  1.9080  2.9684 -0.2456
  972MOL0     H31207   3.173   8.937   6.202 -1.7523 -2.1765  0.4718
  972MOL0     H31208   3.007   8.967   6.277  2.0423  0.9491 -0.9018
  972MOL0     H31209   2.992   9.095   6.402 -1.6554 -0.2860  0.8965
  972MOL0     H31210   2.777   8.982   6.404  0.1161 -0.6722 -0.3859
  972MOL0     H31211   2.877   8.944   6.549  1.4324 -0.5118  0.7003
  972MOL0     H31212   2.884   8.735   6.514  1.2111 -0.2705 -0.5777
  972MOL0     H31213   2.916   8.739   6.348 -0.8829  2.0009 -1.1955
  972MOL0     H31214   2.710   8.619   6.362  1.7054  0.3715  0.4496
  972MOL0     H31215   2.637   8.754   6.458  0.1765  2.8145 -1.4796
  972MOL0     H31216   2.619   8.941   6.075  4.3658  0.2744  0.2724
  972MOL0     H31217   3.317   8.938   6.598 -2.3741  2.2306 -0.6109
  972MOL0     H31218   3.608   8.872   6.558 -2.7061 -1.1448 -1.9239
  972MOL0     H31219   3.653   9.037   6.519  0.0842  0.8566  1.8815
  972MOL0     H31220   3.529   8.978   6.648 -1.0966 -2.2521  0.2077
  973MOL0     O31221   5.777   7.748   7.642  0.0948 -0.0824 -0.4506
  973MOL0     C31222   5.703   7.832   7.692  1.3648 -0.7733  0.2344
  973MOL0     O31223   5.584   7.805   7.734  0.8015 -0.2433  0.6804
  973MOL0     C31224   5.554   7.672   7.727  0.6004  0.9994  0.1057
  973MOL0     C31225   5.490   7.628   7.611  0.3321  0.1436  0.8782
  973MOL0     C31226   5.437   7.498   7.622  0.7918  0.0138  0.7275
  973MOL0     C31227   5.441   7.421   7.739  0.0577 -0.9623 -0.5024
  973MOL0     O31228   5.397   7.290   7.741  0.3432  0.1816  0.0811
  973MOL0     C31229   5.435   7.195   7.650 -0.1532 -0.2079  0.1474
  973MOL0     C31230   5.315   7.157   7.560 -0.1807  0.4929  0.1580
  973MOL0     C31231   5.379   7.129   7.418  0.0446 -0.5096 -1.2640
  973MOL0     C31232   5.280   7.070   7.320  0.5358  0.3514 -0.3459
  973MOL0     C31233   5.340   7.009   7.189 -0.6715 -0.1273  0.7721
  973MOL0     C31234   5.392   6.871   7.220 -0.2466 -0.7829  0.1088
  973MOL0     C31235   5.481   6.799   7.120  0.4586  0.5757 -0.3762
  973MOL0     C31236   5.576   6.870   7.023  0.0580 -0.1131 -0.6553
  973MOL0     N31237   5.694   6.928   7.082  0.3336 -0.2082  1.0213
  973MOL0     C31238   5.811   6.951   7.005  0.7597  1.2094 -0.1755
  973MOL0     C31239   5.893   7.028   7.080  0.8882  1.3256 -0.2423
  973MOL0     C31240   6.021   7.071   7.014 -0.1015 -0.4417 -1.6420
  973MOL0     C31241   6.019   7.220   6.952 -0.5590  0.8121  0.2697
  973MOL0     C31242   6.136   7.218   6.851  0.2891 -0.3033  0.7239
  973MOL0     C31243   6.115   7.125   6.730  0.0732 -0.4934 -0.6162
  973MOL0     O31244   6.007   7.166   6.650 -0.4564 -0.8811 -0.7664
  973MOL0     C31245   5.967   7.089   6.542  0.2586 -0.6009 -0.4914
  973MOL0     C31246   5.847   7.032   6.545  0.3490 -0.4124  0.5381
  973MOL0     C31247   5.805   6.941   6.448 -1.2243 -0.1165  0.6824
  973MOL0     C31248   5.878   6.922   6.326  0.8473 -0.5104  0.5745
  973MOL0     C31249   5.828   6.848   6.203  1.4851  0.0496 -0.5979
  973MOL0     O31250   5.700   6.790   6.225  0.0518 -0.1588  0.0642
  973MOL0     C31251   5.643   6.726   6.121  0.3788  0.3942 -0.1619
  973MOL0     C31252   5.683   6.619   6.031  0.2842 -0.5253 -0.3620
  973MOL0     C31253   5.607   6.573   5.926 -1.4835  0.6661  0.3593
  973MOL0     C31254   5.484   6.639   5.912  0.5372  0.5864  1.8496
  973MOL0     O31255   5.406   6.597   5.806 -0.1512 -0.4354 -0.7977
  973MOL0     C31256   5.266   6.579   5.827 -0.5330  0.2133  0.2675
  973MOL0     C31257   5.208   6.502   5.715  0.3677 -0.0233  0.0675
  973MOL0     C31258   5.058   6.469   5.757 -0.3769 -0.1973  0.9224
  973MOL0     C31259   4.988   6.457   5.622 -0.4523  1.0799 -0.5512
  973MOL0     C31260   4.842   6.419   5.642  0.6972  0.7823  0.3160
  973MOL0     C31261   4.764   6.541   5.700 -0.1392 -0.2850 -0.4744
  973MOL0     C31262   4.616   6.499   5.686  0.5477  0.6629 -0.2980
  973MOL0     C31263   4.524   6.607   5.716  0.3370 -0.2836 -0.0267
  973MOL0    Cl31264   4.347   6.552   5.707  0.3876  0.1320 -0.5662
  973MOL0     C31265   5.440   6.744   5.997  0.0617 -0.3868 -0.3533
  973MOL0     C31266   5.514   6.788   6.107 -0.0021  0.6752 -0.2506
  973MOL0     O31267   5.893   6.831   6.103  0.5375  0.4270  0.0272
  973MOL0     C31268   5.996   6.994   6.320  0.1293 -0.1806 -0.0544
  973MOL0     C31269   6.039   7.076   6.422  0.3452 -0.6924  0.5441
  973MOL0     N31270   5.832   7.027   7.204  0.6045  0.3251  0.0504
  973MOL0     N31271   5.714   6.981   7.207 -0.7435  0.6692  0.2147
  973MOL0     C31272   5.520   7.466   7.848  0.3429 -0.6392 -0.3582
  973MOL0     C31273   5.584   7.593   7.840 -0.4362 -0.0063  0.2697
  973MOL0     C31274   5.733   7.977   7.658 -0.2135 -0.5277  0.1332
  973MOL0     C31275   5.775   8.004   7.521  1.2430 -1.2756 -0.0464
  973MOL0     C31276   5.808   8.133   7.484 -0.4787 -0.2539  0.2556
  973MOL0     C31277   5.800   8.237   7.577 -0.9859 -0.4801  0.3850
  973MOL0     O31278   5.844   8.366   7.537  0.0029 -0.6243  0.3954
  973MOL0     C31279   5.819   8.394   7.390  0.0672 -0.0128 -1.0428
  973MOL0     C31280   5.808   8.544   7.386 -0.0587 -0.4075  0.2003
  973MOL0     C31281   5.927   8.620   7.446  0.0686 -0.1490  0.1308
  973MOL0     C31282   6.055   8.610   7.354  1.1159  0.2725  0.2280
  973MOL0     C31283   6.156   8.715   7.392 -0.2227  0.5558  0.0289
  973MOL0     C31284   6.240   8.795   7.399 -0.8016  0.1007 -1.1107
  973MOL0     C31285   5.752   8.208   7.702  0.6222  0.6313 -1.2255
  973MOL0     C31286   5.724   8.080   7.750 -0.0108 -0.5932 -0.1248
  973MOL0     C31287   5.668   8.066   7.889 -0.5875 -0.3664 -0.5628
  973MOL0     H31288   5.472   7.701   7.532  2.6740  0.5951  0.7092
  973MOL0     H31289   5.380   7.449   7.543  3.0956 -1.6308 -0.0323
  973MOL0     H31290   5.527   7.229   7.601 -0.9569  0.4822 -0.9493
  973MOL0     H31291   5.465   7.104   7.702  2.8607  1.5168  1.6473
  973MOL0     H31292   5.238   7.235   7.554 -1.0517 -0.4542 -3.6516
  973MOL0     H31293   5.274   7.063   7.596  0.4486  0.3579  0.5364
  973MOL0     H31294   5.468   7.069   7.439  3.8279  4.4210 -1.5350
  973MOL0     H31295   5.411   7.219   7.365  1.4999 -0.8058 -0.9462
  973MOL0     H31296   5.230   6.992   7.378  1.4318 -0.0846 -0.1311
  973MOL0     H31297   5.207   7.146   7.291  0.1916 -0.3379 -1.3253
  973MOL0     H31298   5.261   6.991   7.116  0.1892  1.2261 -0.5697
  973MOL0     H31299   5.419   7.076   7.154 -0.0122 -0.1804  2.0718
  973MOL0     H31300   5.456   6.885   7.307  2.1338 -1.6752 -1.3816
  973MOL0     H31301   5.306   6.815   7.256  0.8236 -1.9892  0.8389
  973MOL0     H31302   5.410   6.750   7.053  0.5919  2.0952 -1.6978
  973MOL0     H31303   5.538   6.721   7.171 -1.2856  1.3016  2.9929
  973MOL0     H31304   5.603   6.795   6.948  3.0157  0.4324 -0.2327
  973MOL0     H31305   5.527   6.950   6.967  0.1529 -0.2603 -0.9496
  973MOL0     H31306   5.833   6.931   6.901  3.3505 -2.3602  0.8568
  973MOL0     H31307   6.102   7.074   7.087  0.6559 -1.4088 -2.4257
  973MOL0     H31308   6.043   6.997   6.937  0.3810 -0.0306 -1.9032
  973MOL0     H31309   5.925   7.233   6.899  0.4740 -1.2560 -2.3059
  973MOL0     H31310   6.033   7.304   7.021 -1.1488 -0.1220  1.5884
  973MOL0     H31311   6.227   7.194   6.907 -0.8266 -0.3344  2.6197
  973MOL0     H31312   6.162   7.315   6.808  2.4225 -1.3392 -0.4978
  973MOL0     H31313   6.104   7.020   6.756 -2.9738  0.2024  1.4598
  973MOL0     H31314   6.202   7.134   6.665 -0.7247  2.3891 -1.4714
  973MOL0     H31315   5.784   7.045   6.633 -3.0427  1.3187 -1.8892
  973MOL0     H31316   5.707   6.896   6.458 -0.8643 -0.8974  0.8081
  973MOL0     H31317   5.785   6.582   6.040  1.0070  1.2433 -0.6634
  973MOL0     H31318   5.646   6.490   5.868 -3.0258 -1.0195  1.6120
  973MOL0     H31319   5.256   6.525   5.922  0.7652 -0.5168  0.0117
  973MOL0     H31320   5.219   6.678   5.824  0.0132  0.5068 -4.0417
  973MOL0     H31321   5.223   6.566   5.628  1.8755  0.3339  0.5550
  973MOL0     H31322   5.272   6.415   5.702  2.5242  1.3833  0.5572
  973MOL0     H31323   5.063   6.379   5.818 -1.8009  1.0388  3.0050
  973MOL0     H31324   5.026   6.556   5.816  1.9615  2.9609 -2.0277
  973MOL0     H31325   5.030   6.376   5.562  0.4977  2.0628 -1.2359
  973MOL0     H31326   4.983   6.550   5.565  1.6228  1.4899 -0.1293
  973MOL0     H31327   4.831   6.338   5.714 -0.3888  1.6485  1.1706
  973MOL0     H31328   4.797   6.387   5.548  4.2119 -2.5313 -0.4939
  973MOL0     H31329   4.794   6.556   5.804 -1.9306 -1.6848  0.2964
  973MOL0     H31330   4.771   6.638   5.649 -0.7064  0.3140  0.5342
  973MOL0     H31331   4.597   6.414   5.752  2.2774 -0.2206 -0.8608
  973MOL0     H31332   4.595   6.452   5.590 -1.2041 -0.2068  0.4536
  973MOL0     H31333   4.554   6.659   5.808 -1.3785 -2.6161  1.9665
  973MOL0     H31334   4.541   6.677   5.634  1.3254 -2.8967 -2.1821
  973MOL0     H31335   5.343   6.792   5.993  1.2043  2.1519  0.3987
  973MOL0     H31336   5.470   6.867   6.167  0.6370 -0.7521  2.2274
  973MOL0     H31337   6.059   6.969   6.235  1.0284 -1.2859  0.9076
  973MOL0     H31338   6.134   7.126   6.410 -0.1585 -0.2967 -2.4792
  973MOL0     H31339   5.528   7.395   7.929 -1.1055 -0.4260  0.0022
  973MOL0     H31340   5.636   7.634   7.926 -0.4369 -1.7985  1.1903
  973MOL0     H31341   5.773   7.924   7.448 -0.9283  0.7709 -2.4703
  973MOL0     H31342   5.849   8.143   7.385 -1.5470 -0.9061 -0.2730
  973MOL0     H31343   5.727   8.349   7.352  0.2335 -0.3807 -1.0115
  973MOL0     H31344   5.901   8.363   7.324  0.3489  2.8286 -2.1966
  973MOL0     H31345   5.719   8.578   7.440  1.0013  0.8110  1.2864
  973MOL0     H31346   5.811   8.564   7.279  1.8572 -0.5024  0.1866
  973MOL0     H31347   5.942   8.571   7.543  0.2955 -1.1599 -0.4060
  973MOL0     H31348   5.911   8.725   7.470  0.9558  0.2216 -0.8272
  973MOL0     H31349   6.099   8.510   7.353  2.5574  0.8778 -0.9615
  973MOL0     H31350   6.016   8.632   7.254 -0.1849  2.8866  1.2057
  973MOL0     H31351   6.288   8.890   7.406  1.9225 -1.2482  0.3306
  973MOL0     H31352   5.744   8.289   7.773  3.7226 -2.7511  3.6052
  973MOL0     H31353   5.565   8.099   7.901 -0.2008  0.1595  2.0657
  973MOL0     H31354   5.685   7.965   7.929 -0.6493  0.3826  1.4962
  973MOL0     H31355   5.723   8.140   7.948 -0.6406  0.3843 -1.4291
  974MOL0     O31356   5.327   2.676   5.488 -1.0840 -0.0846  0.1463
  974MOL0     C31357   5.364   2.657   5.602  1.0113  0.1746  1.1523
  974MOL0     O31358   5.445   2.736   5.680 -0.0457 -1.0451  0.2342
  974MOL0     C31359   5.464   2.860   5.635 -0.4540 -0.1754 -0.3327
  974MOL0     C31360   5.403   2.967   5.698  0.4954  0.5048 -0.1871
  974MOL0     C31361   5.418   3.100   5.644  1.0663 -0.5400  0.4566
  974MOL0     C31362   5.481   3.120   5.526 -0.5923 -0.3084 -0.9047
  974MOL0     O31363   5.462   3.251   5.483 -0.5194 -0.5119 -0.5919
  974MOL0     C31364   5.501   3.280   5.347 -0.1618 -0.2100  0.3786
  974MOL0     C31365   5.445   3.410   5.319 -0.5286  0.1340  0.4432
  974MOL0     C31366   5.491   3.468   5.189 -0.2621 -0.3451  1.0276
  974MOL0     C31367   5.396   3.573   5.135 -0.6446 -0.3515 -0.8795
  974MOL0     C31368   5.479   3.649   5.026 -0.4116 -0.1775 -0.1696
  974MOL0     C31369   5.407   3.771   4.961 -0.0577  0.3937 -0.4246
  974MOL0     C31370   5.489   3.838   4.848  0.7755  0.0298  0.4132
  974MOL0     C31371   5.416   3.817   4.719 -0.0531 -0.3984 -0.5180
  974MOL0     N31372   5.416   3.672   4.675 -0.0020 -0.3046  0.0893
  974MOL0     C31373   5.509   3.610   4.592 -0.4971 -0.1354 -0.7208
  974MOL0     C31374   5.450   3.500   4.548  0.3804  0.0295 -0.1841
  974MOL0     C31375   5.500   3.395   4.460  0.6124 -0.5476  0.2952
  974MOL0     C31376   5.575   3.451   4.339  0.1434  0.0517  0.3010
  974MOL0     C31377   5.485   3.515   4.232 -0.4812  0.0025  0.4588
  974MOL0     C31378   5.587   3.586   4.142 -0.0673  0.0125 -0.5410
  974MOL0     O31379   5.682   3.489   4.086 -0.5424  0.0804  0.3642
  974MOL0     C31380   5.766   3.527   3.982  1.3233 -0.1561 -0.0451
  974MOL0     C31381   5.734   3.488   3.858  0.4838  0.0216 -0.0503
  974MOL0     C31382   5.820   3.518   3.750 -0.1694 -0.6347 -0.7935
  974MOL0     C31383   5.942   3.589   3.773 -0.0480 -0.3669 -0.6589
  974MOL0     C31384   6.044   3.613   3.666  0.4299  0.3611 -0.0993
  974MOL0     O31385   6.029   3.531   3.551  0.1314 -0.5504 -0.3620
  974MOL0     C31386   6.091   3.582   3.437 -1.4992 -0.8574  1.1213
  974MOL0     C31387   6.231   3.580   3.430  0.6488 -0.5319  0.3465
  974MOL0     C31388   6.297   3.634   3.320  0.5045 -1.1124 -0.7801
  974MOL0     C31389   6.233   3.677   3.196 -0.6223  0.0731  0.4495
  974MOL0     O31390   6.303   3.707   3.081  0.6382 -0.0733  0.1169
  974MOL0     C31391   6.239   3.705   2.953 -0.4803  0.7142  0.3374
  974MOL0     C31392   6.184   3.565   2.902 -0.9366 -0.5208  0.0132
  974MOL0     C31393   6.292   3.459   2.918  0.0457  0.1161 -0.3430
  974MOL0     C31394   6.264   3.322   2.859  0.0679 -0.3966 -0.1458
  974MOL0     C31395   6.382   3.235   2.877 -0.4822  0.1982 -0.3017
  974MOL0     C31396   6.345   3.098   2.819  0.2102  0.9122 -0.4081
  974MOL0     C31397   6.467   2.996   2.811  0.7911  0.0176  0.3874
  974MOL0     C31398   6.529   2.970   2.944  0.6745  1.1284 -0.8893
  974MOL0    Cl31399   6.426   2.898   3.077 -0.0952 -0.0582 -0.0182
  974MOL0     C31400   6.097   3.674   3.211  0.3653 -0.6666  0.2328
  974MOL0     C31401   6.026   3.642   3.333 -0.8466  0.9537  0.1074
  974MOL0     O31402   6.128   3.702   3.674  0.0176  0.3243  0.3302
  974MOL0     C31403   5.970   3.624   3.902 -0.1583  0.0858 -0.6192
  974MOL0     C31404   5.887   3.582   4.010 -0.8574  0.0253  0.4136
  974MOL0     N31405   5.315   3.503   4.579  0.4524  0.1102  0.2772
  974MOL0     N31406   5.307   3.597   4.671 -0.0344  0.0196  0.5814
  974MOL0     C31407   5.550   3.011   5.465  0.2983  0.5229 -1.1313
  974MOL0     C31408   5.538   2.884   5.518  0.3878 -0.1791  0.1326
  974MOL0     C31409   5.298   2.533   5.662 -0.2556  0.5962  0.0527
  974MOL0     C31410   5.380   2.414   5.690  0.7910  0.0647 -0.0292
  974MOL0     C31411   5.312   2.304   5.740  0.4162 -0.1459  0.4101
  974MOL0     C31412   5.172   2.299   5.757  1.0112 -1.0749  0.3358
  974MOL0     O31413   5.115   2.199   5.823  0.2313  0.8153  0.0674
  974MOL0     C31414   5.079   2.221   5.965  0.4334 -0.8399  0.5175
  974MOL0     C31415   4.930   2.181   5.973 -1.3003  0.5080  0.8562
  974MOL0     C31416   4.893   2.038   5.926  0.9086  0.6692  1.1125
  974MOL0     C31417   4.936   1.940   6.026 -0.6895 -0.1727 -0.2438
  974MOL0     C31418   4.867   1.950   6.159 -0.6114 -0.2809  0.1436
  974MOL0     C31419   4.806   1.967   6.262 -0.0828  0.7868 -0.2369
  974MOL0     C31420   5.094   2.406   5.715 -0.3254 -0.3223  0.4146
  974MOL0     C31421   5.155   2.520   5.666 -0.2225  0.1325 -0.4452
  974MOL0     C31422   5.067   2.635   5.614  0.8218  0.6924  0.1189
  974MOL0     H31423   5.339   2.962   5.786 -0.0459  0.4280 -0.5771
  974MOL0     H31424   5.383   3.187   5.699 -0.9248 -1.2407  0.4069
  974MOL0     H31425   5.608   3.276   5.327 -0.3917 -0.6015 -0.8639
  974MOL0     H31426   5.447   3.204   5.289 -0.3310 -0.9119  1.4130
  974MOL0     H31427   5.466   3.481   5.399  0.1844  2.3990 -1.6328
  974MOL0     H31428   5.337   3.394   5.321 -1.0868  3.3009  2.8468
  974MOL0     H31429   5.506   3.393   5.111  1.0467  0.1288  0.7819
  974MOL0     H31430   5.587   3.519   5.203  1.6170 -2.6748 -2.0509
  974MOL0     H31431   5.313   3.514   5.093  1.6766 -4.1401 -0.6664
  974MOL0     H31432   5.361   3.642   5.212  1.9863  0.2393 -0.1067
  974MOL0     H31433   5.574   3.683   5.068 -0.2918  0.1398 -0.6825
  974MOL0     H31434   5.503   3.581   4.943  1.0081 -2.2037  1.7662
  974MOL0     H31435   5.307   3.744   4.927  1.1403 -2.8402 -1.7032
  974MOL0     H31436   5.399   3.841   5.045 -2.9020 -0.7072  0.3229
  974MOL0     H31437   5.594   3.805   4.842  0.9492  0.6840 -0.3450
  974MOL0     H31438   5.495   3.944   4.875  0.6155 -0.2333  1.5188
  974MOL0     H31439   5.312   3.850   4.721 -1.2210 -3.7147  0.3849
  974MOL0     H31440   5.473   3.879   4.650 -1.3498 -0.2858 -1.5259
  974MOL0     H31441   5.612   3.642   4.578 -0.4825  0.2266  0.1772
  974MOL0     H31442   5.575   3.339   4.516  0.8601  2.9273  3.9099
  974MOL0     H31443   5.424   3.320   4.435  0.1769 -0.7752  2.1174
  974MOL0     H31444   5.648   3.526   4.369 -0.9269  1.9818 -1.5916
  974MOL0     H31445   5.622   3.359   4.302 -4.1998 -1.8388 -1.1888
  974MOL0     H31446   5.427   3.595   4.278 -0.7809 -0.0749  0.2185
  974MOL0     H31447   5.431   3.443   4.171 -0.3836  1.3421 -1.2970
  974MOL0     H31448   5.643   3.660   4.200 -1.9223 -1.1781  3.0973
  974MOL0     H31449   5.526   3.628   4.062 -0.1754 -0.6550 -0.8210
  974MOL0     H31450   5.644   3.437   3.824  2.0140 -0.3184 -4.2261
  974MOL0     H31451   5.800   3.468   3.656 -3.2546 -0.1400 -0.5087
  974MOL0     H31452   6.276   3.528   3.514  1.9637 -0.2773 -0.1840
  974MOL0     H31453   6.406   3.635   3.311  0.6627  0.9189  0.5981
  974MOL0     H31454   6.157   3.778   2.951 -2.5286 -1.4414  1.1760
  974MOL0     H31455   6.318   3.734   2.883  0.5774 -2.3833  0.0874
  974MOL0     H31456   6.101   3.534   2.966 -0.1677  1.4619  2.1136
  974MOL0     H31457   6.154   3.578   2.798 -2.7350  2.3085  0.7632
  974MOL0     H31458   6.393   3.499   2.907  0.4051 -0.9068 -0.8550
  974MOL0     H31459   6.276   3.445   3.026 -1.2250  1.4369 -0.3239
  974MOL0     H31460   6.260   3.340   2.751 -0.5029  1.2496  0.1226
  974MOL0     H31461   6.171   3.281   2.899  1.4516 -1.8091  1.8166
  974MOL0     H31462   6.413   3.223   2.981 -1.4790 -0.0402 -0.0146
  974MOL0     H31463   6.464   3.273   2.815  1.2087  0.3948  1.9556
  974MOL0     H31464   6.259   3.057   2.872  2.9374 -2.5358  1.9038
  974MOL0     H31465   6.296   3.118   2.724 -0.3644  2.7727  0.2398
  974MOL0     H31466   6.552   3.018   2.747  1.4723 -0.4104  1.1283
  974MOL0     H31467   6.420   2.899   2.788  1.5532 -0.6861  1.6667
  974MOL0     H31468   6.620   2.910   2.933 -0.4278 -0.8726  0.1692
  974MOL0     H31469   6.556   3.070   2.979  0.2229  0.9522  0.0142
  974MOL0     H31470   6.033   3.706   3.130  0.4691 -1.9170 -0.3640
  974MOL0     H31471   5.918   3.638   3.339 -0.9870  1.5739 -1.5970
  974MOL0     H31472   6.070   3.653   3.932  0.6775 -2.5927 -0.5582
  974MOL0     H31473   5.902   3.616   4.112  1.8961  0.9697 -0.2227
  974MOL0     H31474   5.601   3.038   5.373  0.4494 -1.5537 -1.6885
  974MOL0     H31475   5.583   2.802   5.462 -1.3580 -0.5505 -0.7956
  974MOL0     H31476   5.488   2.420   5.701  0.5490  0.6157  3.1769
  974MOL0     H31477   5.380   2.233   5.785  0.1701  0.3369  1.5613
  974MOL0     H31478   5.081   2.327   5.993 -1.4325 -1.0863  1.7584
  974MOL0     H31479   5.154   2.161   6.018 -0.1438 -1.2147  0.9152
  974MOL0     H31480   4.873   2.241   5.901  0.3672  2.0717  0.7483
  974MOL0     H31481   4.873   2.197   6.065 -3.9680  0.4663 -0.6819
  974MOL0     H31482   4.942   2.019   5.830  0.8579  0.6251  1.0953
  974MOL0     H31483   4.787   2.025   5.905  1.2022  0.5813 -0.4581
  974MOL0     H31484   4.933   1.836   5.991 -2.3297  0.1365 -1.1195
  974MOL0     H31485   5.037   1.976   6.047 -1.2987  1.3337  0.2652
  974MOL0     H31486   4.758   1.976   6.357 -1.2046  2.0008 -0.8684
  974MOL0     H31487   4.987   2.391   5.718 -0.1111 -3.7254 -2.2299
  974MOL0     H31488   4.967   2.609   5.650  2.0027 -2.3603  1.5636
  974MOL0     H31489   5.104   2.736   5.632  2.7207  0.7844 -3.2719
  974MOL0     H31490   5.064   2.648   5.505 -1.7294  2.2466  0.3009
  975MOL0     O31491   4.611   0.381   2.706 -0.5074  0.1598  0.1717
  975MOL0     C31492   4.519   0.460   2.725  0.5471  0.5910 -0.5694
  975MOL0     O31493   4.390   0.416   2.777 -0.0162  0.6138  0.3262
  975MOL0     C31494   4.385   0.282   2.809  0.2881 -0.7361  0.2276
  975MOL0     C31495   4.366   0.245   2.941 -1.0787  0.6087  0.1843
  975MOL0     C31496   4.351   0.117   2.982 -0.1929 -0.0661 -1.0597
  975MOL0     C31497   4.336   0.013   2.889  0.8033 -1.6691 -0.2119
  975MOL0     O31498   4.318  -0.118   2.926 -0.0352  0.4746 -0.2151
  975MOL0     C31499   4.306  -0.221   2.832  0.2828  0.4917  0.0970
  975MOL0     C31500   4.273  -0.350   2.914  1.0594  0.5385 -0.5359
  975MOL0     C31501   4.389  -0.379   2.998  0.6964  0.4515  0.6329
  975MOL0     C31502   4.376  -0.522   3.061  0.8476  1.7267 -0.0365
  975MOL0     C31503   4.236  -0.554   3.130 -0.0513 -0.7023 -0.3430
  975MOL0     C31504   4.185  -0.460   3.251 -0.8053 -0.2027 -0.4280
  975MOL0     C31505   4.063  -0.494   3.332 -0.5069  0.2754 -0.1195
  975MOL0     C31506   4.088  -0.576   3.455  0.1461 -0.3620  1.1078
  975MOL0     N31507   3.960  -0.588   3.534  0.7690 -0.7751  0.4363
  975MOL0     C31508   3.915  -0.705   3.585  0.1059  0.0215  0.5466
  975MOL0     C31509   3.809  -0.683   3.653  0.2564 -0.5237 -0.0256
  975MOL0     C31510   3.730  -0.780   3.727  0.0324  0.7312 -0.0814
  975MOL0     C31511   3.607  -0.732   3.798  0.0489 -1.0506 -0.5232
  975MOL0     C31512   3.506  -0.844   3.837 -0.2685 -0.3507 -1.1178
  975MOL0     C31513   3.561  -0.934   3.944  0.7445  0.3528 -0.6125
  975MOL0     O31514   3.621  -0.865   4.056 -0.2997  0.0330 -0.0816
  975MOL0     C31515   3.705  -0.918   4.158  1.1772  0.3145  0.5147
  975MOL0     C31516   3.747  -1.054   4.156 -0.6935  0.1036 -0.3420
  975MOL0     C31517   3.821  -1.102   4.257  0.5812 -0.7324 -0.1905
  975MOL0     C31518   3.871  -1.018   4.360  0.2768 -0.2524  1.3577
  975MOL0     C31519   3.982  -1.078   4.438 -0.0833 -1.2440 -0.2235
  975MOL0     O31520   4.056  -0.982   4.505  0.7192 -0.5613  0.9113
  975MOL0     C31521   4.160  -1.027   4.590 -0.6335 -0.4154 -0.0819
  975MOL0     C31522   4.123  -1.048   4.717 -0.4003 -0.1179 -0.2217
  975MOL0     C31523   4.212  -1.085   4.814  0.4141  0.3475 -0.7502
  975MOL0     C31524   4.341  -1.110   4.776 -0.8187 -0.1288  0.0794
  975MOL0     O31525   4.424  -1.142   4.883 -0.6807 -0.1840  0.2329
  975MOL0     C31526   4.510  -1.040   4.936  0.1644  0.0387  1.5254
  975MOL0     C31527   4.507  -1.034   5.085 -0.0317 -0.8177 -0.1079
  975MOL0     C31528   4.592  -0.914   5.139  0.5494 -0.8476 -0.0650
  975MOL0     C31529   4.539  -0.869   5.275  0.3417  0.3310 -0.4593
  975MOL0     C31530   4.566  -0.977   5.383 -0.1017  0.5676 -0.1070
  975MOL0     C31531   4.512  -0.948   5.521 -0.6462 -0.3934  0.7823
  975MOL0     C31532   4.570  -1.007   5.637  0.4037  0.7906  0.9131
  975MOL0     C31533   4.594  -0.909   5.753  0.5167 -0.3487 -0.7458
  975MOL0    Cl31534   4.697  -0.999   5.868 -0.1533  0.2733  0.3622
  975MOL0     C31535   4.387  -1.089   4.645  0.1786 -0.5682  0.7774
  975MOL0     C31536   4.292  -1.048   4.553  0.3720  0.1406  0.7034
  975MOL0     O31537   3.994  -1.198   4.433  0.8788  0.4514  0.3174
  975MOL0     C31538   3.844  -0.877   4.355  0.8704  0.5411 -0.0739
  975MOL0     C31539   3.759  -0.828   4.251  0.1865  1.0032 -0.1383
  975MOL0     N31540   3.782  -0.553   3.633  0.5645  0.0165  0.1460
  975MOL0     N31541   3.865  -0.493   3.548 -0.0396  0.5245  0.9603
  975MOL0     C31542   4.351   0.051   2.755  0.1340  0.9985  0.4204
  975MOL0     C31543   4.375   0.186   2.718  0.3220  0.0920 -0.1410
  975MOL0     C31544   4.524   0.599   2.673  1.0966  0.5639 -0.0314
  975MOL0     C31545   4.416   0.628   2.581  0.4120 -0.9302  0.8281
  975MOL0     C31546   4.385   0.761   2.552  0.9166  0.2197  0.0109
  975MOL0     C31547   4.452   0.866   2.622  0.0221 -0.0805  1.2208
  975MOL0     O31548   4.407   0.987   2.591  0.3621  0.0020 -0.0783
  975MOL0     C31549   4.462   1.113   2.636  0.0526 -0.0483 -0.3930
  975MOL0     C31550   4.415   1.224   2.544 -0.1919  0.4134 -0.3860
  975MOL0     C31551   4.266   1.251   2.584 -0.4975  0.0235  0.3961
  975MOL0     C31552   4.197   1.325   2.468 -0.0743  0.4324 -0.2807
  975MOL0     C31553   4.055   1.326   2.470  0.1503  0.3123 -0.6631
  975MOL0     C31554   3.935   1.317   2.480  0.3804  0.5783  0.0256
  975MOL0     C31555   4.552   0.834   2.717  0.2152 -0.2407  0.4883
  975MOL0     C31556   4.593   0.705   2.737  0.1301  0.6398  0.7637
  975MOL0     C31557   4.706   0.682   2.845 -0.7206  0.2314 -0.4497
  975MOL0     H31558   4.367   0.327   3.012 -3.6358 -1.2913  2.6432
  975MOL0     H31559   4.331   0.087   3.085  1.1116 -2.2253 -1.3872
  975MOL0     H31560   4.217  -0.218   2.769 -0.7045  0.6900  1.4546
  975MOL0     H31561   4.393  -0.232   2.767 -0.2292  1.9678 -0.8775
  975MOL0     H31562   4.246  -0.436   2.853 -1.1451 -0.4098  1.5732
  975MOL0     H31563   4.179  -0.342   2.970  1.8465 -4.9831  2.2045
  975MOL0     H31564   4.401  -0.306   3.078  3.3092 -1.3229  1.9788
  975MOL0     H31565   4.485  -0.390   2.947  2.5166  1.6879  3.5638
  975MOL0     H31566   4.388  -0.597   2.982 -1.2000  2.1623 -0.8101
  975MOL0     H31567   4.454  -0.544   3.135 -2.7176 -1.1200  3.2517
  975MOL0     H31568   4.165  -0.559   3.047 -1.1955 -0.9292  0.6146
  975MOL0     H31569   4.232  -0.662   3.148 -1.5409 -1.3561 -3.7087
  975MOL0     H31570   4.269  -0.441   3.320 -1.4663  0.6768  0.1515
  975MOL0     H31571   4.173  -0.362   3.204 -0.3561  0.2894  0.4363
  975MOL0     H31572   3.985  -0.545   3.274  2.0500  0.3728 -4.0040
  975MOL0     H31573   4.030  -0.400   3.378 -4.1552 -1.0373  0.2614
  975MOL0     H31574   4.121  -0.674   3.420 -0.8351 -0.0697 -0.7657
  975MOL0     H31575   4.171  -0.534   3.512  1.0863  0.2970 -0.6737
  975MOL0     H31576   3.953  -0.806   3.576 -2.1061 -1.0724  2.2368
  975MOL0     H31577   3.698  -0.860   3.660 -0.3823  0.0902  0.8606
  975MOL0     H31578   3.795  -0.816   3.808 -0.0919  2.1519  0.6715
  975MOL0     H31579   3.647  -0.661   3.871  1.3962  0.2416 -2.4005
  975MOL0     H31580   3.545  -0.674   3.729 -0.0565  1.5214  1.5669
  975MOL0     H31581   3.455  -0.897   3.756 -0.4286 -2.3795  0.2175
  975MOL0     H31582   3.431  -0.777   3.881  1.3760  2.1038 -1.8791
  975MOL0     H31583   3.620  -1.020   3.912 -0.0308  0.3710 -2.1530
  975MOL0     H31584   3.474  -0.983   3.989  1.5226 -0.2541  0.2718
  975MOL0     H31585   3.695  -1.128   4.096 -1.3574  0.4407 -0.1941
  975MOL0     H31586   3.846  -1.207   4.257 -0.3108 -0.9547 -0.1962
  975MOL0     H31587   4.024  -1.031   4.758  0.1559  0.0499  1.0860
  975MOL0     H31588   4.178  -1.118   4.912 -0.0687 -1.3497 -1.4484
  975MOL0     H31589   4.611  -1.052   4.896 -0.7248  0.8070 -1.1411
  975MOL0     H31590   4.470  -0.942   4.906 -0.4962 -1.3391 -2.8097
  975MOL0     H31591   4.403  -1.018   5.116 -0.7656  0.7279 -3.0418
  975MOL0     H31592   4.535  -1.129   5.132  1.9634 -0.5380 -0.6517
  975MOL0     H31593   4.699  -0.929   5.127  0.8833  1.2463 -0.0970
  975MOL0     H31594   4.571  -0.830   5.071  1.0723 -0.3310  0.4020
  975MOL0     H31595   4.430  -0.865   5.264  0.2409 -2.8324 -1.8361
  975MOL0     H31596   4.580  -0.778   5.318 -0.5822  0.3175  0.5053
  975MOL0     H31597   4.670  -1.006   5.400 -0.2503  0.5262  0.8029
  975MOL0     H31598   4.517  -1.071   5.357 -2.0944  0.9543  1.9284
  975MOL0     H31599   4.518  -0.840   5.529 -0.1263 -0.2285 -1.3438
  975MOL0     H31600   4.410  -0.979   5.496 -0.6115  0.9668 -1.3143
  975MOL0     H31601   4.664  -1.056   5.612 -0.5363 -0.9814  0.7408
  975MOL0     H31602   4.503  -1.085   5.674 -0.6237  1.1249 -0.1878
  975MOL0     H31603   4.642  -0.818   5.715  0.3566 -0.3554 -0.9696
  975MOL0     H31604   4.505  -0.886   5.813  0.7317 -3.4272  0.9512
  975MOL0     H31605   4.493  -1.098   4.623  0.5444 -3.5271  3.0482
  975MOL0     H31606   4.313  -1.024   4.449 -1.7512  2.6486  0.7437
  975MOL0     H31607   3.872  -0.799   4.424  0.5254  1.5422 -1.0347
  975MOL0     H31608   3.722  -0.727   4.259 -1.2249  0.3736  2.1509
  975MOL0     H31609   4.351  -0.022   2.674 -0.6176  0.1013  1.2013
  975MOL0     H31610   4.364   0.228   2.618 -1.1611  5.1006  1.8183
  975MOL0     H31611   4.353   0.547   2.544  1.9658 -1.1114 -1.6164
  975MOL0     H31612   4.297   0.778   2.490 -0.5255  0.7720  2.1148
  975MOL0     H31613   4.570   1.121   2.620  0.7640  2.0597  3.9374
  975MOL0     H31614   4.445   1.136   2.742  2.3189 -0.1773  0.0638
  975MOL0     H31615   4.439   1.194   2.442  1.9136 -1.8666  0.6784
  975MOL0     H31616   4.484   1.305   2.573  3.1927 -2.8902  1.6959
  975MOL0     H31617   4.265   1.325   2.664 -3.0075 -0.7384  1.1702
  975MOL0     H31618   4.212   1.162   2.620 -0.3310 -0.7738 -1.2193
  975MOL0     H31619   4.228   1.430   2.477  0.8602  0.1233  0.2855
  975MOL0     H31620   4.228   1.292   2.368  0.6591 -1.1104  0.4227
  975MOL0     H31621   3.828   1.317   2.475  0.4351  1.7196 -2.0825
  975MOL0     H31622   4.584   0.920   2.775  4.3110 -1.6878  0.6935
  975MOL0     H31623   4.715   0.770   2.909 -1.0126  0.3798 -0.6146
  975MOL0     H31624   4.674   0.595   2.902  2.2354  1.4234  3.5058
  975MOL0     H31625   4.805   0.655   2.805 -0.5113 -2.4554  1.5983
  976MOL0     O31626   3.671   7.021   3.542  0.2419  0.3162 -0.0732
  976MOL0     C31627   3.717   7.018   3.657 -0.2682  0.8328 -0.4087
  976MOL0     O31628   3.787   7.113   3.719  0.6996 -0.8635  0.6220
  976MOL0     C31629   3.773   7.242   3.673  0.6985  0.9044 -1.2391
  976MOL0     C31630   3.660   7.318   3.698 -0.4429  0.3469 -0.2629
  976MOL0     C31631   3.654   7.459   3.676 -0.7174 -0.5846  0.9559
  976MOL0     C31632   3.760   7.522   3.614 -1.1757 -0.7122  0.0131
  976MOL0     O31633   3.773   7.658   3.583  0.3370  0.5425 -0.6327
  976MOL0     C31634   3.680   7.757   3.634  0.2974 -0.7859  0.1030
  976MOL0     C31635   3.732   7.796   3.769  0.4679  0.4612 -0.7374
  976MOL0     C31636   3.848   7.893   3.768  0.2303  0.6084 -0.1321
  976MOL0     C31637   3.872   7.961   3.904 -0.7560  0.0345 -0.4390
  976MOL0     C31638   3.915   8.102   3.892  0.5491 -0.7307  0.9841
  976MOL0     C31639   3.958   8.162   4.029 -1.0577  0.0427  0.2491
  976MOL0     C31640   4.048   8.082   4.129  0.2278 -0.7039  0.1978
  976MOL0     C31641   4.183   8.051   4.069  0.4067 -0.4303  0.5390
  976MOL0     N31642   4.282   8.020   4.175  0.5403 -1.0036 -0.7816
  976MOL0     C31643   4.367   7.908   4.160  0.9419  0.5107 -0.2344
  976MOL0     C31644   4.400   7.887   4.292 -0.0305  0.6568 -1.1827
  976MOL0     C31645   4.478   7.770   4.340  0.0248  0.3892  1.2439
  976MOL0     C31646   4.495   7.773   4.494  1.0042 -0.3127 -0.2527
  976MOL0     C31647   4.575   7.663   4.563 -0.1657  0.2985  0.8341
  976MOL0     C31648   4.490   7.555   4.612  0.4799 -0.1791  0.1674
  976MOL0     O31649   4.380   7.505   4.526 -0.0044 -0.1535 -0.2485
  976MOL0     C31650   4.383   7.367   4.527  0.0347  0.1610 -0.0907
  976MOL0     C31651   4.376   7.298   4.402 -0.1731  0.3899 -0.0905
  976MOL0     C31652   4.366   7.161   4.391 -0.4892 -0.0920  0.3726
  976MOL0     C31653   4.365   7.088   4.509  0.0179  0.7197 -0.8838
  976MOL0     C31654   4.348   6.949   4.505  0.2780  1.2943 -0.6160
  976MOL0     O31655   4.415   6.885   4.601 -0.0283  0.3415  0.2594
  976MOL0     C31656   4.415   6.746   4.599 -0.6809 -0.4745 -0.9388
  976MOL0     C31657   4.298   6.662   4.590 -0.7112  0.0476 -0.6243
  976MOL0     C31658   4.313   6.530   4.586 -0.2242  1.3971 -0.1280
  976MOL0     C31659   4.434   6.472   4.623 -0.6272 -1.0663 -0.5738
  976MOL0     O31660   4.452   6.342   4.663 -0.0742  0.2894 -0.8566
  976MOL0     C31661   4.336   6.250   4.637  0.5579 -0.7211 -0.4993
  976MOL0     C31662   4.378   6.109   4.663 -0.2038  0.3276 -0.0761
  976MOL0     C31663   4.272   6.018   4.594  0.4621  1.0478  0.0410
  976MOL0     C31664   4.314   5.876   4.627 -0.4076  0.5321  0.6146
  976MOL0     C31665   4.222   5.768   4.557  0.1836 -0.4053 -0.5426
  976MOL0     C31666   4.103   5.770   4.645  0.5323  0.0386  0.8991
  976MOL0     C31667   4.026   5.640   4.635  0.9830  0.0657  0.3493
  976MOL0     C31668   4.039   5.555   4.764 -0.3124 -0.1493  0.3728
  976MOL0    Cl31669   4.193   5.468   4.771 -0.5565  0.1398 -0.1458
  976MOL0     C31670   4.551   6.550   4.627 -0.1488  0.2246  0.2453
  976MOL0     C31671   4.540   6.690   4.616 -0.2474  0.7890 -0.7312
  976MOL0     O31672   4.289   6.891   4.413 -0.3415 -0.2868 -0.1216
  976MOL0     C31673   4.377   7.156   4.630 -0.8545 -0.6702 -0.3184
  976MOL0     C31674   4.381   7.291   4.646 -0.2641 -0.3535  0.2675
  976MOL0     N31675   4.377   8.004   4.361 -0.0655  0.5137 -0.6544
  976MOL0     N31676   4.291   8.073   4.304  0.6346  0.0459 -0.5429
  976MOL0     C31677   3.875   7.452   3.600 -0.8348  0.1931  1.0624
  976MOL0     C31678   3.881   7.314   3.635  0.4828  0.2690  0.2669
  976MOL0     C31679   3.701   6.896   3.744  1.0620  1.0784  0.5978
  976MOL0     C31680   3.787   6.867   3.852  0.4828 -1.0393  1.1461
  976MOL0     C31681   3.775   6.761   3.934 -0.5077 -0.5486  0.7045
  976MOL0     C31682   3.692   6.656   3.895 -0.0268  0.6674 -0.4515
  976MOL0     O31683   3.691   6.527   3.946 -0.0504  0.3016 -0.7153
  976MOL0     C31684   3.687   6.407   3.860  0.4453  0.6222  0.1998
  976MOL0     C31685   3.800   6.409   3.757  0.5619  0.2312 -0.0128
  976MOL0     C31686   3.821   6.273   3.690 -0.0489  0.5830 -0.3349
  976MOL0     C31687   3.884   6.156   3.777  0.5419  0.6262  0.0977
  976MOL0     C31688   4.027   6.174   3.780  0.3897 -0.0960 -0.3669
  976MOL0     C31689   4.143   6.205   3.770  0.0304  0.1418 -0.1462
  976MOL0     C31690   3.600   6.685   3.795  0.7053 -0.3455 -0.7798
  976MOL0     C31691   3.597   6.805   3.726  0.6184 -0.2012 -0.0758
  976MOL0     C31692   3.489   6.810   3.618  0.4697  0.0978  0.4498
  976MOL0     H31693   3.575   7.280   3.754 -0.4837  0.9774  0.1208
  976MOL0     H31694   3.566   7.512   3.712 -1.8409 -0.3125 -1.8909
  976MOL0     H31695   3.663   7.835   3.560 -2.0500 -0.4836  0.8561
  976MOL0     H31696   3.579   7.718   3.652  0.4990 -0.9103  1.0303
  976MOL0     H31697   3.759   7.710   3.832 -1.0213 -0.2926 -1.0825
  976MOL0     H31698   3.647   7.844   3.819 -0.5006 -0.8809 -1.0449
  976MOL0     H31699   3.829   7.972   3.695  3.0761  1.3441 -0.1826
  976MOL0     H31700   3.942   7.842   3.743 -0.0586 -2.4500  3.9148
  976MOL0     H31701   3.787   7.952   3.972 -0.0920 -2.5457  0.1401
  976MOL0     H31702   3.946   7.908   3.964 -1.1428  2.3605  2.3156
  976MOL0     H31703   3.994   8.113   3.816  0.1050  1.6042  0.7641
  976MOL0     H31704   3.839   8.167   3.848  1.5446 -2.2267 -3.4977
  976MOL0     H31705   4.010   8.257   4.015  1.8989 -1.2383  1.6191
  976MOL0     H31706   3.865   8.170   4.086 -0.2046 -1.0814  1.8911
  976MOL0     H31707   3.983   7.995   4.141  0.4579 -0.6186  2.3216
  976MOL0     H31708   4.058   8.136   4.224  0.2654 -0.1563 -0.1083
  976MOL0     H31709   4.176   7.966   4.000  2.2957 -0.5669  0.4565
  976MOL0     H31710   4.216   8.139   4.012  0.3693 -0.9400 -0.2788
  976MOL0     H31711   4.379   7.846   4.072 -0.5761  0.2988 -0.3245
  976MOL0     H31712   4.439   7.674   4.302 -1.4899  1.4144  0.0826
  976MOL0     H31713   4.568   7.768   4.278 -2.4236  1.1643 -2.7057
  976MOL0     H31714   4.542   7.870   4.512  1.5985  0.0181 -3.0447
  976MOL0     H31715   4.393   7.772   4.533 -0.2531  3.0394 -2.8567
  976MOL0     H31716   4.623   7.720   4.643  0.3485  1.2146 -0.0942
  976MOL0     H31717   4.643   7.631   4.484 -0.4284 -2.0401  1.4933
  976MOL0     H31718   4.453   7.579   4.712  3.8131 -0.4268  1.5836
  976MOL0     H31719   4.576   7.487   4.615  0.8466  0.1521 -1.6506
  976MOL0     H31720   4.376   7.376   4.327  1.1054  0.5230  0.0316
  976MOL0     H31721   4.352   7.126   4.289 -0.0439 -0.8201  0.5576
  976MOL0     H31722   4.201   6.709   4.580 -2.1798 -2.0270  2.4102
  976MOL0     H31723   4.227   6.465   4.577  1.0267 -0.5347  1.1878
  976MOL0     H31724   4.254   6.270   4.706 -0.0141 -1.7284 -0.8608
  976MOL0     H31725   4.312   6.262   4.531  1.9265 -3.5351 -1.2357
  976MOL0     H31726   4.480   6.094   4.627 -0.4310  3.2612 -2.2772
  976MOL0     H31727   4.381   6.085   4.770 -0.8223 -0.4264 -0.2243
  976MOL0     H31728   4.175   6.033   4.642  0.5828  0.4588  0.4773
  976MOL0     H31729   4.279   6.023   4.485  1.7648  0.3872  0.0804
  976MOL0     H31730   4.330   5.871   4.735 -0.3815 -0.7410  0.5706
  976MOL0     H31731   4.414   5.862   4.584 -2.0010  0.8080 -3.7038
  976MOL0     H31732   4.264   5.667   4.562  0.4723 -0.3089 -0.9259
  976MOL0     H31733   4.202   5.782   4.450  1.3745 -2.6552 -1.1173
  976MOL0     H31734   4.117   5.791   4.752  1.7738  0.1402  0.7296
  976MOL0     H31735   4.037   5.848   4.605 -0.3198 -0.4819  1.2458
  976MOL0     H31736   4.053   5.571   4.555 -2.4974 -1.9212  0.6735
  976MOL0     H31737   3.920   5.660   4.617  1.2431  0.1648 -1.2293
  976MOL0     H31738   4.026   5.630   4.842  0.3400  1.0845 -0.6658
  976MOL0     H31739   3.960   5.480   4.759 -0.6322  0.1794  0.4951
  976MOL0     H31740   4.645   6.497   4.638 -0.6014 -1.0596 -1.6677
  976MOL0     H31741   4.622   6.757   4.639 -2.1051  2.0436  2.9217
  976MOL0     H31742   4.387   7.108   4.728 -2.7477 -1.4243 -0.4636
  976MOL0     H31743   4.389   7.332   4.746 -2.8951 -0.6565  0.6879
  976MOL0     H31744   3.968   7.498   3.567 -1.7536  1.3616 -0.0025
  976MOL0     H31745   3.979   7.269   3.625  0.3952  0.3435 -1.0003
  976MOL0     H31746   3.866   6.941   3.858  0.8786 -0.9851 -2.3197
  976MOL0     H31747   3.836   6.750   4.023 -2.6532  1.0393  2.4987
  976MOL0     H31748   3.586   6.418   3.820 -0.7563  0.0985  2.8142
  976MOL0     H31749   3.680   6.319   3.925 -2.9348  0.4810 -0.2030
  976MOL0     H31750   3.891   6.457   3.795  0.7664  0.3362 -0.6359
  976MOL0     H31751   3.778   6.486   3.683  2.9010  0.7733 -0.2024
  976MOL0     H31752   3.883   6.287   3.601  0.8571 -0.1859  0.1492
  976MOL0     H31753   3.725   6.229   3.660 -0.3515  0.8543  0.2166
  976MOL0     H31754   3.836   6.152   3.875 -0.6348  1.0442 -0.4399
  976MOL0     H31755   3.879   6.059   3.727  3.5557  1.0822 -1.3546
  976MOL0     H31756   4.249   6.221   3.759 -0.0328  1.7836  1.1815
  976MOL0     H31757   3.511   6.624   3.784  1.4765 -1.4373 -1.1104
  976MOL0     H31758   3.398   6.769   3.664  1.5984 -1.5898  1.3206
  976MOL0     H31759   3.452   6.906   3.583 -3.3364 -0.9538  1.0717
  976MOL0     H31760   3.524   6.754   3.531 -1.0602 -2.2577  1.2326
  977MOL0     O31761   2.223   1.424   7.468 -0.1643  0.6487 -0.7150
  977MOL0     C31762   2.339   1.392   7.495 -0.3579  0.3883 -0.0960
  977MOL0     O31763   2.385   1.270   7.494 -0.6488  1.0720 -0.3345
  977MOL0     C31764   2.308   1.158   7.492 -0.0959 -0.6894 -0.0600
  977MOL0     C31765   2.383   1.040   7.484 -0.4926 -0.0578 -1.4543
  977MOL0     C31766   2.322   0.912   7.474  0.0155 -0.7392  0.2873
  977MOL0     C31767   2.187   0.895   7.465 -0.4127  0.0122 -0.8455
  977MOL0     O31768   2.142   0.766   7.442 -0.1386 -0.5055 -0.2603
  977MOL0     C31769   2.020   0.730   7.503  0.2351  0.5165 -0.8568
  977MOL0     C31770   1.996   0.580   7.486 -0.2899 -0.2222  0.0536
  977MOL0     C31771   1.864   0.529   7.536 -0.0082 -0.3414 -0.1685
  977MOL0     C31772   1.863   0.535   7.690 -0.4189  0.1965  0.5787
  977MOL0     C31773   1.755   0.437   7.743  0.0359  0.6991 -0.0539
  977MOL0     C31774   1.710   0.465   7.888  0.5294  0.4892  0.0538
  977MOL0     C31775   1.576   0.380   7.919 -0.4040  0.1887  0.3795
  977MOL0     C31776   1.587   0.228   7.930  0.4658  0.0108  0.2271
  977MOL0     N31777   1.467   0.166   7.994 -0.5735 -0.1512  1.0794
  977MOL0     C31778   1.434   0.174   8.125  0.6814 -0.1624  0.1402
  977MOL0     C31779   1.308   0.148   8.137  0.3775 -0.2469  0.2149
  977MOL0     C31780   1.243   0.167   8.266 -0.0369  0.1784 -0.2049
  977MOL0     C31781   1.180   0.037   8.301 -0.7956  0.4364 -0.2805
  977MOL0     C31782   1.098   0.051   8.431 -0.6176 -0.0359  0.3732
  977MOL0     C31783   1.169   0.047   8.564  0.9541 -0.1587 -0.1261
  977MOL0     O31784   1.079   0.054   8.673  0.4435 -0.5962 -0.4574
  977MOL0     C31785   1.039   0.175   8.714  0.2526 -0.3928  0.0399
  977MOL0     C31786   0.995   0.166   8.843 -0.9310  0.3524  0.9428
  977MOL0     C31787   0.952   0.275   8.918  0.0695  0.1742  0.0112
  977MOL0     C31788   0.964   0.402   8.863  0.5983 -0.0193 -0.1148
  977MOL0     C31789   0.931   0.517   8.953 -0.8241  0.2084 -0.1051
  977MOL0     O31790   0.864   0.489   9.072 -0.2085  0.5472  0.4944
  977MOL0     C31791   0.899   0.560   9.182 -0.6661 -0.0637 -0.2048
  977MOL0     C31792   1.017   0.633   9.196 -0.3384  0.1850 -1.0920
  977MOL0     C31793   1.056   0.690   9.327  0.5719  0.3828  0.2310
  977MOL0     C31794   0.962   0.693   9.433 -1.0578  0.9723  0.4503
  977MOL0     O31795   0.980   0.758   9.554 -0.1293  0.4609  0.5325
  977MOL0     C31796   1.118   0.756   9.596 -0.1618 -0.0924  1.6340
  977MOL0     C31797   1.127   0.788   9.741  0.5837 -0.4300 -0.8124
  977MOL0     C31798   1.017   0.714   9.827  0.5974 -0.1779 -0.9022
  977MOL0     C31799   1.040   0.725   9.977  0.7592 -0.5068  0.1581
  977MOL0     C31800   0.973   0.623  10.069 -0.6660  0.1136 -0.6472
  977MOL0     C31801   0.972   0.671  10.215 -0.0998 -0.0570  1.0157
  977MOL0     C31802   0.904   0.580  10.309  0.1448  0.3326 -1.2728
  977MOL0     C31803   0.753   0.602  10.313  0.3212 -0.6601  0.4831
  977MOL0    Cl31804   0.702   0.491  10.445 -0.0439 -0.0108  0.0798
  977MOL0     C31805   0.846   0.633   9.402  0.5776 -0.2476  0.2548
  977MOL0     C31806   0.810   0.566   9.283  0.3059  0.1337  0.2220
  977MOL0     O31807   0.970   0.627   8.914  0.0824 -0.2632 -0.6930
  977MOL0     C31808   1.002   0.419   8.725 -0.1859  0.2482  0.7016
  977MOL0     C31809   1.038   0.299   8.656 -0.4338 -0.0140 -0.4002
  977MOL0     N31810   1.252   0.124   8.007  0.0265  0.3954  0.4755
  977MOL0     N31811   1.352   0.134   7.923 -0.2034  0.3639 -0.0478
  977MOL0     C31812   2.110   1.012   7.486 -0.0564 -1.0801  0.8592
  977MOL0     C31813   2.166   1.144   7.501 -0.5901 -0.2414 -0.5440
  977MOL0     C31814   2.432   1.505   7.501  0.5429 -1.6712  0.1408
  977MOL0     C31815   2.372   1.636   7.499 -0.0011  0.0291  0.1911
  977MOL0     C31816   2.452   1.745   7.488  0.1287 -0.5261  0.0495
  977MOL0     C31817   2.588   1.736   7.467  0.0014  0.5417  0.7365
  977MOL0     O31818   2.673   1.838   7.442  0.1370 -0.3427  0.5395
  977MOL0     C31819   2.611   1.952   7.375  0.1386  0.9502 -0.0653
  977MOL0     C31820   2.716   2.059   7.387 -0.3076  0.3956  0.8970
  977MOL0     C31821   2.840   2.033   7.303 -0.0437 -0.7714 -0.0427
  977MOL0     C31822   2.919   2.154   7.269 -0.4724  0.5131 -0.4159
  977MOL0     C31823   3.055   2.116   7.253 -0.8590 -0.2156  0.3982
  977MOL0     C31824   3.172   2.075   7.251 -0.2737  0.6895  1.3164
  977MOL0     C31825   2.644   1.607   7.468  0.4187 -0.6738  1.6462
  977MOL0     C31826   2.570   1.497   7.500  0.3714 -0.2912 -1.0359
  977MOL0     C31827   2.646   1.377   7.542 -0.5600  1.1412  0.4693
  977MOL0     H31828   2.489   1.055   7.468 -0.2032  2.6126  1.8661
  977MOL0     H31829   2.378   0.822   7.453 -1.1646 -2.0889  2.5119
  977MOL0     H31830   2.028   0.745   7.611  1.0431 -2.5865 -0.3888
  977MOL0     H31831   1.938   0.789   7.461 -1.3707 -0.1035  1.2583
  977MOL0     H31832   2.079   0.529   7.537  1.8388  3.4571  0.6517
  977MOL0     H31833   2.007   0.554   7.381 -1.3975 -1.2050  0.1626
  977MOL0     H31834   1.839   0.428   7.501  1.9130 -0.7945 -0.3127
  977MOL0     H31835   1.778   0.586   7.498 -0.3238 -0.7028 -0.0067
  977MOL0     H31836   1.954   0.514   7.748 -1.4767 -1.8049  1.5958
  977MOL0     H31837   1.821   0.634   7.713 -2.7062 -0.4199 -0.6894
  977MOL0     H31838   1.678   0.446   7.665  0.5074  0.5292 -0.5450
  977MOL0     H31839   1.796   0.336   7.736  0.7671  1.0830 -2.4022
  977MOL0     H31840   1.789   0.427   7.954 -0.5636  0.3218  1.3197
  977MOL0     H31841   1.690   0.572   7.900  0.3746  0.7042 -1.8363
  977MOL0     H31842   1.501   0.404   7.843  0.2591 -0.3332 -0.4588
  977MOL0     H31843   1.547   0.420   8.017  2.9245  1.9335  0.7745
  977MOL0     H31844   1.590   0.187   7.829  1.3049 -3.7308  1.6229
  977MOL0     H31845   1.675   0.183   7.977  0.4123 -1.8586 -1.3805
  977MOL0     H31846   1.486   0.206   8.214 -1.2214 -0.8596  1.5702
  977MOL0     H31847   1.315   0.200   8.341  1.8277 -0.0104 -1.8449
  977MOL0     H31848   1.173   0.249   8.245  0.9151  0.7240 -1.3375
  977MOL0     H31849   1.124  -0.005   8.217  1.5293 -0.6550 -1.4068
  977MOL0     H31850   1.266  -0.031   8.307 -1.5700 -0.7264 -1.7208
  977MOL0     H31851   1.017  -0.022   8.436 -1.1229  0.5055  0.1791
  977MOL0     H31852   1.036   0.140   8.421 -0.6548 -0.0189  0.7234
  977MOL0     H31853   1.240   0.130   8.571  1.0089 -0.1767 -0.4866
  977MOL0     H31854   1.221  -0.050   8.565 -1.7366 -1.7158 -1.0990
  977MOL0     H31855   0.984   0.067   8.884 -1.2593 -1.5877 -3.3258
  977MOL0     H31856   0.920   0.254   9.019 -1.5527  1.6567 -0.1356
  977MOL0     H31857   1.085   0.649   9.113 -2.4274  1.4424 -2.6568
  977MOL0     H31858   1.152   0.734   9.351 -0.2925  1.8746  1.1125
  977MOL0     H31859   1.170   0.661   9.578  0.9099  0.1779  3.0750
  977MOL0     H31860   1.170   0.836   9.543 -3.3693  1.5988  0.7868
  977MOL0     H31861   1.226   0.773   9.785  0.7409  2.2806 -0.0591
  977MOL0     H31862   1.108   0.893   9.764  0.9778 -1.0985  3.3667
  977MOL0     H31863   0.920   0.758   9.802  1.0774  0.9726 -0.8226
  977MOL0     H31864   1.012   0.607   9.808  3.9935 -1.0057  1.7279
  977MOL0     H31865   0.999   0.819  10.014 -1.7138 -1.5617  0.3127
  977MOL0     H31866   1.148   0.721   9.994  0.9800 -0.9889 -1.2407
  977MOL0     H31867   1.031   0.531  10.063 -2.6072 -1.1395 -1.3451
  977MOL0     H31868   0.873   0.588  10.041 -0.8669 -2.7859  2.9510
  977MOL0     H31869   1.073   0.690  10.252  1.4091  1.1364 -3.1843
  977MOL0     H31870   0.919   0.767  10.211  1.0214  0.5571  0.6324
  977MOL0     H31871   0.940   0.594  10.411  1.6448 -0.7254 -1.6341
  977MOL0     H31872   0.933   0.478  10.284  1.3615  0.7397 -1.5534
  977MOL0     H31873   0.731   0.709  10.312  4.0293  0.2843 -2.1468
  977MOL0     H31874   0.707   0.554  10.226 -1.3740 -1.5215  1.7956
  977MOL0     H31875   0.769   0.642   9.479  0.6773 -2.6860  0.7201
  977MOL0     H31876   0.714   0.514   9.280  0.8053 -0.7620 -0.4664
  977MOL0     H31877   0.980   0.510   8.671 -2.2361 -0.8892 -0.5066
  977MOL0     H31878   1.067   0.305   8.552 -0.4380 -6.1160 -1.1410
  977MOL0     H31879   2.002   1.009   7.497 -0.4445  1.7112 -1.1199
  977MOL0     H31880   2.107   1.232   7.522  0.0138 -0.0693  0.4860
  977MOL0     H31881   2.265   1.650   7.490 -0.0510  1.0929  2.0533
  977MOL0     H31882   2.393   1.834   7.467 -1.1763 -1.4659 -0.4065
  977MOL0     H31883   2.519   1.988   7.421 -0.1258  2.7517 -1.8576
  977MOL0     H31884   2.593   1.923   7.271  0.3866  0.9742 -0.1168
  977MOL0     H31885   2.749   2.071   7.490  2.2055  3.8197 -0.0998
  977MOL0     H31886   2.673   2.158   7.368 -1.6373 -0.3536 -0.1721
  977MOL0     H31887   2.803   2.000   7.205 -1.6570  2.9561 -0.8716
  977MOL0     H31888   2.895   1.950   7.348 -0.6795 -0.4023  1.4890
  977MOL0     H31889   2.883   2.206   7.179  2.3164 -1.1008 -2.6494
  977MOL0     H31890   2.920   2.224   7.353  2.4292 -0.3460  0.3651
  977MOL0     H31891   3.271   2.035   7.252 -1.1715 -1.9977 -1.0781
  977MOL0     H31892   2.750   1.601   7.445 -0.1391 -1.0699 -1.3031
  977MOL0     H31893   2.747   1.403   7.577 -1.2838 -0.4924  4.2759
  977MOL0     H31894   2.615   1.313   7.625  1.0911  0.3527  0.5325
  977MOL0     H31895   2.656   1.311   7.455  0.5928  1.8456  0.0355
  978MOL0     O31896   9.613   0.906  11.355 -0.6043  0.1112 -0.1548
  978MOL0     C31897   9.559   0.797  11.334 -0.1452  0.4604 -0.8305
  978MOL0     O31898   9.542   0.701  11.433 -0.1458 -0.7958 -0.6666
  978MOL0     C31899   9.612   0.712  11.547  0.2370  0.0356 -0.4801
  978MOL0     C31900   9.749   0.731  11.553 -0.1473  0.1842 -0.7555
  978MOL0     C31901   9.815   0.719  11.678  0.3773  0.0824 -0.9435
  978MOL0     C31902   9.735   0.708  11.798  0.3385  0.5217 -0.3972
  978MOL0     O31903   9.798   0.724  11.916 -0.1957 -0.8615 -0.2570
  978MOL0     C31904   9.730   0.792  12.026  0.7465 -0.0508 -0.2656
  978MOL0     C31905   9.818   0.855  12.136 -1.2120 -0.4675 -0.1680
  978MOL0     C31906   9.865   0.751  12.237  1.2233 -0.7080 -0.8804
  978MOL0     C31907   9.751   0.717  12.337  0.0206  0.3898  0.0235
  978MOL0     C31908   9.797   0.629  12.464 -0.6604  0.0836  0.9673
  978MOL0     C31909   9.681   0.541  12.520  0.5886 -0.0326 -0.1555
  978MOL0     C31910   9.714   0.483  12.663  0.2744  0.4821  0.2590
  978MOL0     C31911   9.699   0.589  12.771  0.9031 -0.0731 -0.0699
  978MOL0     N31912   9.568   0.584  12.848 -0.4844  0.8660  0.7454
  978MOL0     C31913   9.457   0.661  12.800 -0.0320 -0.6409 -0.5492
  978MOL0     C31914   9.375   0.657  12.906 -0.5390  0.2789  0.1004
  978MOL0     C31915   9.255   0.725  12.912 -0.9985 -0.2383 -0.2754
  978MOL0     C31916   9.159   0.661  12.805  0.2601 -0.4396 -0.8889
  978MOL0     C31917   9.050   0.764  12.805  0.8634  0.3853  1.5877
  978MOL0     C31918   8.945   0.701  12.704 -0.1581 -0.2135  0.2235
  978MOL0     O31919   8.888   0.575  12.741 -0.3410 -0.6806 -0.8087
  978MOL0     C31920   8.780   0.533  12.664 -1.7759 -0.3965  0.4817
  978MOL0     C31921   8.722   0.406  12.698 -0.2895  0.0705 -0.2287
  978MOL0     C31922   8.615   0.348  12.620 -0.0650  0.5857  0.1567
  978MOL0     C31923   8.575   0.417  12.499  0.5810  0.0907  0.4527
  978MOL0     C31924   8.484   0.351  12.406 -0.6026 -0.9111 -1.0515
  978MOL0     O31925   8.463   0.223  12.425  0.3697 -0.0889 -0.5565
  978MOL0     C31926   8.364   0.166  12.350  1.2368 -0.2139 -1.2871
  978MOL0     C31927   8.232   0.219  12.330 -0.0350  0.3472 -0.2714
  978MOL0     C31928   8.131   0.149  12.277 -0.1961 -0.6593  0.3250
  978MOL0     C31929   8.154   0.022  12.227  0.8893  0.9279  0.1725
  978MOL0     O31930   8.051  -0.041  12.160  0.0308  0.2732 -0.1616
  978MOL0     C31931   8.036  -0.181  12.171 -0.4429 -0.5158  0.4908
  978MOL0     C31932   7.960  -0.212  12.293  0.0999 -0.3482 -0.3643
  978MOL0     C31933   7.992  -0.349  12.345 -0.0062 -0.0601 -0.0417
  978MOL0     C31934   7.891  -0.376  12.467 -0.4652 -0.0642  0.0390
  978MOL0     C31935   7.921  -0.513  12.523 -0.3492  0.0940 -0.3116
  978MOL0     C31936   7.823  -0.533  12.640 -0.0701  0.0461 -0.8661
  978MOL0     C31937   7.860  -0.665  12.718  0.0313 -0.8541  0.3099
  978MOL0     C31938   7.797  -0.679  12.857 -0.2629 -1.1027 -0.3992
  978MOL0    Cl31939   7.807  -0.529  12.962 -0.1690 -0.0943 -0.0529
  978MOL0     C31940   8.280  -0.034  12.244  1.0000 -0.7945 -0.2605
  978MOL0     C31941   8.384   0.036  12.306  0.4839 -0.0622 -1.8572
  978MOL0     O31942   8.445   0.410  12.308 -0.0003 -0.7171  0.2210
  978MOL0     C31943   8.629   0.546  12.471  0.0429 -0.2744 -0.3644
  978MOL0     C31944   8.731   0.600  12.546  0.1818  0.9461  0.7116
  978MOL0     N31945   9.438   0.591  13.010  1.1608  0.1142 -0.2281
  978MOL0     N31946   9.555   0.554  12.978 -0.2969  0.1752 -0.7788
  978MOL0     C31947   9.597   0.690  11.787  0.8015 -0.6443  0.4964
  978MOL0     C31948   9.532   0.692  11.668 -0.2237 -0.3591  0.0887
  978MOL0     C31949   9.490   0.778  11.202  0.4528 -0.9467  0.0495
  978MOL0     C31950   9.373   0.694  11.199 -0.3048 -0.8354 -0.2285
  978MOL0     C31951   9.304   0.679  11.081  0.9061  0.2084  0.5904
  978MOL0     C31952   9.354   0.731  10.956 -0.6435 -0.0701 -0.0132
  978MOL0     O31953   9.286   0.704  10.842  1.0208  0.1296 -0.1313
  978MOL0     C31954   9.341   0.745  10.715  0.3304  0.2739 -0.0096
  978MOL0     C31955   9.465   0.668  10.675 -0.9424 -0.1483 -0.2714
  978MOL0     C31956   9.515   0.719  10.537 -0.2472  0.0327 -0.1611
  978MOL0     C31957   9.657   0.778  10.570  0.2479 -0.2079 -0.3321
  978MOL0     C31958   9.699   0.860  10.454  0.2293  0.0804 -0.4408
  978MOL0     C31959   9.741   0.942  10.373  0.0300  0.0324 -0.6736
  978MOL0     C31960   9.477   0.803  10.969  0.2978 -0.1099 -0.3946
  978MOL0     C31961   9.552   0.826  11.086  0.3151 -0.2171 -0.3306
  978MOL0     C31962   9.683   0.909  11.084  0.0344  0.4136 -0.0879
  978MOL0     H31963   9.791   0.730  11.453  0.5562 -0.9963 -0.4531
  978MOL0     H31964   9.923   0.719  11.691  0.3057 -0.0896 -0.3026
  978MOL0     H31965   9.672   0.871  11.978 -0.9461 -2.8670 -3.1984
  978MOL0     H31966   9.654   0.728  12.073  0.8580 -0.3433 -0.4835
  978MOL0     H31967   9.766   0.940  12.181  0.5121  0.8995 -0.6851
  978MOL0     H31968   9.903   0.904  12.089  0.3344 -0.9666  1.9270
  978MOL0     H31969   9.951   0.796  12.287  2.9010  0.3813 -4.4562
  978MOL0     H31970   9.902   0.658  12.193  0.5475 -1.5395  0.2274
  978MOL0     H31971   9.711   0.811  12.376 -0.3515  0.2873 -0.1004
  978MOL0     H31972   9.678   0.650  12.290 -2.0531  1.4693  1.5542
  978MOL0     H31973   9.877   0.570  12.418 -0.0140  2.9407 -1.9996
  978MOL0     H31974   9.847   0.688  12.541 -0.6089  2.3521 -0.7096
  978MOL0     H31975   9.586   0.595  12.526  1.2266  1.2526 -0.9394
  978MOL0     H31976   9.665   0.456  12.454  3.8891 -1.7801  1.0452
  978MOL0     H31977   9.821   0.461  12.659 -0.0918 -1.3059 -1.4678
  978MOL0     H31978   9.658   0.391  12.682 -0.1813  0.5825 -0.5339
  978MOL0     H31979   9.766   0.565  12.854 -1.8377 -0.3248  2.2346
  978MOL0     H31980   9.720   0.685  12.723  0.7598 -0.4285 -0.8718
  978MOL0     H31981   9.445   0.719  12.709 -2.1192  1.7612  1.1301
  978MOL0     H31982   9.209   0.716  13.011  1.4121  0.4742  0.9868
  978MOL0     H31983   9.283   0.829  12.895 -1.3215 -0.3295 -1.4899
  978MOL0     H31984   9.202   0.654  12.705  3.8136 -0.2320  0.4758
  978MOL0     H31985   9.131   0.561  12.842  2.0894 -0.4098  0.7697
  978MOL0     H31986   9.072   0.861  12.761 -1.5212 -0.0676 -0.8581
  978MOL0     H31987   8.998   0.774  12.901 -3.4297  0.3026 -0.4726
  978MOL0     H31988   8.980   0.684  12.602 -3.2056 -0.6679 -0.8499
  978MOL0     H31989   8.862   0.771  12.693  0.4737  0.4949 -0.1374
  978MOL0     H31990   8.750   0.342  12.781 -1.4692 -0.8436 -0.5130
  978MOL0     H31991   8.578   0.248  12.640 -2.1544  1.2364 -0.2682
  978MOL0     H31992   8.209   0.318  12.366 -0.5506  0.2551 -0.3408
  978MOL0     H31993   8.033   0.194  12.266 -1.0725 -2.7790 -1.2472
  978MOL0     H31994   7.999  -0.221  12.076  1.1712 -0.3517 -0.2325
  978MOL0     H31995   8.133  -0.229  12.190 -0.0199  0.3284  0.4773
  978MOL0     H31996   7.987  -0.142  12.372  5.4601 -1.5676 -0.7566
  978MOL0     H31997   7.853  -0.212  12.272 -0.1122 -2.0765  0.5440
  978MOL0     H31998   7.990  -0.438  12.281  0.6000 -0.7589  0.8863
  978MOL0     H31999   8.091  -0.345  12.392  0.1511 -2.5808 -0.0150
  978MOL0     H32000   7.788  -0.370  12.432 -1.1541 -0.5388  1.8460
  978MOL0     H32001   7.900  -0.286  12.530 -2.5068  2.5238 -3.0553
  978MOL0     H32002   8.020  -0.507  12.569 -1.7903  0.5988  3.1046
  978MOL0     H32003   7.910  -0.597  12.455 -1.7547 -2.2433  2.5511
  978MOL0     H32004   7.824  -0.450  12.712  1.3655 -0.9349  0.3119
  978MOL0     H32005   7.724  -0.552  12.597 -0.4325  1.1939 -0.5780
  978MOL0     H32006   7.969  -0.670  12.725  1.0369  2.9985 -5.4802
  978MOL0     H32007   7.834  -0.750  12.655  0.3569 -1.0131  0.3881
  978MOL0     H32008   7.693  -0.715  12.849  0.2049 -2.4285 -0.8160
  978MOL0     H32009   7.853  -0.753  12.914  1.5611 -0.0485 -0.7650
  978MOL0     H32010   8.303  -0.118  12.178  1.3105  0.6092 -2.0109
  978MOL0     H32011   8.481  -0.012  12.313  0.8744  0.9553  1.7976
  978MOL0     H32012   8.598   0.600  12.382  0.5265 -3.4531 -2.6224
  978MOL0     H32013   8.783   0.689  12.512  0.8915  0.9257  1.6856
  978MOL0     H32014   9.529   0.672  11.869 -1.2081  1.6117 -0.5620
  978MOL0     H32015   9.425   0.678  11.656 -0.0790 -0.9311 -0.5903
  978MOL0     H32016   9.339   0.643  11.288  2.4723 -0.8819  0.9150
  978MOL0     H32017   9.205   0.635  11.080  0.3557  1.4244  0.4618
  978MOL0     H32018   9.380   0.847  10.720  1.6371 -0.1785 -0.5035
  978MOL0     H32019   9.271   0.731  10.632 -0.1840 -0.5814  0.5474
  978MOL0     H32020   9.449   0.560  10.680  1.8604 -0.6151  0.7382
  978MOL0     H32021   9.535   0.682  10.758 -0.9990  3.3384 -0.6647
  978MOL0     H32022   9.461   0.810  10.508 -1.1911 -0.1496  0.9323
  978MOL0     H32023   9.503   0.643  10.460 -2.1103 -1.2000  1.2459
  978MOL0     H32024   9.652   0.851  10.651  1.9057  1.5657 -1.7243
  978MOL0     H32025   9.726   0.695  10.592  1.0749  0.2151 -1.2351
  978MOL0     H32026   9.783   1.017  10.309  0.5041  1.2121  0.9222
  978MOL0     H32027   9.516   0.856  10.884 -0.0995 -2.3215 -2.0504
  978MOL0     H32028   9.753   0.901  11.167  1.6766 -2.0803 -1.5617
  978MOL0     H32029   9.742   0.880  10.996  2.9466 -1.7194  2.3351
  978MOL0     H32030   9.650   1.013  11.076 -1.6925 -0.0447  0.7035
  979MOL0     O32031   2.747   5.780  10.902  0.6905 -0.6943  0.0895
  979MOL0     C32032   2.693   5.681  10.944 -0.9718 -0.1916  0.8635
  979MOL0     O32033   2.642   5.582  10.865  0.0802  0.8145 -0.6365
  979MOL0     C32034   2.644   5.612  10.734  0.0853 -0.7485  0.4419
  979MOL0     C32035   2.528   5.659  10.668  1.0401  0.8883  0.5146
  979MOL0     C32036   2.525   5.655  10.532  0.2843 -0.4589  0.2750
  979MOL0     C32037   2.639   5.639  10.457 -0.5339 -0.2071 -0.0284
  979MOL0     O32038   2.659   5.666  10.320 -0.4965 -0.1439  0.6710
  979MOL0     C32039   2.589   5.556  10.245 -0.0778 -0.3742  0.0433
  979MOL0     C32040   2.619   5.564  10.098  0.3053  0.2945  0.7481
  979MOL0     C32041   2.540   5.679  10.040 -0.3975  0.1532 -0.7040
  979MOL0     C32042   2.553   5.692   9.888  0.0565  0.2829 -1.2052
  979MOL0     C32043   2.518   5.830   9.843 -0.0092 -1.5139  0.3290
  979MOL0     C32044   2.371   5.868   9.869 -0.1686  0.0033  0.3447
  979MOL0     C32045   2.363   6.013   9.933  0.2340  0.0391  0.4470
  979MOL0     C32046   2.225   6.052   9.974 -0.3323 -0.4253 -0.8376
  979MOL0     N32047   2.202   6.185  10.010  0.2260  0.2805 -0.8880
  979MOL0     C32048   2.126   6.212  10.120  0.9910 -0.7623 -0.3624
  979MOL0     C32049   2.105   6.346  10.098 -0.7254  0.9968 -0.5653
  979MOL0     C32050   2.031   6.431  10.184 -0.3927  0.2772  0.7525
  979MOL0     C32051   2.106   6.558  10.230 -1.0634  0.1840  0.4790
  979MOL0     C32052   2.026   6.628  10.338 -0.4502  0.2377  0.6473
  979MOL0     C32053   2.110   6.727  10.409  0.0801 -0.3641 -0.0902
  979MOL0     O32054   2.189   6.653  10.509  0.7507 -0.0127 -0.4345
  979MOL0     C32055   2.276   6.721  10.594 -0.1477 -0.3606 -0.3444
  979MOL0     C32056   2.313   6.855  10.589  0.1329  0.5539 -0.0899
  979MOL0     C32057   2.392   6.915  10.686  0.3681  0.0302 -0.1564
  979MOL0     C32058   2.456   6.844  10.785 -0.3859 -0.3043  0.4292
  979MOL0     C32059   2.560   6.892  10.874  0.1062 -0.7940 -0.7250
  979MOL0     O32060   2.605   6.820  10.978  0.2002  0.5562  0.1312
  979MOL0     C32061   2.691   6.874  11.058  0.6816  0.3838  0.2209
  979MOL0     C32062   2.830   6.867  11.037 -1.0399  0.1036 -0.7964
  979MOL0     C32063   2.919   6.920  11.133  0.6974 -0.0175 -0.3072
  979MOL0     C32064   2.876   6.968  11.261  0.4850 -0.4577  0.0850
  979MOL0     O32065   2.957   7.030  11.361 -0.2169  0.0683 -0.1317
  979MOL0     C32066   3.100   7.014  11.343 -0.6815  0.3101  0.2203
  979MOL0     C32067   3.179   7.102  11.431  0.2783 -0.4532  0.7603
  979MOL0     C32068   3.157   7.071  11.576 -0.3259  0.1490  0.4833
  979MOL0     C32069   3.238   6.966  11.637 -0.1739  1.2915 -0.4351
  979MOL0     C32070   3.202   6.948  11.787  0.8485  0.0130 -0.1045
  979MOL0     C32071   3.271   6.836  11.866 -0.2057  0.6944 -0.0108
  979MOL0     C32072   3.216   6.808  12.001  0.1078  0.1440 -0.9604
  979MOL0     C32073   3.313   6.745  12.104  0.0628 -0.0124  0.4290
  979MOL0    Cl32074   3.354   6.565  12.037  0.3171 -0.0554  0.0306
  979MOL0     C32075   2.734   6.967  11.283 -0.5315  0.6034 -0.3262
  979MOL0     C32076   2.645   6.931  11.174  0.1276  0.0382 -0.4868
  979MOL0     O32077   2.600   7.007  10.849 -0.4360 -0.2744 -0.5278
  979MOL0     C32078   2.424   6.709  10.790 -0.1459 -0.3207  0.2475
  979MOL0     C32079   2.339   6.646  10.701 -0.8916  1.7900  0.1673
  979MOL0     N32080   2.191   6.394  10.003  0.0179  0.0939 -0.0237
  979MOL0     N32081   2.241   6.301   9.945 -0.6119 -0.5290 -0.3604
  979MOL0     C32082   2.751   5.598  10.517  0.1276  0.0739 -0.3581
  979MOL0     C32083   2.751   5.580  10.652 -0.8943 -0.6619  0.6930
  979MOL0     C32084   2.654   5.699  11.080  0.1467  0.0029  0.0967
  979MOL0     C32085   2.617   5.830  11.130 -0.3236 -0.4155  0.2857
  979MOL0     C32086   2.592   5.861  11.262  0.3124 -0.3316  1.0320
  979MOL0     C32087   2.578   5.749  11.354  0.5634 -1.1946  0.7588
  979MOL0     O32088   2.520   5.759  11.476  0.0884 -0.1053  0.3801
  979MOL0     C32089   2.512   5.889  11.541  0.1165 -0.4329 -0.5278
  979MOL0     C32090   2.656   5.914  11.603  0.0174  0.7381  0.8695
  979MOL0     C32091   2.685   6.055  11.613  0.2073 -0.5775 -0.6465
  979MOL0     C32092   2.586   6.134  11.699  0.3975 -0.2326 -0.5101
  979MOL0     C32093   2.618   6.107  11.840 -0.4961  0.5067  0.3386
  979MOL0     C32094   2.645   6.060  11.953 -0.1741 -0.5354 -0.3918
  979MOL0     C32095   2.587   5.619  11.295 -0.7998 -0.4766 -0.3862
  979MOL0     C32096   2.622   5.590  11.159 -0.9703  0.0326 -1.0314
  979MOL0     C32097   2.624   5.438  11.130  0.2189 -0.7348 -0.9703
  979MOL0     H32098   2.432   5.672  10.717 -2.1158 -2.6678 -3.8956
  979MOL0     H32099   2.438   5.683  10.473  1.3569 -0.3708 -1.3256
  979MOL0     H32100   2.637   5.459  10.264  2.4792  0.8422  0.2050
  979MOL0     H32101   2.482   5.555  10.268 -0.9501  0.0787 -3.3649
  979MOL0     H32102   2.595   5.471  10.045  3.4617 -1.5177  2.2326
  979MOL0     H32103   2.724   5.582  10.074 -0.6700  2.3170 -2.7359
  979MOL0     H32104   2.580   5.772  10.082 -1.0497 -0.1760  0.7169
  979MOL0     H32105   2.434   5.677  10.068 -0.9437  0.1682 -2.6239
  979MOL0     H32106   2.661   5.677   9.876  0.0269 -1.3230  0.1870
  979MOL0     H32107   2.501   5.607   9.844  0.0936  0.0244 -0.7545
  979MOL0     H32108   2.588   5.900   9.891 -1.0180  1.2542 -1.9309
  979MOL0     H32109   2.543   5.851   9.739 -1.3069  0.2912  0.3303
  979MOL0     H32110   2.308   5.873   9.779 -3.7487  0.7671  2.6968
  979MOL0     H32111   2.328   5.795   9.938  1.3936 -1.0257  0.3047
  979MOL0     H32112   2.401   6.089   9.864 -0.1826 -1.5278 -1.6232
  979MOL0     H32113   2.424   6.012  10.023  3.5090  2.7267 -1.5148
  979MOL0     H32114   2.160   6.017   9.893 -0.1335  2.6328 -2.4813
  979MOL0     H32115   2.196   5.984  10.055 -2.8738  0.9665 -0.4863
  979MOL0     H32116   2.079   6.160  10.203  1.8355  2.7597  2.5773
  979MOL0     H32117   1.947   6.464  10.123  1.3891 -0.9288 -2.6184
  979MOL0     H32118   1.990   6.374  10.268 -3.1782  1.9010  0.6134
  979MOL0     H32119   2.204   6.525  10.265 -0.4019 -1.1715 -2.3371
  979MOL0     H32120   2.117   6.620  10.141 -0.6494 -1.9141 -1.0224
  979MOL0     H32121   1.976   6.571  10.416 -0.8944 -1.2139 -0.6602
  979MOL0     H32122   1.942   6.674  10.285  1.1834  0.7034 -1.7023
  979MOL0     H32123   2.034   6.785  10.463  0.4449  1.0488 -1.0240
  979MOL0     H32124   2.178   6.787  10.348  2.5345 -2.2390  0.6537
  979MOL0     H32125   2.266   6.914  10.511  0.3295  0.1076 -0.5518
  979MOL0     H32126   2.403   7.022  10.672 -0.5124  0.1479 -0.0106
  979MOL0     H32127   2.875   6.817  10.951 -0.5819  0.4625 -0.7711
  979MOL0     H32128   3.020   6.912  11.096  0.5935  0.6631 -0.7579
  979MOL0     H32129   3.124   6.910  11.362 -3.2626 -0.9954 -2.7418
  979MOL0     H32130   3.135   7.036  11.242 -0.8028 -0.2096  0.0630
  979MOL0     H32131   3.286   7.112  11.414  0.6694 -1.3257  2.4305
  979MOL0     H32132   3.145   7.202  11.402 -2.1637 -1.7741 -1.3607
  979MOL0     H32133   3.191   7.160  11.631 -1.2961 -0.6520  2.4519
  979MOL0     H32134   3.051   7.047  11.591 -0.8164  0.5338 -1.9070
  979MOL0     H32135   3.346   6.970  11.621 -0.0880  2.2334  0.3097
  979MOL0     H32136   3.206   6.876  11.583  1.0245  0.4875  0.1667
  979MOL0     H32137   3.094   6.931  11.783  0.6609  1.2932 -1.3661
  979MOL0     H32138   3.213   7.042  11.842 -1.6410 -1.8276  4.0392
  979MOL0     H32139   3.275   6.745  11.806 -2.8840 -1.4710  2.7392
  979MOL0     H32140   3.380   6.851  11.869 -0.3952  2.5353 -1.2650
  979MOL0     H32141   3.129   6.742  12.004  1.2312 -1.3646 -0.6260
  979MOL0     H32142   3.195   6.906  12.046 -0.6774 -0.7549  0.7081
  979MOL0     H32143   3.407   6.801  12.112  0.8253 -1.0844 -0.5655
  979MOL0     H32144   3.264   6.743  12.201  0.2728  1.1712  0.5696
  979MOL0     H32145   2.681   7.019  11.362 -2.7833  1.9507 -2.5788
  979MOL0     H32146   2.538   6.947  11.178 -0.0887 -1.4680  1.8332
  979MOL0     H32147   2.460   6.643  10.868 -1.5746  0.3699  1.5350
  979MOL0     H32148   2.323   6.539  10.714 -0.0143  1.7780  1.3470
  979MOL0     H32149   2.848   5.585  10.471  0.3232 -0.2432  0.1336
  979MOL0     H32150   2.837   5.542  10.705 -0.7105 -1.8451 -0.4153
  979MOL0     H32151   2.622   5.922  11.073  0.5599  0.8942  2.3694
  979MOL0     H32152   2.569   5.964  11.288  4.9262  0.5364  2.5174
  979MOL0     H32153   2.431   5.902  11.614  1.9322 -0.2204  1.5752
  979MOL0     H32154   2.494   5.969  11.469  1.1659  0.6396  0.3632
  979MOL0     H32155   2.738   5.876  11.540 -1.5495  1.6320 -1.8706
  979MOL0     H32156   2.666   5.866  11.701 -0.0758  1.8560  1.4426
  979MOL0     H32157   2.687   6.093  11.510  1.1474 -3.2578 -1.6994
  979MOL0     H32158   2.783   6.077  11.657  0.6990 -1.3223 -1.3400
  979MOL0     H32159   2.569   6.241  11.689  1.0538 -0.0587  0.1833
  979MOL0     H32160   2.489   6.095  11.667  1.0986 -1.3649 -1.3508
  979MOL0     H32161   2.669   6.026  12.052 -3.9220  1.9816  1.6087
  979MOL0     H32162   2.562   5.543  11.368 -3.0334  0.8098  0.2847
  979MOL0     H32163   2.604   5.381  11.221  4.4410 -1.5104 -0.2996
  979MOL0     H32164   2.556   5.418  11.046  0.9570 -0.7189 -1.5814
  979MOL0     H32165   2.728   5.415  11.105  0.6942  0.2499  0.0087
  980MOL0     O32166   4.416   7.305   4.038 -1.2572 -0.3046  0.1497
  980MOL0     C32167   4.535   7.290   4.081 -0.6875  0.0543  0.0229
  980MOL0     O32168   4.633   7.385   4.077  0.2516 -0.8335  0.2071
  980MOL0     C32169   4.620   7.524   4.056  0.3003  0.4947 -0.0025
  980MOL0     C32170   4.533   7.573   3.966 -0.0873 -0.1434  0.4165
  980MOL0     C32171   4.550   7.712   3.935 -0.4028 -0.6437  0.6454
  980MOL0     C32172   4.645   7.791   3.988  0.2181  0.4418  0.3591
  980MOL0     O32173   4.681   7.906   3.927 -0.1296  0.1558 -0.0173
  980MOL0     C32174   4.818   7.935   3.915 -0.2441 -0.5347 -0.1263
  980MOL0     C32175   4.820   8.071   3.822  0.3832  0.6799 -0.1534
  980MOL0     C32176   4.958   8.133   3.816 -0.1395 -0.5104  0.0091
  980MOL0     C32177   5.030   8.088   3.688  0.5663  0.5848 -0.1281
  980MOL0     C32178   5.170   8.149   3.675  0.0272 -0.8326 -0.7293
  980MOL0     C32179   5.253   8.114   3.547 -1.4497  0.3340 -0.4557
  980MOL0     C32180   5.366   8.223   3.543 -1.3298  0.3012  1.0510
  980MOL0     C32181   5.461   8.199   3.418  0.6705 -0.0534  0.2746
  980MOL0     N32182   5.514   8.069   3.447 -0.8183 -0.2936  0.5941
  980MOL0     C32183   5.607   8.037   3.549 -0.6553 -0.3830 -0.1702
  980MOL0     C32184   5.666   7.925   3.494  0.0091 -0.4083  0.2031
  980MOL0     C32185   5.758   7.825   3.574 -0.5720 -0.5869  0.8415
  980MOL0     C32186   5.671   7.699   3.606  0.4732 -0.7248  0.0915
  980MOL0     C32187   5.736   7.600   3.704  0.1491 -0.6246  0.6301
  980MOL0     C32188   5.652   7.479   3.730 -0.8986 -0.1594 -0.2716
  980MOL0     O32189   5.728   7.415   3.830  1.1336 -0.4902 -0.7124
  980MOL0     C32190   5.751   7.282   3.810  0.2399  0.7609  1.2454
  980MOL0     C32191   5.647   7.193   3.819  0.2636  0.2872  1.2030
  980MOL0     C32192   5.657   7.058   3.813  0.2853  0.6094 -0.2721
  980MOL0     C32193   5.784   7.004   3.780  0.2242 -0.3042  0.9299
  980MOL0     C32194   5.809   6.859   3.757  0.1492  0.3232  0.9970
  980MOL0     O32195   5.932   6.811   3.781 -0.0511  0.0771  0.4894
  980MOL0     C32196   5.967   6.674   3.789  0.4346 -0.2628  0.6585
  980MOL0     C32197   6.068   6.648   3.874  0.6002  1.0897 -0.2922
  980MOL0     C32198   6.115   6.516   3.886 -0.7016 -0.0588 -0.2173
  980MOL0     C32199   6.073   6.411   3.801  0.5772 -0.4205  0.1143
  980MOL0     O32200   6.114   6.283   3.805  0.3050  0.3871 -0.3422
  980MOL0     C32201   6.202   6.246   3.921  1.1034 -0.5577 -0.1810
  980MOL0     C32202   6.251   6.104   3.904  1.0088  0.2714 -0.0645
  980MOL0     C32203   6.389   6.110   3.838 -0.2607  0.2032 -0.9208
  980MOL0     C32204   6.435   5.961   3.809  0.1594  0.2033  0.9944
  980MOL0     C32205   6.554   5.957   3.707  0.7280  0.0554  0.1484
  980MOL0     C32206   6.600   5.814   3.681 -0.1064 -0.3113  0.2054
  980MOL0     C32207   6.654   5.747   3.807 -0.0687 -0.0373 -0.9047
  980MOL0     C32208   6.753   5.636   3.767 -0.7333  0.5407 -0.7343
  980MOL0    Cl32209   6.843   5.568   3.917  0.4292  0.5283  0.1285
  980MOL0     C32210   5.981   6.447   3.703  1.6942  1.0225 -0.0828
  980MOL0     C32211   5.928   6.574   3.701 -0.4534 -0.3373  0.6481
  980MOL0     O32212   5.706   6.793   3.753 -0.0101 -0.9993 -0.0122
  980MOL0     C32213   5.890   7.092   3.771  0.4490 -0.6810  0.0009
  980MOL0     C32214   5.873   7.231   3.783  0.8801  0.0843 -0.2887
  980MOL0     N32215   5.614   7.900   3.368 -0.2263 -0.5354  0.2958
  980MOL0     N32216   5.535   7.992   3.336 -0.4193  0.5440  0.4421
  980MOL0     C32217   4.725   7.742   4.092  1.2317  0.2690  0.7561
  980MOL0     C32218   4.707   7.609   4.120  0.1058  0.0805  0.1609
  980MOL0     C32219   4.582   7.155   4.121 -0.5590  0.0446 -0.4593
  980MOL0     C32220   4.533   7.045   4.053 -0.5936  0.8791  0.9443
  980MOL0     C32221   4.579   6.919   4.084 -0.1471  0.0190  0.4871
  980MOL0     C32222   4.679   6.901   4.180 -0.3664 -0.0068  0.8140
  980MOL0     O32223   4.714   6.780   4.209  0.4989  0.5735 -0.4128
  980MOL0     C32224   4.799   6.743   4.321 -0.3113 -0.3677 -0.1270
  980MOL0     C32225   4.819   6.589   4.305  0.5280 -0.0225  0.1716
  980MOL0     C32226   4.690   6.520   4.303  0.8312  0.3590  1.2642
  980MOL0     C32227   4.704   6.367   4.350 -0.2723 -0.0927  0.1267
  980MOL0     C32228   4.773   6.277   4.265  0.0836  0.9564  1.1163
  980MOL0     C32229   4.857   6.217   4.196  0.8732 -0.3552 -0.6620
  980MOL0     C32230   4.729   7.013   4.249 -0.4264  0.9179 -0.2936
  980MOL0     C32231   4.677   7.143   4.225 -0.6134 -0.3179  0.5249
  980MOL0     C32232   4.734   7.249   4.314 -0.0218  0.5419 -0.6102
  980MOL0     H32233   4.454   7.521   3.911 -0.2331 -0.6797  1.1195
  980MOL0     H32234   4.490   7.765   3.862  0.3958 -2.5993 -1.5669
  980MOL0     H32235   4.870   7.950   4.010  0.3615  1.0322 -0.6549
  980MOL0     H32236   4.872   7.854   3.866 -0.8317 -3.1300  3.1737
  980MOL0     H32237   4.745   8.134   3.870 -1.7966 -1.9739  0.1632
  980MOL0     H32238   4.785   8.042   3.723 -1.1759  1.5203  0.1211
  980MOL0     H32239   5.019   8.108   3.903  1.8667 -0.0738 -1.1940
  980MOL0     H32240   4.944   8.241   3.818 -0.6529 -0.5800  2.0211
  980MOL0     H32241   5.050   7.980   3.683  1.6302  0.7405  0.5005
  980MOL0     H32242   4.969   8.106   3.599  1.5744  1.1753 -0.7117
  980MOL0     H32243   5.154   8.258   3.676  0.1512 -0.8178 -0.3811
  980MOL0     H32244   5.226   8.128   3.766 -0.9586 -2.4885 -0.4801
  980MOL0     H32245   5.313   8.025   3.565 -2.1850 -0.3534 -1.2573
  980MOL0     H32246   5.195   8.096   3.456 -1.0489 -0.8049 -0.5011
  980MOL0     H32247   5.425   8.215   3.634 -0.6326  2.0820  0.7858
  980MOL0     H32248   5.319   8.321   3.530  1.9297  1.8880  0.3121
  980MOL0     H32249   5.415   8.182   3.321  0.7458 -4.6654  0.8600
  980MOL0     H32250   5.537   8.278   3.411  1.1399  0.0253  4.0532
  980MOL0     H32251   5.627   8.084   3.644  2.3011  3.7973 -2.5660
  980MOL0     H32252   5.851   7.802   3.521  0.1018  0.9034  1.3388
  980MOL0     H32253   5.790   7.869   3.669 -2.0060 -1.1488  1.6126
  980MOL0     H32254   5.575   7.735   3.644 -0.0706  0.3984 -2.2225
  980MOL0     H32255   5.640   7.652   3.513 -3.4399  0.8157  0.4074
  980MOL0     H32256   5.754   7.651   3.800 -0.0879  1.1810 -0.2336
  980MOL0     H32257   5.828   7.567   3.655 -1.8738 -0.9096 -3.3215
  980MOL0     H32258   5.657   7.418   3.639  1.2046  1.1466 -1.1039
  980MOL0     H32259   5.548   7.490   3.760 -0.6126  1.2630  0.2901
  980MOL0     H32260   5.548   7.233   3.839 -0.3622 -1.3691  1.5970
  980MOL0     H32261   5.565   7.002   3.822  1.3945 -0.9751  3.9858
  980MOL0     H32262   6.113   6.732   3.926  2.5996  1.3640 -2.3064
  980MOL0     H32263   6.203   6.505   3.947  0.5505  2.3268 -1.4427
  980MOL0     H32264   6.284   6.319   3.916  0.4776  0.0947 -1.6070
  980MOL0     H32265   6.161   6.255   4.022  1.7645 -2.9128  0.3575
  980MOL0     H32266   6.254   6.058   4.003 -0.2791  1.4374  0.5494
  980MOL0     H32267   6.183   6.041   3.847  2.9149 -1.1140 -0.9143
  980MOL0     H32268   6.394   6.169   3.746  0.4077  0.4705 -0.7216
  980MOL0     H32269   6.460   6.154   3.908 -2.7347  0.1847  1.8043
  980MOL0     H32270   6.349   5.907   3.768  0.9710 -1.2285  1.0763
  980MOL0     H32271   6.460   5.911   3.903 -1.0202 -2.1009  0.1685
  980MOL0     H32272   6.640   6.015   3.741  1.3720 -0.2748 -0.8591
  980MOL0     H32273   6.524   5.998   3.610  0.9505 -0.9653 -0.3658
  980MOL0     H32274   6.513   5.750   3.665  0.0470 -1.4726  3.3649
  980MOL0     H32275   6.669   5.800   3.598 -0.2443 -0.3089  0.0898
  980MOL0     H32276   6.579   5.698   3.870  0.1179 -0.9372 -1.3543
  980MOL0     H32277   6.706   5.828   3.859 -0.9179  0.5751 -0.9888
  980MOL0     H32278   6.694   5.561   3.713  0.6098 -0.3582 -1.0154
  980MOL0     H32279   6.822   5.683   3.697  2.3212  0.6445  2.0965
  980MOL0     H32280   5.938   6.386   3.624 -1.0271  0.3173  1.7703
  980MOL0     H32281   5.858   6.602   3.623  0.1306 -5.9569 -2.4694
  980MOL0     H32282   5.990   7.054   3.756 -0.3441 -3.9665  1.9419
  980MOL0     H32283   5.956   7.301   3.781  1.2708 -0.3867 -1.1048
  980MOL0     H32284   4.791   7.806   4.150  1.9606 -1.5555  2.0534
  980MOL0     H32285   4.781   7.570   4.189  0.4831  1.4685  0.5750
  980MOL0     H32286   4.473   7.068   3.965  0.6470 -2.4326 -0.9734
  980MOL0     H32287   4.546   6.828   4.034 -0.0624 -1.6513  3.2424
  980MOL0     H32288   4.758   6.761   4.420  2.6763 -0.8421  1.2850
  980MOL0     H32289   4.894   6.794   4.307 -0.0474 -0.4719  1.1780
  980MOL0     H32290   4.874   6.554   4.393  1.6569  2.4989  0.5677
  980MOL0     H32291   4.874   6.558   4.216  0.3830 -1.0422  0.4240
  980MOL0     H32292   4.643   6.527   4.204  1.1966  6.4612  1.1199
  980MOL0     H32293   4.618   6.575   4.364  0.6914 -0.9600  2.3372
  980MOL0     H32294   4.757   6.371   4.446 -1.9353 -0.9762  1.1313
  980MOL0     H32295   4.604   6.324   4.364  0.2853 -2.1554 -1.6561
  980MOL0     H32296   4.930   6.179   4.127  2.0051 -0.1932  0.4068
  980MOL0     H32297   4.800   7.014   4.331 -0.7950  0.6370  0.0375
  980MOL0     H32298   4.800   7.313   4.254  5.0296 -1.2881  2.4340
  980MOL0     H32299   4.644   7.287   4.364  0.8391  1.1727  0.4823
  980MOL0     H32300   4.804   7.211   4.389 -1.0407 -2.6233 -1.0889
  981MOL0     O32301   3.994  11.067   1.041 -0.1549  0.8717  0.2562
  981MOL0     C32302   4.051  10.982   1.111 -0.4641 -0.2925  1.1311
  981MOL0     O32303   4.187  10.972   1.126  0.0089  0.4111  0.7523
  981MOL0     C32304   4.267  11.032   1.033  0.0603  0.3919  0.1469
  981MOL0     C32305   4.374  11.103   1.092 -0.2559  0.7617  0.9196
  981MOL0     C32306   4.449  11.175   0.994  0.9314  0.0231 -0.2153
  981MOL0     C32307   4.446  11.160   0.855  0.9618  1.1038 -0.2411
  981MOL0     O32308   4.538  11.221   0.769  0.4923  0.1970 -0.1042
  981MOL0     C32309   4.557  11.163   0.637  0.0836  0.2400  1.0572
  981MOL0     C32310   4.694  11.200   0.582 -1.1808  0.0217  0.9547
  981MOL0     C32311   4.706  11.176   0.436  0.1127 -0.0971  0.8103
  981MOL0     C32312   4.832  11.258   0.383  0.8732  0.1469  0.4748
  981MOL0     C32313   4.826  11.250   0.228  0.8979  0.4532 -0.0603
  981MOL0     C32314   4.953  11.314   0.171  0.4604 -0.5204 -0.1529
  981MOL0     C32315   4.958  11.322   0.020 -0.3285  0.2000 -0.6594
  981MOL0     C32316   4.935  11.181  -0.043  0.5332 -0.2437  0.1852
  981MOL0     N32317   4.958  11.180  -0.184  0.3157  0.8505  0.6546
  981MOL0     C32318   5.071  11.168  -0.253 -0.4718  0.6447 -0.8669
  981MOL0     C32319   5.044  11.202  -0.376  0.1669  1.0054  0.0894
  981MOL0     C32320   5.141  11.185  -0.484 -0.3916  0.9736  0.0086
  981MOL0     C32321   5.134  11.295  -0.590  0.1455  0.4281  0.5291
  981MOL0     C32322   5.234  11.299  -0.711  0.6358  0.4899 -0.7812
  981MOL0     C32323   5.204  11.417  -0.801 -0.4878  0.9187 -0.7103
  981MOL0     O32324   5.065  11.415  -0.855 -0.0099  0.2081 -0.6909
  981MOL0     C32325   5.056  11.315  -0.960  0.8746 -0.2663 -0.8101
  981MOL0     C32326   4.935  11.251  -0.968  0.7437  0.0549  0.3894
  981MOL0     C32327   4.903  11.158  -1.078 -0.9508 -0.1051  0.5960
  981MOL0     C32328   4.980  11.142  -1.191 -0.8506 -0.0987  1.0373
  981MOL0     C32329   4.951  11.061  -1.310 -0.3182 -0.2354 -0.1466
  981MOL0     O32330   4.987  11.131  -1.422  0.0429  0.0814  0.4343
  981MOL0     C32331   4.941  11.093  -1.545  0.1947 -0.5786 -1.0722
  981MOL0     C32332   5.016  11.120  -1.655  0.0108 -0.2264  0.4084
  981MOL0     C32333   4.967  11.082  -1.788  0.4590 -0.5947 -1.2716
  981MOL0     C32334   4.839  11.025  -1.804  0.0471 -0.0485 -0.0661
  981MOL0     O32335   4.810  10.995  -1.929  0.9115  0.1294  0.0992
  981MOL0     C32336   4.674  11.014  -1.955  0.2902  0.0379 -0.6728
  981MOL0     C32337   4.653  11.048  -2.103  0.3527  0.4223 -0.4422
  981MOL0     C32338   4.632  11.201  -2.113  0.8828 -0.1578 -0.4282
  981MOL0     C32339   4.741  11.289  -2.060 -0.0930  0.7462 -0.0772
  981MOL0     C32340   4.713  11.442  -2.081 -0.5255 -0.1041  0.0978
  981MOL0     C32341   4.814  11.526  -2.008 -0.1757 -0.9436 -0.0611
  981MOL0     C32342   4.781  11.669  -2.048  0.8510 -0.7415 -0.6163
  981MOL0     C32343   4.886  11.763  -1.984  0.7011  0.2019  0.0715
  981MOL0    Cl32344   4.819  11.931  -2.015  0.8870 -0.1657 -0.8187
  981MOL0     C32345   4.771  10.985  -1.687  0.4678 -0.1241 -0.0323
  981MOL0     C32346   4.816  11.034  -1.563 -0.8520 -0.1988 -0.6204
  981MOL0     O32347   4.905  10.943  -1.300  0.3786 -0.2268 -0.2408
  981MOL0     C32348   5.098  11.225  -1.191 -0.6764  0.0264 -0.1193
  981MOL0     C32349   5.137  11.301  -1.072 -0.3598 -0.3349 -0.5178
  981MOL0     N32350   4.917  11.242  -0.396 -0.1177  1.1423  0.3077
  981MOL0     N32351   4.870  11.233  -0.276 -0.7969 -0.5085  0.0804
  981MOL0     C32352   4.344  11.078   0.803  0.3868 -1.0716  0.4420
  981MOL0     C32353   4.254  11.019   0.891  0.3034  0.4137 -0.1200
  981MOL0     C32354   3.958  10.888   1.175 -0.2638  0.4905  0.0958
  981MOL0     C32355   3.833  10.939   1.210  0.1785 -0.4091  0.2451
  981MOL0     C32356   3.740  10.862   1.281  0.1328  0.0875 -0.6930
  981MOL0     C32357   3.767  10.724   1.307 -0.5726 -1.0794 -0.7347
  981MOL0     O32358   3.681  10.628   1.355  0.2548 -0.2050  0.0756
  981MOL0     C32359   3.551  10.663   1.408 -0.1283  0.1506  0.2543
  981MOL0     C32360   3.476  10.540   1.433  0.7047  0.7133  0.4976
  981MOL0     C32361   3.546  10.433   1.526  0.2489 -0.6318  0.7318
  981MOL0     C32362   3.444  10.342   1.591  0.7537 -0.2144  0.3508
  981MOL0     C32363   3.412  10.234   1.496 -0.0027 -0.4311  1.3803
  981MOL0     C32364   3.380  10.130   1.438  0.5785 -0.5187 -0.6925
  981MOL0     C32365   3.900  10.682   1.282  0.2352 -0.8366 -0.3035
  981MOL0     C32366   3.995  10.754   1.213  0.9898  0.1680  0.3144
  981MOL0     C32367   4.131  10.690   1.174  0.0811  0.8692 -0.7480
  981MOL0     H32368   4.394  11.091   1.198 -0.0323 -2.5733  0.6036
  981MOL0     H32369   4.519  11.246   1.038 -0.2161  0.1755  1.4130
  981MOL0     H32370   4.557  11.054   0.647 -2.4613 -0.0187 -0.8222
  981MOL0     H32371   4.477  11.196   0.570  2.6746  1.6721 -1.5408
  981MOL0     H32372   4.771  11.137   0.627 -0.2698 -3.2033 -4.3101
  981MOL0     H32373   4.714  11.306   0.600  4.2923 -0.5759  0.0266
  981MOL0     H32374   4.614  11.212   0.390  1.7223  1.1173 -1.7213
  981MOL0     H32375   4.727  11.073   0.408  0.6795 -0.4024  2.2591
  981MOL0     H32376   4.843  11.360   0.422  2.8920  1.7432 -3.6650
  981MOL0     H32377   4.915  11.206   0.431 -1.4647 -3.3608  1.0907
  981MOL0     H32378   4.821  11.146   0.195 -0.3820  1.2077 -2.5002
  981MOL0     H32379   4.735  11.299   0.192 -1.0022 -2.4003  0.5312
  981MOL0     H32380   4.962  11.413   0.216 -1.7975 -0.6667  0.7275
  981MOL0     H32381   5.033  11.254   0.215 -1.4398 -1.4087  2.3629
  981MOL0     H32382   5.060  11.352  -0.005 -0.4518 -0.4519 -2.0376
  981MOL0     H32383   4.874  11.381  -0.018 -2.1656 -2.8536 -1.6952
  981MOL0     H32384   4.995  11.106   0.009  0.1494  1.0588  2.6539
  981MOL0     H32385   4.835  11.139  -0.029  0.3497  0.1974  0.2049
  981MOL0     H32386   5.167  11.140  -0.209 -0.8382 -0.9064 -0.9811
  981MOL0     H32387   5.243  11.196  -0.445 -1.1337  0.9255  2.1149
  981MOL0     H32388   5.130  11.088  -0.533  1.8931  0.9572 -0.5900
  981MOL0     H32389   5.028  11.289  -0.615  0.2498  0.3090  0.1126
  981MOL0     H32390   5.149  11.393  -0.544  1.2092 -0.8548  3.1799
  981MOL0     H32391   5.215  11.212  -0.775 -3.4103  0.1976  0.5402
  981MOL0     H32392   5.333  11.303  -0.666  1.0639 -0.9722 -1.5360
  981MOL0     H32393   5.280  11.441  -0.875 -1.0790  0.8893 -1.3328
  981MOL0     H32394   5.206  11.501  -0.732 -2.3088 -0.8247  1.6481
  981MOL0     H32395   4.872  11.258  -0.880  1.8570  1.5805  1.0996
  981MOL0     H32396   4.807  11.109  -1.079 -0.6206 -0.7647  0.2910
  981MOL0     H32397   5.107  11.177  -1.638 -0.3358  0.3500  0.3534
  981MOL0     H32398   5.017  11.116  -1.878 -1.8288 -0.1289 -2.4513
  981MOL0     H32399   4.614  10.924  -1.936 -0.1699  0.3522 -0.6417
  981MOL0     H32400   4.633  11.092  -1.891  0.2659  0.3108 -1.0211
  981MOL0     H32401   4.747  11.015  -2.150  0.0963 -0.0093 -0.6581
  981MOL0     H32402   4.568  10.992  -2.142  0.3338 -2.6198  3.3589
  981MOL0     H32403   4.622  11.222  -2.220  2.9723 -0.4785 -0.7293
  981MOL0     H32404   4.540  11.240  -2.068  0.6742  0.2191 -1.1686
  981MOL0     H32405   4.831  11.249  -2.108 -1.2667  1.4015 -3.0642
  981MOL0     H32406   4.760  11.267  -1.955  2.7010 -0.5139 -0.7627
  981MOL0     H32407   4.613  11.469  -2.048 -0.4964 -0.7980  0.7514
  981MOL0     H32408   4.721  11.466  -2.188 -1.1669  0.2545  0.1241
  981MOL0     H32409   4.804  11.518  -1.899 -2.8133 -0.3292 -0.1997
  981MOL0     H32410   4.916  11.510  -2.044  0.3293 -1.6924  1.6180
  981MOL0     H32411   4.682  11.689  -2.007  1.2419 -1.8266  0.9636
  981MOL0     H32412   4.790  11.692  -2.154  2.0677  1.5394 -0.0875
  981MOL0     H32413   4.878  11.737  -1.878 -4.5837 -3.2912 -0.7917
  981MOL0     H32414   4.978  11.736  -2.036 -0.7994 -1.8992 -1.7274
  981MOL0     H32415   4.694  10.909  -1.687  0.4997 -0.1563  0.1753
  981MOL0     H32416   4.758  11.014  -1.473 -2.7344  0.5140 -1.6299
  981MOL0     H32417   5.176  11.221  -1.266  1.8253 -0.9492  2.3911
  981MOL0     H32418   5.218  11.372  -1.067  0.9636 -1.7441  5.1340
  981MOL0     H32419   4.327  11.063   0.697 -0.5445 -1.9722  0.7039
  981MOL0     H32420   4.172  10.961   0.850 -0.4021  1.6362 -0.4759
  981MOL0     H32421   3.813  11.044   1.189  2.2679  0.8520  3.7178
  981MOL0     H32422   3.641  10.901   1.304  0.5600  3.6386 -3.7730
  981MOL0     H32423   3.500  10.728   1.336 -0.3349 -0.4731 -0.1716
  981MOL0     H32424   3.563  10.712   1.506  0.7043 -3.3017  2.0400
  981MOL0     H32425   3.453  10.493   1.337 -3.1683  0.0784  1.5993
  981MOL0     H32426   3.383  10.566   1.484  0.9071 -1.4553  2.1121
  981MOL0     H32427   3.603  10.491   1.600  0.2925  2.7181 -1.6604
  981MOL0     H32428   3.599  10.373   1.452 -0.4692 -0.9133  0.4396
  981MOL0     H32429   3.490  10.292   1.677 -0.2013 -2.0639 -0.1580
  981MOL0     H32430   3.350  10.392   1.619  0.0389 -1.2421 -0.1639
  981MOL0     H32431   3.334  10.042   1.398  0.2362 -2.0104  2.7116
  981MOL0     H32432   3.929  10.583   1.314 -1.1060 -1.5147 -1.1347
  981MOL0     H32433   4.209  10.747   1.225 -0.9231 -1.1480  3.4318
  981MOL0     H32434   4.155  10.591   1.215 -0.6679  2.4512  4.1327
  981MOL0     H32435   4.140  10.691   1.065 -0.0870  0.1822 -0.7720
  982MOL0     O32436   6.038   5.331   5.855  0.2848  0.0620  1.3484
  982MOL0     C32437   5.958   5.373   5.938 -0.7556  0.4721 -0.7826
  982MOL0     O32438   5.837   5.422   5.915  0.2457  0.4991 -0.3957
  982MOL0     C32439   5.800   5.440   5.790 -0.5607 -0.9412  0.3774
  982MOL0     C32440   5.852   5.541   5.703  0.3242 -0.1310  0.2790
  982MOL0     C32441   5.812   5.550   5.566  1.5295  0.2779  1.4607
  982MOL0     C32442   5.721   5.443   5.518 -0.6912 -0.8869 -0.3051
  982MOL0     O32443   5.693   5.449   5.385  0.4950  0.7265  0.2897
  982MOL0     C32444   5.654   5.326   5.322 -0.2780 -0.2618 -0.3516
  982MOL0     C32445   5.637   5.333   5.171 -0.2564  0.0867  0.1758
  982MOL0     C32446   5.545   5.456   5.140 -0.6501  0.3082 -0.4826
  982MOL0     C32447   5.517   5.450   4.991 -0.0742 -0.2898 -0.5755
  982MOL0     C32448   5.419   5.564   4.959  0.6465 -0.5759  0.2356
  982MOL0     C32449   5.266   5.532   4.991 -0.2877  0.0447  0.0820
  982MOL0     C32450   5.167   5.626   4.931 -0.3098 -0.3857 -1.0747
  982MOL0     C32451   5.136   5.609   4.784  0.6742  0.0363  0.2001
  982MOL0     N32452   5.065   5.715   4.719 -0.3672  0.0293 -0.1432
  982MOL0     C32453   5.115   5.844   4.688 -0.2729 -0.7449 -0.8361
  982MOL0     C32454   4.997   5.905   4.642 -1.1871  0.7086  0.3386
  982MOL0     C32455   5.015   6.051   4.596  1.4912  0.8798  0.0793
  982MOL0     C32456   5.036   6.146   4.718  0.3970  0.8711  0.8180
  982MOL0     C32457   5.061   6.288   4.672  0.3851  0.3477 -0.6010
  982MOL0     C32458   5.128   6.388   4.769 -0.8436  0.1629 -0.5668
  982MOL0     O32459   5.271   6.363   4.756 -0.1776  0.5265  0.0058
  982MOL0     C32460   5.343   6.273   4.825 -0.0925  0.1164 -0.2391
  982MOL0     C32461   5.308   6.206   4.941 -0.2121  0.2511  0.3458
  982MOL0     C32462   5.394   6.104   4.995  0.9789  0.3865 -0.6907
  982MOL0     C32463   5.520   6.071   4.937 -0.4748 -0.2668  0.2299
  982MOL0     C32464   5.609   5.959   4.983 -0.3961  0.5934 -0.5676
  982MOL0     O32465   5.741   5.967   4.955  0.4927 -0.2846 -0.0268
  982MOL0     C32466   5.820   5.859   4.992 -0.4504  0.2762  0.8850
  982MOL0     C32467   5.925   5.877   5.073 -0.5343 -0.2053 -0.2814
  982MOL0     C32468   6.030   5.789   5.097  0.2806  0.4364  0.6033
  982MOL0     C32469   6.009   5.655   5.049 -0.2160 -0.9655  0.5523
  982MOL0     O32470   6.091   5.548   5.077 -0.5171  0.4238  0.4086
  982MOL0     C32471   6.232   5.569   5.078 -0.7419  0.5310  0.2764
  982MOL0     C32472   6.288   5.456   4.994 -0.3979  0.0467 -0.2509
  982MOL0     C32473   6.289   5.322   5.054  0.1819  0.3022 -0.5379
  982MOL0     C32474   6.291   5.219   4.937  0.1795  0.1211 -0.0121
  982MOL0     C32475   6.355   5.083   4.951  0.6200  0.7235 -0.3108
  982MOL0     C32476   6.299   4.997   5.066 -0.4263 -1.0046  0.5361
  982MOL0     C32477   6.374   4.863   5.069  0.2763 -0.2861  0.1830
  982MOL0     C32478   6.321   4.767   5.180  0.0967 -0.2206  0.2409
  982MOL0    Cl32479   6.436   4.625   5.182 -0.0137 -1.0391 -0.0776
  982MOL0     C32480   5.900   5.626   4.965  0.4740  0.9704  0.6563
  982MOL0     C32481   5.814   5.731   4.927  0.1678  0.8471  0.5726
  982MOL0     O32482   5.553   5.873   5.046 -0.8111 -0.1006  0.1981
  982MOL0     C32483   5.553   6.140   4.815 -0.0777 -0.0736  0.1164
  982MOL0     C32484   5.468   6.237   4.771  0.2440  0.0969 -0.3499
  982MOL0     N32485   4.886   5.820   4.643  0.2149  0.2376  0.2861
  982MOL0     N32486   4.933   5.704   4.691 -0.4198 -0.1671 -0.1089
  982MOL0     C32487   5.674   5.343   5.608  0.2626 -0.1945  0.9261
  982MOL0     C32488   5.708   5.349   5.733  0.3256  0.1583 -0.3141
  982MOL0     C32489   6.022   5.405   6.069 -0.4991  1.3397  0.7197
  982MOL0     C32490   5.993   5.528   6.136 -0.1183 -0.8501  0.4251
  982MOL0     C32491   6.056   5.568   6.257 -0.3636  1.0827  0.3427
  982MOL0     C32492   6.151   5.475   6.307  0.2179 -0.2214  0.6969
  982MOL0     O32493   6.242   5.514   6.395 -0.3071 -0.5129 -0.7680
  982MOL0     C32494   6.208   5.512   6.530 -0.1418  0.5608  1.1123
  982MOL0     C32495   6.306   5.591   6.597 -0.2533  1.0804  0.8962
  982MOL0     C32496   6.315   5.735   6.545  0.0934  0.0266  0.9372
  982MOL0     C32497   6.184   5.829   6.555  0.1238 -0.4262  1.0498
  982MOL0     C32498   6.169   5.860   6.689 -0.4653 -0.6398  0.7670
  982MOL0     C32499   6.178   5.897   6.811 -0.5581  0.2578  0.9808
  982MOL0     C32500   6.168   5.346   6.251  0.1619 -0.5117 -0.1121
  982MOL0     C32501   6.106   5.312   6.133  0.2215  1.2090 -0.0640
  982MOL0     C32502   6.146   5.177   6.066  0.6120 -1.1138 -0.7504
  982MOL0     H32503   5.928   5.606   5.744  0.1089  1.1854 -1.2646
  982MOL0     H32504   5.834   5.628   5.494  2.5638 -0.9801  0.3649
  982MOL0     H32505   5.713   5.240   5.352  0.1724 -0.4529 -1.7196
  982MOL0     H32506   5.552   5.312   5.359 -0.3860  4.3521  1.8492
  982MOL0     H32507   5.599   5.239   5.129  0.2771  1.2384 -3.2603
  982MOL0     H32508   5.738   5.336   5.127 -0.4120 -2.8853 -0.6051
  982MOL0     H32509   5.604   5.546   5.158  0.7058 -0.4852 -0.8138
  982MOL0     H32510   5.458   5.443   5.205 -0.3028  0.8147  0.0937
  982MOL0     H32511   5.616   5.466   4.945  1.4254 -2.4732  1.6197
  982MOL0     H32512   5.468   5.355   4.968 -2.3519  1.0189 -1.3548
  982MOL0     H32513   5.447   5.645   5.026 -0.4645 -0.7343  0.9158
  982MOL0     H32514   5.431   5.601   4.856 -1.5122  0.9729  0.4636
  982MOL0     H32515   5.244   5.429   4.960  2.3991 -0.0902 -1.5875
  982MOL0     H32516   5.246   5.537   5.099  2.8784 -1.3060  0.8405
  982MOL0     H32517   5.207   5.727   4.944  0.0675 -0.6199 -0.3322
  982MOL0     H32518   5.078   5.611   4.993  0.7770 -1.2411  0.3490
  982MOL0     H32519   5.227   5.579   4.731  0.1139 -0.5390 -0.4586
  982MOL0     H32520   5.072   5.521   4.785 -1.3104  1.4252  1.5419
  982MOL0     H32521   5.215   5.884   4.688 -0.1090 -0.9874  1.8392
  982MOL0     H32522   5.091   6.038   4.519  1.3494 -0.6254  0.1652
  982MOL0     H32523   4.924   6.079   4.543  0.3179 -0.6344  1.2197
  982MOL0     H32524   4.938   6.151   4.767  0.2128 -3.5357  1.2789
  982MOL0     H32525   5.114   6.115   4.788  2.4610  1.9265 -0.8744
  982MOL0     H32526   4.958   6.321   4.657 -1.0791 -2.9880  1.0683
  982MOL0     H32527   5.119   6.288   4.579  1.1846  0.2745 -0.1087
  982MOL0     H32528   5.103   6.378   4.875  0.9821  0.0074 -0.1211
  982MOL0     H32529   5.103   6.489   4.734 -3.4013  0.1798  1.0481
  982MOL0     H32530   5.208   6.218   4.983 -0.3948 -2.3057  0.8024
  982MOL0     H32531   5.373   6.044   5.083 -1.7658  3.9253  1.3496
  982MOL0     H32532   5.948   5.976   5.111 -1.4046  1.1361 -3.0293
  982MOL0     H32533   6.109   5.824   5.162  1.5742 -0.2553 -0.5496
  982MOL0     H32534   6.264   5.664   5.034  2.4091 -0.2677  0.5971
  982MOL0     H32535   6.270   5.557   5.180  0.1056 -2.6591 -0.2907
  982MOL0     H32536   6.238   5.457   4.897  1.0418 -0.2276 -1.0301
  982MOL0     H32537   6.393   5.479   4.970  0.4080 -0.7747  2.1816
  982MOL0     H32538   6.368   5.299   5.127  0.7487  0.1196 -1.1985
  982MOL0     H32539   6.198   5.296   5.108  2.4860 -2.4246  2.4355
  982MOL0     H32540   6.342   5.270   4.855  1.0052  2.9793  2.0868
  982MOL0     H32541   6.185   5.208   4.915  0.1277 -0.5669  0.5448
  982MOL0     H32542   6.464   5.082   4.942  0.8221 -3.6730  0.4945
  982MOL0     H32543   6.329   5.026   4.861  0.9569  0.4494 -0.2365
  982MOL0     H32544   6.319   5.047   5.161 -0.0544 -5.4557  3.0943
  982MOL0     H32545   6.190   4.986   5.059 -0.8747 -0.7500  4.8131
  982MOL0     H32546   6.480   4.883   5.085  1.0352 -2.6218 -1.5298
  982MOL0     H32547   6.364   4.817   4.971 -1.1479  3.0657 -1.4042
  982MOL0     H32548   6.305   4.827   5.270  3.6007  2.9594 -0.9631
  982MOL0     H32549   6.218   4.737   5.162 -0.6825 -0.2317  3.9309
  982MOL0     H32550   5.870   5.527   4.932 -4.7679  3.4955 -3.7712
  982MOL0     H32551   5.721   5.722   4.873 -1.7767 -0.7586  3.9122
  982MOL0     H32552   5.647   6.118   4.765  0.1214 -1.8375  1.1766
  982MOL0     H32553   5.506   6.304   4.694 -1.5785  1.4368 -0.1567
  982MOL0     H32554   5.624   5.256   5.566  1.8762 -0.7799  0.1009
  982MOL0     H32555   5.669   5.272   5.799  1.0581  1.2888  1.5290
  982MOL0     H32556   5.947   5.616   6.091  1.7223  0.9055  1.7484
  982MOL0     H32557   6.033   5.654   6.320  0.5450  1.1807  0.5559
  982MOL0     H32558   6.216   5.411   6.571 -4.9104 -0.0439  1.1676
  982MOL0     H32559   6.106   5.547   6.547  0.7066  3.0002  1.4860
  982MOL0     H32560   6.397   5.538   6.569 -1.7402 -0.7746 -0.7153
  982MOL0     H32561   6.279   5.596   6.703  2.8480  0.9376  1.7927
  982MOL0     H32562   6.340   5.734   6.439 -0.7435 -0.5547  0.7358
  982MOL0     H32563   6.400   5.786   6.592  0.1847 -0.2131  1.0380
  982MOL0     H32564   6.207   5.923   6.505  0.3177 -0.6024  0.8068
  982MOL0     H32565   6.089   5.793   6.513  1.0024 -1.8148  0.1726
  982MOL0     H32566   6.196   5.951   6.902 -1.2718 -1.0959  1.9612
  982MOL0     H32567   6.242   5.276   6.289  1.2935  1.9028  2.4353
  982MOL0     H32568   6.052   5.121   6.074 -0.6849  1.1754  3.0024
  982MOL0     H32569   6.187   5.183   5.965 -0.5624  1.1661 -1.1559
  982MOL0     H32570   6.225   5.127   6.123  1.9499  1.8399  0.2039
  983MOL0     O32571   1.428   4.260   1.061  1.2267 -0.8596  0.9837
  983MOL0     C32572   1.340   4.171   1.036 -0.2997 -0.2220  0.3063
  983MOL0     O32573   1.257   4.159   0.913 -0.8043  0.1927 -1.0598
  983MOL0     C32574   1.276   4.245   0.800 -0.5628  0.5453  0.1361
  983MOL0     C32575   1.180   4.220   0.700  0.4248 -0.0884  0.2456
  983MOL0     C32576   1.178   4.303   0.581 -1.3385 -0.3345 -0.4012
  983MOL0     C32577   1.285   4.384   0.548  0.1779  0.5166 -0.0635
  983MOL0     O32578   1.264   4.452   0.426 -0.5976 -0.3195 -0.0924
  983MOL0     C32579   1.377   4.487   0.350 -0.2123  0.7430 -0.0773
  983MOL0     C32580   1.480   4.370   0.324  0.6717 -1.1492  0.1924
  983MOL0     C32581   1.419   4.253   0.251 -0.3853 -0.0180  0.2739
  983MOL0     C32582   1.505   4.128   0.265  0.4532  0.5299 -0.0521
  983MOL0     C32583   1.448   4.029   0.151 -0.5510 -0.9553  0.2533
  983MOL0     C32584   1.349   3.928   0.192  0.2029  0.7093  0.4722
  983MOL0     C32585   1.322   3.840   0.067  0.7982  0.0043  0.0107
  983MOL0     C32586   1.182   3.780   0.064  1.0309 -0.5341 -0.4581
  983MOL0     N32587   1.103   3.893   0.019  0.4301  0.3158  0.4581
  983MOL0     C32588   1.091   3.921  -0.114  0.8045  0.9132 -0.5853
  983MOL0     C32589   1.014   4.037  -0.107  0.3417 -0.7009  0.1544
  983MOL0     C32590   0.964   4.095  -0.239  0.0642 -0.5104  0.0540
  983MOL0     C32591   0.987   4.253  -0.254  0.2397  0.5963  0.6472
  983MOL0     C32592   1.129   4.302  -0.286 -0.9381  1.0583 -1.5097
  983MOL0     C32593   1.234   4.281  -0.186  0.8201  0.2025 -1.5176
  983MOL0     O32594   1.355   4.359  -0.200  0.1291  0.4705 -0.0043
  983MOL0     C32595   1.376   4.475  -0.131  0.2052 -0.1255 -1.8089
  983MOL0     C32596   1.501   4.533  -0.131  0.3369 -0.1600  0.5804
  983MOL0     C32597   1.533   4.645  -0.057  0.5403 -0.2885 -0.1863
  983MOL0     C32598   1.427   4.719   0.004 -0.2648  1.3258 -0.6064
  983MOL0     C32599   1.460   4.853   0.066  0.9684  0.1174 -0.6108
  983MOL0     O32600   1.578   4.907   0.017  0.9334 -0.1065  0.2128
  983MOL0     C32601   1.595   5.041   0.045 -0.0168  0.3044 -0.5526
  983MOL0     C32602   1.533   5.134  -0.042  0.3515  0.8435 -0.3734
  983MOL0     C32603   1.529   5.271  -0.015 -0.5507 -0.6310  0.2995
  983MOL0     C32604   1.559   5.321   0.115  0.2430  0.6522  0.3077
  983MOL0     O32605   1.555   5.447   0.157 -0.1103  0.3760 -0.4322
  983MOL0     C32606   1.540   5.545   0.061 -0.5814  0.6803  0.9950
  983MOL0     C32607   1.568   5.682   0.122  0.4093  0.4918  0.7101
  983MOL0     C32608   1.547   5.806   0.041  0.4386 -0.7168 -0.1268
  983MOL0     C32609   1.637   5.831  -0.075 -0.0856  0.3561 -0.0642
  983MOL0     C32610   1.620   5.971  -0.133 -0.0465  0.2555 -0.1982
  983MOL0     C32611   1.710   6.016  -0.253  1.2344 -0.9837  0.3602
  983MOL0     C32612   1.696   5.926  -0.376  0.4917  0.4745  0.2632
  983MOL0     C32613   1.714   5.989  -0.514 -0.4774  0.6019  0.4046
  983MOL0    Cl32614   1.690   5.880  -0.653 -0.5342  0.3685  0.3645
  983MOL0     C32615   1.605   5.225   0.206 -0.1441 -0.7446 -0.7754
  983MOL0     C32616   1.626   5.094   0.171  0.9330 -0.1009  0.4908
  983MOL0     O32617   1.375   4.907   0.140 -0.2519  0.8234  0.2450
  983MOL0     C32618   1.298   4.663   0.008 -0.5788  1.5012 -1.1076
  983MOL0     C32619   1.265   4.541  -0.055  0.3545  0.4149 -0.1096
  983MOL0     N32620   0.982   4.068   0.020  0.2469 -0.7239 -0.6951
  983MOL0     N32621   1.038   3.981   0.098  0.4523  0.2789  0.0982
  983MOL0     C32622   1.381   4.400   0.641 -0.3196 -0.1571 -0.5475
  983MOL0     C32623   1.375   4.335   0.764 -0.0188 -0.1010  0.1202
  983MOL0     C32624   1.312   4.092   1.156  0.2208  0.2280 -0.2102
  983MOL0     C32625   1.411   4.082   1.260  1.0671 -0.1636  0.6526
  983MOL0     C32626   1.387   4.017   1.382 -0.5129 -0.3718  0.4337
  983MOL0     C32627   1.251   3.968   1.410  0.1737  0.7076 -0.1528
  983MOL0     O32628   1.210   3.913   1.523 -0.1551  0.4438 -0.4884
  983MOL0     C32629   1.293   3.926   1.643 -0.5377 -0.2577  0.9070
  983MOL0     C32630   1.234   3.843   1.746 -0.8364 -0.2673  0.2412
  983MOL0     C32631   1.087   3.863   1.762  0.2492 -0.0409 -0.3124
  983MOL0     C32632   1.046   3.995   1.807  0.0982 -0.1323  0.5635
  983MOL0     C32633   0.905   4.005   1.864  0.5712  0.3511 -0.4773
  983MOL0     C32634   0.788   4.022   1.887 -0.5428 -0.4190  0.2219
  983MOL0     C32635   1.157   3.970   1.310 -0.2840 -0.8046  0.4671
  983MOL0     C32636   1.190   4.025   1.177 -0.6300 -0.4776 -0.0015
  983MOL0     C32637   1.085   4.006   1.071 -0.0285 -0.6195 -0.5813
  983MOL0     H32638   1.096   4.154   0.718 -2.1176  3.1188  1.1091
  983MOL0     H32639   1.090   4.307   0.517 -1.3458 -0.6590 -0.4156
  983MOL0     H32640   1.348   4.545   0.262 -1.6695  0.3549  0.1243
  983MOL0     H32641   1.432   4.559   0.413  0.9755 -0.5670  0.4365
  983MOL0     H32642   1.530   4.339   0.417  0.0217 -4.0136 -0.3308
  983MOL0     H32643   1.556   4.413   0.259  0.5829  1.1606  1.5131
  983MOL0     H32644   1.428   4.275   0.144 -0.5608 -1.0102  0.0444
  983MOL0     H32645   1.314   4.230   0.271 -0.7023  0.5450 -0.6633
  983MOL0     H32646   1.609   4.152   0.243  0.5987 -1.2167 -1.4709
  983MOL0     H32647   1.478   4.098   0.366 -1.1558  1.4214 -0.1861
  983MOL0     H32648   1.416   4.088   0.064  1.5717 -0.5987 -0.3543
  983MOL0     H32649   1.545   3.993   0.115 -0.5420 -2.3873  1.6157
  983MOL0     H32650   1.378   3.864   0.276 -1.0139  0.2671  0.5766
  983MOL0     H32651   1.263   3.992   0.215 -3.0079 -0.6712 -5.4659
  983MOL0     H32652   1.388   3.753   0.062 -1.3768 -1.6804 -1.4904
  983MOL0     H32653   1.344   3.893  -0.025 -3.1382 -1.8261 -2.2229
  983MOL0     H32654   1.172   3.700  -0.009  0.9086 -0.7825 -0.1707
  983MOL0     H32655   1.137   3.739   0.155 -0.1127  1.4978 -0.0302
  983MOL0     H32656   1.121   3.855  -0.195 -0.6559  0.3980 -0.7399
  983MOL0     H32657   1.030   4.058  -0.318  0.1805 -0.7064  0.2428
  983MOL0     H32658   0.861   4.062  -0.259 -0.1571 -1.4124  2.3540
  983MOL0     H32659   0.931   4.281  -0.344  1.2938 -2.6668 -1.2370
  983MOL0     H32660   0.965   4.326  -0.176  0.7490 -0.3463  1.7054
  983MOL0     H32661   1.113   4.408  -0.309 -0.9912  0.8804 -2.3175
  983MOL0     H32662   1.153   4.242  -0.374 -4.0590 -2.9534  0.0527
  983MOL0     H32663   1.244   4.172  -0.181  0.7765 -0.0288 -4.4573
  983MOL0     H32664   1.183   4.310  -0.094  2.6248 -1.8637  0.2441
  983MOL0     H32665   1.583   4.483  -0.182  0.2275  2.3220 -2.3516
  983MOL0     H32666   1.631   4.690  -0.059  0.3496  0.1095 -0.8711
  983MOL0     H32667   1.501   5.091  -0.137  3.8417 -1.3015 -0.7340
  983MOL0     H32668   1.504   5.333  -0.101  1.1438 -1.6725 -1.0246
  983MOL0     H32669   1.615   5.518  -0.014  0.2132 -3.7688  3.0568
  983MOL0     H32670   1.438   5.532   0.024 -0.4286  2.2365 -0.1144
  983MOL0     H32671   1.519   5.683   0.220  0.6021 -5.0355  1.1442
  983MOL0     H32672   1.675   5.683   0.144  0.7461 -0.6842 -0.7090
  983MOL0     H32673   1.443   5.810   0.008  0.5101  2.4001 -0.2744
  983MOL0     H32674   1.570   5.891   0.105  1.1060  1.0004 -2.4836
  983MOL0     H32675   1.612   5.768  -0.161 -0.3982  3.8805 -2.7973
  983MOL0     H32676   1.741   5.818  -0.044  0.6135  3.4028 -0.8082
  983MOL0     H32677   1.646   6.033  -0.047 -0.6042  1.6236 -0.9825
  983MOL0     H32678   1.514   5.986  -0.155 -0.3030 -0.9493  0.1471
  983MOL0     H32679   1.688   6.122  -0.267  1.6568 -1.0434 -0.9049
  983MOL0     H32680   1.812   6.009  -0.215  1.7108  3.8529  0.5842
  983MOL0     H32681   1.589   5.903  -0.382 -0.1384  3.2746 -1.0413
  983MOL0     H32682   1.752   5.834  -0.358  1.6414  1.4045  1.6585
  983MOL0     H32683   1.652   6.079  -0.523  0.4766  1.1550 -0.9556
  983MOL0     H32684   1.813   6.034  -0.521 -1.9951  4.4159  0.7234
  983MOL0     H32685   1.637   5.261   0.304  0.8926 -0.5479 -1.1752
  983MOL0     H32686   1.672   5.036   0.250  2.0897 -2.6694 -1.9108
  983MOL0     H32687   1.226   4.732   0.050 -0.1367  1.0768  0.3877
  983MOL0     H32688   1.161   4.511  -0.051  0.3728  0.4615  0.8777
  983MOL0     H32689   1.472   4.455   0.619  0.9805 -1.5024  1.1745
  983MOL0     H32690   1.465   4.356   0.820  0.5131  0.9494 -1.0780
  983MOL0     H32691   1.511   4.123   1.247  0.1467  1.4846 -2.2505
  983MOL0     H32692   1.465   4.012   1.458 -2.2232 -1.0415  2.2270
  983MOL0     H32693   1.308   4.033   1.660  0.2809 -0.3098  0.5624
  983MOL0     H32694   1.395   3.893   1.622 -0.7442 -1.2607  1.4394
  983MOL0     H32695   1.281   3.871   1.841 -0.3264  2.9853 -0.8420
  983MOL0     H32696   1.246   3.738   1.718 -0.4436  0.1484 -1.2082
  983MOL0     H32697   1.048   3.787   1.830  0.0138  1.0611  0.8156
  983MOL0     H32698   1.043   3.850   1.662  3.4360  0.4483 -1.8928
  983MOL0     H32699   1.123   4.039   1.871  1.3208 -0.2546 -0.7815
  983MOL0     H32700   1.053   4.065   1.723  0.8701  1.8955  2.2404
  983MOL0     H32701   0.686   4.034   1.920 -1.0549 -2.7314 -0.2717
  983MOL0     H32702   1.058   3.933   1.333 -0.0596  0.0455  3.1031
  983MOL0     H32703   1.115   3.942   0.988 -1.3129 -1.7962 -0.1812
  983MOL0     H32704   1.005   3.948   1.118 -1.2521  1.9139  0.6642
  983MOL0     H32705   1.040   4.100   1.035 -2.1173 -0.5611  1.9000
  984MOL0     O32706   3.318   0.101   7.215  0.0181  0.6818  0.1094
  984MOL0     C32707   3.387   0.013   7.258  0.0784  0.2510 -0.4364
  984MOL0     O32708   3.444   0.018   7.383  1.0494 -0.6701  0.1846
  984MOL0     C32709   3.455   0.138   7.448 -0.1918  0.7846 -0.5973
  984MOL0     C32710   3.342   0.199   7.498 -0.2642  0.4579 -0.1115
  984MOL0     C32711   3.361   0.319   7.570  0.9424 -0.4897 -0.4556
  984MOL0     C32712   3.489   0.370   7.589 -0.4434 -0.6644 -0.2522
  984MOL0     O32713   3.514   0.476   7.668 -0.1627  0.0331 -0.0130
  984MOL0     C32714   3.506   0.468   7.811 -0.1070  0.6109  0.7636
  984MOL0     C32715   3.483   0.610   7.858  0.9129 -0.0540 -0.4841
  984MOL0     C32716   3.435   0.615   8.004  0.4323  0.7932  0.5116
  984MOL0     C32717   3.541   0.589   8.106  0.5109  0.8794  0.2906
  984MOL0     C32718   3.647   0.705   8.098 -0.5875  0.2950  0.6105
  984MOL0     C32719   3.754   0.712   8.209  0.3117  0.0176 -0.1156
  984MOL0     C32720   3.691   0.744   8.350  0.0375 -0.5797  0.9188
  984MOL0     C32721   3.796   0.752   8.457 -0.5757  0.4168  0.1450
  984MOL0     N32722   3.764   0.838   8.577  0.7965  0.0227  0.0249
  984MOL0     C32723   3.707   0.795   8.699  0.3476 -0.1549  0.8653
  984MOL0     C32724   3.712   0.905   8.780  0.1470 -0.2624 -0.2718
  984MOL0     C32725   3.664   0.905   8.927 -0.5221 -0.0245  0.7262
  984MOL0     C32726   3.787   0.883   9.017 -0.2046 -0.2845 -0.1366
  984MOL0     C32727   3.751   0.902   9.166  0.7503 -0.4201 -0.1653
  984MOL0     C32728   3.848   0.856   9.275 -0.7789  1.0322 -0.2752
  984MOL0     O32729   3.873   0.717   9.255 -0.3326 -0.1085  0.6440
  984MOL0     C32730   3.943   0.659   9.359 -0.2186  0.2029  0.8782
  984MOL0     C32731   3.913   0.523   9.386  0.0876 -0.0838 -0.4501
  984MOL0     C32732   3.984   0.455   9.481  0.2108  0.6996  0.0123
  984MOL0     C32733   4.100   0.516   9.541 -0.6428  0.7092  1.4315
  984MOL0     C32734   4.184   0.447   9.638  0.3088 -0.7879  0.7972
  984MOL0     O32735   4.293   0.513   9.689  0.1401 -0.8180  0.7463
  984MOL0     C32736   4.381   0.445   9.768 -0.1853 -0.3060 -0.1287
  984MOL0     C32737   4.362   0.413   9.904 -0.5320 -0.1273  0.8797
  984MOL0     C32738   4.451   0.337   9.972  0.4742  0.1378 -0.2611
  984MOL0     C32739   4.575   0.299   9.914 -0.0196  0.1531  0.1154
  984MOL0     O32740   4.657   0.223   9.995  1.0615  0.0554  1.0036
  984MOL0     C32741   4.719   0.097   9.954 -0.6058 -0.8844  0.1379
  984MOL0     C32742   4.702  -0.010  10.066 -0.7012 -0.8988  0.3727
  984MOL0     C32743   4.782   0.037  10.196 -0.1382  1.1732  0.5100
  984MOL0     C32744   4.795  -0.091  10.285 -0.2053  0.7658  0.2331
  984MOL0     C32745   4.651  -0.136  10.351 -0.4899  0.0272 -0.7637
  984MOL0     C32746   4.616  -0.044  10.469 -0.2614 -0.4247  0.4094
  984MOL0     C32747   4.463  -0.038  10.497 -0.2654  0.1243 -0.6293
  984MOL0     C32748   4.402  -0.172  10.546  0.4425  0.4660  0.3725
  984MOL0    Cl32749   4.483  -0.229  10.690  0.4206  0.7118  0.6554
  984MOL0     C32750   4.600   0.331   9.777  0.7342  0.7235 -0.0441
  984MOL0     C32751   4.500   0.406   9.709 -0.1574  1.0643 -0.5040
  984MOL0     O32752   4.147   0.335   9.672 -0.0591 -0.2913  0.3458
  984MOL0     C32753   4.139   0.641   9.501  0.3507 -0.8400  0.1355
  984MOL0     C32754   4.061   0.716   9.416 -1.2235  0.4815 -0.9399
  984MOL0     N32755   3.779   1.005   8.707 -0.6784 -0.4602 -0.3517
  984MOL0     N32756   3.787   0.976   8.583  0.6554  0.1449 -1.0332
  984MOL0     C32757   3.600   0.312   7.521  0.2400  0.4485  0.6572
  984MOL0     C32758   3.583   0.194   7.445 -0.6467  0.7262 -0.8945
  984MOL0     C32759   3.402  -0.110   7.177  0.6332 -1.2009 -0.6423
  984MOL0     C32760   3.436  -0.221   7.250  0.3412 -0.3140  0.8125
  984MOL0     C32761   3.429  -0.341   7.181  0.0385  0.0197  0.0218
  984MOL0     C32762   3.398  -0.357   7.045  0.4870 -0.1536 -0.9667
  984MOL0     O32763   3.379  -0.485   7.002 -0.5203  0.6542  0.0189
  984MOL0     C32764   3.382  -0.502   6.856 -0.2686 -0.2552 -0.8698
  984MOL0     C32765   3.518  -0.468   6.791 -0.1121 -0.0583 -0.4738
  984MOL0     C32766   3.629  -0.548   6.847  0.2754 -1.4556  0.7443
  984MOL0     C32767   3.759  -0.515   6.780  0.4753 -0.7590  0.4838
  984MOL0     C32768   3.764  -0.622   6.677  0.3925 -0.1100  0.0970
  984MOL0     C32769   3.749  -0.724   6.614 -0.7029 -0.1475 -0.3863
  984MOL0     C32770   3.377  -0.241   6.970 -0.1831  0.7959 -0.5537
  984MOL0     C32771   3.377  -0.117   7.035 -0.0896 -0.1121  0.0963
  984MOL0     C32772   3.361   0.013   6.957  0.8399 -0.0134 -0.1744
  984MOL0     H32773   3.243   0.157   7.481 -0.9266  1.0194  2.0703
  984MOL0     H32774   3.275   0.376   7.603  0.9970  0.4675 -1.8974
  984MOL0     H32775   3.436   0.388   7.838  0.7253 -1.6918 -3.1279
  984MOL0     H32776   3.601   0.438   7.856 -0.4553  0.9909  1.7716
  984MOL0     H32777   3.411   0.651   7.787  0.9611 -0.8245 -0.9943
  984MOL0     H32778   3.574   0.670   7.849  0.6282  0.4892  0.1784
  984MOL0     H32779   3.367   0.529   8.016 -2.1291  2.0810 -3.0461
  984MOL0     H32780   3.383   0.710   8.017  1.1997  1.1097  1.3495
  984MOL0     H32781   3.499   0.578   8.207  2.7790 -0.1803  1.1905
  984MOL0     H32782   3.586   0.493   8.080 -0.8488  0.9315 -2.5778
  984MOL0     H32783   3.701   0.691   8.004 -2.2875 -0.8056 -0.2553
  984MOL0     H32784   3.595   0.801   8.105 -0.5452  0.2848  1.0788
  984MOL0     H32785   3.807   0.617   8.205  2.4769  1.2113 -3.0154
  984MOL0     H32786   3.829   0.785   8.178  0.7246 -1.2193 -2.2314
  984MOL0     H32787   3.637   0.660   8.394  3.1075 -3.3401 -0.2271
  984MOL0     H32788   3.639   0.841   8.343  1.7887  0.3861  0.7958
  984MOL0     H32789   3.813   0.647   8.483  1.9206  0.8726  0.5943
  984MOL0     H32790   3.888   0.799   8.422  2.9197 -4.0966  2.1667
  984MOL0     H32791   3.666   0.697   8.724 -2.8325  1.2857  1.8742
  984MOL0     H32792   3.613   0.999   8.951 -2.7404 -0.6476 -1.1858
  984MOL0     H32793   3.595   0.823   8.949 -0.8266 -0.5063 -1.8104
  984MOL0     H32794   3.815   0.780   8.993 -0.9362 -0.1903 -1.5507
  984MOL0     H32795   3.870   0.951   8.998  1.8139 -1.5648  3.3519
  984MOL0     H32796   3.666   0.838   9.191  0.1110  1.3786  2.6382
  984MOL0     H32797   3.725   1.004   9.193 -0.7927 -1.5609  3.2741
  984MOL0     H32798   3.819   0.876   9.379  3.1158 -1.1918  1.4760
  984MOL0     H32799   3.941   0.909   9.257 -0.7858  1.7101  1.4779
  984MOL0     H32800   3.832   0.470   9.336  0.9064 -0.5904 -1.2486
  984MOL0     H32801   3.948   0.357   9.508  1.1689  0.5375  0.7764
  984MOL0     H32802   4.275   0.452   9.955  1.8256  3.9274  2.2331
  984MOL0     H32803   4.427   0.306  10.073 -2.5543  2.4403 -0.1259
  984MOL0     H32804   4.697   0.060   9.853  1.4533  0.4565 -0.8601
  984MOL0     H32805   4.825   0.123   9.955 -0.6643 -0.6546  1.0368
  984MOL0     H32806   4.598  -0.035  10.090 -0.6513 -0.0224  1.6261
  984MOL0     H32807   4.740  -0.106  10.030 -1.8257 -1.0398 -0.4908
  984MOL0     H32808   4.872   0.094  10.174  0.3094  0.9447  1.6657
  984MOL0     H32809   4.715   0.107  10.246 -1.9731  1.9941 -2.8066
  984MOL0     H32810   4.862  -0.063  10.367 -0.9798  2.1310  0.4455
  984MOL0     H32811   4.824  -0.172  10.219 -3.5550 -1.9061  1.7055
  984MOL0     H32812   4.660  -0.240  10.381 -0.1746 -0.1706 -1.5185
  984MOL0     H32813   4.572  -0.121  10.277  2.2391  1.3397 -3.6412
  984MOL0     H32814   4.670  -0.070  10.561  1.1614  3.2768  0.7852
  984MOL0     H32815   4.654   0.055  10.444 -2.3629  0.8383  1.9377
  984MOL0     H32816   4.399  -0.010  10.413 -2.1351  0.5203  0.8546
  984MOL0     H32817   4.447   0.028  10.583  0.9156 -2.3768  1.6677
  984MOL0     H32818   4.297  -0.158  10.572  1.0946  1.3886  2.8214
  984MOL0     H32819   4.401  -0.244  10.464 -0.5087  0.7604  0.1141
  984MOL0     H32820   4.697   0.308   9.734  1.1808  3.5929 -0.7508
  984MOL0     H32821   4.516   0.429   9.604 -1.1635 -1.7569 -1.3876
  984MOL0     H32822   4.224   0.700   9.534 -1.9701  3.0975 -0.2608
  984MOL0     H32823   4.089   0.821   9.410  1.1828 -0.0006  0.7637
  984MOL0     H32824   3.701   0.344   7.546  1.4200 -1.0643 -1.7388
  984MOL0     H32825   3.675   0.140   7.423 -0.7578  1.1265 -2.5030
  984MOL0     H32826   3.451  -0.217   7.358 -1.3013 -0.7104  1.0876
  984MOL0     H32827   3.456  -0.426   7.243 -2.3289 -0.0228  1.1231
  984MOL0     H32828   3.297  -0.453   6.808  1.2254 -0.4957 -4.0723
  984MOL0     H32829   3.367  -0.610   6.845  4.1197 -1.0910 -0.5484
  984MOL0     H32830   3.547  -0.363   6.791  0.7432 -0.2452  1.7868
  984MOL0     H32831   3.515  -0.497   6.686 -1.4193  2.0212 -1.0712
  984MOL0     H32832   3.599  -0.653   6.837  2.3729 -1.8735 -5.2641
  984MOL0     H32833   3.639  -0.516   6.951  1.0201  2.3785 -0.3442
  984MOL0     H32834   3.760  -0.411   6.747 -1.4753 -0.3139  1.7006
  984MOL0     H32835   3.836  -0.517   6.858  2.0310  1.8935 -0.8477
  984MOL0     H32836   3.726  -0.822   6.575  2.9611 -0.8470 -1.1525
  984MOL0     H32837   3.362  -0.234   6.863  1.8871  0.2877 -0.9292
  984MOL0     H32838   3.339  -0.026   6.858 -2.1390  0.7052  0.1187
  984MOL0     H32839   3.270   0.066   6.987  0.8603 -0.8606  1.5192
  984MOL0     H32840   3.442   0.087   6.957  3.0165 -2.2604 -1.0545
  985MOL0     O32841   4.914   3.613  11.277 -0.0543  0.0763 -0.0502
  985MOL0     C32842   4.825   3.685  11.321  1.1994  0.6328 -0.1750
  985MOL0     O32843   4.687   3.668  11.302  0.2095  0.7563  0.7997
  985MOL0     C32844   4.646   3.597  11.191 -0.7790 -0.3345  0.0908
  985MOL0     C32845   4.649   3.462  11.176  0.9633 -0.7322 -0.7424
  985MOL0     C32846   4.595   3.405  11.052 -0.3786 -0.2364  0.1496
  985MOL0     C32847   4.538   3.486  10.948 -0.2979  0.0151  0.2446
  985MOL0     O32848   4.499   3.414  10.835  0.0308  0.4394 -0.6621
  985MOL0     C32849   4.470   3.487  10.715  0.3427 -0.8678 -0.5009
  985MOL0     C32850   4.427   3.384  10.618 -0.6181  0.0731  0.7590
  985MOL0     C32851   4.295   3.333  10.669 -0.2465  0.3240 -0.0878
  985MOL0     C32852   4.211   3.292  10.541  0.0507  0.7690 -0.2611
  985MOL0     C32853   4.071   3.249  10.578  0.5632 -0.2386  0.4376
  985MOL0     C32854   4.057   3.111  10.630 -1.0900 -0.9610 -0.4663
  985MOL0     C32855   3.913   3.078  10.684  0.6415 -0.2282 -0.3687
  985MOL0     C32856   3.924   2.923  10.721  0.4723  0.5029  0.0974
  985MOL0     N32857   3.788   2.860  10.712  0.2089  0.2118 -0.2767
  985MOL0     C32858   3.684   2.889  10.799 -0.2717 -0.8841 -0.5310
  985MOL0     C32859   3.577   2.807  10.765  1.0427 -0.2803  0.2365
  985MOL0     C32860   3.452   2.780  10.842 -0.8650 -0.6374  0.5094
  985MOL0     C32861   3.461   2.802  10.991  1.3367 -0.3194  0.2104
  985MOL0     C32862   3.324   2.799  11.077  0.1259  0.3242  0.3082
  985MOL0     C32863   3.250   2.667  11.079 -0.0144  0.4893  0.4487
  985MOL0     O32864   3.258   2.605  11.210  0.1328  0.6595 -0.2938
  985MOL0     C32865   3.146   2.531  11.262 -0.3513  0.8693  0.3533
  985MOL0     C32866   3.140   2.507  11.393 -0.4931  0.7764 -0.6372
  985MOL0     C32867   3.032   2.445  11.462 -0.6832  0.2899  0.3036
  985MOL0     C32868   2.922   2.389  11.383  0.1066 -0.6768 -0.4116
  985MOL0     C32869   2.806   2.324  11.442  0.4302 -0.4698 -0.3429
  985MOL0     O32870   2.786   2.334  11.579  0.4421 -0.4859 -0.0277
  985MOL0     C32871   2.686   2.264  11.644 -1.1838  0.2052  0.0555
  985MOL0     C32872   2.719   2.141  11.712 -0.3363  0.2897 -0.5089
  985MOL0     C32873   2.615   2.067  11.775 -0.1536 -0.6906 -0.2825
  985MOL0     C32874   2.483   2.112  11.777 -0.7209  0.2775 -0.5547
  985MOL0     O32875   2.385   2.065  11.867 -0.4663  0.0634  0.3957
  985MOL0     C32876   2.391   1.927  11.909 -1.4130  0.6452 -0.3942
  985MOL0     C32877   2.299   1.923  12.032 -0.5318 -0.0541 -0.4970
  985MOL0     C32878   2.269   1.786  12.078  0.1914 -0.2366 -0.1147
  985MOL0     C32879   2.121   1.769  12.128 -0.8096 -0.0798 -0.6968
  985MOL0     C32880   2.093   1.844  12.264  0.0471 -0.5409 -0.6521
  985MOL0     C32881   1.949   1.830  12.327 -0.3025  0.5902 -0.3740
  985MOL0     C32882   1.938   1.916  12.458  1.4379 -0.6371  0.7516
  985MOL0     C32883   1.821   1.864  12.549  0.2738 -0.9581 -0.5967
  985MOL0    Cl32884   1.845   1.702  12.605 -0.1535 -0.4258  0.1217
  985MOL0     C32885   2.450   2.230  11.703 -0.6733 -0.5151 -0.0902
  985MOL0     C32886   2.550   2.310  11.636 -0.4058 -0.4075  0.0903
  985MOL0     O32887   2.737   2.258  11.362  0.4769 -0.6082  0.0959
  985MOL0     C32888   2.931   2.409  11.246  0.2606 -0.2967 -1.9039
  985MOL0     C32889   3.045   2.475  11.182  0.5936 -1.1827  0.1276
  985MOL0     N32890   3.624   2.727  10.664  0.4685  0.3870 -0.0333
  985MOL0     N32891   3.744   2.759  10.622 -0.5615  0.0808  0.0716
  985MOL0     C32892   4.520   3.620  10.976 -0.4511 -0.3822 -0.1047
  985MOL0     C32893   4.584   3.676  11.089 -0.8029 -1.0534 -1.1916
  985MOL0     C32894   4.869   3.779  11.430  0.1515  0.0031  0.0806
  985MOL0     C32895   4.768   3.878  11.476 -0.8029 -0.1242  0.6092
  985MOL0     C32896   4.785   3.959  11.580 -0.5088 -0.1106 -0.4698
  985MOL0     C32897   4.903   3.964  11.652 -0.2141 -0.3192  0.1411
  985MOL0     O32898   4.939   4.037  11.758 -0.1846  0.2750  0.6182
  985MOL0     C32899   4.840   4.126  11.812  0.9827 -0.5321  0.1096
  985MOL0     C32900   4.875   4.175  11.956  0.3975  0.7200  0.3483
  985MOL0     C32901   4.999   4.268  11.957 -0.3056 -0.4005 -0.0996
  985MOL0     C32902   5.037   4.345  12.082  0.2103  0.7005  0.1445
  985MOL0     C32903   4.935   4.410  12.163  0.3623  0.7053  0.6912
  985MOL0     C32904   4.838   4.448  12.220  0.1630 -0.1269  0.0353
  985MOL0     C32905   5.005   3.877  11.609 -0.7477  1.1807 -0.5037
  985MOL0     C32906   4.987   3.783  11.507 -0.2443  0.6703  0.4201
  985MOL0     C32907   5.110   3.696  11.490 -0.2556  0.5107 -0.3093
  985MOL0     H32908   4.688   3.400  11.256 -3.1633  1.7316  3.7017
  985MOL0     H32909   4.597   3.298  11.034  1.8680 -0.1116 -0.6136
  985MOL0     H32910   4.392   3.556  10.747 -0.7433 -1.5596 -1.6058
  985MOL0     H32911   4.553   3.551  10.684 -1.1647  1.3220 -0.2599
  985MOL0     H32912   4.509   3.312  10.610 -0.3958  0.3020  0.9538
  985MOL0     H32913   4.425   3.431  10.520  0.6906  2.5211  1.8167
  985MOL0     H32914   4.221   3.403  10.710 -2.8058 -2.0824 -0.2901
  985MOL0     H32915   4.323   3.259  10.744  2.8665  2.4713  1.0637
  985MOL0     H32916   4.197   3.374  10.470 -1.6297 -1.7039 -3.0234
  985MOL0     H32917   4.262   3.223  10.473 -1.3359  0.3163 -0.8738
  985MOL0     H32918   4.029   3.320  10.650  1.9092 -0.1422  1.1486
  985MOL0     H32919   4.004   3.254  10.491 -1.3217 -2.2987  1.6724
  985MOL0     H32920   4.101   3.036  10.564  2.2345 -0.5706  1.0985
  985MOL0     H32921   4.123   3.110  10.718  0.6021 -1.8449 -1.6916
  985MOL0     H32922   3.835   3.097  10.610 -1.5170 -2.8008  1.0505
  985MOL0     H32923   3.890   3.131  10.777 -1.3234  0.2418 -1.0824
  985MOL0     H32924   3.999   2.871  10.660 -0.6868  0.6999 -1.5775
  985MOL0     H32925   3.957   2.893  10.821  1.7674 -4.2286 -1.4925
  985MOL0     H32926   3.693   2.975  10.865 -1.9307  1.0791 -2.7324
  985MOL0     H32927   3.379   2.852  10.804 -1.2966 -0.5436  1.4724
  985MOL0     H32928   3.412   2.681  10.819  0.6793 -0.9996 -0.8577
  985MOL0     H32929   3.518   2.720  11.036  1.0172 -0.9872 -0.5693
  985MOL0     H32930   3.515   2.893  11.018  2.8566 -0.6776 -1.4829
  985MOL0     H32931   3.267   2.887  11.045 -1.6630 -1.4648 -1.7987
  985MOL0     H32932   3.352   2.826  11.179  3.0034  2.5321 -0.9075
  985MOL0     H32933   3.299   2.612  10.998  1.1809  1.2730  0.6178
  985MOL0     H32934   3.147   2.679  11.045  0.6242  1.8837 -1.1122
  985MOL0     H32935   3.225   2.521  11.458 -0.1701 -0.7265 -0.7015
  985MOL0     H32936   3.039   2.436  11.570 -2.1745  1.3402  0.5199
  985MOL0     H32937   2.825   2.121  11.715  0.3819  3.4721 -1.2409
  985MOL0     H32938   2.649   1.981  11.832  3.8813 -0.9721 -2.7608
  985MOL0     H32939   2.367   1.863  11.823 -1.1417  2.8005 -2.1792
  985MOL0     H32940   2.487   1.890  11.945 -0.8168  1.7167 -0.8357
  985MOL0     H32941   2.349   1.973  12.115  0.9598 -2.3095  0.0566
  985MOL0     H32942   2.205   1.975  12.010  0.4515  0.8576 -2.9243
  985MOL0     H32943   2.269   1.713  11.997  0.1693 -0.2048 -0.1433
  985MOL0     H32944   2.336   1.748  12.155  0.6632 -0.8830 -0.8309
  985MOL0     H32945   2.111   1.661  12.140  0.4316 -0.0618  0.7869
  985MOL0     H32946   2.058   1.816  12.052 -0.0647  2.3381  0.1108
  985MOL0     H32947   2.110   1.948  12.232 -1.4834  0.5159  1.7016
  985MOL0     H32948   2.168   1.814  12.337  1.2182  1.5208 -0.9268
  985MOL0     H32949   1.868   1.849  12.257  0.1448  0.0294 -1.0512
  985MOL0     H32950   1.938   1.725  12.354 -0.1181  1.1116  1.9780
  985MOL0     H32951   1.919   2.022  12.438  2.4444 -0.1077  2.4029
  985MOL0     H32952   2.032   1.924  12.512  0.7881  2.5823  1.6069
  985MOL0     H32953   1.805   1.928  12.636 -0.8717  0.6630 -1.9343
  985MOL0     H32954   1.729   1.865  12.490 -1.0182 -0.4013  1.3236
  985MOL0     H32955   2.346   2.259  11.712 -0.8985 -1.7959  2.5852
  985MOL0     H32956   2.526   2.406  11.590  1.9043 -0.3296 -1.0743
  985MOL0     H32957   2.837   2.384  11.198 -2.0588  0.0803  1.9787
  985MOL0     H32958   3.038   2.501  11.077  1.1778 -2.6923 -0.3160
  985MOL0     H32959   4.472   3.682  10.902 -1.0874  1.2175  1.5725
  985MOL0     H32960   4.582   3.783  11.105  3.7027 -0.4217 -3.3658
  985MOL0     H32961   4.676   3.892  11.421  0.1077 -0.5867 -1.0920
  985MOL0     H32962   4.699   4.023  11.598  0.5641  2.5559 -3.7867
  985MOL0     H32963   4.743   4.075  11.810  1.6033 -1.7808  0.4600
  985MOL0     H32964   4.823   4.208  11.742 -0.5403 -0.6019  0.3600
  985MOL0     H32965   4.882   4.095  12.031 -0.8084  0.9427  0.7151
  985MOL0     H32966   4.793   4.239  11.988  1.6522  2.1121  0.8821
  985MOL0     H32967   4.985   4.352  11.889 -0.3048  0.8845  1.4522
  985MOL0     H32968   5.085   4.205  11.929  1.8692  1.0559  2.7405
  985MOL0     H32969   5.101   4.282  12.145 -1.4239 -3.1943 -1.7578
  985MOL0     H32970   5.104   4.428  12.057  0.1545  1.5156  2.4852
  985MOL0     H32971   4.766   4.493  12.286  0.7020 -0.3277  0.7830
  985MOL0     H32972   5.101   3.887  11.660 -0.8623  3.1862 -0.5921
  985MOL0     H32973   5.172   3.722  11.403 -0.9485 -0.2197 -1.0396
  985MOL0     H32974   5.170   3.699  11.581 -0.9896  3.2133  0.1821
  985MOL0     H32975   5.076   3.594  11.470  2.5756 -0.6820  0.4850
  986MOL0     O32976   6.233   3.758   6.729  0.0604  0.2396 -0.5914
  986MOL0     C32977   6.324   3.682   6.753  0.1947  0.7762 -0.3703
  986MOL0     O32978   6.354   3.633   6.872 -0.6127  0.5142 -0.6356
  986MOL0     C32979   6.252   3.632   6.971 -0.7532 -0.0924  0.3092
  986MOL0     C32980   6.151   3.536   6.974  0.7933 -0.4643  0.3495
  986MOL0     C32981   6.047   3.535   7.073  0.2573  0.3546 -0.4170
  986MOL0     C32982   6.054   3.638   7.169  0.3608  0.0276 -0.3404
  986MOL0     O32983   5.953   3.625   7.260  0.6086 -0.2024  0.0471
  986MOL0     C32984   5.924   3.729   7.351 -0.7107 -0.8644 -0.1170
  986MOL0     C32985   5.813   3.687   7.446 -0.3365  0.6642 -0.8371
  986MOL0     C32986   5.881   3.638   7.574 -0.2577 -0.0632  0.0719
  986MOL0     C32987   5.778   3.635   7.685  0.9953  0.8909  0.2841
  986MOL0     C32988   5.839   3.563   7.804 -0.2923 -0.0915  1.5710
  986MOL0     C32989   5.789   3.613   7.935  0.4334  0.2684 -0.2323
  986MOL0     C32990   5.835   3.540   8.061 -0.7265 -0.0023 -0.1705
  986MOL0     C32991   5.787   3.601   8.184  0.9079 -0.7954  0.3004
  986MOL0     N32992   5.828   3.519   8.297  0.3051  0.2751  0.2580
  986MOL0     C32993   5.948   3.532   8.376 -0.1243  0.0962 -0.2884
  986MOL0     C32994   5.932   3.454   8.483 -0.0757  0.4454 -0.7190
  986MOL0     C32995   6.031   3.451   8.594 -0.5872  0.9320  0.3124
  986MOL0     C32996   6.177   3.426   8.555  0.3693 -0.3172  0.4285
  986MOL0     C32997   6.185   3.303   8.469 -0.4381  1.3455  0.4254
  986MOL0     C32998   6.194   3.170   8.549  0.6080 -0.3799 -0.4709
  986MOL0     O32999   6.299   3.179   8.649 -0.1845  0.0715 -0.5668
  986MOL0     C33000   6.429   3.164   8.607 -0.6690 -0.7983 -0.1750
  986MOL0     C33001   6.476   3.147   8.475  0.5083  0.1489  0.3320
  986MOL0     C33002   6.609   3.155   8.430  0.4133  0.7751 -0.3285
  986MOL0     C33003   6.712   3.169   8.531  0.0966 -0.5678 -0.6392
  986MOL0     C33004   6.856   3.145   8.494 -0.2139  0.4618  0.1917
  986MOL0     O33005   6.880   3.146   8.358  0.0720 -0.8422 -0.3000
  986MOL0     C33006   7.012   3.154   8.321 -0.0243  0.2409  0.2462
  986MOL0     C33007   7.070   3.268   8.270 -0.4955 -0.2823  0.1120
  986MOL0     C33008   7.206   3.270   8.218 -0.2026 -0.8940 -0.5804
  986MOL0     C33009   7.283   3.151   8.231  0.1936 -0.9724  0.0519
  986MOL0     O33010   7.406   3.142   8.188  0.4317  1.5308 -0.6595
  986MOL0     C33011   7.509   3.138   8.287  0.1419 -0.1699 -0.1074
  986MOL0     C33012   7.547   3.287   8.326 -0.6179  0.6557 -0.1597
  986MOL0     C33013   7.649   3.338   8.234 -0.1796  0.6412  0.5627
  986MOL0     C33014   7.778   3.255   8.233 -0.1984  0.7372 -0.3612
  986MOL0     C33015   7.871   3.328   8.132  0.0107  0.4076  0.1184
  986MOL0     C33016   7.888   3.481   8.128 -0.0893 -0.1229  0.6714
  986MOL0     C33017   8.029   3.529   8.097 -0.3435  0.3781 -0.5941
  986MOL0     C33018   8.042   3.678   8.107  1.2647  0.2972 -0.1748
  986MOL0    Cl33019   8.010   3.744   8.262 -0.2184 -0.4190 -0.0317
  986MOL0     C33020   7.227   3.042   8.287 -1.1210  0.5976 -0.6060
  986MOL0     C33021   7.104   3.039   8.338 -0.2868 -0.1998 -0.1853
  986MOL0     O33022   6.942   3.125   8.580 -0.0212  0.0263  0.5500
  986MOL0     C33023   6.670   3.177   8.670  0.4774  0.3668 -0.3846
  986MOL0     C33024   6.532   3.195   8.703 -0.4526 -0.0993  0.3863
  986MOL0     N33025   5.801   3.392   8.470 -0.0168  0.2907 -0.4589
  986MOL0     N33026   5.746   3.428   8.358  0.1322 -0.1396 -0.4767
  986MOL0     C33027   6.152   3.743   7.155  0.2566 -0.1947 -0.1255
  986MOL0     C33028   6.246   3.741   7.057  0.2762 -0.6957  0.1739
  986MOL0     C33029   6.408   3.637   6.642  1.1579  0.9839  0.2620
  986MOL0     C33030   6.554   3.623   6.668  0.4353  0.9759 -0.5897
  986MOL0     C33031   6.631   3.589   6.565 -0.8213  1.0717  0.2387
  986MOL0     C33032   6.594   3.586   6.428  0.5599 -0.3338  0.5928
  986MOL0     O33033   6.690   3.567   6.339  0.7721 -0.3723 -0.5555
  986MOL0     C33034   6.691   3.636   6.220  0.7095 -0.9589  0.4398
  986MOL0     C33035   6.739   3.775   6.255  0.1215 -0.6117  0.7262
  986MOL0     C33036   6.761   3.869   6.132  0.0793 -0.6537  1.3277
  986MOL0     C33037   6.800   4.019   6.159  0.0224 -1.0911  0.7697
  986MOL0     C33038   6.778   4.098   6.034 -0.1761 -0.1545 -0.6173
  986MOL0     C33039   6.771   4.162   5.935 -0.5277 -0.5440  1.2229
  986MOL0     C33040   6.457   3.603   6.405  0.8038  0.5410  0.7568
  986MOL0     C33041   6.358   3.608   6.508  0.7563 -0.3063 -0.0028
  986MOL0     C33042   6.210   3.607   6.471  0.0681  0.1361 -0.2656
  986MOL0     H33043   6.156   3.465   6.892  2.6334  2.3761 -2.2059
  986MOL0     H33044   5.969   3.460   7.067  1.4823 -1.1395  1.3811
  986MOL0     H33045   6.015   3.775   7.389 -1.8836 -0.4929  2.5214
  986MOL0     H33046   5.892   3.806   7.281  4.6919  1.5322 -0.4218
  986MOL0     H33047   5.748   3.616   7.395 -1.9821  1.2148  0.3908
  986MOL0     H33048   5.758   3.778   7.473  1.9600  2.2087 -1.1041
  986MOL0     H33049   5.966   3.704   7.595 -0.7710  0.6347  0.0074
  986MOL0     H33050   5.923   3.538   7.562  0.4179  0.4499 -2.1319
  986MOL0     H33051   5.756   3.740   7.706  2.1034  0.8891  1.6132
  986MOL0     H33052   5.693   3.584   7.639  2.1974  1.6409 -2.9969
  986MOL0     H33053   5.804   3.460   7.792 -1.6583  0.4552  0.5013
  986MOL0     H33054   5.947   3.575   7.794 -0.5779  3.1919  1.0867
  986MOL0     H33055   5.811   3.718   7.958 -2.9619  0.7370  1.5986
  986MOL0     H33056   5.679   3.617   7.931  0.4781  3.9112 -1.2383
  986MOL0     H33057   5.945   3.533   8.057 -0.4927  2.7615 -0.1423
  986MOL0     H33058   5.806   3.434   8.065  1.8851 -0.7860  0.9788
  986MOL0     H33059   5.833   3.700   8.188  2.7060 -1.5550 -0.4983
  986MOL0     H33060   5.678   3.611   8.185  0.9719 -0.0322  1.6014
  986MOL0     H33061   6.028   3.606   8.366 -2.1936  2.8313  1.7792
  986MOL0     H33062   6.034   3.545   8.650  0.7972  2.7640 -2.6013
  986MOL0     H33063   5.996   3.375   8.664 -2.3568  0.8743 -0.5794
  986MOL0     H33064   6.213   3.505   8.488 -1.6816 -1.7161 -2.5632
  986MOL0     H33065   6.241   3.419   8.643  2.2737  0.9833 -0.7623
  986MOL0     H33066   6.269   3.311   8.400  0.4673 -1.8240  0.9683
  986MOL0     H33067   6.104   3.286   8.399  1.7238  0.2440 -1.9643
  986MOL0     H33068   6.214   3.090   8.478  5.1223 -0.3561  0.4735
  986MOL0     H33069   6.098   3.156   8.599 -0.2915  1.0139 -1.7230
  986MOL0     H33070   6.403   3.120   8.399  0.7504 -0.5746  0.3462
  986MOL0     H33071   6.636   3.142   8.326 -1.0885  1.6516 -0.8603
  986MOL0     H33072   7.009   3.357   8.277  0.5761  0.6375 -1.5314
  986MOL0     H33073   7.256   3.361   8.187  0.5501 -1.4338 -0.9679
  986MOL0     H33074   7.478   3.079   8.373  0.5514 -2.8447 -1.6982
  986MOL0     H33075   7.593   3.080   8.248  0.3172 -0.3134  0.4771
  986MOL0     H33076   7.463   3.356   8.337 -1.0644  0.1005 -0.0389
  986MOL0     H33077   7.590   3.277   8.426  1.3729 -2.2010 -1.1418
  986MOL0     H33078   7.608   3.339   8.132  2.9228 -1.7539 -0.8775
  986MOL0     H33079   7.674   3.441   8.258 -1.2669  2.3015 -4.3229
  986MOL0     H33080   7.781   3.152   8.197  0.9297  1.2920 -2.0109
  986MOL0     H33081   7.827   3.259   8.330 -1.5144 -0.5719  0.3933
  986MOL0     H33082   7.848   3.303   8.028  0.8079  0.0805  0.0064
  986MOL0     H33083   7.972   3.286   8.145  0.5270  1.6738  0.3849
  986MOL0     H33084   7.805   3.533   8.080  0.2227  3.7531  3.8272
  986MOL0     H33085   7.871   3.504   8.234 -1.4089 -1.4457  0.7889
  986MOL0     H33086   8.063   3.497   7.998  3.2009 -0.1553  0.6501
  986MOL0     H33087   8.099   3.483   8.167 -0.7042  1.7462  0.7159
  986MOL0     H33088   8.140   3.710   8.070 -0.0153  1.9445 -2.3207
  986MOL0     H33089   7.963   3.720   8.045 -0.9231 -2.1536  0.8066
  986MOL0     H33090   7.294   2.957   8.295 -1.4609  0.4687  1.7104
  986MOL0     H33091   7.077   2.948   8.391 -0.5416  0.6948  1.2812
  986MOL0     H33092   6.745   3.186   8.749  0.5079 -1.0248 -0.2339
  986MOL0     H33093   6.500   3.220   8.804 -0.6894  0.7777  0.0966
  986MOL0     H33094   6.154   3.821   7.230  0.6538 -3.2843  3.3648
  986MOL0     H33095   6.322   3.818   7.062 -0.2107 -0.2021  0.1283
  986MOL0     H33096   6.601   3.646   6.763  1.0680 -2.4816  0.0463
  986MOL0     H33097   6.739   3.582   6.575 -1.0826 -1.2872  2.5051
  986MOL0     H33098   6.594   3.652   6.173  1.6837  1.1455 -1.0203
  986MOL0     H33099   6.745   3.582   6.142 -2.0919 -1.7388 -1.0825
  986MOL0     H33100   6.839   3.769   6.300  0.8799 -0.4389 -0.8490
  986MOL0     H33101   6.671   3.823   6.325 -3.8619 -1.7970 -2.0020
  986MOL0     H33102   6.672   3.868   6.070  0.2015 -1.4569  1.1521
  986MOL0     H33103   6.839   3.829   6.067 -1.4078 -4.5836  1.6728
  986MOL0     H33104   6.736   4.067   6.235  0.3661  4.6233 -2.0383
  986MOL0     H33105   6.901   4.026   6.201 -0.7709 -1.7868  2.9537
  986MOL0     H33106   6.771   4.228   5.850  1.5667 -0.4029  1.2842
  986MOL0     H33107   6.428   3.599   6.301  0.6455 -0.1447  0.8260
  986MOL0     H33108   6.199   3.529   6.395  1.3969  0.0082 -0.3423
  986MOL0     H33109   6.142   3.587   6.555  0.7740  0.4526  0.3869
  986MOL0     H33110   6.182   3.704   6.430 -0.0043 -0.3213 -1.3393
  987MOL0     O33111   5.112  10.414  10.381  0.2871  0.2208  0.1398
  987MOL0     C33112   5.153  10.527  10.373  0.3059  0.5622 -0.6028
  987MOL0     O33113   5.154  10.620  10.477 -0.2603  0.5464  0.5251
  987MOL0     C33114   5.109  10.603  10.601 -0.5487 -0.6342 -0.1711
  987MOL0     C33115   5.033  10.711  10.655 -0.1721 -0.8292 -0.1814
  987MOL0     C33116   4.972  10.699  10.779 -0.5384  1.0341  0.0638
  987MOL0     C33117   4.991  10.583  10.853  0.1346 -1.1121  0.5162
  987MOL0     O33118   4.917  10.578  10.975 -0.6488  0.0068  0.0727
  987MOL0     C33119   4.897  10.451  11.037  0.5614 -0.1107  0.3587
  987MOL0     C33120   4.798  10.480  11.147 -0.1752  0.4444  0.2609
  987MOL0     C33121   4.663  10.532  11.100 -0.2529 -0.0945 -0.1774
  987MOL0     C33122   4.566  10.522  11.228 -0.5874  0.0824  0.0444
  987MOL0     C33123   4.432  10.590  11.202  0.2222 -0.5175  0.0988
  987MOL0     C33124   4.344  10.532  11.090  0.4793 -0.0931  0.8574
  987MOL0     C33125   4.189  10.541  11.099  0.5526  0.0848  0.1657
  987MOL0     C33126   4.135  10.438  11.199 -0.7591  0.1814  0.3624
  987MOL0     N33127   3.988  10.453  11.197  0.7015  0.0164 -0.2011
  987MOL0     C33128   3.901  10.492  11.306  0.3776  0.1782 -0.2804
  987MOL0     C33129   3.774  10.469  11.263  0.4024 -0.3350  0.0545
  987MOL0     C33130   3.656  10.511  11.335 -0.0158 -0.7382  0.1929
  987MOL0     C33131   3.535  10.423  11.322  0.1917  0.5735  0.5204
  987MOL0     C33132   3.411  10.487  11.393  0.1862 -0.8048  0.1920
  987MOL0     C33133   3.314  10.567  11.302  0.1867  0.4323 -0.7030
  987MOL0     O33134   3.342  10.703  11.313  0.4424 -0.3038 -0.1927
  987MOL0     C33135   3.344  10.760  11.190 -0.5805 -1.2794  0.3309
  987MOL0     C33136   3.442  10.727  11.087 -0.4269 -0.3255  0.7215
  987MOL0     C33137   3.442  10.804  10.964 -0.6189 -0.3734 -0.0300
  987MOL0     C33138   3.351  10.919  10.959 -0.4402  0.0761  0.5041
  987MOL0     C33139   3.364  11.005  10.836  0.1494 -1.0495 -0.4673
  987MOL0     O33140   3.332  11.134  10.860  0.1487  0.0139  0.5119
  987MOL0     C33141   3.364  11.228  10.767  0.0453 -0.8395  1.3517
  987MOL0     C33142   3.467  11.312  10.784 -0.4234  0.4667  0.1719
  987MOL0     C33143   3.501  11.408  10.684 -0.2642 -0.1808  0.4224
  987MOL0     C33144   3.408  11.440  10.583  0.0696  0.3052  0.1414
  987MOL0     O33145   3.429  11.542  10.488 -0.0441 -0.9839  0.6581
  987MOL0     C33146   3.500  11.663  10.526 -0.3863  0.8229  0.5513
  987MOL0     C33147   3.438  11.751  10.635  0.2628  0.3342  0.5359
  987MOL0     C33148   3.285  11.786  10.607  1.0982 -0.2433 -0.1675
  987MOL0     C33149   3.251  11.905  10.693 -0.3319  0.0229 -0.7124
  987MOL0     C33150   3.104  11.946  10.690  0.8490  0.3534  0.4886
  987MOL0     C33151   3.073  12.031  10.561  0.4659  0.4520  0.5200
  987MOL0     C33152   2.935  12.099  10.574 -0.3924  1.6275 -0.6699
  987MOL0     C33153   2.929  12.212  10.473  1.2429 -0.2927  0.8890
  987MOL0    Cl33154   2.776  12.298  10.507 -0.5487  0.0175 -0.2896
  987MOL0     C33155   3.296  11.359  10.577 -0.1545 -0.1109  0.2031
  987MOL0     C33156   3.274  11.254  10.670  0.9055 -0.8181  0.8325
  987MOL0     O33157   3.400  10.961  10.726 -0.0972 -0.6929 -0.2456
  987MOL0     C33158   3.258  10.945  11.052 -0.4755 -1.1501  0.3103
  987MOL0     C33159   3.252  10.866  11.171 -0.3544  0.3026  1.0014
  987MOL0     N33160   3.782  10.434  11.136  0.6063 -0.7453  0.1918
  987MOL0     N33161   3.904  10.411  11.099 -0.1761 -0.7518 -0.6373
  987MOL0     C33162   5.058  10.470  10.795  0.2826 -0.2831  0.5900
  987MOL0     C33163   5.121  10.490  10.670  0.1544  0.7202 -1.5435
  987MOL0     C33164   5.183  10.564  10.236  0.5106 -0.0203  0.2320
  987MOL0     C33165   5.208  10.465  10.133  0.4761 -0.0946  0.5489
  987MOL0     C33166   5.217  10.506  10.000 -0.1005  1.1787 -0.1533
  987MOL0     C33167   5.216  10.640   9.964  0.6574 -0.0343 -1.2287
  987MOL0     O33168   5.227  10.659   9.825  0.0009  0.0210  0.2659
  987MOL0     C33169   5.218  10.793   9.778  1.0500 -1.0246 -0.0451
  987MOL0     C33170   5.220  10.805   9.616  0.1141 -0.8533 -0.5707
  987MOL0     C33171   5.099  10.750   9.540 -0.0656 -0.4729 -1.0261
  987MOL0     C33172   5.053  10.846   9.439  0.2347  0.4758 -0.1275
  987MOL0     C33173   5.133  10.852   9.311  0.6595  0.3250 -0.5327
  987MOL0     C33174   5.201  10.855   9.211  0.1349 -0.6018 -0.3886
  987MOL0     C33175   5.191  10.738  10.065  0.0307 -0.2218 -0.4207
  987MOL0     C33176   5.177  10.702  10.202 -1.1116  0.1980 -0.6197
  987MOL0     C33177   5.180  10.815  10.306 -0.0741  0.7882 -1.1613
  987MOL0     H33178   5.022  10.807  10.605  1.3842 -1.2183 -1.3625
  987MOL0     H33179   4.909  10.771  10.831 -3.1379 -2.1605  1.7683
  987MOL0     H33180   4.846  10.385  10.967 -1.8554  0.6459  1.2831
  987MOL0     H33181   4.988  10.407  11.078  0.6064  1.6279  2.2728
  987MOL0     H33182   4.843  10.558  11.210 -0.0829  0.8631 -0.3083
  987MOL0     H33183   4.776  10.386  11.197 -0.4341 -0.4665 -1.4996
  987MOL0     H33184   4.624  10.465  11.023  2.6189 -2.5656  0.3218
  987MOL0     H33185   4.684  10.634  11.066  0.0404  0.5000  1.6828
  987MOL0     H33186   4.547  10.414  11.232  2.2916 -0.4928  0.1386
  987MOL0     H33187   4.608  10.550  11.325 -0.6866 -1.2917  0.5157
  987MOL0     H33188   4.378  10.581  11.296 -0.8716  0.4249 -0.4071
  987MOL0     H33189   4.464  10.693  11.184  0.8951 -0.5264  1.1621
  987MOL0     H33190   4.372  10.585  10.999  0.6986 -0.7354  0.5420
  987MOL0     H33191   4.367  10.426  11.074 -0.6340 -0.3572  0.9358
  987MOL0     H33192   4.155  10.528  10.996 -1.5434 -1.1476  0.9482
  987MOL0     H33193   4.171  10.640  11.143  2.1151  1.2960 -1.7814
  987MOL0     H33194   4.177  10.339  11.181  0.4983  0.6215  0.7898
  987MOL0     H33195   4.171  10.469  11.297 -1.7018  0.5096  0.6192
  987MOL0     H33196   3.928  10.540  11.399 -1.1338 -0.2816  0.4209
  987MOL0     H33197   3.684  10.518  11.441 -3.4825 -1.0421  1.2478
  987MOL0     H33198   3.636  10.611  11.295 -2.5439 -0.6029  1.5729
  987MOL0     H33199   3.517  10.415  11.214  1.0208  2.2602  0.2167
  987MOL0     H33200   3.551  10.324  11.364  2.8762  1.1779  1.1100
  987MOL0     H33201   3.444  10.552  11.475  1.4559 -0.2585 -0.7297
  987MOL0     H33202   3.354  10.409  11.446 -0.7789 -1.6167 -1.9498
  987MOL0     H33203   3.213  10.534  11.331  0.4456 -0.0592 -0.3434
  987MOL0     H33204   3.323  10.517  11.205 -1.1014 -0.8007 -0.2308
  987MOL0     H33205   3.507  10.642  11.106 -2.6692 -2.1109  0.8821
  987MOL0     H33206   3.518  10.793  10.888  0.3188 -0.4034  0.8924
  987MOL0     H33207   3.538  11.303  10.865  0.2401 -0.5707 -0.4983
  987MOL0     H33208   3.590  11.467  10.696  1.7637 -2.2450 -2.8825
  987MOL0     H33209   3.607  11.653  10.543  0.0945  1.3483 -1.8042
  987MOL0     H33210   3.495  11.729  10.439 -1.3028  2.7188  1.9407
  987MOL0     H33211   3.445  11.699  10.730 -1.3050  0.0350  0.5001
  987MOL0     H33212   3.491  11.846  10.649 -1.7099  1.8135 -1.2729
  987MOL0     H33213   3.269  11.821  10.505  4.1649  1.7110 -0.0928
  987MOL0     H33214   3.220  11.701  10.631  1.3048  0.4680  3.5000
  987MOL0     H33215   3.314  11.987  10.656 -1.1013  0.2184 -1.6474
  987MOL0     H33216   3.288  11.900  10.796  0.4188 -1.1341 -1.0176
  987MOL0     H33217   3.078  12.009  10.776 -1.3189 -2.0006  1.6823
  987MOL0     H33218   3.034  11.863  10.702  1.1229 -0.2342 -1.6479
  987MOL0     H33219   3.155  12.099  10.533  0.8476  0.1709  0.9555
  987MOL0     H33220   3.060  11.962  10.477 -4.3989  1.6074  0.0145
  987MOL0     H33221   2.914  12.117  10.680  0.3473 -2.0563  0.2655
  987MOL0     H33222   2.860  12.024  10.548  3.2551 -1.5212 -3.2934
  987MOL0     H33223   3.026  12.262  10.460  0.4659  0.4362 -3.7203
  987MOL0     H33224   2.937  12.182  10.368 -1.0950  2.3591 -0.1799
  987MOL0     H33225   3.238  11.369  10.486 -0.4748 -2.5027  0.0892
  987MOL0     H33226   3.194  11.182  10.649  0.1636 -0.3836  2.0794
  987MOL0     H33227   3.185  11.025  11.044 -0.1111 -0.7050  1.3413
  987MOL0     H33228   3.178  10.893  11.246 -1.7216  1.4791 -0.6816
  987MOL0     H33229   5.055  10.377  10.850  1.1310 -0.6241  0.0851
  987MOL0     H33230   5.156  10.401  10.618 -0.0689 -0.2790 -0.0404
  987MOL0     H33231   5.204  10.360  10.160  3.0319  0.1381  2.2048
  987MOL0     H33232   5.225  10.425   9.929 -1.1746  1.2330 -0.3473
  987MOL0     H33233   5.302  10.853   9.814 -0.2589  1.9362 -1.5235
  987MOL0     H33234   5.128  10.842   9.816  0.5515 -1.9870  0.0469
  987MOL0     H33235   5.310  10.754   9.579  0.7942  1.7198 -2.8426
  987MOL0     H33236   5.235  10.910   9.588 -2.1876  0.2371  1.8859
  987MOL0     H33237   5.016  10.744   9.611  1.4209  0.6844  0.9223
  987MOL0     H33238   5.128  10.654   9.497  2.5095 -0.9326  1.4526
  987MOL0     H33239   4.949  10.827   9.411 -0.1908  2.1222  0.1794
  987MOL0     H33240   5.051  10.945   9.487 -1.2041  2.3402 -3.6847
  987MOL0     H33241   5.269  10.830   9.131 -0.0077  0.8599 -0.9890
  987MOL0     H33242   5.181  10.845  10.047  0.1553 -0.3522 -1.3192
  987MOL0     H33243   5.080  10.830  10.348 -0.7557  3.1501 -3.3592
  987MOL0     H33244   5.250  10.802  10.389 -0.8970 -0.1820 -0.5955
  987MOL0     H33245   5.214  10.908  10.259  1.0028  2.8911  3.1859
  988MOL0     O33246   1.803   8.165  10.447 -0.5082 -0.3279 -0.4376
  988MOL0     C33247   1.785   8.199  10.330  0.3229  0.3940 -0.2385
  988MOL0     O33248   1.801   8.326  10.278  0.7473  0.0323  0.0785
  988MOL0     C33249   1.833   8.443  10.343 -0.3629  0.4584  0.3164
  988MOL0     C33250   1.809   8.554  10.270  0.9420 -0.3792  0.0735
  988MOL0     C33251   1.817   8.676  10.330  0.3400 -0.2139 -0.2747
  988MOL0     C33252   1.861   8.689  10.472  0.2634  0.1847 -0.2498
  988MOL0     O33253   1.854   8.817  10.527 -0.7388 -0.4517  0.0285
  988MOL0     C33254   1.950   8.848  10.622  0.4867  0.1488 -0.7087
  988MOL0     C33255   1.905   8.966  10.713 -0.1451  0.4636  0.3561
  988MOL0     C33256   1.778   8.929  10.793  1.1987 -0.5225 -1.0542
  988MOL0     C33257   1.754   9.042  10.893 -1.0428  0.5311 -0.1220
  988MOL0     C33258   1.630   9.038  10.973 -1.0143 -0.0053 -0.3642
  988MOL0     C33259   1.600   9.151  11.071 -1.3005  0.0485 -0.1150
  988MOL0     C33260   1.708   9.158  11.183 -0.6025  0.3431 -0.2979
  988MOL0     C33261   1.682   9.263  11.290  0.1216 -0.3345  0.5920
  988MOL0     N33262   1.733   9.397  11.248  0.1160  0.0178  1.1060
  988MOL0     C33263   1.863   9.447  11.267  0.4576  0.7873  0.2616
  988MOL0     C33264   1.854   9.572  11.219  0.2131 -0.2555  0.3735
  988MOL0     C33265   1.960   9.679  11.239 -0.6343  0.4477 -0.3157
  988MOL0     C33266   1.977   9.727  11.384  0.5866  0.0861  0.6583
  988MOL0     C33267   2.113   9.796  11.396 -1.1050  1.0435 -0.2333
  988MOL0     C33268   2.132   9.922  11.304 -0.8601 -0.0203 -0.8981
  988MOL0     O33269   2.265   9.977  11.318 -0.0205  0.9280  0.4294
  988MOL0     C33270   2.331  10.039  11.220  0.6172 -0.7402 -0.4027
  988MOL0     C33271   2.469  10.063  11.249 -0.0182 -1.0480 -0.9611
  988MOL0     C33272   2.549  10.152  11.170 -0.4119  0.7974  0.2185
  988MOL0     C33273   2.490  10.200  11.050 -0.1170 -0.9228 -0.6788
  988MOL0     C33274   2.557  10.295  10.957  0.3554  0.6019 -0.1934
  988MOL0     O33275   2.505  10.412  10.955 -0.1178  0.0513 -0.5586
  988MOL0     C33276   2.565  10.503  10.873 -0.6267 -1.2990  0.1323
  988MOL0     C33277   2.471  10.587  10.810 -0.3351  0.0521  1.1486
  988MOL0     C33278   2.507  10.679  10.718 -1.1822  0.2828 -0.6415
  988MOL0     C33279   2.643  10.703  10.685  0.0970  0.9627  1.1179
  988MOL0     O33280   2.679  10.806  10.594 -0.2216 -0.5093 -0.0738
  988MOL0     C33281   2.814  10.840  10.564 -0.7007 -0.2054  0.0752
  988MOL0     C33282   2.860  10.986  10.520  0.0219  0.6071  0.8958
  988MOL0     C33283   3.011  10.993  10.488  0.2015 -0.6156  0.6904
  988MOL0     C33284   3.047  11.108  10.401 -0.5404 -0.4044  1.1562
  988MOL0     C33285   3.165  11.085  10.297  1.1398 -0.0560 -0.2646
  988MOL0     C33286   3.296  11.035  10.366 -1.1379  1.1707  0.0849
  988MOL0     C33287   3.391  10.978  10.258 -1.0325 -0.4057  0.6941
  988MOL0     C33288   3.526  10.941  10.317  0.5315 -0.3404 -0.7035
  988MOL0    Cl33289   3.635  10.882  10.186  0.1193  0.3375 -0.0081
  988MOL0     C33290   2.733  10.615  10.746 -0.3498 -0.5292  0.8776
  988MOL0     C33291   2.695  10.528  10.845 -0.4408 -0.9575 -0.6896
  988MOL0     O33292   2.642  10.252  10.884  0.0803  0.5459  0.2886
  988MOL0     C33293   2.359  10.182  11.023 -0.3775 -0.1372 -0.7246
  988MOL0     C33294   2.280  10.098  11.100  0.8565  0.4318 -0.9087
  988MOL0     N33295   1.716   9.601  11.180  0.3180  0.4149  0.1822
  988MOL0     N33296   1.640   9.495  11.216 -0.5355 -1.0495  0.0043
  988MOL0     C33297   1.897   8.570  10.534 -0.0726 -0.1284  0.3908
  988MOL0     C33298   1.886   8.449  10.473  0.0724 -0.6041  0.3116
  988MOL0     C33299   1.742   8.084  10.243  0.1685 -1.2400  0.4480
  988MOL0     C33300   1.626   8.017  10.285 -0.2137 -0.5505 -0.3846
  988MOL0     C33301   1.564   7.928  10.206  0.0251  0.3508 -0.5841
  988MOL0     C33302   1.605   7.893  10.075 -0.6746  0.0814  0.5923
  988MOL0     O33303   1.567   7.786   9.991  0.5382 -0.3587  0.1158
  988MOL0     C33304   1.471   7.684  10.030  0.6483  0.2348  1.0002
  988MOL0     C33305   1.349   7.686   9.938  0.3182 -0.0975 -0.0964
  988MOL0     C33306   1.377   7.608   9.799  0.1070  0.1331 -0.1425
  988MOL0     C33307   1.311   7.684   9.674 -0.2875 -1.0169 -0.4471
  988MOL0     C33308   1.413   7.744   9.576 -0.6077 -0.0009 -0.7392
  988MOL0     C33309   1.482   7.786   9.483  1.2118  0.5021 -0.1415
  988MOL0     C33310   1.723   7.948  10.040 -0.9396  0.1287  0.6336
  988MOL0     C33311   1.797   8.047  10.115  0.4799  0.3920 -0.4151
  988MOL0     C33312   1.917   8.106  10.065  0.5804  0.2141  1.0594
  988MOL0     H33313   1.766   8.554  10.170  0.3388  0.8452  0.3063
  988MOL0     H33314   1.798   8.767  10.275  0.8872  0.2672  0.3098
  988MOL0     H33315   1.978   8.772  10.694 -0.0519  0.5444 -0.0700
  988MOL0     H33316   2.042   8.863  10.565  2.1844 -0.6269  1.6810
  988MOL0     H33317   1.891   9.059  10.656 -0.5930  0.5486  0.6016
  988MOL0     H33318   1.982   8.980  10.789 -0.8031  1.4980  0.8539
  988MOL0     H33319   1.795   8.833  10.842 -2.0300 -0.6598  0.0177
  988MOL0     H33320   1.692   8.932  10.726 -0.3757 -2.0119  0.8092
  988MOL0     H33321   1.837   9.049  10.964 -1.7995  2.3456  0.6195
  988MOL0     H33322   1.765   9.142  10.851  1.6853  0.2596 -0.2718
  988MOL0     H33323   1.549   9.043  10.900 -0.1502 -2.5006 -1.6021
  988MOL0     H33324   1.621   8.945  11.029  0.0537 -1.7285 -2.8505
  988MOL0     H33325   1.593   9.249  11.022 -1.3735  1.5271  2.6499
  988MOL0     H33326   1.500   9.130  11.111 -0.8191 -1.1210  0.5116
  988MOL0     H33327   1.801   9.180  11.130 -0.4836  1.7581  0.4371
  988MOL0     H33328   1.717   9.060  11.230 -0.4528 -0.7491 -2.4753
  988MOL0     H33329   1.576   9.270  11.314  0.4784  1.2383  1.9059
  988MOL0     H33330   1.730   9.236  11.384  1.3585 -0.4605 -0.0474
  988MOL0     H33331   1.947   9.384  11.296  2.2861  1.8526 -2.3017
  988MOL0     H33332   2.055   9.638  11.204 -2.0368 -2.2753 -1.2024
  988MOL0     H33333   1.935   9.762  11.171  2.9432  1.2379 -0.8450
  988MOL0     H33334   1.895   9.797  11.407  1.5985  2.2572 -1.8276
  988MOL0     H33335   1.980   9.650  11.462 -3.1107 -0.3345  0.5808
  988MOL0     H33336   2.192   9.723  11.377  0.5339  2.8350 -0.5727
  988MOL0     H33337   2.127   9.815  11.503  3.1006 -0.3164 -0.3605
  988MOL0     H33338   2.054   9.997  11.323  0.1033  0.8725 -0.3494
  988MOL0     H33339   2.112   9.886  11.203 -0.4976 -0.9322 -0.6543
  988MOL0     H33340   2.511  10.027  11.343  0.8382  1.5310 -0.2912
  988MOL0     H33341   2.648  10.186  11.202 -1.4795  1.1857  3.4784
  988MOL0     H33342   2.368  10.567  10.837  0.5671 -0.0273  5.2129
  988MOL0     H33343   2.423  10.739  10.686 -1.4883  2.0452  2.9992
  988MOL0     H33344   2.866  10.822  10.658 -1.3341 -0.4422  0.3827
  988MOL0     H33345   2.851  10.777  10.482  3.2930  0.7487  0.9026
  988MOL0     H33346   2.799  11.022  10.437  2.5413 -0.4708 -1.6018
  988MOL0     H33347   2.830  11.047  10.606 -4.2796 -1.5663  1.1641
  988MOL0     H33348   3.069  10.996  10.581 -0.3117  2.7279  1.0065
  988MOL0     H33349   3.034  10.908  10.422 -2.5967 -1.7256  1.0053
  988MOL0     H33350   3.065  11.195  10.464  2.3448  0.6569 -0.8895
  988MOL0     H33351   2.971  11.143  10.331  1.0604  1.8446  0.4561
  988MOL0     H33352   3.197  11.175  10.244 -0.9325  0.9757  0.1610
  988MOL0     H33353   3.131  11.010  10.225 -0.4975  0.9540 -0.5755
  988MOL0     H33354   3.342  11.118  10.420  0.0855 -0.7707  2.1935
  988MOL0     H33355   3.271  10.948  10.427  5.2134 -1.4808 -0.3255
  988MOL0     H33356   3.397  11.061  10.188 -0.7246  1.6909  3.0563
  988MOL0     H33357   3.355  10.902  10.188 -2.1545  0.9735 -0.2822
  988MOL0     H33358   3.570  11.022  10.377 -0.3393 -2.1915  2.7253
  988MOL0     H33359   3.508  10.866  10.395  2.0951 -0.0456 -0.0259
  988MOL0     H33360   2.839  10.621  10.720 -0.0579  0.3845  2.1487
  988MOL0     H33361   2.769  10.459  10.886  0.8289  1.2740  1.0259
  988MOL0     H33362   2.308  10.246  10.953 -2.6861 -0.1136  0.8508
  988MOL0     H33363   2.174  10.089  11.083  0.5428  0.7368  0.7218
  988MOL0     H33364   1.954   8.573  10.626  2.9086  1.4622 -1.3654
  988MOL0     H33365   1.909   8.359  10.529  1.4782 -0.4473  0.0125
  988MOL0     H33366   1.576   8.042  10.378 -1.7811 -1.6898 -0.8821
  988MOL0     H33367   1.481   7.877  10.255  0.6554 -0.3036 -0.1793
  988MOL0     H33368   1.444   7.706  10.133  2.4716 -3.3285  2.4055
  988MOL0     H33369   1.523   7.588  10.025 -0.4637 -0.3572  0.1576
  988MOL0     H33370   1.321   7.790   9.920 -0.3910  0.5346  3.7622
  988MOL0     H33371   1.268   7.640   9.994  1.7925 -1.6418  0.8769
  988MOL0     H33372   1.322   7.514   9.813 -1.4044  1.3230  2.6770
  988MOL0     H33373   1.483   7.586   9.785 -0.6916 -1.9670 -5.0238
  988MOL0     H33374   1.249   7.608   9.626 -1.3387 -1.0022  0.8357
  988MOL0     H33375   1.243   7.761   9.711 -1.7631 -0.9948 -2.9921
  988MOL0     H33376   1.542   7.810   9.397  2.6336  0.7465  0.8631
  988MOL0     H33377   1.754   7.930   9.937  0.8541 -2.1850  1.4858
  988MOL0     H33378   1.952   8.041   9.985 -1.1645 -0.8743  1.1301
  988MOL0     H33379   1.894   8.206  10.029 -0.6798  0.3952  2.2475
  988MOL0     H33380   1.981   8.114  10.153  1.4493  1.5643  0.3323
  989MOL0     O33381   4.119   5.122  10.090  0.4629  0.3356  0.7908
  989MOL0     C33382   4.158   5.223  10.151  0.7290 -0.1888  0.4031
  989MOL0     O33383   4.283   5.261  10.172  0.1011  0.2345 -0.3043
  989MOL0     C33384   4.385   5.190  10.118 -0.8161 -0.7282  0.1528
  989MOL0     C33385   4.437   5.217   9.988 -0.3816  1.1454  1.1748
  989MOL0     C33386   4.530   5.136   9.934 -0.4025  0.0795 -0.0055
  989MOL0     C33387   4.592   5.031  10.003  0.7223 -0.7560 -0.2652
  989MOL0     O33388   4.678   4.943   9.950  0.4757 -0.1605  0.5510
  989MOL0     C33389   4.675   4.903   9.813  0.6774 -0.1320  0.3109
  989MOL0     C33390   4.756   4.781   9.765  0.4026 -0.1604 -0.6079
  989MOL0     C33391   4.722   4.740   9.624  0.2328  0.4704  0.5360
  989MOL0     C33392   4.811   4.614   9.575  0.1409 -0.7575  0.2941
  989MOL0     C33393   4.847   4.608   9.425  0.5470 -0.3980 -0.6353
  989MOL0     C33394   4.915   4.473   9.400 -1.1136  0.5317  0.0679
  989MOL0     C33395   4.956   4.455   9.245  0.2853  0.1099 -0.0886
  989MOL0     C33396   5.065   4.560   9.200 -0.1611  0.4486 -0.5026
  989MOL0     N33397   5.031   4.701   9.198  1.2931 -1.0213  0.2215
  989MOL0     C33398   4.919   4.755   9.127 -0.0359  0.1002 -0.2813
  989MOL0     C33399   4.936   4.887   9.133  1.0847  0.0572 -0.9513
  989MOL0     C33400   4.831   4.989   9.104  0.1284 -0.1544  0.8779
  989MOL0     C33401   4.723   5.006   9.205 -0.1409 -0.9417 -0.3051
  989MOL0     C33402   4.784   5.021   9.344  0.4986  0.0836 -0.9947
  989MOL0     C33403   4.886   5.134   9.349 -0.7013  0.3732 -0.2108
  989MOL0     O33404   4.832   5.271   9.319  0.3294  0.9086 -0.2515
  989MOL0     C33405   4.765   5.348   9.410  0.0696  1.4101  0.9138
  989MOL0     C33406   4.718   5.292   9.530  0.0152 -0.7194 -0.0064
  989MOL0     C33407   4.618   5.365   9.602 -1.7373  0.9493  0.5287
  989MOL0     C33408   4.575   5.488   9.555  0.2360 -0.2694 -1.2009
  989MOL0     C33409   4.481   5.567   9.656 -0.6433  0.9972  0.1514
  989MOL0     O33410   4.440   5.496   9.764 -0.2756  0.6058 -0.4595
  989MOL0     C33411   4.367   5.569   9.845 -0.0233  0.3420 -0.7913
  989MOL0     C33412   4.237   5.546   9.843 -0.7957 -1.0469  0.5914
  989MOL0     C33413   4.156   5.604   9.934  0.1469 -0.8447 -0.0464
  989MOL0     C33414   4.200   5.698  10.030  0.6505  0.8055  0.8509
  989MOL0     O33415   4.107   5.745  10.117 -0.1454 -0.3637 -0.0686
  989MOL0     C33416   4.151   5.860  10.196  0.4730 -0.9345 -0.3334
  989MOL0     C33417   4.029   5.951  10.214  0.0766 -0.0018  0.1122
  989MOL0     C33418   4.072   6.060  10.324  0.0368  0.3829  0.5073
  989MOL0     C33419   3.975   6.072  10.438  0.6238 -1.1739  0.4879
  989MOL0     C33420   3.935   6.210  10.486 -0.1365 -0.7510 -0.4515
  989MOL0     C33421   3.869   6.199  10.630 -0.0215  0.7528  0.0198
  989MOL0     C33422   3.807   6.326  10.685  0.4542 -0.0895 -0.0180
  989MOL0     C33423   3.923   6.410  10.722 -0.0395 -0.8515 -0.9942
  989MOL0    Cl33424   3.847   6.572  10.741  0.1576  0.1107  0.0182
  989MOL0     C33425   4.342   5.722  10.034  0.3967 -0.3411 -0.8327
  989MOL0     C33426   4.415   5.658   9.939 -0.4140  0.2752  0.5102
  989MOL0     O33427   4.457   5.681   9.633  0.2996 -0.2715  0.5020
  989MOL0     C33428   4.622   5.543   9.434  0.8178  0.8727 -0.8195
  989MOL0     C33429   4.708   5.462   9.361  0.0086 -0.4762 -0.4417
  989MOL0     N33430   5.058   4.920   9.179  0.1924  0.0207 -0.0011
  989MOL0     N33431   5.115   4.813   9.215  0.8090 -0.4682 -0.2392
  989MOL0     C33432   4.566   5.018  10.139  0.8716  0.4680  0.3252
  989MOL0     C33433   4.455   5.098  10.193  0.7077  1.1247 -0.4962
  989MOL0     C33434   4.055   5.309  10.213  1.0277 -0.9052 -0.1728
  989MOL0     C33435   3.922   5.302  10.158 -0.1838  1.1693 -0.1953
  989MOL0     C33436   3.819   5.375  10.203 -0.1522 -0.2304 -1.1614
  989MOL0     C33437   3.834   5.466  10.308 -1.0497 -0.5114  0.4673
  989MOL0     O33438   3.744   5.534  10.379 -0.2337 -0.8359 -0.3405
  989MOL0     C33439   3.611   5.490  10.366  0.0774  0.0232 -0.3801
  989MOL0     C33440   3.565   5.364  10.453 -0.5960 -0.7981 -0.5030
  989MOL0     C33441   3.608   5.370  10.596 -1.5172  0.5762 -0.5799
  989MOL0     C33442   3.563   5.491  10.672 -0.3935  0.7835 -0.8613
  989MOL0     C33443   3.551   5.460  10.818  0.7590 -0.5808 -0.9404
  989MOL0     C33444   3.528   5.419  10.922  0.5910 -0.1805 -1.3935
  989MOL0     C33445   3.967   5.495  10.329  0.3244  0.5113 -0.3654
  989MOL0     C33446   4.080   5.422  10.297 -2.3571  0.0361 -0.9361
  989MOL0     C33447   4.223   5.478  10.339  0.6006  0.1094 -0.3360
  989MOL0     H33448   4.383   5.288   9.927  0.4394  0.7423 -0.0377
  989MOL0     H33449   4.542   5.141   9.826  1.6936 -2.0587  0.0367
  989MOL0     H33450   4.569   4.876   9.810  0.0479  2.1579  0.0989
  989MOL0     H33451   4.700   4.984   9.744 -2.2278 -1.8256 -3.1167
  989MOL0     H33452   4.767   4.692   9.829  1.5392 -0.2868 -0.9486
  989MOL0     H33453   4.856   4.824   9.756 -0.2052  1.2675 -0.7895
  989MOL0     H33454   4.739   4.825   9.557 -0.0586  1.4984  1.7371
  989MOL0     H33455   4.621   4.699   9.612 -0.0617  1.7397 -2.0804
  989MOL0     H33456   4.905   4.626   9.630  0.5971 -0.3432 -0.5506
  989MOL0     H33457   4.768   4.517   9.601 -0.8455 -0.1863  0.8495
  989MOL0     H33458   4.761   4.615   9.358  1.6807  2.4384 -1.9199
  989MOL0     H33459   4.912   4.693   9.403 -1.6934  1.3650 -0.8293
  989MOL0     H33460   5.012   4.465   9.451 -0.2765  1.4886 -1.3162
  989MOL0     H33461   4.855   4.383   9.417  0.2113 -0.2111  0.9781
  989MOL0     H33462   4.865   4.470   9.186 -1.3322  0.5674  2.3827
  989MOL0     H33463   4.992   4.354   9.224  2.0588  0.7385 -0.2281
  989MOL0     H33464   5.155   4.561   9.261 -2.5462  1.1296  3.3532
  989MOL0     H33465   5.103   4.532   9.101  2.2537 -1.3167  0.8229
  989MOL0     H33466   4.829   4.707   9.088  0.2787 -0.2254 -0.6155
  989MOL0     H33467   4.880   5.085   9.086  0.6767 -0.1876  2.1289
  989MOL0     H33468   4.793   4.961   9.006 -1.0041 -1.7193  1.7304
  989MOL0     H33469   4.670   5.101   9.193  0.5523 -0.4708  0.2710
  989MOL0     H33470   4.644   4.931   9.206 -0.8875 -0.1958 -1.3500
  989MOL0     H33471   4.840   4.932   9.374 -1.6372 -1.1671 -0.4888
  989MOL0     H33472   4.691   5.040   9.399 -0.7084 -1.7035 -2.3052
  989MOL0     H33473   4.970   5.115   9.281  0.4426 -1.0867  1.5283
  989MOL0     H33474   4.944   5.138   9.442  0.2327 -0.9682 -0.7023
  989MOL0     H33475   4.749   5.194   9.565 -0.9350 -0.1774  2.5827
  989MOL0     H33476   4.604   5.338   9.706 -0.0842  2.1851  1.1166
  989MOL0     H33477   4.195   5.471   9.776 -2.2086  1.1253 -1.0737
  989MOL0     H33478   4.054   5.569   9.930  0.3077 -1.5066  1.1896
  989MOL0     H33479   4.182   5.841  10.300 -2.0970  1.9209  1.1015
  989MOL0     H33480   4.218   5.934  10.150 -1.4409  1.3604  0.3504
  989MOL0     H33481   3.996   5.994  10.119 -2.6118 -1.9043  0.0636
  989MOL0     H33482   3.940   5.900  10.253 -1.5315  2.3518 -0.2300
  989MOL0     H33483   4.169   6.043  10.371  0.3801 -1.6906 -0.8437
  989MOL0     H33484   4.073   6.151  10.263 -0.4017 -0.7034 -1.2013
  989MOL0     H33485   4.006   6.016  10.527  0.6621  1.2610  2.1181
  989MOL0     H33486   3.878   6.036  10.402 -0.8948  3.2505 -0.4988
  989MOL0     H33487   3.852   6.241  10.422 -1.4857 -4.6942 -0.9061
  989MOL0     H33488   4.019   6.279  10.479  0.3475 -0.5273  4.2449
  989MOL0     H33489   3.785   6.130  10.616  1.3992 -0.7711 -1.2593
  989MOL0     H33490   3.935   6.154  10.705 -1.5538  1.6721  2.0412
  989MOL0     H33491   3.744   6.292  10.768  3.4921 -1.0384  2.0766
  989MOL0     H33492   3.748   6.371  10.604  2.1407 -0.2830 -1.4208
  989MOL0     H33493   3.984   6.374  10.805  2.0891 -0.1417 -2.1933
  989MOL0     H33494   3.999   6.415  10.645  0.0421 -1.8591 -0.9992
  989MOL0     H33495   4.394   5.779  10.111 -1.5971  3.7654 -2.2007
  989MOL0     H33496   4.518   5.689   9.942  0.3052 -1.9991  2.6147
  989MOL0     H33497   4.577   5.635   9.397 -2.3978  1.5765  3.9346
  989MOL0     H33498   4.739   5.490   9.260  0.1901 -0.2623 -0.3268
  989MOL0     H33499   4.595   4.927  10.191 -0.7061 -0.7592 -0.8373
  989MOL0     H33500   4.421   5.065  10.290 -0.6813 -0.7146 -1.5286
  989MOL0     H33501   3.902   5.220  10.089 -0.7404  1.6744 -0.6520
  989MOL0     H33502   3.718   5.351  10.172 -0.8808 -0.6938  1.3489
  989MOL0     H33503   3.583   5.475  10.262 -0.5202 -5.1004  0.2603
  989MOL0     H33504   3.552   5.576  10.399  0.2221  1.5850 -3.7646
  989MOL0     H33505   3.603   5.272  10.407  1.4124  0.2075 -0.9838
  989MOL0     H33506   3.458   5.343  10.453 -0.5360 -1.3586  1.7252
  989MOL0     H33507   3.716   5.353  10.600 -1.9104 -2.2795  0.7274
  989MOL0     H33508   3.570   5.280  10.646 -1.6404  0.4120 -0.9617
  989MOL0     H33509   3.621   5.583  10.665 -0.0984  0.6804  0.1024
  989MOL0     H33510   3.463   5.512  10.632 -1.5584 -0.1525  1.3815
  989MOL0     H33511   3.511   5.371  11.016  2.2143 -1.4900 -1.7208
  989MOL0     H33512   3.996   5.580  10.390 -3.0215  1.6894 -0.2262
  989MOL0     H33513   4.288   5.485  10.252  1.7824  1.0461  0.5844
  989MOL0     H33514   4.213   5.579  10.381  1.1177  0.4802 -1.1040
  989MOL0     H33515   4.269   5.416  10.416 -1.2847 -1.6617 -0.5571
  990MOL0     O33516   0.809   6.461   0.039 -0.1906  0.4857 -0.1962
  990MOL0     C33517   0.910   6.515   0.088 -0.4407 -0.0501  0.4452
  990MOL0     O33518   0.985   6.607   0.016  0.4730  0.7301 -0.2258
  990MOL0     C33519   0.973   6.633  -0.118 -0.4771 -0.3366  0.0266
  990MOL0     C33520   0.920   6.545  -0.210 -0.3213  0.2009 -0.3024
  990MOL0     C33521   0.890   6.592  -0.339 -0.2894  0.3680 -0.3232
  990MOL0     C33522   0.916   6.718  -0.384  0.6960  0.4289  0.7431
  990MOL0     O33523   0.855   6.764  -0.496 -0.4097  0.4043 -0.4901
  990MOL0     C33524   0.708   6.772  -0.498  0.3804  0.3882  0.1092
  990MOL0     C33525   0.656   6.775  -0.640  0.1297  0.5998 -0.0158
  990MOL0     C33526   0.506   6.791  -0.682  0.8883  0.5214  0.7856
  990MOL0     C33527   0.451   6.911  -0.603  0.2335 -0.2304 -0.1622
  990MOL0     C33528   0.288   6.917  -0.624  0.2587 -0.6179 -0.2889
  990MOL0     C33529   0.223   7.031  -0.543  0.0486 -0.0087  0.7140
  990MOL0     C33530   0.235   7.003  -0.392 -0.1573  0.1398  0.3196
  990MOL0     C33531   0.207   7.112  -0.297 -0.9466  0.0239  0.5529
  990MOL0     N33532   0.317   7.147  -0.218  0.1281  0.6631  0.7930
  990MOL0     C33533   0.392   7.258  -0.231 -0.0075  0.1227  0.6153
  990MOL0     C33534   0.460   7.263  -0.112  0.0335 -0.9161  0.1263
  990MOL0     C33535   0.545   7.372  -0.059  0.0434 -0.3065 -0.1153
  990MOL0     C33536   0.685   7.326  -0.043  0.8215 -0.4509 -0.2661
  990MOL0     C33537   0.754   7.319  -0.176 -0.3090  1.1718  0.8092
  990MOL0     C33538   0.814   7.177  -0.213  0.2374 -0.6342 -0.2821
  990MOL0     O33539   0.872   7.168  -0.346  0.7561 -0.2501  0.0652
  990MOL0     C33540   1.004   7.200  -0.377 -0.1968  0.4787  0.1109
  990MOL0     C33541   1.049   7.147  -0.501 -0.5140  0.1535  0.3464
  990MOL0     C33542   1.180   7.159  -0.539 -0.1569  1.1679 -0.2401
  990MOL0     C33543   1.264   7.226  -0.451 -0.1274  0.3489  0.3254
  990MOL0     C33544   1.406   7.223  -0.497  0.3411 -0.5874  0.5305
  990MOL0     O33545   1.439   7.157  -0.604 -1.4529 -0.6779  1.1751
  990MOL0     C33546   1.569   7.150  -0.653 -0.8937  0.9196 -0.0360
  990MOL0     C33547   1.645   7.259  -0.658  0.2491 -0.4541 -0.0568
  990MOL0     C33548   1.776   7.260  -0.696  0.0636 -0.2733  0.0445
  990MOL0     C33549   1.837   7.141  -0.738 -0.1454 -0.0461  1.3549
  990MOL0     O33550   1.975   7.151  -0.766 -0.4468  0.7023 -0.5051
  990MOL0     C33551   2.062   7.034  -0.761  0.0159 -1.0224  0.2860
  990MOL0     C33552   2.104   7.005  -0.615 -1.1024  0.3109 -0.5457
  990MOL0     C33553   2.160   7.126  -0.544 -0.0932 -0.0666  0.0688
  990MOL0     C33554   2.250   7.217  -0.628 -0.9837  0.0979  1.0993
  990MOL0     C33555   2.337   7.318  -0.539  0.1127 -0.6642 -0.3714
  990MOL0     C33556   2.251   7.415  -0.456 -0.0720  0.0714 -0.2349
  990MOL0     C33557   2.169   7.517  -0.529 -0.9213  0.8946 -0.7471
  990MOL0     C33558   2.125   7.622  -0.424 -0.6102  0.4882 -0.4965
  990MOL0    Cl33559   2.009   7.742  -0.493 -0.4902  0.6108 -0.0306
  990MOL0     C33560   1.765   7.029  -0.736 -0.3977  1.2755  0.8297
  990MOL0     C33561   1.632   7.028  -0.697  0.2935  0.3652 -0.8329
  990MOL0     O33562   1.478   7.286  -0.424 -0.4516 -0.9944  0.5756
  990MOL0     C33563   1.221   7.280  -0.329 -0.7149 -0.1897  0.9537
  990MOL0     C33564   1.087   7.268  -0.303  0.5507 -0.6055  0.0184
  990MOL0     N33565   0.424   7.156  -0.041  0.1037  0.1847 -0.5579
  990MOL0     N33566   0.347   7.072  -0.117 -0.8826  0.3236 -1.5047
  990MOL0     C33567   0.975   6.805  -0.290 -0.3166  0.7591 -0.8377
  990MOL0     C33568   1.003   6.760  -0.160 -0.4106 -0.7615  0.0212
  990MOL0     C33569   0.949   6.494   0.234 -1.0955  0.6000  0.2813
  990MOL0     C33570   0.920   6.365   0.293 -0.6928  0.1978 -0.0682
  990MOL0     C33571   0.978   6.330   0.418  0.3437  0.3432  0.4577
  990MOL0     C33572   1.043   6.419   0.493 -0.9029 -0.5412 -0.6834
  990MOL0     O33573   1.103   6.388   0.614 -0.2929  0.0512  0.7939
  990MOL0     C33574   1.014   6.355   0.717  0.2953  0.8063 -1.6934
  990MOL0     C33575   1.084   6.344   0.852  0.2604 -1.3977  1.4588
  990MOL0     C33576   0.986   6.301   0.966 -0.3690 -0.1607  0.8226
  990MOL0     C33577   0.982   6.160   1.013 -1.0255 -0.5279 -1.0129
  990MOL0     C33578   0.950   6.065   0.909 -0.5521  0.1817  0.1440
  990MOL0     C33579   0.934   5.987   0.820 -1.1284 -0.1158  0.0550
  990MOL0     C33580   1.069   6.551   0.445  0.5849  0.4919  0.2205
  990MOL0     C33581   1.020   6.593   0.317  0.5664  1.3543  1.2821
  990MOL0     C33582   1.045   6.735   0.273 -0.6791 -0.3138 -0.1681
  990MOL0     H33583   0.875   6.448  -0.189 -0.1080  0.4532  1.4807
  990MOL0     H33584   0.864   6.519  -0.415  0.3112 -0.7194  0.4856
  990MOL0     H33585   0.669   6.678  -0.459 -1.4706  0.7831 -0.7126
  990MOL0     H33586   0.674   6.853  -0.434  0.1957  0.4017 -0.0062
  990MOL0     H33587   0.701   6.680  -0.671  0.4718 -0.3716  3.1819
  990MOL0     H33588   0.710   6.859  -0.686 -0.0930  1.2851  0.9456
  990MOL0     H33589   0.446   6.699  -0.674 -0.5707  1.3904  0.3012
  990MOL0     H33590   0.502   6.823  -0.786  3.1684 -2.3054 -0.3045
  990MOL0     H33591   0.476   6.895  -0.498  0.8074  3.3093  0.3629
  990MOL0     H33592   0.499   7.006  -0.631  0.3972  0.4402  2.1630
  990MOL0     H33593   0.265   6.937  -0.729 -1.1884  1.7343  0.4035
  990MOL0     H33594   0.234   6.827  -0.594 -2.1966  0.9878  0.3330
  990MOL0     H33595   0.283   7.120  -0.564  2.2999 -1.6414 -0.1176
  990MOL0     H33596   0.117   7.048  -0.565 -0.3664 -3.1519 -0.1868
  990MOL0     H33597   0.335   6.962  -0.375  0.3953  1.2807 -0.1326
  990MOL0     H33598   0.166   6.918  -0.384 -0.0959 -0.0758 -1.2515
  990MOL0     H33599   0.191   7.206  -0.349 -0.1718 -1.5973 -2.8808
  990MOL0     H33600   0.129   7.071  -0.231 -0.6935 -1.4627 -0.0239
  990MOL0     H33601   0.389   7.337  -0.305 -0.6629 -0.2844  0.1990
  990MOL0     H33602   0.540   7.464  -0.119  0.6235 -0.7965 -0.9253
  990MOL0     H33603   0.516   7.407   0.041  1.3185  1.1760 -0.2135
  990MOL0     H33604   0.749   7.391   0.017  0.3057 -2.4120  2.6314
  990MOL0     H33605   0.692   7.228   0.005  1.7483  0.9700  2.7358
  990MOL0     H33606   0.841   7.384  -0.173 -2.2917  4.5506 -3.8975
  990MOL0     H33607   0.683   7.358  -0.250 -2.2624 -2.0998  0.7256
  990MOL0     H33608   0.739   7.097  -0.201 -0.1485  0.0789  3.4819
  990MOL0     H33609   0.895   7.149  -0.145  1.9486  0.3732 -1.8557
  990MOL0     H33610   0.980   7.083  -0.555  0.5933 -0.2076 -0.6788
  990MOL0     H33611   1.216   7.118  -0.633 -1.1190 -1.4753  0.4635
  990MOL0     H33612   1.601   7.353  -0.626 -1.8772 -1.9101  1.6627
  990MOL0     H33613   1.839   7.349  -0.691 -2.2305  1.3625  2.0725
  990MOL0     H33614   2.005   6.958  -0.815 -2.5854  1.3963 -0.6786
  990MOL0     H33615   2.159   7.057  -0.806  0.6778 -1.4212  1.4843
  990MOL0     H33616   2.026   6.978  -0.544  0.5185 -1.1201  0.7741
  990MOL0     H33617   2.174   6.921  -0.614 -3.3036 -1.5895  0.1107
  990MOL0     H33618   2.067   7.176  -0.512 -0.7209 -0.4918 -1.0261
  990MOL0     H33619   2.218   7.090  -0.459  2.1309  1.5929 -0.6568
  990MOL0     H33620   2.192   7.270  -0.705 -1.1912 -0.1892  1.0572
  990MOL0     H33621   2.328   7.161  -0.680 -0.3415  1.6044  0.3644
  990MOL0     H33622   2.405   7.374  -0.603  0.2880 -0.3932  0.0438
  990MOL0     H33623   2.400   7.266  -0.466  1.9823  1.9821  0.0513
  990MOL0     H33624   2.171   7.358  -0.406  0.1768 -0.0862 -0.0081
  990MOL0     H33625   2.318   7.455  -0.379  1.5755 -3.4253  0.3639
  990MOL0     H33626   2.078   7.474  -0.571  1.0485 -0.4359 -4.1356
  990MOL0     H33627   2.234   7.544  -0.614 -2.4678 -0.9512 -2.6214
  990MOL0     H33628   2.083   7.565  -0.340  1.6713 -1.2424 -0.4422
  990MOL0     H33629   2.208   7.682  -0.385 -0.7507 -2.1344  4.6388
  990MOL0     H33630   1.818   6.941  -0.770  0.8404  2.4292 -0.3422
  990MOL0     H33631   1.593   6.928  -0.680  2.5272 -0.2706  1.0183
  990MOL0     H33632   1.297   7.331  -0.270  1.6058 -2.6322  0.2841
  990MOL0     H33633   1.045   7.314  -0.214  0.4282 -0.3975 -0.1469
  990MOL0     H33634   1.001   6.909  -0.309 -1.1656  0.7487 -2.2282
  990MOL0     H33635   1.027   6.831  -0.082 -2.7187  1.4383 -1.1047
  990MOL0     H33636   0.868   6.280   0.249 -2.0191 -0.2054  2.1563
  990MOL0     H33637   0.966   6.229   0.456  0.9015  0.3147  0.5651
  990MOL0     H33638   0.981   6.253   0.693  1.6378  0.1132 -0.7556
  990MOL0     H33639   0.928   6.423   0.722 -1.0677 -0.8423 -1.4245
  990MOL0     H33640   1.118   6.446   0.872 -0.3609 -1.0173  0.6290
  990MOL0     H33641   1.169   6.277   0.864 -0.6233 -2.2632  3.4119
  990MOL0     H33642   0.885   6.333   0.941  0.2597 -0.7878 -3.0811
  990MOL0     H33643   1.021   6.364   1.048 -1.2036  2.6200 -0.8292
  990MOL0     H33644   1.078   6.143   1.063 -2.2579  0.3133  1.8518
  990MOL0     H33645   0.909   6.150   1.093 -1.6453 -2.7227 -1.7858
  990MOL0     H33646   0.931   5.914   0.742 -1.8951 -0.0443  0.0125
  990MOL0     H33647   1.134   6.613   0.507 -1.3353  1.0675  1.7630
  990MOL0     H33648   1.075   6.802   0.354  1.5106 -1.5318  0.0879
  990MOL0     H33649   1.124   6.733   0.198  0.4022 -0.2606  0.9416
  990MOL0     H33650   0.953   6.768   0.222  0.2925  0.8515 -1.2335
  991MOL0     O33651   2.250   9.335   6.581  0.6089 -0.5355  0.3795
  991MOL0     C33652   2.263   9.296   6.467  0.2449 -0.9658  0.4594
  991MOL0     O33653   2.323   9.174   6.434 -0.3018 -0.5791  0.5824
  991MOL0     C33654   2.374   9.089   6.520 -0.0305  0.1683 -0.0529
  991MOL0     C33655   2.485   9.128   6.597 -0.4741 -0.8451 -0.1989
  991MOL0     C33656   2.552   9.034   6.684 -0.1549  1.4042  1.0712
  991MOL0     C33657   2.498   8.902   6.697 -0.7710  0.4229  0.0018
  991MOL0     O33658   2.545   8.807   6.781 -0.8019  0.0163  0.0768
  991MOL0     C33659   2.599   8.854   6.907  0.2972  0.1226 -0.6756
  991MOL0     C33660   2.496   8.928   7.004  0.7413 -0.3109 -0.1445
  991MOL0     C33661   2.555   8.973   7.147 -1.3555  0.1585  0.4541
  991MOL0     C33662   2.475   9.091   7.198  0.0740 -0.6198  0.2114
  991MOL0     C33663   2.472   9.123   7.352  0.1386 -0.3292 -0.7015
  991MOL0     C33664   2.606   9.110   7.426  0.2620 -0.5652 -0.2873
  991MOL0     C33665   2.705   9.228   7.398 -0.5106 -0.2415  0.0186
  991MOL0     C33666   2.636   9.365   7.387 -1.0152 -0.1313 -0.5783
  991MOL0     N33667   2.749   9.467   7.384  0.3901 -0.7553  0.2014
  991MOL0     C33668   2.753   9.585   7.311 -1.3521 -0.9544  0.3455
  991MOL0     C33669   2.867   9.649   7.346  0.6385 -0.6712  0.3222
  991MOL0     C33670   2.937   9.767   7.287 -0.2713 -0.3025 -0.4897
  991MOL0     C33671   2.875   9.895   7.350 -0.9178 -1.1102 -0.0933
  991MOL0     C33672   2.937   9.911   7.492  0.1461 -0.2695 -0.9524
  991MOL0     C33673   2.898  10.049   7.561  0.0505  0.2840  0.0027
  991MOL0     O33674   2.754  10.052   7.562  0.0298  0.5423  0.1731
  991MOL0     C33675   2.690  10.153   7.628 -0.4269  0.2002 -0.2481
  991MOL0     C33676   2.558  10.128   7.643  0.7708  1.2624  0.2713
  991MOL0     C33677   2.476  10.205   7.722 -0.2324  0.5876  0.2402
  991MOL0     C33678   2.532  10.317   7.788 -0.2509 -0.3066 -0.2126
  991MOL0     C33679   2.436  10.407   7.862  0.3855  0.2486 -0.4392
  991MOL0     O33680   2.450  10.545   7.835  0.6677  0.7658 -0.4636
  991MOL0     C33681   2.368  10.644   7.893  0.5729  0.3813 -0.2585
  991MOL0     C33682   2.322  10.740   7.808 -0.5045  0.0177 -0.1847
  991MOL0     C33683   2.262  10.853   7.869  0.0668 -0.2165  0.0780
  991MOL0     C33684   2.245  10.874   8.016 -0.2257  0.3067 -0.2252
  991MOL0     O33685   2.199  10.990   8.070  0.7080  0.1033  0.0353
  991MOL0     C33686   2.067  10.971   8.126 -0.5136 -1.1070  0.5880
  991MOL0     C33687   2.065  10.965   8.274  1.0376  0.1534 -0.6906
  991MOL0     C33688   2.129  11.089   8.342 -0.5173 -0.2749 -0.5182
  991MOL0     C33689   2.217  11.052   8.463  0.1109  0.1479  0.3736
  991MOL0     C33690   2.146  10.962   8.575  0.7441 -0.7497 -0.4661
  991MOL0     C33691   2.251  10.929   8.680 -0.3501  0.1724  0.0014
  991MOL0     C33692   2.201  10.840   8.799 -0.8607  0.0158 -0.8241
  991MOL0     C33693   2.299  10.842   8.921  0.3383 -0.6646  0.3994
  991MOL0    Cl33694   2.292  11.001   9.014 -0.3975 -0.4874  0.3463
  991MOL0     C33695   2.280  10.761   8.097 -0.2452  1.0357  0.6321
  991MOL0     C33696   2.342  10.647   8.028 -0.2553 -0.2366 -0.8266
  991MOL0     O33697   2.350  10.351   7.932 -0.5712 -0.2367 -0.8282
  991MOL0     C33698   2.666  10.349   7.777  0.3199  0.2632  0.4277
  991MOL0     C33699   2.740  10.264   7.696  0.0146 -0.2503  0.3754
  991MOL0     N33700   2.924   9.574   7.454  0.4241 -1.2175 -0.0907
  991MOL0     N33701   2.855   9.471   7.476  0.2603 -0.5047  0.1937
  991MOL0     C33702   2.397   8.868   6.608 -0.5211 -0.1853  0.1825
  991MOL0     C33703   2.337   8.956   6.523  1.6196 -0.1627 -0.9115
  991MOL0     C33704   2.213   9.376   6.356 -0.8987  0.9016 -0.1139
  991MOL0     C33705   2.151   9.294   6.257 -0.0669 -0.3465  0.2457
  991MOL0     C33706   2.078   9.358   6.151 -0.8467  0.5875  0.7669
  991MOL0     C33707   2.072   9.497   6.135  0.2672 -0.6866  0.7640
  991MOL0     O33708   2.001   9.546   6.025  0.7322  0.2860 -0.0267
  991MOL0     C33709   1.982   9.689   5.992 -0.0963  0.2658 -0.1740
  991MOL0     C33710   1.872   9.708   5.879  0.4903 -0.8360  0.9610
  991MOL0     C33711   1.927   9.675   5.737  0.5386  0.4993  1.0036
  991MOL0     C33712   1.819   9.662   5.631 -0.5384 -0.9354 -0.4267
  991MOL0     C33713   1.817   9.536   5.557  0.2618 -0.2870 -0.1375
  991MOL0     C33714   1.792   9.438   5.488 -0.5363  0.2467  0.4330
  991MOL0     C33715   2.129   9.577   6.237 -0.0751  0.3100  0.1555
  991MOL0     C33716   2.201   9.513   6.346  0.4988 -0.5908  0.3052
  991MOL0     C33717   2.271   9.608   6.437  0.1403  0.3907 -0.0598
  991MOL0     H33718   2.519   9.230   6.592 -0.5825 -0.8778 -2.1432
  991MOL0     H33719   2.633   9.080   6.740 -0.1458  2.1076  0.4989
  991MOL0     H33720   2.632   8.762   6.955 -3.5724 -0.3905  1.4454
  991MOL0     H33721   2.680   8.923   6.882  1.5993 -1.2041 -0.2107
  991MOL0     H33722   2.405   8.874   7.030 -3.2029  5.8812  1.0369
  991MOL0     H33723   2.448   9.007   6.946 -0.2151 -0.2929  0.6512
  991MOL0     H33724   2.659   9.006   7.141 -2.3497  3.3333 -1.9878
  991MOL0     H33725   2.540   8.888   7.215  2.3205 -1.5581 -0.6380
  991MOL0     H33726   2.507   9.185   7.150 -1.7551  1.5763  2.9878
  991MOL0     H33727   2.369   9.085   7.170 -0.5853  4.0871  0.8730
  991MOL0     H33728   2.420   9.217   7.372 -1.8599 -1.0499 -2.1882
  991MOL0     H33729   2.415   9.039   7.393  1.8853 -1.4701 -0.5123
  991MOL0     H33730   2.582   9.102   7.532  3.9821 -1.8103  0.6256
  991MOL0     H33731   2.655   9.014   7.406 -0.4089 -1.2644  1.2758
  991MOL0     H33732   2.757   9.189   7.310  2.0850 -1.3362  1.9008
  991MOL0     H33733   2.785   9.220   7.473 -0.5155 -2.2218 -0.1132
  991MOL0     H33734   2.596   9.380   7.286  0.5574  0.0349 -1.2090
  991MOL0     H33735   2.568   9.379   7.471 -0.1680  1.0369 -0.0669
  991MOL0     H33736   2.681   9.604   7.232  0.0691  1.8284 -0.4159
  991MOL0     H33737   3.043   9.760   7.315 -0.3357  0.8499  0.1164
  991MOL0     H33738   2.923   9.770   7.179 -1.0333 -0.5391 -0.4062
  991MOL0     H33739   2.910   9.987   7.304 -2.1879 -0.1952  0.7145
  991MOL0     H33740   2.766   9.905   7.346 -0.8098  0.9644  1.0464
  991MOL0     H33741   3.046   9.901   7.485  0.2993  1.4757 -1.8118
  991MOL0     H33742   2.905   9.823   7.548  0.3887  0.2586  0.0287
  991MOL0     H33743   2.926  10.137   7.502  0.7803 -1.2823 -2.1292
  991MOL0     H33744   2.950  10.069   7.655  0.6697 -0.6593 -0.1303
  991MOL0     H33745   2.505  10.052   7.586 -1.3625  1.8253  1.3833
  991MOL0     H33746   2.371  10.179   7.723  0.2217 -1.4094  1.5927
  991MOL0     H33747   2.355  10.731   7.705  2.2165 -2.2653  0.7621
  991MOL0     H33748   2.222  10.925   7.799 -1.8717  1.2583  2.5407
  991MOL0     H33749   2.001  11.052   8.093 -1.3201 -1.4263  1.3551
  991MOL0     H33750   2.018  10.884   8.083  0.2918 -1.6440  0.7314
  991MOL0     H33751   1.961  10.949   8.302  0.7723  1.3079 -0.9368
  991MOL0     H33752   2.121  10.877   8.305 -0.8917 -1.0687 -0.5180
  991MOL0     H33753   2.202  11.137   8.276 -0.9088 -0.4662 -1.0886
  991MOL0     H33754   2.057  11.160   8.384  1.7117  0.5783  2.2281
  991MOL0     H33755   2.263  11.146   8.495  1.1312 -0.4222  0.6289
  991MOL0     H33756   2.289  10.982   8.419  1.2518  1.4058  0.1611
  991MOL0     H33757   2.103  10.873   8.530 -0.0168 -1.8641  2.2424
  991MOL0     H33758   2.066  11.019   8.623  0.5675  0.2413 -1.8784
  991MOL0     H33759   2.329  10.869   8.633  3.7934  4.3872  0.6726
  991MOL0     H33760   2.296  11.023   8.716 -0.2771  0.5928 -1.1611
  991MOL0     H33761   2.208  10.731   8.792 -0.1046 -0.0960  1.0437
  991MOL0     H33762   2.098  10.856   8.830 -1.2648 -2.6905 -0.5013
  991MOL0     H33763   2.274  10.767   8.996 -3.0971 -0.5681 -0.5026
  991MOL0     H33764   2.406  10.843   8.894 -0.0082  2.4256 -1.4174
  991MOL0     H33765   2.281  10.776   8.204 -1.9282  1.2766  0.6475
  991MOL0     H33766   2.399  10.576   8.087  0.6632  0.9233 -0.2582
  991MOL0     H33767   2.705  10.436   7.828  2.0197  0.4440 -1.0710
  991MOL0     H33768   2.847  10.280   7.687 -0.0685  1.0171  1.3352
  991MOL0     H33769   2.355   8.769   6.626  0.9920 -0.9244 -0.1676
  991MOL0     H33770   2.263   8.915   6.455  2.9549 -1.6258 -1.5428
  991MOL0     H33771   2.148   9.186   6.258 -1.2531 -0.3455  1.8563
  991MOL0     H33772   2.045   9.287   6.076  2.5143  1.0386 -1.3103
  991MOL0     H33773   2.080   9.724   5.959  1.2237 -1.9358  1.1934
  991MOL0     H33774   1.944   9.748   6.076 -2.1035  2.4762 -2.4446
  991MOL0     H33775   1.841   9.813   5.877  3.5587  0.1794  0.9335
  991MOL0     H33776   1.785   9.645   5.895 -0.3061  0.0912  0.4039
  991MOL0     H33777   1.980   9.580   5.748  4.2539  2.5550  2.5274
  991MOL0     H33778   2.000   9.744   5.695  2.3019 -1.0075  1.4402
  991MOL0     H33779   1.722   9.674   5.680  0.4489  4.3937  0.8870
  991MOL0     H33780   1.824   9.749   5.565  0.1304 -0.0967  0.6882
  991MOL0     H33781   1.764   9.349   5.437  0.8406 -1.5416  2.6280
  991MOL0     H33782   2.127   9.685   6.245  2.1310  0.2491  4.0395
  991MOL0     H33783   2.365   9.636   6.389  0.0243  1.7683  0.4632
  991MOL0     H33784   2.215   9.700   6.456  2.5999  2.7074 -2.9916
  991MOL0     H33785   2.298   9.561   6.532  2.3801  0.6621 -0.4844
  992MOL0     O33786   3.352   2.096   7.606 -0.5796 -0.2541 -0.2076
  992MOL0     C33787   3.235   2.071   7.598  1.0589 -0.0708 -0.2092
  992MOL0     O33788   3.138   2.171   7.604  0.2595  0.0367  0.3599
  992MOL0     C33789   3.162   2.299   7.654  0.4217 -0.4621  1.6490
  992MOL0     C33790   3.236   2.323   7.764  0.0220 -0.5791 -0.2302
  992MOL0     C33791   3.250   2.455   7.822  1.0118  0.4629  0.2587
  992MOL0     C33792   3.190   2.564   7.761 -0.8921  0.1963  0.1491
  992MOL0     O33793   3.210   2.694   7.797  0.3968 -1.5984 -0.6752
  992MOL0     C33794   3.351   2.735   7.814 -0.1769  0.2705 -1.0422
  992MOL0     C33795   3.350   2.872   7.868 -0.7688 -0.8661 -1.1337
  992MOL0     C33796   3.268   2.891   7.993 -0.0639  0.3802 -0.5388
  992MOL0     C33797   3.285   3.032   8.053  0.6866  0.3405 -0.2802
  992MOL0     C33798   3.185   3.069   8.161  0.5217  0.1787 -0.2630
  992MOL0     C33799   3.044   3.087   8.112  0.1624  0.3777 -1.5347
  992MOL0     C33800   3.003   3.236   8.074  0.1242  0.0322  0.4904
  992MOL0     C33801   3.030   3.270   7.925  0.1562 -0.5166  0.2059
  992MOL0     N33802   2.963   3.403   7.896  0.4764 -0.1667 -0.1764
  992MOL0     C33803   2.982   3.523   7.965  0.2212  0.0745 -0.5944
  992MOL0     C33804   2.896   3.602   7.897  0.0814  0.6376 -0.6122
  992MOL0     C33805   2.885   3.751   7.919 -0.2577  0.5992  0.2972
  992MOL0     C33806   2.743   3.804   7.916 -0.4486 -0.1221  0.0134
  992MOL0     C33807   2.693   3.836   7.777 -0.2301 -0.1433  0.6675
  992MOL0     C33808   2.570   3.931   7.790  1.4036  0.4451  0.2153
  992MOL0     O33809   2.577   4.039   7.696  0.3191 -0.5414 -0.2222
  992MOL0     C33810   2.515   4.027   7.576 -0.3462 -0.0811  0.7710
  992MOL0     C33811   2.497   3.906   7.509 -0.1897 -0.7725  0.6407
  992MOL0     C33812   2.433   3.899   7.388 -0.4912 -1.7078 -0.0664
  992MOL0     C33813   2.399   4.024   7.321 -0.2357  0.0615  0.2006
  992MOL0     C33814   2.347   4.029   7.187  0.5583  0.5397 -0.2040
  992MOL0     O33815   2.297   4.150   7.142 -0.4348  0.3959 -0.7974
  992MOL0     C33816   2.220   4.155   7.031 -0.6302  0.4408  0.8447
  992MOL0     C33817   2.211   4.283   6.971 -0.2282 -0.1096 -0.6903
  992MOL0     C33818   2.118   4.316   6.867 -0.8639  0.7340 -0.5657
  992MOL0     C33819   2.032   4.215   6.827  0.4079  0.3952  0.1180
  992MOL0     O33820   1.948   4.252   6.728  0.4583  0.2640  0.7266
  992MOL0     C33821   1.810   4.214   6.744 -0.5444  0.0674  0.1832
  992MOL0     C33822   1.716   4.290   6.654  0.5974 -0.4210 -0.9207
  992MOL0     C33823   1.696   4.431   6.725 -1.1268 -0.6614  0.4264
  992MOL0     C33824   1.657   4.535   6.621 -0.0201  0.5051 -0.2304
  992MOL0     C33825   1.513   4.519   6.575  0.3761  0.6555  0.8955
  992MOL0     C33826   1.512   4.548   6.429 -0.4992  1.2497  0.5752
  992MOL0     C33827   1.375   4.545   6.360 -0.2738 -0.1968 -0.0017
  992MOL0     C33828   1.387   4.619   6.226  0.3315  0.3269  0.8191
  992MOL0    Cl33829   1.246   4.709   6.206  0.3465 -0.2805  0.2327
  992MOL0     C33830   2.042   4.085   6.881  0.8706 -0.6980 -0.1182
  992MOL0     C33831   2.131   4.063   6.984  0.0352 -0.4068 -0.3203
  992MOL0     O33832   2.349   3.923   7.132 -0.0415  0.3801  0.8940
  992MOL0     C33833   2.420   4.146   7.380  0.4245 -0.3371 -0.5917
  992MOL0     C33834   2.464   4.148   7.511 -0.0536  0.2586  0.0979
  992MOL0     N33835   2.838   3.526   7.791 -0.7504  0.0750 -0.7256
  992MOL0     N33836   2.879   3.413   7.793 -0.3306 -0.2829 -0.0844
  992MOL0     C33837   3.149   2.535   7.626  1.1225 -0.1749  0.9804
  992MOL0     C33838   3.126   2.410   7.576 -0.3674  0.1538 -0.2129
  992MOL0     C33839   3.191   1.930   7.574 -0.0038  0.6936 -0.0405
  992MOL0     C33840   3.051   1.888   7.578  0.5503  1.0525  0.3981
  992MOL0     C33841   3.005   1.757   7.547  0.1311  0.2427  0.0444
  992MOL0     C33842   3.097   1.661   7.520  0.2361 -0.5840  0.5403
  992MOL0     O33843   3.039   1.542   7.479 -0.4508 -0.1485 -0.2066
  992MOL0     C33844   3.112   1.428   7.439 -0.1890 -0.8291  0.0345
  992MOL0     C33845   3.159   1.428   7.290  0.3527 -0.3136  0.4039
  992MOL0     C33846   3.236   1.300   7.252 -0.3741 -0.0168  0.0095
  992MOL0     C33847   3.278   1.287   7.106  0.1062  1.0842 -0.0785
  992MOL0     C33848   3.351   1.150   7.093 -0.2766 -0.1357  0.4844
  992MOL0     C33849   3.432   1.065   7.085  0.2700  0.1857  0.3894
  992MOL0     C33850   3.237   1.691   7.520  0.2169 -0.1894 -1.2929
  992MOL0     C33851   3.277   1.822   7.541 -0.0612  0.0251 -0.9265
  992MOL0     C33852   3.432   1.844   7.540 -0.2276  0.6258  0.8850
  992MOL0     H33853   3.276   2.236   7.816  1.2927 -0.7592 -1.4506
  992MOL0     H33854   3.305   2.465   7.916 -0.2300  3.9079  0.7732
  992MOL0     H33855   3.409   2.667   7.877 -3.4835 -0.9706  0.9082
  992MOL0     H33856   3.395   2.728   7.714 -0.7115 -0.9725 -1.2038
  992MOL0     H33857   3.313   2.943   7.793  1.4226  0.9364 -0.6459
  992MOL0     H33858   3.448   2.907   7.903 -1.9088 -1.0841  2.7905
  992MOL0     H33859   3.312   2.825   8.069  2.7536  1.3320 -1.2286
  992MOL0     H33860   3.164   2.868   7.970  0.4454 -0.5386 -2.0845
  992MOL0     H33861   3.381   3.038   8.105  0.8224  1.4349 -0.6258
  992MOL0     H33862   3.295   3.107   7.975 -0.4772 -0.1642 -0.9291
  992MOL0     H33863   3.183   2.997   8.244  1.4622  0.1138 -0.2855
  992MOL0     H33864   3.209   3.156   8.223 -5.9886  0.1852  3.1201
  992MOL0     H33865   3.000   3.017   8.040 -2.1667  0.4179 -0.2566
  992MOL0     H33866   2.986   3.075   8.204 -0.9310  0.4219 -2.1963
  992MOL0     H33867   3.052   3.306   8.143 -0.2161  0.0701  0.6968
  992MOL0     H33868   2.899   3.251   8.104 -0.9227 -1.1371 -2.2334
  992MOL0     H33869   3.140   3.274   7.918  0.1211 -1.2853 -1.1006
  992MOL0     H33870   2.998   3.192   7.855  2.4078  0.0349 -1.5943
  992MOL0     H33871   3.040   3.547   8.053 -1.8174 -1.0435  1.1463
  992MOL0     H33872   2.943   3.778   8.008  2.0645 -2.2178 -0.2204
  992MOL0     H33873   2.939   3.787   7.830 -2.5221 -3.0699 -2.8860
  992MOL0     H33874   2.684   3.722   7.960 -0.5802  0.2299  0.5045
  992MOL0     H33875   2.739   3.893   7.980 -3.1680  0.4445 -0.8186
  992MOL0     H33876   2.665   3.745   7.725  1.4648  0.4072 -1.3770
  992MOL0     H33877   2.770   3.886   7.717 -2.2638  3.8473  1.0688
  992MOL0     H33878   2.577   3.985   7.885  3.3433  2.1348 -0.8047
  992MOL0     H33879   2.480   3.870   7.787  2.9954 -2.0616 -0.4087
  992MOL0     H33880   2.529   3.812   7.553 -0.2126 -0.6603  0.9013
  992MOL0     H33881   2.405   3.805   7.342  0.1117 -1.8737 -0.1106
  992MOL0     H33882   2.278   4.361   7.007 -0.6273  0.3671 -0.9671
  992MOL0     H33883   2.125   4.418   6.830 -0.6351  0.7100 -0.5889
  992MOL0     H33884   1.801   4.109   6.714 -1.1385 -0.4022  1.9025
  992MOL0     H33885   1.775   4.239   6.844  0.4322 -0.3523  0.6444
  992MOL0     H33886   1.744   4.311   6.551  2.0514  1.3807 -0.2237
  992MOL0     H33887   1.616   4.246   6.651 -0.1109  0.3787  3.3372
  992MOL0     H33888   1.624   4.419   6.806 -1.6501  0.2712  0.1208
  992MOL0     H33889   1.789   4.468   6.769 -1.1946  1.9503 -1.3771
  992MOL0     H33890   1.732   4.536   6.542  0.0980 -0.0087 -0.1258
  992MOL0     H33891   1.662   4.630   6.676 -0.1922  0.0465  0.6051
  992MOL0     H33892   1.449   4.589   6.629  0.8523  0.2107  2.0780
  992MOL0     H33893   1.478   4.421   6.607  0.7127  1.2418  3.2230
  992MOL0     H33894   1.561   4.646   6.424  3.7687 -0.6197  1.0590
  992MOL0     H33895   1.581   4.474   6.388  0.3893  0.2313  3.5954
  992MOL0     H33896   1.312   4.595   6.434  0.1141  1.3497 -0.6865
  992MOL0     H33897   1.352   4.439   6.343  2.7225 -1.5630  3.2058
  992MOL0     H33898   1.476   4.682   6.227 -1.5597  3.5069 -2.9259
  992MOL0     H33899   1.394   4.541   6.150 -2.1680 -0.5457  1.3703
  992MOL0     H33900   1.972   4.002   6.874  0.4594 -0.6903  2.7577
  992MOL0     H33901   2.114   3.973   7.043  1.6815 -0.9636 -0.6421
  992MOL0     H33902   2.392   4.237   7.328  1.7304 -0.1696 -1.0241
  992MOL0     H33903   2.473   4.241   7.567 -1.4965  1.3641 -1.4190
  992MOL0     H33904   3.120   2.617   7.561  2.2635 -1.5470 -1.4071
  992MOL0     H33905   3.084   2.401   7.476 -3.1196 -2.8410  1.0564
  992MOL0     H33906   2.981   1.970   7.584  1.6137  2.2580 -1.9729
  992MOL0     H33907   2.898   1.739   7.538 -0.1507  2.1241 -0.7970
  992MOL0     H33908   3.056   1.336   7.457 -0.2948 -0.8487 -0.3859
  992MOL0     H33909   3.207   1.433   7.494  0.2501  1.7520 -0.8276
  992MOL0     H33910   3.230   1.509   7.269  0.9734 -0.9432  0.0550
  992MOL0     H33911   3.074   1.459   7.228  1.2576  2.2189  0.3165
  992MOL0     H33912   3.176   1.216   7.287 -0.0241 -0.5170 -0.5686
  992MOL0     H33913   3.323   1.290   7.318  0.6959  0.0637 -1.3370
  992MOL0     H33914   3.190   1.292   7.041  1.2170 -0.8938 -1.8694
  992MOL0     H33915   3.351   1.365   7.082  3.3062 -2.1882 -1.9470
  992MOL0     H33916   3.510   0.993   7.074 -0.3983 -0.4088 -0.6631
  992MOL0     H33917   3.304   1.611   7.489  0.0303 -0.7964 -0.1897
  992MOL0     H33918   3.469   1.935   7.493  4.2605 -0.7870  1.2101
  992MOL0     H33919   3.471   1.840   7.642  0.5287  1.3152  0.6330
  992MOL0     H33920   3.493   1.774   7.482 -2.2752  0.5030 -1.2400
  993MOL0     O33921   7.028   6.586   5.480 -0.5109  0.8634  0.1296
  993MOL0     C33922   6.975   6.486   5.526  0.4528  0.4733 -0.1348
  993MOL0     O33923   6.909   6.472   5.644 -0.4408 -0.7142  0.2383
  993MOL0     C33924   6.929   6.577   5.733  0.0405  0.5064 -0.0489
  993MOL0     C33925   6.905   6.711   5.716  0.6962  0.6210 -0.4238
  993MOL0     C33926   6.904   6.800   5.827 -0.4280  0.4621  0.2097
  993MOL0     C33927   6.930   6.757   5.955  0.9084  0.5832 -0.5276
  993MOL0     O33928   6.900   6.843   6.051 -0.0434  0.5473 -0.6967
  993MOL0     C33929   6.980   6.838   6.179 -0.0312  0.2019  1.2756
  993MOL0     C33930   6.949   6.976   6.240  0.3684  1.2880  0.0595
  993MOL0     C33931   7.030   6.999   6.360  0.3501  0.1486  0.1908
  993MOL0     C33932   6.952   6.999   6.490  1.2673 -0.2840 -0.0188
  993MOL0     C33933   7.035   7.039   6.618 -0.2636  0.0496  0.4839
  993MOL0     C33934   7.178   6.967   6.634  0.3644 -0.3678  0.2766
  993MOL0     C33935   7.243   7.012   6.773  0.6320  0.0706  0.3385
  993MOL0     C33936   7.399   6.975   6.775 -0.7648 -0.4947  0.6513
  993MOL0     N33937   7.428   6.833   6.766  0.2387 -0.5046  0.6734
  993MOL0     C33938   7.423   6.744   6.874  0.3097  0.0269 -0.2415
  993MOL0     C33939   7.481   6.632   6.823  0.2056 -0.4563 -0.1569
  993MOL0     C33940   7.514   6.497   6.889 -0.0204 -0.2313  0.1315
  993MOL0     C33941   7.405   6.388   6.850 -0.0597  0.0095  0.7373
  993MOL0     C33942   7.267   6.401   6.907  0.2793  0.1962 -0.1682
  993MOL0     C33943   7.270   6.346   7.057 -0.5470 -0.1879 -0.0185
  993MOL0     O33944   7.135   6.314   7.097  0.1056 -0.0831  0.2125
  993MOL0     C33945   7.117   6.278   7.231  1.6353 -0.1576  0.6355
  993MOL0     C33946   7.207   6.261   7.330  0.1038  0.5229 -0.7348
  993MOL0     C33947   7.168   6.233   7.463  0.4386 -0.0828  0.4763
  993MOL0     C33948   7.031   6.217   7.490 -0.0211 -0.2539 -0.4283
  993MOL0     C33949   6.990   6.194   7.630 -0.2241 -0.7036  0.7471
  993MOL0     O33950   7.056   6.245   7.731  0.2857 -0.6390 -0.4364
  993MOL0     C33951   7.012   6.235   7.862  0.0652  0.5621  0.0463
  993MOL0     C33952   6.946   6.123   7.922  1.0511 -0.8418  1.1630
  993MOL0     C33953   6.898   6.139   8.050 -0.1570  0.2575 -0.7648
  993MOL0     C33954   6.930   6.247   8.137 -0.3466 -0.0699  0.5275
  993MOL0     O33955   6.905   6.232   8.272  0.0584 -0.6294 -0.0378
  993MOL0     C33956   6.924   6.345   8.358  0.2658 -0.2555 -0.3638
  993MOL0     C33957   6.877   6.316   8.496  1.0727 -0.3615  0.1837
  993MOL0     C33958   6.924   6.180   8.553  0.9062 -0.0981  0.5223
  993MOL0     C33959   6.958   6.196   8.704 -0.6895  0.8449  0.1365
  993MOL0     C33960   7.095   6.251   8.722 -0.0850 -0.4661  0.4798
  993MOL0     C33961   7.141   6.224   8.864 -0.3115 -0.4738 -0.2078
  993MOL0     C33962   7.283   6.275   8.859 -0.5442  0.2565 -0.7870
  993MOL0     C33963   7.377   6.273   8.981 -0.5901  0.6287 -0.4192
  993MOL0    Cl33964   7.548   6.323   8.949  0.6838  0.0433 -0.2475
  993MOL0     C33965   6.988   6.357   8.072 -0.0056 -0.0782 -0.0224
  993MOL0     C33966   7.017   6.350   7.932  0.0368  0.0982  0.1499
  993MOL0     O33967   6.893   6.123   7.637  0.0172  0.8845 -0.4956
  993MOL0     C33968   6.935   6.225   7.392 -0.4792 -0.2569  0.3539
  993MOL0     C33969   6.980   6.266   7.263  0.8893 -0.5626  0.0649
  993MOL0     N33970   7.503   6.651   6.688  0.6848 -0.3160 -0.1790
  993MOL0     N33971   7.466   6.770   6.653 -0.1770  0.4401  0.8878
  993MOL0     C33972   6.966   6.625   5.970 -0.7687  0.3023  0.6985
  993MOL0     C33973   6.949   6.535   5.867 -0.3939 -0.4803 -0.6996
  993MOL0     C33974   6.976   6.365   5.437  0.4859  0.0136  0.7518
  993MOL0     C33975   6.977   6.391   5.299  0.5055  0.8415  0.3960
  993MOL0     C33976   6.973   6.280   5.206 -0.1007  0.2461 -0.3667
  993MOL0     C33977   6.974   6.139   5.245  1.1507 -0.7375  0.1762
  993MOL0     O33978   6.977   6.027   5.166  0.0929  0.6823  0.0906
  993MOL0     C33979   7.011   6.045   5.022 -0.5007 -0.0263  0.0021
  993MOL0     C33980   7.033   5.907   4.951 -0.7441 -0.9363 -0.3236
  993MOL0     C33981   7.145   5.823   5.002  0.4439 -1.3473  1.0136
  993MOL0     C33982   7.126   5.677   4.953  0.5904 -0.4484  0.9482
  993MOL0     C33983   7.258   5.623   4.960  0.3885  0.6891 -0.1389
  993MOL0     C33984   7.358   5.548   4.957 -0.4957 -0.3802 -0.3659
  993MOL0     C33985   6.978   6.126   5.382  0.1462  1.0575  0.2265
  993MOL0     C33986   6.970   6.227   5.470  0.2632 -1.2642  0.9718
  993MOL0     C33987   6.969   6.198   5.623  0.6057  0.6296  0.1035
  993MOL0     H33988   6.858   6.759   5.631  0.3567  0.8497 -0.1116
  993MOL0     H33989   6.872   6.902   5.814 -2.9792  0.1581  2.9852
  993MOL0     H33990   6.952   6.755   6.245  2.6935 -0.5732  1.5519
  993MOL0     H33991   7.086   6.837   6.156  0.3954 -0.7293  3.0834
  993MOL0     H33992   6.845   6.992   6.272  0.0134  2.3844 -1.5388
  993MOL0     H33993   6.970   7.046   6.159  2.2538 -2.3767 -2.9481
  993MOL0     H33994   7.073   7.099   6.356 -0.3050  0.3883 -1.2576
  993MOL0     H33995   7.121   6.938   6.355 -2.0756 -3.6829 -3.4461
  993MOL0     H33996   6.862   7.056   6.467  1.2822 -0.7880 -1.3856
  993MOL0     H33997   6.914   6.897   6.495 -2.6399  0.8356 -2.6981
  993MOL0     H33998   7.045   7.147   6.604 -3.2916 -0.0716 -6.3435
  993MOL0     H33999   6.973   7.020   6.706 -0.6121  1.1912  0.4983
  993MOL0     H34000   7.185   6.860   6.615  1.6120 -0.1539 -0.5926
  993MOL0     H34001   7.243   7.019   6.563  0.6289  0.3321  1.0228
  993MOL0     H34002   7.194   6.969   6.861  1.3581  1.4886  1.4799
  993MOL0     H34003   7.246   7.121   6.783 -3.8469  0.3777  0.1265
  993MOL0     H34004   7.443   7.019   6.685 -2.8232  0.9683  0.2856
  993MOL0     H34005   7.452   7.017   6.861 -0.6963 -0.3633  0.5445
  993MOL0     H34006   7.387   6.754   6.976  2.0106 -3.2895  0.8459
  993MOL0     H34007   7.619   6.471   6.871  0.9809  2.7129  1.0561
  993MOL0     H34008   7.507   6.500   6.999  0.3684  0.1098  0.1502
  993MOL0     H34009   7.397   6.395   6.741 -0.3814 -2.6915  0.5265
  993MOL0     H34010   7.441   6.287   6.872 -1.4522 -0.2898  1.8153
  993MOL0     H34011   7.201   6.344   6.841 -0.6595  1.1003 -0.0344
  993MOL0     H34012   7.232   6.504   6.920 -0.9622 -0.6560  5.9456
  993MOL0     H34013   7.292   6.442   7.105  2.3581  1.6155 -4.3135
  993MOL0     H34014   7.347   6.272   7.081 -2.8549 -1.2553  5.6781
  993MOL0     H34015   7.313   6.286   7.324  0.1449  0.8010  0.7676
  993MOL0     H34016   7.237   6.226   7.546  1.2025 -2.1398 -0.2845
  993MOL0     H34017   6.922   6.028   7.875 -3.3747  0.3608  0.5677
  993MOL0     H34018   6.844   6.057   8.096 -0.6412  1.3052  0.6076
  993MOL0     H34019   7.030   6.370   8.372 -0.0504 -0.4584  3.1990
  993MOL0     H34020   6.873   6.437   8.328 -3.6212 -1.6238  1.4520
  993MOL0     H34021   6.918   6.399   8.554 -1.4086  0.7000  0.5342
  993MOL0     H34022   6.769   6.332   8.488  1.2998  0.7930 -0.8858
  993MOL0     H34023   6.845   6.108   8.529  1.5131 -1.4731  2.3561
  993MOL0     H34024   7.013   6.149   8.498  0.5224 -1.3238  0.5666
  993MOL0     H34025   6.976   6.104   8.760  1.4658  2.3215  2.0394
  993MOL0     H34026   6.896   6.268   8.758  0.6138  0.9763  1.5071
  993MOL0     H34027   7.095   6.358   8.700 -1.0215  0.1748  3.1993
  993MOL0     H34028   7.168   6.203   8.656 -0.1846 -0.8694  0.6552
  993MOL0     H34029   7.069   6.289   8.916  2.3300  1.3648  1.3571
  993MOL0     H34030   7.139   6.122   8.903 -1.5393 -0.4211 -0.0783
  993MOL0     H34031   7.273   6.384   8.848  2.4432  0.7020 -0.0177
  993MOL0     H34032   7.335   6.230   8.774 -1.4199 -2.9520  0.2338
  993MOL0     H34033   7.353   6.338   9.067  0.5258  0.4902  0.0135
  993MOL0     H34034   7.372   6.175   9.029 -0.9195 -0.4730 -2.5961
  993MOL0     H34035   7.010   6.446   8.130  3.2887 -1.3290  0.8963
  993MOL0     H34036   7.076   6.430   7.887  1.3763 -0.9488 -0.0421
  993MOL0     H34037   6.831   6.232   7.420 -1.3522  1.5165 -2.7578
  993MOL0     H34038   6.902   6.281   7.189  0.2458  1.2830  1.0375
  993MOL0     H34039   6.999   6.586   6.065 -3.3144 -1.6446  0.9010
  993MOL0     H34040   6.959   6.427   5.872 -4.1688 -0.9232  2.7410
  993MOL0     H34041   6.970   6.487   5.249  1.3108  0.1707 -1.0443
  993MOL0     H34042   6.950   6.294   5.101  1.2460 -1.5009 -0.9444
  993MOL0     H34043   7.095   6.115   5.017  0.3653 -0.9626  0.9067
  993MOL0     H34044   6.925   6.094   4.974  0.5035 -0.3842 -2.2682
  993MOL0     H34045   7.036   5.920   4.842  2.4346  0.8106 -0.1494
  993MOL0     H34046   6.946   5.842   4.963 -1.6168 -0.2972 -2.5974
  993MOL0     H34047   7.148   5.835   5.111  0.6912 -0.8062  0.9516
  993MOL0     H34048   7.244   5.859   4.971  0.3387  0.8457  2.9331
  993MOL0     H34049   7.056   5.627   5.020 -1.1683  1.2592  0.4632
  993MOL0     H34050   7.087   5.680   4.851 -3.1486 -3.9397  2.0031
  993MOL0     H34051   7.452   5.496   4.960  0.4987  1.3811  1.0501
  993MOL0     H34052   6.964   6.025   5.419  1.3215  0.5405 -0.6945
  993MOL0     H34053   7.049   6.253   5.672  2.5489  0.8614 -3.0639
  993MOL0     H34054   6.865   6.220   5.650 -0.3020  2.5827 -4.0677
  993MOL0     H34055   6.981   6.089   5.623 -0.5927  0.4465 -1.7459
  994MOL0     O34056   3.105   8.400   0.879 -0.3269  0.0178  0.4475
  994MOL0     C34057   3.122   8.299   0.812 -0.4696 -0.2526 -0.1239
  994MOL0     O34058   3.212   8.197   0.845  0.5061 -0.3633 -0.7923
  994MOL0     C34059   3.289   8.215   0.964 -0.6388 -1.0996 -0.1004
  994MOL0     C34060   3.395   8.308   0.958  0.4926 -0.2993  0.7281
  994MOL0     C34061   3.468   8.325   1.072 -0.5174 -0.1769  0.5027
  994MOL0     C34062   3.435   8.265   1.191 -0.9715  0.5508 -0.5361
  994MOL0     O34063   3.500   8.271   1.312  0.0862  0.2849 -0.5179
  994MOL0     C34064   3.584   8.389   1.313 -0.1120 -0.8863  0.1362
  994MOL0     C34065   3.662   8.389   1.445  0.3452  0.5112  0.2700
  994MOL0     C34066   3.776   8.285   1.440  0.3417 -0.0088 -1.2883
  994MOL0     C34067   3.837   8.273   1.577 -0.0113  0.2880  0.0832
  994MOL0     C34068   3.942   8.159   1.583 -0.9835 -0.0689 -0.9161
  994MOL0     C34069   4.020   8.172   1.713  0.0919 -0.2310  0.1493
  994MOL0     C34070   4.173   8.166   1.690  0.6443  0.6131 -0.3582
  994MOL0     C34071   4.248   8.147   1.823 -0.0066 -0.5327  0.3761
  994MOL0     N34072   4.223   8.018   1.882  0.7208  0.7641 -0.4005
  994MOL0     C34073   4.119   7.979   1.965 -0.1143 -0.6648  0.2011
  994MOL0     C34074   4.113   7.844   1.944 -0.3734  0.0786  0.9634
  994MOL0     C34075   4.019   7.753   2.003  0.4138 -0.3520 -0.4144
  994MOL0     C34076   3.870   7.778   1.955  0.0270 -0.2771 -0.4654
  994MOL0     C34077   3.796   7.895   2.017 -0.4951  0.8954  0.0174
  994MOL0     C34078   3.679   7.929   1.925  0.1850 -0.4428 -0.8750
  994MOL0     O34079   3.624   8.063   1.945 -0.1915 -0.3070 -0.4865
  994MOL0     C34080   3.540   8.122   1.855 -0.5903 -0.5230 -0.1865
  994MOL0     C34081   3.479   8.053   1.750  0.7159 -1.0865 -1.2001
  994MOL0     C34082   3.378   8.111   1.678 -0.5241  0.5627 -0.1750
  994MOL0     C34083   3.345   8.247   1.683  0.9876 -0.2351 -0.2754
  994MOL0     C34084   3.234   8.296   1.597  1.0845 -0.1230  0.0343
  994MOL0     O34085   3.207   8.423   1.606  0.1810 -0.5832  0.8166
  994MOL0     C34086   3.110   8.467   1.522  0.5021 -0.6278 -0.3981
  994MOL0     C34087   3.004   8.538   1.590  0.1092  0.8414  0.6753
  994MOL0     C34088   2.895   8.572   1.508  0.4621 -0.3384  0.2945
  994MOL0     C34089   2.892   8.550   1.367 -0.0436  0.2777  0.1316
  994MOL0     O34090   2.782   8.603   1.300  0.1914 -0.0204  0.3130
  994MOL0     C34091   2.710   8.512   1.209 -0.1378 -1.4607 -0.1895
  994MOL0     C34092   2.768   8.469   1.070 -0.3124 -0.1876 -0.0297
  994MOL0     C34093   2.662   8.419   0.973 -0.2701 -0.3924 -1.3569
  994MOL0     C34094   2.687   8.271   0.943 -0.1769 -0.4272 -0.9726
  994MOL0     C34095   2.574   8.201   0.860 -0.1414 -0.1439  0.9595
  994MOL0     C34096   2.579   8.055   0.867  0.3097 -0.6006  0.7761
  994MOL0     C34097   2.711   7.996   0.803  0.5495  0.2823 -0.4479
  994MOL0     C34098   2.707   8.027   0.653 -0.4522 -0.0289 -0.2655
  994MOL0    Cl34099   2.595   7.921   0.559 -0.2660  0.0858 -0.0349
  994MOL0     C34100   3.008   8.497   1.302  0.0700 -0.6009 -0.1204
  994MOL0     C34101   3.119   8.459   1.387 -0.4907  0.1383  0.7925
  994MOL0     O34102   3.164   8.215   1.531  0.4597  0.1911  0.3485
  994MOL0     C34103   3.417   8.328   1.779  0.0642  0.0416 -0.0440
  994MOL0     C34104   3.506   8.261   1.871 -0.3268  1.0029  1.1257
  994MOL0     N34105   4.203   7.806   1.845  0.0471  0.2507  0.0291
  994MOL0     N34106   4.271   7.914   1.812 -0.6583 -0.1046 -0.7267
  994MOL0     C34107   3.326   8.173   1.196  0.4076 -0.0668  1.0189
  994MOL0     C34108   3.247   8.150   1.083  1.2606 -0.3164 -0.1145
  994MOL0     C34109   3.048   8.280   0.686 -0.3120  0.1919 -0.1904
  994MOL0     C34110   3.067   8.155   0.620 -0.5468 -0.1948 -0.0966
  994MOL0     C34111   3.006   8.126   0.495  0.2749 -0.2582 -0.2529
  994MOL0     C34112   2.939   8.226   0.425 -0.5790 -0.6626 -0.6316
  994MOL0     O34113   2.903   8.201   0.296  0.9761  0.3825 -0.1032
  994MOL0     C34114   2.810   8.279   0.219 -0.2385 -0.2856  0.2554
  994MOL0     C34115   2.859   8.384   0.125 -0.4968  0.2763  0.0125
  994MOL0     C34116   2.942   8.321   0.006  0.1934 -0.1508  0.0246
  994MOL0     C34117   2.994   8.434  -0.077  0.8694  0.1413  0.6338
  994MOL0     C34118   3.113   8.506  -0.024 -0.1750 -0.0276  0.5110
  994MOL0     C34119   3.203   8.575   0.012  0.0691  0.2768 -0.8390
  994MOL0     C34120   2.913   8.351   0.494 -0.7372  0.8499  0.4306
  994MOL0     C34121   2.959   8.379   0.622 -0.1685  0.9193  0.7275
  994MOL0     C34122   2.941   8.521   0.673  0.5662 -0.5328  0.1881
  994MOL0     H34123   3.415   8.367   0.870 -0.5956  0.2930  0.8621
  994MOL0     H34124   3.545   8.402   1.065 -1.9209  1.3171  0.9300
  994MOL0     H34125   3.659   8.375   1.235  1.8103  0.3277  1.6604
  994MOL0     H34126   3.518   8.475   1.295  0.3026 -0.5669  0.1362
  994MOL0     H34127   3.588   8.357   1.520 -2.4267  0.9687 -2.0712
  994MOL0     H34128   3.711   8.487   1.452  0.1065  0.6943 -0.4974
  994MOL0     H34129   3.849   8.317   1.366  1.5071  1.3317  0.3762
  994MOL0     H34130   3.741   8.185   1.410 -1.2372 -0.9011  2.7070
  994MOL0     H34131   3.889   8.369   1.591  0.6781  0.4888 -3.0736
  994MOL0     H34132   3.763   8.257   1.656 -1.3657  0.8033 -1.0403
  994MOL0     H34133   3.891   8.063   1.593  1.6029 -1.3092  2.8520
  994MOL0     H34134   4.013   8.168   1.500  0.4964 -1.2614  0.1574
  994MOL0     H34135   3.985   8.255   1.775 -1.0995 -1.3276  0.9892
  994MOL0     H34136   3.981   8.085   1.767 -0.9052 -0.4084 -0.8105
  994MOL0     H34137   4.209   8.254   1.637  0.4133 -0.7169 -2.9311
  994MOL0     H34138   4.192   8.085   1.618 -1.3036 -0.5052  0.3134
  994MOL0     H34139   4.355   8.151   1.800 -0.3428 -2.2512 -1.8610
  994MOL0     H34140   4.207   8.223   1.891 -4.3427 -2.5476  0.3876
  994MOL0     H34141   4.071   8.040   2.040  2.3559  0.5820  0.8512
  994MOL0     H34142   4.050   7.651   1.977  1.1450 -0.6924  1.6547
  994MOL0     H34143   4.031   7.757   2.111  1.5544 -1.8092 -0.4462
  994MOL0     H34144   3.886   7.798   1.849  1.0063  0.6400 -0.1585
  994MOL0     H34145   3.816   7.683   1.961  0.4593 -0.4188  2.4167
  994MOL0     H34146   3.859   7.980   2.045 -1.3562  1.1058  1.4231
  994MOL0     H34147   3.749   7.853   2.106 -1.3345 -0.3104 -0.9685
  994MOL0     H34148   3.592   7.865   1.942 -0.4500  0.8932  1.2147
  994MOL0     H34149   3.717   7.920   1.822  0.0104 -0.3455 -0.9479
  994MOL0     H34150   3.494   7.946   1.739  1.1574 -1.1854  0.1398
  994MOL0     H34151   3.337   8.050   1.597 -0.3156 -1.1091  0.9310
  994MOL0     H34152   2.993   8.561   1.696 -0.9796  1.3609  0.4571
  994MOL0     H34153   2.810   8.632   1.539 -0.3234 -1.6179  0.6942
  994MOL0     H34154   2.696   8.422   1.269 -0.2551 -1.6520 -0.5022
  994MOL0     H34155   2.610   8.550   1.185  0.2027 -2.9005 -4.9956
  994MOL0     H34156   2.816   8.558   1.029  0.8859  0.0875  1.8157
  994MOL0     H34157   2.840   8.387   1.071 -2.7191 -2.4412 -0.5515
  994MOL0     H34158   2.561   8.438   1.010  0.8997  1.6510  1.0846
  994MOL0     H34159   2.665   8.467   0.875  0.0888  0.4226 -0.9564
  994MOL0     H34160   2.707   8.217   1.036  0.4013 -0.3000 -1.0177
  994MOL0     H34161   2.781   8.267   0.886  0.1357 -2.6348 -0.3990
  994MOL0     H34162   2.585   8.234   0.756  2.7449 -0.1327  1.2094
  994MOL0     H34163   2.475   8.220   0.902 -2.2849 -2.9060 -2.2606
  994MOL0     H34164   2.560   8.018   0.969  1.6008  0.4147  1.4074
  994MOL0     H34165   2.492   8.028   0.806  2.1929 -1.0089 -1.8611
  994MOL0     H34166   2.713   7.889   0.826  3.0769  0.7737  2.0766
  994MOL0     H34167   2.799   8.035   0.854  0.0804  0.2692  0.3831
  994MOL0     H34168   2.695   8.133   0.631 -0.8430  0.2631  1.2982
  994MOL0     H34169   2.808   8.006   0.615 -1.8884  0.7499 -5.2323
  994MOL0     H34170   3.033   8.490   1.197  0.6637 -2.3909  0.1118
  994MOL0     H34171   3.209   8.421   1.339 -0.9843 -0.5266  0.3720
  994MOL0     H34172   3.388   8.431   1.799 -1.2960  0.2905 -2.9143
  994MOL0     H34173   3.530   8.317   1.961  1.7094  0.0883  1.1907
  994MOL0     H34174   3.314   8.133   1.296  0.7208 -2.1064  0.2753
  994MOL0     H34175   3.156   8.092   1.093  0.0308  0.7847 -3.5422
  994MOL0     H34176   3.121   8.075   0.669 -0.3179 -0.0660 -0.1334
  994MOL0     H34177   3.006   8.025   0.453 -2.2391  0.0152 -1.0939
  994MOL0     H34178   2.743   8.327   0.291  0.4173  3.0366 -1.1592
  994MOL0     H34179   2.736   8.215   0.172 -1.7646  2.9588 -2.1732
  994MOL0     H34180   2.931   8.451   0.173  0.8970 -0.3191 -1.1539
  994MOL0     H34181   2.778   8.445   0.086  1.8932  3.5071 -0.3507
  994MOL0     H34182   2.886   8.265  -0.069  1.4459 -0.1950 -0.9021
  994MOL0     H34183   3.019   8.251   0.040 -0.7223 -2.1551 -1.8092
  994MOL0     H34184   3.023   8.391  -0.174  3.2569  1.6707  0.5657
  994MOL0     H34185   2.919   8.511  -0.095 -0.2020 -1.2657 -1.2580
  994MOL0     H34186   3.288   8.636   0.036  0.6303 -1.2807  1.5017
  994MOL0     H34187   2.851   8.428   0.447 -1.6161 -0.7637 -1.1597
  994MOL0     H34188   3.040   8.566   0.690 -0.1470  0.6191  1.4032
  994MOL0     H34189   2.877   8.585   0.612 -0.8171  1.3694  3.4291
  994MOL0     H34190   2.885   8.515   0.766  0.8110 -2.1153  0.2712
  995MOL0     O34191   1.444  10.081  10.972 -0.0369  0.8523  0.1026
  995MOL0     C34192   1.379  10.176  10.938  0.3413  0.0400  0.6196
  995MOL0     O34193   1.272  10.219  11.007 -0.3785  0.4534  0.1113
  995MOL0     C34194   1.213  10.130  11.095  0.1540  0.5964  0.3309
  995MOL0     C34195   1.225  10.140  11.236 -0.5671 -0.4328 -0.3131
  995MOL0     C34196   1.165  10.043  11.324  0.2898 -0.6670  0.3694
  995MOL0     C34197   1.093   9.930  11.282  0.1124  0.4672  0.0756
  995MOL0     O34198   1.036   9.835  11.369  0.2110 -0.1222  0.4867
  995MOL0     C34199   0.884   9.836  11.361 -0.6834 -0.2795 -0.2442
  995MOL0     C34200   0.831   9.819  11.498 -0.0704 -0.4558  0.1214
  995MOL0     C34201   0.675   9.849  11.494 -0.8052  0.1712 -0.5218
  995MOL0     C34202   0.619   9.822  11.634 -0.3176  0.2468 -1.2099
  995MOL0     C34203   0.465   9.850  11.629 -0.5352  0.6270  0.2210
  995MOL0     C34204   0.412   9.979  11.560  0.2178 -0.0557  0.1113
  995MOL0     C34205   0.268  10.015  11.600  0.8315 -0.8721 -1.6560
  995MOL0     C34206   0.275  10.107  11.728 -0.2460 -0.1733  0.5243
  995MOL0     N34207   0.160  10.185  11.767 -0.1815  0.5160  0.5315
  995MOL0     C34208   0.078  10.271  11.692 -0.5615 -1.4298  0.1511
  995MOL0     C34209   0.004  10.333  11.782  0.3744 -0.4771  0.1507
  995MOL0     C34210  -0.084  10.447  11.733  0.9146  0.1510 -0.2228
  995MOL0     C34211  -0.233  10.408  11.719  0.1417  0.3668  0.3607
  995MOL0     C34212  -0.332  10.524  11.764  0.5041 -0.5969 -0.2921
  995MOL0     C34213  -0.481  10.479  11.752 -0.9790  0.1784 -0.4219
  995MOL0     O34214  -0.510  10.449  11.618 -0.0071  0.4366 -0.5998
  995MOL0     C34215  -0.641  10.447  11.568 -0.2452 -0.3345 -0.8986
  995MOL0     C34216  -0.756  10.479  11.648 -0.9350  0.1476  0.3100
  995MOL0     C34217  -0.881  10.447  11.606  0.4605  0.4946  0.0975
  995MOL0     C34218  -0.908  10.389  11.488 -0.0911  0.1511  0.7160
  995MOL0     C34219  -1.047  10.348  11.462 -0.5484 -0.3882  0.6910
  995MOL0     O34220  -1.140  10.398  11.561 -0.1104 -0.7994  0.6080
  995MOL0     C34221  -1.268  10.359  11.546 -1.1939  0.3368  0.4998
  995MOL0     C34222  -1.300  10.253  11.627 -0.5957  1.2752  0.2529
  995MOL0     C34223  -1.435  10.211  11.631  0.7449 -0.1444 -0.2667
  995MOL0     C34224  -1.534  10.275  11.554  0.2041  0.4745 -0.2475
  995MOL0     O34225  -1.667  10.214  11.548  0.0104  0.4060  0.7065
  995MOL0     C34226  -1.760  10.318  11.565  0.1979 -1.2912  0.1454
  995MOL0     C34227  -1.904  10.274  11.608  0.1591  0.5955 -0.3522
  995MOL0     C34228  -1.963  10.178  11.504 -0.0556  0.4351  0.1405
  995MOL0     C34229  -2.012  10.240  11.381 -0.2028  0.0098 -0.2091
  995MOL0     C34230  -2.067  10.120  11.290 -0.3213  0.5288 -0.2338
  995MOL0     C34231  -1.955  10.035  11.217  0.1805  0.8387  0.0458
  995MOL0     C34232  -2.011   9.970  11.087  0.1095  1.2317  0.1118
  995MOL0     C34233  -2.112   9.866  11.126 -0.1241  0.6219  0.1886
  995MOL0    Cl34234  -2.032   9.725  11.205 -0.5141 -0.0630  0.1618
  995MOL0     C34235  -1.492  10.373  11.469  0.5145 -0.8536  0.1618
  995MOL0     C34236  -1.357  10.419  11.463  0.0280 -0.0647 -0.6598
  995MOL0     O34237  -1.066  10.290  11.359  0.3685 -0.4794 -0.4108
  995MOL0     C34238  -0.802  10.350  11.407  0.0918  0.0767  1.4510
  995MOL0     C34239  -0.675  10.376  11.449 -0.2690 -0.3022 -0.1154
  995MOL0     N34240   0.020  10.280  11.908 -0.5082  0.0417  0.7594
  995MOL0     N34241   0.119  10.196  11.891  0.2109  0.2243  0.6877
  995MOL0     C34242   1.101   9.911  11.145 -0.3386  0.9854  0.8757
  995MOL0     C34243   1.155  10.003  11.050 -0.7183  0.2888 -1.1570
  995MOL0     C34244   1.420  10.276  10.834 -0.7986  0.1257 -1.0398
  995MOL0     C34245   1.392  10.409  10.844  0.5273  0.1018 -0.1728
  995MOL0     C34246   1.445  10.504  10.761 -0.8238 -0.4664  0.1927
  995MOL0     C34247   1.525  10.460  10.650  0.7248 -0.1604 -0.3892
  995MOL0     O34248   1.576  10.561  10.564 -0.3035 -0.4375 -0.6800
  995MOL0     C34249   1.624  10.528  10.434 -0.5585 -0.1806  1.2681
  995MOL0     C34250   1.772  10.523  10.432  0.3232  0.7083  0.6434
  995MOL0     C34251   1.826  10.666  10.412  1.2612 -1.0353  0.3109
  995MOL0     C34252   1.984  10.650  10.402  0.6500  0.6579 -0.4011
  995MOL0     C34253   2.054  10.778  10.377  0.4630  0.6098  0.7518
  995MOL0     C34254   2.105  10.886  10.359 -0.2532  0.7322 -0.5120
  995MOL0     C34255   1.559  10.321  10.643  0.1816  0.2700 -1.2246
  995MOL0     C34256   1.506  10.230  10.730  1.2888 -0.2641 -0.3458
  995MOL0     C34257   1.532  10.086  10.704 -0.4348  0.7750 -0.5940
  995MOL0     H34258   1.266  10.227  11.286 -1.7231 -0.0098 -0.0656
  995MOL0     H34259   1.176  10.034  11.432  3.1060 -0.9269  0.1378
  995MOL0     H34260   0.857   9.936  11.327  0.0680  0.1526  0.3844
  995MOL0     H34261   0.849   9.753  11.299  1.7999 -1.7953  0.2153
  995MOL0     H34262   0.869   9.893  11.569 -0.8564 -2.0774  2.3697
  995MOL0     H34263   0.860   9.723  11.542 -0.6519 -2.6481 -3.8143
  995MOL0     H34264   0.619   9.799  11.414 -1.4422 -0.5123  0.3334
  995MOL0     H34265   0.676   9.958  11.480  2.5951  0.6028  1.9056
  995MOL0     H34266   0.626   9.717  11.662 -3.5065  0.3741  0.6194
  995MOL0     H34267   0.667   9.885  11.709 -0.7265 -3.0237  2.0831
  995MOL0     H34268   0.427   9.767  11.570  1.9916 -0.3578 -0.1737
  995MOL0     H34269   0.428   9.838  11.731  0.2994  0.4694  0.5178
  995MOL0     H34270   0.482  10.063  11.568  1.6315 -1.3003  1.3919
  995MOL0     H34271   0.411   9.952  11.453  2.4267 -2.1490  0.5196
  995MOL0     H34272   0.196   9.935  11.616 -2.7966  2.3270 -0.4896
  995MOL0     H34273   0.216  10.070  11.521 -4.3575  2.3375  3.2625
  995MOL0     H34274   0.305  10.048  11.815 -0.9170 -0.7399  0.3858
  995MOL0     H34275   0.355  10.181  11.725 -1.2745  1.1688  3.1509
  995MOL0     H34276   0.078  10.302  11.588 -1.8137 -0.8006  0.3109
  995MOL0     H34277  -0.080  10.527  11.806 -0.0680  1.8607 -1.9540
  995MOL0     H34278  -0.043  10.503  11.649  1.7542  0.2070  0.2190
  995MOL0     H34279  -0.246  10.388  11.612  2.5628 -0.1390  0.1100
  995MOL0     H34280  -0.255  10.320  11.779 -1.0686 -0.0468 -0.6344
  995MOL0     H34281  -0.321  10.600  11.686 -0.7280 -0.1229 -0.0306
  995MOL0     H34282  -0.308  10.569  11.861 -2.0353  1.0692 -0.3150
  995MOL0     H34283  -0.545  10.563  11.780 -0.9650  0.6506 -1.7832
  995MOL0     H34284  -0.506  10.390  11.812 -2.4655 -0.9123 -2.5467
  995MOL0     H34285  -0.743  10.542  11.736  0.2600 -1.4630  1.3586
  995MOL0     H34286  -0.952  10.478  11.681  0.1318  3.9957 -1.4717
  995MOL0     H34287  -1.219  10.205  11.682 -0.4003  0.9024 -0.3431
  995MOL0     H34288  -1.457  10.126  11.695  1.1874 -1.6475 -2.0266
  995MOL0     H34289  -1.724  10.384  11.645 -0.5448  0.1023 -0.6314
  995MOL0     H34290  -1.753  10.383  11.477 -3.3038 -2.1838 -0.9470
  995MOL0     H34291  -1.901  10.232  11.709  3.1153 -2.7857 -1.6525
  995MOL0     H34292  -1.972  10.359  11.621 -1.3922 -0.4389 -1.3238
  995MOL0     H34293  -1.905  10.087  11.486 -1.0908 -1.0885  3.6613
  995MOL0     H34294  -2.054  10.138  11.549 -2.3638  1.1609 -3.4330
  995MOL0     H34295  -1.927  10.296  11.341  2.8358 -2.6059  2.0364
  995MOL0     H34296  -2.093  10.308  11.409 -0.0608  0.3950 -0.7267
  995MOL0     H34297  -2.129  10.170  11.215  0.5686  0.1888 -1.2329
  995MOL0     H34298  -2.132  10.049  11.342 -1.0582  1.5969  0.3385
  995MOL0     H34299  -1.880  10.109  11.189 -0.1944  1.1865 -0.0559
  995MOL0     H34300  -1.917   9.957  11.283  0.4285  1.3793  0.5478
  995MOL0     H34301  -1.946   9.917  11.017 -3.9802  0.9175 -3.9262
  995MOL0     H34302  -2.044  10.043  11.013 -1.8594 -1.3426 -1.7291
  995MOL0     H34303  -2.193   9.906  11.188  0.7444  1.4641  0.8182
  995MOL0     H34304  -2.148   9.809  11.040  1.9902 -1.5535  0.6451
  995MOL0     H34305  -1.556  10.421  11.396  5.1184 -0.8396 -4.4707
  995MOL0     H34306  -1.320  10.501  11.402  2.0436  0.2552  0.9047
  995MOL0     H34307  -0.820  10.305  11.310  1.4456 -2.2477  2.2047
  995MOL0     H34308  -0.589  10.359  11.384 -0.6797  0.4878 -0.8759
  995MOL0     H34309   1.063   9.813  11.120 -0.4009  0.4521  2.8921
  995MOL0     H34310   1.147   9.980  10.944 -1.0870 -0.8525 -0.8882
  995MOL0     H34311   1.326  10.436  10.927  1.1918  0.5818  0.2077
  995MOL0     H34312   1.429  10.611  10.769  4.0326  0.5112 -0.2639
  995MOL0     H34313   1.579  10.593  10.359 -1.4191  0.8272  2.6084
  995MOL0     H34314   1.579  10.434  10.401  0.1533  1.0021 -3.8200
  995MOL0     H34315   1.807  10.460  10.350  0.7737 -0.7435  1.9089
  995MOL0     H34316   1.816  10.492  10.527 -2.5381  3.3459  3.0155
  995MOL0     H34317   1.804  10.740  10.489 -0.0549 -0.8300 -0.2262
  995MOL0     H34318   1.793  10.710  10.317 -1.8459 -1.8236  0.8992
  995MOL0     H34319   2.008  10.612  10.501 -4.1051  1.8394  1.4761
  995MOL0     H34320   2.004  10.577  10.322  0.0392 -0.1642  0.1853
  995MOL0     H34321   2.154  10.973  10.320  1.4678  0.1476  0.2157
  995MOL0     H34322   1.633  10.293  10.569 -0.8380 -0.9045 -1.8501
  995MOL0     H34323   1.439  10.029  10.714  1.6365 -2.9525 -0.6198
  995MOL0     H34324   1.570  10.073  10.602 -2.8077 -0.0742 -1.4369
  995MOL0     H34325   1.606  10.049  10.776 -1.7807 -0.3436  0.2650
  996MOL0     O34326   7.380   6.976   4.226  0.2574  0.9189 -1.1360
  996MOL0     C34327   7.276   6.954   4.275 -0.0049 -0.4767 -0.3127
  996MOL0     O34328   7.161   6.923   4.205  0.1687  0.7211  0.5416
  996MOL0     C34329   7.150   6.937   4.067  0.4831  0.5530 -0.3551
  996MOL0     C34330   7.156   6.817   4.005 -1.0237  0.4762 -0.0257
  996MOL0     C34331   7.115   6.817   3.868 -0.4665  0.0577 -0.2000
  996MOL0     C34332   7.070   6.929   3.802 -0.4834  0.3523 -1.0068
  996MOL0     O34333   7.004   6.930   3.683 -0.4282 -0.6435  0.0611
  996MOL0     C34334   6.898   6.837   3.665 -0.3447 -0.4926 -0.5704
  996MOL0     C34335   6.848   6.824   3.524 -0.5437 -0.0174  0.1385
  996MOL0     C34336   6.956   6.797   3.422  1.1062 -0.4274 -0.0079
  996MOL0     C34337   6.917   6.890   3.307  0.3005 -0.1409 -0.2116
  996MOL0     C34338   6.981   6.837   3.174  0.0140 -0.1438  0.5722
  996MOL0     C34339   7.121   6.891   3.131  0.6803  0.6049  0.4917
  996MOL0     C34340   7.123   7.026   3.053 -0.1886  1.4523 -0.1646
  996MOL0     C34341   7.240   7.054   2.955  0.5591  0.0134  1.1295
  996MOL0     N34342   7.229   6.970   2.838 -0.0816  0.0035  0.0865
  996MOL0     C34343   7.162   7.004   2.723 -0.2107  0.2788  0.3370
  996MOL0     C34344   7.214   6.923   2.632  0.3927  0.2260 -0.2165
  996MOL0     C34345   7.155   6.910   2.492 -0.3277  0.0389  0.8298
  996MOL0     C34346   7.252   6.930   2.369 -0.1175 -0.6600 -0.0193
  996MOL0     C34347   7.381   6.843   2.383 -0.6227 -0.5654  0.9322
  996MOL0     C34348   7.487   6.921   2.458  0.4810  0.5697 -0.5715
  996MOL0     O34349   7.598   6.921   2.367 -0.6196 -0.2060 -0.1742
  996MOL0     C34350   7.663   7.043   2.343 -0.6375 -0.8219  0.3477
  996MOL0     C34351   7.678   7.141   2.441 -0.3077  0.2338 -0.7758
  996MOL0     C34352   7.753   7.257   2.419  0.6645  1.0343  0.6706
  996MOL0     C34353   7.815   7.280   2.291  0.1433 -0.0641  0.1035
  996MOL0     C34354   7.872   7.418   2.261  0.6989 -0.5830  0.2675
  996MOL0     O34355   7.847   7.526   2.344  0.3381 -0.3660 -0.5924
  996MOL0     C34356   7.894   7.646   2.296 -0.2989  0.4745 -0.7859
  996MOL0     C34357   7.991   7.719   2.370  0.2008  0.3389  0.3573
  996MOL0     C34358   8.035   7.839   2.327  0.1138  0.2470  1.1922
  996MOL0     C34359   7.983   7.900   2.208 -0.9985  0.9452  0.1183
  996MOL0     O34360   8.038   8.026   2.182  0.4628 -0.7418 -0.1057
  996MOL0     C34361   7.999   8.108   2.076 -0.1731 -0.4314  0.8411
  996MOL0     C34362   8.050   8.244   2.125 -0.6644 -0.2634 -0.5610
  996MOL0     C34363   8.067   8.341   2.002  0.4194  0.3977  0.9045
  996MOL0     C34364   8.089   8.485   2.047  0.4504  0.4558 -0.5202
  996MOL0     C34365   8.137   8.588   1.944  0.0548  0.1390 -0.8374
  996MOL0     C34366   8.054   8.717   1.956  0.2099 -0.7097  0.0010
  996MOL0     C34367   8.118   8.839   1.888  0.6492 -0.0847  0.7054
  996MOL0     C34368   8.006   8.942   1.856 -0.5735  0.2150  0.3669
  996MOL0    Cl34369   8.076   9.053   1.730 -0.1008 -0.5712  0.0882
  996MOL0     C34370   7.883   7.834   2.137  0.0330  0.1450  1.1247
  996MOL0     C34371   7.837   7.710   2.183 -0.4096 -0.0570  0.6786
  996MOL0     O34372   7.944   7.423   2.158  0.0970  0.4595 -0.5969
  996MOL0     C34373   7.795   7.183   2.194  0.9990 -0.0855 -0.9371
  996MOL0     C34374   7.726   7.064   2.223  0.0126 -0.0666  0.3492
  996MOL0     N34375   7.315   6.849   2.691 -1.3258 -0.4935  0.3447
  996MOL0     N34376   7.318   6.869   2.818 -0.0308  0.1993  0.1440
  996MOL0     C34377   7.077   7.046   3.873  0.8512 -0.1760 -0.0678
  996MOL0     C34378   7.110   7.062   4.002 -0.2552  0.8332 -1.1288
  996MOL0     C34379   7.275   6.955   4.425  0.2818 -0.0376  1.2271
  996MOL0     C34380   7.245   6.829   4.483 -1.0018 -0.8286  0.7860
  996MOL0     C34381   7.237   6.825   4.621  0.6357 -1.0342 -1.3589
  996MOL0     C34382   7.266   6.942   4.693 -0.0621 -0.3993 -0.3385
  996MOL0     O34383   7.247   6.922   4.827  0.5112  0.3461  0.0697
  996MOL0     C34384   7.232   7.034   4.913  0.1683 -0.0357  0.2315
  996MOL0     C34385   7.099   7.120   4.886 -0.1465 -0.2688  0.0174
  996MOL0     C34386   7.105   7.245   4.962 -0.1760  0.5049 -0.4622
  996MOL0     C34387   7.007   7.354   4.903  0.5212 -0.0342 -1.0642
  996MOL0     C34388   7.032   7.392   4.762 -0.1713  0.1486 -0.0642
  996MOL0     C34389   7.052   7.401   4.643 -0.5167 -0.5977 -0.5165
  996MOL0     C34390   7.310   7.065   4.630 -0.7816 -0.4617 -0.4932
  996MOL0     C34391   7.311   7.074   4.496  0.4108  0.8341 -0.1994
  996MOL0     C34392   7.335   7.205   4.424 -0.3332 -0.3484  0.0661
  996MOL0     H34393   7.177   6.721   4.051  1.1899 -0.1527 -2.1780
  996MOL0     H34394   7.114   6.723   3.814  2.0909  0.1262 -0.4917
  996MOL0     H34395   6.927   6.736   3.696  1.6837  0.5161  1.0517
  996MOL0     H34396   6.817   6.876   3.728  0.1673  2.7190 -1.7093
  996MOL0     H34397   6.811   6.925   3.509 -0.1610 -0.0380 -1.0740
  996MOL0     H34398   6.761   6.759   3.510 -1.5028  1.5918 -1.7667
  996MOL0     H34399   6.943   6.694   3.386  1.9956 -0.9905  1.2070
  996MOL0     H34400   7.056   6.821   3.457  1.5920  0.9885 -2.1506
  996MOL0     H34401   6.810   6.891   3.287  0.4101  0.9373 -0.8643
  996MOL0     H34402   6.935   6.994   3.338  1.1720 -0.5978  0.8794
  996MOL0     H34403   6.970   6.729   3.156  0.0403 -0.2038  0.9221
  996MOL0     H34404   6.918   6.871   3.091  1.4321  0.6523 -0.2156
  996MOL0     H34405   7.177   6.916   3.222 -0.8780  1.1281  1.3333
  996MOL0     H34406   7.169   6.805   3.084 -1.1765 -1.8312  2.7454
  996MOL0     H34407   7.108   7.107   3.125 -2.1678  1.5293 -0.6136
  996MOL0     H34408   7.033   7.027   2.992 -1.9441 -3.4385  1.7932
  996MOL0     H34409   7.241   7.156   2.916 -1.0757  0.6945  2.7315
  996MOL0     H34410   7.335   7.030   3.004  0.9490 -1.4488 -0.2529
  996MOL0     H34411   7.073   7.067   2.719  0.0416  0.8649  2.4409
  996MOL0     H34412   7.117   6.809   2.473  1.8170 -0.6484 -0.1810
  996MOL0     H34413   7.075   6.982   2.473  1.1303  0.8365 -3.4982
  996MOL0     H34414   7.198   6.914   2.276  0.3133  0.1649 -0.4266
  996MOL0     H34415   7.283   7.035   2.362  0.3920 -0.8660 -0.9607
  996MOL0     H34416   7.417   6.816   2.283  2.0720  3.4546  0.5607
  996MOL0     H34417   7.356   6.754   2.442  0.3730  0.5157  3.1083
  996MOL0     H34418   7.518   6.875   2.553  1.0929  1.0060 -0.5456
  996MOL0     H34419   7.454   7.021   2.488  1.0020 -0.0169  2.3380
  996MOL0     H34420   7.632   7.142   2.539 -3.7320 -1.0957 -2.2304
  996MOL0     H34421   7.774   7.314   2.509 -0.3290  1.6559  0.5155
  996MOL0     H34422   8.025   7.686   2.468  1.1202  0.8815  0.2317
  996MOL0     H34423   8.099   7.887   2.400  0.7561 -0.3789  1.0531
  996MOL0     H34424   8.045   8.076   1.982  2.6930 -0.5868  2.1785
  996MOL0     H34425   7.891   8.106   2.059 -0.0314  1.0943 -0.4672
  996MOL0     H34426   7.986   8.281   2.205  1.1566 -1.0214  1.3552
  996MOL0     H34427   8.147   8.231   2.173  0.5206  4.2287 -1.2437
  996MOL0     H34428   8.149   8.301   1.941 -0.0780 -0.2870  0.6631
  996MOL0     H34429   7.982   8.328   1.934  2.1283 -4.5980 -0.7607
  996MOL0     H34430   8.162   8.492   2.128  2.1122 -1.3054 -1.7669
  996MOL0     H34431   7.990   8.516   2.083  0.0481 -2.0143  0.7146
  996MOL0     H34432   8.122   8.540   1.846  0.8265 -3.5922  0.6952
  996MOL0     H34433   8.244   8.612   1.949 -0.1669  1.4997 -1.9611
  996MOL0     H34434   7.965   8.683   1.902  0.8440  0.3308 -1.7595
  996MOL0     H34435   8.036   8.735   2.063  2.4320 -2.4668  0.7419
  996MOL0     H34436   8.164   8.807   1.794 -1.3486 -0.0138 -0.3481
  996MOL0     H34437   8.201   8.879   1.947 -0.0911  0.8951  1.1087
  996MOL0     H34438   7.917   8.895   1.812  0.6853  2.3391 -5.3065
  996MOL0     H34439   7.989   8.998   1.949  2.0365  0.3749  0.8165
  996MOL0     H34440   7.851   7.881   2.044  0.3364  0.6471  1.2680
  996MOL0     H34441   7.762   7.659   2.122  1.9899  1.7411 -4.3263
  996MOL0     H34442   7.832   7.204   2.094 -0.5562  1.4702 -1.2423
  996MOL0     H34443   7.690   7.008   2.136  0.2839  1.3322 -0.6924
  996MOL0     H34444   7.029   7.127   3.819  1.7642 -0.1221 -0.8088
  996MOL0     H34445   7.090   7.161   4.041  1.7982  1.2949 -1.1474
  996MOL0     H34446   7.224   6.756   4.405 -1.5186  0.2447 -0.1023
  996MOL0     H34447   7.196   6.730   4.655 -3.5467  0.1936 -2.4666
  996MOL0     H34448   7.332   7.077   4.898  1.9799 -3.5875  1.0283
  996MOL0     H34449   7.240   7.011   5.019  0.4530  1.1824  0.4842
  996MOL0     H34450   7.013   7.072   4.933  0.6823 -1.4922  0.3341
  996MOL0     H34451   7.085   7.142   4.780  0.0032  1.3806  0.3123
  996MOL0     H34452   7.201   7.289   4.936  0.6686  0.9669  2.9532
  996MOL0     H34453   7.089   7.224   5.068  2.3869 -4.0584 -0.6862
  996MOL0     H34454   6.910   7.305   4.917 -0.2788  2.1797  2.1108
  996MOL0     H34455   7.009   7.444   4.964  2.3845 -2.8025  3.4898
  996MOL0     H34456   7.049   7.400   4.536  3.2720 -0.2760 -0.7624
  996MOL0     H34457   7.343   7.159   4.674  2.0249 -0.4784 -2.3198
  996MOL0     H34458   7.438   7.211   4.385 -1.1707 -0.9591 -2.4671
  996MOL0     H34459   7.264   7.216   4.342  0.2406  1.3327 -0.2551
  996MOL0     H34460   7.328   7.293   4.489  3.2422 -0.4451  0.8174
  997MOL0     O34461   8.886   3.040   8.702 -0.2603  0.8093  0.0596
  997MOL0     C34462   8.974   2.988   8.772 -0.2375  0.4416  0.3496
  997MOL0     O34463   9.042   2.876   8.736 -0.6018  1.0281  1.0298
  997MOL0     C34464   8.977   2.792   8.648  0.0654  0.1810  0.1759
  997MOL0     C34465   9.067   2.693   8.607 -0.3875  0.7770  0.0804
  997MOL0     C34466   9.030   2.595   8.510 -0.3235  0.9798  0.7652
  997MOL0     C34467   8.894   2.578   8.467 -0.6048 -1.3745  0.3579
  997MOL0     O34468   8.857   2.494   8.370  1.2076 -0.4022 -0.0731
  997MOL0     C34469   8.943   2.384   8.324 -0.0799  0.1717  0.0064
  997MOL0     C34470   8.919   2.268   8.414 -0.0590 -0.0719  0.7393
  997MOL0     C34471   8.927   2.136   8.325  0.2164  0.9463 -1.1313
  997MOL0     C34472   8.908   2.019   8.426  0.1097  0.0926 -0.0164
  997MOL0     C34473   8.915   1.882   8.355 -0.6445 -1.3170  1.0406
  997MOL0     C34474   8.903   1.766   8.467 -0.4712 -0.5573  1.3677
  997MOL0     C34475   8.933   1.635   8.408  0.1145  0.2235 -0.6201
  997MOL0     C34476   8.942   1.523   8.503 -0.6816 -0.1057 -0.3315
  997MOL0     N34477   8.821   1.524   8.591  0.2688  0.3890 -0.0825
  997MOL0     C34478   8.698   1.485   8.551 -0.0439 -0.0412 -0.7993
  997MOL0     C34479   8.632   1.459   8.665 -0.1923 -0.4889  0.6810
  997MOL0     C34480   8.486   1.424   8.664 -0.1234 -0.4336 -0.4538
  997MOL0     C34481   8.401   1.542   8.724  0.3863 -0.2504 -0.4384
  997MOL0     C34482   8.259   1.524   8.751  0.6438  0.5844 -0.1626
  997MOL0     C34483   8.216   1.438   8.872 -0.5794  0.3318  0.3638
  997MOL0     O34484   8.254   1.299   8.877  0.0543 -0.0914 -0.2067
  997MOL0     C34485   8.208   1.207   8.781  0.2655 -0.5233 -0.1339
  997MOL0     C34486   8.084   1.217   8.721 -0.1959 -0.4565 -0.1600
  997MOL0     C34487   8.056   1.125   8.630  0.1575  0.7240  0.4108
  997MOL0     C34488   8.141   1.018   8.591  0.0751 -0.7520  0.4209
  997MOL0     C34489   8.091   0.903   8.502  0.5522 -0.0049 -1.0650
  997MOL0     O34490   8.194   0.836   8.442  0.3217 -0.4160  0.2588
  997MOL0     C34491   8.165   0.743   8.347  0.9065  0.0804 -0.7381
  997MOL0     C34492   8.259   0.728   8.243 -0.4472  0.0390 -0.1199
  997MOL0     C34493   8.246   0.624   8.150  0.2343 -0.2746  0.0450
  997MOL0     C34494   8.137   0.543   8.159  0.0840  0.0666 -0.4359
  997MOL0     O34495   8.117   0.453   8.056 -0.6818 -0.0063 -0.0745
  997MOL0     C34496   8.044   0.333   8.085  0.5237 -0.3239 -0.4726
  997MOL0     C34497   8.023   0.239   7.959 -0.3059  0.2297  0.3584
  997MOL0     C34498   7.905   0.146   7.973  0.2887 -0.8648  0.6229
  997MOL0     C34499   7.771   0.209   7.976  0.8927 -0.0329 -0.0841
  997MOL0     C34500   7.669   0.104   8.040  0.4503  0.5705 -0.2818
  997MOL0     C34501   7.527   0.155   8.014 -0.6272  0.4745 -0.3795
  997MOL0     C34502   7.427   0.034   8.010 -0.4148 -0.5624 -0.7874
  997MOL0     C34503   7.425  -0.057   8.130 -0.5247 -0.5976 -0.5999
  997MOL0    Cl34504   7.295  -0.184   8.134 -0.4876 -0.2827 -0.7303
  997MOL0     C34505   8.045   0.556   8.256  0.0845 -0.6659 -0.6111
  997MOL0     C34506   8.055   0.655   8.349  0.6190  0.4919 -0.2327
  997MOL0     O34507   7.974   0.905   8.468 -0.1860  0.3593 -0.9614
  997MOL0     C34508   8.275   1.028   8.636  0.6133  0.1149 -0.2366
  997MOL0     C34509   8.304   1.120   8.735 -0.2651  0.7900  0.6777
  997MOL0     N34510   8.713   1.483   8.781  0.2307  0.1251  0.0868
  997MOL0     N34511   8.823   1.532   8.730 -0.0420  0.6319 -0.6413
  997MOL0     C34512   8.796   2.665   8.528  0.3527  0.6379  0.7458
  997MOL0     C34513   8.839   2.767   8.613  0.0449  0.8679  0.4882
  997MOL0     C34514   9.031   3.060   8.895 -0.0360 -0.2062  0.3421
  997MOL0     C34515   9.120   2.987   8.966  0.0134 -0.3123 -0.4961
  997MOL0     C34516   9.196   3.042   9.074  0.2141 -0.0283  0.2062
  997MOL0     C34517   9.161   3.169   9.121 -0.4155 -0.2853 -0.1133
  997MOL0     O34518   9.219   3.227   9.238 -0.0937 -0.2392 -0.2524
  997MOL0     C34519   9.247   3.366   9.239 -0.5226 -0.2954  0.3625
  997MOL0     C34520   9.348   3.398   9.345  0.4891  0.6575 -0.3665
  997MOL0     C34521   9.493   3.337   9.326 -1.4811  1.2955 -0.9613
  997MOL0     C34522   9.578   3.347   9.460 -0.3161 -0.9035  0.5817
  997MOL0     C34523   9.709   3.308   9.429  0.3346  0.7889 -0.2728
  997MOL0     C34524   9.826   3.279   9.397  0.7120 -0.3273 -0.1776
  997MOL0     C34525   9.055   3.235   9.057 -1.2083  0.1323 -0.0547
  997MOL0     C34526   8.980   3.176   8.952 -0.2673  1.4244 -0.1003
  997MOL0     C34527   8.853   3.240   8.905  0.1788 -0.3544 -0.0102
  997MOL0     H34528   9.174   2.692   8.626 -0.3826  0.4008  0.0327
  997MOL0     H34529   9.106   2.532   8.463  4.4279  5.8450  0.8871
  997MOL0     H34530   8.913   2.356   8.223 -3.0225  2.7410  0.0117
  997MOL0     H34531   9.048   2.410   8.308 -0.0792 -1.2720 -3.0965
  997MOL0     H34532   8.822   2.282   8.464 -0.1581  0.7839  0.3304
  997MOL0     H34533   8.995   2.266   8.492  0.2123  1.1566  0.5210
  997MOL0     H34534   9.027   2.125   8.283  1.3000 -1.2149  1.6743
  997MOL0     H34535   8.852   2.122   8.246  1.6056 -0.5129 -2.2666
  997MOL0     H34536   8.973   2.021   8.514 -0.7248  1.6097  0.6094
  997MOL0     H34537   8.808   2.026   8.470  0.5643 -1.1625  1.2925
  997MOL0     H34538   8.844   1.878   8.273  0.9883  2.8462 -0.8194
  997MOL0     H34539   9.014   1.870   8.309 -2.7102  1.1916 -4.9955
  997MOL0     H34540   8.967   1.781   8.555 -0.4469  1.0532  1.0989
  997MOL0     H34541   8.802   1.768   8.507  0.2090  2.1381  3.1958
  997MOL0     H34542   9.034   1.652   8.369  1.2079 -4.2788 -0.3784
  997MOL0     H34543   8.868   1.608   8.324 -1.6622 -1.6725  1.2709
  997MOL0     H34544   8.938   1.425   8.452 -2.0569 -0.6630  0.7693
  997MOL0     H34545   9.033   1.524   8.563 -0.9450 -1.9962  0.1767
  997MOL0     H34546   8.671   1.477   8.446  0.2410 -0.4019 -0.8455
  997MOL0     H34547   8.467   1.412   8.557 -0.4953  3.1673 -0.9092
  997MOL0     H34548   8.472   1.325   8.709  0.7524 -1.3246 -2.0446
  997MOL0     H34549   8.448   1.554   8.822  3.3579  3.3903 -2.0538
  997MOL0     H34550   8.414   1.630   8.660  2.3356  1.8793  2.6358
  997MOL0     H34551   8.208   1.497   8.658 -0.5701  3.9107 -0.6030
  997MOL0     H34552   8.221   1.625   8.769 -2.2419 -0.0505 -2.0934
  997MOL0     H34553   8.106   1.438   8.863 -0.5112 -2.8147 -3.4476
  997MOL0     H34554   8.252   1.492   8.960 -3.5319 -0.4249  2.1855
  997MOL0     H34555   8.021   1.298   8.758  0.6972 -0.0607  0.5286
  997MOL0     H34556   7.963   1.124   8.574  1.2518  0.2137 -1.4734
  997MOL0     H34557   8.348   0.790   8.234 -1.5296  1.5963 -0.5989
  997MOL0     H34558   8.316   0.598   8.072  4.7637  0.5977  3.3834
  997MOL0     H34559   8.090   0.270   8.162 -0.8125  0.1019  0.7143
  997MOL0     H34560   7.946   0.355   8.128  1.1917 -0.6106  1.2466
  997MOL0     H34561   8.017   0.288   7.862 -0.1166 -2.6379 -1.2054
  997MOL0     H34562   8.114   0.179   7.952 -1.1380 -1.0973  0.5326
  997MOL0     H34563   7.921   0.068   7.898 -1.3172  1.8657 -2.8855
  997MOL0     H34564   7.927   0.101   8.070  0.4562 -0.0103  0.9941
  997MOL0     H34565   7.743   0.247   7.878  0.3518  0.6542  0.3256
  997MOL0     H34566   7.780   0.291   8.048  0.6498  0.8677 -1.0652
  997MOL0     H34567   7.678   0.075   8.145 -1.4639 -2.1843 -0.7618
  997MOL0     H34568   7.686   0.012   7.985  0.8149 -0.0882  0.9031
  997MOL0     H34569   7.492   0.235   8.080 -1.0001  0.1416 -0.1750
  997MOL0     H34570   7.529   0.214   7.922  0.4415  3.2662  1.3175
  997MOL0     H34571   7.441  -0.032   7.924 -1.8330 -1.7377 -0.1515
  997MOL0     H34572   7.326   0.074   7.998 -1.0591 -2.3583 -1.6462
  997MOL0     H34573   7.522  -0.107   8.118  0.4492  0.4306  2.0970
  997MOL0     H34574   7.429   0.000   8.223  0.8574 -3.7291  1.4521
  997MOL0     H34575   7.945   0.513   8.258 -0.5946  0.8702  0.5277
  997MOL0     H34576   7.974   0.655   8.421  0.2019 -2.6340 -0.5606
  997MOL0     H34577   8.350   0.961   8.595 -0.2653 -0.1461 -1.4829
  997MOL0     H34578   8.405   1.134   8.773 -0.8584  1.5399  2.0768
  997MOL0     H34579   8.694   2.646   8.495  1.2717  0.8631 -2.6492
  997MOL0     H34580   8.764   2.837   8.647 -0.0932  1.8184 -1.6083
  997MOL0     H34581   9.138   2.882   8.945 -1.0545 -0.3996 -1.0096
  997MOL0     H34582   9.284   2.995   9.115 -0.0049  0.7247  1.5960
  997MOL0     H34583   9.151   3.412   9.262  0.2878  0.2193  3.0934
  997MOL0     H34584   9.283   3.400   9.141 -2.7994 -2.9745 -1.5595
  997MOL0     H34585   9.310   3.358   9.439  0.3228 -1.9643 -1.4598
  997MOL0     H34586   9.359   3.503   9.372 -1.6986  0.9857 -0.6114
  997MOL0     H34587   9.541   3.392   9.244  0.0000  0.5076 -0.6529
  997MOL0     H34588   9.492   3.233   9.293 -0.2893  1.2351 -0.8290
  997MOL0     H34589   9.584   3.451   9.493 -0.6590 -1.4438  2.4911
  997MOL0     H34590   9.542   3.273   9.533 -0.4763 -1.4862 -0.0742
  997MOL0     H34591   9.925   3.258   9.364 -0.5942 -0.3743 -4.8374
  997MOL0     H34592   9.032   3.330   9.106  0.2212  0.5338 -0.1072
  997MOL0     H34593   8.855   3.339   8.951  0.5901  1.3429 -3.3314
  997MOL0     H34594   8.844   3.253   8.796 -4.5838 -0.1814  0.2065
  997MOL0     H34595   8.766   3.174   8.911  0.8708 -1.4284 -1.2743
  998MOL0     O34596   7.092   6.918   8.877 -0.0471  0.4417 -0.3791
  998MOL0     C34597   7.036   6.960   8.978  0.1028  0.2923  0.5566
  998MOL0     O34598   7.086   6.987   9.095 -0.2344 -0.7216 -0.1200
  998MOL0     C34599   7.222   7.011   9.106 -0.2130 -0.7451 -0.3331
  998MOL0     C34600   7.286   6.959   9.216  0.1632  0.5151 -1.3927
  998MOL0     C34601   7.423   6.982   9.224 -0.4930 -0.2077 -1.2643
  998MOL0     C34602   7.497   7.055   9.136 -0.3613  0.3936  0.4995
  998MOL0     O34603   7.626   7.096   9.148  0.0169 -0.1692  0.0631
  998MOL0     C34604   7.682   7.114   9.280  0.1416  0.0216 -0.6068
  998MOL0     C34605   7.807   7.031   9.300  0.2917  0.0291  0.3284
  998MOL0     C34606   7.765   6.877   9.339 -0.3330  0.8183 -0.1137
  998MOL0     C34607   7.902   6.806   9.337  0.6756 -1.1893  0.7700
  998MOL0     C34608   7.898   6.660   9.314 -1.2823  0.6388  0.5013
  998MOL0     C34609   7.794   6.582   9.399 -0.3701  0.0544 -0.0071
  998MOL0     C34610   7.741   6.459   9.333  0.2363  0.0414 -0.5357
  998MOL0     C34611   7.627   6.402   9.413  0.6432  0.0610  0.0421
  998MOL0     N34612   7.616   6.250   9.402  0.0183 -0.1573  1.0481
  998MOL0     C34613   7.648   6.166   9.497 -0.2210 -0.3247  0.0397
  998MOL0     C34614   7.594   6.053   9.453 -0.1124  1.2767 -0.2622
  998MOL0     C34615   7.595   5.927   9.535  0.3699  0.1684 -0.6583
  998MOL0     C34616   7.449   5.880   9.559  1.2376 -0.9043  0.0492
  998MOL0     C34617   7.422   5.777   9.666  0.1603 -0.1857  0.1323
  998MOL0     C34618   7.502   5.653   9.649  0.3883  0.3084 -0.1761
  998MOL0     O34619   7.492   5.595   9.523  0.0989 -0.0835  0.2123
  998MOL0     C34620   7.395   5.500   9.506  1.1532  0.3149 -0.3315
  998MOL0     C34621   7.372   5.465   9.380 -0.4267 -0.6565  0.2492
  998MOL0     C34622   7.257   5.398   9.337  0.3248  0.4899 -0.2681
  998MOL0     C34623   7.163   5.349   9.432 -0.4817  0.0254  0.3782
  998MOL0     C34624   7.048   5.255   9.394 -0.3770 -0.0293  0.2935
  998MOL0     O34625   7.040   5.226   9.264  0.4776 -0.0580 -0.5839
  998MOL0     C34626   6.961   5.134   9.215 -0.6627  0.5524  0.2698
  998MOL0     C34627   7.017   5.030   9.146 -0.2013  1.1142  0.6344
  998MOL0     C34628   6.932   4.936   9.085 -0.1873 -0.2321  0.9191
  998MOL0     C34629   6.797   4.936   9.100  0.2062 -0.3163 -0.5702
  998MOL0     O34630   6.726   4.844   9.025  0.3102 -0.1748 -0.2540
  998MOL0     C34631   6.697   4.735   9.106 -1.1578 -0.5475  1.4262
  998MOL0     C34632   6.561   4.683   9.048  0.0325 -0.3063 -0.0447
  998MOL0     C34633   6.583   4.583   8.925  0.4857 -0.7116  0.6837
  998MOL0     C34634   6.449   4.527   8.856  0.5805 -0.2332  0.3374
  998MOL0     C34635   6.444   4.377   8.878 -0.4093 -0.1246  0.4873
  998MOL0     C34636   6.389   4.346   9.019 -0.5556  0.6667  0.3601
  998MOL0     C34637   6.393   4.196   9.035 -0.3873 -0.0259  0.8600
  998MOL0     C34638   6.263   4.118   9.010  0.3920 -0.6559 -0.0208
  998MOL0    Cl34639   6.217   4.115   8.836  0.2536  0.2421 -0.4187
  998MOL0     C34640   6.737   5.043   9.176  0.8954 -0.6847  0.5303
  998MOL0     C34641   6.814   5.140   9.233 -0.4485 -0.8125  0.7825
  998MOL0     O34642   6.957   5.245   9.470 -0.2798  0.6776 -0.0213
  998MOL0     C34643   7.187   5.388   9.570  0.3181 -0.1309 -0.4566
  998MOL0     C34644   7.301   5.461   9.596 -0.8584  1.0366 -0.9906
  998MOL0     N34645   7.537   6.074   9.334  1.1171  0.5624 -0.0460
  998MOL0     N34646   7.544   6.192   9.302  0.5304  0.0735 -0.2920
  998MOL0     C34647   7.434   7.089   9.021  0.0909 -0.9944  0.0593
  998MOL0     C34648   7.296   7.080   9.005 -0.7011  0.3108  0.4577
  998MOL0     C34649   6.885   6.953   8.964 -0.0907  0.3460 -0.8365
  998MOL0     C34650   6.803   7.047   9.033 -0.2717  0.1164  0.6501
  998MOL0     C34651   6.660   7.044   9.028  0.9816 -0.3157  0.5916
  998MOL0     C34652   6.601   6.943   8.952 -0.1695  0.8587  0.0765
  998MOL0     O34653   6.463   6.923   8.956  0.0166 -0.4075 -0.5503
  998MOL0     C34654   6.410   6.814   9.033 -0.4331  0.4100  0.2716
  998MOL0     C34655   6.283   6.852   9.111 -0.0305 -0.3112 -0.1044
  998MOL0     C34656   6.194   6.730   9.145  0.6391  0.5560 -0.4725
  998MOL0     C34657   6.130   6.745   9.277  0.2775 -0.9229 -0.5636
  998MOL0     C34658   6.014   6.827   9.280 -0.0875 -0.5442 -0.0147
  998MOL0     C34659   5.909   6.882   9.284 -0.3445  0.5705  0.1515
  998MOL0     C34660   6.680   6.849   8.895  0.8729  0.2540  0.3200
  998MOL0     C34661   6.819   6.851   8.889  0.0933 -0.3066  0.0175
  998MOL0     C34662   6.897   6.729   8.838  0.1525 -0.1379 -0.2530
  998MOL0     H34663   7.224   6.910   9.291  2.8483  0.9153  1.2762
  998MOL0     H34664   7.452   6.940   9.320 -2.2789  0.5417 -0.3380
  998MOL0     H34665   7.709   7.217   9.304  1.8482 -0.9213  2.0052
  998MOL0     H34666   7.608   7.090   9.357  3.3007 -1.6893  2.1885
  998MOL0     H34667   7.861   7.083   9.379 -1.4583  3.4808 -0.5825
  998MOL0     H34668   7.870   7.038   9.210  1.3957 -0.9469  0.9820
  998MOL0     H34669   7.692   6.834   9.270  0.0193  0.5467 -0.3227
  998MOL0     H34670   7.719   6.871   9.437 -3.3439 -2.3572 -1.5014
  998MOL0     H34671   7.986   6.846   9.281  0.0522  1.3295  1.4942
  998MOL0     H34672   7.947   6.817   9.436 -0.1330  0.5161  0.9955
  998MOL0     H34673   7.862   6.648   9.211  1.2692 -1.0587 -0.2783
  998MOL0     H34674   7.997   6.615   9.316 -0.9117  1.4457  0.5516
  998MOL0     H34675   7.846   6.553   9.491  3.1228 -0.9901 -2.1268
  998MOL0     H34676   7.719   6.653   9.437 -1.4118 -0.3652 -1.2071
  998MOL0     H34677   7.827   6.391   9.323 -0.7775 -1.5042  0.7350
  998MOL0     H34678   7.693   6.472   9.235 -1.0375  2.5900  0.3568
  998MOL0     H34679   7.647   6.415   9.520  1.5973  1.1476 -0.2536
  998MOL0     H34680   7.529   6.445   9.391  1.3128  0.8427 -1.5355
  998MOL0     H34681   7.707   6.175   9.588 -0.0510  1.5630 -0.2106
  998MOL0     H34682   7.649   5.850   9.478  0.3312  0.5865 -1.2726
  998MOL0     H34683   7.641   5.944   9.633  1.3950 -1.9299 -0.7275
  998MOL0     H34684   7.391   5.964   9.599 -0.0887 -1.5057 -0.5431
  998MOL0     H34685   7.406   5.850   9.463  0.5388 -0.8903  0.3553
  998MOL0     H34686   7.316   5.762   9.688  0.0039  3.5553  3.0425
  998MOL0     H34687   7.444   5.824   9.762 -0.8023  0.0427  0.2517
  998MOL0     H34688   7.487   5.577   9.727  4.0015  0.0659  0.4666
  998MOL0     H34689   7.609   5.671   9.664 -0.0172  3.3294 -0.2886
  998MOL0     H34690   7.445   5.496   9.305 -0.3336  2.0388  1.3797
  998MOL0     H34691   7.252   5.377   9.231 -2.8941  1.8946 -0.5205
  998MOL0     H34692   7.123   5.017   9.132 -0.1986  1.2239  0.5516
  998MOL0     H34693   6.971   4.858   9.021  1.9538 -0.5249  2.4332
  998MOL0     H34694   6.770   4.658   9.077 -0.6126  0.3585  0.3045
  998MOL0     H34695   6.694   4.748   9.215 -0.2504  0.5449  1.3342
  998MOL0     H34696   6.509   4.632   9.130  1.7878 -0.3131  1.1242
  998MOL0     H34697   6.504   4.774   9.028  0.2168 -0.3798 -0.9179
  998MOL0     H34698   6.632   4.625   8.837  0.5256 -1.4555  0.3389
  998MOL0     H34699   6.643   4.494   8.947  1.8903  0.5687  2.2745
  998MOL0     H34700   6.456   4.556   8.750 -1.5852 -0.0513  0.1886
  998MOL0     H34701   6.365   4.578   8.903  1.7121  0.2346  1.9240
  998MOL0     H34702   6.535   4.326   8.842 -0.0967  2.5803 -3.0255
  998MOL0     H34703   6.379   4.336   8.800 -0.3028  2.1629 -0.8842
  998MOL0     H34704   6.454   4.389   9.096 -1.7081 -0.1325  1.8304
  998MOL0     H34705   6.291   4.394   9.030  0.8951  4.2170 -0.6359
  998MOL0     H34706   6.421   4.184   9.141  0.5014 -1.0487  0.5313
  998MOL0     H34707   6.469   4.146   8.974 -2.4465 -1.2612 -0.7944
  998MOL0     H34708   6.272   4.013   9.040  1.6138 -0.2020  1.3345
  998MOL0     H34709   6.183   4.163   9.069  0.0684 -0.7089 -0.4153
  998MOL0     H34710   6.629   5.045   9.182  0.9710 -0.7885  3.1040
  998MOL0     H34711   6.775   5.232   9.273 -2.7301 -1.3366 -0.0359
  998MOL0     H34712   7.139   5.351   9.660  0.1489  2.6206  0.6647
  998MOL0     H34713   7.307   5.479   9.703  1.7431 -0.8738 -0.7194
  998MOL0     H34714   7.486   7.124   8.933  0.4534 -0.7182  0.3820
  998MOL0     H34715   7.261   7.131   8.916  3.3142 -0.3397 -1.7469
  998MOL0     H34716   6.844   7.140   9.072  1.4345 -1.1397  2.0277
  998MOL0     H34717   6.600   7.120   9.076  0.0899  1.4812 -3.0380
  998MOL0     H34718   6.481   6.774   9.107  2.8069  0.7655 -2.3877
  998MOL0     H34719   6.392   6.722   8.977 -0.0157 -0.3944  1.4164
  998MOL0     H34720   6.231   6.925   9.049  2.7378 -0.6208 -3.1303
  998MOL0     H34721   6.329   6.884   9.205  4.9264 -7.2043  0.6249
  998MOL0     H34722   6.262   6.645   9.154 -0.5171 -0.5803 -1.8407
  998MOL0     H34723   6.120   6.701   9.069 -0.1499 -0.4816  0.6365
  998MOL0     H34724   6.090   6.650   9.313 -2.1743  0.5530  0.8634
  998MOL0     H34725   6.196   6.781   9.357 -0.2381  1.9504 -1.3199
  998MOL0     H34726   5.814   6.931   9.283  0.3335  1.9485 -1.1862
  998MOL0     H34727   6.637   6.758   8.854  1.9807  0.7548 -2.1524
  998MOL0     H34728   6.975   6.705   8.910  0.1953  0.5667 -0.0569
  998MOL0     H34729   6.816   6.660   8.813 -0.4323 -1.2520  3.9179
  998MOL0     H34730   6.949   6.744   8.743 -0.6587  0.0089 -0.6869
  999MOL0     O34731   3.137   1.212   8.489  0.0057  0.2245  0.1339
  999MOL0     C34732   3.251   1.189   8.521 -0.8053 -1.0822 -0.5650
  999MOL0     O34733   3.339   1.118   8.439 -0.1975 -0.1480  0.3810
  999MOL0     C34734   3.281   1.052   8.333 -0.8796  0.7167 -0.4922
  999MOL0     C34735   3.227   0.920   8.355  0.1521  0.3845  0.2480
  999MOL0     C34736   3.168   0.841   8.247 -0.1324 -0.9377 -0.5949
  999MOL0     C34737   3.172   0.891   8.114 -0.1615  0.2156 -0.3802
  999MOL0     O34738   3.121   0.843   8.001 -0.0291  0.4912  0.6686
  999MOL0     C34739   3.034   0.731   8.006  0.6533  0.4533  0.7022
  999MOL0     C34740   2.972   0.688   7.866 -1.2189 -0.3005  0.2444
  999MOL0     C34741   3.082   0.663   7.757  0.0609 -0.3308 -0.9562
  999MOL0     C34742   3.029   0.699   7.615 -0.6056  0.9063  0.5401
  999MOL0     C34743   3.140   0.673   7.505  0.8547  0.2351  0.4175
  999MOL0     C34744   3.099   0.710   7.364 -0.5137 -0.2923 -0.5286
  999MOL0     C34745   3.113   0.864   7.353 -0.4288  0.4798  0.7029
  999MOL0     C34746   3.095   0.905   7.196  0.1377  1.0534 -1.2302
  999MOL0     N34747   2.953   0.958   7.193 -0.3545  0.5739 -0.0365
  999MOL0     C34748   2.862   0.901   7.112  1.1409  0.0549 -0.1060
  999MOL0     C34749   2.766   0.997   7.107 -0.7746  0.2363  0.2575
  999MOL0     C34750   2.639   1.005   7.027  0.0757 -0.1529 -0.0102
  999MOL0     C34751   2.523   1.013   7.124 -0.2081 -0.3423  0.3236
  999MOL0     C34752   2.400   1.069   7.048 -0.0278  0.3330  0.0654
  999MOL0     C34753   2.285   1.109   7.137 -0.0290  0.1333 -0.3500
  999MOL0     O34754   2.204   1.199   7.060 -0.7353  0.3899 -0.8826
  999MOL0     C34755   2.221   1.329   7.077 -0.1087  0.4485  0.5486
  999MOL0     C34756   2.327   1.399   7.127  0.0925  0.2237  0.2014
  999MOL0     C34757   2.316   1.539   7.133  0.2372 -1.3490  0.1396
  999MOL0     C34758   2.207   1.619   7.102 -0.1829  0.2026  0.4901
  999MOL0     C34759   2.199   1.768   7.106 -0.1274  0.5470 -1.4024
  999MOL0     O34760   2.325   1.827   7.142 -0.2303 -0.7231  0.2329
  999MOL0     C34761   2.327   1.962   7.143  1.0016  1.5802 -0.5542
  999MOL0     C34762   2.429   2.027   7.067  0.4109 -0.1578  0.2637
  999MOL0     C34763   2.431   2.175   7.063 -0.3947  0.1168  0.1746
  999MOL0     C34764   2.343   2.253   7.137 -0.0237 -0.0745  0.2176
  999MOL0     O34765   2.367   2.386   7.121  0.1981 -0.1001  0.6893
  999MOL0     C34766   2.366   2.467   7.233 -0.4580 -0.9378 -0.5279
  999MOL0     C34767   2.490   2.427   7.319  0.2262  0.0137  0.4814
  999MOL0     C34768   2.623   2.472   7.265  0.0960  0.0790 -0.2604
  999MOL0     C34769   2.646   2.485   7.120 -0.5288  0.0624 -0.6505
  999MOL0     C34770   2.796   2.515   7.076  0.1793  0.4595  0.1103
  999MOL0     C34771   2.825   2.473   6.924 -0.2406 -0.2563  0.1952
  999MOL0     C34772   2.793   2.585   6.825 -0.1937  0.1872  0.3312
  999MOL0     C34773   2.642   2.627   6.818  0.5087 -0.1073 -0.1026
  999MOL0    Cl34774   2.612   2.754   6.686 -0.6938  0.5623  0.5264
  999MOL0     C34775   2.256   2.182   7.218  0.5700 -0.6186 -0.5276
  999MOL0     C34776   2.252   2.042   7.228 -0.6006  0.6075  0.4242
  999MOL0     O34777   2.093   1.835   7.088 -0.2627 -0.2007 -0.5416
  999MOL0     C34778   2.100   1.546   7.050  0.3484 -0.1620 -0.5412
  999MOL0     C34779   2.109   1.407   7.039  0.1074  0.9440 -0.8211
  999MOL0     N34780   2.809   1.107   7.178 -0.5799  1.0584 -0.8597
  999MOL0     N34781   2.931   1.090   7.221 -0.2903  0.9926  0.2598
  999MOL0     C34782   3.244   1.008   8.100  0.0876  0.8752 -0.9909
  999MOL0     C34783   3.295   1.088   8.203 -0.2936  0.4097 -0.9817
  999MOL0     C34784   3.314   1.260   8.643 -0.1483 -0.8859 -0.4501
  999MOL0     C34785   3.449   1.252   8.664 -0.3886 -0.0581 -1.6442
  999MOL0     C34786   3.508   1.308   8.780 -0.8967  0.0008  0.3441
  999MOL0     C34787   3.443   1.364   8.880 -0.2411  0.5992  0.2147
  999MOL0     O34788   3.521   1.421   8.975 -0.0338 -0.1022  0.6962
  999MOL0     C34789   3.455   1.506   9.075  0.4199  0.4093 -0.6386
  999MOL0     C34790   3.528   1.495   9.203  0.3679 -0.8658  0.2004
  999MOL0     C34791   3.685   1.494   9.190 -0.0425  0.5602  0.3570
  999MOL0     C34792   3.750   1.621   9.135  0.7191 -0.0284 -0.2800
  999MOL0     C34793   3.884   1.643   9.185 -0.3296  0.7314 -0.7243
  999MOL0     C34794   3.996   1.674   9.221 -0.6560  0.5195 -0.1037
  999MOL0     C34795   3.304   1.361   8.868  0.3392 -0.1454 -0.3389
  999MOL0     C34796   3.238   1.314   8.746 -0.0523  1.4616  0.6642
  999MOL0     C34797   3.082   1.291   8.745 -0.2871 -0.0870  0.1297
  999MOL0     H34798   3.225   0.898   8.462  2.4373  2.2275  0.7496
  999MOL0     H34799   3.121   0.750   8.282 -0.6408  0.6223  3.3795
  999MOL0     H34800   3.085   0.648   8.055  1.0035  0.7997  0.9284
  999MOL0     H34801   2.954   0.764   8.073  0.5344  0.4419  0.5658
  999MOL0     H34802   2.924   0.783   7.841  1.3053  1.5230  1.8250
  999MOL0     H34803   2.903   0.603   7.868  2.0034 -3.4092 -3.2234
  999MOL0     H34804   3.124   0.563   7.774  1.8619  0.2364 -1.7301
  999MOL0     H34805   3.156   0.742   7.774 -0.8784  0.4860 -0.6040
  999MOL0     H34806   2.933   0.654   7.588 -1.5749  1.1075  3.3417
  999MOL0     H34807   3.002   0.805   7.609 -0.7605  0.8026 -1.0007
  999MOL0     H34808   3.231   0.727   7.535 -0.6069  3.2038 -0.0634
  999MOL0     H34809   3.150   0.565   7.499  0.6747  0.1366  1.6366
  999MOL0     H34810   3.150   0.659   7.282 -2.0724 -1.1201 -1.0255
  999MOL0     H34811   2.994   0.686   7.343 -0.0667 -0.9319 -2.1504
  999MOL0     H34812   3.212   0.886   7.395 -1.1337 -2.5772  4.5129
  999MOL0     H34813   3.032   0.909   7.410 -2.0266 -2.3452  0.8274
  999MOL0     H34814   3.164   0.979   7.154 -0.5106  4.0675  2.5066
  999MOL0     H34815   3.105   0.812   7.138 -0.3423  0.7546 -0.8364
  999MOL0     H34816   2.871   0.811   7.052  4.0958  0.6175 -0.6529
  999MOL0     H34817   2.646   1.093   6.962  0.9555 -1.4398 -1.7374
  999MOL0     H34818   2.631   0.913   6.968  0.5546  1.1711 -2.2557
  999MOL0     H34819   2.500   0.912   7.160  0.7641 -0.7472 -0.1403
  999MOL0     H34820   2.546   1.083   7.205 -0.4806 -0.1094  0.2016
  999MOL0     H34821   2.380   0.994   6.971  0.8483 -1.4814  1.5227
  999MOL0     H34822   2.440   1.156   6.996  0.8815 -0.5553 -0.7739
  999MOL0     H34823   2.320   1.161   7.227 -2.1351 -1.1677  1.3356
  999MOL0     H34824   2.217   1.032   7.175 -2.2703  3.0019  1.9737
  999MOL0     H34825   2.416   1.346   7.159  0.4302 -1.8456 -3.6102
  999MOL0     H34826   2.395   1.595   7.182 -1.9307  2.3216 -0.1956
  999MOL0     H34827   2.497   1.979   6.997  1.3274  2.3263 -0.6683
  999MOL0     H34828   2.506   2.218   6.997  0.7163 -0.4690  1.0256
  999MOL0     H34829   2.376   2.572   7.205  4.7309 -0.6446  1.2464
  999MOL0     H34830   2.272   2.459   7.289 -0.6486 -0.5303 -0.7861
  999MOL0     H34831   2.472   2.475   7.416  1.8892  1.3053  0.2058
  999MOL0     H34832   2.499   2.320   7.339  0.6924  0.4454  3.0194
  999MOL0     H34833   2.652   2.567   7.312 -0.2905 -0.2266  0.6208
  999MOL0     H34834   2.695   2.397   7.295 -0.5689  0.3641  2.2260
  999MOL0     H34835   2.591   2.573   7.084 -2.1334 -0.6557 -0.0505
  999MOL0     H34836   2.617   2.389   7.077  2.6370 -1.8939  1.2432
  999MOL0     H34837   2.864   2.451   7.135 -2.0568 -0.5096  1.7817
  999MOL0     H34838   2.835   2.617   7.083  1.5738 -0.0668  0.4106
  999MOL0     H34839   2.930   2.447   6.909 -0.7158 -1.8118 -0.6547
  999MOL0     H34840   2.763   2.385   6.905 -0.6462  0.3443 -1.4774
  999MOL0     H34841   2.816   2.558   6.721 -2.7007  0.2472 -0.3292
  999MOL0     H34842   2.845   2.674   6.862  2.4708 -1.1067 -0.1219
  999MOL0     H34843   2.588   2.533   6.804 -0.2354  0.7392 -3.6771
  999MOL0     H34844   2.625   2.667   6.918  2.0969  2.2610 -0.7006
  999MOL0     H34845   2.175   2.230   7.271  1.3094 -1.3080  1.3039
  999MOL0     H34846   2.170   1.993   7.280  0.8482 -3.3205 -0.6257
  999MOL0     H34847   2.009   1.595   7.018  1.3974  2.0604 -0.3105
  999MOL0     H34848   2.025   1.349   7.004  0.6250  0.1290 -0.7555
  999MOL0     H34849   3.264   1.035   7.997  1.1032 -0.2015 -1.0876
  999MOL0     H34850   3.329   1.188   8.175  3.7215 -0.5516 -0.2479
  999MOL0     H34851   3.512   1.221   8.581 -0.5750 -1.1826 -1.3875
  999MOL0     H34852   3.615   1.305   8.800 -0.8796  0.6894  0.3845
  999MOL0     H34853   3.357   1.461   9.096  1.7850 -1.3880  2.7507
  999MOL0     H34854   3.438   1.610   9.047 -1.3192  0.6146  0.9631
  999MOL0     H34855   3.508   1.395   9.243  0.0542 -1.3124 -0.9979
  999MOL0     H34856   3.489   1.559   9.282  1.7912 -0.8023  0.8668
  999MOL0     H34857   3.733   1.411   9.139 -0.5774  1.4185 -1.6184
  999MOL0     H34858   3.714   1.485   9.295  0.5028 -2.4945  0.0259
  999MOL0     H34859   3.732   1.611   9.027 -0.8452 -0.2022 -0.0344
  999MOL0     H34860   3.686   1.703   9.170  0.0710 -1.1811  1.3553
  999MOL0     H34861   4.095   1.707   9.246 -0.5312  0.9079 -1.0796
  999MOL0     H34862   3.240   1.402   8.946  1.7388  1.1934  0.1816
  999MOL0     H34863   3.032   1.356   8.673 -0.3128 -0.1433  0.0964
  999MOL0     H34864   3.059   1.184   8.745  1.5796 -0.5509  1.9057
  999MOL0     H34865   3.043   1.308   8.846  1.5048 -2.4098  1.3110
 1000MOL0     O34866   7.696   1.987   8.494 -0.7038 -0.3727  0.1172
 1000MOL0     C34867   7.716   2.102   8.536  0.6025  0.3537  0.5734
 1000MOL0     O34868   7.671   2.153   8.647  0.1463  0.0050 -0.3233
 1000MOL0     C34869   7.611   2.075   8.739  0.0392  0.0586  0.8707
 1000MOL0     C34870   7.688   1.994   8.821 -0.1543  0.3265  0.6072
 1000MOL0     C34871   7.628   1.910   8.912  0.5748  0.0843  0.0072
 1000MOL0     C34872   7.486   1.907   8.913 -0.0188 -0.0029  0.5721
 1000MOL0     O34873   7.415   1.830   8.995 -0.1611  0.4106 -0.3342
 1000MOL0     C34874   7.477   1.752   9.092  0.0286 -0.4193  0.9439
 1000MOL0     C34875   7.357   1.700   9.187  0.4905 -0.5031  0.7614
 1000MOL0     C34876   7.229   1.647   9.105 -0.7467 -0.1939  0.0746
 1000MOL0     C34877   7.117   1.579   9.198 -0.5414  0.3002 -0.1016
 1000MOL0     C34878   6.984   1.580   9.121 -0.3966 -0.5452  0.5636
 1000MOL0     C34879   6.971   1.500   8.986  0.3521  1.0067  0.1141
 1000MOL0     C34880   6.842   1.516   8.907  0.4669  0.0793  0.3125
 1000MOL0     C34881   6.816   1.409   8.810 -0.0932 -0.2224  0.1754
 1000MOL0     N34882   6.937   1.375   8.723  0.4793  0.7963  0.9975
 1000MOL0     C34883   6.955   1.430   8.604  0.3535 -0.1738  0.2579
 1000MOL0     C34884   7.022   1.338   8.530 -0.7448  0.2282  0.0799
 1000MOL0     C34885   7.077   1.347   8.390 -0.6236 -0.3316 -0.3531
 1000MOL0     C34886   6.984   1.429   8.290 -0.2206  0.0339  0.0379
 1000MOL0     C34887   6.877   1.339   8.222 -0.2838 -0.0458  0.2878
 1000MOL0     C34888   6.776   1.417   8.143  0.8554  0.1169 -0.2259
 1000MOL0     O34889   6.680   1.347   8.066 -0.0452 -0.2477  0.3088
 1000MOL0     C34890   6.602   1.257   8.151  0.5342  0.4305  0.1112
 1000MOL0     C34891   6.515   1.310   8.248 -0.0328  0.1401  0.5904
 1000MOL0     C34892   6.435   1.223   8.324 -0.9198  0.2947  0.5093
 1000MOL0     C34893   6.436   1.086   8.303  0.2715 -0.1332 -0.0666
 1000MOL0     C34894   6.339   1.005   8.378  0.3410  0.6635 -1.2860
 1000MOL0     O34895   6.370   0.876   8.415  0.0680  0.0599  0.4428
 1000MOL0     C34896   6.300   0.815   8.512  0.2871  0.6444 -0.5461
 1000MOL0     C34897   6.309   0.676   8.506 -0.0823  0.1089  1.2539
 1000MOL0     C34898   6.234   0.595   8.595 -0.6525 -0.1777 -0.7149
 1000MOL0     C34899   6.147   0.657   8.693 -1.0205 -0.0506 -0.3007
 1000MOL0     O34900   6.070   0.586   8.782 -0.6543  0.1592 -0.7912
 1000MOL0     C34901   6.078   0.444   8.789 -0.1085 -0.4133  0.2616
 1000MOL0     C34902   5.972   0.380   8.876  0.8745  0.1541 -0.4348
 1000MOL0     C34903   5.944   0.439   9.019  0.5238  0.0172  0.2412
 1000MOL0     C34904   5.863   0.343   9.115  0.1177  0.9653  0.0517
 1000MOL0     C34905   5.720   0.396   9.109 -0.1093 -0.0252  0.5591
 1000MOL0     C34906   5.623   0.326   9.196  0.0704 -0.4499  0.2181
 1000MOL0     C34907   5.676   0.326   9.354  0.5900 -0.4398  0.5274
 1000MOL0     C34908   5.576   0.318   9.459 -0.4699 -0.6010  0.3583
 1000MOL0    Cl34909   5.496   0.481   9.506 -0.1977  0.5238 -0.2861
 1000MOL0     C34910   6.133   0.798   8.686 -0.2596 -0.3469  0.8726
 1000MOL0     C34911   6.216   0.876   8.614 -0.6882 -0.6542 -0.1787
 1000MOL0     O34912   6.229   1.062   8.398  0.3858  0.5475 -0.4629
 1000MOL0     C34913   6.527   1.037   8.211 -0.3288 -0.3057  0.1891
 1000MOL0     C34914   6.605   1.123   8.132 -0.0241 -0.9912  0.2593
 1000MOL0     N34915   7.053   1.225   8.600  0.1422  0.0922 -0.0298
 1000MOL0     N34916   6.997   1.249   8.725  0.9285 -0.3540  0.9071
 1000MOL0     C34917   7.408   1.987   8.826 -0.0685 -0.4965 -0.7320
 1000MOL0     C34918   7.473   2.078   8.740 -0.3584 -0.2453 -0.0597
 1000MOL0     C34919   7.776   2.192   8.439 -0.3853 -0.0841  0.1678
 1000MOL0     C34920   7.916   2.211   8.449 -0.2577 -0.3380 -0.6350
 1000MOL0     C34921   7.985   2.297   8.360 -0.3645  0.6692  0.7485
 1000MOL0     C34922   7.912   2.359   8.253  0.4466  0.2849 -0.3282
 1000MOL0     O34923   7.981   2.445   8.166  0.2265 -0.4205 -0.1574
 1000MOL0     C34924   7.924   2.534   8.072  0.3724 -0.4105  1.0065
 1000MOL0     C34925   7.892   2.663   8.139  0.1968 -0.5763 -0.3036
 1000MOL0     C34926   7.804   2.760   8.048 -0.7073  0.2175  0.1390
 1000MOL0     C34927   7.719   2.851   8.139 -0.5716  0.0177  0.0188
 1000MOL0     C34928   7.601   2.787   8.212  0.4164 -0.2785  0.0227
 1000MOL0     C34929   7.504   2.726   8.264 -0.8257  0.2528  0.5878
 1000MOL0     C34930   7.775   2.342   8.243 -0.0456 -0.8782 -0.4365
 1000MOL0     C34931   7.710   2.269   8.338  0.1348  0.2620  0.3843
 1000MOL0     C34932   7.563   2.239   8.320  0.4353  0.6446  0.0145
 1000MOL0     H34933   7.796   2.004   8.815 -0.1690  0.1806  0.0816
 1000MOL0     H34934   7.690   1.852   8.979  0.4061  0.8915  0.8741
 1000MOL0     H34935   7.540   1.676   9.044  0.3523  0.3665  0.1032
 1000MOL0     H34936   7.539   1.817   9.154 -0.8612  1.9291 -0.5085
 1000MOL0     H34937   7.332   1.788   9.245  0.7013  2.6226 -3.4281
 1000MOL0     H34938   7.401   1.628   9.257  0.9438 -0.4454  0.5453
 1000MOL0     H34939   7.266   1.573   9.033  0.0438 -1.1765  1.4171
 1000MOL0     H34940   7.179   1.739   9.075 -0.5463 -0.2027 -0.2906
 1000MOL0     H34941   7.153   1.478   9.219 -0.0297  0.7422  1.2708
 1000MOL0     H34942   7.109   1.640   9.289 -2.5854  2.2240 -1.4889
 1000MOL0     H34943   6.899   1.533   9.172 -0.5178  0.9384  1.8017
 1000MOL0     H34944   6.948   1.681   9.096 -3.7411 -0.6068  4.1424
 1000MOL0     H34945   7.050   1.526   8.915 -0.4644  1.1284 -0.7738
 1000MOL0     H34946   6.979   1.393   9.011  1.5628 -0.1684 -4.2781
 1000MOL0     H34947   6.853   1.608   8.849 -1.1687 -0.5159 -1.0421
 1000MOL0     H34948   6.757   1.538   8.972  2.4368  3.1344  2.1197
 1000MOL0     H34949   6.784   1.315   8.856 -0.0638 -0.6512 -0.6600
 1000MOL0     H34950   6.744   1.444   8.736 -1.1700 -1.8067  0.4213
 1000MOL0     H34951   6.927   1.529   8.568 -3.3283 -0.9934  0.4760
 1000MOL0     H34952   7.164   1.409   8.410 -1.3704  0.3355  1.0302
 1000MOL0     H34953   7.114   1.258   8.339  1.2623 -0.4229  1.0618
 1000MOL0     H34954   6.933   1.514   8.337 -2.2663  0.2176 -2.3470
 1000MOL0     H34955   7.065   1.469   8.228  2.6261 -3.4601  1.1834
 1000MOL0     H34956   6.821   1.289   8.302  0.2782  0.3063  0.9154
 1000MOL0     H34957   6.920   1.269   8.150 -0.5349 -0.2849  0.3649
 1000MOL0     H34958   6.831   1.496   8.091 -0.9221  2.1629  0.8451
 1000MOL0     H34959   6.712   1.470   8.215 -0.4260  0.9691 -1.9179
 1000MOL0     H34960   6.512   1.416   8.271  0.1580 -0.4890  4.0267
 1000MOL0     H34961   6.380   1.279   8.399  0.6842  5.7071 -1.8353
 1000MOL0     H34962   6.365   0.629   8.426  0.2293  0.8496  1.0312
 1000MOL0     H34963   6.247   0.487   8.595 -1.9789 -0.3610 -1.3592
 1000MOL0     H34964   6.076   0.401   8.689  0.0206 -3.3313  1.4156
 1000MOL0     H34965   6.168   0.403   8.837 -1.0907 -5.1913 -1.4549
 1000MOL0     H34966   5.880   0.398   8.820  0.9900 -0.0909 -0.7027
 1000MOL0     H34967   5.983   0.271   8.881  0.7144  0.0099 -2.4949
 1000MOL0     H34968   6.044   0.438   9.064  1.0320 -1.2572 -0.8399
 1000MOL0     H34969   5.903   0.540   9.032  1.4797  0.1725  2.4995
 1000MOL0     H34970   5.906   0.360   9.215 -0.0206  1.0828  0.0919
 1000MOL0     H34971   5.852   0.237   9.091 -0.9961  1.0465  0.1557
 1000MOL0     H34972   5.681   0.396   9.007 -3.0362 -0.4095  1.5826
 1000MOL0     H34973   5.714   0.498   9.150  1.8107  0.7051 -0.8158
 1000MOL0     H34974   5.528   0.379   9.183 -0.2141  0.7657  5.2339
 1000MOL0     H34975   5.610   0.221   9.168  0.3751  0.2427 -2.9365
 1000MOL0     H34976   5.743   0.411   9.373 -2.9276  2.9195 -0.8869
 1000MOL0     H34977   5.741   0.239   9.366  2.8014  1.3577  2.5683
 1000MOL0     H34978   5.500   0.249   9.419 -0.6635 -0.0508 -0.2522
 1000MOL0     H34979   5.618   0.262   9.543  1.0833  0.6417  0.4346
 1000MOL0     H34980   6.055   0.825   8.758  0.2995 -3.1635  2.7172
 1000MOL0     H34981   6.208   0.984   8.625 -3.6017 -0.9998  2.0875
 1000MOL0     H34982   6.522   0.929   8.199 -2.2897 -0.0909 -1.5240
 1000MOL0     H34983   6.675   1.074   8.066  1.3078 -0.4237  1.2174
 1000MOL0     H34984   7.300   1.985   8.838 -0.3702 -3.0343 -2.9305
 1000MOL0     H34985   7.410   2.139   8.676 -4.3330 -3.8162 -0.0026
 1000MOL0     H34986   7.977   2.167   8.528  0.9866  1.8902 -0.2612
 1000MOL0     H34987   8.091   2.322   8.365 -0.3374  0.7125  0.0062
 1000MOL0     H34988   7.830   2.492   8.034 -1.7685  3.3530  1.7213
 1000MOL0     H34989   7.995   2.545   7.989 -3.3907  0.1853 -2.4169
 1000MOL0     H34990   7.992   2.705   8.154  0.7960 -2.4116  1.3207
 1000MOL0     H34991   7.844   2.647   8.236  1.7064  1.0996  0.7768
 1000MOL0     H34992   7.740   2.692   7.989  1.8080 -1.1471 -1.2201
 1000MOL0     H34993   7.874   2.819   7.989  1.9429 -2.6817  0.1177
 1000MOL0     H34994   7.794   2.884   8.211 -1.7412  0.7962  0.9153
 1000MOL0     H34995   7.677   2.938   8.088  3.7142  1.9561 -0.6306
 1000MOL0     H34996   7.424   2.675   8.315  0.4899 -3.1326 -0.4714
 1000MOL0     H34997   7.721   2.403   8.171 -2.3517 -0.6924  1.3277
 1000MOL0     H34998   7.515   2.184   8.402 -1.7856  1.7813 -0.4434
 1000MOL0     H34999   7.507   2.331   8.302  0.0975  0.1652 -1.5048
 1000MOL0     H35000   7.539   2.189   8.226 -0.0477  2.6842 -1.0049
 1001MOL0     O35001   8.350   5.816   8.588  0.2862  0.7760 -0.8173
 1001MOL0     C35002   8.335   5.857   8.702 -0.5956  0.7137  0.1619
 1001MOL0     O35003   8.420   5.940   8.763 -0.5139  0.1502  1.3104
 1001MOL0     C35004   8.545   5.967   8.705  0.7357 -0.8936 -0.5407
 1001MOL0     C35005   8.620   5.881   8.627  0.1369  0.8177 -0.1064
 1001MOL0     C35006   8.749   5.909   8.583 -0.3179  2.0434  0.4339
 1001MOL0     C35007   8.810   6.028   8.607  0.5716 -0.4437 -0.8939
 1001MOL0     O35008   8.933   6.054   8.563 -1.1011 -0.0751 -0.2913
 1001MOL0     C35009   8.954   6.166   8.480 -0.8736  0.0989 -0.1617
 1001MOL0     C35010   9.104   6.179   8.444  1.0885 -0.3762 -0.0723
 1001MOL0     C35011   9.165   6.058   8.389  0.0605  0.3046  0.0109
 1001MOL0     C35012   9.120   6.024   8.245 -0.0565  0.0313 -0.2895
 1001MOL0     C35013   9.187   5.895   8.196  0.0363  0.4787  0.0610
 1001MOL0     C35014   9.119   5.842   8.070  0.2286  0.0046  0.1153
 1001MOL0     C35015   9.122   5.935   7.952  0.6912 -1.0804  0.5908
 1001MOL0     C35016   9.125   5.858   7.812  0.3666 -0.2899  0.1659
 1001MOL0     N35017   8.997   5.789   7.790  1.3478 -0.2567 -0.2554
 1001MOL0     C35018   8.880   5.839   7.735  0.4474 -1.0564  0.1033
 1001MOL0     C35019   8.788   5.733   7.749  0.1374  0.6391 -0.3133
 1001MOL0     C35020   8.644   5.750   7.709  1.5209 -0.4592 -0.4658
 1001MOL0     C35021   8.593   5.616   7.674 -0.1767 -0.3980 -0.2146
 1001MOL0     C35022   8.439   5.619   7.655 -0.0299  0.4914  1.4551
 1001MOL0     C35023   8.393   5.656   7.514  0.2103 -1.0835 -0.4957
 1001MOL0     O35024   8.468   5.577   7.419  0.4983 -0.2732 -0.2272
 1001MOL0     C35025   8.480   5.595   7.283 -0.0792 -0.3155 -0.1008
 1001MOL0     C35026   8.590   5.545   7.216 -0.3792  0.0159 -0.6154
 1001MOL0     C35027   8.617   5.569   7.084 -0.4071 -0.9274 -0.4305
 1001MOL0     C35028   8.519   5.625   7.003 -0.8171 -0.6087  0.8144
 1001MOL0     C35029   8.537   5.642   6.859 -0.4404  0.7175 -0.4232
 1001MOL0     O35030   8.617   5.554   6.796  0.8128 -0.0685  0.5923
 1001MOL0     C35031   8.630   5.563   6.663 -0.4364  1.0194  0.9215
 1001MOL0     C35032   8.761   5.531   6.610 -0.6695  0.5199 -0.2841
 1001MOL0     C35033   8.793   5.524   6.476 -0.3608 -0.4397 -1.2171
 1001MOL0     C35034   8.702   5.553   6.379  0.1741 -0.0120  0.9726
 1001MOL0     O35035   8.741   5.574   6.250  0.3282  0.5295 -0.5982
 1001MOL0     C35036   8.640   5.550   6.152 -1.0269  0.7565 -0.5205
 1001MOL0     C35037   8.686   5.566   6.005 -0.7278  1.3192 -0.8242
 1001MOL0     C35038   8.746   5.705   5.991  0.2745 -0.2376  1.0280
 1001MOL0     C35039   8.644   5.790   5.900  0.2348  0.7606 -0.6540
 1001MOL0     C35040   8.717   5.921   5.862  0.0327 -0.5622 -0.3251
 1001MOL0     C35041   8.641   5.981   5.740 -0.2419  0.4135 -0.4401
 1001MOL0     C35042   8.696   6.114   5.676 -0.1939  0.0674 -0.4422
 1001MOL0     C35043   8.846   6.125   5.665 -0.6267  1.2515  0.6295
 1001MOL0    Cl35044   8.884   6.018   5.530 -0.0447 -0.2866  0.0844
 1001MOL0     C35045   8.568   5.583   6.421 -0.7363 -0.5781  0.3951
 1001MOL0     C35046   8.538   5.588   6.561 -0.0283 -1.1212 -0.0903
 1001MOL0     O35047   8.462   5.730   6.813 -0.7790  0.0280 -0.1471
 1001MOL0     C35048   8.409   5.681   7.062 -0.1790 -0.3898 -0.4607
 1001MOL0     C35049   8.385   5.662   7.200 -0.4323  0.0177 -0.7307
 1001MOL0     N35050   8.840   5.631   7.814  0.2830 -0.4835 -0.2441
 1001MOL0     N35051   8.966   5.666   7.844 -0.4211  0.0251 -0.5633
 1001MOL0     C35052   8.733   6.126   8.680 -1.1680  0.5799  0.3865
 1001MOL0     C35053   8.605   6.092   8.723  0.3861  0.2517  0.4188
 1001MOL0     C35054   8.208   5.814   8.763 -0.3892  0.9289 -0.3540
 1001MOL0     C35055   8.159   5.902   8.860 -0.1335  0.9345 -0.0394
 1001MOL0     C35056   8.023   5.873   8.913 -0.3503  0.0948 -0.0944
 1001MOL0     C35057   7.965   5.747   8.888  0.4114 -0.1365  0.6006
 1001MOL0     O35058   7.845   5.691   8.934 -0.7085  0.1683  0.1563
 1001MOL0     C35059   7.779   5.760   9.043  0.6927  0.9657 -0.2514
 1001MOL0     C35060   7.646   5.691   9.060 -0.4295  0.1736  0.6471
 1001MOL0     C35061   7.567   5.743   9.181 -0.4136  1.0906 -0.1332
 1001MOL0     C35062   7.422   5.740   9.145 -0.2063  0.0691 -0.5027
 1001MOL0     C35063   7.382   5.833   9.040 -0.2837  0.5817 -1.0875
 1001MOL0     C35064   7.353   5.918   8.963  0.3812 -0.1408  0.9132
 1001MOL0     C35065   8.031   5.667   8.793  0.7362 -0.4808  0.1322
 1001MOL0     C35066   8.145   5.698   8.734 -0.2420 -0.0503  1.2866
 1001MOL0     C35067   8.209   5.587   8.646 -0.1308 -0.5923  0.0325
 1001MOL0     H35068   8.591   5.779   8.607 -0.6015  1.4818 -2.8721
 1001MOL0     H35069   8.818   5.830   8.555 -0.1302  1.9935  1.0242
 1001MOL0     H35070   8.886   6.170   8.394 -0.3422 -0.5099 -0.6181
 1001MOL0     H35071   8.935   6.264   8.525 -0.1063  0.6510 -1.0047
 1001MOL0     H35072   9.155   6.205   8.538  0.7913  0.8299 -0.2361
 1001MOL0     H35073   9.103   6.257   8.368 -2.1775  1.1721  1.3413
 1001MOL0     H35074   9.145   5.975   8.457 -1.9076  1.8598  1.4603
 1001MOL0     H35075   9.273   6.072   8.392  0.0951  0.8003 -2.1876
 1001MOL0     H35076   9.011   6.028   8.239 -0.0786 -0.1507 -0.0033
 1001MOL0     H35077   9.156   6.096   8.171  3.3097  0.1191  1.2481
 1001MOL0     H35078   9.293   5.901   8.171 -1.0520  1.9895 -5.2649
 1001MOL0     H35079   9.174   5.824   8.279 -0.3973  0.4922  0.0038
 1001MOL0     H35080   9.158   5.743   8.046 -0.7109 -0.2255 -0.4839
 1001MOL0     H35081   9.012   5.839   8.089  0.1235 -0.4976 -0.5417
 1001MOL0     H35082   9.208   6.003   7.957 -0.5255  0.7744 -1.6825
 1001MOL0     H35083   9.037   6.002   7.961  1.4552  0.9903 -4.2157
 1001MOL0     H35084   9.130   5.939   7.740  0.2166  1.6825  2.2536
 1001MOL0     H35085   9.211   5.790   7.807  1.6593  0.8726  3.5385
 1001MOL0     H35086   8.865   5.940   7.699  1.0463 -0.3326  1.7728
 1001MOL0     H35087   8.584   5.782   7.794  1.6330 -0.3050 -0.4441
 1001MOL0     H35088   8.647   5.824   7.628 -0.2310 -1.8589 -1.9007
 1001MOL0     H35089   8.633   5.576   7.581  2.0817  2.1419 -0.4551
 1001MOL0     H35090   8.613   5.537   7.747 -0.5872 -2.1263 -1.8954
 1001MOL0     H35091   8.385   5.684   7.725  1.4185  4.0758 -0.5072
 1001MOL0     H35092   8.398   5.520   7.675 -1.3196  0.7295  0.1288
 1001MOL0     H35093   8.409   5.764   7.508 -0.8337 -0.8840  0.0416
 1001MOL0     H35094   8.286   5.636   7.500  0.9623 -4.6625 -2.0642
 1001MOL0     H35095   8.662   5.486   7.272  0.0606 -1.3618 -2.5331
 1001MOL0     H35096   8.713   5.549   7.037 -0.6472 -1.9767 -0.5168
 1001MOL0     H35097   8.835   5.526   6.689 -1.2735 -1.6809  0.2258
 1001MOL0     H35098   8.897   5.501   6.457 -1.0955 -4.5861 -1.2136
 1001MOL0     H35099   8.622   5.442   6.156  2.5147 -0.0306 -1.9774
 1001MOL0     H35100   8.551   5.613   6.160  0.2966  2.5971  0.4840
 1001MOL0     H35101   8.773   5.499   5.999 -0.9168  0.6478  2.0798
 1001MOL0     H35102   8.618   5.531   5.927 -1.5047 -1.1539  0.8462
 1001MOL0     H35103   8.756   5.770   6.078  0.0239  0.7153  0.3762
 1001MOL0     H35104   8.845   5.701   5.944 -0.3156  3.7353 -1.0442
 1001MOL0     H35105   8.559   5.827   5.958  0.5996  3.3316 -1.6191
 1001MOL0     H35106   8.616   5.721   5.820 -1.1559 -2.5588  2.4333
 1001MOL0     H35107   8.820   5.906   5.830 -0.6129 -3.9277 -1.1744
 1001MOL0     H35108   8.721   5.996   5.942 -6.0369 -0.5185  0.4042
 1001MOL0     H35109   8.635   5.901   5.666 -1.4187  0.3007 -0.2404
 1001MOL0     H35110   8.538   6.000   5.772 -0.8324 -2.1968 -0.6078
 1001MOL0     H35111   8.663   6.198   5.738 -1.4499 -0.5753 -0.2026
 1001MOL0     H35112   8.649   6.127   5.578  0.1404  0.6229 -0.5284
 1001MOL0     H35113   8.884   6.226   5.645 -0.4915  1.0354 -0.2795
 1001MOL0     H35114   8.905   6.089   5.750  0.6205 -1.1384 -1.1060
 1001MOL0     H35115   8.487   5.612   6.355  1.3067  3.9872 -0.5190
 1001MOL0     H35116   8.436   5.617   6.586  0.9187  2.4631  0.1077
 1001MOL0     H35117   8.332   5.729   7.003 -1.1163  1.6605  2.2342
 1001MOL0     H35118   8.290   5.695   7.242 -0.7419 -0.5078 -0.9975
 1001MOL0     H35119   8.790   6.211   8.718  1.6461 -0.7724 -0.4924
 1001MOL0     H35120   8.548   6.160   8.786 -0.1457  0.4509 -0.2551
 1001MOL0     H35121   8.212   5.995   8.876  0.4204  0.3677  1.7356
 1001MOL0     H35122   7.962   5.944   8.967  1.4300  1.9658 -0.4570
 1001MOL0     H35123   7.779   5.867   9.017 -0.2142  1.2657  0.8634
 1001MOL0     H35124   7.839   5.752   9.133  0.1299 -0.7408 -0.0032
 1001MOL0     H35125   7.653   5.582   9.073 -2.9021 -0.1395 -0.1244
 1001MOL0     H35126   7.599   5.701   8.962  4.5522  2.2594 -1.8850
 1001MOL0     H35127   7.602   5.840   9.217  1.4567 -0.5026  2.8243
 1001MOL0     H35128   7.568   5.675   9.267  1.9502  0.4670 -0.5730
 1001MOL0     H35129   7.398   5.642   9.102  3.1589 -0.6940 -0.9365
 1001MOL0     H35130   7.370   5.763   9.239  0.5648  1.1031 -0.3121
 1001MOL0     H35131   7.343   5.995   8.889 -1.3683 -0.2997  0.9404
 1001MOL0     H35132   8.004   5.566   8.766  1.0171 -0.6450  0.4627
 1001MOL0     H35133   8.178   5.487   8.677 -1.1839 -0.7394 -1.4362
 1001MOL0     H35134   8.184   5.594   8.540  0.2362 -0.7457 -0.0645
 1001MOL0     H35135   8.318   5.587   8.652 -0.1427 -0.6734  0.2375
 1002MOL0     O35136   4.520   2.815   8.195  0.5139  0.1822  0.0637
 1002MOL0     C35137   4.423   2.738   8.190 -0.6251 -0.6284 -0.6413
 1002MOL0     O35138   4.355   2.697   8.297 -0.0001 -0.3202 -0.4475
 1002MOL0     C35139   4.404   2.719   8.426 -0.5989  0.0008 -0.6306
 1002MOL0     C35140   4.532   2.691   8.471 -0.0886 -0.5156  1.4947
 1002MOL0     C35141   4.555   2.723   8.607 -0.7764 -0.4365 -0.5713
 1002MOL0     C35142   4.455   2.769   8.699 -0.7218 -0.1635 -0.0650
 1002MOL0     O35143   4.466   2.795   8.828 -0.6797  0.9584  0.2633
 1002MOL0     C35144   4.602   2.816   8.881  0.0843 -0.1542 -0.6991
 1002MOL0     C35145   4.606   2.964   8.903  1.6439  0.0905 -1.4121
 1002MOL0     C35146   4.752   3.017   8.919  0.8958  0.3522  0.3604
 1002MOL0     C35147   4.746   3.156   8.996 -0.4304 -0.5772  0.7643
 1002MOL0     C35148   4.888   3.201   8.994 -0.4614 -0.0998  0.3038
 1002MOL0     C35149   4.965   3.178   9.121 -0.2311 -1.2814 -0.0865
 1002MOL0     C35150   5.106   3.257   9.121  0.2006  0.0333 -0.9606
 1002MOL0     C35151   5.150   3.275   9.264 -0.0796  0.3591  0.0132
 1002MOL0     N35152   5.287   3.304   9.278  0.3564  0.2500  0.5008
 1002MOL0     C35153   5.403   3.242   9.232 -0.0290 -0.2007 -0.0613
 1002MOL0     C35154   5.499   3.319   9.284  0.5234 -0.5407 -0.2575
 1002MOL0     C35155   5.637   3.286   9.267  0.3393  0.9095 -0.1111
 1002MOL0     C35156   5.734   3.394   9.237  0.0152 -0.0544 -0.2331
 1002MOL0     C35157   5.735   3.429   9.089  0.4472 -0.6952 -0.6015
 1002MOL0     C35158   5.844   3.542   9.063  1.2386 -0.5449  0.0168
 1002MOL0     O35159   5.974   3.477   9.068 -0.3279  0.5311 -0.8272
 1002MOL0     C35160   6.084   3.526   9.007 -0.2235  0.2679  0.7167
 1002MOL0     C35161   6.194   3.449   9.011  0.1546 -0.7022 -0.1344
 1002MOL0     C35162   6.318   3.486   8.951 -0.2014 -0.7279 -1.2517
 1002MOL0     C35163   6.330   3.608   8.885  0.4693  0.4417 -0.3911
 1002MOL0     C35164   6.445   3.636   8.795  0.0017 -0.3652 -0.8411
 1002MOL0     O35165   6.558   3.551   8.782 -0.0073  0.5794  0.3376
 1002MOL0     C35166   6.642   3.572   8.675  0.0951 -0.3079 -0.2322
 1002MOL0     C35167   6.756   3.645   8.705 -0.2908  0.1569  0.5124
 1002MOL0     C35168   6.851   3.663   8.602  0.4465 -0.1715 -1.1066
 1002MOL0     C35169   6.829   3.613   8.477 -0.2595  0.8385 -0.3401
 1002MOL0     O35170   6.916   3.627   8.373 -0.2953  0.8650 -0.0074
 1002MOL0     C35171   7.029   3.711   8.376  0.2467  0.4214 -0.2400
 1002MOL0     C35172   6.978   3.861   8.354  1.3024 -0.3190  0.1160
 1002MOL0     C35173   7.076   3.971   8.340 -0.5161  0.0708 -1.1327
 1002MOL0     C35174   7.132   3.998   8.490  0.7931  0.0273 -0.1134
 1002MOL0     C35175   7.221   4.126   8.506  0.7647  0.3293  0.0619
 1002MOL0     C35176   7.362   4.094   8.501  0.0479  0.1975 -0.1498
 1002MOL0     C35177   7.427   4.211   8.421 -0.6364 -0.6012  0.1149
 1002MOL0     C35178   7.431   4.195   8.271  0.8403 -0.2347 -0.3786
 1002MOL0    Cl35179   7.509   4.049   8.231  0.3397  0.6052  0.2092
 1002MOL0     C35180   6.702   3.557   8.450 -0.7030  0.4839  0.3254
 1002MOL0     C35181   6.612   3.524   8.547 -0.5026 -0.1779  0.5240
 1002MOL0     O35182   6.443   3.743   8.738 -0.7301 -0.2323 -0.1646
 1002MOL0     C35183   6.209   3.688   8.886  0.0573  0.1558 -0.7278
 1002MOL0     C35184   6.093   3.652   8.944  0.4784  0.3961 -0.3684
 1002MOL0     N35185   5.453   3.406   9.375 -0.5059 -0.2854  0.4629
 1002MOL0     N35186   5.326   3.410   9.357 -0.6617 -0.0852 -0.0663
 1002MOL0     C35187   4.334   2.797   8.648  0.2488 -0.0400  0.3291
 1002MOL0     C35188   4.308   2.779   8.522 -0.1573  0.1551  0.8901
 1002MOL0     C35189   4.377   2.718   8.055  0.9971  0.6840 -0.1801
 1002MOL0     C35190   4.463   2.741   7.943  0.4208 -0.2297  1.1002
 1002MOL0     C35191   4.418   2.723   7.811  0.0944 -0.0045  0.3261
 1002MOL0     C35192   4.289   2.704   7.781  1.0134  0.6569 -0.0598
 1002MOL0     O35193   4.249   2.690   7.650 -0.1109 -0.4178 -0.0182
 1002MOL0     C35194   4.104   2.690   7.618  0.9019  0.2266  0.4793
 1002MOL0     C35195   4.098   2.679   7.466  0.3862  0.2622 -0.1439
 1002MOL0     C35196   3.957   2.647   7.420 -0.5076  0.1098  0.1284
 1002MOL0     C35197   3.951   2.643   7.270  1.2630  0.4272  0.4624
 1002MOL0     C35198   3.812   2.625   7.237 -0.0775  0.7240  0.6284
 1002MOL0     C35199   3.701   2.610   7.194  0.4348 -0.7997 -0.7867
 1002MOL0     C35200   4.201   2.672   7.887 -0.3588  0.4053  0.8216
 1002MOL0     C35201   4.249   2.681   8.017  0.8912  0.2900 -0.0553
 1002MOL0     C35202   4.140   2.638   8.119  0.1011 -0.1233 -0.5924
 1002MOL0     H35203   4.609   2.648   8.407 -0.1155  1.0622  0.3424
 1002MOL0     H35204   4.655   2.690   8.634 -0.3949  1.0858  0.0284
 1002MOL0     H35205   4.615   2.770   8.979 -2.5814 -3.2344 -1.6199
 1002MOL0     H35206   4.679   2.770   8.819  1.7205 -2.2678  2.6211
 1002MOL0     H35207   4.561   2.987   9.000  1.7444 -2.7162 -0.6274
 1002MOL0     H35208   4.546   3.022   8.833 -0.1904 -3.0986 -2.7087
 1002MOL0     H35209   4.803   3.016   8.822  2.7058  0.3370  1.2650
 1002MOL0     H35210   4.814   2.954   8.983  0.4087 -0.3201  0.1767
 1002MOL0     H35211   4.679   3.223   8.941  0.9226  1.0508  0.9913
 1002MOL0     H35212   4.709   3.155   9.099 -0.0838  0.6595  0.9266
 1002MOL0     H35213   4.949   3.143   8.924  1.6181 -0.5746  2.4229
 1002MOL0     H35214   4.906   3.307   8.974  0.0118 -0.3135 -0.4472
 1002MOL0     H35215   4.900   3.209   9.204  0.8091 -0.0307  0.2907
 1002MOL0     H35216   4.995   3.073   9.135 -0.2743 -1.4324 -1.0849
 1002MOL0     H35217   5.090   3.357   9.079  1.9562  0.2478 -1.1979
 1002MOL0     H35218   5.180   3.204   9.060  1.3857  2.1198 -1.4236
 1002MOL0     H35219   5.095   3.350   9.323 -2.2049 -0.8665 -0.3244
 1002MOL0     H35220   5.132   3.182   9.318 -1.0836  1.7289  2.1846
 1002MOL0     H35221   5.426   3.150   9.178 -0.1828 -0.2731 -0.0032
 1002MOL0     H35222   5.682   3.246   9.357 -0.3702  0.4381  0.0447
 1002MOL0     H35223   5.650   3.215   9.184  0.0359 -0.0321  0.6280
 1002MOL0     H35224   5.696   3.481   9.292 -4.0822 -2.0427  0.5232
 1002MOL0     H35225   5.832   3.375   9.281  2.3002  2.0606 -3.9071
 1002MOL0     H35226   5.640   3.461   9.045  1.5698  2.7944 -0.8228
 1002MOL0     H35227   5.759   3.334   9.042  0.5324 -1.0141  0.0693
 1002MOL0     H35228   5.837   3.624   9.135 -2.4881  0.7411 -1.5323
 1002MOL0     H35229   5.821   3.598   8.973  1.2288  0.2547  0.5091
 1002MOL0     H35230   6.179   3.353   9.060 -4.2431 -0.2816 -0.3325
 1002MOL0     H35231   6.402   3.417   8.948  0.9377  0.6266 -1.5173
 1002MOL0     H35232   6.781   3.676   8.806  1.5307 -0.0546  0.1769
 1002MOL0     H35233   6.946   3.714   8.617  1.2233 -1.5976 -0.9388
 1002MOL0     H35234   7.089   3.690   8.465 -0.2486  2.1992  0.5543
 1002MOL0     H35235   7.094   3.684   8.292 -1.8926 -1.5448 -1.4019
 1002MOL0     H35236   6.910   3.860   8.268  1.2726  0.1262  0.1336
 1002MOL0     H35237   6.912   3.897   8.433  1.2436  3.6639 -1.5218
 1002MOL0     H35238   7.159   3.935   8.279  0.7103 -0.4174  0.7323
 1002MOL0     H35239   7.037   4.063   8.296  1.5308  2.6907  2.1344
 1002MOL0     H35240   7.178   3.912   8.540  0.0160 -0.9976 -1.1156
 1002MOL0     H35241   7.051   4.018   8.561  1.5714  0.9913  0.5454
 1002MOL0     H35242   7.210   4.175   8.603  1.1358  0.0430  0.2522
 1002MOL0     H35243   7.177   4.206   8.447  0.7024  2.2630  2.5757
 1002MOL0     H35244   7.403   4.084   8.602 -1.5813 -0.8333  0.4493
 1002MOL0     H35245   7.383   3.996   8.457 -0.5118 -0.4703  1.0254
 1002MOL0     H35246   7.532   4.226   8.448  1.2217 -3.2914 -4.3993
 1002MOL0     H35247   7.375   4.303   8.450  0.5320 -0.3617  1.5686
 1002MOL0     H35248   7.329   4.200   8.232  1.0146  0.3324 -0.7778
 1002MOL0     H35249   7.479   4.284   8.230 -1.3714  1.6772  0.9286
 1002MOL0     H35250   6.673   3.532   8.349 -1.4044  4.8737 -0.7523
 1002MOL0     H35251   6.523   3.468   8.522 -1.6851  1.4302  0.9388
 1002MOL0     H35252   6.219   3.793   8.861  0.9914  0.0377 -0.9019
 1002MOL0     H35253   6.025   3.737   8.948  0.6351  0.4959  0.7484
 1002MOL0     H35254   4.260   2.839   8.717  1.4005  0.8999  1.0259
 1002MOL0     H35255   4.214   2.811   8.478  0.9645  2.9923  0.3141
 1002MOL0     H35256   4.562   2.779   7.966 -0.8815  0.9736  5.7961
 1002MOL0     H35257   4.486   2.746   7.730 -1.2728 -2.3179 -1.6069
 1002MOL0     H35258   4.066   2.784   7.657 -0.9045 -0.0979 -0.3704
 1002MOL0     H35259   4.035   2.618   7.663 -0.0511  0.7439 -0.1089
 1002MOL0     H35260   4.167   2.607   7.421 -1.4948  0.8079 -4.4185
 1002MOL0     H35261   4.125   2.779   7.428  0.8597  0.7189  1.3207
 1002MOL0     H35262   3.883   2.722   7.450 -1.3868 -1.8013  3.1879
 1002MOL0     H35263   3.924   2.553   7.466 -2.1838  1.4004  1.6762
 1002MOL0     H35264   3.968   2.740   7.221  0.4383 -0.0051 -0.7231
 1002MOL0     H35265   4.014   2.561   7.235  1.5612  0.5948  0.6026
 1002MOL0     H35266   3.599   2.622   7.163  0.1177  1.7514  0.9238
 1002MOL0     H35267   4.096   2.655   7.865 -0.2264  0.5304  0.0704
 1002MOL0     H35268   4.059   2.584   8.070  1.8266 -1.4355 -2.1820
 1002MOL0     H35269   4.181   2.565   8.190 -0.1983 -0.1367 -0.4352
 1002MOL0     H35270   4.095   2.716   8.181  0.8241  1.3955 -1.8935
 1003MOL0     O35271  11.020   4.233   0.293 -0.5845 -0.0184 -0.7989
 1003MOL0     C35272  10.990   4.214   0.412 -1.2789  0.0606  0.0620
 1003MOL0     O35273  11.061   4.277   0.511 -0.3769 -0.2024 -0.3380
 1003MOL0     C35274  11.141   4.387   0.500 -0.0908  0.1223  0.7392
 1003MOL0     C35275  11.233   4.404   0.600  0.4145  0.4435  0.0768
 1003MOL0     C35276  11.324   4.504   0.604  1.0198  0.1612 -0.1942
 1003MOL0     C35277  11.330   4.598   0.499 -0.8530 -0.5747  0.0356
 1003MOL0     O35278  11.423   4.697   0.485 -0.2169  0.1998  0.1714
 1003MOL0     C35279  11.495   4.735   0.599  0.2852  0.1513 -0.6302
 1003MOL0     C35280  11.548   4.881   0.582  1.0186 -0.0840 -0.6246
 1003MOL0     C35281  11.647   4.889   0.472 -0.5440 -0.0068  0.9402
 1003MOL0     C35282  11.723   5.020   0.466 -0.7694  1.1194  0.6108
 1003MOL0     C35283  11.776   5.051   0.325 -0.1053  0.7167  0.5148
 1003MOL0     C35284  11.842   5.188   0.333  0.1240 -0.9303 -0.3024
 1003MOL0     C35285  11.972   5.201   0.246  0.4347  0.3902 -0.6986
 1003MOL0     C35286  11.961   5.154   0.103 -0.0196 -0.0637  0.4618
 1003MOL0     N35287  12.101   5.158   0.050 -0.7057  1.0778  0.3649
 1003MOL0     C35288  12.203   5.063   0.068 -0.5546 -0.0686  0.0905
 1003MOL0     C35289  12.316   5.123   0.032 -0.8595 -0.2354 -0.3954
 1003MOL0     C35290  12.452   5.081   0.076  0.4172 -0.1176  0.3234
 1003MOL0     C35291  12.511   4.958   0.001  0.5507  0.0647  0.9916
 1003MOL0     C35292  12.587   5.010  -0.122 -0.2854 -0.6973  0.6406
 1003MOL0     C35293  12.713   5.085  -0.104  0.0061  0.4191 -0.4016
 1003MOL0     O35294  12.742   5.188  -0.201  0.4492  0.8374  0.4422
 1003MOL0     C35295  12.748   5.157  -0.334 -0.2701 -0.3376 -0.2792
 1003MOL0     C35296  12.707   5.249  -0.423 -0.1439 -0.0913  1.0186
 1003MOL0     C35297  12.712   5.232  -0.560  0.6723 -0.1879 -0.2014
 1003MOL0     C35298  12.749   5.109  -0.613  0.3195  0.0684  0.0213
 1003MOL0     C35299  12.735   5.083  -0.758  0.0220  0.0874 -0.5537
 1003MOL0     O35300  12.715   5.181  -0.849 -0.0341  0.5222  0.2434
 1003MOL0     C35301  12.687   5.155  -0.979  0.5005 -0.4785 -0.2118
 1003MOL0     C35302  12.789   5.105  -1.063  0.2465  0.1680 -0.1965
 1003MOL0     C35303  12.764   5.087  -1.204 -0.4625 -0.0504  0.0288
 1003MOL0     C35304  12.645   5.120  -1.253  0.3071  0.3130  0.1828
 1003MOL0     O35305  12.612   5.119  -1.390  0.5366  0.0537 -0.5868
 1003MOL0     C35306  12.647   5.002  -1.461  0.4180 -0.0298  0.1591
 1003MOL0     C35307  12.521   4.919  -1.471  0.0844 -0.4716  0.3581
 1003MOL0     C35308  12.550   4.792  -1.557  0.3472 -0.4776 -0.2880
 1003MOL0     C35309  12.420   4.696  -1.562 -1.0186 -0.6134  0.3800
 1003MOL0     C35310  12.345   4.669  -1.428 -0.5137  0.7678  1.2670
 1003MOL0     C35311  12.446   4.579  -1.343 -0.6785  1.0720 -0.5452
 1003MOL0     C35312  12.389   4.536  -1.211 -0.8025  0.3156 -0.0018
 1003MOL0     C35313  12.469   4.430  -1.136 -0.5058  0.1615 -0.1161
 1003MOL0    Cl35314  12.477   4.280  -1.213 -0.0475  0.0925 -0.8503
 1003MOL0     C35315  12.537   5.185  -1.171 -0.1321  1.2959 -0.5597
 1003MOL0     C35316  12.559   5.189  -1.029 -0.2778  0.3524  0.1679
 1003MOL0     O35317  12.731   4.962  -0.787 -0.5601 -0.8678 -0.7449
 1003MOL0     C35318  12.797   5.006  -0.523 -0.5210 -0.6610 -0.6629
 1003MOL0     C35319  12.798   5.031  -0.389 -0.1585 -0.1966 -0.6288
 1003MOL0     N35320  12.283   5.253  -0.013  0.1419  0.3226  0.2148
 1003MOL0     N35321  12.154   5.262   0.003  0.3259  0.4551 -0.7466
 1003MOL0     C35322  11.245   4.577   0.388 -0.1165  0.0019 -0.1303
 1003MOL0     C35323  11.142   4.473   0.389  0.0084  0.1994 -0.9178
 1003MOL0     C35324  10.911   4.099   0.451  0.3924  0.8028  0.6311
 1003MOL0     C35325  10.942   4.046   0.583 -0.0869 -0.6959  1.6121
 1003MOL0     C35326  10.872   3.949   0.644  0.3567  0.0983  0.5816
 1003MOL0     C35327  10.765   3.885   0.582 -0.0912 -0.0963  1.3409
 1003MOL0     O35328  10.683   3.790   0.637  0.5921 -0.1695  0.5571
 1003MOL0     C35329  10.728   3.696   0.745  1.3072 -0.8580 -0.0390
 1003MOL0     C35330  10.606   3.608   0.756  0.4030 -0.8185  1.0208
 1003MOL0     C35331  10.612   3.544   0.893  0.4216 -0.5532  0.4198
 1003MOL0     C35332  10.501   3.440   0.902  0.1484 -0.8623  0.5001
 1003MOL0     C35333  10.373   3.504   0.897  1.2956  0.7402 -0.0839
 1003MOL0     C35334  10.264   3.561   0.890 -0.1202 -0.0360  0.1979
 1003MOL0     C35335  10.739   3.925   0.443 -0.2983  0.3632 -0.3770
 1003MOL0     C35336  10.800   4.039   0.381  0.5120  1.2800  0.1615
 1003MOL0     C35337  10.760   4.089   0.246  0.4617  0.1992  0.0450
 1003MOL0     H35338  11.255   4.322   0.668 -0.9003 -2.4170 -2.6553
 1003MOL0     H35339  11.396   4.510   0.684  0.4557 -0.8086  0.4071
 1003MOL0     H35340  11.426   4.722   0.683 -1.0861  0.3303 -1.6909
 1003MOL0     H35341  11.575   4.667   0.629 -1.3034 -1.6619 -0.2849
 1003MOL0     H35342  11.592   4.913   0.677 -1.0206  2.2974 -0.3687
 1003MOL0     H35343  11.454   4.935   0.565 -0.5768 -1.3273  3.0760
 1003MOL0     H35344  11.594   4.872   0.379  1.3885  3.9341 -1.1795
 1003MOL0     H35345  11.728   4.818   0.491  0.5595  0.8400 -0.4332
 1003MOL0     H35346  11.654   5.100   0.498 -2.1267 -0.0194  0.6440
 1003MOL0     H35347  11.806   5.014   0.536 -1.4151  1.1592  1.4046
 1003MOL0     H35348  11.852   4.974   0.306  0.5213  1.4546 -0.0924
 1003MOL0     H35349  11.707   5.052   0.240 -2.5791  2.0484  2.4129
 1003MOL0     H35350  11.776   5.262   0.286  2.5632 -0.3836 -3.1596
 1003MOL0     H35351  11.857   5.218   0.437  1.2852  0.2698 -0.7904
 1003MOL0     H35352  12.047   5.138   0.296  0.6629 -0.3119 -1.8895
 1003MOL0     H35353  12.016   5.301   0.243  2.0300 -0.1641  1.3090
 1003MOL0     H35354  11.929   5.050   0.097  0.7564 -0.2608 -0.3814
 1003MOL0     H35355  11.891   5.211   0.042  1.8965  0.2763 -1.5432
 1003MOL0     H35356  12.199   4.975   0.131  0.6140 -0.7305 -0.7241
 1003MOL0     H35357  12.518   5.168   0.068  0.2183 -0.1468 -2.4433
 1003MOL0     H35358  12.445   5.067   0.184 -0.8745  2.7170  0.7202
 1003MOL0     H35359  12.580   4.909   0.071 -0.2996  2.4657  3.7423
 1003MOL0     H35360  12.424   4.892  -0.012 -0.4352  1.4417  0.4026
 1003MOL0     H35361  12.527   5.081  -0.180  4.1634  3.4217  0.5181
 1003MOL0     H35362  12.602   4.928  -0.194 -0.9718 -1.2759  1.1319
 1003MOL0     H35363  12.808   5.036  -0.082  0.7458  2.4036  1.1914
 1003MOL0     H35364  12.722   5.140  -0.009  0.1877  1.4787 -1.0100
 1003MOL0     H35365  12.659   5.338  -0.383  0.3798  1.0748 -0.8101
 1003MOL0     H35366  12.674   5.310  -0.625 -1.5354 -0.0045  1.2342
 1003MOL0     H35367  12.879   5.060  -1.022  0.5436 -0.6312 -1.6292
 1003MOL0     H35368  12.836   5.048  -1.275 -1.9576  0.0696 -1.6269
 1003MOL0     H35369  12.678   5.039  -1.559  1.6380  4.4110  1.9597
 1003MOL0     H35370  12.715   4.940  -1.401 -0.4903 -0.4891  0.7327
 1003MOL0     H35371  12.485   4.904  -1.369 -1.7845 -2.5382 -0.5200
 1003MOL0     H35372  12.440   4.975  -1.519  1.4418  1.1997 -0.1074
 1003MOL0     H35373  12.591   4.821  -1.654  3.0626 -1.6054  0.4212
 1003MOL0     H35374  12.634   4.746  -1.503 -0.0168  1.9544  2.6258
 1003MOL0     H35375  12.457   4.605  -1.610  0.1652 -0.6784  1.3595
 1003MOL0     H35376  12.348   4.752  -1.623 -0.9679 -1.6373 -0.6599
 1003MOL0     H35377  12.256   4.608  -1.448  0.2344  0.5589 -1.8106
 1003MOL0     H35378  12.323   4.766  -1.382 -1.2199  2.1004 -1.6374
 1003MOL0     H35379  12.466   4.487  -1.398 -1.0979 -0.4802  1.7600
 1003MOL0     H35380  12.535   4.639  -1.318  1.4432 -2.3698  0.9128
 1003MOL0     H35381  12.291   4.487  -1.215 -0.3639 -0.6720  0.7785
 1003MOL0     H35382  12.378   4.633  -1.162  3.8642  1.9775 -1.6370
 1003MOL0     H35383  12.575   4.457  -1.136 -0.2727 -0.6657  1.5915
 1003MOL0     H35384  12.434   4.417  -1.034 -1.2605 -0.4502 -0.4493
 1003MOL0     H35385  12.444   5.212  -1.219 -2.3934 -3.4911  0.5238
 1003MOL0     H35386  12.483   5.247  -0.977  1.4325  0.2334  2.9825
 1003MOL0     H35387  12.825   4.908  -0.561 -0.5367 -0.4647 -1.1845
 1003MOL0     H35388  12.824   4.949  -0.323  2.5948  0.6529 -0.5314
 1003MOL0     H35389  11.240   4.643   0.302 -0.8952 -0.3914 -0.4021
 1003MOL0     H35390  11.067   4.467   0.311 -0.7246 -1.6625 -0.1257
 1003MOL0     H35391  11.013   4.084   0.656 -1.2989  1.6021  1.6838
 1003MOL0     H35392  10.885   3.931   0.750  0.3621 -2.1549  0.2324
 1003MOL0     H35393  10.744   3.760   0.833 -2.5722 -0.0985  0.2636
 1003MOL0     H35394  10.813   3.634   0.715  1.7590  1.1927 -3.7004
 1003MOL0     H35395  10.591   3.535   0.676 -0.8337 -0.2187  0.6765
 1003MOL0     H35396  10.523   3.678   0.742 -0.0376 -1.2644  1.4082
 1003MOL0     H35397  10.605   3.625   0.966  0.6951  2.0406 -2.2200
 1003MOL0     H35398  10.705   3.487   0.895  0.4420 -0.6035 -0.9122
 1003MOL0     H35399  10.509   3.371   0.818  2.5483  2.2914 -2.1219
 1003MOL0     H35400  10.502   3.385   0.997  0.3602 -0.1999  0.8951
 1003MOL0     H35401  10.165   3.601   0.885 -0.0287  0.6617  2.8367
 1003MOL0     H35402  10.650   3.883   0.397  0.7701  0.8027 -3.0836
 1003MOL0     H35403  10.747   4.197   0.256  1.1762  0.2854  0.0551
 1003MOL0     H35404  10.833   4.059   0.171 -3.4156  1.2270 -4.6269
 1003MOL0     H35405  10.668   4.037   0.215  0.8741 -0.5538  0.0607
 1004MOL0     O35406   9.274   5.456   2.707  0.0938 -0.2044 -0.3089
 1004MOL0     C35407   9.291   5.565   2.757 -0.8178  0.0355 -0.4364
 1004MOL0     O35408   9.376   5.663   2.706  0.0615 -0.3715 -0.3783
 1004MOL0     C35409   9.419   5.647   2.581 -0.4015 -0.2876  0.5074
 1004MOL0     C35410   9.540   5.588   2.544  0.0031 -0.3232  0.9578
 1004MOL0     C35411   9.572   5.556   2.414 -0.0927  0.2986  0.2832
 1004MOL0     C35412   9.486   5.579   2.300  0.1212 -0.3361  0.1113
 1004MOL0     O35413   9.531   5.546   2.177 -0.2316  0.0563  0.3545
 1004MOL0     C35414   9.453   5.591   2.061 -0.9524  0.6490 -0.0039
 1004MOL0     C35415   9.457   5.741   2.050  0.6676 -0.2330 -0.1635
 1004MOL0     C35416   9.397   5.783   1.916  0.4482  0.9035  0.6234
 1004MOL0     C35417   9.424   5.932   1.877  0.8207 -0.6443  0.4118
 1004MOL0     C35418   9.357   5.992   1.751  0.5796 -0.1430 -0.5656
 1004MOL0     C35419   9.198   5.962   1.747 -0.1167  0.2341 -0.4446
 1004MOL0     C35420   9.135   6.022   1.623 -0.1699  0.5799 -0.0567
 1004MOL0     C35421   8.982   5.982   1.604  0.5358  0.3177  0.0020
 1004MOL0     N35422   8.908   6.005   1.728 -0.0111  0.7547 -0.4749
 1004MOL0     C35423   8.869   6.126   1.789  0.3052 -0.4096  0.3782
 1004MOL0     C35424   8.801   6.086   1.899 -0.0619 -0.4772 -1.5586
 1004MOL0     C35425   8.738   6.177   2.007 -0.1093 -0.6735 -0.3671
 1004MOL0     C35426   8.584   6.176   1.990 -0.6588  0.3439  0.4246
 1004MOL0     C35427   8.518   6.217   1.865 -0.8453  0.4770  0.3038
 1004MOL0     C35428   8.370   6.168   1.847 -0.0399  0.1186 -0.2300
 1004MOL0     O35429   8.359   6.023   1.871  0.1834 -0.3113  0.4930
 1004MOL0     C35430   8.235   5.955   1.890  0.7969 -0.5295 -0.0196
 1004MOL0     C35431   8.104   6.008   1.892  0.1719  0.5333  0.2544
 1004MOL0     C35432   7.989   5.933   1.915 -0.6166 -0.2975 -0.6506
 1004MOL0     C35433   8.000   5.797   1.951  1.0069  0.6792 -0.7441
 1004MOL0     C35434   7.879   5.714   1.986 -0.2126  0.1270 -0.9670
 1004MOL0     O35435   7.786   5.769   2.060  0.4779  0.0606  1.0474
 1004MOL0     C35436   7.667   5.704   2.056 -0.4181  0.6717  0.5156
 1004MOL0     C35437   7.553   5.779   2.034  0.2197  0.5756  0.2834
 1004MOL0     C35438   7.426   5.727   2.050  0.9653 -0.0538 -0.9365
 1004MOL0     C35439   7.410   5.600   2.093  0.0215  0.9984  0.3781
 1004MOL0     O35440   7.285   5.552   2.120 -0.3394 -0.1323 -0.7932
 1004MOL0     C35441   7.188   5.635   2.177  0.0861  0.7407 -0.5324
 1004MOL0     C35442   7.054   5.566   2.213 -0.4911  0.8419  0.4784
 1004MOL0     C35443   7.077   5.441   2.302 -0.3480 -0.1645 -0.1826
 1004MOL0     C35444   7.153   5.478   2.429 -0.0148  0.3524 -0.1588
 1004MOL0     C35445   7.160   5.356   2.516 -0.1869  0.5677  0.2584
 1004MOL0     C35446   7.267   5.249   2.480 -0.7222 -0.4227  0.2772
 1004MOL0     C35447   7.267   5.136   2.580  0.9556 -0.2162  0.3280
 1004MOL0     C35448   7.171   5.016   2.553 -0.6397 -0.4314 -0.2976
 1004MOL0    Cl35449   7.217   4.926   2.406  0.0768  0.1363  0.4135
 1004MOL0     C35450   7.531   5.518   2.120  0.0807 -0.1591 -0.7663
 1004MOL0     C35451   7.653   5.584   2.119  0.2643  0.4231  0.5184
 1004MOL0     O35452   7.894   5.592   1.953  0.2134  0.4981 -0.6080
 1004MOL0     C35453   8.130   5.739   1.948 -0.2558  0.1553  0.5183
 1004MOL0     C35454   8.242   5.824   1.922  0.2213 -0.6475  0.0818
 1004MOL0     N35455   8.796   5.949   1.908  0.1934 -0.9629  0.4621
 1004MOL0     N35456   8.850   5.904   1.798 -1.1941  0.1914  0.1366
 1004MOL0     C35457   9.369   5.635   2.338 -0.7116 -0.0623 -0.9440
 1004MOL0     C35458   9.333   5.670   2.470  0.6737  0.5429 -0.5962
 1004MOL0     C35459   9.223   5.604   2.881  0.1909  0.9740 -0.7679
 1004MOL0     C35460   9.290   5.674   2.986  0.0090 -0.3967 -1.4196
 1004MOL0     C35461   9.224   5.704   3.108 -0.9854 -0.8401 -0.3039
 1004MOL0     C35462   9.090   5.670   3.127 -0.0753 -0.2467  0.6275
 1004MOL0     O35463   9.018   5.694   3.242 -0.7851  0.0979  0.4488
 1004MOL0     C35464   9.019   5.831   3.292  0.7271  0.3147  0.0750
 1004MOL0     C35465   8.941   5.921   3.210 -0.5066 -0.4384 -0.6519
 1004MOL0     C35466   8.790   5.871   3.188 -0.3623 -1.5018 -0.0020
 1004MOL0     C35467   8.710   5.951   3.078 -0.2119  0.0338 -0.4148
 1004MOL0     C35468   8.751   5.894   2.955  0.8488 -0.9795  0.4982
 1004MOL0     C35469   8.781   5.854   2.847 -0.8649 -0.4878  0.6038
 1004MOL0     C35470   9.022   5.596   3.032  0.1225  0.1806  0.9554
 1004MOL0     C35471   9.088   5.577   2.907  0.2556  0.2613 -0.1644
 1004MOL0     C35472   9.000   5.495   2.815 -0.7550  0.5972  0.4844
 1004MOL0     H35473   9.604   5.541   2.619 -2.2047 -3.0617  1.2992
 1004MOL0     H35474   9.659   5.493   2.399 -0.2562 -0.5553  2.5394
 1004MOL0     H35475   9.502   5.556   1.970  0.3366 -0.1262  0.9402
 1004MOL0     H35476   9.351   5.552   2.065  0.0450 -2.5150 -1.7265
 1004MOL0     H35477   9.555   5.784   2.071  1.3706 -1.6910 -0.3236
 1004MOL0     H35478   9.380   5.778   2.119 -0.8307 -0.8277 -1.4547
 1004MOL0     H35479   9.289   5.773   1.931  0.2962  4.5425  3.6522
 1004MOL0     H35480   9.429   5.714   1.838 -0.8252 -1.2031  1.8646
 1004MOL0     H35481   9.412   5.996   1.965  3.8334  2.3062 -1.0795
 1004MOL0     H35482   9.531   5.930   1.854  0.7936 -2.2044  0.3162
 1004MOL0     H35483   9.383   6.098   1.749 -2.8586  0.9021  2.0596
 1004MOL0     H35484   9.406   5.941   1.667 -0.9084  0.1479 -1.6632
 1004MOL0     H35485   9.170   5.856   1.751  1.0648 -0.0639  1.2069
 1004MOL0     H35486   9.154   6.007   1.836  0.1125  0.9652 -0.6934
 1004MOL0     H35487   9.183   5.975   1.537 -2.3196 -2.6341  0.3031
 1004MOL0     H35488   9.135   6.131   1.621  0.4874  0.5789 -1.6860
 1004MOL0     H35489   8.931   6.025   1.518 -0.1903 -2.1230 -0.8841
 1004MOL0     H35490   8.978   5.872   1.598 -1.8283  0.3062  0.7081
 1004MOL0     H35491   8.884   6.232   1.768 -0.8622 -0.1713  0.6345
 1004MOL0     H35492   8.759   6.158   2.113 -2.2387  0.7349  0.3909
 1004MOL0     H35493   8.774   6.275   1.977 -1.4676 -1.0670 -3.6283
 1004MOL0     H35494   8.544   6.079   2.020  0.5957 -0.2058  0.4045
 1004MOL0     H35495   8.551   6.244   2.068 -0.1114 -0.7229  1.6351
 1004MOL0     H35496   8.571   6.177   1.778  2.4824  0.1858  2.3024
 1004MOL0     H35497   8.532   6.325   1.866  4.0834  0.0509  2.0826
 1004MOL0     H35498   8.322   6.185   1.750 -0.7762 -0.2565  0.0595
 1004MOL0     H35499   8.306   6.214   1.923 -1.7199 -3.7494  0.9326
 1004MOL0     H35500   8.085   6.109   1.856  1.4778 -0.0026 -2.1345
 1004MOL0     H35501   7.889   5.976   1.914 -0.1462  0.8492 -1.4849
 1004MOL0     H35502   7.554   5.876   1.985 -0.6912  0.5959  0.2907
 1004MOL0     H35503   7.342   5.794   2.034  0.9563  1.0470  2.7928
 1004MOL0     H35504   7.236   5.664   2.271  0.2922  0.1870 -0.4612
 1004MOL0     H35505   7.164   5.723   2.117  2.4160  0.1353 -2.4663
 1004MOL0     H35506   7.000   5.636   2.278 -1.6393  1.5816 -1.1964
 1004MOL0     H35507   7.008   5.538   2.118 -0.6558  1.5826  0.3347
 1004MOL0     H35508   6.989   5.379   2.319 -0.6527  0.4547  0.5738
 1004MOL0     H35509   7.145   5.367   2.260  1.1739  1.2348 -0.2876
 1004MOL0     H35510   7.099   5.557   2.482 -0.8439  0.7850 -1.5864
 1004MOL0     H35511   7.258   5.507   2.417  0.3539 -0.6109  0.5921
 1004MOL0     H35512   7.065   5.303   2.508 -0.3810  1.0002 -0.4070
 1004MOL0     H35513   7.166   5.382   2.622 -0.2191 -1.2212  0.7285
 1004MOL0     H35514   7.252   5.220   2.376  0.2538  0.3388 -0.0944
 1004MOL0     H35515   7.367   5.293   2.482 -1.2135  0.7802 -0.5889
 1004MOL0     H35516   7.241   5.185   2.674 -1.4231  3.3335 -1.9505
 1004MOL0     H35517   7.370   5.102   2.570  1.4153  1.7140 -2.9178
 1004MOL0     H35518   7.185   4.951   2.640  0.5566 -0.0768 -0.2108
 1004MOL0     H35519   7.072   5.062   2.542  0.2102  1.4008 -0.7165
 1004MOL0     H35520   7.530   5.419   2.165 -1.2675 -0.2802 -1.0091
 1004MOL0     H35521   7.732   5.533   2.174 -0.8748 -2.5175 -0.3985
 1004MOL0     H35522   8.139   5.631   1.956  5.9210  0.2139 -0.6921
 1004MOL0     H35523   8.341   5.779   1.913  0.3511 -0.4294  0.4117
 1004MOL0     H35524   9.298   5.654   2.258 -0.9182  1.7863 -0.3708
 1004MOL0     H35525   9.228   5.693   2.484  0.7573  1.0514 -0.7823
 1004MOL0     H35526   9.392   5.708   2.972 -0.7502  2.8614 -0.0763
 1004MOL0     H35527   9.286   5.743   3.189  2.8264 -3.6570 -1.5879
 1004MOL0     H35528   9.124   5.860   3.299  0.5339  0.9404  0.3916
 1004MOL0     H35529   8.987   5.831   3.396 -1.2031  3.4337 -0.3900
 1004MOL0     H35530   8.983   5.926   3.109 -0.9132 -6.2414 -1.4543
 1004MOL0     H35531   8.938   6.020   3.256 -0.5780  0.4211 -2.4095
 1004MOL0     H35532   8.737   5.860   3.283  2.6743  1.5460  2.3428
 1004MOL0     H35533   8.787   5.764   3.168 -1.9047 -2.1300  2.9681
 1004MOL0     H35534   8.601   5.949   3.090 -0.1030  1.5895  1.3580
 1004MOL0     H35535   8.738   6.057   3.081 -5.3987  1.7379 -1.4894
 1004MOL0     H35536   8.795   5.825   2.745  1.3636  0.7301  0.5122
 1004MOL0     H35537   8.924   5.561   3.060  1.0515 -1.3594  2.4341
 1004MOL0     H35538   9.019   5.510   2.709  0.9790  2.8619  1.0473
 1004MOL0     H35539   9.018   5.389   2.835 -2.5816  0.4212  1.4745
 1004MOL0     H35540   8.894   5.523   2.822 -0.5210  1.8831 -0.7636
 1005MOL0     O35541   9.819   8.875  10.083  0.4868  0.9654  0.9584
 1005MOL0     C35542   9.827   8.748  10.086  0.5554  0.3815  0.0170
 1005MOL0     O35543   9.916   8.676  10.155  0.0640 -0.2870  0.4311
 1005MOL0     C35544  10.001   8.739  10.239  1.4555 -0.1515 -0.3579
 1005MOL0     C35545   9.946   8.771  10.374  0.2182 -0.2715  0.5859
 1005MOL0     C35546  10.040   8.826  10.465  0.3335  0.0041  0.1914
 1005MOL0     C35547  10.174   8.857  10.427  0.1880  0.8131 -0.2478
 1005MOL0     O35548  10.257   8.911  10.521 -0.3480 -0.1035  0.3682
 1005MOL0     C35549  10.222   9.042  10.563  0.2382 -0.6611 -0.0580
 1005MOL0     C35550  10.248   9.154  10.463  0.7456  0.9795  0.0658
 1005MOL0     C35551  10.396   9.174  10.428  0.0996  0.1473  0.2067
 1005MOL0     C35552  10.419   9.297  10.335  0.1350 -0.9744  1.4432
 1005MOL0     C35553  10.562   9.286  10.280  0.2544 -0.6122  0.3198
 1005MOL0     C35554  10.662   9.353  10.366  0.5493 -0.3487 -0.2630
 1005MOL0     C35555  10.800   9.305  10.340  0.2786  0.6364  0.2827
 1005MOL0     C35556  10.834   9.160  10.404  1.0592  0.7264 -0.4591
 1005MOL0     N35557  10.975   9.136  10.409 -0.3335  0.0145 -1.2761
 1005MOL0     C35558  11.063   9.167  10.305 -0.2600 -0.6279 -0.1464
 1005MOL0     C35559  11.185   9.167  10.368  0.3987 -1.0458 -0.0239
 1005MOL0     C35560  11.308   9.201  10.295 -0.0557 -0.2171  0.2482
 1005MOL0     C35561  11.334   9.353  10.274  0.0255 -0.2050 -0.6846
 1005MOL0     C35562  11.435   9.376  10.155 -0.3433 -0.0955 -0.7647
 1005MOL0     C35563  11.495   9.514  10.157  0.0021  0.2018  0.8571
 1005MOL0     O35564  11.589   9.515  10.265  0.0167  0.1696  0.2901
 1005MOL0     C35565  11.670   9.622  10.293  0.0707 -0.1052  1.4627
 1005MOL0     C35566  11.761   9.597  10.387 -0.5014  0.8776 -0.0673
 1005MOL0     C35567  11.858   9.687  10.427  0.3546  0.3977  1.4456
 1005MOL0     C35568  11.856   9.815  10.361 -0.1475 -0.1241 -0.6692
 1005MOL0     C35569  11.966   9.906  10.390  0.0623 -0.9567 -0.9874
 1005MOL0     O35570  11.990  10.002  10.302 -0.2108 -0.9981  0.2434
 1005MOL0     C35571  12.081  10.108  10.317 -0.3977  0.6663 -0.3945
 1005MOL0     C35572  12.118  10.179  10.195  0.5798 -0.0924  0.0353
 1005MOL0     C35573  12.203  10.281  10.184 -0.8513 -0.3640 -0.8346
 1005MOL0     C35574  12.264  10.329  10.304 -0.0057  0.0915  0.1501
 1005MOL0     O35575  12.370  10.415  10.298 -0.3416 -0.2265 -0.0439
 1005MOL0     C35576  12.425  10.467  10.174 -0.1350  0.8476  0.9578
 1005MOL0     C35577  12.556  10.536  10.185  0.1460  0.3644  1.2432
 1005MOL0     C35578  12.651  10.489  10.285 -1.7125  0.4782  0.1429
 1005MOL0     C35579  12.707  10.340  10.255 -0.7886  0.1241  0.2990
 1005MOL0     C35580  12.772  10.287  10.383 -0.6768 -0.1017  1.0074
 1005MOL0     C35581  12.888  10.179  10.358  0.6922  0.6346  0.7193
 1005MOL0     C35582  12.834  10.054  10.279 -0.4547 -0.0645  0.0059
 1005MOL0     C35583  12.947   9.948  10.273  0.3386  0.6423 -0.3015
 1005MOL0    Cl35584  12.989   9.889  10.441 -0.3365  0.1726 -0.0520
 1005MOL0     C35585  12.240  10.259  10.431  0.6953 -0.3422 -0.4783
 1005MOL0     C35586  12.140  10.156  10.439  0.2809  0.0752 -0.7528
 1005MOL0     O35587  12.037   9.880  10.486  0.1380 -0.1293  0.1519
 1005MOL0     C35588  11.762   9.837  10.257 -0.1820 -0.6943 -0.4303
 1005MOL0     C35589  11.663   9.740  10.216 -0.0731 -0.3891  0.3699
 1005MOL0     N35590  11.171   9.147  10.502 -0.1413  0.0300 -1.1868
 1005MOL0     N35591  11.046   9.120  10.528  1.1207  0.4861  0.9831
 1005MOL0     C35592  10.222   8.830  10.298 -0.0446 -0.4321  0.2086
 1005MOL0     C35593  10.133   8.774  10.202  0.9253  1.3518  0.6155
 1005MOL0     C35594   9.738   8.658  10.003 -0.1851 -0.1768  0.2259
 1005MOL0     C35595   9.747   8.519  10.028 -0.9397  0.1460  0.4614
 1005MOL0     C35596   9.673   8.420   9.963  0.7729 -0.0828 -0.2485
 1005MOL0     C35597   9.580   8.464   9.871 -0.6989 -0.0049 -1.2603
 1005MOL0     O35598   9.505   8.372   9.807  0.3481  0.4350  0.4217
 1005MOL0     C35599   9.579   8.279   9.738 -0.7721 -0.9044  0.0801
 1005MOL0     C35600   9.682   8.322   9.640 -0.5724 -0.5174  0.7664
 1005MOL0     C35601   9.769   8.195   9.601 -0.2731  0.0120 -0.9920
 1005MOL0     C35602   9.860   8.226   9.487  0.4019  0.2633  0.3480
 1005MOL0     C35603   9.953   8.320   9.524  0.6663  0.7366 -0.6317
 1005MOL0     C35604  10.039   8.401   9.548 -0.5461  0.2890  0.1381
 1005MOL0     C35605   9.572   8.597   9.839  0.1059 -0.8279  1.1591
 1005MOL0     C35606   9.647   8.696   9.902 -1.0967  0.1451 -0.9411
 1005MOL0     C35607   9.628   8.837   9.862  0.1030 -0.2433  0.1677
 1005MOL0     H35608   9.850   8.741  10.413 -1.1475  1.6028 -1.1233
 1005MOL0     H35609  10.026   8.843  10.571  1.2558 -2.2516  0.7445
 1005MOL0     H35610  10.120   9.047  10.600 -0.5841 -0.3336 -2.2152
 1005MOL0     H35611  10.298   9.063  10.639 -0.5835  0.0022  0.5987
 1005MOL0     H35612  10.208   9.245  10.508 -2.0381  0.6446 -1.5163
 1005MOL0     H35613  10.182   9.125  10.381  1.5667 -3.2388  0.6661
 1005MOL0     H35614  10.432   9.083  10.378  0.3935  0.4644 -0.1635
 1005MOL0     H35615  10.452   9.173  10.521 -2.6569 -1.8994  1.9900
 1005MOL0     H35616  10.343   9.289  10.257  0.3568 -1.2298  1.2519
 1005MOL0     H35617  10.409   9.397  10.378  1.4665 -1.1030  2.1008
 1005MOL0     H35618  10.588   9.182  10.256 -0.5658 -0.6914 -0.2697
 1005MOL0     H35619  10.571   9.341  10.185 -2.9943  0.8050  0.7136
 1005MOL0     H35620  10.654   9.460  10.345  2.9128  0.1593  1.0747
 1005MOL0     H35621  10.653   9.342  10.475  3.5304 -1.0489  0.0058
 1005MOL0     H35622  10.868   9.382  10.378 -0.8633  0.9672  1.7615
 1005MOL0     H35623  10.822   9.304  10.233 -0.3121  0.3843  0.1644
 1005MOL0     H35624  10.794   9.151  10.505  1.5398 -1.8905 -0.4422
 1005MOL0     H35625  10.777   9.082  10.354  1.5544 -2.0368  2.9142
 1005MOL0     H35626  11.041   9.203  10.204  0.8993 -1.9037 -0.8896
 1005MOL0     H35627  11.394   9.164  10.352  1.8512  2.1942 -0.8583
 1005MOL0     H35628  11.315   9.150  10.199  1.3594  1.7868 -0.7895
 1005MOL0     H35629  11.240   9.404  10.253 -0.3229 -1.8572 -3.5537
 1005MOL0     H35630  11.378   9.396  10.365 -1.0059  1.5642 -0.9776
 1005MOL0     H35631  11.381   9.364  10.061 -2.3115  2.4428 -0.0753
 1005MOL0     H35632  11.521   9.308  10.155  2.3850  3.0363  0.5856
 1005MOL0     H35633  11.420   9.591  10.177 -3.3403 -3.0178  1.7137
 1005MOL0     H35634  11.539   9.536  10.060  0.6068 -2.5131  0.4374
 1005MOL0     H35635  11.761   9.499  10.432  0.3516  1.8435  2.1527
 1005MOL0     H35636  11.916   9.656  10.513 -0.6668  0.3035  2.1174
 1005MOL0     H35637  12.071  10.144  10.104  1.2971 -1.7880  0.2708
 1005MOL0     H35638  12.233  10.331  10.093 -1.5691  0.3109 -0.7118
 1005MOL0     H35639  12.455  10.386  10.107 -0.4830 -0.0644  1.8831
 1005MOL0     H35640  12.359  10.526  10.108  1.0719  1.0313 -0.1305
 1005MOL0     H35641  12.600  10.534  10.085 -1.8335  6.2218 -0.1234
 1005MOL0     H35642  12.538  10.638  10.220  0.1863  0.3398  1.3349
 1005MOL0     H35643  12.728  10.565  10.303 -1.4719  0.4632 -0.7900
 1005MOL0     H35644  12.601  10.485  10.383  1.5558 -3.2050  1.9473
 1005MOL0     H35645  12.784  10.352  10.178 -1.9832  2.4347 -0.6312
 1005MOL0     H35646  12.632  10.275  10.210  0.9876 -1.7730 -0.1135
 1005MOL0     H35647  12.688  10.270  10.451 -0.7957  1.4466  1.3032
 1005MOL0     H35648  12.826  10.366  10.437 -0.0314  1.4767 -1.7465
 1005MOL0     H35649  12.966  10.220  10.293  0.4363 -0.0221 -0.0256
 1005MOL0     H35650  12.932  10.150  10.454  0.7870  1.7231  1.0124
 1005MOL0     H35651  12.815  10.057  10.172  0.2768 -0.3494 -0.1403
 1005MOL0     H35652  12.751  10.010  10.335  1.1453 -2.3961  0.6782
 1005MOL0     H35653  12.910   9.866  10.210  1.6582  0.0441 -0.3313
 1005MOL0     H35654  13.039   9.989  10.230  0.8403  2.5031  2.2904
 1005MOL0     H35655  12.294  10.303  10.515 -0.2617  0.1273 -0.0998
 1005MOL0     H35656  12.100  10.115  10.531  0.7467 -0.0061 -0.5812
 1005MOL0     H35657  11.790   9.914  10.185  0.8236  1.9501  2.5536
 1005MOL0     H35658  11.601   9.753  10.128 -0.9818  0.0744  1.0601
 1005MOL0     H35659  10.328   8.847  10.281  0.2112 -1.8704  0.2392
 1005MOL0     H35660  10.169   8.735  10.107  4.2657 -1.1475  2.6839
 1005MOL0     H35661   9.813   8.473  10.101  1.9580  1.3605 -1.2317
 1005MOL0     H35662   9.675   8.317   9.998 -1.6095  0.2493  1.1137
 1005MOL0     H35663   9.507   8.219   9.681 -0.2693 -0.3655 -1.1597
 1005MOL0     H35664   9.632   8.217   9.811  1.4394  0.6517 -0.0890
 1005MOL0     H35665   9.741   8.398   9.692  1.0837  0.3359 -2.1453
 1005MOL0     H35666   9.634   8.369   9.554  1.0149  0.5983  0.4534
 1005MOL0     H35667   9.707   8.108   9.577  4.2654 -3.3579 -1.7629
 1005MOL0     H35668   9.826   8.165   9.690 -0.0239 -0.5661 -1.3438
 1005MOL0     H35669   9.904   8.132   9.453  0.3203  0.6846 -0.9739
 1005MOL0     H35670   9.806   8.255   9.397  2.9347 -2.0916 -2.1132
 1005MOL0     H35671  10.116   8.466   9.584  0.8888 -2.9311  3.4493
 1005MOL0     H35672   9.501   8.628   9.762  2.2644  2.2198  0.2099
 1005MOL0     H35673   9.540   8.842   9.797  0.8182 -0.8338 -0.8564
 1005MOL0     H35674   9.586   8.893   9.947 -1.9203  1.6001 -1.8972
 1005MOL0     H35675   9.717   8.870   9.808  1.4678 -0.9305  1.8952
 1006MOL0     O35676   6.421   3.876   0.305 -0.2359  0.4285 -1.0253
 1006MOL0     C35677   6.356   3.853   0.408  0.5710 -0.1826  0.5023
 1006MOL0     O35678   6.277   3.947   0.467  0.3041  0.7646  0.7375
 1006MOL0     C35679   6.286   4.068   0.411  0.1807  0.3030 -0.3626
 1006MOL0     C35680   6.386   4.155   0.463  0.2602 -0.1173 -0.5943
 1006MOL0     C35681   6.411   4.276   0.401 -0.8526 -0.0141  0.1936
 1006MOL0     C35682   6.334   4.314   0.287  0.5942  0.0898 -0.2683
 1006MOL0     O35683   6.369   4.427   0.221  0.3996  0.6565  0.6445
 1006MOL0     C35684   6.368   4.421   0.083 -0.1291  0.3050 -0.1050
 1006MOL0     C35685   6.440   4.546   0.036 -0.3610  0.6553  0.3922
 1006MOL0     C35686   6.588   4.506   0.046 -0.1986  0.0987 -0.7204
 1006MOL0     C35687   6.680   4.585  -0.049  0.8772  0.7811  0.1072
 1006MOL0     C35688   6.767   4.680   0.033 -0.2644 -0.2003  1.2924
 1006MOL0     C35689   6.684   4.792   0.093  0.4652  0.3664 -0.1123
 1006MOL0     C35690   6.784   4.880   0.159 -0.0195 -0.4882  0.1765
 1006MOL0     C35691   6.716   4.975   0.249 -0.1381 -1.1712 -0.5545
 1006MOL0     N35692   6.800   5.055   0.335  0.2183 -0.5119 -0.1359
 1006MOL0     C35693   6.883   5.012   0.433  0.0283  0.4214  0.2199
 1006MOL0     C35694   6.961   5.117   0.455  0.2406 -0.5247 -0.4097
 1006MOL0     C35695   7.067   5.119   0.559 -0.5632  0.3518  0.0391
 1006MOL0     C35696   7.178   5.014   0.531  1.0884  0.1360 -0.3107
 1006MOL0     C35697   7.279   5.011   0.638 -0.0567  0.1900 -0.1727
 1006MOL0     C35698   7.242   4.944   0.773  0.4544 -0.6252  0.1557
 1006MOL0     O35699   7.153   5.029   0.852 -0.4919 -0.3284 -0.4452
 1006MOL0     C35700   7.116   4.989   0.974 -1.5023 -0.0955  0.8929
 1006MOL0     C35701   7.080   4.853   0.989  0.2324 -0.1982  0.0151
 1006MOL0     C35702   7.036   4.806   1.117  0.1032  0.4154  0.2283
 1006MOL0     C35703   7.034   4.900   1.225  0.4580 -0.2512  0.2124
 1006MOL0     C35704   6.991   4.858   1.362 -0.5139  0.0535  0.3849
 1006MOL0     O35705   6.909   4.745   1.381 -0.1741 -1.0620 -0.0802
 1006MOL0     C35706   6.884   4.714   1.509  0.0686 -0.4468  0.3372
 1006MOL0     C35707   6.807   4.795   1.597 -1.0035  0.1873 -0.3225
 1006MOL0     C35708   6.768   4.761   1.720  0.3374 -0.2013  0.6462
 1006MOL0     C35709   6.776   4.630   1.758  0.2880  0.6554  0.8561
 1006MOL0     O35710   6.740   4.607   1.879  0.7936  0.4579 -0.3925
 1006MOL0     C35711   6.684   4.472   1.905  0.3747 -0.8744  0.9993
 1006MOL0     C35712   6.551   4.489   1.971 -0.0811  0.8893  0.4455
 1006MOL0     C35713   6.556   4.497   2.124 -0.9100 -0.0219 -0.6254
 1006MOL0     C35714   6.415   4.529   2.183  0.2322  0.0970 -1.3063
 1006MOL0     C35715   6.416   4.506   2.346  0.4951  0.4832  0.7276
 1006MOL0     C35716   6.525   4.594   2.421  0.0355 -0.1609 -0.6164
 1006MOL0     C35717   6.467   4.632   2.550  0.3670 -0.6828  0.4909
 1006MOL0     C35718   6.467   4.506   2.648  0.3092 -0.6650  0.3523
 1006MOL0    Cl35719   6.644   4.466   2.683 -0.4043 -0.4235  0.0160
 1006MOL0     C35720   6.826   4.531   1.668 -1.5152 -0.6177  0.3328
 1006MOL0     C35721   6.890   4.580   1.544  0.5283  0.2161 -0.0386
 1006MOL0     O35722   7.044   4.926   1.447  0.7757 -0.3049  0.8416
 1006MOL0     C35723   7.081   5.036   1.209  0.9508  0.1189  0.2674
 1006MOL0     C35724   7.136   5.070   1.086 -0.7139 -1.0022 -0.3368
 1006MOL0     N35725   6.927   5.226   0.381  0.0651  0.3261 -0.0125
 1006MOL0     N35726   6.827   5.186   0.311 -0.1573 -0.5990 -0.0427
 1006MOL0     C35727   6.215   4.242   0.251 -0.5203  0.6934 -0.7540
 1006MOL0     C35728   6.196   4.113   0.311  0.6819 -0.3924 -0.6454
 1006MOL0     C35729   6.374   3.722   0.465  0.6035 -0.3790 -0.0469
 1006MOL0     C35730   6.506   3.683   0.482  0.0571  0.2958  0.0497
 1006MOL0     C35731   6.542   3.559   0.521 -0.8978  0.5696 -0.0251
 1006MOL0     C35732   6.440   3.469   0.556 -0.0968  0.9001  0.7699
 1006MOL0     O35733   6.453   3.340   0.595  1.1529  0.0218  0.4435
 1006MOL0     C35734   6.570   3.271   0.547  0.3070  0.5299  0.5482
 1006MOL0     C35735   6.569   3.145   0.638  0.1571  0.3297 -0.0829
 1006MOL0     C35736   6.709   3.100   0.664  0.8372 -0.4607  0.2751
 1006MOL0     C35737   6.764   3.176   0.787  0.2880 -0.6498 -0.4905
 1006MOL0     C35738   6.847   3.285   0.740 -0.1519  0.5833  0.7096
 1006MOL0     C35739   6.912   3.380   0.714 -0.4378  0.3269 -0.2418
 1006MOL0     C35740   6.303   3.508   0.547 -0.4442 -0.2048 -0.2914
 1006MOL0     C35741   6.273   3.633   0.493 -0.1745 -0.2382 -0.0620
 1006MOL0     C35742   6.133   3.652   0.461  0.0283 -0.5925  0.3230
 1006MOL0     H35743   6.437   4.108   0.546 -1.1338 -3.1942 -1.3286
 1006MOL0     H35744   6.506   4.328   0.411 -0.9780  1.3556 -3.7665
 1006MOL0     H35745   6.412   4.328   0.045 -0.5752 -0.1826  0.5514
 1006MOL0     H35746   6.268   4.428   0.039  0.2163 -1.1215 -1.1913
 1006MOL0     H35747   6.410   4.628   0.101 -0.6185  1.1416 -0.3237
 1006MOL0     H35748   6.420   4.565  -0.070  0.2754 -3.3388 -0.6044
 1006MOL0     H35749   6.600   4.402   0.014  1.0530 -0.4084  1.2475
 1006MOL0     H35750   6.629   4.499   0.147  3.0086 -3.9695 -1.9969
 1006MOL0     H35751   6.759   4.517  -0.084  1.4604  2.8450 -2.9511
 1006MOL0     H35752   6.617   4.629  -0.127 -0.8331 -1.1629  0.2914
 1006MOL0     H35753   6.821   4.629   0.113  0.5534  0.0480  0.9041
 1006MOL0     H35754   6.842   4.713  -0.039 -2.0129  0.6572 -0.2503
 1006MOL0     H35755   6.628   4.846   0.017 -0.6040 -1.2464 -0.5233
 1006MOL0     H35756   6.605   4.749   0.156  0.8345  0.4787  0.4414
 1006MOL0     H35757   6.834   4.934   0.078 -0.7517  1.9942  1.2772
 1006MOL0     H35758   6.868   4.837   0.214  2.0814  2.0851 -0.7968
 1006MOL0     H35759   6.664   5.049   0.187 -0.1075 -0.3450  0.3707
 1006MOL0     H35760   6.645   4.926   0.317 -2.2480 -1.6653 -2.9718
 1006MOL0     H35761   6.876   4.907   0.457 -1.4656  0.1993 -1.0130
 1006MOL0     H35762   7.110   5.219   0.571 -0.2008  0.3021 -0.7785
 1006MOL0     H35763   7.020   5.096   0.655 -1.5540 -0.3016 -0.5938
 1006MOL0     H35764   7.121   4.921   0.535 -2.5780  2.2311 -0.1303
 1006MOL0     H35765   7.226   5.027   0.433 -1.9650 -2.3984 -2.3491
 1006MOL0     H35766   7.316   5.113   0.653  0.5614 -0.1218  0.4637
 1006MOL0     H35767   7.365   4.958   0.597  1.4373 -0.0469  2.9490
 1006MOL0     H35768   7.325   4.915   0.839 -0.0046 -6.1832 -1.1521
 1006MOL0     H35769   7.196   4.850   0.742 -1.6858  1.5327 -3.9639
 1006MOL0     H35770   7.094   4.784   0.907 -4.5291 -1.1776 -0.2488
 1006MOL0     H35771   7.008   4.705   1.142 -2.6057 -0.1381 -4.0007
 1006MOL0     H35772   6.792   4.897   1.564 -3.0457  0.3771  1.0011
 1006MOL0     H35773   6.717   4.833   1.783  0.2637 -1.1367  1.6939
 1006MOL0     H35774   6.661   4.413   1.816 -2.0720  2.1253 -0.5509
 1006MOL0     H35775   6.763   4.426   1.965  2.4858 -0.5427 -1.3703
 1006MOL0     H35776   6.485   4.570   1.940 -3.9471 -2.0913  0.0650
 1006MOL0     H35777   6.488   4.406   1.938 -1.9983  2.3523  0.2166
 1006MOL0     H35778   6.609   4.411   2.167  0.5846  0.8391 -0.6789
 1006MOL0     H35779   6.614   4.585   2.153  0.3460 -1.2155  0.6169
 1006MOL0     H35780   6.347   4.454   2.141 -0.6043  0.1184 -0.0558
 1006MOL0     H35781   6.380   4.629   2.158  3.0305  1.1003 -1.5768
 1006MOL0     H35782   6.436   4.399   2.358 -0.0244 -0.1950 -3.1800
 1006MOL0     H35783   6.317   4.520   2.390  0.7970  0.3957  1.4600
 1006MOL0     H35784   6.621   4.542   2.429 -0.1369 -0.2260  2.0916
 1006MOL0     H35785   6.528   4.691   2.371  3.6670  1.8099  2.8894
 1006MOL0     H35786   6.368   4.678   2.547  0.2573 -0.8163  1.4780
 1006MOL0     H35787   6.518   4.720   2.591 -2.5638  2.0397 -1.2903
 1006MOL0     H35788   6.408   4.516   2.740 -2.4296 -2.7355 -1.0348
 1006MOL0     H35789   6.428   4.416   2.600  3.1091 -0.8657 -1.7538
 1006MOL0     H35790   6.836   4.424   1.682 -2.2801 -0.9134 -1.1848
 1006MOL0     H35791   6.953   4.517   1.481  2.0827 -0.2362  1.8753
 1006MOL0     H35792   7.080   5.115   1.283 -1.2179 -0.3028  0.7619
 1006MOL0     H35793   7.189   5.163   1.069  1.1456 -0.6092  5.4228
 1006MOL0     H35794   6.152   4.254   0.164  0.2924 -1.1984 -1.6644
 1006MOL0     H35795   6.122   4.045   0.270 -0.4895 -0.0466  0.7732
 1006MOL0     H35796   6.582   3.754   0.452  0.6477 -0.2846  0.1383
 1006MOL0     H35797   6.644   3.525   0.535 -0.2742  1.8164 -1.2689
 1006MOL0     H35798   6.660   3.332   0.566  1.1801  0.1465 -1.9496
 1006MOL0     H35799   6.568   3.247   0.441 -0.4581  2.6495  0.0189
 1006MOL0     H35800   6.515   3.062   0.591  0.0358 -1.3797  2.8223
 1006MOL0     H35801   6.532   3.167   0.738  1.9907 -3.5955  1.6952
 1006MOL0     H35802   6.751   3.109   0.563 -6.0740  0.4012 -3.0798
 1006MOL0     H35803   6.705   2.994   0.691 -1.4558 -0.8827 -1.4466
 1006MOL0     H35804   6.689   3.215   0.856 -0.5153 -2.0698 -0.5082
 1006MOL0     H35805   6.830   3.117   0.852  2.0696  2.2900  0.5529
 1006MOL0     H35806   6.981   3.458   0.689  1.2723 -0.8831  0.5499
 1006MOL0     H35807   6.226   3.433   0.564 -0.6881 -0.1343 -1.0392
 1006MOL0     H35808   6.065   3.584   0.513 -1.0650  1.1411  1.2630
 1006MOL0     H35809   6.115   3.747   0.511  0.7547 -1.2466  1.8973
 1006MOL0     H35810   6.103   3.659   0.356 -0.0087  0.1433  0.3815
 1007MOL0     O35811   2.652   1.094  11.153  0.2724  0.6733 -0.2363
 1007MOL0     C35812   2.706   0.989  11.183  1.0838 -0.0838  1.2416
 1007MOL0     O35813   2.664   0.863  11.136  0.3779  0.5511 -0.4894
 1007MOL0     C35814   2.609   0.860  11.004 -1.1437 -1.2212  0.4219
 1007MOL0     C35815   2.678   0.940  10.907 -0.4819  0.4773  1.2711
 1007MOL0     C35816   2.638   0.963  10.771 -0.6609  0.5910 -0.2841
 1007MOL0     C35817   2.527   0.902  10.726 -0.3022 -0.4935 -0.1075
 1007MOL0     O35818   2.488   0.909  10.602  0.3091  1.0618  0.3580
 1007MOL0     C35819   2.399   0.819  10.546 -0.1424  0.4613  0.4519
 1007MOL0     C35820   2.466   0.754  10.423  0.6660 -0.6448 -0.0072
 1007MOL0     C35821   2.382   0.639  10.356 -0.6014 -0.5693 -0.6882
 1007MOL0     C35822   2.321   0.684  10.225 -0.2552  0.1775  0.9319
 1007MOL0     C35823   2.222   0.582  10.166 -0.6601  0.6476 -0.6202
 1007MOL0     C35824   2.175   0.599  10.022  0.2177 -0.3502 -0.1470
 1007MOL0     C35825   2.290   0.592   9.921  0.8932 -0.2564 -0.0594
 1007MOL0     C35826   2.393   0.475   9.928 -0.1075 -0.0223 -0.5137
 1007MOL0     N35827   2.326   0.347   9.900  0.4817  0.2989 -0.9181
 1007MOL0     C35828   2.342   0.260   9.802 -0.2653 -0.2636 -0.0650
 1007MOL0     C35829   2.269   0.151   9.849  0.8629  0.6082 -0.5942
 1007MOL0     C35830   2.255   0.019   9.781  0.2929  0.6706 -0.2374
 1007MOL0     C35831   2.132   0.016   9.695  0.7910  0.4019 -0.0005
 1007MOL0     C35832   2.157   0.097   9.555 -0.0475 -0.3729 -0.5397
 1007MOL0     C35833   2.185  -0.013   9.449  0.2108 -0.0587 -0.1270
 1007MOL0     O35834   2.330  -0.024   9.452 -0.0982  0.3014 -0.4586
 1007MOL0     C35835   2.408  -0.076   9.350  0.2700 -1.1496 -0.3460
 1007MOL0     C35836   2.335  -0.142   9.255 -0.0995  0.3807  0.4550
 1007MOL0     C35837   2.397  -0.222   9.161  0.7458  0.0232 -0.2647
 1007MOL0     C35838   2.535  -0.239   9.152 -0.6636 -0.2473  0.0205
 1007MOL0     C35839   2.602  -0.310   9.046 -0.0754 -0.0658 -0.5419
 1007MOL0     O35840   2.544  -0.314   8.929 -0.8202 -0.7246 -0.7457
 1007MOL0     C35841   2.596  -0.383   8.824  0.7763  1.0959  0.4335
 1007MOL0     C35842   2.633  -0.518   8.828 -0.1406 -0.4886 -0.9667
 1007MOL0     C35843   2.656  -0.584   8.705  0.3552  0.5009  0.4134
 1007MOL0     C35844   2.656  -0.519   8.582 -0.6946  0.9543  1.0111
 1007MOL0     O35845   2.688  -0.578   8.460  0.7998 -0.6097 -0.0680
 1007MOL0     C35846   2.677  -0.718   8.447  0.1308 -0.4332 -0.0963
 1007MOL0     C35847   2.723  -0.756   8.302 -1.5344 -0.2167  0.0398
 1007MOL0     C35848   2.718  -0.904   8.277  0.7807 -0.6251  0.9840
 1007MOL0     C35849   2.785  -0.937   8.140 -0.8120  1.1156  0.3700
 1007MOL0     C35850   2.838  -1.080   8.123  0.2202 -0.0373 -0.2533
 1007MOL0     C35851   2.739  -1.189   8.164  0.6825  0.6701 -0.0815
 1007MOL0     C35852   2.802  -1.319   8.134 -0.3484 -0.1278  0.1546
 1007MOL0     C35853   2.717  -1.433   8.207 -0.7827 -0.3345  0.8266
 1007MOL0    Cl35854   2.558  -1.434   8.140 -0.2997 -0.4159  0.0710
 1007MOL0     C35855   2.616  -0.400   8.585 -0.0331 -1.0606 -0.2265
 1007MOL0     C35856   2.577  -0.323   8.698  0.7288 -0.5036 -0.1397
 1007MOL0     O35857   2.715  -0.354   9.065 -0.3548 -0.0001 -0.3702
 1007MOL0     C35858   2.614  -0.163   9.246 -0.7334 -0.3137 -0.6280
 1007MOL0     C35859   2.546  -0.090   9.344 -0.4385  1.0151 -0.0165
 1007MOL0     N35860   2.228   0.170   9.980 -0.1061  1.0572  0.0727
 1007MOL0     N35861   2.262   0.288  10.005 -0.3393  0.1432  0.2094
 1007MOL0     C35862   2.457   0.826  10.823 -0.2975  0.0330  0.2919
 1007MOL0     C35863   2.503   0.787  10.953 -0.0864  1.1275  0.0278
 1007MOL0     C35864   2.827   0.992  11.256 -0.9365  0.3498 -0.4432
 1007MOL0     C35865   2.845   0.871  11.336  1.1069 -0.1059  0.6038
 1007MOL0     C35866   2.938   0.853  11.427 -0.7532 -0.6933 -0.0083
 1007MOL0     C35867   3.039   0.953  11.431  0.5230  0.4957  0.4349
 1007MOL0     O35868   3.152   0.957  11.514  0.5640  0.1654 -0.1723
 1007MOL0     C35869   3.168   0.883  11.637  0.0089 -1.1297  0.7928
 1007MOL0     C35870   3.248   0.980  11.731  0.1217  0.3143  0.6391
 1007MOL0     C35871   3.378   1.035  11.664 -0.1276 -0.1292 -0.3003
 1007MOL0     C35872   3.487   0.919  11.627  0.8061 -0.5357  0.0512
 1007MOL0     C35873   3.483   0.807  11.729 -0.5973 -0.6178 -0.5399
 1007MOL0     C35874   3.491   0.717  11.808  0.4866  0.3855  0.2252
 1007MOL0     C35875   3.034   1.063  11.349 -0.8288 -1.2498  0.5071
 1007MOL0     C35876   2.919   1.092  11.267 -0.2744 -0.3340 -0.6731
 1007MOL0     C35877   2.905   1.229  11.202 -0.1247  0.1443  0.5164
 1007MOL0     H35878   2.757   1.011  10.925 -1.2396  1.9591 -0.8400
 1007MOL0     H35879   2.695   1.012  10.692  3.6933 -2.2159  0.7875
 1007MOL0     H35880   2.373   0.742  10.619  1.2614  1.0555  1.6334
 1007MOL0     H35881   2.307   0.866  10.511 -0.1012  0.4054  0.2691
 1007MOL0     H35882   2.555   0.714  10.473 -0.1064 -0.2854  1.7070
 1007MOL0     H35883   2.505   0.822  10.346  3.2233  0.6099  2.2148
 1007MOL0     H35884   2.302   0.587  10.410  0.1784  0.7395  1.9372
 1007MOL0     H35885   2.461   0.566  10.338  2.5841  2.5023 -0.3705
 1007MOL0     H35886   2.272   0.781  10.232 -0.2378  0.1610  1.3002
 1007MOL0     H35887   2.410   0.701  10.164 -0.7601 -0.7728 -0.1105
 1007MOL0     H35888   2.265   0.482  10.176 -3.4782 -0.4502  4.4629
 1007MOL0     H35889   2.132   0.565  10.226  0.9703 -1.7473  1.3778
 1007MOL0     H35890   2.098   0.525   9.999 -3.6821  2.6974  1.7566
 1007MOL0     H35891   2.132   0.697  10.001  2.6792  0.5520 -1.4138
 1007MOL0     H35892   2.336   0.690   9.902  1.6569 -0.9117 -1.8912
 1007MOL0     H35893   2.248   0.577   9.821  2.6529  0.2378 -0.9033
 1007MOL0     H35894   2.459   0.497   9.843  2.5805 -2.3197  0.8027
 1007MOL0     H35895   2.444   0.463  10.024 -0.4175 -2.5708 -0.5884
 1007MOL0     H35896   2.394   0.255   9.707  0.9675 -1.7856  0.6389
 1007MOL0     H35897   2.352   0.001   9.734  1.0409  2.9464  0.2866
 1007MOL0     H35898   2.249  -0.063   9.853  0.2766 -1.7158 -2.7969
 1007MOL0     H35899   2.092  -0.085   9.679 -2.0010  1.4007  0.2103
 1007MOL0     H35900   2.047   0.053   9.752 -0.0568 -1.9699  0.3978
 1007MOL0     H35901   2.238   0.169   9.567  0.3386 -1.2830  4.4177
 1007MOL0     H35902   2.069   0.155   9.529  1.5104  1.5626 -1.7959
 1007MOL0     H35903   2.167   0.025   9.348 -0.4224 -1.8749 -0.7472
 1007MOL0     H35904   2.119  -0.097   9.472 -3.3818  2.9328  1.5686
 1007MOL0     H35905   2.229  -0.123   9.245 -0.1928 -0.7102 -0.8703
 1007MOL0     H35906   2.332  -0.254   9.080  4.7108  1.7456 -4.5594
 1007MOL0     H35907   2.646  -0.576   8.919  1.4214 -0.0049 -0.8395
 1007MOL0     H35908   2.680  -0.689   8.717 -3.1688 -0.7273 -1.6071
 1007MOL0     H35909   2.740  -0.770   8.519  0.0062 -0.8240 -0.2699
 1007MOL0     H35910   2.570  -0.738   8.460 -0.2965  1.5835 -0.0681
 1007MOL0     H35911   2.678  -0.701   8.219  1.6466  2.5130 -0.0856
 1007MOL0     H35912   2.827  -0.723   8.298 -1.3628 -0.3505  2.3568
 1007MOL0     H35913   2.769  -0.956   8.358  1.9548 -0.5012  0.3481
 1007MOL0     H35914   2.612  -0.931   8.274  0.0971  1.6460  1.9207
 1007MOL0     H35915   2.873  -0.874   8.122 -0.0482 -0.2540 -0.8914
 1007MOL0     H35916   2.706  -0.933   8.065  0.1107 -1.0165 -0.7917
 1007MOL0     H35917   2.929  -1.076   8.183  0.3233 -4.0619  0.1284
 1007MOL0     H35918   2.871  -1.091   8.019 -2.6562  1.0924 -1.3852
 1007MOL0     H35919   2.715  -1.177   8.269 -0.7368 -0.1193 -0.2923
 1007MOL0     H35920   2.660  -1.177   8.090  1.1643  0.0451 -0.7177
 1007MOL0     H35921   2.903  -1.326   8.175 -1.3863 -1.0585  2.8425
 1007MOL0     H35922   2.805  -1.334   8.026  3.4365  1.3386 -0.1108
 1007MOL0     H35923   2.761  -1.531   8.185 -0.5370 -0.4201  1.6529
 1007MOL0     H35924   2.723  -1.418   8.316  1.2447  1.2196  0.5651
 1007MOL0     H35925   2.631  -0.349   8.490 -1.3432  0.8070  0.5141
 1007MOL0     H35926   2.539  -0.222   8.683 -1.7086 -1.5428 -1.5018
 1007MOL0     H35927   2.721  -0.147   9.245 -1.0650  2.1654 -1.2368
 1007MOL0     H35928   2.605  -0.047   9.425 -0.2311 -0.3498  0.5887
 1007MOL0     H35929   2.359   0.786  10.803  1.0223 -3.9411  0.9800
 1007MOL0     H35930   2.454   0.710  11.012  2.6454 -0.5592  0.2633
 1007MOL0     H35931   2.767   0.795  11.345  3.2010 -2.1608  2.7039
 1007MOL0     H35932   2.937   0.770  11.497 -1.6567  0.3375  1.2630
 1007MOL0     H35933   3.226   0.791  11.622  1.0683 -0.5135  1.0074
 1007MOL0     H35934   3.074   0.848  11.679 -2.8640  0.6844 -3.4862
 1007MOL0     H35935   3.271   0.928  11.824  0.7105 -2.5299 -0.9695
 1007MOL0     H35936   3.181   1.064  11.747  1.2583  1.0959  1.4099
 1007MOL0     H35937   3.419   1.110  11.731 -2.3103  0.4615  0.4526
 1007MOL0     H35938   3.345   1.099  11.582 -1.9272 -0.0020  0.4802
 1007MOL0     H35939   3.468   0.870  11.531 -0.6544 -0.3441  0.2157
 1007MOL0     H35940   3.584   0.968  11.618  1.2077 -0.5800  3.1398
 1007MOL0     H35941   3.485   0.647  11.888  1.5996 -1.7671 -1.4769
 1007MOL0     H35942   3.116   1.134  11.358 -2.7121  1.6343 -2.6798
 1007MOL0     H35943   2.856   1.297  11.273 -0.3985  1.4562 -0.8916
 1007MOL0     H35944   3.005   1.273  11.198 -0.1047  0.2576  1.8629
 1007MOL0     H35945   2.860   1.240  11.103  1.2409  1.5198  0.0004
 1008MOL0     O35946   0.468   2.834   0.007  0.3666  0.2221  0.3406
 1008MOL0     C35947   0.570   2.808  -0.055 -0.5956 -0.5467 -0.0754
 1008MOL0     O35948   0.599   2.688  -0.117  1.1912  0.5471  1.0564
 1008MOL0     C35949   0.493   2.605  -0.118 -0.0021 -1.2229  0.3471
 1008MOL0     C35950   0.497   2.494  -0.037 -0.3167 -0.9726 -0.0829
 1008MOL0     C35951   0.385   2.408  -0.024  0.7495 -0.5765  0.1114
 1008MOL0     C35952   0.262   2.437  -0.100  0.4083 -0.7099  0.3948
 1008MOL0     O35953   0.142   2.358  -0.091  0.2461  0.6816 -0.7391
 1008MOL0     C35954   0.126   2.267   0.019  0.0174  0.6698  0.2997
 1008MOL0     C35955  -0.023   2.225   0.007  0.9694  0.3131 -0.3723
 1008MOL0     C35956  -0.073   2.160   0.135 -0.1626  0.1096 -0.1101
 1008MOL0     C35957  -0.221   2.135   0.136  0.5965 -0.8596  0.1249
 1008MOL0     C35958  -0.307   2.258   0.180  0.6025 -0.3172  0.3671
 1008MOL0     C35959  -0.459   2.238   0.163 -0.1975  0.5433 -0.4567
 1008MOL0     C35960  -0.516   2.180   0.290 -0.2641  0.4586  0.3774
 1008MOL0     C35961  -0.650   2.109   0.274 -0.3933 -1.0276 -0.1582
 1008MOL0     N35962  -0.684   2.030   0.391 -0.3063 -0.2552 -0.0370
 1008MOL0     C35963  -0.634   2.028   0.519 -0.0204 -0.5901  0.3494
 1008MOL0     C35964  -0.727   1.949   0.590 -0.1549 -0.5735 -0.0189
 1008MOL0     C35965  -0.707   1.908   0.733 -0.2363  0.3639 -0.1316
 1008MOL0     C35966  -0.844   1.855   0.786 -0.1213  0.1383  0.0609
 1008MOL0     C35967  -0.813   1.762   0.906  0.3558 -0.1654 -0.3714
 1008MOL0     C35968  -0.743   1.824   1.036  0.4903  0.8980  0.4713
 1008MOL0     O35969  -0.728   1.721   1.127  0.1743  0.5031 -0.6724
 1008MOL0     C35970  -0.800   1.728   1.244  0.0045  0.5640 -0.9828
 1008MOL0     C35971  -0.862   1.611   1.299 -0.6124 -0.0122 -0.7259
 1008MOL0     C35972  -0.941   1.622   1.418 -0.4646 -0.3204 -0.3823
 1008MOL0     C35973  -0.940   1.743   1.490  0.2732  0.3437  0.2236
 1008MOL0     C35974  -1.007   1.749   1.618  0.2916  0.2946  0.2671
 1008MOL0     O35975  -0.968   1.844   1.706  0.3186  0.5088 -0.2523
 1008MOL0     C35976  -0.998   1.829   1.829  0.2627 -0.5391  0.6159
 1008MOL0     C35977  -1.015   1.709   1.902  0.4217 -0.1805  0.3255
 1008MOL0     C35978  -1.054   1.709   2.040 -1.0631 -0.3790 -0.4656
 1008MOL0     C35979  -1.065   1.835   2.105  0.8076 -0.2919  0.2378
 1008MOL0     O35980  -1.108   1.816   2.240  0.3087 -0.4320 -0.0832
 1008MOL0     C35981  -1.229   1.889   2.266 -0.0375  0.2721 -0.2355
 1008MOL0     C35982  -1.291   1.814   2.385 -0.7762 -0.0606 -0.8072
 1008MOL0     C35983  -1.226   1.833   2.516  0.1641  0.5045 -0.1414
 1008MOL0     C35984  -1.257   1.729   2.620  0.2356  0.0497 -0.6612
 1008MOL0     C35985  -1.150   1.744   2.731  0.0365 -0.1245 -0.2378
 1008MOL0     C35986  -1.203   1.688   2.863  0.2795  0.6065 -0.3028
 1008MOL0     C35987  -1.274   1.549   2.845  0.8016 -0.2352  0.5314
 1008MOL0     C35988  -1.269   1.484   2.979  0.4768 -0.2625 -0.6310
 1008MOL0    Cl35989  -1.374   1.568   3.103 -0.1789 -0.1161 -0.1969
 1008MOL0     C35990  -1.037   1.946   2.035  0.8569 -0.0571  0.0114
 1008MOL0     C35991  -1.006   1.947   1.901 -1.1328  0.0709  0.7990
 1008MOL0     O35992  -1.098   1.679   1.624  0.8028  0.7618  0.2118
 1008MOL0     C35993  -0.887   1.858   1.433  1.1655  0.0969 -0.3361
 1008MOL0     C35994  -0.814   1.854   1.317  0.1408 -0.8888 -0.3667
 1008MOL0     N35995  -0.831   1.921   0.506  0.3286 -0.8814  0.2324
 1008MOL0     N35996  -0.804   1.974   0.393  1.0120  0.3831 -0.6119
 1008MOL0     C35997   0.262   2.543  -0.183  0.8704 -0.8787 -0.2306
 1008MOL0     C35998   0.381   2.622  -0.197 -0.1279  0.4372  0.2668
 1008MOL0     C35999   0.685   2.897  -0.080 -0.6330  0.1338 -0.3481
 1008MOL0     C36000   0.739   2.911  -0.210 -0.3659 -0.2454  0.9140
 1008MOL0     C36001   0.846   3.002  -0.235 -0.8010  0.2375  1.0794
 1008MOL0     C36002   0.905   3.072  -0.137 -0.1611  0.2697 -0.0617
 1008MOL0     O36003   1.019   3.142  -0.156  0.1354  0.4632  0.5221
 1008MOL0     C36004   1.126   3.116  -0.063 -1.3321  0.7601  0.9309
 1008MOL0     C36005   1.259   3.161  -0.125  0.3535 -0.8603  0.8207
 1008MOL0     C36006   1.275   3.313  -0.136  0.7412 -0.8747  1.6727
 1008MOL0     C36007   1.372   3.383  -0.040  0.4529  0.2275 -0.1382
 1008MOL0     C36008   1.299   3.426   0.078  0.9253 -0.2995 -0.5778
 1008MOL0     C36009   1.243   3.447   0.184 -0.2454  0.6112 -0.6165
 1008MOL0     C36010   0.845   3.058  -0.011  0.1727 -0.1626 -0.1853
 1008MOL0     C36011   0.746   2.975   0.022  0.2195  0.6563  0.3752
 1008MOL0     C36012   0.691   2.980   0.166 -0.8032 -0.4810  0.7797
 1008MOL0     H36013   0.587   2.480   0.022 -0.6035  1.1711  0.9677
 1008MOL0     H36014   0.400   2.324   0.043  0.8285 -2.0847 -1.7109
 1008MOL0     H36015   0.192   2.180   0.008 -0.9072  0.1901 -1.7314
 1008MOL0     H36016   0.150   2.319   0.113  0.3652  0.8799  0.0994
 1008MOL0     H36017  -0.052   2.159  -0.075 -2.3356 -0.7426  1.4305
 1008MOL0     H36018  -0.082   2.317  -0.000  0.1926  0.1128  2.2112
 1008MOL0     H36019  -0.045   2.217   0.224 -0.4245 -0.0584  0.0810
 1008MOL0     H36020  -0.017   2.067   0.130 -1.3708 -0.5773 -1.8710
 1008MOL0     H36021  -0.258   2.106   0.037 -1.6667  2.3858 -0.1668
 1008MOL0     H36022  -0.247   2.048   0.196 -0.4722 -1.5204 -1.2386
 1008MOL0     H36023  -0.286   2.262   0.287  1.4108 -1.7404  0.2892
 1008MOL0     H36024  -0.274   2.352   0.136  1.3075 -1.0002 -0.5970
 1008MOL0     H36025  -0.509   2.323   0.115 -1.0389  0.8779  0.9668
 1008MOL0     H36026  -0.474   2.151   0.099 -2.1540 -1.8752  2.9805
 1008MOL0     H36027  -0.534   2.271   0.347 -4.5788  0.4057 -0.4921
 1008MOL0     H36028  -0.448   2.113   0.343  1.8070  0.6947 -1.7997
 1008MOL0     H36029  -0.715   2.196   0.259  0.3280 -0.5478 -0.6411
 1008MOL0     H36030  -0.658   2.047   0.184 -0.2491 -0.6566 -0.4323
 1008MOL0     H36031  -0.543   2.069   0.561  0.2689  0.9360 -1.6093
 1008MOL0     H36032  -0.631   1.831   0.741  1.9214  2.3637 -0.4897
 1008MOL0     H36033  -0.660   1.990   0.788  2.9218 -2.1103  1.1378
 1008MOL0     H36034  -0.903   1.940   0.821  1.3609  1.9392 -1.5892
 1008MOL0     H36035  -0.906   1.798   0.717 -0.7815 -2.2016  2.4138
 1008MOL0     H36036  -0.754   1.677   0.871  1.0951 -0.7680  2.0975
 1008MOL0     H36037  -0.907   1.724   0.949  0.1734 -0.7415 -1.2508
 1008MOL0     H36038  -0.819   1.899   1.061  2.3646  2.3586  2.0492
 1008MOL0     H36039  -0.651   1.883   1.029  1.1656  0.1792  2.4559
 1008MOL0     H36040  -0.849   1.510   1.261 -2.8000 -0.2110 -1.0834
 1008MOL0     H36041  -0.971   1.524   1.454 -0.3106 -0.7654 -1.4277
 1008MOL0     H36042  -0.996   1.618   1.845  0.9579  0.6481 -0.8705
 1008MOL0     H36043  -1.079   1.621   2.099  0.7782  0.9460  2.4956
 1008MOL0     H36044  -1.198   1.990   2.294  0.5780 -0.1019  0.4694
 1008MOL0     H36045  -1.292   1.899   2.177  3.2903  0.2670 -2.8083
 1008MOL0     H36046  -1.393   1.852   2.394 -0.7227  0.1461 -1.0433
 1008MOL0     H36047  -1.298   1.706   2.365  2.2713 -0.4832 -0.0221
 1008MOL0     H36048  -1.117   1.823   2.515  0.3900  2.3085  1.0692
 1008MOL0     H36049  -1.251   1.930   2.560 -0.2192 -0.2355  1.3520
 1008MOL0     H36050  -1.257   1.625   2.586 -0.5307 -1.4889  3.4187
 1008MOL0     H36051  -1.356   1.745   2.662  0.4379  0.8100 -0.4524
 1008MOL0     H36052  -1.100   1.841   2.731  2.9584 -1.5226  0.4541
 1008MOL0     H36053  -1.064   1.680   2.710  0.3856  0.2319  0.0751
 1008MOL0     H36054  -1.117   1.686   2.929  1.9971  2.5448 -2.3247
 1008MOL0     H36055  -1.280   1.757   2.900  0.4387  0.1321  0.9703
 1008MOL0     H36056  -1.234   1.481   2.770 -1.9024 -1.6829  0.2678
 1008MOL0     H36057  -1.376   1.573   2.814  1.9678  2.4982 -1.6240
 1008MOL0     H36058  -1.310   1.387   2.950  2.0024 -1.3236  0.5641
 1008MOL0     H36059  -1.168   1.466   3.018  0.7125  1.1880 -0.5443
 1008MOL0     H36060  -1.041   2.038   2.093  1.4725 -1.0731  1.7528
 1008MOL0     H36061  -0.995   2.041   1.849  3.2614 -0.8308 -0.2739
 1008MOL0     H36062  -0.901   1.951   1.488  3.1490  0.0396  0.3615
 1008MOL0     H36063  -0.782   1.948   1.274  0.6525 -1.3719 -1.0872
 1008MOL0     H36064   0.175   2.562  -0.247  2.0369  2.9004 -0.9546
 1008MOL0     H36065   0.382   2.712  -0.258 -0.7759  0.2983  0.0421
 1008MOL0     H36066   0.684   2.874  -0.296  3.7601  0.0353 -2.1423
 1008MOL0     H36067   0.884   2.996  -0.337  1.7322  0.1837  1.9565
 1008MOL0     H36068   1.126   3.011  -0.034  0.9600 -0.8643 -3.9809
 1008MOL0     H36069   1.110   3.179   0.025 -4.4066  1.1690  0.2102
 1008MOL0     H36070   1.248   3.111  -0.221 -4.0139 -0.7199  1.0514
 1008MOL0     H36071   1.331   3.112  -0.059  0.6157 -1.5753  0.0237
 1008MOL0     H36072   1.180   3.367  -0.130  1.9251  1.5320  0.3204
 1008MOL0     H36073   1.316   3.332  -0.235  0.2145  0.0910  1.6301
 1008MOL0     H36074   1.445   3.308  -0.008 -0.6032 -0.7313  0.0779
 1008MOL0     H36075   1.424   3.465  -0.090 -1.2578  0.6662 -1.3097
 1008MOL0     H36076   1.191   3.471   0.274  0.5450 -0.4507  0.1471
 1008MOL0     H36077   0.895   3.123   0.061 -0.2708  1.5489 -1.3662
 1008MOL0     H36078   0.582   2.983   0.164 -0.7942 -0.4078 -0.5632
 1008MOL0     H36079   0.738   2.902   0.226  1.7440  1.4987  1.5235
 1008MOL0     H36080   0.720   3.075   0.211 -1.1712 -1.2540  2.7184
 1009MOL0     O36081   1.737   9.971   6.399  0.1759  0.1242  0.3685
 1009MOL0     C36082   1.739  10.065   6.326  0.4991 -0.2741 -0.5256
 1009MOL0     O36083   1.636  10.117   6.260  0.5282 -0.3138 -0.4523
 1009MOL0     C36084   1.512  10.105   6.325 -0.0988 -0.3799  0.4777
 1009MOL0     C36085   1.487  10.191   6.439  0.3131  0.9884  0.2449
 1009MOL0     C36086   1.376  10.165   6.506  0.0799 -0.5130  1.0085
 1009MOL0     C36087   1.276  10.073   6.460 -0.5393 -0.5558 -0.5655
 1009MOL0     O36088   1.151  10.066   6.522 -0.7158 -0.4780  0.0351
 1009MOL0     C36089   1.155  10.098   6.666  0.3209 -0.3886  0.8994
 1009MOL0     C36090   1.018  10.058   6.742  0.1454  0.0527 -0.9630
 1009MOL0     C36091   0.936   9.937   6.680  0.3643  0.7090  0.2815
 1009MOL0     C36092   0.796   9.916   6.734  0.1215  0.4720  0.1605
 1009MOL0     C36093   0.738   9.775   6.760  0.1528 -0.1665 -1.2760
 1009MOL0     C36094   0.721   9.690   6.641 -0.6132  0.0382  0.1303
 1009MOL0     C36095   0.580   9.688   6.574  0.5478 -0.2737 -1.0396
 1009MOL0     C36096   0.574   9.594   6.448 -0.0370  0.0042 -0.0971
 1009MOL0     N36097   0.450   9.596   6.362  0.3104  0.2332  0.0247
 1009MOL0     C36098   0.421   9.677   6.253  0.1440  0.5322 -0.5296
 1009MOL0     C36099   0.295   9.646   6.220 -0.5629  0.1450  0.7212
 1009MOL0     C36100   0.208   9.703   6.109 -0.2101  0.4471 -0.2062
 1009MOL0     C36101   0.253   9.684   5.957  0.1803 -0.6504 -0.3103
 1009MOL0     C36102   0.234   9.541   5.915  0.2687 -0.1827 -0.6885
 1009MOL0     C36103   0.257   9.516   5.758  0.5719 -0.2172 -0.3089
 1009MOL0     O36104   0.388   9.555   5.714 -0.2584 -0.0696  1.3554
 1009MOL0     C36105   0.493   9.468   5.737 -1.1021  0.1856  0.4255
 1009MOL0     C36106   0.615   9.530   5.746 -0.8325  0.3666  0.5176
 1009MOL0     C36107   0.727   9.465   5.790  0.0799 -0.4533 -0.5249
 1009MOL0     C36108   0.730   9.333   5.820  1.2843  0.3986 -0.2848
 1009MOL0     C36109   0.854   9.267   5.871  0.4543 -0.2000 -0.8926
 1009MOL0     O36110   0.965   9.344   5.892  0.1472 -0.1476  0.1939
 1009MOL0     C36111   1.075   9.302   5.970  0.3767  0.0316  0.1002
 1009MOL0     C36112   1.070   9.242   6.095  0.6611  0.1083 -0.4132
 1009MOL0     C36113   1.186   9.209   6.171 -1.0575 -0.3213 -0.1449
 1009MOL0     C36114   1.312   9.232   6.122 -0.4225 -0.8365  0.7203
 1009MOL0     O36115   1.420   9.184   6.194 -0.3471  0.5047 -0.1794
 1009MOL0     C36116   1.526   9.122   6.125 -0.2964  0.3688 -0.0746
 1009MOL0     C36117   1.655   9.194   6.129  0.8498  0.6687 -0.1016
 1009MOL0     C36118   1.720   9.183   6.267  0.9286  0.4182  0.8436
 1009MOL0     C36119   1.844   9.092   6.284  0.1616  0.2409  0.1816
 1009MOL0     C36120   1.910   9.107   6.422  0.4933  0.2513 -0.1260
 1009MOL0     C36121   1.821   9.085   6.541  0.4786  0.3793  0.4641
 1009MOL0     C36122   1.896   9.061   6.674 -0.1854  0.6574 -0.2694
 1009MOL0     C36123   1.930   9.189   6.736 -0.0036 -0.8954 -0.7065
 1009MOL0    Cl36124   1.996   9.149   6.899  0.4186 -0.7035  0.1095
 1009MOL0     C36125   1.321   9.313   6.004  0.1942  0.7414  0.2569
 1009MOL0     C36126   1.203   9.357   5.936  0.2265  0.0070  0.4045
 1009MOL0     O36127   0.833   9.154   5.929  0.3088 -0.0181  0.2172
 1009MOL0     C36128   0.602   9.268   5.808 -0.4259  0.2771  0.5388
 1009MOL0     C36129   0.485   9.331   5.776  0.8537 -0.5455  0.5184
 1009MOL0     N36130   0.246   9.547   6.294 -0.3152 -0.0179  0.2672
 1009MOL0     N36131   0.339   9.518   6.380 -0.2752  0.2721  0.5637
 1009MOL0     C36132   1.302   9.990   6.354 -0.5037  0.6496  0.4395
 1009MOL0     C36133   1.414  10.020   6.274 -0.5723  0.2387 -0.1515
 1009MOL0     C36134   1.867  10.124   6.300 -0.8846 -0.4108 -0.6163
 1009MOL0     C36135   1.873  10.249   6.239  0.0062  0.5255  0.8300
 1009MOL0     C36136   1.984  10.302   6.184  0.4525  0.7308 -0.6573
 1009MOL0     C36137   2.106  10.224   6.179 -0.0500 -0.7443  1.1125
 1009MOL0     O36138   2.216  10.281   6.121 -0.6264  0.1506 -0.1081
 1009MOL0     C36139   2.215  10.272   5.972  0.4632 -0.4431  0.0475
 1009MOL0     C36140   2.346  10.302   5.901  0.5978  0.2060 -0.0023
 1009MOL0     C36141   2.326  10.298   5.745  0.0329 -0.2704 -0.5284
 1009MOL0     C36142   2.423  10.208   5.667  0.7209 -0.2580 -0.0252
 1009MOL0     C36143   2.403  10.062   5.708  0.4380 -0.7320  0.3370
 1009MOL0     C36144   2.390   9.958   5.758  1.0364 -0.1371  0.0025
 1009MOL0     C36145   2.103  10.100   6.248  0.5577  0.5846  0.0186
 1009MOL0     C36146   1.990  10.053   6.308  0.7055 -0.7655 -0.4272
 1009MOL0     C36147   1.995   9.918   6.362  0.0121  0.4823 -0.4024
 1009MOL0     H36148   1.563  10.262   6.469  0.8016 -0.4118  2.5901
 1009MOL0     H36149   1.351  10.233   6.587 -1.1317  2.8859 -1.9751
 1009MOL0     H36150   1.241  10.048   6.712 -1.5724 -2.2302  2.6273
 1009MOL0     H36151   1.151  10.208   6.659 -1.0401 -0.4922 -0.5423
 1009MOL0     H36152   0.960  10.151   6.737  1.7192  1.1198 -0.3926
 1009MOL0     H36153   1.043  10.057   6.848 -4.0491  0.8989  0.1901
 1009MOL0     H36154   0.992   9.844   6.685 -4.4181 -2.4899  1.1020
 1009MOL0     H36155   0.929   9.963   6.574  0.4375 -2.6798 -0.6760
 1009MOL0     H36156   0.794   9.964   6.832  1.0773 -2.4501  1.7288
 1009MOL0     H36157   0.726   9.963   6.664  1.6248 -0.6314 -2.2131
 1009MOL0     H36158   0.802   9.729   6.836  0.5920 -0.4546 -1.8151
 1009MOL0     H36159   0.639   9.780   6.808  0.9460  3.1470  0.3254
 1009MOL0     H36160   0.791   9.710   6.559  1.1210 -2.8005  0.7879
 1009MOL0     H36161   0.740   9.588   6.674 -3.2629 -0.5407  0.0360
 1009MOL0     H36162   0.550   9.791   6.550  1.3604  0.5281  1.1028
 1009MOL0     H36163   0.502   9.651   6.642 -0.9078  1.1212 -1.8678
 1009MOL0     H36164   0.667   9.604   6.392 -0.1128  0.7227 -0.1058
 1009MOL0     H36165   0.568   9.494   6.492 -1.4613 -0.1762 -0.6340
 1009MOL0     H36166   0.480   9.753   6.204 -0.6134 -0.8139 -3.7509
 1009MOL0     H36167   0.104   9.681   6.132 -0.2204  1.4144  0.7248
 1009MOL0     H36168   0.209   9.811   6.127  0.2522  0.7090 -1.6220
 1009MOL0     H36169   0.184   9.745   5.898  0.5513  2.3877  2.1515
 1009MOL0     H36170   0.350   9.728   5.933  0.3295 -0.0337  1.2637
 1009MOL0     H36171   0.127   9.524   5.934  0.2953 -3.7437 -2.8625
 1009MOL0     H36172   0.289   9.472   5.979  3.3627  0.5565 -2.3564
 1009MOL0     H36173   0.183   9.577   5.706 -0.2534 -0.8528  0.0999
 1009MOL0     H36174   0.247   9.409   5.735  0.3919 -0.4570  0.8388
 1009MOL0     H36175   0.626   9.635   5.722  1.6042 -0.1384 -0.7991
 1009MOL0     H36176   0.817   9.523   5.808 -0.8584  1.9683 -2.9000
 1009MOL0     H36177   0.978   9.200   6.135 -0.2118  1.1618 -1.2497
 1009MOL0     H36178   1.179   9.151   6.262  0.8338  2.5664  2.0283
 1009MOL0     H36179   1.552   9.023   6.164  4.1111  1.2349 -0.2026
 1009MOL0     H36180   1.497   9.101   6.022 -1.4656 -0.6592  0.4418
 1009MOL0     H36181   1.719   9.148   6.053  0.9568  1.2071 -0.3423
 1009MOL0     H36182   1.641   9.293   6.084  1.9566  0.3511 -1.2022
 1009MOL0     H36183   1.752   9.285   6.289 -2.8673  2.3723 -1.5947
 1009MOL0     H36184   1.641   9.159   6.338 -0.0117 -1.4607 -0.7431
 1009MOL0     H36185   1.918   9.127   6.212  0.7879 -0.3034  0.5457
 1009MOL0     H36186   1.817   8.990   6.253 -0.0100  0.5182 -0.6092
 1009MOL0     H36187   1.948   9.208   6.436  0.2461 -0.0540  4.1727
 1009MOL0     H36188   1.999   9.044   6.417  0.2828  0.0270 -1.5288
 1009MOL0     H36189   1.762   9.176   6.556  1.9302  0.9061  4.2552
 1009MOL0     H36190   1.764   8.992   6.534  2.2872 -0.6376 -2.9660
 1009MOL0     H36191   1.983   8.998   6.655 -0.9520 -0.6368  0.4043
 1009MOL0     H36192   1.831   9.006   6.743  0.3699  0.2595 -0.0643
 1009MOL0     H36193   2.004   9.239   6.673  1.1958 -0.6575  0.8327
 1009MOL0     H36194   1.848   9.260   6.745  0.3305  0.1560 -4.2438
 1009MOL0     H36195   1.419   9.335   5.963  1.1524 -2.9409  0.2235
 1009MOL0     H36196   1.206   9.412   5.843  1.1278 -2.4651 -1.1273
 1009MOL0     H36197   0.592   9.160   5.804 -2.3099  0.3410  2.1990
 1009MOL0     H36198   0.393   9.274   5.783  1.9166 -2.2902  0.8588
 1009MOL0     H36199   1.235   9.907   6.336 -2.3289  0.7527  5.3188
 1009MOL0     H36200   1.443   9.968   6.183  1.7325  2.5905 -0.9101
 1009MOL0     H36201   1.781  10.299   6.213  0.4051  0.0732 -1.7526
 1009MOL0     H36202   1.984  10.400   6.137  1.5169  1.0645  0.0011
 1009MOL0     H36203   2.153  10.353   5.931  0.2166 -0.3386  0.6204
 1009MOL0     H36204   2.174  10.177   5.938 -0.4496  0.3240 -1.1035
 1009MOL0     H36205   2.427  10.232   5.923  1.0254  0.9593  0.9212
 1009MOL0     H36206   2.375  10.401   5.936 -1.8145  0.1610  2.4059
 1009MOL0     H36207   2.358  10.396   5.708 -1.0117 -0.3628 -1.7181
 1009MOL0     H36208   2.219  10.281   5.730 -0.6588  0.8254  2.5323
 1009MOL0     H36209   2.393  10.210   5.562 -0.9980 -0.3889  0.4183
 1009MOL0     H36210   2.528  10.234   5.676  0.7729 -0.7219  0.8611
 1009MOL0     H36211   2.368   9.864   5.805 -1.3612  0.6816  0.6689
 1009MOL0     H36212   2.188  10.035   6.231  1.5478  2.1153 -1.2517
 1009MOL0     H36213   2.098   9.883   6.372  0.7855  2.0509 -2.1965
 1009MOL0     H36214   1.959   9.902   6.464  3.3715  1.5431  1.0851
 1009MOL0     H36215   1.942   9.853   6.292  0.6057  1.5912 -1.9374
 1010MOL0     O36216   5.347  10.012   1.878  0.4610  0.2698  0.1626
 1010MOL0     C36217   5.223  10.013   1.857 -0.2259  0.9261 -0.1546
 1010MOL0     O36218   5.157  10.119   1.821 -0.3552  0.8070  0.0881
 1010MOL0     C36219   5.224  10.228   1.779  0.1341  0.2452 -1.1776
 1010MOL0     C36220   5.279  10.233   1.648 -0.6590 -0.0536  0.1469
 1010MOL0     C36221   5.342  10.347   1.599 -0.5440 -0.3252 -0.1125
 1010MOL0     C36222   5.350  10.459   1.683 -0.4377 -0.1098 -0.3196
 1010MOL0     O36223   5.404  10.580   1.644  0.9366 -0.5604  0.1363
 1010MOL0     C36224   5.357  10.628   1.517  0.9299  0.0730  1.4582
 1010MOL0     C36225   5.446  10.730   1.446  0.3251  0.6061 -0.4061
 1010MOL0     C36226   5.593  10.686   1.440  0.1188 -1.0401 -0.2047
 1010MOL0     C36227   5.690  10.800   1.378 -0.7034  0.4793  0.7885
 1010MOL0     C36228   5.698  10.927   1.464  0.3829  0.2963  0.0193
 1010MOL0     C36229   5.750  10.904   1.610 -0.2573  0.2680 -1.0029
 1010MOL0     C36230   5.894  10.840   1.616  0.4822  0.7235 -0.3129
 1010MOL0     C36231   5.999  10.936   1.549 -0.6541 -0.2020 -0.1917
 1010MOL0     N36232   6.134  10.883   1.578 -0.8552 -0.6053 -0.3186
 1010MOL0     C36233   6.182  10.860   1.709 -0.4751  0.0036 -0.6119
 1010MOL0     C36234   6.310  10.828   1.693 -0.5253  0.5885 -1.2419
 1010MOL0     C36235   6.404  10.776   1.806  0.8344 -0.0219  0.8040
 1010MOL0     C36236   6.491  10.877   1.870  0.1992 -0.0511 -0.3039
 1010MOL0     C36237   6.589  10.821   1.976 -0.3462  0.3418 -0.0950
 1010MOL0     C36238   6.549  10.852   2.119 -0.1719  0.8012 -0.9047
 1010MOL0     O36239   6.408  10.830   2.137  0.2037 -0.0308 -0.4894
 1010MOL0     C36240   6.340  10.853   2.258  0.3077  0.2227  0.0084
 1010MOL0     C36241   6.414  10.852   2.381  0.3325  0.0939 -0.8490
 1010MOL0     C36242   6.352  10.869   2.507 -0.1057  0.7566  0.8312
 1010MOL0     C36243   6.216  10.914   2.511 -0.8058  0.4438  0.3721
 1010MOL0     C36244   6.162  10.970   2.636 -0.3550 -0.2269  0.5529
 1010MOL0     O36245   6.217  10.922   2.745  0.2804  0.0982 -0.6698
 1010MOL0     C36246   6.181  10.925   2.879  1.2072  0.4681  0.1487
 1010MOL0     C36247   6.147  11.043   2.946  0.4827 -0.2557 -0.4673
 1010MOL0     C36248   6.115  11.043   3.087  0.8870  0.8558  0.5474
 1010MOL0     C36249   6.111  10.916   3.161 -1.2449 -1.2173 -0.0585
 1010MOL0     O36250   6.073  10.897   3.292  0.2965 -0.7998 -0.2978
 1010MOL0     C36251   5.975  10.982   3.346 -0.6392  0.5429  0.6120
 1010MOL0     C36252   5.827  10.960   3.292  0.2786 -0.2400  0.3385
 1010MOL0     C36253   5.729  11.019   3.389  0.0457 -0.5516  1.0921
 1010MOL0     C36254   5.607  11.037   3.304 -0.8448 -0.0518  0.1426
 1010MOL0     C36255   5.497  11.117   3.386 -1.3684 -0.0371 -1.0164
 1010MOL0     C36256   5.453  11.054   3.527  0.4072 -0.9755  0.0369
 1010MOL0     C36257   5.373  10.919   3.514  0.3157 -1.0034 -1.4311
 1010MOL0     C36258   5.391  10.837   3.639 -0.2283  0.1778 -0.1978
 1010MOL0    Cl36259   5.572  10.796   3.677 -0.1043  0.2350  0.1787
 1010MOL0     C36260   6.149  10.800   3.093  0.0647 -0.7561  0.9218
 1010MOL0     C36261   6.189  10.808   2.955 -0.4555 -0.6299  0.0122
 1010MOL0     O36262   6.082  11.057   2.629  0.1249  0.1264 -0.0520
 1010MOL0     C36263   6.144  10.914   2.385 -0.4571 -0.7526  0.4007
 1010MOL0     C36264   6.208  10.877   2.264  0.0373  1.1078 -0.4027
 1010MOL0     N36265   6.345  10.857   1.559 -0.0865 -0.5776 -0.5982
 1010MOL0     N36266   6.238  10.880   1.487  0.3887  0.6280  0.1855
 1010MOL0     C36267   5.304  10.457   1.813  0.9201 -0.1252 -0.6683
 1010MOL0     C36268   5.249  10.338   1.862  0.2886 -0.3471 -0.1350
 1010MOL0     C36269   5.157   9.884   1.863 -0.3942 -0.8013  0.3075
 1010MOL0     C36270   5.226   9.784   1.941  0.1071  0.4756 -0.4947
 1010MOL0     C36271   5.176   9.647   1.938 -1.0636  0.0356  1.4696
 1010MOL0     C36272   5.071   9.618   1.854  0.4922  0.5626  0.0171
 1010MOL0     O36273   5.040   9.485   1.860  0.0646 -1.2041  0.1656
 1010MOL0     C36274   5.067   9.407   1.736 -0.4240 -0.9416 -0.0048
 1010MOL0     C36275   5.196   9.325   1.756  0.2245 -0.0500  0.0512
 1010MOL0     C36276   5.211   9.210   1.655  0.2832 -0.3045  0.1642
 1010MOL0     C36277   5.319   9.098   1.675 -0.0187  0.0028  0.2013
 1010MOL0     C36278   5.294   9.038   1.804 -0.7538  0.3517 -0.3845
 1010MOL0     C36279   5.275   8.984   1.915 -0.0139 -0.1435  0.4333
 1010MOL0     C36280   5.010   9.720   1.783 -0.4427  0.6175  0.7973
 1010MOL0     C36281   5.037   9.858   1.796  0.1370 -0.2033  0.0553
 1010MOL0     C36282   4.928   9.960   1.760 -0.3229  0.1559 -0.1586
 1010MOL0     H36283   5.275  10.143   1.588 -0.6236 -1.0881  1.6536
 1010MOL0     H36284   5.378  10.339   1.497 -2.5694 -3.8397 -0.6947
 1010MOL0     H36285   5.350  10.544   1.448 -1.1278 -1.2025  3.1137
 1010MOL0     H36286   5.260  10.675   1.534  1.4832  0.7983  2.7678
 1010MOL0     H36287   5.437  10.827   1.497  2.0772  2.8390 -3.9518
 1010MOL0     H36288   5.421  10.742   1.340 -0.2650  0.2955 -0.3071
 1010MOL0     H36289   5.605  10.596   1.377  0.8608 -0.9442 -0.2080
 1010MOL0     H36290   5.610  10.662   1.545 -1.1338 -2.4095 -0.2783
 1010MOL0     H36291   5.792  10.763   1.363 -0.4637  1.9089 -1.7585
 1010MOL0     H36292   5.659  10.841   1.281  0.5279  4.0663  1.7825
 1010MOL0     H36293   5.769  10.993   1.414  0.5262  0.9991  1.1172
 1010MOL0     H36294   5.597  10.971   1.465  0.0678 -0.2919  2.6734
 1010MOL0     H36295   5.745  10.998   1.665 -2.2297 -0.7933  0.7879
 1010MOL0     H36296   5.686  10.833   1.663  1.4832 -0.0701  0.7439
 1010MOL0     H36297   5.896  10.751   1.553  0.4048  0.8339 -0.4722
 1010MOL0     H36298   5.915  10.817   1.721  1.5627 -1.0646 -0.8892
 1010MOL0     H36299   5.979  10.947   1.442 -1.8346 -0.8341 -0.0466
 1010MOL0     H36300   5.986  11.035   1.593  3.9443 -0.0089  1.3332
 1010MOL0     H36301   6.121  10.854   1.799 -0.4952 -0.3698 -0.6496
 1010MOL0     H36302   6.344  10.736   1.888  0.6101  0.1321  0.7158
 1010MOL0     H36303   6.461  10.691   1.767 -0.1303 -0.9282  1.3086
 1010MOL0     H36304   6.557  10.920   1.794  0.3708  0.5355  0.1709
 1010MOL0     H36305   6.432  10.952   1.921 -0.5626 -1.2359  0.6097
 1010MOL0     H36306   6.688  10.867   1.968 -0.4557  0.5440 -0.2889
 1010MOL0     H36307   6.598  10.712   1.973  0.7594  0.2731  2.7056
 1010MOL0     H36308   6.586  10.952   2.147 -1.4783  1.5053 -1.6270
 1010MOL0     H36309   6.601  10.785   2.188 -0.0787 -0.8295 -2.4950
 1010MOL0     H36310   6.520  10.829   2.378  0.1392 -1.2039  0.7837
 1010MOL0     H36311   6.413  10.853   2.595 -0.8109 -1.1647  1.0247
 1010MOL0     H36312   6.167  11.146   2.919  3.7079  0.4337  3.5427
 1010MOL0     H36313   6.097  11.136   3.139  1.5842  0.1822  2.0374
 1010MOL0     H36314   5.968  10.965   3.454  0.0659 -1.0112  0.4473
 1010MOL0     H36315   6.004  11.086   3.328 -0.9600  0.6646  0.7817
 1010MOL0     H36316   5.822  10.994   3.188  1.5646 -1.5526 -0.1871
 1010MOL0     H36317   5.796  10.856   3.278 -2.6604  0.7292 -1.1125
 1010MOL0     H36318   5.699  10.950   3.468 -2.1756 -3.2602 -1.8585
 1010MOL0     H36319   5.766  11.110   3.438  2.4998 -0.6455 -0.3851
 1010MOL0     H36320   5.567  10.951   3.249  0.3916 -0.3011 -0.4048
 1010MOL0     H36321   5.630  11.104   3.220  1.2810 -1.7574 -0.7318
 1010MOL0     H36322   5.412  11.126   3.318 -0.1324  3.6043 -2.3318
 1010MOL0     H36323   5.531  11.220   3.400  0.6700 -1.0544  2.8265
 1010MOL0     H36324   5.531  11.042   3.603  0.6961 -0.4125 -0.1623
 1010MOL0     H36325   5.377  11.120   3.570  1.7548  0.9923 -0.4984
 1010MOL0     H36326   5.402  10.866   3.423  0.3813 -1.4049 -1.1781
 1010MOL0     H36327   5.272  10.963   3.515  1.4864  1.9162 -1.2222
 1010MOL0     H36328   5.358  10.888   3.730  2.1649  2.1186 -0.3263
 1010MOL0     H36329   5.331  10.749   3.615  2.8869 -2.3658  0.5741
 1010MOL0     H36330   6.160  10.708   3.149 -2.1886 -2.5777 -1.3978
 1010MOL0     H36331   6.217  10.719   2.901 -2.3365 -2.0832  1.3018
 1010MOL0     H36332   6.049  10.965   2.396  0.5327  0.8606  2.2816
 1010MOL0     H36333   6.155  10.879   2.169 -1.4565 -1.3376  0.2696
 1010MOL0     H36334   5.328  10.546   1.870  2.3989 -1.0216  0.1507
 1010MOL0     H36335   5.235  10.345   1.970  4.0069 -0.0396  0.4548
 1010MOL0     H36336   5.318   9.793   1.998  0.4709  0.6531 -1.1105
 1010MOL0     H36337   5.220   9.573   2.004 -1.4769 -0.3710  1.2897
 1010MOL0     H36338   5.076   9.464   1.643 -3.9051 -1.5889 -0.8950
 1010MOL0     H36339   4.979   9.344   1.717  0.5545 -1.7133 -2.3383
 1010MOL0     H36340   5.182   9.281   1.856 -0.0327 -1.0407 -0.4079
 1010MOL0     H36341   5.287   9.385   1.760 -0.8451  1.6315  0.1673
 1010MOL0     H36342   5.203   9.249   1.553 -2.6745  3.7223  1.6665
 1010MOL0     H36343   5.121   9.148   1.659  0.4177 -0.5512 -0.4353
 1010MOL0     H36344   5.317   9.021   1.597  0.7874  1.3267 -1.1882
 1010MOL0     H36345   5.420   9.139   1.670  0.8129 -1.7803  1.2678
 1010MOL0     H36346   5.255   8.948   2.014 -4.2894  2.6349  0.8522
 1010MOL0     H36347   4.929   9.677   1.727  0.9517 -1.6365  0.3871
 1010MOL0     H36348   4.909  10.028   1.843 -2.0819 -1.4852  0.8525
 1010MOL0     H36349   4.947  10.007   1.663 -4.4643 -0.2151 -1.3319
 1010MOL0     H36350   4.837   9.902   1.742 -1.8843  1.2074  3.4197
 1011MOL0     O36351   9.522   4.588   2.058 -0.1878 -0.4095  0.3757
 1011MOL0     C36352   9.600   4.682   2.069  0.4827 -0.3414  0.4651
 1011MOL0     O36353   9.654   4.719   2.195 -0.5066 -0.7497 -0.0145
 1011MOL0     C36354   9.591   4.673   2.310  0.0901  0.1645 -0.0809
 1011MOL0     C36355   9.507   4.751   2.392 -0.1518 -0.2870  0.0035
 1011MOL0     C36356   9.454   4.706   2.507  0.1744 -0.4575 -1.1813
 1011MOL0     C36357   9.467   4.574   2.552  0.1378  0.7186  0.3885
 1011MOL0     O36358   9.414   4.525   2.666 -0.4496  0.4204 -0.6056
 1011MOL0     C36359   9.307   4.594   2.743 -0.8208  0.1453  0.0100
 1011MOL0     C36360   9.165   4.585   2.692  0.8178  0.5512 -0.0520
 1011MOL0     C36361   9.113   4.442   2.665  1.4977 -0.8304  0.2583
 1011MOL0     C36362   8.961   4.438   2.670  1.3393  0.3976 -0.4338
 1011MOL0     C36363   8.902   4.438   2.810 -0.7001 -0.1524  0.5521
 1011MOL0     C36364   8.749   4.410   2.806  0.0381 -0.1508 -0.0354
 1011MOL0     C36365   8.678   4.524   2.732  0.3208  0.2787 -0.0975
 1011MOL0     C36366   8.540   4.544   2.808 -0.1472 -1.1724 -0.0600
 1011MOL0     N36367   8.464   4.420   2.834  0.6090  0.1751 -0.3790
 1011MOL0     C36368   8.410   4.393   2.954  1.0257 -1.0161  0.7936
 1011MOL0     C36369   8.370   4.269   2.942 -0.0059  0.8584  0.1230
 1011MOL0     C36370   8.314   4.188   3.057  0.4266  0.0845 -0.0146
 1011MOL0     C36371   8.241   4.047   3.024 -0.3828 -0.3712 -0.4148
 1011MOL0     C36372   8.130   4.062   2.911  0.4755  0.6867 -1.7141
 1011MOL0     C36373   8.040   4.187   2.931 -0.2206  0.3316 -0.0710
 1011MOL0     O36374   7.953   4.183   3.046  0.4357 -0.5312 -0.4612
 1011MOL0     C36375   7.831   4.120   3.031 -1.1179  0.3448 -0.5757
 1011MOL0     C36376   7.773   4.083   3.149 -0.0445 -0.3417 -0.5369
 1011MOL0     C36377   7.652   4.011   3.143 -0.0948  0.7111  0.5737
 1011MOL0     C36378   7.581   3.986   3.026  0.2360 -0.3561 -0.5056
 1011MOL0     C36379   7.449   3.924   3.026  0.5350 -0.4008  0.6755
 1011MOL0     O36380   7.386   3.910   3.147  0.0447 -0.0708 -0.1056
 1011MOL0     C36381   7.298   3.805   3.167  0.1635 -0.7179 -0.1256
 1011MOL0     C36382   7.309   3.676   3.113  0.6210  0.5129 -0.9993
 1011MOL0     C36383   7.208   3.582   3.135 -0.3940  0.1107 -0.5955
 1011MOL0     C36384   7.106   3.602   3.234 -1.6751 -1.1162  0.0565
 1011MOL0     O36385   7.012   3.505   3.249  0.3579 -1.0212 -0.6707
 1011MOL0     C36386   6.877   3.546   3.292 -0.1304  0.2006 -0.0756
 1011MOL0     C36387   6.856   3.527   3.443 -0.0859  0.1045  0.2565
 1011MOL0     C36388   6.706   3.541   3.481  0.2381  0.0609 -0.2056
 1011MOL0     C36389   6.707   3.533   3.626 -1.2052 -0.3394  0.3917
 1011MOL0     C36390   6.556   3.510   3.673  0.5818 -0.2030  0.9467
 1011MOL0     C36391   6.538   3.478   3.821 -0.0275  0.2041 -0.2369
 1011MOL0     C36392   6.387   3.469   3.847 -0.2566  0.4607  0.5223
 1011MOL0     C36393   6.362   3.428   3.985 -0.1244  0.3626  0.8008
 1011MOL0    Cl36394   6.427   3.269   4.015  0.0005  0.1439 -0.0075
 1011MOL0     C36395   7.099   3.733   3.302  0.0692  0.3390  0.6694
 1011MOL0     C36396   7.197   3.826   3.262 -0.0324  0.7306 -0.2625
 1011MOL0     O36397   7.398   3.893   2.918 -0.0555  0.7646  0.0943
 1011MOL0     C36398   7.643   4.018   2.907 -0.4949  0.0083  0.2890
 1011MOL0     C36399   7.769   4.074   2.909 -0.2774 -0.5765 -0.8679
 1011MOL0     N36400   8.384   4.223   2.810  0.7358  0.5580 -0.1026
 1011MOL0     N36401   8.435   4.318   2.746 -1.1750  0.0382  0.5464
 1011MOL0     C36402   9.551   4.489   2.481  0.1317 -0.1867 -0.8445
 1011MOL0     C36403   9.623   4.541   2.370 -0.5318 -0.8124 -0.2067
 1011MOL0     C36404   9.645   4.746   1.942  0.1118  0.2324 -0.7984
 1011MOL0     C36405   9.776   4.800   1.926 -0.6239 -0.5786  0.1355
 1011MOL0     C36406   9.816   4.869   1.815 -0.6922  0.2890  0.7648
 1011MOL0     C36407   9.727   4.884   1.708 -0.3629 -0.9032 -0.1589
 1011MOL0     O36408   9.753   4.966   1.595  0.7496  0.3192 -0.0453
 1011MOL0     C36409   9.770   5.103   1.631  0.1046 -1.0984  0.6752
 1011MOL0     C36410   9.753   5.199   1.512 -0.8862  0.5941 -0.0686
 1011MOL0     C36411   9.851   5.194   1.387 -0.2125  0.4335 -0.4140
 1011MOL0     C36412   9.987   5.271   1.390 -0.0597 -0.6669 -0.5276
 1011MOL0     C36413  10.067   5.271   1.509  0.6186  0.6242 -0.7473
 1011MOL0     C36414  10.128   5.268   1.615  0.3276 -0.3713  0.5279
 1011MOL0     C36415   9.610   4.832   1.717  0.0426 -0.1469 -0.2603
 1011MOL0     C36416   9.565   4.753   1.823 -1.8243  0.0953 -0.5939
 1011MOL0     C36417   9.420   4.709   1.816  0.1492 -0.3478 -0.7147
 1011MOL0     H36418   9.488   4.847   2.346  0.7349  0.9112  2.0259
 1011MOL0     H36419   9.386   4.772   2.561 -2.3454 -4.2949  0.7498
 1011MOL0     H36420   9.304   4.544   2.840  1.7702 -1.2799 -0.5641
 1011MOL0     H36421   9.337   4.698   2.758 -0.1837  0.0997 -0.8324
 1011MOL0     H36422   9.172   4.637   2.596  1.6099  0.2596 -0.1558
 1011MOL0     H36423   9.095   4.642   2.754 -1.8305 -0.6228 -1.7532
 1011MOL0     H36424   9.141   4.372   2.744 -0.7580  1.9997  3.8970
 1011MOL0     H36425   9.144   4.404   2.567  0.8938 -1.0708  0.1590
 1011MOL0     H36426   8.918   4.524   2.618 -1.0002 -0.4249 -0.0070
 1011MOL0     H36427   8.929   4.345   2.621 -0.3677  0.2761  0.7905
 1011MOL0     H36428   8.956   4.373   2.879 -4.0339 -1.8183  1.8422
 1011MOL0     H36429   8.923   4.538   2.848 -0.0937 -0.1004  0.0949
 1011MOL0     H36430   8.719   4.314   2.764 -1.0086 -0.0697  0.4767
 1011MOL0     H36431   8.702   4.411   2.905 -1.4968 -2.5703 -0.6599
 1011MOL0     H36432   8.651   4.497   2.630  3.7735  1.2712 -1.4032
 1011MOL0     H36433   8.749   4.608   2.729  2.7151 -1.6650 -1.9147
 1011MOL0     H36434   8.553   4.602   2.901  1.3197  0.2546 -1.0876
 1011MOL0     H36435   8.465   4.606   2.757 -3.5036 -1.9066  3.4946
 1011MOL0     H36436   8.422   4.463   3.037  3.1153  0.7972 -0.9140
 1011MOL0     H36437   8.396   4.172   3.128 -1.1373  0.3926  1.9684
 1011MOL0     H36438   8.241   4.248   3.113 -1.8968  0.0164 -2.7421
 1011MOL0     H36439   8.319   3.972   3.012  0.0934 -0.2183  1.4951
 1011MOL0     H36440   8.192   4.018   3.118 -2.9586  0.4210 -1.4117
 1011MOL0     H36441   8.069   3.971   2.914 -1.1441  1.7322 -1.7285
 1011MOL0     H36442   8.164   4.070   2.807  0.7374 -3.6375 -2.1178
 1011MOL0     H36443   7.987   4.199   2.836 -1.7819  1.5989  0.8938
 1011MOL0     H36444   8.112   4.269   2.943  0.5812 -0.6079  2.1698
 1011MOL0     H36445   7.832   4.104   3.237  1.9417 -0.3780 -1.8076
 1011MOL0     H36446   7.614   3.969   3.236 -1.5873  0.4808 -0.1194
 1011MOL0     H36447   7.383   3.654   3.037  1.2048 -0.9087 -0.0553
 1011MOL0     H36448   7.208   3.483   3.090 -2.2291 -0.1454 -0.1380
 1011MOL0     H36449   6.844   3.648   3.273 -1.2048  0.3849  2.4728
 1011MOL0     H36450   6.819   3.473   3.235  2.6103 -3.7725  1.7350
 1011MOL0     H36451   6.879   3.422   3.467  1.7520  0.3115 -0.4496
 1011MOL0     H36452   6.924   3.598   3.492 -0.1159  1.0634 -1.0629
 1011MOL0     H36453   6.682   3.642   3.450 -1.1714 -0.2103 -0.0585
 1011MOL0     H36454   6.655   3.456   3.435  1.1094 -1.7824  2.0236
 1011MOL0     H36455   6.770   3.604   3.682 -0.0082 -4.0187  4.2064
 1011MOL0     H36456   6.764   3.449   3.667  2.1174  0.9621 -1.1383
 1011MOL0     H36457   6.507   3.436   3.609 -0.6858  1.8185 -0.5377
 1011MOL0     H36458   6.496   3.598   3.648  0.2677 -0.2271  1.5946
 1011MOL0     H36459   6.585   3.384   3.851 -2.7286 -1.2304 -0.1166
 1011MOL0     H36460   6.596   3.548   3.881  0.7368 -0.2227 -0.4647
 1011MOL0     H36461   6.353   3.393   3.776 -0.1124  2.5514 -1.9628
 1011MOL0     H36462   6.341   3.568   3.833 -2.8525 -0.8186 -0.6468
 1011MOL0     H36463   6.409   3.498   4.054 -2.0993  0.1614  2.4657
 1011MOL0     H36464   6.260   3.433   4.024  0.5508  1.5452  2.5064
 1011MOL0     H36465   7.017   3.758   3.369 -2.7095  0.3945 -2.4883
 1011MOL0     H36466   7.203   3.914   3.325 -2.3523  0.1662  0.8920
 1011MOL0     H36467   7.590   3.999   2.814  0.7531 -0.3370 -0.3700
 1011MOL0     H36468   7.816   4.086   2.813  1.2856 -0.9138 -0.1746
 1011MOL0     H36469   9.560   4.385   2.510 -0.6828  0.8144  3.7546
 1011MOL0     H36470   9.686   4.469   2.319  0.6039 -1.2145  1.6371
 1011MOL0     H36471   9.846   4.801   2.009  1.0526  2.7956 -1.1587
 1011MOL0     H36472   9.915   4.912   1.800  1.7517 -2.1332  6.7722
 1011MOL0     H36473   9.874   5.107   1.667  0.1383 -3.0462  0.8974
 1011MOL0     H36474   9.702   5.138   1.710 -3.1661 -0.8866 -1.9988
 1011MOL0     H36475   9.766   5.303   1.545  0.5383  0.9458 -1.5934
 1011MOL0     H36476   9.652   5.195   1.472 -1.1774  0.5837  0.6573
 1011MOL0     H36477   9.794   5.220   1.297 -0.7995 -1.4715 -0.6344
 1011MOL0     H36478   9.871   5.088   1.371 -1.0043  0.5314 -2.3202
 1011MOL0     H36479  10.054   5.241   1.309  0.1423  5.5546 -3.1795
 1011MOL0     H36480   9.984   5.377   1.366  4.0082  0.9931  4.3691
 1011MOL0     H36481  10.191   5.272   1.702 -0.6504 -0.8466  1.2860
 1011MOL0     H36482   9.547   4.850   1.631 -0.9305  0.3576  0.5391
 1011MOL0     H36483   9.378   4.758   1.904  2.7988  0.4245  0.2213
 1011MOL0     H36484   9.379   4.742   1.720 -0.7521 -1.2388 -0.6542
 1011MOL0     H36485   9.418   4.600   1.822 -1.6454 -0.3869 -1.3161
 1012MOL0     O36486   9.778   0.777   9.749 -0.4059  0.2788  0.1358
 1012MOL0     C36487   9.673   0.761   9.804 -0.8557  0.1336 -0.2562
 1012MOL0     O36488   9.660   0.739   9.938 -0.1097 -0.4523 -0.0715
 1012MOL0     C36489   9.763   0.733  10.023  0.8497  0.5737 -0.2544
 1012MOL0     C36490   9.807   0.615  10.066  0.1480 -0.0630  0.2032
 1012MOL0     C36491   9.918   0.590  10.146 -1.4813  0.0729  0.2144
 1012MOL0     C36492   9.988   0.706  10.197 -0.3401  1.2894 -0.6737
 1012MOL0     O36493  10.083   0.703  10.291  0.2068 -0.2622 -0.2694
 1012MOL0     C36494  10.066   0.596  10.390 -0.5427 -0.3785 -0.3707
 1012MOL0     C36495  10.142   0.651  10.512 -0.9268 -0.0222  0.3569
 1012MOL0     C36496  10.155   0.566  10.644  0.0467 -0.2713  0.1523
 1012MOL0     C36497  10.259   0.458  10.629 -0.0791  0.6193  0.7084
 1012MOL0     C36498  10.293   0.389  10.761 -0.8464 -0.0316 -0.3869
 1012MOL0     C36499  10.371   0.478  10.860  0.5627 -0.1499  0.5803
 1012MOL0     C36500  10.411   0.400  10.983  0.1649 -0.2591 -0.1381
 1012MOL0     C36501  10.447   0.486  11.100 -0.0935 -0.0689  0.7642
 1012MOL0     N36502  10.459   0.405  11.224 -0.1443 -0.2677 -0.1140
 1012MOL0     C36503  10.578   0.372  11.271 -0.4632 -0.0822  0.3315
 1012MOL0     C36504  10.571   0.370  11.405  0.9559 -0.4435 -0.5582
 1012MOL0     C36505  10.680   0.327  11.497 -0.3968  0.0591  0.4953
 1012MOL0     C36506  10.812   0.405  11.475  0.0956  0.0699  0.4546
 1012MOL0     C36507  10.918   0.380  11.586 -0.4321 -0.4892 -0.1880
 1012MOL0     C36508  11.070   0.398  11.552 -1.5058  1.6597  0.7024
 1012MOL0     O36509  11.107   0.533  11.534  0.2151 -0.1886 -0.2654
 1012MOL0     C36510  11.183   0.601  11.618 -0.0210 -0.2338 -0.2735
 1012MOL0     C36511  11.316   0.575  11.618 -0.2351 -0.7337  0.3594
 1012MOL0     C36512  11.389   0.638  11.719 -0.2155  0.0186  0.1830
 1012MOL0     C36513  11.330   0.743  11.799 -0.2512  0.3003  0.3914
 1012MOL0     C36514  11.404   0.810  11.908 -0.4318 -0.0068  0.6577
 1012MOL0     O36515  11.544   0.791  11.910 -0.1804 -0.3931 -0.1899
 1012MOL0     C36516  11.620   0.807  12.031 -0.4178  0.0382  0.5628
 1012MOL0     C36517  11.575   0.760  12.157  0.0506 -0.0168  0.4935
 1012MOL0     C36518  11.661   0.769  12.269  0.2574 -0.3948  0.3904
 1012MOL0     C36519  11.782   0.834  12.263 -0.1399  0.7907  1.3004
 1012MOL0     O36520  11.848   0.866  12.382  0.0251 -0.3450  0.5029
 1012MOL0     C36521  11.900   0.997  12.401  0.5840 -0.2222  0.2649
 1012MOL0     C36522  11.805   1.108  12.378 -0.1791 -0.8223 -0.1360
 1012MOL0     C36523  11.693   1.084  12.477  0.1250  0.1838 -0.7053
 1012MOL0     C36524  11.614   1.214  12.478 -0.3249  0.6314  0.1995
 1012MOL0     C36525  11.460   1.207  12.460  0.1388 -0.0382 -0.1898
 1012MOL0     C36526  11.381   1.129  12.556  0.7277  0.1207  0.0271
 1012MOL0     C36527  11.288   1.221  12.635  0.7526 -0.5856  0.4782
 1012MOL0     C36528  11.203   1.147  12.735 -0.1710  0.0862  0.2952
 1012MOL0    Cl36529  11.103   1.004  12.662  0.3646 -0.1948 -0.1028
 1012MOL0     C36530  11.823   0.881  12.135 -0.3985  0.5214 -0.3592
 1012MOL0     C36531  11.742   0.877  12.026  0.5143  0.8538  1.3035
 1012MOL0     O36532  11.343   0.856  11.996  0.3296 -0.8889 -0.5801
 1012MOL0     C36533  11.195   0.774  11.778 -0.0913  1.0776 -0.3844
 1012MOL0     C36534  11.121   0.702  11.685  0.5031 -0.4995 -0.0498
 1012MOL0     N36535  10.449   0.415  11.446  0.3550  0.1535  0.2551
 1012MOL0     N36536  10.382   0.434  11.333 -0.6988 -0.3252 -0.9980
 1012MOL0     C36537   9.948   0.826  10.151 -0.5596 -0.5464 -0.9249
 1012MOL0     C36538   9.843   0.840  10.064 -0.0139  0.6759  1.0010
 1012MOL0     C36539   9.568   0.757   9.711 -0.1078 -0.3658 -0.2136
 1012MOL0     C36540   9.569   0.651   9.630  1.4148  0.6959  0.6533
 1012MOL0     C36541   9.465   0.626   9.542 -0.4478 -0.2476  0.1279
 1012MOL0     C36542   9.347   0.696   9.548 -0.4943  0.2478  0.2203
 1012MOL0     O36543   9.247   0.646   9.473 -0.2873 -0.5919  0.2036
 1012MOL0     C36544   9.124   0.725   9.464 -0.4960  0.8580 -0.6694
 1012MOL0     C36545   9.039   0.681   9.345 -0.3931 -0.0194 -1.0467
 1012MOL0     C36546   9.127   0.691   9.221 -0.0709  0.6359 -0.6960
 1012MOL0     C36547   9.074   0.636   9.090 -0.6420  0.6380 -0.1469
 1012MOL0     C36548   9.022   0.499   9.109 -0.9817 -0.3078  1.0754
 1012MOL0     C36549   8.987   0.384   9.115 -0.4460  1.1048 -0.5718
 1012MOL0     C36550   9.331   0.797   9.647 -0.5270 -0.4900 -0.2948
 1012MOL0     C36551   9.451   0.832   9.727  0.2184 -0.2539 -0.1006
 1012MOL0     C36552   9.424   0.933   9.840  0.0321 -0.5075 -0.0191
 1012MOL0     H36553   9.758   0.520  10.050  2.0876 -0.8354 -1.5633
 1012MOL0     H36554   9.942   0.489  10.178  0.3407 -0.1754 -1.7787
 1012MOL0     H36555   9.959   0.598  10.412 -0.5337 -1.0008 -0.2583
 1012MOL0     H36556  10.105   0.502  10.348 -0.3487  0.0540 -1.1781
 1012MOL0     H36557  10.092   0.744  10.539 -1.4418 -0.6999  1.8870
 1012MOL0     H36558  10.244   0.676  10.480 -0.6478 -1.6242 -0.0769
 1012MOL0     H36559  10.063   0.521  10.682 -0.3076  0.3464  0.0523
 1012MOL0     H36560  10.177   0.636  10.726  1.3109  1.1336 -1.2989
 1012MOL0     H36561  10.216   0.389  10.556 -0.9508  2.6962 -0.8614
 1012MOL0     H36562  10.354   0.493  10.588 -0.7225  0.3372 -1.1383
 1012MOL0     H36563  10.203   0.349  10.810  0.1500 -0.1770  1.3988
 1012MOL0     H36564  10.350   0.299  10.739 -0.7214 -1.2073  3.8937
 1012MOL0     H36565  10.455   0.531  10.814  1.4876 -1.0632  1.1803
 1012MOL0     H36566  10.294   0.548  10.894  0.3443  0.8119 -1.7154
 1012MOL0     H36567  10.502   0.345  10.959  0.2467  0.4567 -1.5571
 1012MOL0     H36568  10.329   0.339  11.023 -1.9112  1.7422 -1.1132
 1012MOL0     H36569  10.544   0.532  11.076 -0.4795  0.3793  0.0309
 1012MOL0     H36570  10.374   0.567  11.100  0.1971  0.1942  0.8858
 1012MOL0     H36571  10.666   0.331  11.222 -1.3826  0.3347 -1.7745
 1012MOL0     H36572  10.650   0.329  11.603  0.9839  1.6610  0.8992
 1012MOL0     H36573  10.709   0.226  11.465  1.8633  0.7027  0.3359
 1012MOL0     H36574  10.846   0.366  11.379  0.2871  1.6794 -0.1687
 1012MOL0     H36575  10.785   0.511  11.465  0.5474  0.4018  2.3416
 1012MOL0     H36576  10.906   0.284  11.636 -0.7824  0.1823  1.0476
 1012MOL0     H36577  10.901   0.462  11.656  0.1426  0.5107 -1.1818
 1012MOL0     H36578  11.075   0.351  11.453 -1.0883  3.4059 -0.1339
 1012MOL0     H36579  11.128   0.337  11.622 -3.1830 -0.2433  0.5361
 1012MOL0     H36580  11.369   0.489  11.579  3.2416  0.5780  1.8144
 1012MOL0     H36581  11.485   0.589  11.735 -1.2003 -1.4352  2.0132
 1012MOL0     H36582  11.480   0.710  12.176  1.6443 -3.9396 -0.9191
 1012MOL0     H36583  11.644   0.722  12.366  2.2257 -0.8600  0.5625
 1012MOL0     H36584  11.948   1.002  12.499 -0.3072  0.5019  0.6757
 1012MOL0     H36585  11.977   1.010  12.324  0.2436 -1.4544 -0.3163
 1012MOL0     H36586  11.859   1.199  12.405 -1.1682 -0.8521  2.1498
 1012MOL0     H36587  11.776   1.101  12.273  1.9304 -0.8804 -0.7645
 1012MOL0     H36588  11.624   1.011  12.435  1.9425 -1.2284 -1.3853
 1012MOL0     H36589  11.725   1.048  12.575 -3.3601 -1.0279  0.1039
 1012MOL0     H36590  11.650   1.294  12.413  1.0128 -1.6952 -2.0810
 1012MOL0     H36591  11.626   1.265  12.574 -4.7232  1.9866  0.2558
 1012MOL0     H36592  11.434   1.164  12.363 -1.6377 -0.0921  0.2770
 1012MOL0     H36593  11.423   1.309  12.466 -0.6590 -0.3672  0.7489
 1012MOL0     H36594  11.320   1.067  12.490  1.3144 -0.1553 -0.2620
 1012MOL0     H36595  11.437   1.067  12.627  0.7460 -0.2140 -0.2762
 1012MOL0     H36596  11.213   1.261  12.566  0.7766  0.6476  1.1385
 1012MOL0     H36597  11.342   1.306  12.677 -1.3375  2.2809 -2.1318
 1012MOL0     H36598  11.264   1.110  12.818 -0.4266  0.7561  0.7984
 1012MOL0     H36599  11.135   1.225  12.771 -1.5201 -0.7058 -0.4694
 1012MOL0     H36600  11.910   0.946  12.136  0.3639 -0.4595  0.8583
 1012MOL0     H36601  11.781   0.927  11.938 -2.0582 -3.1170 -2.4913
 1012MOL0     H36602  11.127   0.840  11.831 -0.4107 -0.1056  0.7331
 1012MOL0     H36603  11.015   0.717  11.666  0.6028 -1.2662 -1.2795
 1012MOL0     H36604  10.000   0.919  10.174 -1.3496  0.6604 -3.6213
 1012MOL0     H36605   9.822   0.938  10.023  1.5248  0.5337 -0.2161
 1012MOL0     H36606   9.654   0.583   9.625  3.0883  2.7395 -0.3253
 1012MOL0     H36607   9.478   0.538   9.480 -2.0867 -0.8371  0.5581
 1012MOL0     H36608   9.149   0.831   9.452 -0.1821  0.5965 -2.6594
 1012MOL0     H36609   9.062   0.713   9.553  1.0218  1.4052  0.5289
 1012MOL0     H36610   8.958   0.754   9.342  1.0896  1.6663 -2.1439
 1012MOL0     H36611   9.000   0.579   9.356  2.0913 -0.8485  1.2183
 1012MOL0     H36612   9.227   0.648   9.231  0.0704  1.1787  0.3760
 1012MOL0     H36613   9.150   0.797   9.209 -1.8227  1.0259 -0.9092
 1012MOL0     H36614   8.990   0.690   9.045 -1.4784 -1.9306 -1.9299
 1012MOL0     H36615   9.159   0.653   9.023 -0.7275 -0.9732 -0.6992
 1012MOL0     H36616   8.959   0.280   9.119  1.1672  0.6633 -0.3372
 1012MOL0     H36617   9.239   0.852   9.662 -0.7797 -1.2479  1.1915
 1012MOL0     H36618   9.518   0.972   9.881 -1.2984 -1.3085  4.2816
 1012MOL0     H36619   9.360   1.008   9.793  0.2077 -0.0620  0.4495
 1012MOL0     H36620   9.381   0.886   9.929  1.3325 -0.9874  0.3802
 1013MOL0     O36621   8.944  11.481   7.469 -0.4225  0.4321 -0.1334
 1013MOL0     C36622   8.928  11.579   7.398  0.1499  0.1570 -1.0936
 1013MOL0     O36623   9.004  11.694   7.410  0.2260  0.1243 -0.1372
 1013MOL0     C36624   9.109  11.700   7.502  0.2709  0.5251  0.4973
 1013MOL0     C36625   9.193  11.586   7.530  0.7668 -1.4417  0.2030
 1013MOL0     C36626   9.304  11.602   7.623 -0.5249 -0.6150 -0.1465
 1013MOL0     C36627   9.319  11.723   7.694  0.6987  0.2772 -0.3659
 1013MOL0     O36628   9.414  11.736   7.793  0.3564  0.3695 -0.6532
 1013MOL0     C36629   9.396  11.666   7.910 -0.2424 -0.0123 -0.0166
 1013MOL0     C36630   9.522  11.707   7.994 -0.1857 -0.8329 -0.4633
 1013MOL0     C36631   9.655  11.633   7.955 -0.2973  0.1513  0.7447
 1013MOL0     C36632   9.650  11.493   7.998 -0.3464  0.2236 -0.2152
 1013MOL0     C36633   9.773  11.416   7.946  0.1932 -0.2310 -0.0182
 1013MOL0     C36634   9.802  11.290   8.033 -0.8310  0.9456  0.2192
 1013MOL0     C36635   9.715  11.168   8.005 -0.4508 -1.1765  0.3163
 1013MOL0     C36636   9.692  11.137   7.856  0.8339  0.3410  0.4885
 1013MOL0     N36637   9.814  11.130   7.774  0.1798 -0.5987  0.0794
 1013MOL0     C36638   9.926  11.053   7.787 -0.0741  0.1553 -0.3716
 1013MOL0     C36639  10.004  11.081   7.675  0.2093 -0.6477  0.4411
 1013MOL0     C36640  10.127  11.023   7.647 -0.7030  0.1827 -0.2258
 1013MOL0     C36641  10.091  10.890   7.582 -0.1719  0.4560 -0.2108
 1013MOL0     C36642   9.989  10.878   7.468  0.4605 -0.9086  0.5369
 1013MOL0     C36643   9.948  10.733   7.425  0.6422  0.2346  0.3919
 1013MOL0     O36644   9.925  10.651   7.540  0.4340 -0.7452  0.6666
 1013MOL0     C36645   9.817  10.657   7.627 -0.1254 -0.0296 -0.4445
 1013MOL0     C36646   9.705  10.745   7.633 -0.3312  0.6089 -0.9435
 1013MOL0     C36647   9.618  10.744   7.734  0.1560 -1.4872  0.2871
 1013MOL0     C36648   9.626  10.655   7.838 -0.4758  0.2344  0.4921
 1013MOL0     C36649   9.520  10.643   7.937 -0.0101  0.2073  0.5421
 1013MOL0     O36650   9.443  10.754   7.969 -1.0566 -0.2841  0.0079
 1013MOL0     C36651   9.328  10.737   8.036  0.7380  1.3676 -1.0911
 1013MOL0     C36652   9.333  10.725   8.183 -0.6775 -0.9301  1.3061
 1013MOL0     C36653   9.219  10.730   8.271  0.5596  0.4155 -0.4673
 1013MOL0     C36654   9.096  10.738   8.203  0.4981  0.8326 -0.6673
 1013MOL0     O36655   8.981  10.759   8.276 -1.1541 -0.4190 -0.4943
 1013MOL0     C36656   8.967  10.896   8.303 -0.5870 -0.8967  0.1225
 1013MOL0     C36657   8.821  10.928   8.345  0.4194 -0.0867  1.0891
 1013MOL0     C36658   8.802  11.085   8.389 -0.4471 -0.2965 -1.1207
 1013MOL0     C36659   8.690  11.141   8.306  0.0123 -1.1746  0.5518
 1013MOL0     C36660   8.647  11.285   8.350 -0.3983  0.8404 -0.0691
 1013MOL0     C36661   8.752  11.392   8.302 -0.0941 -0.0348 -0.5525
 1013MOL0     C36662   8.693  11.531   8.337 -0.4170 -0.3902 -0.0740
 1013MOL0     C36663   8.780  11.651   8.326 -0.1291 -1.0554  0.5710
 1013MOL0    Cl36664   8.933  11.642   8.425 -0.2345  0.6255  0.4182
 1013MOL0     C36665   9.081  10.726   8.062  0.1837 -0.0823 -0.4477
 1013MOL0     C36666   9.197  10.721   7.989 -0.5302  0.1513 -0.0684
 1013MOL0     O36667   9.501  10.531   7.977  0.4620 -0.1454 -0.0038
 1013MOL0     C36668   9.730  10.563   7.846 -0.2637 -0.8031 -0.4744
 1013MOL0     C36669   9.822  10.558   7.738 -0.9445  0.3838  0.3152
 1013MOL0     N36670   9.941  11.179   7.601  0.6735  0.2926  0.0827
 1013MOL0     N36671   9.819  11.206   7.653 -0.7307  0.9968  0.3047
 1013MOL0     C36672   9.247  11.835   7.651 -0.2827 -0.6163  0.4285
 1013MOL0     C36673   9.147  11.824   7.552 -0.3422 -0.2122 -0.7932
 1013MOL0     C36674   8.832  11.571   7.283  0.4182 -0.1652 -0.5757
 1013MOL0     C36675   8.719  11.498   7.314 -0.3423 -0.2806 -0.0121
 1013MOL0     C36676   8.611  11.500   7.230  0.4119 -0.0383  1.2742
 1013MOL0     C36677   8.616  11.562   7.100 -0.2251 -0.7663 -0.1575
 1013MOL0     O36678   8.521  11.545   7.011 -0.9314  0.8717  0.0547
 1013MOL0     C36679   8.565  11.557   6.865 -0.1889 -0.4533 -0.9299
 1013MOL0     C36680   8.689  11.468   6.832 -0.1267  1.8693  0.6377
 1013MOL0     C36681   8.643  11.324   6.887  0.3893 -0.1111  0.0324
 1013MOL0     C36682   8.704  11.201   6.805 -0.4488 -0.0678 -0.0580
 1013MOL0     C36683   8.655  11.186   6.673 -0.0562  0.0686  0.0147
 1013MOL0     C36684   8.612  11.192   6.559  0.8021  0.0615  0.4685
 1013MOL0     C36685   8.727  11.652   7.081  0.5447 -0.7000  0.0963
 1013MOL0     C36686   8.834  11.659   7.166  0.0273 -0.3606 -0.6617
 1013MOL0     C36687   8.940  11.767   7.141  0.5304  1.0950 -0.0672
 1013MOL0     H36688   9.176  11.491   7.480 -0.9628 -0.9126 -0.2825
 1013MOL0     H36689   9.355  11.512   7.655  0.0688 -0.2222  0.0345
 1013MOL0     H36690   9.304  11.696   7.960  1.2630 -0.1197  3.0314
 1013MOL0     H36691   9.387  11.557   7.901 -0.4635 -0.0152  0.2566
 1013MOL0     H36692   9.511  11.677   8.098 -1.4704  0.7050 -0.1298
 1013MOL0     H36693   9.537  11.815   8.002  1.4007 -1.1674  2.0014
 1013MOL0     H36694   9.740  11.677   8.008 -1.4823 -0.0489  2.9232
 1013MOL0     H36695   9.669  11.634   7.846 -0.6634 -0.6797  0.6809
 1013MOL0     H36696   9.645  11.493   8.107  1.1135 -0.0802 -0.1243
 1013MOL0     H36697   9.558  11.446   7.962 -1.3787  0.5477  1.8571
 1013MOL0     H36698   9.767  11.394   7.839  3.2031  2.0705 -0.8019
 1013MOL0     H36699   9.864  11.476   7.952  0.7288 -1.1266  1.5598
 1013MOL0     H36700   9.907  11.265   8.019 -0.5059  2.2367  0.1698
 1013MOL0     H36701   9.798  11.311   8.140 -0.2125  2.8765 -0.0980
 1013MOL0     H36702   9.620  11.188   8.054  0.0287  0.6110  0.5789
 1013MOL0     H36703   9.765  11.077   8.040 -1.1196 -2.0857 -0.9668
 1013MOL0     H36704   9.640  11.041   7.861 -1.2176  1.4165  0.7445
 1013MOL0     H36705   9.623  11.207   7.808 -0.8178 -0.7552  1.1697
 1013MOL0     H36706   9.961  10.990   7.869  2.0428  3.6703  1.7147
 1013MOL0     H36707  10.189  11.081   7.577  0.3504  1.5386  1.7470
 1013MOL0     H36708  10.183  11.001   7.738 -2.7282 -0.3207  0.9519
 1013MOL0     H36709  10.186  10.850   7.546 -1.0816  0.6851 -3.1717
 1013MOL0     H36710  10.060  10.828   7.666  4.9665 -0.2398  1.5176
 1013MOL0     H36711  10.035  10.934   7.386  1.5766  0.5746  2.0960
 1013MOL0     H36712   9.900  10.929   7.505  0.3323  0.7470 -1.8666
 1013MOL0     H36713  10.017  10.672   7.366 -3.0859 -1.8723 -2.2190
 1013MOL0     H36714   9.865  10.727   7.355 -0.9748 -2.4414  2.3557
 1013MOL0     H36715   9.691  10.821   7.557  1.7562  1.4718 -0.5332
 1013MOL0     H36716   9.542  10.821   7.727  1.1938 -0.5970 -3.0717
 1013MOL0     H36717   9.434  10.717   8.223  0.0588 -1.5788 -0.5757
 1013MOL0     H36718   9.236  10.737   8.378  0.6151 -0.0031 -0.4454
 1013MOL0     H36719   9.039  10.917   8.384 -0.3844 -3.6663  0.7787
 1013MOL0     H36720   8.986  10.957   8.214 -1.3662  1.0137  1.2020
 1013MOL0     H36721   8.758  10.928   8.256 -0.3509  2.3670  1.5498
 1013MOL0     H36722   8.788  10.864   8.427 -1.7807 -0.4254  0.0173
 1013MOL0     H36723   8.787  11.090   8.498 -1.1479  1.5831 -1.2513
 1013MOL0     H36724   8.899  11.136   8.385 -1.4091  1.7462 -0.0082
 1013MOL0     H36725   8.596  11.086   8.320 -1.4039  1.2950  1.4162
 1013MOL0     H36726   8.707  11.134   8.198  1.4494 -0.8097  0.7398
 1013MOL0     H36727   8.640  11.298   8.459  2.5219 -2.6784  0.7669
 1013MOL0     H36728   8.555  11.310   8.298 -0.6795 -2.0720 -1.1778
 1013MOL0     H36729   8.852  11.379   8.345 -0.5465 -2.3605 -0.0690
 1013MOL0     H36730   8.755  11.382   8.193 -0.6911 -1.6402 -0.4559
 1013MOL0     H36731   8.665  11.527   8.443 -1.8229  1.4763 -0.3174
 1013MOL0     H36732   8.606  11.543   8.272  0.5820 -0.1523 -1.4146
 1013MOL0     H36733   8.798  11.674   8.221 -2.9608 -0.6041  0.1003
 1013MOL0     H36734   8.728  11.741   8.360  0.8824 -0.5923  0.9262
 1013MOL0     H36735   8.981  10.709   8.021  1.1186 -4.5810 -1.3908
 1013MOL0     H36736   9.187  10.711   7.882  0.3076 -4.3635  0.0725
 1013MOL0     H36737   9.733  10.486   7.921 -2.8235 -1.6081 -1.0956
 1013MOL0     H36738   9.905  10.488   7.738 -1.6259 -0.4448  1.0500
 1013MOL0     H36739   9.260  11.936   7.688  4.1994 -0.9379  0.2972
 1013MOL0     H36740   9.081  11.903   7.520  0.8836  0.2151 -2.3737
 1013MOL0     H36741   8.716  11.437   7.404  1.3735  0.4519  0.5934
 1013MOL0     H36742   8.515  11.457   7.255 -0.3318  0.6391 -0.2953
 1013MOL0     H36743   8.584  11.658   6.830 -1.4317  1.1888  2.6664
 1013MOL0     H36744   8.485  11.520   6.800  0.9650 -1.5996 -1.7479
 1013MOL0     H36745   8.779  11.510   6.877  0.9178 -0.5385  0.9186
 1013MOL0     H36746   8.705  11.453   6.725  2.2823 -1.5493  1.3048
 1013MOL0     H36747   8.534  11.329   6.891  0.4303  4.3820  0.3297
 1013MOL0     H36748   8.674  11.313   6.991 -3.0643 -1.0848  1.1187
 1013MOL0     H36749   8.811  11.222   6.810 -0.2665 -1.1838  2.2581
 1013MOL0     H36750   8.697  11.105   6.857  1.9819  0.4338  1.3489
 1013MOL0     H36751   8.589  11.206   6.455 -0.0332 -0.4574  0.5695
 1013MOL0     H36752   8.716  11.716   6.994 -1.0626  1.9543  2.0840
 1013MOL0     H36753   8.922  11.813   7.044 -2.8645  4.5275  1.8939
 1013MOL0     H36754   8.934  11.851   7.212 -1.2239  1.9187 -1.1133
 1013MOL0     H36755   9.035  11.718   7.161 -0.7819 -0.5905  2.6364
 1014MOL0     O36756   6.926   7.225   2.841  0.3698  0.2636 -0.0577
 1014MOL0     C36757   6.845   7.316   2.865 -0.3885  0.1387 -0.6041
 1014MOL0     O36758   6.879   7.440   2.921 -0.0357 -0.1424 -0.4675
 1014MOL0     C36759   7.009   7.474   2.948  0.1785 -0.5651  0.6620
 1014MOL0     C36760   7.089   7.407   3.047  0.4981 -0.2258  0.4653
 1014MOL0     C36761   7.212   7.455   3.092 -0.0364 -0.0378 -0.4302
 1014MOL0     C36762   7.258   7.583   3.047  0.3318 -0.1307  0.1493
 1014MOL0     O36763   7.347   7.662   3.115 -0.4713 -1.3527 -0.0029
 1014MOL0     C36764   7.371   7.637   3.254  0.3816  0.9809 -0.8964
 1014MOL0     C36765   7.428   7.758   3.327 -0.5096  0.8385 -0.2872
 1014MOL0     C36766   7.564   7.809   3.271 -1.0195  0.2237  0.1499
 1014MOL0     C36767   7.623   7.926   3.333  0.2823  0.0902  0.4855
 1014MOL0     C36768   7.779   7.931   3.308 -0.2235 -0.2621  0.4941
 1014MOL0     C36769   7.853   7.922   3.440 -0.7462 -0.0684  0.3456
 1014MOL0     C36770   7.848   7.781   3.506 -0.3594  0.2423 -0.3466
 1014MOL0     C36771   7.919   7.787   3.636 -0.0266  0.2912 -0.4630
 1014MOL0     N36772   7.840   7.712   3.727  0.8708 -0.2793 -0.3658
 1014MOL0     C36773   7.851   7.576   3.749  0.0047 -1.3344 -0.8441
 1014MOL0     C36774   7.745   7.533   3.821 -0.5328  0.2572  0.2640
 1014MOL0     C36775   7.717   7.394   3.871 -0.2921  0.3232  0.5034
 1014MOL0     C36776   7.573   7.373   3.895  0.0511 -0.6259 -0.3272
 1014MOL0     C36777   7.529   7.235   3.948 -0.8317  0.4782  0.3636
 1014MOL0     C36778   7.534   7.128   3.833  0.0030  0.7576 -0.4612
 1014MOL0     O36779   7.660   7.089   3.790  0.1244  0.0580  0.6921
 1014MOL0     C36780   7.757   7.019   3.869 -0.2099  0.3431 -0.4648
 1014MOL0     C36781   7.882   6.993   3.816  0.4087 -0.1650  0.7730
 1014MOL0     C36782   7.983   6.919   3.880 -0.3840 -1.0957 -0.7405
 1014MOL0     C36783   7.973   6.877   4.015  0.3922 -0.2915  0.2468
 1014MOL0     C36784   8.092   6.830   4.090  0.3285 -0.4746  0.8957
 1014MOL0     O36785   8.079   6.818   4.224 -0.1209  0.3778 -0.1702
 1014MOL0     C36786   8.187   6.772   4.289 -1.0456 -0.4625 -0.5803
 1014MOL0     C36787   8.278   6.862   4.355 -0.0421  0.6605 -0.6065
 1014MOL0     C36788   8.389   6.805   4.417 -0.4278 -0.4025  0.2034
 1014MOL0     C36789   8.418   6.675   4.418 -0.1406  0.3016 -0.3826
 1014MOL0     O36790   8.523   6.619   4.494 -0.1795 -0.3413 -0.4939
 1014MOL0     C36791   8.504   6.652   4.639 -0.1896  0.2252  0.0143
 1014MOL0     C36792   8.628   6.593   4.708 -1.1237 -0.0856 -0.0228
 1014MOL0     C36793   8.604   6.575   4.857 -1.1398  0.5085 -0.5803
 1014MOL0     C36794   8.719   6.495   4.912  0.2504  0.1444  0.5767
 1014MOL0     C36795   8.708   6.479   5.069 -0.1133  0.2921 -0.3814
 1014MOL0     C36796   8.808   6.370   5.135 -0.1219  0.5681  0.3947
 1014MOL0     C36797   8.764   6.232   5.088  0.1234  0.1561  0.2675
 1014MOL0     C36798   8.857   6.121   5.148  0.2127  1.5398  0.5576
 1014MOL0    Cl36799   9.012   6.129   5.059  0.2325 -0.6355  0.2265
 1014MOL0     C36800   8.325   6.591   4.364  0.4589  0.2119  0.6639
 1014MOL0     C36801   8.204   6.630   4.295 -0.0243 -0.8214 -1.0660
 1014MOL0     O36802   8.191   6.805   4.020 -0.0875 -0.0695 -0.1366
 1014MOL0     C36803   7.850   6.907   4.076  0.4506 -0.6088 -0.2559
 1014MOL0     C36804   7.746   6.980   4.012 -0.1917 -0.3754 -0.3317
 1014MOL0     N36805   7.670   7.652   3.846 -0.9770  0.4222 -0.0953
 1014MOL0     N36806   7.732   7.754   3.794  0.1569 -0.2456 -1.0316
 1014MOL0     C36807   7.185   7.645   2.944 -0.3181  0.1202  0.0724
 1014MOL0     C36808   7.065   7.591   2.904  0.9110 -0.1463 -0.5045
 1014MOL0     C36809   6.696   7.280   2.865  0.7192 -0.4800 -0.5176
 1014MOL0     C36810   6.596   7.379   2.914  0.5685 -0.4515 -0.4250
 1014MOL0     C36811   6.466   7.351   2.888  0.7968 -0.2661  0.1323
 1014MOL0     C36812   6.422   7.240   2.824 -0.4661  0.1226  1.2672
 1014MOL0     O36813   6.295   7.222   2.782 -0.1410 -0.2494  0.0837
 1014MOL0     C36814   6.278   7.277   2.649 -0.0673  0.7019 -0.0321
 1014MOL0     C36815   6.218   7.175   2.549 -0.1179  0.1358 -0.1750
 1014MOL0     C36816   6.077   7.123   2.578  0.2306  0.6140 -1.3633
 1014MOL0     C36817   6.019   7.058   2.458 -0.8996  0.0387  0.1141
 1014MOL0     C36818   5.990   7.155   2.343 -1.0590 -0.2000  0.3451
 1014MOL0     C36819   5.961   7.229   2.249 -0.2145  0.3662  1.0027
 1014MOL0     C36820   6.509   7.142   2.787  0.2846 -0.1487  0.7547
 1014MOL0     C36821   6.641   7.159   2.808 -0.5682 -1.0491  0.6864
 1014MOL0     C36822   6.709   7.037   2.759 -0.4225 -0.5635  0.6155
 1014MOL0     H36823   7.054   7.311   3.084 -1.4139 -0.1107 -0.8687
 1014MOL0     H36824   7.262   7.407   3.176  0.8144  0.3139 -0.7173
 1014MOL0     H36825   7.276   7.611   3.304  2.1942 -1.0134  1.7976
 1014MOL0     H36826   7.436   7.551   3.272 -1.9745 -0.8831 -0.7219
 1014MOL0     H36827   7.448   7.724   3.429  3.8435  2.1614 -0.4636
 1014MOL0     H36828   7.352   7.837   3.330  2.0290  3.5206 -1.2121
 1014MOL0     H36829   7.538   7.832   3.167  0.6053 -2.1659 -0.8530
 1014MOL0     H36830   7.634   7.726   3.277 -1.4506 -0.4289 -2.6111
 1014MOL0     H36831   7.575   8.021   3.308 -0.0807 -0.7116 -2.1721
 1014MOL0     H36832   7.594   7.927   3.439 -1.1513 -1.0364  0.1437
 1014MOL0     H36833   7.809   7.853   3.237  0.5267  1.4700 -1.1959
 1014MOL0     H36834   7.802   8.023   3.253 -3.0354  1.6993  2.3431
 1014MOL0     H36835   7.955   7.959   3.429 -1.0559  1.8213  2.8031
 1014MOL0     H36836   7.812   7.995   3.511  1.7436  1.5208  0.2677
 1014MOL0     H36837   7.896   7.710   3.438 -1.0707  0.3426 -0.9653
 1014MOL0     H36838   7.740   7.766   3.516 -0.4776 -0.0409 -1.8723
 1014MOL0     H36839   8.019   7.746   3.622  0.1597  0.4239  0.4017
 1014MOL0     H36840   7.929   7.886   3.682  1.3890  2.5645 -5.0974
 1014MOL0     H36841   7.936   7.521   3.710  0.5032 -1.4454  0.3575
 1014MOL0     H36842   7.758   7.313   3.809  0.3987  1.4428 -0.5596
 1014MOL0     H36843   7.753   7.393   3.974 -0.2861  2.4105  0.5668
 1014MOL0     H36844   7.553   7.448   3.972  2.9638 -0.3937  0.3415
 1014MOL0     H36845   7.516   7.394   3.803 -1.0345  1.2406  0.7099
 1014MOL0     H36846   7.433   7.236   4.000  1.2557  0.0299  4.7431
 1014MOL0     H36847   7.606   7.194   4.015  1.1726 -2.1134 -3.1817
 1014MOL0     H36848   7.475   7.152   3.744  0.1246 -1.4709 -1.1866
 1014MOL0     H36849   7.491   7.039   3.879  0.9621  0.1940 -0.6313
 1014MOL0     H36850   7.895   7.009   3.710  2.3859 -3.4423  0.3836
 1014MOL0     H36851   8.075   6.896   3.829 -0.7338 -4.0271 -0.2339
 1014MOL0     H36852   8.273   6.970   4.365  1.8356  0.8634 -1.3730
 1014MOL0     H36853   8.455   6.873   4.470  0.2102 -0.5679 -0.3543
 1014MOL0     H36854   8.493   6.758   4.664 -1.2600  0.0821  0.2205
 1014MOL0     H36855   8.418   6.593   4.672  0.7760 -2.3171 -1.6552
 1014MOL0     H36856   8.669   6.510   4.650  3.9365  1.2534  1.1247
 1014MOL0     H36857   8.707   6.667   4.688 -3.0368  1.6096 -1.7329
 1014MOL0     H36858   8.617   6.676   4.898  0.5178  0.2441 -0.4015
 1014MOL0     H36859   8.506   6.535   4.887 -1.6561  1.4175 -1.0223
 1014MOL0     H36860   8.817   6.522   4.871  1.1203 -2.7647  0.4799
 1014MOL0     H36861   8.709   6.394   4.872 -0.5468 -0.3175  1.8884
 1014MOL0     H36862   8.607   6.480   5.109 -0.2336 -2.2020 -0.5200
 1014MOL0     H36863   8.749   6.577   5.098  1.2073  0.0295 -1.2711
 1014MOL0     H36864   8.904   6.400   5.092 -1.0254  2.6952 -0.2728
 1014MOL0     H36865   8.817   6.383   5.243  2.2106  1.2467  0.1663
 1014MOL0     H36866   8.750   6.223   4.980  0.1216  0.8807  0.2043
 1014MOL0     H36867   8.667   6.215   5.135 -0.0298  1.7348  0.5500
 1014MOL0     H36868   8.866   6.126   5.257 -1.6996 -1.9051  1.0121
 1014MOL0     H36869   8.809   6.024   5.134  2.5967 -0.0797  2.7106
 1014MOL0     H36870   8.342   6.484   4.361 -0.8696  0.0127 -0.7247
 1014MOL0     H36871   8.120   6.572   4.258  1.8306 -2.1790 -3.4660
 1014MOL0     H36872   7.845   6.882   4.181  2.1138  0.7186  0.1686
 1014MOL0     H36873   7.659   7.010   4.069 -0.3426  0.6716 -1.0893
 1014MOL0     H36874   7.222   7.744   2.918 -2.4913  0.2114 -3.2088
 1014MOL0     H36875   6.986   7.642   2.849 -3.0645 -5.3012 -0.4109
 1014MOL0     H36876   6.618   7.466   2.975 -1.8563  0.9345 -1.4182
 1014MOL0     H36877   6.400   7.432   2.916  1.0309 -0.2813  0.7594
 1014MOL0     H36878   6.371   7.311   2.603 -0.7689  1.9916 -0.5772
 1014MOL0     H36879   6.212   7.365   2.644  0.7550  1.2769 -0.9809
 1014MOL0     H36880   6.286   7.090   2.540 -1.9510 -1.9420  3.3849
 1014MOL0     H36881   6.235   7.229   2.455 -0.1128  0.9704  0.2870
 1014MOL0     H36882   6.002   7.197   2.609  0.9187  0.4628  0.8049
 1014MOL0     H36883   6.081   7.056   2.665 -2.3635  3.4000  1.1621
 1014MOL0     H36884   6.086   6.980   2.420 -1.8465 -1.0481  0.5895
 1014MOL0     H36885   5.920   7.016   2.479 -1.3769  0.4678 -1.1924
 1014MOL0     H36886   5.932   7.292   2.168  1.2072 -0.3719 -0.1135
 1014MOL0     H36887   6.454   7.059   2.742  0.4702  1.0872 -1.9366
 1014MOL0     H36888   6.637   6.959   2.737 -1.1085 -0.7844  3.2937
 1014MOL0     H36889   6.776   7.060   2.676 -0.5877  0.4386  0.7477
 1014MOL0     H36890   6.763   7.000   2.847 -1.8602 -0.9805  1.3573
 1015MOL0     O36891   6.030   7.357  10.933  0.0422  0.1435 -0.4219
 1015MOL0     C36892   5.960   7.335  10.836  0.5579  0.0898 -0.1774
 1015MOL0     O36893   5.893   7.436  10.762 -0.4588  0.5733 -0.0611
 1015MOL0     C36894   5.964   7.548  10.774  0.2415 -0.4092  1.0954
 1015MOL0     C36895   6.099   7.568  10.731  0.4392  0.3126 -1.0079
 1015MOL0     C36896   6.165   7.695  10.760 -0.4530 -0.1423  0.2316
 1015MOL0     C36897   6.096   7.797  10.829 -0.2732  0.1583 -0.6332
 1015MOL0     O36898   6.149   7.925  10.855 -0.1737  0.4777  0.1684
 1015MOL0     C36899   6.291   7.936  10.880 -0.6173  0.9812  0.6819
 1015MOL0     C36900   6.330   8.067  10.924  1.4613  0.4652  0.6831
 1015MOL0     C36901   6.251   8.095  11.059  0.4347  0.4092 -0.3793
 1015MOL0     C36902   6.292   8.236  11.123  0.0319  1.1991 -0.9863
 1015MOL0     C36903   6.239   8.235  11.264  0.2964  0.3909  0.5165
 1015MOL0     C36904   6.246   8.378  11.325  0.5002 -0.5733 -0.1885
 1015MOL0     C36905   6.204   8.388  11.470  0.5066 -0.2382 -0.1836
 1015MOL0     C36906   6.297   8.306  11.562  0.1423  0.5781  0.3830
 1015MOL0     N36907   6.437   8.359  11.576  0.1183  0.6771  0.3790
 1015MOL0     C36908   6.490   8.453  11.667 -0.1282 -0.2713  0.5397
 1015MOL0     C36909   6.623   8.432  11.647  0.1887 -0.1106  0.3714
 1015MOL0     C36910   6.728   8.519  11.700 -0.0068  0.2754 -0.1632
 1015MOL0     C36911   6.700   8.675  11.652 -1.4876 -0.4020 -0.5780
 1015MOL0     C36912   6.809   8.764  11.696 -0.3138 -0.7341 -0.5082
 1015MOL0     C36913   6.776   8.919  11.705 -0.6137  0.3655 -0.5307
 1015MOL0     O36914   6.894   9.003  11.724 -0.0651 -0.2304  0.0406
 1015MOL0     C36915   6.980   9.009  11.611  0.0723  0.0222 -0.2908
 1015MOL0     C36916   7.112   8.957  11.612 -1.0273 -0.6050  0.0236
 1015MOL0     C36917   7.193   8.975  11.497 -0.1186  0.1544 -0.7263
 1015MOL0     C36918   7.145   9.048  11.385 -1.4367 -0.4761  1.2858
 1015MOL0     C36919   7.222   9.073  11.265  0.2766  0.0399 -0.1065
 1015MOL0     O36920   7.139   9.112  11.163  0.0971  0.6902 -0.9193
 1015MOL0     C36921   7.195   9.107  11.037 -0.3800  0.5229 -0.2575
 1015MOL0     C36922   7.264   9.214  10.974  0.1718  0.9425  0.0423
 1015MOL0     C36923   7.327   9.198  10.853  0.0785 -0.3274 -0.5312
 1015MOL0     C36924   7.311   9.082  10.781  0.0561  1.0171 -0.7572
 1015MOL0     O36925   7.361   9.057  10.660  0.2021 -0.4099  0.1438
 1015MOL0     C36926   7.481   9.113  10.608 -0.2234  0.5533  0.7697
 1015MOL0     C36927   7.536   9.001  10.511  0.4080  0.0529  0.1605
 1015MOL0     C36928   7.619   8.897  10.582 -0.6701  0.5567  0.3324
 1015MOL0     C36929   7.562   8.814  10.702  1.0032  0.1246  0.4085
 1015MOL0     C36930   7.672   8.726  10.763  0.3752 -0.0538  0.2056
 1015MOL0     C36931   7.752   8.789  10.874 -0.0709  0.2704  0.4799
 1015MOL0     C36932   7.859   8.695  10.914 -0.1197  0.6545 -0.5046
 1015MOL0     C36933   7.802   8.593  11.013  0.7524 -0.8331  0.3959
 1015MOL0    Cl36934   7.811   8.666  11.181 -0.2996 -0.1205  0.7653
 1015MOL0     C36935   7.238   8.978  10.839  0.3656  0.1183  0.1618
 1015MOL0     C36936   7.184   8.984  10.969  0.4614  0.2619  0.2821
 1015MOL0     O36937   7.345   9.058  11.266  0.3236  0.1832 -0.4413
 1015MOL0     C36938   7.021   9.100  11.391  1.2954  0.5661  0.0106
 1015MOL0     C36939   6.942   9.096  11.512  0.0606  0.7677  0.2324
 1015MOL0     N36940   6.647   8.326  11.571  0.3266 -0.6033  0.1509
 1015MOL0     N36941   6.537   8.286  11.523 -0.0571  0.4867  0.6347
 1015MOL0     C36942   5.964   7.765  10.867 -0.0112 -0.2470  0.1001
 1015MOL0     C36943   5.902   7.648  10.836  0.1679 -0.0214 -0.2084
 1015MOL0     C36944   5.921   7.189  10.812 -0.6325  0.1143 -0.4672
 1015MOL0     C36945   5.820   7.161  10.713 -0.1366 -0.1550  0.1962
 1015MOL0     C36946   5.804   7.031  10.666  0.6602 -0.5477 -0.2300
 1015MOL0     C36947   5.882   6.924  10.721 -0.1132  0.3381  0.1346
 1015MOL0     O36948   5.869   6.796  10.674  0.1911  0.2535  0.0763
 1015MOL0     C36949   5.838   6.784  10.528 -0.1061  0.1892  0.1244
 1015MOL0     C36950   5.951   6.730  10.439  0.1710 -1.0694 -0.9258
 1015MOL0     C36951   6.021   6.607  10.502 -0.9130  0.2021 -0.0051
 1015MOL0     C36952   6.141   6.552  10.416 -0.1908  0.9592 -0.8060
 1015MOL0     C36953   6.088   6.502  10.285  0.1060 -0.6428  0.0168
 1015MOL0     C36954   6.054   6.470  10.174 -0.6517 -0.1615  0.4041
 1015MOL0     C36955   5.973   6.954  10.822  0.5720  0.5758 -0.2463
 1015MOL0     C36956   6.001   7.084  10.861  0.5529  0.6499 -0.1838
 1015MOL0     C36957   6.127   7.098  10.949  0.0619  0.6798 -0.1949
 1015MOL0     H36958   6.154   7.488  10.682  2.3962  1.2916 -0.5265
 1015MOL0     H36959   6.261   7.712  10.712 -0.8808  3.1990  0.3131
 1015MOL0     H36960   6.316   7.856  10.950 -0.5833  0.6912  0.3443
 1015MOL0     H36961   6.343   7.921  10.785 -1.3825  3.5554 -0.2327
 1015MOL0     H36962   6.310   8.146  10.850  1.4859  1.1554  1.3960
 1015MOL0     H36963   6.435   8.053  10.953  0.9970 -0.0100  2.2232
 1015MOL0     H36964   6.262   8.007  11.123  2.4826 -0.2641 -1.5690
 1015MOL0     H36965   6.142   8.103  11.047  0.3554 -0.1827 -0.1240
 1015MOL0     H36966   6.401   8.234  11.133 -0.1057 -0.1178  0.6388
 1015MOL0     H36967   6.247   8.321  11.069  1.4052  2.7710  0.2307
 1015MOL0     H36968   6.135   8.202  11.258 -0.3903  2.6651 -1.2139
 1015MOL0     H36969   6.294   8.171  11.334  2.7437  3.2462  1.3923
 1015MOL0     H36970   6.348   8.416  11.337 -0.1304  0.7101  1.3534
 1015MOL0     H36971   6.196   8.457  11.269  0.6013 -0.2876  0.1194
 1015MOL0     H36972   6.100   8.358  11.485  0.6295 -1.8498 -2.0937
 1015MOL0     H36973   6.234   8.492  11.485  3.4890 -1.0305 -0.1407
 1015MOL0     H36974   6.253   8.302  11.662  1.5412 -1.0988  0.9801
 1015MOL0     H36975   6.312   8.202  11.531  0.6888  0.6628  0.3561
 1015MOL0     H36976   6.448   8.532  11.728 -0.1528 -1.7058  2.4576
 1015MOL0     H36977   6.739   8.498  11.807  2.6259  1.1752 -0.1880
 1015MOL0     H36978   6.826   8.496  11.657  1.2841  3.3274  0.8601
 1015MOL0     H36979   6.689   8.682  11.544  1.0784  5.7142 -0.8322
 1015MOL0     H36980   6.616   8.719  11.707 -0.4113 -0.6734  1.3732
 1015MOL0     H36981   6.891   8.770  11.624 -0.8273  1.7794 -0.9829
 1015MOL0     H36982   6.851   8.735  11.793  0.2637 -1.7353 -1.0459
 1015MOL0     H36983   6.705   8.940  11.786 -1.2771  0.7133 -1.1948
 1015MOL0     H36984   6.722   8.951  11.616 -2.4759  0.6402  0.6472
 1015MOL0     H36985   7.159   8.905  11.694  1.4150 -1.3303 -1.7177
 1015MOL0     H36986   7.295   8.937  11.493 -0.5450 -0.9460 -1.7165
 1015MOL0     H36987   7.284   9.303  11.032  1.9432 -0.1102  1.1529
 1015MOL0     H36988   7.378   9.291  10.831 -1.3191  0.5541 -0.1909
 1015MOL0     H36989   7.458   9.211  10.567 -1.0291  0.3752  0.7821
 1015MOL0     H36990   7.557   9.131  10.685 -1.1668  1.1502  1.5952
 1015MOL0     H36991   7.457   8.951  10.454 -0.0665 -2.0510  2.4922
 1015MOL0     H36992   7.595   9.052  10.435  0.9980  0.8247  1.1074
 1015MOL0     H36993   7.657   8.832  10.502 -1.3887 -0.6287  0.9321
 1015MOL0     H36994   7.713   8.946  10.610  1.2172  2.9932 -7.7390
 1015MOL0     H36995   7.471   8.758  10.681  0.0441  2.2374 -1.3998
 1015MOL0     H36996   7.527   8.887  10.777 -2.1635  1.4432 -2.1094
 1015MOL0     H36997   7.738   8.699  10.680 -1.1299 -2.0566 -0.4425
 1015MOL0     H36998   7.635   8.626  10.790  0.7403 -0.8675 -2.0373
 1015MOL0     H36999   7.787   8.887  10.839  0.1601  0.7386  1.9663
 1015MOL0     H37000   7.680   8.802  10.956  1.8565  3.5413  1.8458
 1015MOL0     H37001   7.945   8.735  10.967 -1.0143  2.8702 -0.6017
 1015MOL0     H37002   7.896   8.635  10.830  1.9561  0.8406  0.2193
 1015MOL0     H37003   7.695   8.569  11.004 -1.8475  7.8366 -2.0727
 1015MOL0     H37004   7.879   8.515  11.007  1.4009 -0.1601 -0.1630
 1015MOL0     H37005   7.213   8.899  10.768 -1.5944  3.9527 -3.9333
 1015MOL0     H37006   7.124   8.902  11.008 -0.5438  1.2868  0.9682
 1015MOL0     H37007   6.978   9.156  11.309  1.8007  1.6734  0.4926
 1015MOL0     H37008   6.837   9.122  11.505  0.0960  1.6775  2.2637
 1015MOL0     H37009   5.905   7.832  10.929  2.3019  1.6120  0.4303
 1015MOL0     H37010   5.801   7.624  10.867  0.7241  0.0157  1.7335
 1015MOL0     H37011   5.762   7.240  10.665 -3.0987 -1.4689  1.3563
 1015MOL0     H37012   5.721   7.013  10.598  2.8967 -0.7266 -3.1168
 1015MOL0     H37013   5.795   6.875  10.486 -0.1512  0.3506  0.5127
 1015MOL0     H37014   5.761   6.707  10.518 -1.8065  1.9251 -0.5189
 1015MOL0     H37015   6.025   6.806  10.416 -0.8991 -0.3149 -1.9985
 1015MOL0     H37016   5.905   6.716  10.341 -0.4901  0.8386 -0.9218
 1015MOL0     H37017   5.940   6.535  10.518 -0.7029  0.1259  0.7947
 1015MOL0     H37018   6.070   6.619  10.600 -0.1033  0.3924 -0.4258
 1015MOL0     H37019   6.217   6.628  10.396  2.3895 -0.7501  1.7130
 1015MOL0     H37020   6.193   6.468  10.461  0.5040  2.3100  1.0333
 1015MOL0     H37021   6.013   6.441  10.080 -1.5139 -2.0621  1.2993
 1015MOL0     H37022   6.021   6.870  10.870  1.6882  1.7674  0.7739
 1015MOL0     H37023   6.211   7.132  10.887  0.4576 -1.6486 -1.0394
 1015MOL0     H37024   6.115   7.167  11.033 -0.3249 -0.9631  1.1621
 1015MOL0     H37025   6.150   6.996  10.983  0.1664  0.2818 -1.3862
 1016MOL0     O37026   6.115   0.828   4.904 -0.4264  0.4299 -0.7941
 1016MOL0     C37027   6.047   0.731   4.866 -0.0899  0.3604 -0.1648
 1016MOL0     O37028   6.101   0.617   4.814  0.2511 -0.4481  0.3338
 1016MOL0     C37029   6.240   0.612   4.808 -0.5077 -0.2009  0.3482
 1016MOL0     C37030   6.312   0.683   4.713  0.1339  0.2027  0.2393
 1016MOL0     C37031   6.452   0.687   4.709  0.4521 -0.4143  0.5067
 1016MOL0     C37032   6.518   0.607   4.792 -0.3097 -0.0240  0.0059
 1016MOL0     O37033   6.652   0.600   4.801 -0.3081  0.6231  0.4275
 1016MOL0     C37034   6.742   0.668   4.715 -0.0761 -0.2708  1.4359
 1016MOL0     C37035   6.873   0.597   4.746  0.4805 -0.4690  0.0504
 1016MOL0     C37036   6.991   0.682   4.684 -0.4079  0.6631  1.1860
 1016MOL0     C37037   7.098   0.591   4.633 -0.1004  0.0166  0.1351
 1016MOL0     C37038   7.197   0.686   4.558 -0.0619  0.5460  0.5184
 1016MOL0     C37039   7.285   0.604   4.461  0.3241  0.7117 -0.3866
 1016MOL0     C37040   7.388   0.699   4.396 -0.0855  0.3115 -0.5024
 1016MOL0     C37041   7.507   0.628   4.338 -0.2301 -0.1213  0.4969
 1016MOL0     N37042   7.591   0.719   4.263  0.5264  0.3765  0.2344
 1016MOL0     C37043   7.645   0.835   4.319  0.1386 -0.1764  0.3926
 1016MOL0     C37044   7.706   0.892   4.210 -0.4794 -0.4733  0.2552
 1016MOL0     C37045   7.792   1.010   4.219  0.0825 -0.0432  0.0943
 1016MOL0     C37046   7.782   1.103   4.094 -0.5737 -0.7132  0.3413
 1016MOL0     C37047   7.878   1.221   4.120 -0.1733 -0.6449  0.4644
 1016MOL0     C37048   7.860   1.325   4.013  0.1330  0.5362  0.9490
 1016MOL0     O37049   7.919   1.454   4.050 -0.2819  0.0821  0.4719
 1016MOL0     C37050   8.058   1.472   4.041  0.6088 -0.4892 -1.2125
 1016MOL0     C37051   8.149   1.373   4.003 -0.0597 -0.2485  0.3535
 1016MOL0     C37052   8.285   1.401   4.010  0.9554 -0.8997 -0.5553
 1016MOL0     C37053   8.330   1.533   4.036 -1.0352 -0.1777  0.2062
 1016MOL0     C37054   8.479   1.554   4.048  0.3216 -0.1577  1.2435
 1016MOL0     O37055   8.551   1.445   4.026 -0.7486  0.3494  0.0008
 1016MOL0     C37056   8.685   1.462   4.006 -0.3595  0.6503 -0.0932
 1016MOL0     C37057   8.754   1.412   3.892  0.5139  0.6491 -0.0441
 1016MOL0     C37058   8.883   1.428   3.873  0.2696 -0.0595 -0.2224
 1016MOL0     C37059   8.964   1.493   3.969 -0.2052 -0.4916  0.6011
 1016MOL0     O37060   9.102   1.487   3.936 -0.4164 -0.9132 -0.1167
 1016MOL0     C37061   9.195   1.504   4.043 -0.7382  0.0213  0.0211
 1016MOL0     C37062   9.338   1.511   3.989  0.1018  0.5682  0.1569
 1016MOL0     C37063   9.355   1.616   3.874  0.1552  0.1274  0.1609
 1016MOL0     C37064   9.368   1.756   3.924  0.1008 -0.8206 -0.0404
 1016MOL0     C37065   9.350   1.860   3.814  0.1276 -0.3156  0.4777
 1016MOL0     C37066   9.470   1.896   3.740  0.1666 -1.1902 -0.1876
 1016MOL0     C37067   9.429   2.029   3.657  0.1676  0.3558 -1.1506
 1016MOL0     C37068   9.530   2.068   3.549  0.2463  0.1723 -0.0007
 1016MOL0    Cl37069   9.571   1.930   3.442 -0.5970  0.1010  0.2400
 1016MOL0     C37070   8.903   1.538   4.086 -0.0382 -0.6910 -1.1026
 1016MOL0     C37071   8.766   1.521   4.104 -0.0091 -0.4536  0.9712
 1016MOL0     O37072   8.517   1.672   4.059 -0.1985  0.3120 -0.3171
 1016MOL0     C37073   8.242   1.632   4.062  0.0522  1.7599  0.0856
 1016MOL0     C37074   8.112   1.601   4.073  0.3008 -1.0658  0.3592
 1016MOL0     N37075   7.663   0.816   4.105 -0.1698  0.1210  1.3422
 1016MOL0     N37076   7.617   0.703   4.131  0.5254 -0.0734  0.1828
 1016MOL0     C37077   6.440   0.523   4.876 -0.1110  1.4685 -0.0011
 1016MOL0     C37078   6.310   0.520   4.883 -0.7151 -0.1967 -0.7340
 1016MOL0     C37079   5.892   0.740   4.864 -0.4862  0.3655 -0.5348
 1016MOL0     C37080   5.833   0.680   4.746 -0.2746 -0.0877 -1.1278
 1016MOL0     C37081   5.691   0.703   4.736 -0.4216 -0.2548  0.0248
 1016MOL0     C37082   5.619   0.753   4.839 -0.5130  1.9637 -1.1649
 1016MOL0     O37083   5.484   0.756   4.829  0.3426 -0.6178 -0.3504
 1016MOL0     C37084   5.412   0.659   4.903 -0.3319  0.0005  0.3362
 1016MOL0     C37085   5.268   0.670   4.858  0.3882 -0.5327 -0.1908
 1016MOL0     C37086   5.248   0.629   4.708  0.0413  0.5993 -0.5812
 1016MOL0     C37087   5.102   0.599   4.660 -0.1795 -0.5323  0.6179
 1016MOL0     C37088   5.053   0.481   4.729  1.0484 -0.1971 -0.6613
 1016MOL0     C37089   5.017   0.389   4.799 -0.9268  0.7096 -0.7354
 1016MOL0     C37090   5.678   0.805   4.948 -0.8306  0.2630  0.4440
 1016MOL0     C37091   5.814   0.804   4.963 -0.2827 -0.1872  0.8758
 1016MOL0     C37092   5.866   0.871   5.089 -0.4900  0.5838  0.4038
 1016MOL0     H37093   6.246   0.741   4.649  0.9289  1.8790  0.8837
 1016MOL0     H37094   6.514   0.737   4.635 -0.7663 -2.4812 -2.0684
 1016MOL0     H37095   6.704   0.647   4.614  1.9873  0.9021  0.3349
 1016MOL0     H37096   6.761   0.774   4.730  0.0471  0.0784 -0.7453
 1016MOL0     H37097   6.865   0.493   4.713 -1.0646 -0.5725  0.6610
 1016MOL0     H37098   6.886   0.592   4.855 -0.8683 -0.0614  0.2450
 1016MOL0     H37099   7.029   0.748   4.762 -2.7549  2.7742  0.6858
 1016MOL0     H37100   6.949   0.754   4.613  0.0782 -0.7260 -0.5738
 1016MOL0     H37101   7.143   0.539   4.718 -0.7255 -0.2341  0.3233
 1016MOL0     H37102   7.047   0.531   4.557 -1.3374  2.8862 -1.4648
 1016MOL0     H37103   7.136   0.751   4.495 -0.2010  0.0191  0.0958
 1016MOL0     H37104   7.257   0.737   4.634 -0.1621  2.9052 -0.9003
 1016MOL0     H37105   7.332   0.515   4.504 -0.8527  0.1048 -0.3096
 1016MOL0     H37106   7.223   0.570   4.378  1.8877 -0.2920 -1.1879
 1016MOL0     H37107   7.418   0.784   4.458  2.4450  0.4395 -1.7683
 1016MOL0     H37108   7.336   0.754   4.316 -1.8358  0.8798  0.9601
 1016MOL0     H37109   7.569   0.581   4.415  1.2161  1.1368  0.1430
 1016MOL0     H37110   7.482   0.546   4.270  0.3863  0.2408 -0.1760
 1016MOL0     H37111   7.642   0.873   4.421 -0.9649 -0.8879  0.6403
 1016MOL0     H37112   7.766   1.060   4.312 -0.8154 -2.6891  1.3594
 1016MOL0     H37113   7.898   0.982   4.228  0.1274  0.0193 -0.2161
 1016MOL0     H37114   7.818   1.045   4.008  0.4358 -0.0360  0.2881
 1016MOL0     H37115   7.681   1.143   4.086  0.0791  0.6518 -4.6067
 1016MOL0     H37116   7.979   1.178   4.124 -0.3775 -1.0701  1.3779
 1016MOL0     H37117   7.858   1.265   4.218  3.2849  0.0522  0.9819
 1016MOL0     H37118   7.751   1.333   4.002  0.4486  2.6498 -1.6063
 1016MOL0     H37119   7.897   1.315   3.911 -1.6026  2.5367  0.0360
 1016MOL0     H37120   8.119   1.270   3.986  2.0214 -0.9365  0.4929
 1016MOL0     H37121   8.354   1.317   4.002  0.0262 -1.6360 -1.0707
 1016MOL0     H37122   8.695   1.358   3.818 -1.8661  1.0975  1.4354
 1016MOL0     H37123   8.928   1.387   3.783 -2.3171 -1.7436 -0.8456
 1016MOL0     H37124   9.172   1.602   4.088 -0.2828  0.5713 -0.9108
 1016MOL0     H37125   9.198   1.421   4.114 -1.6133  0.3599  0.4683
 1016MOL0     H37126   9.410   1.522   4.070  1.7945 -0.8587 -1.0881
 1016MOL0     H37127   9.360   1.410   3.955 -2.9036 -0.4824  0.9976
 1016MOL0     H37128   9.446   1.590   3.817  0.8166  3.8455 -0.7498
 1016MOL0     H37129   9.270   1.603   3.807 -1.3457  2.7874  1.3921
 1016MOL0     H37130   9.459   1.774   3.982  1.2794 -0.1235 -1.9914
 1016MOL0     H37131   9.287   1.771   3.995  0.8155 -0.1098  0.6476
 1016MOL0     H37132   9.307   1.947   3.863  0.8879 -0.1568  0.8777
 1016MOL0     H37133   9.280   1.824   3.738 -0.3288  1.2759  0.0998
 1016MOL0     H37134   9.552   1.913   3.810 -0.7105 -4.0512  1.6613
 1016MOL0     H37135   9.498   1.812   3.676 -1.8917 -1.3237 -0.9833
 1016MOL0     H37136   9.420   2.121   3.716  0.3886  1.6746 -3.0615
 1016MOL0     H37137   9.328   2.017   3.617 -0.2456  2.1179 -0.7219
 1016MOL0     H37138   9.492   2.140   3.476 -0.1251 -0.3251 -0.3082
 1016MOL0     H37139   9.618   2.109   3.600  1.4803 -0.0274 -1.8703
 1016MOL0     H37140   8.964   1.598   4.153 -2.4119  2.0199 -1.1659
 1016MOL0     H37141   8.721   1.568   4.191 -3.3473 -0.4094 -0.6275
 1016MOL0     H37142   8.264   1.738   4.064  0.6737  1.8229 -3.3510
 1016MOL0     H37143   8.036   1.678   4.084 -1.0602 -2.3641  0.4560
 1016MOL0     H37144   6.490   0.449   4.937 -1.6808 -0.8236 -1.3558
 1016MOL0     H37145   6.258   0.455   4.953  2.0034 -3.0053 -1.0915
 1016MOL0     H37146   5.884   0.632   4.662  0.8859 -1.4044  0.2585
 1016MOL0     H37147   5.629   0.677   4.651 -1.6231  5.3734 -1.1780
 1016MOL0     H37148   5.416   0.683   5.010 -0.5766 -0.2110  0.3942
 1016MOL0     H37149   5.448   0.556   4.896 -2.9114 -0.8922 -1.1787
 1016MOL0     H37150   5.228   0.771   4.872  3.4707  1.1247 -2.2495
 1016MOL0     H37151   5.209   0.603   4.922 -0.3034  1.1323  0.9882
 1016MOL0     H37152   5.312   0.548   4.668 -1.6713  0.0056 -2.2901
 1016MOL0     H37153   5.279   0.712   4.644  1.7184 -0.3388 -1.0756
 1016MOL0     H37154   5.040   0.686   4.682 -0.2571 -0.1474 -1.0278
 1016MOL0     H37155   5.097   0.570   4.555 -0.9763  0.6416  0.3136
 1016MOL0     H37156   5.000   0.316   4.875 -1.7140  2.0379  0.4182
 1016MOL0     H37157   5.601   0.850   5.009  1.4473  1.8540  2.2848
 1016MOL0     H37158   5.964   0.831   5.114 -1.0705 -1.3235 -0.2325
 1016MOL0     H37159   5.870   0.976   5.056  0.7826 -0.5137 -3.4347
 1016MOL0     H37160   5.809   0.830   5.172  0.2093 -1.0646  0.1023
 1017MOL0     O37161   9.134   1.026   9.035  0.0283  0.0865 -0.5933
 1017MOL0     C37162   9.084   1.113   8.957  0.3763  0.0445  0.0346
 1017MOL0     O37163   9.155   1.216   8.907  0.1033  0.2938  0.8591
 1017MOL0     C37164   9.266   1.258   8.971 -0.2663 -0.5159  0.4456
 1017MOL0     C37165   9.386   1.193   8.940  0.6199  0.3768  0.6226
 1017MOL0     C37166   9.503   1.251   8.983 -0.0205 -1.1925  0.3118
 1017MOL0     C37167   9.500   1.365   9.068 -0.0002  0.0447 -0.3572
 1017MOL0     O37168   9.625   1.405   9.106  0.1409 -0.5373 -0.0454
 1017MOL0     C37169   9.641   1.529   9.182  0.3580  0.6913 -0.6230
 1017MOL0     C37170   9.595   1.638   9.078 -0.5914  0.7603 -0.1997
 1017MOL0     C37171   9.660   1.773   9.113 -0.9007 -0.2787 -0.1142
 1017MOL0     C37172   9.817   1.793   9.111  0.2778 -0.5555 -0.3158
 1017MOL0     C37173   9.868   1.936   9.141  0.1097  0.8055 -0.0759
 1017MOL0     C37174  10.005   1.937   9.107 -0.7925  1.5734 -1.0163
 1017MOL0     C37175  10.097   1.866   9.214  1.6673 -0.2057 -0.1124
 1017MOL0     C37176  10.239   1.907   9.181  0.6541  0.4328 -0.1633
 1017MOL0     N37177  10.332   1.841   9.275 -0.8485  0.8235 -0.0014
 1017MOL0     C37178  10.368   1.707   9.267 -0.8024  0.2044  0.1824
 1017MOL0     C37179  10.453   1.698   9.370 -0.9280  0.3812 -0.4071
 1017MOL0     C37180  10.520   1.574   9.421 -0.2582  0.4456  0.5459
 1017MOL0     C37181  10.673   1.613   9.437 -1.3872 -0.0236  0.1962
 1017MOL0     C37182  10.764   1.492   9.484 -0.6506 -1.3773  0.5509
 1017MOL0     C37183  10.909   1.540   9.526  0.6238  0.3734  0.3005
 1017MOL0     O37184  10.915   1.647   9.625  0.2024  0.3349  0.6010
 1017MOL0     C37185  11.014   1.660   9.722 -0.2591 -0.2859 -0.0001
 1017MOL0     C37186  10.992   1.767   9.819 -0.4393  1.1270  0.5413
 1017MOL0     C37187  11.073   1.783   9.922 -0.2807 -0.4096 -0.9944
 1017MOL0     C37188  11.190   1.706   9.937  0.1302  0.2795  0.3848
 1017MOL0     C37189  11.275   1.722  10.060  0.0112  0.4798 -0.2065
 1017MOL0     O37190  11.238   1.819  10.147 -0.6352 -0.0409  0.2358
 1017MOL0     C37191  11.284   1.816  10.275 -0.6831  0.1353  0.1140
 1017MOL0     C37192  11.340   1.932  10.339  0.1543  0.3138  0.6069
 1017MOL0     C37193  11.374   1.935  10.476  1.1986  0.6023 -0.4661
 1017MOL0     C37194  11.359   1.815  10.548 -0.2898  0.0058 -0.0849
 1017MOL0     O37195  11.364   1.800  10.692 -0.1292 -0.3930 -0.1681
 1017MOL0     C37196  11.408   1.912  10.781 -0.0950  0.1020 -0.1695
 1017MOL0     C37197  11.557   1.905  10.820  0.1085  0.2176 -0.5191
 1017MOL0     C37198  11.582   1.771  10.899  0.0651 -0.7248  0.3662
 1017MOL0     C37199  11.726   1.727  10.904 -0.2189  0.2709 -0.0145
 1017MOL0     C37200  11.804   1.845  10.968 -0.9059  0.1318  0.2906
 1017MOL0     C37201  11.954   1.807  10.989  0.4753  0.7763  0.9670
 1017MOL0     C37202  12.051   1.826  10.872 -0.1937  0.3627  0.4019
 1017MOL0     C37203  12.198   1.853  10.903 -1.2381 -0.4505 -0.3095
 1017MOL0    Cl37204  12.227   2.016  10.987 -0.2478  0.1677  0.0241
 1017MOL0     C37205  11.300   1.701  10.487  0.3421 -0.1826 -0.4604
 1017MOL0     C37206  11.260   1.704  10.352 -1.2781  0.2438  0.2298
 1017MOL0     O37207  11.360   1.636  10.086 -0.0629  0.0084  0.0511
 1017MOL0     C37208  11.225   1.612   9.839  0.6645 -0.7745  1.4204
 1017MOL0     C37209  11.131   1.590   9.733  0.0407 -0.1191 -0.8103
 1017MOL0     N37210  10.474   1.824   9.431  0.5418  0.3018  0.9350
 1017MOL0     N37211  10.406   1.908   9.367  0.1690  0.1413 -0.1556
 1017MOL0     C37212   9.380   1.408   9.121 -0.2844 -0.3976 -0.6568
 1017MOL0     C37213   9.258   1.359   9.070 -0.3250  0.8357 -0.9017
 1017MOL0     C37214   8.947   1.075   8.911  0.0693 -0.2039  0.2890
 1017MOL0     C37215   8.866   1.004   8.994 -0.5297 -0.4961 -0.4972
 1017MOL0     C37216   8.740   0.951   8.955 -1.1882 -0.3973 -0.4947
 1017MOL0     C37217   8.686   0.983   8.828  0.5409 -0.6359 -0.2934
 1017MOL0     O37218   8.575   0.928   8.772  0.3276  0.3294 -0.4831
 1017MOL0     C37219   8.549   0.789   8.811 -0.0882 -0.5165 -0.2819
 1017MOL0     C37220   8.452   0.766   8.931 -1.2923  0.4474 -0.6197
 1017MOL0     C37221   8.317   0.817   8.889  0.2067  0.8867  0.9537
 1017MOL0     C37222   8.204   0.747   8.966  0.0733  0.0481 -0.5500
 1017MOL0     C37223   8.079   0.770   8.894  0.0320 -0.4305  0.5740
 1017MOL0     C37224   7.966   0.791   8.853  0.1192 -0.7162 -0.5339
 1017MOL0     C37225   8.762   1.065   8.743  0.3489 -0.2400 -0.0509
 1017MOL0     C37226   8.889   1.108   8.786  0.0620 -0.3933  0.5022
 1017MOL0     C37227   8.958   1.195   8.680 -0.1921  0.7912  0.5008
 1017MOL0     H37228   9.391   1.108   8.872  0.5282  0.5577  0.3845
 1017MOL0     H37229   9.599   1.215   8.947  0.1865  0.2258 -0.6614
 1017MOL0     H37230   9.577   1.533   9.271 -0.5093  0.5439 -1.2208
 1017MOL0     H37231   9.746   1.549   9.205  0.3416 -1.3996  1.7335
 1017MOL0     H37232   9.487   1.642   9.097 -0.7671 -1.6306 -0.3971
 1017MOL0     H37233   9.622   1.603   8.978 -1.5620 -3.3050  0.7736
 1017MOL0     H37234   9.624   1.806   9.212  0.9303 -0.4473  0.6441
 1017MOL0     H37235   9.623   1.837   9.033 -0.9654 -2.0024 -1.5104
 1017MOL0     H37236   9.864   1.737   9.193  1.7882 -0.6359 -1.1790
 1017MOL0     H37237   9.857   1.750   9.018  1.5967 -2.6155  1.1032
 1017MOL0     H37238   9.818   2.004   9.072  2.6396  2.2151 -0.6384
 1017MOL0     H37239   9.851   1.949   9.249  1.2483 -0.0061  0.2266
 1017MOL0     H37240  10.034   1.901   9.008  2.7167 -4.3489  1.6695
 1017MOL0     H37241  10.038   2.041   9.100  2.9399  0.4977 -1.0741
 1017MOL0     H37242  10.092   1.758   9.202 -1.6608 -0.1402 -0.2619
 1017MOL0     H37243  10.072   1.884   9.318  3.8812 -0.5420  0.5350
 1017MOL0     H37244  10.257   1.865   9.081 -2.5709  1.5231 -1.3550
 1017MOL0     H37245  10.246   2.016   9.182  1.3801  0.4035  1.5514
 1017MOL0     H37246  10.323   1.632   9.202 -1.3785 -1.0466  1.9762
 1017MOL0     H37247  10.471   1.559   9.518 -1.0421 -0.3674  0.0437
 1017MOL0     H37248  10.507   1.487   9.356  3.4352  0.8680 -0.9798
 1017MOL0     H37249  10.713   1.653   9.343 -0.1029 -1.7561 -0.0486
 1017MOL0     H37250  10.670   1.688   9.516 -3.2945  1.3840 -1.1418
 1017MOL0     H37251  10.772   1.411   9.411  0.2938 -0.6381 -0.1983
 1017MOL0     H37252  10.720   1.453   9.576  0.2525 -5.2014 -0.4825
 1017MOL0     H37253  10.950   1.596   9.442 -0.7871  3.2973  1.4476
 1017MOL0     H37254  10.969   1.450   9.543 -0.2943  0.1941  3.0559
 1017MOL0     H37255  10.903   1.829   9.820  0.1383  2.2029 -2.8360
 1017MOL0     H37256  11.050   1.843  10.010  1.3536 -0.8362 -0.2276
 1017MOL0     H37257  11.370   2.015  10.275  0.5883 -1.8275 -2.1284
 1017MOL0     H37258  11.388   2.030  10.525 -1.4359  0.3832  0.9338
 1017MOL0     H37259  11.399   2.009  10.731 -0.1147 -0.9966 -2.4258
 1017MOL0     H37260  11.346   1.912  10.871  0.7314  2.1780  0.4657
 1017MOL0     H37261  11.628   1.911  10.737  3.6454 -0.7429  2.2023
 1017MOL0     H37262  11.568   1.987  10.891 -0.7922 -0.3122  0.2515
 1017MOL0     H37263  11.549   1.791  11.002  2.7641 -0.4513  1.2485
 1017MOL0     H37264  11.523   1.687  10.859 -0.0863  0.1475 -1.3192
 1017MOL0     H37265  11.773   1.703  10.808 -0.4675  1.4655 -0.4565
 1017MOL0     H37266  11.727   1.642  10.973  1.0482  0.2269 -0.0550
 1017MOL0     H37267  11.757   1.871  11.064 -1.7344 -0.5106  0.0650
 1017MOL0     H37268  11.791   1.929  10.899  0.3391 -1.8808 -2.5794
 1017MOL0     H37269  12.002   1.880  11.056  3.2411 -0.1082  0.0908
 1017MOL0     H37270  11.947   1.705  11.029 -0.9919  0.6920  0.5396
 1017MOL0     H37271  12.013   1.900  10.801 -0.3460  0.7851  0.9182
 1017MOL0     H37272  12.060   1.734  10.813 -0.3702 -0.7063  1.9744
 1017MOL0     H37273  12.238   1.771  10.963 -1.9586 -3.5894 -3.8031
 1017MOL0     H37274  12.258   1.855  10.812  0.3419  3.3943  0.5785
 1017MOL0     H37275  11.274   1.613  10.546  0.6451  0.8322  1.2493
 1017MOL0     H37276  11.208   1.626  10.298 -3.0613  1.3081  0.3009
 1017MOL0     H37277  11.320   1.561   9.834  0.1858 -1.6581  1.1602
 1017MOL0     H37278  11.149   1.508   9.665  0.1896  0.2368 -1.2073
 1017MOL0     H37279   9.380   1.482   9.200 -0.4594 -1.7752  0.6755
 1017MOL0     H37280   9.162   1.385   9.113 -0.0755  1.9309 -0.9885
 1017MOL0     H37281   8.906   0.973   9.090  1.1713  0.8162 -0.7241
 1017MOL0     H37282   8.697   0.866   9.007  1.8529 -2.6028 -1.2947
 1017MOL0     H37283   8.644   0.746   8.843 -1.0016 -2.5755 -0.1658
 1017MOL0     H37284   8.518   0.738   8.719  3.1695  0.0470 -1.8538
 1017MOL0     H37285   8.485   0.813   9.024  2.0545 -4.3268  0.9799
 1017MOL0     H37286   8.455   0.659   8.950 -2.3718  0.3699 -0.8293
 1017MOL0     H37287   8.307   0.784   8.786  1.4289  0.0272  1.0863
 1017MOL0     H37288   8.317   0.926   8.892 -0.0482  1.0371 -1.8745
 1017MOL0     H37289   8.223   0.639   8.965 -2.9811 -0.6458  1.6674
 1017MOL0     H37290   8.196   0.774   9.072  1.6401  0.6270 -0.5541
 1017MOL0     H37291   7.862   0.810   8.832 -0.2529 -0.6413  1.2066
 1017MOL0     H37292   8.712   1.108   8.657  0.4154  2.6987  1.2550
 1017MOL0     H37293   8.972   1.297   8.718  0.2105  1.4883 -1.3923
 1017MOL0     H37294   9.055   1.149   8.657 -0.3555 -0.0152  1.3674
 1017MOL0     H37295   8.901   1.228   8.593 -0.3808 -1.4221 -0.2757
 1018MOL0     O37296   1.479  10.926  10.148  0.9521 -0.2525 -0.2567
 1018MOL0     C37297   1.403  10.878  10.234  0.0921  0.1845  0.7012
 1018MOL0     O37298   1.313  10.784  10.206 -0.2191 -0.3547 -0.3385
 1018MOL0     C37299   1.282  10.753  10.079 -0.2285  0.6547 -0.4178
 1018MOL0     C37300   1.177  10.821  10.014 -0.2395 -0.8004  0.4474
 1018MOL0     C37301   1.131  10.791   9.879  0.0986  0.0901 -1.0376
 1018MOL0     C37302   1.186  10.676   9.822 -0.3623  0.0944 -0.8112
 1018MOL0     O37303   1.159  10.623   9.702 -0.1378  0.1935  0.4257
 1018MOL0     C37304   1.162  10.723   9.602 -0.1294  0.2583 -0.0724
 1018MOL0     C37305   1.155  10.661   9.459 -0.2136 -0.0016 -0.0660
 1018MOL0     C37306   1.180  10.755   9.343  0.0590 -0.0764 -0.7664
 1018MOL0     C37307   1.077  10.716   9.231  0.5040  0.8608  0.5293
 1018MOL0     C37308   1.085  10.823   9.116  0.2474 -0.8939 -0.2641
 1018MOL0     C37309   1.027  10.788   8.969  0.0862  0.1053 -0.3297
 1018MOL0     C37310   0.884  10.739   8.985 -0.3588 -0.0206 -0.0287
 1018MOL0     C37311   0.835  10.684   8.854 -0.0074  0.0610  0.1453
 1018MOL0     N37312   0.916  10.586   8.782  0.1036 -1.0471 -0.7913
 1018MOL0     C37313   0.925  10.456   8.820 -0.6832  0.0566 -0.0290
 1018MOL0     C37314   1.038  10.410   8.754 -0.9341  0.9902 -0.3673
 1018MOL0     C37315   1.107  10.275   8.753  0.2067  1.2887 -0.8213
 1018MOL0     C37316   1.197  10.257   8.883  0.1077 -0.2894  0.1171
 1018MOL0     C37317   1.246  10.122   8.917  0.0989 -0.2197  0.3532
 1018MOL0     C37318   1.133  10.023   8.918 -0.1824 -0.8357  0.3770
 1018MOL0     O37319   1.187   9.906   8.968 -0.4135 -0.4108  0.8709
 1018MOL0     C37320   1.200   9.892   9.110 -0.1286 -0.3963 -0.0038
 1018MOL0     C37321   1.093   9.893   9.208 -0.2925 -0.1186  0.8580
 1018MOL0     C37322   1.121   9.861   9.345 -0.3551 -0.8679  0.3415
 1018MOL0     C37323   1.259   9.849   9.388  0.2543  0.3265  0.7916
 1018MOL0     C37324   1.296   9.809   9.525  0.2612 -0.5306  0.2011
 1018MOL0     O37325   1.425   9.779   9.550 -0.4893 -0.5059 -0.2684
 1018MOL0     C37326   1.465   9.783   9.683  0.2995  0.4288  0.2071
 1018MOL0     C37327   1.414   9.714   9.793 -0.0011  0.4415 -0.1482
 1018MOL0     C37328   1.470   9.703   9.919 -0.3937  0.7249 -0.4544
 1018MOL0     C37329   1.582   9.784   9.945 -0.3325  0.7133 -0.1570
 1018MOL0     O37330   1.643   9.785  10.069 -0.2534  0.3005 -0.6505
 1018MOL0     C37331   1.755   9.696  10.072 -0.6366  0.2209  0.5861
 1018MOL0     C37332   1.730   9.545  10.049  0.4724  0.4831 -0.4620
 1018MOL0     C37333   1.829   9.460  10.129  0.4735  0.4545 -0.3014
 1018MOL0     C37334   1.824   9.320  10.091  0.1291 -0.1537  0.3406
 1018MOL0     C37335   1.866   9.198  10.177  0.9638  0.2514 -0.3647
 1018MOL0     C37336   2.003   9.217  10.244  0.4326 -0.3672 -0.8422
 1018MOL0     C37337   2.052   9.090  10.318  1.0895  0.5377 -0.8901
 1018MOL0     C37338   2.193   9.099  10.356 -0.1466 -0.0863  0.9247
 1018MOL0    Cl37339   2.237   8.994  10.502  0.0816 -0.0133  0.2746
 1018MOL0     C37340   1.620   9.874   9.839 -0.2995  1.0734 -0.7163
 1018MOL0     C37341   1.573   9.859   9.708 -1.3074  0.1284 -0.0263
 1018MOL0     O37342   1.204   9.807   9.609  0.1066  0.5629  0.1099
 1018MOL0     C37343   1.362   9.867   9.295 -0.3306  0.0655  0.1199
 1018MOL0     C37344   1.337   9.883   9.154  0.4397 -0.2670 -0.3291
 1018MOL0     N37345   1.064  10.504   8.652  0.3455  0.5895  0.2130
 1018MOL0     N37346   1.005  10.618   8.688 -0.6804  0.5882 -0.8647
 1018MOL0     C37347   1.296  10.608   9.891 -0.2146 -0.0169  0.0142
 1018MOL0     C37348   1.337  10.644  10.019 -0.5917  0.3074  0.0622
 1018MOL0     C37349   1.435  10.894  10.372  0.3019 -1.0150  0.4000
 1018MOL0     C37350   1.327  10.878  10.459  0.5157  0.1953 -0.8639
 1018MOL0     C37351   1.330  10.909  10.590 -0.0727  0.2291  0.2694
 1018MOL0     C37352   1.452  10.959  10.647 -0.6231  0.6308  0.7490
 1018MOL0     O37353   1.464  10.983  10.781  0.5340  0.9082 -0.3076
 1018MOL0     C37354   1.584  11.009  10.855 -0.4551  0.0857  0.6402
 1018MOL0     C37355   1.538  10.978  10.992 -0.4376  0.4521  0.1116
 1018MOL0     C37356   1.499  10.830  11.015 -0.2260 -1.3760  0.4274
 1018MOL0     C37357   1.545  10.771  11.155  0.0609  0.1530 -0.2348
 1018MOL0     C37358   1.502  10.629  11.164 -0.6790 -0.4990 -0.1576
 1018MOL0     C37359   1.461  10.519  11.185  0.6713 -0.0121 -0.0966
 1018MOL0     C37360   1.559  10.977  10.552 -0.8019  0.4810 -0.5734
 1018MOL0     C37361   1.560  10.953  10.421  0.5533 -0.0760  0.3192
 1018MOL0     C37362   1.679  10.996  10.343 -0.7833  0.2484  0.2871
 1018MOL0     H37363   1.136  10.896  10.081 -0.6815 -1.0681  0.4807
 1018MOL0     H37364   1.063  10.865   9.837  1.6907  3.1291  1.3178
 1018MOL0     H37365   1.077  10.792   9.607  1.3194  2.0079  2.6414
 1018MOL0     H37366   1.262  10.768   9.605  0.6944 -1.5398  0.4139
 1018MOL0     H37367   1.061  10.609   9.437 -0.0294 -0.8252  0.9579
 1018MOL0     H37368   1.226  10.578   9.462 -0.0586  0.1454  1.4435
 1018MOL0     H37369   1.280  10.755   9.300  0.2546 -0.5601 -0.3250
 1018MOL0     H37370   1.172  10.856   9.385  1.2366  0.1338 -1.0278
 1018MOL0     H37371   1.094  10.612   9.200 -0.8276  1.1338 -1.2811
 1018MOL0     H37372   0.977  10.722   9.275  0.0918  2.2816 -0.5571
 1018MOL0     H37373   1.032  10.913   9.147 -0.1219 -0.9239 -0.7856
 1018MOL0     H37374   1.192  10.846   9.109  0.2281 -0.0558  1.5820
 1018MOL0     H37375   1.042  10.877   8.907  0.1042 -0.3955 -1.0570
 1018MOL0     H37376   1.088  10.707   8.928  0.2802 -0.0344  0.2362
 1018MOL0     H37377   0.839  10.832   9.021  2.6753  1.0678  1.3221
 1018MOL0     H37378   0.877  10.660   9.061  2.1716 -1.2708 -0.9716
 1018MOL0     H37379   0.742  10.627   8.857  1.9409 -3.8472 -3.2129
 1018MOL0     H37380   0.820  10.768   8.785  3.2297 -1.3033 -2.5338
 1018MOL0     H37381   0.868  10.402   8.895 -0.0202  1.7981  1.7976
 1018MOL0     H37382   1.030  10.198   8.753 -0.4896  1.9592  0.2785
 1018MOL0     H37383   1.170  10.270   8.664 -0.0227  1.9715 -1.0261
 1018MOL0     H37384   1.284  10.324   8.872  0.3646 -0.7735 -0.9971
 1018MOL0     H37385   1.117  10.290   8.949 -2.3448 -1.4696 -2.0872
 1018MOL0     H37386   1.283  10.134   9.019  1.6829  2.1377 -0.4171
 1018MOL0     H37387   1.331  10.095   8.855  0.2258  2.2827 -0.6753
 1018MOL0     H37388   1.101  10.007   8.815  3.6697 -0.0980 -1.0775
 1018MOL0     H37389   1.050  10.062   8.978  0.4555 -0.6306  1.1554
 1018MOL0     H37390   0.992   9.907   9.172 -0.8665 -2.3896  1.3899
 1018MOL0     H37391   1.034   9.842   9.406 -1.8609 -3.7237 -2.4440
 1018MOL0     H37392   1.319   9.664   9.781 -2.6941  4.2773  2.7421
 1018MOL0     H37393   1.429   9.636   9.994 -1.0115 -3.9484 -4.4660
 1018MOL0     H37394   1.832   9.720   9.998 -2.2111 -2.7849 -2.3606
 1018MOL0     H37395   1.800   9.696  10.171  1.4375  1.2628 -0.2971
 1018MOL0     H37396   1.634   9.523  10.097  1.7215 -4.2846  0.3914
 1018MOL0     H37397   1.724   9.511   9.945 -1.1695  1.0704 -0.5867
 1018MOL0     H37398   1.925   9.509  10.109 -1.0553  3.7512 -0.2671
 1018MOL0     H37399   1.803   9.474  10.235  1.4489 -1.0530  0.1619
 1018MOL0     H37400   1.879   9.323   9.997  0.9271  1.2746  0.8188
 1018MOL0     H37401   1.721   9.291  10.069 -0.8587 -0.3796  4.3949
 1018MOL0     H37402   1.865   9.108  10.115  1.1734 -0.6075  0.8259
 1018MOL0     H37403   1.792   9.175  10.255  1.8727 -1.4418  0.0489
 1018MOL0     H37404   2.069   9.236  10.159  1.0920 -1.8245 -0.6833
 1018MOL0     H37405   2.008   9.302  10.313  1.0846 -1.5033  0.5621
 1018MOL0     H37406   2.034   9.002  10.256 -1.0767  0.4847 -0.2664
 1018MOL0     H37407   1.986   9.066  10.401  3.6560 -1.4778  0.7205
 1018MOL0     H37408   2.257   9.063  10.275  0.0511 -1.4803  1.6645
 1018MOL0     H37409   2.222   9.198  10.392  1.1003 -0.0899 -0.0191
 1018MOL0     H37410   1.705   9.940   9.855  1.1001 -1.1541  1.9368
 1018MOL0     H37411   1.610   9.914   9.622 -0.7431 -2.8559 -1.8353
 1018MOL0     H37412   1.462   9.851   9.333 -1.0510  0.5526  2.3276
 1018MOL0     H37413   1.424   9.875   9.089 -0.3516  1.9502 -1.7521
 1018MOL0     H37414   1.338  10.516   9.851  0.6984  0.3115  0.1939
 1018MOL0     H37415   1.400  10.586  10.085  0.2931 -0.2971 -1.2773
 1018MOL0     H37416   1.233  10.846  10.416  0.9141 -0.8296 -0.9804
 1018MOL0     H37417   1.251  10.882  10.660  0.6707  1.2146  1.5443
 1018MOL0     H37418   1.618  11.112  10.866  1.0996 -0.3101 -0.1407
 1018MOL0     H37419   1.664  10.949  10.811 -0.0800 -0.7925  2.4042
 1018MOL0     H37420   1.453  11.043  11.016 -0.3919  0.2021  0.9669
 1018MOL0     H37421   1.624  10.992  11.058 -0.5249  0.7720  0.1621
 1018MOL0     H37422   1.543  10.771  10.934  0.9148  0.4018 -0.3180
 1018MOL0     H37423   1.390  10.820  11.012 -0.1617 -1.8760 -0.4964
 1018MOL0     H37424   1.651  10.791  11.174 -0.4144  0.3205  2.7560
 1018MOL0     H37425   1.487  10.809  11.240 -1.2432 -2.1245 -0.0037
 1018MOL0     H37426   1.416  10.423  11.198 -0.2946  0.4089 -0.2240
 1018MOL0     H37427   1.642  11.025  10.603 -0.5260 -0.6445  0.0599
 1018MOL0     H37428   1.682  11.105  10.333 -1.1297  0.1823 -0.5558
 1018MOL0     H37429   1.771  10.971  10.396 -1.0851 -1.7419 -0.0539
 1018MOL0     H37430   1.683  10.945  10.247  0.0003 -1.5703  1.2344
 1019MOL0     O37431   0.522   0.133   6.236 -0.0145 -0.5191  0.3954
 1019MOL0     C37432   0.513   0.244   6.191 -0.0540  0.4744 -0.1106
 1019MOL0     O37433   0.534   0.362   6.257 -0.2580 -1.0509  0.2847
 1019MOL0     C37434   0.552   0.360   6.391 -0.6677 -0.2778  0.2914
 1019MOL0     C37435   0.447   0.385   6.479 -0.4161  0.5195 -0.8726
 1019MOL0     C37436   0.456   0.360   6.615 -1.3043 -0.0343 -0.2355
 1019MOL0     C37437   0.561   0.288   6.666 -1.2022  0.0571  1.3620
 1019MOL0     O37438   0.547   0.256   6.796 -0.1735 -0.0457 -0.7520
 1019MOL0     C37439   0.657   0.190   6.865  0.5766  1.6047  1.4892
 1019MOL0     C37440   0.655   0.037   6.805 -0.5277 -1.1198 -0.9269
 1019MOL0     C37441   0.776  -0.041   6.857 -0.5019 -0.3038 -0.0717
 1019MOL0     C37442   0.736  -0.177   6.915 -0.0575 -0.2269  0.4951
 1019MOL0     C37443   0.677  -0.277   6.807  0.1714  0.3813  0.1310
 1019MOL0     C37444   0.673  -0.426   6.846 -0.1362 -0.4509  0.1284
 1019MOL0     C37445   0.575  -0.451   6.953  0.5054  0.0108  0.8613
 1019MOL0     C37446   0.571  -0.597   7.004 -0.0136 -0.2285  0.3637
 1019MOL0     N37447   0.437  -0.639   7.054 -1.2313 -0.0190  0.2014
 1019MOL0     C37448   0.393  -0.608   7.180  0.4655  0.1228  0.9048
 1019MOL0     C37449   0.259  -0.627   7.169 -0.2283 -0.1165  0.7689
 1019MOL0     C37450   0.149  -0.596   7.255 -0.1059  0.3659  0.1015
 1019MOL0     C37451   0.111  -0.709   7.342 -0.1177  0.9002 -0.1835
 1019MOL0     C37452   0.223  -0.779   7.421 -0.1822 -0.1864 -0.7655
 1019MOL0     C37453   0.156  -0.893   7.501 -0.0755 -0.0396 -0.3139
 1019MOL0     O37454   0.263  -0.979   7.546  0.6999 -0.0465 -0.2356
 1019MOL0     C37455   0.231  -1.054   7.652  0.3000 -0.4930  0.3162
 1019MOL0     C37456   0.189  -1.180   7.631  0.1695  0.2496  0.0852
 1019MOL0     C37457   0.164  -1.271   7.732  0.0782 -0.0778  0.6023
 1019MOL0     C37458   0.184  -1.236   7.870  0.6485 -0.2175  0.8267
 1019MOL0     C37459   0.158  -1.335   7.976 -0.2946  0.0633 -0.2801
 1019MOL0     O37460   0.213  -1.297   8.097 -0.1820  0.0818  0.2430
 1019MOL0     C37461   0.214  -1.383   8.202 -0.0336  0.0832  0.1419
 1019MOL0     C37462   0.191  -1.519   8.209  0.5199 -0.0440 -0.5996
 1019MOL0     C37463   0.188  -1.591   8.326 -0.2294  0.4868 -1.5891
 1019MOL0     C37464   0.194  -1.521   8.447 -0.4255 -0.2838 -0.0059
 1019MOL0     O37465   0.212  -1.591   8.566  0.3535  0.4933 -0.1160
 1019MOL0     C37466   0.215  -1.729   8.573 -1.0637 -0.1627 -0.5236
 1019MOL0     C37467   0.250  -1.784   8.712  0.0497  0.3245 -0.4759
 1019MOL0     C37468   0.255  -1.940   8.712 -0.1775 -0.9122  0.4275
 1019MOL0     C37469   0.293  -2.016   8.842 -0.3880  0.3244  0.6315
 1019MOL0     C37470   0.314  -2.161   8.795  0.2192  0.3512  0.3953
 1019MOL0     C37471   0.348  -2.254   8.912  0.2049  0.5457  0.0801
 1019MOL0     C37472   0.456  -2.200   9.005 -0.1966  0.7396 -0.2270
 1019MOL0     C37473   0.559  -2.309   9.055  0.7437 -0.2413 -0.4329
 1019MOL0    Cl37474   0.704  -2.210   9.102  0.2007 -0.1549  0.0361
 1019MOL0     C37475   0.218  -1.381   8.447 -0.4702 -0.5046  0.3851
 1019MOL0     C37476   0.219  -1.320   8.324  0.0508 -0.1449  0.9976
 1019MOL0     O37477   0.113  -1.445   7.941  1.0284  0.1486 -0.4504
 1019MOL0     C37478   0.225  -1.103   7.895  0.1877  0.0344  0.3583
 1019MOL0     C37479   0.236  -1.008   7.786 -0.1782 -0.7941 -0.5877
 1019MOL0     N37480   0.231  -0.680   7.046  0.1832 -0.3848 -1.3238
 1019MOL0     N37481   0.338  -0.690   6.983  0.1651  0.7110  0.8145
 1019MOL0     C37482   0.674   0.274   6.581 -0.3509  0.3544 -0.5309
 1019MOL0     C37483   0.682   0.316   6.448  0.9337  1.1312  0.3971
 1019MOL0     C37484   0.459   0.263   6.059 -0.1993 -0.0177 -0.2006
 1019MOL0     C37485   0.556   0.280   5.960 -0.7925  0.6710  0.3877
 1019MOL0     C37486   0.505   0.284   5.825 -0.6944  1.2702 -0.0984
 1019MOL0     C37487   0.367   0.251   5.802 -0.5557  0.1138  0.2728
 1019MOL0     O37488   0.303   0.259   5.683 -0.0078  0.7980 -0.5843
 1019MOL0     C37489   0.290   0.134   5.620  0.0812  0.7379  0.1759
 1019MOL0     C37490   0.229   0.141   5.483 -1.3349  0.7102 -0.3400
 1019MOL0     C37491   0.339   0.199   5.383 -0.1011 -0.2329  0.5866
 1019MOL0     C37492   0.326   0.354   5.378  0.0657  0.4503 -0.0285
 1019MOL0     C37493   0.205   0.409   5.323 -0.5573  0.7862 -1.0394
 1019MOL0     C37494   0.101   0.454   5.283  0.2179  1.1384 -0.3527
 1019MOL0     C37495   0.278   0.241   5.902  0.2155 -0.5986 -0.3413
 1019MOL0     C37496   0.320   0.232   6.034  0.2619  0.3569 -0.6824
 1019MOL0     C37497   0.219   0.193   6.141 -0.0270  0.0922  0.2613
 1019MOL0     H37498   0.349   0.412   6.439 -1.0166 -0.0011  0.2032
 1019MOL0     H37499   0.372   0.390   6.676 -0.6554 -1.4570  1.4662
 1019MOL0     H37500   0.754   0.236   6.849  1.2978 -0.7754 -2.0780
 1019MOL0     H37501   0.645   0.199   6.974  1.1617  1.9703  1.5238
 1019MOL0     H37502   0.647   0.030   6.697 -0.9986 -1.6364 -0.8671
 1019MOL0     H37503   0.560  -0.011   6.832 -0.4909 -2.7012 -3.3135
 1019MOL0     H37504   0.826   0.016   6.936  2.1681 -0.1842 -1.7447
 1019MOL0     H37505   0.858  -0.047   6.785 -0.3123 -0.5425  0.1591
 1019MOL0     H37506   0.825  -0.225   6.958 -0.0425 -1.5683 -0.9339
 1019MOL0     H37507   0.661  -0.167   6.994 -1.6384 -3.9068 -0.3470
 1019MOL0     H37508   0.581  -0.236   6.775 -0.0187  3.3900  3.8573
 1019MOL0     H37509   0.752  -0.271   6.728  2.2571 -0.9316  1.8840
 1019MOL0     H37510   0.651  -0.485   6.757 -2.6933 -1.0526  1.0498
 1019MOL0     H37511   0.776  -0.451   6.873  0.4688  0.9053 -0.8441
 1019MOL0     H37512   0.477  -0.433   6.907 -0.3173  1.2640  2.9412
 1019MOL0     H37513   0.605  -0.392   7.041  1.6381 -3.0908  2.7026
 1019MOL0     H37514   0.588  -0.656   6.914  1.0008  0.2293  0.2517
 1019MOL0     H37515   0.653  -0.629   7.068 -1.5648  1.1487  3.2608
 1019MOL0     H37516   0.448  -0.565   7.263 -3.9944  0.9841  3.7635
 1019MOL0     H37517   0.173  -0.514   7.324  0.8275 -2.3126  3.2317
 1019MOL0     H37518   0.059  -0.574   7.197  1.4148  4.7693 -1.0387
 1019MOL0     H37519   0.046  -0.669   7.420 -0.0052 -2.8128  2.0588
 1019MOL0     H37520   0.056  -0.778   7.278 -1.2234  2.9127 -1.5077
 1019MOL0     H37521   0.275  -0.699   7.474 -0.6596  2.1214 -3.5230
 1019MOL0     H37522   0.296  -0.821   7.351  2.7167  2.7738  0.2091
 1019MOL0     H37523   0.083  -0.951   7.443  1.5952 -1.1424 -1.3800
 1019MOL0     H37524   0.095  -0.847   7.580  0.5066 -1.3593  0.9511
 1019MOL0     H37525   0.191  -1.216   7.528  2.2254 -3.2159  1.1303
 1019MOL0     H37526   0.131  -1.370   7.702  0.1475 -0.2013  0.9338
 1019MOL0     H37527   0.187  -1.579   8.118 -2.6815  0.8375 -1.1706
 1019MOL0     H37528   0.171  -1.697   8.310  0.3268 -0.0624  0.9976
 1019MOL0     H37529   0.121  -1.770   8.537  0.0600 -1.9834 -1.5013
 1019MOL0     H37530   0.297  -1.759   8.507 -0.6729  1.1446 -0.6593
 1019MOL0     H37531   0.345  -1.744   8.750 -0.9296  1.5344  0.8095
 1019MOL0     H37532   0.176  -1.745   8.782  3.4946  2.5546  2.2749
 1019MOL0     H37533   0.156  -1.975   8.681 -0.5729  0.6246 -0.1580
 1019MOL0     H37534   0.324  -1.969   8.632 -1.3154  0.4185 -1.1041
 1019MOL0     H37535   0.210  -2.010   8.912 -2.8348  1.6303 -2.1639
 1019MOL0     H37536   0.381  -1.971   8.889 -1.6281 -1.3268  4.9430
 1019MOL0     H37537   0.401  -2.170   8.729 -0.5387 -1.3640 -0.4278
 1019MOL0     H37538   0.227  -2.199   8.741  0.7896  2.2454 -2.0691
 1019MOL0     H37539   0.252  -2.259   8.964  0.0784  0.6372 -0.1405
 1019MOL0     H37540   0.364  -2.353   8.870 -4.5894  1.0655 -3.9677
 1019MOL0     H37541   0.409  -2.151   9.090 -1.3053 -0.8830  0.1355
 1019MOL0     H37542   0.513  -2.127   8.946 -0.4978  0.7759 -0.4808
 1019MOL0     H37543   0.533  -2.378   9.135  0.1799 -1.1501 -1.3715
 1019MOL0     H37544   0.572  -2.377   8.971 -0.9337 -3.0293  1.3915
 1019MOL0     H37545   0.218  -1.317   8.534 -0.4413 -1.1490  0.8680
 1019MOL0     H37546   0.225  -1.212   8.330 -2.8400  0.0278  4.1404
 1019MOL0     H37547   0.238  -1.068   7.997  5.3745 -0.1846  0.0504
 1019MOL0     H37548   0.231  -0.901   7.798 -4.0928 -1.0974  2.6903
 1019MOL0     H37549   0.761   0.229   6.628  0.3068  2.0016 -0.1063
 1019MOL0     H37550   0.777   0.306   6.396 -0.3804  0.0571 -1.9408
 1019MOL0     H37551   0.661   0.304   5.975 -0.5705 -1.1872  2.1597
 1019MOL0     H37552   0.584   0.305   5.753  0.3210  2.4228  1.2874
 1019MOL0     H37553   0.227   0.073   5.685  2.9220  0.0666  2.5277
 1019MOL0     H37554   0.388   0.085   5.617  0.1638  0.6800  2.2053
 1019MOL0     H37555   0.131   0.189   5.479 -2.3340 -1.0539  1.3178
 1019MOL0     H37556   0.220   0.034   5.464  2.1756 -0.0767  1.5955
 1019MOL0     H37557   0.336   0.142   5.289  0.2246 -2.4825  1.8534
 1019MOL0     H37558   0.437   0.162   5.415 -0.1442 -0.6720  0.2311
 1019MOL0     H37559   0.363   0.391   5.474  2.1339 -0.5220 -0.3833
 1019MOL0     H37560   0.413   0.386   5.320 -0.3364 -2.0961 -2.2529
 1019MOL0     H37561   0.002   0.480   5.251 -1.3890 -3.7053 -0.1416
 1019MOL0     H37562   0.173   0.223   5.880  0.0113  1.5291 -1.4372
 1019MOL0     H37563   0.226   0.255   6.231 -1.3259 -1.9281  1.8468
 1019MOL0     H37564   0.114   0.197   6.109  0.2118  1.2371 -0.4333
 1019MOL0     H37565   0.242   0.091   6.172  4.3823  0.9151  0.3235
 1020MOL0     O37566   3.867   0.135  11.011 -0.5267  0.2827 -0.5002
 1020MOL0     C37567   3.750   0.133  10.971 -0.7237 -0.3774 -1.0267
 1020MOL0     O37568   3.708   0.147  10.852  0.3523 -0.3737 -0.8034
 1020MOL0     C37569   3.799   0.146  10.755 -0.2247  0.0579  0.1593
 1020MOL0     C37570   3.835   0.260  10.691 -0.5171 -0.8707 -0.0011
 1020MOL0     C37571   3.942   0.257  10.593  0.1984  0.6546 -0.4947
 1020MOL0     C37572   4.005   0.139  10.572  1.2087  0.6645  0.2989
 1020MOL0     O37573   4.114   0.124  10.495 -0.2684  0.5657  1.1716
 1020MOL0     C37574   4.062   0.140  10.360  0.1701  0.4908  0.7849
 1020MOL0     C37575   4.148   0.058  10.261  0.0241 -0.2068  0.4414
 1020MOL0     C37576   4.129   0.103  10.111  0.1804  0.7709 -0.3025
 1020MOL0     C37577   4.181  -0.011  10.012  0.0926 -0.2989  0.0636
 1020MOL0     C37578   4.242   0.045   9.884 -1.0314 -0.9594  0.0358
 1020MOL0     C37579   4.322  -0.056   9.806 -0.5504  0.2901  0.0306
 1020MOL0     C37580   4.382  -0.010   9.674  0.5285  1.1012 -0.5315
 1020MOL0     C37581   4.262   0.010   9.582  0.0081 -0.0767  0.1555
 1020MOL0     N37582   4.323   0.021   9.449 -0.4550  0.2543  0.3688
 1020MOL0     C37583   4.380   0.135   9.389  0.0306 -0.2094 -0.1290
 1020MOL0     C37584   4.394   0.116   9.254  0.8713 -0.2413 -1.1567
 1020MOL0     C37585   4.454   0.213   9.156 -0.5049  0.2188 -0.6192
 1020MOL0     C37586   4.358   0.323   9.095 -0.1874 -0.4376  0.1578
 1020MOL0     C37587   4.269   0.404   9.194  0.9627 -0.0736 -0.4151
 1020MOL0     C37588   4.203   0.526   9.131  0.1999 -0.2813  0.0154
 1020MOL0     O37589   4.115   0.496   9.024 -0.4856  0.0804  0.7964
 1020MOL0     C37590   4.123   0.585   8.915  0.3436 -0.2768  0.3684
 1020MOL0     C37591   4.056   0.703   8.927 -0.0340  0.9624 -1.0069
 1020MOL0     C37592   4.069   0.802   8.828  0.0044  0.1782 -0.6085
 1020MOL0     C37593   4.145   0.771   8.712 -0.0832  0.2046  1.4139
 1020MOL0     C37594   4.158   0.864   8.596  0.4447 -0.1063 -0.0615
 1020MOL0     O37595   4.121   0.989   8.613 -0.0719  0.5287  0.8846
 1020MOL0     C37596   4.134   1.084   8.514 -1.0891 -0.1084  0.7875
 1020MOL0     C37597   4.255   1.088   8.438 -0.7541 -1.0182 -0.0002
 1020MOL0     C37598   4.276   1.172   8.327  0.0547 -0.3653  1.1577
 1020MOL0     C37599   4.161   1.253   8.285 -0.7890 -0.0591 -0.3598
 1020MOL0     O37600   4.171   1.345   8.189  0.2231 -0.2286 -0.3661
 1020MOL0     C37601   4.180   1.295   8.058 -0.1991  0.1204  0.3078
 1020MOL0     C37602   4.171   1.418   7.968  0.1743 -0.2031 -0.3882
 1020MOL0     C37603   4.199   1.384   7.821  0.2167 -0.0136 -0.1481
 1020MOL0     C37604   4.134   1.494   7.728 -0.6969 -0.2211 -0.1814
 1020MOL0     C37605   4.182   1.442   7.592 -0.4152 -0.1001 -0.0497
 1020MOL0     C37606   4.123   1.536   7.487 -0.1298  1.4025  0.1278
 1020MOL0     C37607   4.154   1.463   7.349  1.3704 -0.3908  0.1015
 1020MOL0     C37608   4.189   1.577   7.245 -0.7379 -0.6103  0.1172
 1020MOL0    Cl37609   4.058   1.703   7.252 -0.3925 -0.3265 -0.2574
 1020MOL0     C37610   4.044   1.249   8.362  0.3737 -0.5183 -0.0960
 1020MOL0     C37611   4.030   1.168   8.475 -0.2326 -0.0236  0.8099
 1020MOL0     O37612   4.193   0.820   8.485 -0.5377  0.5652 -0.3179
 1020MOL0     C37613   4.221   0.651   8.702  0.1835 -0.5366  0.7351
 1020MOL0     C37614   4.207   0.552   8.803 -0.3334 -1.0159  0.4616
 1020MOL0     N37615   4.335  -0.013   9.227  0.2872 -0.1535 -0.7575
 1020MOL0     N37616   4.304  -0.066   9.348 -1.0953 -0.2387 -0.4368
 1020MOL0     C37617   3.961   0.023  10.630 -0.0443 -0.3153 -0.4015
 1020MOL0     C37618   3.854   0.028  10.716  0.4159  0.5615  0.1087
 1020MOL0     C37619   3.650   0.128  11.075  0.3305 -0.4919 -0.4837
 1020MOL0     C37620   3.539   0.225  11.077  0.1616 -1.0380  0.5249
 1020MOL0     C37621   3.470   0.249  11.192  0.5302  0.4136 -0.0717
 1020MOL0     C37622   3.471   0.173  11.304  0.4705  0.3500 -0.7495
 1020MOL0     O37623   3.376   0.193  11.407 -1.0850  0.3785  0.2844
 1020MOL0     C37624   3.414   0.171  11.547 -0.4495  0.1039  0.3442
 1020MOL0     C37625   3.537   0.255  11.598 -0.0849 -0.4107 -0.7055
 1020MOL0     C37626   3.556   0.267  11.753 -0.0085  0.1869 -0.4379
 1020MOL0     C37627   3.638   0.154  11.826 -0.6894  0.3307  0.0091
 1020MOL0     C37628   3.575   0.021  11.802 -0.8975 -0.3731  0.3634
 1020MOL0     C37629   3.523  -0.089  11.782  0.5058  0.6088 -1.1622
 1020MOL0     C37630   3.564   0.069  11.305  0.3429 -0.0753  0.5356
 1020MOL0     C37631   3.652   0.038  11.190 -0.4805 -0.8278 -1.1295
 1020MOL0     C37632   3.732  -0.087  11.202 -0.9677  0.0265  0.0650
 1020MOL0     H37633   3.787   0.354  10.716 -0.7114 -1.0414  0.2793
 1020MOL0     H37634   3.981   0.346  10.546 -0.6338  2.1962  1.5805
 1020MOL0     H37635   3.957   0.110  10.356  0.0150  0.8105  2.0965
 1020MOL0     H37636   4.070   0.248  10.340  2.0478  0.0799 -1.1074
 1020MOL0     H37637   4.115  -0.046  10.269  0.4911 -0.5489 -1.5313
 1020MOL0     H37638   4.256   0.059  10.277 -0.3807  1.0315  4.0659
 1020MOL0     H37639   4.204   0.182  10.099  2.7618 -1.1555  1.6922
 1020MOL0     H37640   4.026   0.133  10.090 -1.6312 -2.8212  2.2888
 1020MOL0     H37641   4.252  -0.067  10.073 -2.8314 -1.5963  2.5802
 1020MOL0     H37642   4.100  -0.081   9.992 -2.5216  1.7010  2.6706
 1020MOL0     H37643   4.164   0.083   9.817  1.9463  0.9406 -2.6257
 1020MOL0     H37644   4.317   0.119   9.913 -1.0292 -1.0776  0.3380
 1020MOL0     H37645   4.396  -0.089   9.880 -3.6686 -2.4737  2.2687
 1020MOL0     H37646   4.270  -0.150   9.786  0.3033  0.1880 -1.9591
 1020MOL0     H37647   4.448  -0.092   9.643  1.6336  0.9883  1.8865
 1020MOL0     H37648   4.441   0.075   9.709 -0.0879  2.0571 -1.7326
 1020MOL0     H37649   4.195  -0.077   9.589 -0.6707  0.1568 -2.3903
 1020MOL0     H37650   4.219   0.106   9.612 -0.0063  0.9104 -2.6993
 1020MOL0     H37651   4.397   0.225   9.447  0.7432 -0.9563  0.8458
 1020MOL0     H37652   4.531   0.263   9.216 -2.9463  1.6830  1.4899
 1020MOL0     H37653   4.508   0.158   9.078 -2.2088  0.3219 -1.9151
 1020MOL0     H37654   4.415   0.395   9.035  2.7654 -2.4112  0.3790
 1020MOL0     H37655   4.282   0.276   9.031  1.3298 -2.3945 -0.2994
 1020MOL0     H37656   4.337   0.439   9.272  2.4682 -1.0957 -1.2271
 1020MOL0     H37657   4.189   0.339   9.231  1.5114 -1.4031 -1.5021
 1020MOL0     H37658   4.289   0.587   9.103  0.0488 -0.5358 -1.0530
 1020MOL0     H37659   4.142   0.576   9.207 -1.1114 -0.7878 -0.6642
 1020MOL0     H37660   4.006   0.718   9.022 -1.5788 -0.5329 -1.5241
 1020MOL0     H37661   4.020   0.898   8.833 -0.5118 -0.1484  2.3770
 1020MOL0     H37662   4.337   1.021   8.463 -1.1401 -0.8004  2.0376
 1020MOL0     H37663   4.369   1.182   8.273 -1.2977 -0.8466 -1.3993
 1020MOL0     H37664   4.277   1.245   8.049 -0.5779 -0.7015  0.7399
 1020MOL0     H37665   4.101   1.230   8.022  0.7326  0.5324 -2.8186
 1020MOL0     H37666   4.074   1.469   7.975 -1.2776 -2.9689  4.7219
 1020MOL0     H37667   4.238   1.497   8.002 -1.1187 -0.4309  3.1624
 1020MOL0     H37668   4.307   1.370   7.806 -0.0903 -0.2416 -2.4571
 1020MOL0     H37669   4.152   1.287   7.804 -3.3139  1.5029  0.1867
 1020MOL0     H37670   4.182   1.590   7.750 -3.4509  1.0115  0.8616
 1020MOL0     H37671   4.026   1.510   7.733 -0.7367 -0.7477  1.5668
 1020MOL0     H37672   4.144   1.340   7.590 -1.8271  0.1840  3.7129
 1020MOL0     H37673   4.291   1.446   7.592 -0.4264  0.2186 -0.6267
 1020MOL0     H37674   4.016   1.542   7.511 -0.4334  0.0402 -0.7807
 1020MOL0     H37675   4.162   1.638   7.498  1.1079  0.8282  1.4272
 1020MOL0     H37676   4.056   1.424   7.321  0.8978  0.7837  0.0705
 1020MOL0     H37677   4.231   1.385   7.348 -0.3025 -2.1062 -1.5756
 1020MOL0     H37678   4.290   1.617   7.258  0.3381 -1.9475 -3.0549
 1020MOL0     H37679   4.203   1.524   7.150  2.4974 -3.2561  1.8299
 1020MOL0     H37680   3.963   1.317   8.337 -0.7133 -0.9818  1.9400
 1020MOL0     H37681   3.941   1.156   8.535  0.8095 -0.6071  2.3160
 1020MOL0     H37682   4.265   0.630   8.604 -0.6374  0.0617  0.2307
 1020MOL0     H37683   4.261   0.459   8.789  1.1161 -0.0440 -0.7639
 1020MOL0     H37684   4.014  -0.070  10.613  0.8485  0.2582 -0.8213
 1020MOL0     H37685   3.830  -0.070  10.757 -1.0484  1.0771  0.5586
 1020MOL0     H37686   3.524   0.277  10.982  2.7373 -1.1029  0.0289
 1020MOL0     H37687   3.393   0.324  11.174  0.3768 -0.5125 -4.0075
 1020MOL0     H37688   3.447   0.068  11.556  3.4964  1.3156  1.8384
 1020MOL0     H37689   3.315   0.188  11.591 -1.9055  2.0841 -3.2125
 1020MOL0     H37690   3.510   0.354  11.562  1.9485  0.4285 -0.0369
 1020MOL0     H37691   3.635   0.237  11.553 -1.8786 -3.3758 -3.9185
 1020MOL0     H37692   3.453   0.271  11.788 -0.1215  1.9126 -0.8657
 1020MOL0     H37693   3.598   0.367  11.767 -2.4028  1.0424  1.3895
 1020MOL0     H37694   3.739   0.164  11.784 -1.2855  0.3218 -1.4602
 1020MOL0     H37695   3.642   0.182  11.932 -2.8974  1.7211 -0.2261
 1020MOL0     H37696   3.467  -0.179  11.766 -0.1777  0.3966  1.8955
 1020MOL0     H37697   3.562  -0.012  11.378  1.6035 -2.9758 -2.3909
 1020MOL0     H37698   3.686  -0.176  11.159  1.3567 -2.2951  2.0034
 1020MOL0     H37699   3.832  -0.076  11.159 -1.3208  0.3529 -0.6778
 1020MOL0     H37700   3.750  -0.111  11.307  1.3269 -0.0833 -0.2889
 1021MOL0     O37701   3.446   1.035   2.974  0.1485 -0.0333  0.0341
 1021MOL0     C37702   3.451   1.161   2.975  0.6182  0.6479 -1.0781
 1021MOL0     O37703   3.567   1.227   2.981  1.0254  0.0236  0.2453
 1021MOL0     C37704   3.684   1.167   2.944  0.5911 -0.6035  1.6212
 1021MOL0     C37705   3.751   1.212   2.831  0.7318 -0.5168 -0.2409
 1021MOL0     C37706   3.872   1.156   2.794 -0.3540  2.0144 -0.2594
 1021MOL0     C37707   3.924   1.045   2.865 -0.7707 -0.6612  0.8445
 1021MOL0     O37708   4.048   0.989   2.842 -0.5542 -0.3535  0.4494
 1021MOL0     C37709   4.046   0.871   2.769  0.6139  0.5179  0.1311
 1021MOL0     C37710   4.142   0.770   2.822  0.0344 -0.1289  0.7749
 1021MOL0     C37711   4.110   0.714   2.960 -0.3501  0.2760 -0.0351
 1021MOL0     C37712   4.179   0.588   2.991 -0.4669  0.4081  0.2276
 1021MOL0     C37713   4.147   0.532   3.132  0.9138  0.5926  0.7994
 1021MOL0     C37714   4.223   0.588   3.252  0.0833  0.8549  0.2566
 1021MOL0     C37715   4.167   0.557   3.394  0.4449  1.3444  0.6288
 1021MOL0     C37716   4.217   0.647   3.504  0.4865 -0.1516  0.2889
 1021MOL0     N37717   4.342   0.617   3.568  0.0961  0.9945 -0.7086
 1021MOL0     C37718   4.430   0.513   3.535 -0.0685 -0.5648  0.4307
 1021MOL0     C37719   4.549   0.540   3.598  0.8040  0.8161  0.4118
 1021MOL0     C37720   4.672   0.466   3.563 -0.7795 -0.0139  0.6659
 1021MOL0     C37721   4.735   0.432   3.697  0.3011 -0.1391  0.2120
 1021MOL0     C37722   4.859   0.338   3.694  0.7817 -0.3418  0.8754
 1021MOL0     C37723   4.978   0.369   3.604  1.3222 -1.2334 -0.2800
 1021MOL0     O37724   4.979   0.488   3.528 -0.7833 -0.6291  0.3599
 1021MOL0     C37725   5.056   0.593   3.577  0.9434  0.4583  0.6690
 1021MOL0     C37726   5.000   0.720   3.559  0.0439  0.7285 -0.3371
 1021MOL0     C37727   5.064   0.828   3.621 -0.9378 -0.5549 -0.2137
 1021MOL0     C37728   5.193   0.818   3.687  0.1691 -0.2575  0.0445
 1021MOL0     C37729   5.263   0.938   3.751  0.2233  1.0571  0.3354
 1021MOL0     O37730   5.387   0.923   3.813 -0.2031  0.0406  0.5390
 1021MOL0     C37731   5.412   1.002   3.927 -0.6297 -0.3560  0.3053
 1021MOL0     C37732   5.546   1.022   3.948  0.5696 -0.8341 -1.1522
 1021MOL0     C37733   5.591   1.100   4.056 -0.0372  0.2184  1.1177
 1021MOL0     C37734   5.498   1.164   4.138  0.5401 -1.0067  0.8373
 1021MOL0     O37735   5.530   1.250   4.249 -0.4458  0.2383  0.5129
 1021MOL0     C37736   5.672   1.281   4.261  0.2680 -0.2228 -0.3531
 1021MOL0     C37737   5.687   1.400   4.354  0.3119 -0.2262  0.5602
 1021MOL0     C37738   5.591   1.513   4.303 -0.8231  0.3829 -0.0615
 1021MOL0     C37739   5.612   1.639   4.373 -0.3928 -0.4995 -0.6712
 1021MOL0     C37740   5.515   1.747   4.332  0.1421 -1.6214 -0.1201
 1021MOL0     C37741   5.570   1.887   4.359 -0.3197 -0.3466  1.2402
 1021MOL0     C37742   5.454   1.994   4.334 -0.1502  0.2524 -0.4432
 1021MOL0     C37743   5.509   2.136   4.284 -0.0631  0.7159 -0.0387
 1021MOL0    Cl37744   5.637   2.186   4.389  0.0382 -0.0943 -0.2968
 1021MOL0     C37745   5.360   1.139   4.117  0.3267  0.4592  0.5956
 1021MOL0     C37746   5.317   1.059   4.009  0.0749  0.4173 -0.1953
 1021MOL0     O37747   5.195   1.039   3.752 -0.6387 -0.2491  0.5299
 1021MOL0     C37748   5.239   0.690   3.694  0.5287 -0.0517 -0.0723
 1021MOL0     C37749   5.168   0.578   3.644  1.1875  0.2464 -0.5709
 1021MOL0     N37750   4.535   0.659   3.675  0.5637  0.6773 -0.2330
 1021MOL0     N37751   4.418   0.710   3.637  0.5883  0.9946  0.0015
 1021MOL0     C37752   3.854   1.007   2.981 -0.0096 -0.6389  0.8612
 1021MOL0     C37753   3.739   1.066   3.027  0.5564  0.1225  0.3239
 1021MOL0     C37754   3.322   1.240   2.969 -0.3828  0.7950 -0.4247
 1021MOL0     C37755   3.322   1.375   2.996  0.9235 -0.7886  0.2246
 1021MOL0     C37756   3.198   1.450   2.986 -0.0322  0.3549  0.7187
 1021MOL0     C37757   3.075   1.392   2.970  1.7609  0.4418 -0.3038
 1021MOL0     O37758   2.955   1.463   2.971  0.1913 -0.6947 -0.4464
 1021MOL0     C37759   2.957   1.583   2.883  0.3888 -0.2676 -0.0245
 1021MOL0     C37760   2.808   1.614   2.861  0.9606 -0.6785 -0.3074
 1021MOL0     C37761   2.749   1.661   2.996  0.4214 -0.0574 -1.1040
 1021MOL0     C37762   2.600   1.698   2.989 -0.7675 -1.1123 -0.5874
 1021MOL0     C37763   2.501   1.596   2.947 -0.0862 -0.0054  0.4498
 1021MOL0     C37764   2.412   1.514   2.931 -0.7430 -0.2493 -0.6961
 1021MOL0     C37765   3.069   1.250   2.946 -0.1418 -0.0835  0.6836
 1021MOL0     C37766   3.198   1.176   2.936  0.3737  0.2570 -1.4350
 1021MOL0     C37767   3.182   1.031   2.906 -0.2324 -0.0505  0.0043
 1021MOL0     H37768   3.696   1.293   2.784 -1.1603 -0.8721  1.2370
 1021MOL0     H37769   3.932   1.213   2.723  1.3826  1.1355  0.4634
 1021MOL0     H37770   3.948   0.824   2.761 -0.9649  3.4845  0.6377
 1021MOL0     H37771   4.083   0.898   2.669  0.2489  0.1196 -0.1120
 1021MOL0     H37772   4.240   0.816   2.840  0.1874  0.3425 -1.0831
 1021MOL0     H37773   4.135   0.688   2.750 -4.2317  0.9559 -0.3282
 1021MOL0     H37774   4.004   0.688   2.976 -0.7581  1.9023  0.0697
 1021MOL0     H37775   4.145   0.790   3.029  0.9517  1.2149 -1.6678
 1021MOL0     H37776   4.159   0.519   2.909  3.4292  0.1736 -0.7235
 1021MOL0     H37777   4.288   0.594   2.979 -0.5533  1.2135 -0.2185
 1021MOL0     H37778   4.045   0.564   3.149  1.0868  0.3234  2.4736
 1021MOL0     H37779   4.142   0.422   3.130 -3.1687  0.6645 -0.7346
 1021MOL0     H37780   4.320   0.539   3.239 -0.8239 -0.3219 -3.3451
 1021MOL0     H37781   4.243   0.693   3.229  0.9569  0.8594  0.9794
 1021MOL0     H37782   4.171   0.450   3.416  1.7781  1.5552  1.4886
 1021MOL0     H37783   4.060   0.580   3.383  0.2059 -0.6607 -2.6666
 1021MOL0     H37784   4.235   0.748   3.466 -0.1129  0.0164  0.4359
 1021MOL0     H37785   4.147   0.661   3.587  0.5258  0.8296  0.1694
 1021MOL0     H37786   4.422   0.437   3.458  2.2004 -2.6240  2.0618
 1021MOL0     H37787   4.651   0.374   3.506  1.6059 -0.0690 -0.1955
 1021MOL0     H37788   4.737   0.526   3.500  1.5872 -2.4899  0.5741
 1021MOL0     H37789   4.769   0.519   3.753 -0.5285 -0.8320  1.8669
 1021MOL0     H37790   4.658   0.383   3.757  1.3770 -2.0358  0.1056
 1021MOL0     H37791   4.808   0.246   3.664 -2.0872  0.5924  2.4165
 1021MOL0     H37792   4.901   0.315   3.792  0.4432 -0.9593  0.8805
 1021MOL0     H37793   4.992   0.292   3.528 -0.9593 -0.0592 -2.0168
 1021MOL0     H37794   5.064   0.349   3.669  0.8346  1.1281  1.1844
 1021MOL0     H37795   4.903   0.731   3.513 -0.9685 -2.2951  0.8268
 1021MOL0     H37796   5.019   0.926   3.616 -0.7045 -0.4524 -0.2972
 1021MOL0     H37797   5.607   0.968   3.876 -2.5446 -4.1309 -1.5974
 1021MOL0     H37798   5.697   1.106   4.076 -0.2575 -0.2387  2.4867
 1021MOL0     H37799   5.712   1.190   4.306 -0.3520  0.2379  1.1959
 1021MOL0     H37800   5.723   1.287   4.164  2.3068 -2.2244  0.5228
 1021MOL0     H37801   5.651   1.380   4.456 -0.5712 -3.3891 -0.2605
 1021MOL0     H37802   5.793   1.422   4.369  0.1412  0.8205  0.3258
 1021MOL0     H37803   5.633   1.529   4.203  4.1478  1.2563  1.8906
 1021MOL0     H37804   5.487   1.480   4.311 -0.8678  0.6670  0.6004
 1021MOL0     H37805   5.714   1.677   4.355 -0.2904 -1.0299 -1.2346
 1021MOL0     H37806   5.599   1.616   4.480  1.5735 -0.8417 -0.4599
 1021MOL0     H37807   5.427   1.739   4.396  0.3051  0.4917  0.4500
 1021MOL0     H37808   5.495   1.732   4.225  0.6756 -0.9136 -0.3275
 1021MOL0     H37809   5.618   1.888   4.457  2.6235 -4.6555  0.1498
 1021MOL0     H37810   5.649   1.915   4.289 -1.0676  0.2543  0.6035
 1021MOL0     H37811   5.397   2.005   4.427 -2.0354 -2.2220 -1.1909
 1021MOL0     H37812   5.379   1.952   4.266 -0.6459 -1.2013  0.9394
 1021MOL0     H37813   5.560   2.120   4.189  1.2899  0.0940  0.7702
 1021MOL0     H37814   5.435   2.215   4.270 -0.4815  0.3394 -0.0016
 1021MOL0     H37815   5.290   1.201   4.172  1.9839  2.8442  0.1870
 1021MOL0     H37816   5.211   1.070   3.986  0.7917  2.5952 -3.0991
 1021MOL0     H37817   5.330   0.667   3.748  0.8502  1.9179  0.3048
 1021MOL0     H37818   5.211   0.478   3.655  0.4805  0.1639  2.3509
 1021MOL0     H37819   3.911   0.928   3.029  3.7685  1.3045 -0.1063
 1021MOL0     H37820   3.680   1.042   3.115 -1.5428 -0.5922 -1.1856
 1021MOL0     H37821   3.411   1.433   3.019  1.3713  0.6461 -4.1603
 1021MOL0     H37822   3.205   1.555   3.011 -0.9922 -0.1717  3.6162
 1021MOL0     H37823   3.012   1.571   2.789 -1.9333  2.9431 -1.9681
 1021MOL0     H37824   2.999   1.673   2.928 -3.6216  1.0574  1.4664
 1021MOL0     H37825   2.754   1.524   2.831 -2.4697  1.2503 -0.4388
 1021MOL0     H37826   2.790   1.686   2.780 -4.9954 -1.0317  0.2878
 1021MOL0     H37827   2.796   1.755   3.025 -0.6595 -0.1737  1.2987
 1021MOL0     H37828   2.769   1.587   3.075  2.1904  0.5598 -0.9398
 1021MOL0     H37829   2.574   1.741   3.086  2.4471  0.7583 -0.4034
 1021MOL0     H37830   2.588   1.772   2.909  2.2668 -1.7290 -1.7629
 1021MOL0     H37831   2.329   1.446   2.931 -1.3657  0.5041  0.0675
 1021MOL0     H37832   2.977   1.202   2.914  0.5645 -1.4396  0.6504
 1021MOL0     H37833   3.082   1.019   2.865 -0.7235  0.8363  0.9052
 1021MOL0     H37834   3.244   1.016   2.817  1.9285  0.8492  1.2500
 1021MOL0     H37835   3.207   0.965   2.990 -1.6589 -0.3650  0.2043
 1022MOL0     O37836  10.646  10.179   0.368  0.6020  0.1748 -0.3167
 1022MOL0     C37837  10.621  10.080   0.292 -0.7646 -0.5453 -1.0632
 1022MOL0     O37838  10.556   9.967   0.324 -0.1531 -0.3383  0.4318
 1022MOL0     C37839  10.523   9.930   0.460 -0.2320  0.3458  0.1729
 1022MOL0     C37840  10.617   9.880   0.554 -0.3357  0.1446 -0.5250
 1022MOL0     C37841  10.577   9.849   0.687 -0.4660  0.0511  0.6721
 1022MOL0     C37842  10.442   9.874   0.722 -1.1213 -0.3600  1.4110
 1022MOL0     O37843  10.383   9.845   0.842 -0.1471  0.5475 -0.0047
 1022MOL0     C37844  10.452   9.776   0.946 -0.6291 -1.0840  0.2300
 1022MOL0     C37845  10.514   9.873   1.046 -0.4161 -1.2614 -0.4710
 1022MOL0     C37846  10.616   9.799   1.134  0.1764 -0.0273 -0.4757
 1022MOL0     C37847  10.666   9.906   1.233  0.0476 -0.1959 -0.5359
 1022MOL0     C37848  10.573   9.948   1.350 -0.9108  0.7245 -0.1484
 1022MOL0     C37849  10.634  10.037   1.452  0.0405  0.0590  0.0142
 1022MOL0     C37850  10.540  10.052   1.575 -0.6736 -0.0406 -0.5535
 1022MOL0     C37851  10.614  10.136   1.680 -1.2772  0.7336  0.1151
 1022MOL0     N37852  10.550  10.130   1.808  0.5067  0.1210  0.3975
 1022MOL0     C37853  10.428  10.198   1.835 -0.3374 -0.0735 -0.2035
 1022MOL0     C37854  10.396  10.151   1.957  0.8215  0.6009  0.5185
 1022MOL0     C37855  10.288  10.202   2.039 -0.6479  0.3400  0.0778
 1022MOL0     C37856  10.249  10.112   2.158 -0.3396 -0.2177  0.2205
 1022MOL0     C37857  10.210   9.970   2.141 -0.3397  0.2053  0.0541
 1022MOL0     C37858  10.121   9.953   2.016 -0.3300 -0.1930  0.2572
 1022MOL0     O37859  10.004   9.989   2.071  0.9364 -0.3133  0.3388
 1022MOL0     C37860   9.884   9.955   2.004 -0.2556 -0.1559 -0.8447
 1022MOL0     C37861   9.766   9.979   2.077  0.7322 -0.6048  0.3641
 1022MOL0     C37862   9.644   9.927   2.037  0.0550  0.6038  0.4010
 1022MOL0     C37863   9.631   9.847   1.919 -0.1584  0.6012 -0.6747
 1022MOL0     C37864   9.507   9.798   1.864  1.0503 -0.2058  0.1125
 1022MOL0     O37865   9.508   9.722   1.749  0.5983 -0.3409  0.2288
 1022MOL0     C37866   9.382   9.691   1.679 -0.1776 -0.6235  0.8338
 1022MOL0     C37867   9.366   9.558   1.634 -0.3715 -1.0848 -0.0871
 1022MOL0     C37868   9.260   9.524   1.558  0.4795  0.7024  0.6522
 1022MOL0     C37869   9.157   9.621   1.524 -0.5648 -0.4767  1.3985
 1022MOL0     O37870   9.059   9.591   1.435 -0.5145  0.7513 -0.9840
 1022MOL0     C37871   9.109   9.561   1.303 -0.3091 -0.0649  0.2501
 1022MOL0     C37872   9.180   9.685   1.239 -0.2171 -0.2001  0.0775
 1022MOL0     C37873   9.243   9.655   1.094  0.1740  0.4259 -0.4982
 1022MOL0     C37874   9.146   9.589   0.996  0.7976  0.5519 -0.1866
 1022MOL0     C37875   9.222   9.543   0.865  0.3680  0.3294 -0.9042
 1022MOL0     C37876   9.231   9.660   0.776 -0.2153 -0.7217 -0.7605
 1022MOL0     C37877   9.283   9.632   0.639 -0.1290 -0.3980 -0.2661
 1022MOL0     C37878   9.433   9.593   0.639 -0.6590 -0.3707 -0.2607
 1022MOL0    Cl37879   9.474   9.584   0.472 -0.1191  0.0393 -0.5357
 1022MOL0     C37880   9.184   9.754   1.566  0.2291 -0.0592  0.1191
 1022MOL0     C37881   9.282   9.781   1.649 -0.2091 -0.6490  0.6522
 1022MOL0     O37882   9.407   9.826   1.922 -0.0259  0.2313  1.1266
 1022MOL0     C37883   9.750   9.824   1.847 -0.4551 -0.3462  0.5244
 1022MOL0     C37884   9.877   9.878   1.887 -0.1380 -1.0607  0.3612
 1022MOL0     N37885  10.503  10.069   2.003  0.1782  0.1235  0.0576
 1022MOL0     N37886  10.601  10.060   1.914 -0.9475  0.3541  0.1326
 1022MOL0     C37887  10.351   9.926   0.626 -1.1472 -1.0306  0.0723
 1022MOL0     C37888  10.398   9.960   0.502  0.0820  0.3821  0.0543
 1022MOL0     C37889  10.696  10.073   0.167 -0.9858  0.3713 -0.3247
 1022MOL0     C37890  10.627  10.039   0.052 -0.4575  0.7744 -0.0163
 1022MOL0     C37891  10.701  10.029  -0.067  0.1950  0.5612  0.5625
 1022MOL0     C37892  10.834  10.031  -0.080 -0.4637 -0.1969 -0.3784
 1022MOL0     O37893  10.879   9.996  -0.205 -0.3142 -0.0728  0.4672
 1022MOL0     C37894  11.029   9.990  -0.224  1.2462 -0.0616 -0.0429
 1022MOL0     C37895  11.053  10.020  -0.371 -1.0781  0.2930 -0.3805
 1022MOL0     C37896  11.196   9.969  -0.406 -1.0928  0.0749 -0.0839
 1022MOL0     C37897  11.230   9.996  -0.553  0.3890 -0.6572  0.4794
 1022MOL0     C37898  11.176   9.891  -0.635 -0.1976  0.4881  0.8022
 1022MOL0     C37899  11.141   9.799  -0.709  0.2322 -0.9212 -0.8517
 1022MOL0     C37900  10.906  10.057   0.040 -0.3467 -0.7736  0.7093
 1022MOL0     C37901  10.837  10.069   0.162 -0.3165  0.1099  0.3160
 1022MOL0     C37902  10.920  10.077   0.284 -0.5425 -1.4185  0.5839
 1022MOL0     H37903  10.717   9.857   0.520 -0.8505 -1.5046 -1.0687
 1022MOL0     H37904  10.652   9.818   0.758  0.5584  0.3441 -0.2659
 1022MOL0     H37905  10.380   9.719   1.005 -1.9081 -1.1243 -1.3108
 1022MOL0     H37906  10.526   9.706   0.906 -0.6472 -0.9896  0.0300
 1022MOL0     H37907  10.438   9.917   1.112  1.6311  0.9460  0.5677
 1022MOL0     H37908  10.564   9.956   0.996 -2.1168  0.0383 -0.0990
 1022MOL0     H37909  10.701   9.770   1.072  1.8669  0.3568  1.5701
 1022MOL0     H37910  10.591   9.707   1.188  5.2473 -1.4100  0.0403
 1022MOL0     H37911  10.747   9.858   1.290 -1.2914 -1.7638  0.1353
 1022MOL0     H37912  10.698   9.991   1.173 -0.3276  0.1093 -0.3060
 1022MOL0     H37913  10.473   9.976   1.315 -2.4170 -2.9969  0.6901
 1022MOL0     H37914  10.554   9.856   1.406 -1.2255 -0.8077 -2.6124
 1022MOL0     H37915  10.731  10.000   1.485 -0.5993 -1.3629  0.3827
 1022MOL0     H37916  10.638  10.135   1.404  1.0383 -0.1218 -0.2997
 1022MOL0     H37917  10.507   9.954   1.610 -1.2470 -0.0866 -1.2027
 1022MOL0     H37918  10.445  10.099   1.548 -3.2469 -4.8097 -0.7086
 1022MOL0     H37919  10.714  10.095   1.697 -0.4200  1.0969 -3.2426
 1022MOL0     H37920  10.633  10.238   1.645  2.2209 -0.7696 -2.9867
 1022MOL0     H37921  10.379  10.265   1.766  2.1246  1.1290 -0.8856
 1022MOL0     H37922  10.335  10.295   2.075  0.6286  0.2115 -1.1803
 1022MOL0     H37923  10.194  10.225   1.987 -1.8152  0.6819  2.2160
 1022MOL0     H37924  10.339  10.118   2.220 -1.1466 -1.1276  1.5137
 1022MOL0     H37925  10.178  10.171   2.215 -0.2000 -0.9406  1.1609
 1022MOL0     H37926  10.159   9.940   2.234 -1.6206  0.4572 -0.5368
 1022MOL0     H37927  10.303   9.914   2.133 -0.5487 -0.0044 -1.1281
 1022MOL0     H37928  10.133   9.846   1.996  0.7536 -0.0963  0.3436
 1022MOL0     H37929  10.142  10.010   1.925 -2.0252  3.5417  1.9828
 1022MOL0     H37930   9.769  10.033   2.171  1.4084  1.4495 -0.7720
 1022MOL0     H37931   9.556   9.943   2.098  1.5688 -1.8200  3.5093
 1022MOL0     H37932   9.442   9.484   1.657  0.9434  0.5589  1.0571
 1022MOL0     H37933   9.251   9.431   1.505 -0.7684  2.1255 -1.8014
 1022MOL0     H37934   9.166   9.468   1.306  0.7862  0.6160  2.1655
 1022MOL0     H37935   9.019   9.548   1.243 -1.8380  0.0056  2.4186
 1022MOL0     H37936   9.104   9.758   1.210 -0.1502 -0.5866 -1.1424
 1022MOL0     H37937   9.258   9.725   1.305 -1.5782 -0.6125  2.0222
 1022MOL0     H37938   9.292   9.744   1.054  0.1258  0.9310  0.5166
 1022MOL0     H37939   9.322   9.580   1.100 -0.7270 -0.7839 -2.8167
 1022MOL0     H37940   9.056   9.645   0.968  0.9417  0.1112 -1.6464
 1022MOL0     H37941   9.104   9.507   1.055  2.2334  1.6123  2.4498
 1022MOL0     H37942   9.158   9.473   0.812  0.1928 -1.3427  1.3672
 1022MOL0     H37943   9.324   9.506   0.884 -0.1805  0.1575  2.1690
 1022MOL0     H37944   9.126   9.693   0.778  0.0741  0.2581  1.6871
 1022MOL0     H37945   9.292   9.743   0.813  0.4001 -1.4869 -0.0427
 1022MOL0     H37946   9.265   9.722   0.580  3.5002 -0.6379 -2.0211
 1022MOL0     H37947   9.227   9.551   0.590 -1.3768  1.0419 -1.3208
 1022MOL0     H37948   9.489   9.676   0.684 -1.5557  2.1783 -3.4350
 1022MOL0     H37949   9.456   9.495   0.682  0.2334  1.2260  3.2480
 1022MOL0     H37950   9.106   9.824   1.540  0.0742  0.6687  2.3229
 1022MOL0     H37951   9.290   9.881   1.691  0.6495 -1.2610  2.0337
 1022MOL0     H37952   9.747   9.770   1.753  3.0195  0.7298 -0.3610
 1022MOL0     H37953   9.966   9.862   1.828  1.5205  1.7016  1.9350
 1022MOL0     H37954  10.245   9.946   0.640 -0.7428  1.7934 -0.2986
 1022MOL0     H37955  10.332  10.002   0.427 -0.6989 -2.9965 -1.3810
 1022MOL0     H37956  10.519  10.029   0.056 -0.5058  1.5569  1.8593
 1022MOL0     H37957  10.650  10.017  -0.162  3.6398  4.9740 -2.2704
 1022MOL0     H37958  11.060   9.893  -0.183 -1.7521 -0.2835  1.9922
 1022MOL0     H37959  11.079  10.067  -0.166 -0.1783  1.2360 -0.4745
 1022MOL0     H37960  11.044  10.129  -0.378 -1.8076  0.7216  4.1232
 1022MOL0     H37961  10.979   9.967  -0.432 -0.3966 -2.0156  0.6847
 1022MOL0     H37962  11.201   9.862  -0.385 -0.4187 -0.0364 -0.7765
 1022MOL0     H37963  11.276  10.013  -0.346  0.2252 -3.2914  0.8001
 1022MOL0     H37964  11.187  10.096  -0.565 -0.3469 -0.8976  1.0189
 1022MOL0     H37965  11.338  10.010  -0.564  1.1066 -3.0315  3.3086
 1022MOL0     H37966  11.125   9.704  -0.756  2.4494 -1.7978  0.0168
 1022MOL0     H37967  11.013  10.065   0.030 -0.6096  0.8469 -1.7191
 1022MOL0     H37968  10.903  10.175   0.329  0.5552 -1.3651  0.8899
 1022MOL0     H37969  10.899   9.999   0.357  1.6934 -0.1823  2.6672
 1022MOL0     H37970  11.026  10.068   0.262  0.1912  1.9363  2.0761
 1023MOL0     O37971  10.645   4.071   6.355 -0.2662  0.0027  0.2770
 1023MOL0     C37972  10.576   3.975   6.388  0.5580 -0.3106 -0.1655
 1023MOL0     O37973  10.442   3.986   6.411  0.0949  0.1075 -0.8283
 1023MOL0     C37974  10.398   4.110   6.443 -0.3891 -0.0151  0.1653
 1023MOL0     C37975  10.309   4.161   6.352 -0.4994 -0.6685 -0.5846
 1023MOL0     C37976  10.283   4.303   6.352  0.9192 -0.2655  0.2933
 1023MOL0     C37977  10.338   4.385   6.453  0.0480  0.6179 -0.7471
 1023MOL0     O37978  10.356   4.522   6.440  0.1930  0.3521 -1.0421
 1023MOL0     C37979  10.245   4.612   6.414 -1.2191  0.2296  0.1849
 1023MOL0     C37980  10.261   4.758   6.456  0.5808  0.8327  0.2740
 1023MOL0     C37981  10.392   4.819   6.407  0.5788 -0.7761 -0.5781
 1023MOL0     C37982  10.401   4.968   6.462 -0.5917 -0.6377 -0.6093
 1023MOL0     C37983  10.522   5.039   6.400 -0.7866 -0.0079 -0.1541
 1023MOL0     C37984  10.541   5.184   6.452  0.7600  1.0049 -0.2538
 1023MOL0     C37985  10.633   5.275   6.363  0.4737 -0.7191  0.9971
 1023MOL0     C37986  10.776   5.219   6.380 -0.1455 -0.1004  0.6280
 1023MOL0     N37987  10.845   5.238   6.511  0.6958 -0.1664  0.2501
 1023MOL0     C37988  10.862   5.147   6.610 -0.0934 -0.0371  0.9589
 1023MOL0     C37989  10.941   5.207   6.705  0.9097 -0.8479 -0.1450
 1023MOL0     C37990  10.994   5.153   6.831  0.3176 -0.6993  0.2226
 1023MOL0     C37991  10.890   5.096   6.921  0.5534  0.4898  0.0840
 1023MOL0     C37992  10.954   5.052   7.053  0.5272 -1.0263  1.1378
 1023MOL0     C37993  10.861   5.022   7.170 -0.2367 -0.8331 -0.2653
 1023MOL0     O37994  10.791   5.140   7.209  0.1297 -0.7682 -0.5113
 1023MOL0     C37995  10.670   5.126   7.269 -0.4418 -0.1809  0.4978
 1023MOL0     C37996  10.593   5.240   7.277 -0.1584  1.2693  0.3422
 1023MOL0     C37997  10.475   5.244   7.345  1.3136  0.9363 -0.6448
 1023MOL0     C37998  10.425   5.134   7.422 -0.4983  1.0938 -0.1422
 1023MOL0     C37999  10.288   5.137   7.486  0.2952 -0.6764  0.2158
 1023MOL0     O38000  10.222   5.244   7.470  0.0887 -0.5305  0.5601
 1023MOL0     C38001  10.099   5.255   7.535  0.0810  0.4990 -0.7147
 1023MOL0     C38002   9.997   5.164   7.504  0.5464  0.5585  0.3334
 1023MOL0     C38003   9.865   5.174   7.544  0.4450 -0.5029 -0.4422
 1023MOL0     C38004   9.825   5.293   7.611 -0.1036 -1.3653  0.9125
 1023MOL0     O38005   9.692   5.310   7.647  0.3425  0.2690  0.0676
 1023MOL0     C38006   9.670   5.343   7.785  0.3354 -0.5567 -0.1375
 1023MOL0     C38007   9.530   5.312   7.832  0.0798 -0.4346  0.0399
 1023MOL0     C38008   9.432   5.436   7.814 -0.1608  0.0606 -0.2201
 1023MOL0     C38009   9.443   5.508   7.674 -0.2675  0.0982  0.7309
 1023MOL0     C38010   9.362   5.637   7.673  0.4091  0.7032 -0.3910
 1023MOL0     C38011   9.366   5.693   7.531  0.6337 -0.9664 -0.2192
 1023MOL0     C38012   9.270   5.816   7.515 -0.3357 -0.4306  0.8356
 1023MOL0     C38013   9.280   5.881   7.371 -0.2788  0.2430 -1.0236
 1023MOL0    Cl38014   9.457   5.956   7.361  0.5491 -0.0824 -0.1887
 1023MOL0     C38015   9.929   5.391   7.635  0.4110 -0.0757  0.2538
 1023MOL0     C38016  10.064   5.372   7.610 -1.1325 -0.2329 -0.6479
 1023MOL0     O38017  10.254   5.035   7.542 -0.1265 -0.1974 -0.2742
 1023MOL0     C38018  10.502   5.016   7.407 -0.6055 -0.4516 -1.0266
 1023MOL0     C38019  10.625   5.016   7.342 -0.6685  0.0995  0.5665
 1023MOL0     N38020  10.964   5.330   6.655 -0.4878 -0.1547  0.6748
 1023MOL0     N38021  10.899   5.358   6.545  0.0782  1.5196 -0.2988
 1023MOL0     C38022  10.411   4.319   6.552 -0.8608 -0.0930 -0.1478
 1023MOL0     C38023  10.446   4.185   6.555  1.0412  0.6731 -1.0084
 1023MOL0     C38024  10.638   3.834   6.408  0.6246 -1.9378 -0.6263
 1023MOL0     C38025  10.545   3.734   6.453  0.3592 -0.0942 -0.2404
 1023MOL0     C38026  10.591   3.608   6.480  0.2347  0.2587 -0.1677
 1023MOL0     C38027  10.730   3.574   6.475 -0.2604  0.2801 -0.0257
 1023MOL0     O38028  10.755   3.438   6.494  0.1060 -1.0067  0.4251
 1023MOL0     C38029  10.758   3.386   6.629 -0.3770  0.1153 -0.3157
 1023MOL0     C38030  10.906   3.382   6.678 -0.7454  0.0554 -0.2839
 1023MOL0     C38031  10.973   3.517   6.711  0.7536  0.5488 -0.0187
 1023MOL0     C38032  11.118   3.496   6.769 -0.7804  0.3678  0.1606
 1023MOL0     C38033  11.206   3.488   6.655 -0.6494 -0.6666 -0.8623
 1023MOL0     C38034  11.289   3.482   6.566  0.1266  0.1214  0.8336
 1023MOL0     C38035  10.819   3.662   6.420 -0.0833  0.0906 -1.1721
 1023MOL0     C38036  10.776   3.795   6.381 -0.9044 -0.5444 -0.5233
 1023MOL0     C38037  10.874   3.894   6.331 -0.2809 -0.3173  1.3107
 1023MOL0     H38038  10.292   4.100   6.264  2.2564 -2.8437  0.2407
 1023MOL0     H38039  10.234   4.353   6.269 -3.5154 -1.7386  1.7429
 1023MOL0     H38040  10.219   4.597   6.309 -1.4851 -3.0336  0.6129
 1023MOL0     H38041  10.155   4.579   6.468 -0.1923 -3.4778 -0.0316
 1023MOL0     H38042  10.253   4.776   6.563  1.0349  1.7998  0.1615
 1023MOL0     H38043  10.174   4.813   6.419  0.0789  0.4863  0.9171
 1023MOL0     H38044  10.379   4.831   6.299 -2.4880  2.5100 -0.0325
 1023MOL0     H38045  10.478   4.762   6.443 -0.2894 -0.5146  2.1715
 1023MOL0     H38046  10.309   5.023   6.441 -2.0084 -2.9990 -0.9873
 1023MOL0     H38047  10.415   4.955   6.569  1.4132 -1.1911 -0.8909
 1023MOL0     H38048  10.614   4.981   6.402 -1.3145 -0.8604  0.4294
 1023MOL0     H38049  10.487   5.042   6.296 -1.0215 -3.0890 -0.2461
 1023MOL0     H38050  10.440   5.221   6.474  1.0116  0.9880  0.9974
 1023MOL0     H38051  10.584   5.179   6.552 -0.7399  0.0299  0.3819
 1023MOL0     H38052  10.623   5.382   6.385  0.1634  0.0475 -2.3198
 1023MOL0     H38053  10.605   5.268   6.258  0.9716 -0.3770  0.8371
 1023MOL0     H38054  10.772   5.112   6.359 -0.9185  0.1670 -0.6750
 1023MOL0     H38055  10.832   5.268   6.300 -0.8324 -0.5924 -0.1713
 1023MOL0     H38056  10.817   5.049   6.619  0.0828  0.0900  5.5534
 1023MOL0     H38057  11.072   5.078   6.812  1.8087  0.8032  0.1798
 1023MOL0     H38058  11.040   5.238   6.882  0.4154  2.3935 -4.3822
 1023MOL0     H38059  10.817   5.174   6.947  2.8414  2.1938  1.7619
 1023MOL0     H38060  10.855   5.007   6.868  4.7503 -1.8568  0.8821
 1023MOL0     H38061  11.034   5.116   7.091 -0.9154  0.3590  1.9925
 1023MOL0     H38062  11.013   4.961   7.043  0.6842 -0.6813 -3.2018
 1023MOL0     H38063  10.912   4.974   7.254 -1.2142 -1.0493  0.2197
 1023MOL0     H38064  10.778   4.957   7.142 -0.5174 -0.2156 -0.9096
 1023MOL0     H38065  10.632   5.333   7.239 -0.1651  3.2647  4.5955
 1023MOL0     H38066  10.419   5.337   7.336  2.5479  1.9015  1.1699
 1023MOL0     H38067  10.009   5.078   7.439 -0.3500  0.7233 -0.0757
 1023MOL0     H38068   9.784   5.105   7.521 -0.0758 -0.8852  2.1948
 1023MOL0     H38069   9.744   5.299   7.853  2.0460 -0.4904 -1.8607
 1023MOL0     H38070   9.687   5.450   7.802  0.1268 -0.3874 -0.9649
 1023MOL0     H38071   9.485   5.233   7.772 -3.0703  1.3073 -0.1435
 1023MOL0     H38072   9.541   5.269   7.932  5.4754 -0.9263 -0.4705
 1023MOL0     H38073   9.331   5.403   7.837 -0.5097  1.2971  0.1030
 1023MOL0     H38074   9.446   5.520   7.883 -0.5681  0.0822 -0.1622
 1023MOL0     H38075   9.396   5.450   7.594 -1.4679 -0.1110  1.5603
 1023MOL0     H38076   9.548   5.525   7.651  0.7000 -3.7308  1.5808
 1023MOL0     H38077   9.398   5.703   7.752  0.1852 -3.8644  4.1155
 1023MOL0     H38078   9.266   5.594   7.702 -0.3556  1.3517 -1.9057
 1023MOL0     H38079   9.467   5.724   7.505  0.2392 -0.0382 -0.7048
 1023MOL0     H38080   9.332   5.620   7.457 -0.7267 -1.6297  1.0014
 1023MOL0     H38081   9.305   5.884   7.593 -0.4280  0.6192 -0.0136
 1023MOL0     H38082   9.167   5.788   7.541 -0.8473  0.3963 -0.2043
 1023MOL0     H38083   9.273   5.806   7.292  1.8697 -1.0543 -0.0857
 1023MOL0     H38084   9.214   5.967   7.353 -1.2178 -0.2022  0.1899
 1023MOL0     H38085   9.902   5.480   7.691 -2.1944 -1.1855  0.8956
 1023MOL0     H38086  10.134   5.453   7.628 -0.7059  0.4314 -4.4089
 1023MOL0     H38087  10.450   4.929   7.446  2.9265 -3.3222 -2.2534
 1023MOL0     H38088  10.677   4.921   7.351  0.1350  0.5631  0.8881
 1023MOL0     H38089  10.435   4.387   6.633 -0.6092 -0.3130 -0.0360
 1023MOL0     H38090  10.521   4.158   6.628  0.2144 -0.5268 -0.5753
 1023MOL0     H38091  10.439   3.756   6.455 -0.2376 -2.7197  1.7743
 1023MOL0     H38092  10.512   3.539   6.505 -1.7821  1.1030 -3.5209
 1023MOL0     H38093  10.717   3.285   6.629  4.3396 -2.0390 -0.2938
 1023MOL0     H38094  10.700   3.452   6.695  0.1621 -1.2542  1.6226
 1023MOL0     H38095  10.960   3.331   6.598 -2.1738 -0.3970 -1.0028
 1023MOL0     H38096  10.918   3.319   6.767  4.1055 -0.8391 -1.3075
 1023MOL0     H38097  10.913   3.569   6.787 -1.6495 -0.4177 -1.1526
 1023MOL0     H38098  10.968   3.588   6.628 -1.3714  3.5153  2.4414
 1023MOL0     H38099  11.128   3.590   6.824 -0.0866  0.5075 -0.1922
 1023MOL0     H38100  11.126   3.404   6.828 -1.9111  1.0827  1.5015
 1023MOL0     H38101  11.365   3.487   6.490 -2.8430 -0.8667 -2.4653
 1023MOL0     H38102  10.921   3.627   6.408  0.5692  1.4273  0.1608
 1023MOL0     H38103  10.972   3.851   6.308  0.4577  2.5428 -1.7648
 1023MOL0     H38104  10.839   3.956   6.248  0.4757  0.6700  1.7091
 1023MOL0     H38105  10.900   3.975   6.400 -2.8902  2.5583 -0.7841
 1024MOL0     O38106   7.434  10.634   1.991  0.1947 -0.9756  0.2193
 1024MOL0     C38107   7.356  10.718   2.028  0.1557  1.1603 -0.4901
 1024MOL0     O38108   7.223  10.708   2.019 -0.3475 -0.3037 -1.0701
 1024MOL0     C38109   7.151  10.697   2.135 -0.0169 -0.7500  0.5930
 1024MOL0     C38110   7.016  10.732   2.127 -0.9153  0.6669 -0.2872
 1024MOL0     C38111   6.921  10.727   2.234  0.2633 -0.5793 -0.1662
 1024MOL0     C38112   6.966  10.695   2.360  0.6726  0.4561  0.2311
 1024MOL0     O38113   6.875  10.715   2.464  0.1881 -0.0024 -0.1592
 1024MOL0     C38114   6.890  10.661   2.596 -0.4361  0.0259 -0.2115
 1024MOL0     C38115   6.759  10.673   2.686  0.0349  0.5418  0.0016
 1024MOL0     C38116   6.637  10.609   2.614  0.3018 -0.3835  0.9469
 1024MOL0     C38117   6.524  10.574   2.711 -0.4601  0.8188  0.1479
 1024MOL0     C38118   6.409  10.508   2.644 -0.2310 -0.8777 -0.1643
 1024MOL0     C38119   6.446  10.363   2.617 -0.6802  0.2665  0.0663
 1024MOL0     C38120   6.340  10.293   2.534  0.2138 -0.4369  0.6946
 1024MOL0     C38121   6.358  10.145   2.558  0.3140 -0.1229  0.1342
 1024MOL0     N38122   6.247  10.076   2.499 -0.5494  0.0756  0.7527
 1024MOL0     C38123   6.250  10.029   2.375  0.3211  0.6119  0.3864
 1024MOL0     C38124   6.123   9.987   2.347  0.9974 -0.4463  0.9083
 1024MOL0     C38125   6.090   9.905   2.228  0.0701  0.1336 -1.1006
 1024MOL0     C38126   6.030   9.981   2.112  0.2327 -0.8838 -0.6045
 1024MOL0     C38127   6.103  10.107   2.071  0.2646 -0.3600 -0.0486
 1024MOL0     C38128   6.065  10.160   1.930 -0.5226  0.0585 -0.9617
 1024MOL0     O38129   6.149  10.087   1.849 -0.0704 -0.2325  0.0141
 1024MOL0     C38130   6.085  10.006   1.760  0.3053 -0.6933 -0.0919
 1024MOL0     C38131   6.102   9.867   1.765  0.1542 -0.7720 -0.5125
 1024MOL0     C38132   6.043   9.793   1.660 -0.5409 -0.0199  0.2814
 1024MOL0     C38133   5.958   9.848   1.567 -0.0803 -0.4976 -0.0757
 1024MOL0     C38134   5.908   9.769   1.452  0.1271 -0.7440 -0.2677
 1024MOL0     O38135   5.987   9.665   1.421  0.4393 -0.1332 -0.8570
 1024MOL0     C38136   5.947   9.603   1.306 -0.4286 -0.4069  0.0125
 1024MOL0     C38137   5.839   9.508   1.291  0.2778  0.1007 -0.3577
 1024MOL0     C38138   5.800   9.456   1.179  0.6964  0.3712 -0.3874
 1024MOL0     C38139   5.887   9.468   1.065  0.3955  0.0527  0.5934
 1024MOL0     O38140   5.857   9.417   0.939  0.4588 -0.0850  0.3290
 1024MOL0     C38141   5.721   9.400   0.902  0.6682  0.4488 -0.1425
 1024MOL0     C38142   5.687   9.367   0.758  0.2979 -0.2169 -0.4019
 1024MOL0     C38143   5.777   9.447   0.661 -0.3591 -0.2909 -0.6265
 1024MOL0     C38144   5.744   9.423   0.518  0.1058  0.4227  0.2058
 1024MOL0     C38145   5.839   9.516   0.433  0.3398  0.0180  0.3311
 1024MOL0     C38146   5.814   9.506   0.279  0.7318  0.6818  0.7035
 1024MOL0     C38147   5.882   9.615   0.206 -0.0746  0.1574  0.3931
 1024MOL0     C38148   5.963   9.567   0.085 -0.9190  0.0938 -0.0410
 1024MOL0    Cl38149   6.100   9.459   0.140 -0.0106  0.2724 -0.2835
 1024MOL0     C38150   6.008   9.545   1.082  0.8730 -0.6074  0.5060
 1024MOL0     C38151   6.028   9.624   1.194  0.3447 -0.4361 -0.2898
 1024MOL0     O38152   5.805   9.804   1.396  0.1782 -0.6659 -0.4357
 1024MOL0     C38153   5.920   9.985   1.587 -0.5912  0.5240  0.8410
 1024MOL0     C38154   5.993  10.070   1.673 -0.1967  1.0573  1.3731
 1024MOL0     N38155   6.054  10.008   2.472  0.0167  0.1278 -1.1093
 1024MOL0     N38156   6.133  10.052   2.560 -0.3511 -0.1569 -0.2904
 1024MOL0     C38157   7.103  10.668   2.370 -0.5916  0.5549 -0.0617
 1024MOL0     C38158   7.198  10.675   2.264  0.1120  0.1682  0.0787
 1024MOL0     C38159   7.420  10.833   2.091 -0.1950  0.1221 -0.3462
 1024MOL0     C38160   7.535  10.801   2.165 -0.1231  0.1966 -0.6266
 1024MOL0     C38161   7.612  10.902   2.222  1.5232 -0.2234 -0.4305
 1024MOL0     C38162   7.566  11.034   2.214  0.2591 -0.0403 -0.7495
 1024MOL0     O38163   7.636  11.120   2.297  0.5203 -0.3966 -0.0524
 1024MOL0     C38164   7.568  11.232   2.350  0.3657  0.5963 -0.0610
 1024MOL0     C38165   7.615  11.285   2.494 -0.4135  1.1448  0.2376
 1024MOL0     C38166   7.773  11.309   2.507 -0.2724 -0.8686  0.4780
 1024MOL0     C38167   7.824  11.439   2.445  0.3350 -0.1629  0.4078
 1024MOL0     C38168   7.760  11.560   2.500  0.3824 -0.5693  0.2823
 1024MOL0     C38169   7.692  11.664   2.524  0.6007 -0.2222 -0.3502
 1024MOL0     C38170   7.447  11.067   2.156  0.7251 -0.0206  1.1336
 1024MOL0     C38171   7.375  10.966   2.081 -0.6601 -0.4758 -0.4372
 1024MOL0     C38172   7.282  11.009   1.970  0.4260  0.4692 -0.5135
 1024MOL0     H38173   6.967  10.750   2.032 -1.2842 -0.8964 -0.4123
 1024MOL0     H38174   6.816  10.748   2.215  0.6718 -0.1330 -2.1973
 1024MOL0     H38175   6.922  10.557   2.612  2.4740  0.8582 -0.0815
 1024MOL0     H38176   6.967  10.727   2.635 -0.0617  1.4886 -3.1067
 1024MOL0     H38177   6.743  10.776   2.720  2.8847  1.5303 -1.3843
 1024MOL0     H38178   6.782  10.614   2.775  0.9428 -1.3651 -1.4209
 1024MOL0     H38179   6.679  10.517   2.572  3.3466 -0.0261  2.9023
 1024MOL0     H38180   6.596  10.679   2.541 -0.4839  1.1025  2.7293
 1024MOL0     H38181   6.568  10.501   2.780 -1.9859 -0.0110  0.2775
 1024MOL0     H38182   6.489  10.662   2.766  1.6920  1.6160  0.3682
 1024MOL0     H38183   6.329  10.521   2.718  3.2196  1.6726  3.5488
 1024MOL0     H38184   6.376  10.565   2.557  2.5537  3.0896  1.1023
 1024MOL0     H38185   6.543  10.355   2.566  0.3675 -1.5702  2.1594
 1024MOL0     H38186   6.460  10.313   2.713  2.3220  1.8869  0.5921
 1024MOL0     H38187   6.363  10.316   2.430 -1.9829 -2.3722 -0.3236
 1024MOL0     H38188   6.238  10.323   2.556  0.3779  0.2702  0.5158
 1024MOL0     H38189   6.452  10.113   2.512 -0.3039 -1.1456 -0.4515
 1024MOL0     H38190   6.363  10.126   2.666  1.3358 -0.4141  0.0419
 1024MOL0     H38191   6.338  10.033   2.313  0.3909 -0.4735  0.4050
 1024MOL0     H38192   6.185   9.866   2.190  0.6527 -0.9822  1.3347
 1024MOL0     H38193   6.023   9.824   2.257  0.5349  0.9558  2.7042
 1024MOL0     H38194   6.018   9.917   2.024  0.4855 -2.3049  0.3486
 1024MOL0     H38195   5.928  10.006   2.140 -0.0628 -0.1621 -2.2149
 1024MOL0     H38196   6.209  10.083   2.066 -0.6877 -5.9581  0.4625
 1024MOL0     H38197   6.090  10.193   2.138 -0.3502  3.1748 -4.2618
 1024MOL0     H38198   6.084  10.268   1.924  0.0673 -0.1001 -2.2991
 1024MOL0     H38199   5.961  10.134   1.911 -1.3128  1.4512  1.0412
 1024MOL0     H38200   6.158   9.810   1.838  1.1562 -0.5994 -1.1276
 1024MOL0     H38201   6.069   9.688   1.658  0.4490  0.1340  2.3117
 1024MOL0     H38202   5.777   9.497   1.379 -0.1086  1.0123 -0.5024
 1024MOL0     H38203   5.711   9.395   1.169  0.6119 -0.9293  5.1134
 1024MOL0     H38204   5.675   9.329   0.972 -2.2210  2.1840 -0.1205
 1024MOL0     H38205   5.662   9.490   0.925 -0.9217 -0.7189  0.5741
 1024MOL0     H38206   5.698   9.259   0.744 -1.1188 -0.3168 -0.8891
 1024MOL0     H38207   5.583   9.399   0.755  0.7800  1.3261 -1.5736
 1024MOL0     H38208   5.764   9.552   0.689  0.2183 -0.6281  1.0280
 1024MOL0     H38209   5.882   9.422   0.679 -0.2561  0.7869  0.3263
 1024MOL0     H38210   5.641   9.453   0.501  0.4293  0.8876 -1.0154
 1024MOL0     H38211   5.767   9.319   0.491 -0.2828 -0.2922  2.4166
 1024MOL0     H38212   5.944   9.501   0.461  0.2871 -1.3028 -0.1392
 1024MOL0     H38213   5.813   9.617   0.466 -0.1902 -0.2196  0.6640
 1024MOL0     H38214   5.828   9.409   0.231  0.2848  0.4209  1.0902
 1024MOL0     H38215   5.705   9.504   0.270  0.7868 -3.6312 -2.0617
 1024MOL0     H38216   5.951   9.666   0.273  0.5421 -0.2472  0.0729
 1024MOL0     H38217   5.815   9.687   0.159 -0.5751 -0.6008 -0.0948
 1024MOL0     H38218   5.913   9.501   0.014  2.5834 -1.6411 -1.1588
 1024MOL0     H38219   6.011   9.652   0.036  0.2459  0.6960  2.0254
 1024MOL0     H38220   6.066   9.566   0.993 -1.4907 -0.6394 -1.1207
 1024MOL0     H38221   6.100   9.704   1.203 -1.6238  1.4135 -0.2244
 1024MOL0     H38222   5.842  10.016   1.518 -0.5038 -3.9285 -1.6908
 1024MOL0     H38223   5.976  10.178   1.670 -0.4875  1.0393 -2.3942
 1024MOL0     H38224   7.158  10.658   2.463  1.1699  2.7700 -0.7735
 1024MOL0     H38225   7.304  10.657   2.281  0.0890 -4.3893 -2.7603
 1024MOL0     H38226   7.570  10.702   2.192 -1.7458 -0.1500  0.3082
 1024MOL0     H38227   7.707  10.878   2.270  0.2127 -1.7566  1.5211
 1024MOL0     H38228   7.465  11.204   2.371  0.0870 -1.3916 -3.3342
 1024MOL0     H38229   7.566  11.315   2.278 -0.5651  1.6431  1.1283
 1024MOL0     H38230   7.597  11.211   2.573  2.7048  0.4278  0.4254
 1024MOL0     H38231   7.561  11.374   2.527  2.0145  2.1733  1.7580
 1024MOL0     H38232   7.828  11.223   2.468 -0.2997 -1.4892  1.7471
 1024MOL0     H38233   7.791  11.312   2.615  1.1439 -3.0717  0.3672
 1024MOL0     H38234   7.933  11.442   2.454  0.4000  0.9649 -0.4424
 1024MOL0     H38235   7.794  11.434   2.340 -3.4636  0.2893  1.3414
 1024MOL0     H38236   7.639  11.754   2.548 -0.2790 -0.8389  0.0707
 1024MOL0     H38237   7.398  11.164   2.162 -2.0193 -1.2781  0.5236
 1024MOL0     H38238   7.225  11.098   1.999 -1.5735 -0.3658 -1.7101
 1024MOL0     H38239   7.347  11.029   1.884  2.3961 -1.2445  0.4876
 1024MOL0     H38240   7.204  10.939   1.939 -0.9535  2.5147 -1.8888
  11.53641  11.53641  11.53641
